Protein in INSANE! Membrane UpperLeaflet>POPC=1.0 LowerLeaflet>POPC=1.0
248712
    1AU     AUC    1  28.014  27.071   7.541
    1AU     AUC    2  28.266  27.066   7.382
    1AU     AUC    3  28.252  27.070   7.715
    1AU     AUC    4  27.751  27.066   7.380
    1AU     AUC    5  27.767  27.115   7.702
    1AU     AUC    6  27.854  27.329   7.497
    1AU     AUC    7  28.191  27.332   7.506
    1AU     AUC    8  27.844  26.819   7.561
    1AU     AUC    9  28.175  26.801   7.569
    1AU     AUC   10  28.010  26.925   7.812
    1AU     AUC   11  28.019  27.267   7.774
    1AU     AUC   12  28.012  26.884   7.300
    1AU     AUC   13  28.026  27.187   7.270
    1AU     AUC   14  28.580  27.056   7.235
    1AU     AUC   15  28.578  27.051   7.579
    1AU     AUC   16  28.540  27.056   7.927
    1AU     AUC   17  27.452  27.023   7.237
    1AU     AUC   18  27.442  27.107   7.557
    1AU     AUC   19  27.470  27.171   7.872
    1AU     AUC   20  27.695  27.634   7.427
    1AU     AUC   21  28.052  27.620   7.417
    1AU     AUC   22  28.385  27.608   7.460
    1AU     AUC   23  27.653  26.526   7.583
    1AU     AUC   24  28.000  26.507   7.564
    1AU     AUC   25  28.352  26.505   7.584
    1AU     AUC   26  27.975  26.772   8.122
    1AU     AUC   27  27.997  27.121   8.104
    1AU     AUC   28  28.054  27.478   8.054
    1AU     AUC   29  28.054  26.690   7.021
    1AU     AUC   30  28.004  27.015   6.965
    1AU     AUC   31  27.988  27.328   6.944
    1AU     AUC   32  28.246  26.880   8.035
    1AU     AUC   33  28.290  27.239   8.009
    1AU     AUC   34  28.326  26.902   7.086
    1AU     AUC   35  28.279  27.197   7.086
    1AU     AUC   36  27.718  27.003   8.014
    1AU     AUC   37  27.758  27.352   7.955
    1AU     AUC   38  27.739  26.835   7.117
    1AU     AUC   39  27.693  27.156   7.075
    1AU     AUC   40  28.499  27.336   7.367
    1AU     AUC   41  28.450  27.327   7.707
    1AU     AUC   42  27.554  27.336   7.363
    1AU     AUC   43  27.601  27.432   7.685
    1AU     AUC   44  28.487  26.796   7.437
    1AU     AUC   45  28.422  26.754   7.773
    1AU     AUC   46  27.556  26.755   7.403
    1AU     AUC   47  27.574  26.851   7.736
    1AU     AUC   48  27.915  27.582   7.746
    1AU     AUC   49  28.224  27.541   7.773
    1AU     AUC   50  27.820  26.650   7.846
    1AU     AUC   51  28.125  26.592   7.841
    1AU     AUC   52  27.825  27.479   7.181
    1AU     AUC   53  28.189  27.504   7.200
    1AU     AUC   54  27.870  26.591   7.287
    1AU     AUC   55  28.238  26.642   7.301
    1AU    AUSL   56  28.506  26.995   8.335
    1AU    AUSL   57  28.253  26.604   8.256
    1AU     AUL   58  28.545  26.641   8.438
    1AU    AUSL   59  28.085  26.941   8.467
    1AU    AUSL   60  27.850  27.339   8.441
    1AU     AUL   61  28.073  27.246   8.728
    1AU    AUSL   62  28.194  27.292   8.196
    1AU    AUSL   63  28.649  27.359   8.140
    1AU     AUL   64  28.465  27.304   8.463
    1AU    AUSL   65  28.473  27.087   6.835
    1AU    AUSL   66  28.289  27.462   6.977
    1AU     AUL   67  28.554  27.404   6.714
    1AU    AUSL   68  28.270  26.756   6.627
    1AU    AUSL   69  28.781  26.850   7.022
    1AU     AUL   70  28.637  26.876   6.677
    1AU    AUSL   71  28.088  27.216   6.680
    1AU    AUSL   72  27.904  26.836   6.837
    1AU     AUL   73  28.017  26.883   6.501
    1AU    AUSL   74  27.465  27.296   8.220
    1AU    AUSL   75  27.822  27.596   8.093
    1AU     AUL   76  27.642  27.573   8.404
    1AU    AUSL   77  27.764  26.982   8.190
    1AU    AUSL   78  27.334  26.869   8.142
    1AU     AUL   79  27.305  27.077   8.306
    1AU    AUSL   80  27.464  26.813   6.809
    1AU    AUSL   81  27.712  26.483   6.986
    1AU     AUL   82  27.754  26.529   6.677
    1AU    AUSL   83  27.655  27.176   6.661
    1AU    AUSL   84  27.373  27.182   7.035
    1AU     AUL   85  27.252  27.035   6.782
    1AU    AUSL   86  28.788  27.554   7.503
    1AU    AUSL   87  28.650  27.288   7.173
    1AU     AUL   88  28.905  27.381   7.043
    1AU    AUSL   89  28.986  27.153   7.427
    1AU    AUSL   90  28.924  26.854   7.808
    1AU     AUL   91  29.166  27.080   7.782
    1AU    AUSL   92  28.689  27.202   7.748
    1AU    AUSL   93  28.475  27.591   7.799
    1AU     AUL   94  28.851  27.486   7.868
    1AU    AUSL   95  27.445  27.716   7.467
    1AU    AUSL   96  27.477  27.488   7.838
    1AU     AUL   97  27.169  27.729   7.672
    1AU    AUSL   98  27.255  27.316   7.424
    1AU    AUSL   99  27.392  27.614   7.056
    1AU     AUL  100  27.157  27.539   7.211
    1AU    AUSL  101  27.103  27.295   7.858
    1AU    AUSL  102  27.084  26.926   7.371
    1AU     AUL  103  26.934  27.264   7.541
    1AU    AUSL  104  28.702  26.501   7.655
    1AU    AUSL  105  28.525  26.792   7.961
    1AU     AUL  106  28.831  26.683   8.043
    1AU    AUSL  107  28.667  26.869   7.431
    1AU    AUSL  108  28.676  26.461   7.222
    1AU     AUL  109  28.928  26.689   7.319
    1AU    AUSL  110  27.256  26.558   7.594
    1AU    AUSL  111  27.449  26.752   7.228
    1AU     AUL  112  27.090  26.646   7.254
    1AU    AUSL  113  27.341  26.969   7.726
    1AU    AUSL  114  27.569  26.606   7.886
    1AU     AUL  115  27.245  26.599   7.930
    1AU    AUSL  116  28.099  27.876   7.905
    1AU    AUSL  117  27.641  27.897   7.815
    1AU     AUL  118  27.859  27.939   8.158
    1AU    AUSL  119  27.923  27.772   7.523
    1AU    AUSL  120  28.166  27.880   7.171
    1AU     AUL  121  27.920  28.119   7.464
    1AU    AUSL  122  28.364  27.918   7.551
    1AU    AUSL  123  28.344  27.691   8.203
    1AU     AUL  124  28.486  27.914   7.904
    1AU    AUSL  125  27.947  26.420   8.009
    1AU    AUSL  126  28.375  26.382   7.901
    1AU     AUL  127  28.122  26.312   8.265
    1AU    AUSL  128  27.647  26.216   7.736
    1AU    AUSL  129  27.701  26.588   8.318
    1AU     AUL  130  27.619  26.298   8.085
    1AU    AUSL  131  28.089  26.133   7.704
    1AU    AUSL  132  27.878  26.375   7.397
    1AU     AUL  133  27.791  26.015   7.515
    1AU    AUSL  134  28.001  27.710   6.781
    1AU    AUSL  135  28.561  27.724   7.187
    1AU     AUL  136  28.339  27.809   6.863
    1AU    AUSL  137  27.741  27.843   7.136
    1AU    AUSL  138  27.771  27.414   6.988
    1AU     AUL  139  27.673  27.685   6.783
    1AU    AUSL  140  28.112  26.323   7.016
    1AU    AUSL  141  27.467  26.311   7.309
    1AU     AUL  142  27.778  26.168   7.073
    1AU    AUSL  143  28.312  26.366   7.417
    1AU    AUSL  144  28.344  26.684   7.040
    1AU     AUL  145  28.437  26.354   7.005
    1AU       S  146  28.564  26.185   8.306
    1AU     LIG  147  28.770  25.756   8.311
    1AU     LIG  148  28.944  25.334   8.440
    1AU     LIG  149  29.424  25.205   8.454
    1AU       S  150  28.452  26.941   8.780
    1AU     LIG  151  28.836  27.033   8.987
    1AU     LIG  152  29.027  27.097   9.407
    1AU     LIG  153  29.269  27.019   9.804
    1AU       S  154  28.099  26.771   8.675
    1AU     LIG  155  28.157  26.706   9.119
    1AU     LIG  156  28.574  26.748   9.354
    1AU     LIG  157  28.848  26.715   9.742
    1AU       S  158  27.633  27.143   8.655
    1AU     LIG  159  27.658  27.102   9.115
    1AU     LIG  160  27.293  27.009   9.374
    1AU     LIG  161  27.017  27.075   9.754
    1AU       S  162  28.093  27.706   8.579
    1AU     LIG  163  28.371  28.000   8.770
    1AU     LIG  164  28.782  27.821   8.876
    1AU     LIG  165  29.064  27.507   9.033
    1AU       S  166  28.822  27.582   8.332
    1AU     LIG  167  29.188  27.605   8.532
    1AU     LIG  168  29.299  27.937   8.796
    1AU     LIG  169  29.480  28.288   9.052
    1AU       S  170  28.423  27.171   6.342
    1AU     LIG  171  28.691  27.214   5.963
    1AU     LIG  172  28.948  26.872   5.866
    1AU     LIG  173  28.887  26.460   5.725
    1AU       S  174  28.800  27.788   6.796
    1AU     LIG  175  28.780  28.151   6.597
    1AU     LIG  176  28.963  28.263   6.212
    1AU     LIG  177  29.321  28.294   5.978
    1AU       S  178  29.010  26.633   6.848
    1AU     LIG  179  28.968  26.669   6.349
    1AU     LIG  180  28.828  26.250   6.202
    1AU     LIG  181  28.819  25.856   6.469
    1AU       S  182  28.401  26.991   6.288
    1AU     LIG  183  28.493  26.640   6.089
    1AU     LIG  184  28.376  26.500   5.687
    1AU     LIG  185  28.580  26.456   5.270
    1AU       S  186  27.594  26.826   6.341
    1AU     LIG  187  27.903  26.685   6.034
    1AU     LIG  188  27.892  26.688   5.575
    1AU     LIG  189  27.659  26.874   5.229
    1AU       S  190  28.164  27.328   6.447
    1AU     LIG  191  27.958  27.189   6.086
    1AU     LIG  192  28.240  27.001   5.786
    1AU     LIG  193  28.594  26.932   5.499
    1AU       S  194  27.431  27.277   8.702
    1AU     LIG  195  27.107  27.020   8.752
    1AU     LIG  196  27.058  26.684   9.012
    1AU     LIG  197  26.922  26.650   9.453
    1AU       S  198  27.379  27.892   8.189
    1AU     LIG  199  27.083  28.081   8.456
    1AU     LIG  200  26.919  28.004   8.877
    1AU     LIG  201  26.490  28.061   9.059
    1AU       S  202  27.207  26.634   8.418
    1AU     LIG  203  26.783  26.519   8.228
    1AU     LIG  204  26.539  26.117   8.358
    1AU     LIG  205  26.234  26.008   8.706
    1AU       S  206  27.629  26.958   8.617
    1AU     LIG  207  27.610  26.634   8.942
    1AU     LIG  208  27.416  26.493   9.333
    1AU     LIG  209  27.341  26.655   9.760
    1AU       S  210  27.394  26.742   6.456
    1AU     LIG  211  27.218  26.684   6.049
    1AU     LIG  212  27.395  26.870   5.682
    1AU     LIG  213  27.233  27.156   5.349
    1AU       S  214  27.385  26.280   6.830
    1AU     LIG  215  27.267  25.947   6.555
    1AU     LIG  216  27.009  25.897   6.180
    1AU     LIG  217  26.637  26.044   5.937
    1AU       S  218  27.075  27.453   6.726
    1AU     LIG  219  26.790  27.801   6.750
    1AU     LIG  220  26.771  28.167   6.474
    1AU     LIG  221  26.771  28.201   5.990
    1AU       S  222  27.593  27.105   6.441
    1AU     LIG  223  27.277  27.210   6.183
    1AU     LIG  224  27.427  27.369   5.800
    1AU     LIG  225  27.798  27.216   5.584
    1AU       S  226  28.972  27.819   6.997
    1AU     LIG  227  29.334  27.849   6.784
    1AU     LIG  228  29.388  27.900   6.323
    1AU     LIG  229  29.648  27.901   5.914
    1AU       S  230  29.015  27.638   7.448
    1AU     LIG  231  29.241  27.980   7.401
    1AU     LIG  232  29.607  27.932   7.622
    1AU     LIG  233  29.981  27.705   7.534
    1AU       S  234  29.226  27.352   7.392
    1AU     LIG  235  29.559  27.591   7.208
    1AU     LIG  236  29.979  27.596   6.998
    1AU     LIG  237  30.346  27.728   6.714
    1AU       S  238  29.183  26.598   7.746
    1AU     LIG  239  29.497  26.302   7.958
    1AU     LIG  240  29.820  26.005   7.837
    1AU     LIG  241  30.110  26.025   7.497
    1AU       S  242  28.831  27.817   8.192
    1AU     LIG  243  29.215  28.046   8.272
    1AU     LIG  244  29.303  28.405   8.561
    1AU     LIG  245  29.278  28.750   8.891
    1AU       S  246  29.240  27.515   7.617
    1AU     LIG  247  29.366  27.604   8.010
    1AU     LIG  248  29.801  27.699   8.075
    1AU     LIG  249  30.203  27.558   7.963
    1AU       S  250  27.284  27.705   8.113
    1AU     LIG  251  27.068  27.560   8.463
    1AU     LIG  252  26.669  27.765   8.506
    1AU     LIG  253  26.270  27.946   8.560
    1AU       S  254  27.382  28.039   7.377
    1AU     LIG  255  27.072  28.383   7.392
    1AU     LIG  256  26.672  28.446   7.161
    1AU     LIG  257  26.413  28.158   6.877
    1AU       S  258  26.853  27.203   7.077
    1AU     LIG  259  26.375  27.296   7.149
    1AU     LIG  260  25.998  27.623   7.148
    1AU     LIG  261  25.907  28.087   7.099
    1AU       S  262  27.263  27.874   6.888
    1AU     LIG  263  27.377  28.241   6.670
    1AU     LIG  264  27.095  28.578   6.532
    1AU     LIG  265  26.718  28.627   6.256
    1AU       S  266  26.856  26.814   7.642
    1AU     LIG  267  26.550  26.834   7.345
    1AU     LIG  268  26.086  26.826   7.301
    1AU     LIG  269  25.716  26.784   7.041
    1AU       S  270  26.988  27.313   8.026
    1AU     LIG  271  26.640  27.294   8.274
    1AU     LIG  272  26.320  27.603   8.155
    1AU     LIG  273  26.264  27.769   7.717
    1AU       S  274  28.860  26.372   7.673
    1AU     LIG  275  28.949  26.058   7.426
    1AU     LIG  276  29.387  25.978   7.522
    1AU     LIG  277  29.720  25.726   7.373
    1AU       S  278  28.740  26.258   8.159
    1AU     LIG  279  29.057  26.014   7.939
    1AU     LIG  280  29.379  25.787   8.080
    1AU     LIG  281  29.304  25.700   8.523
    1AU       S  282  29.161  26.457   7.626
    1AU     LIG  283  29.396  26.434   7.260
    1AU     LIG  284  29.823  26.284   7.160
    1AU     LIG  285  30.258  26.265   6.974
    1AU       S  286  28.924  26.349   6.991
    1AU     LIG  287  28.733  25.964   6.975
    1AU     LIG  288  28.531  25.631   6.860
    1AU     LIG  289  28.518  25.429   6.481
    1AU       S  290  27.239  26.413   6.890
    1AU     LIG  291  26.973  26.378   6.533
    1AU     LIG  292  26.595  26.139   6.456
    1AU     LIG  293  26.302  25.817   6.614
    1AU       S  294  26.857  26.574   7.673
    1AU     LIG  295  26.779  26.253   7.354
    1AU     LIG  296  26.394  26.104   7.076
    1AU     LIG  297  25.939  26.297   7.051
    1AU       S  298  27.252  26.411   8.347
    1AU     LIG  299  27.076  26.106   8.059
    1AU     LIG  300  26.782  25.749   8.099
    1AU     LIG  301  26.361  25.588   8.212
    1AU       S  302  26.891  26.864   7.818
    1AU     LIG  303  26.437  26.848   7.913
    1AU     LIG  304  26.016  26.677   7.804
    1AU     LIG  305  25.662  26.531   8.051
    1AU       S  306  27.497  28.075   7.864
    1AU     LIG  307  27.031  28.153   7.912
    1AU     LIG  308  26.650  28.220   8.192
    1AU     LIG  309  26.604  28.331   8.631
    1AU       S  310  28.125  28.201   7.875
    1AU     LIG  311  28.140  28.390   8.270
    1AU     LIG  312  28.017  28.840   8.338
    1AU     LIG  313  27.869  29.282   8.479
    1AU       S  314  28.237  28.377   7.762
    1AU     LIG  315  27.813  28.579   7.870
    1AU     LIG  316  27.657  28.988   7.985
    1AU     LIG  317  27.866  29.361   7.979
    1AU       S  318  28.092  28.179   7.028
    1AU     LIG  319  27.989  28.585   7.258
    1AU     LIG  320  28.034  29.063   7.299
    1AU     LIG  321  28.305  29.377   7.070
    1AU       S  322  28.568  27.790   8.367
    1AU     LIG  323  28.795  28.190   8.532
    1AU     LIG  324  28.966  28.300   8.950
    1AU     LIG  325  29.103  27.994   9.282
    1AU       S  326  28.385  28.214   7.532
    1AU     LIG  327  28.414  28.738   7.498
    1AU     LIG  328  28.176  28.958   7.844
    1AU     LIG  329  28.312  29.248   8.195
    1AU       S  330  27.922  25.925   8.099
    1AU     LIG  331  28.278  25.602   8.157
    1AU     LIG  332  28.404  25.210   8.308
    1AU     LIG  333  28.108  24.877   8.452
    1AU       S  334  28.511  26.231   8.003
    1AU     LIG  335  28.584  25.853   7.833
    1AU     LIG  336  28.728  25.413   7.934
    1AU     LIG  337  29.187  25.319   8.003
    1AU       S  338  27.721  25.864   7.948
    1AU     LIG  339  27.666  25.486   7.769
    1AU     LIG  340  27.836  25.120   7.978
    1AU     LIG  341  27.606  24.947   8.355
    1AU       S  342  27.484  26.525   8.480
    1AU     LIG  343  27.331  26.194   8.776
    1AU     LIG  344  27.028  25.895   8.569
    1AU     LIG  345  26.636  25.675   8.637
    1AU       S  346  28.178  25.934   7.281
    1AU     LIG  347  27.849  25.671   7.162
    1AU     LIG  348  28.061  25.397   6.913
    1AU     LIG  349  28.096  24.998   6.981
    1AU       S  350  28.084  25.966   7.888
    1AU     LIG  351  28.155  25.606   7.652
    1AU     LIG  352  28.301  25.194   7.736
    1AU     LIG  353  28.312  24.831   7.985
    1AU       S  354  27.948  28.075   6.743
    1AU     LIG  355  27.875  28.529   6.734
    1AU     LIG  356  28.161  28.878   6.833
    1AU     LIG  357  28.401  29.208   6.594
    1AU       S  358  28.730  27.921   7.140
    1AU     LIG  359  29.057  28.289   7.009
    1AU     LIG  360  29.295  28.328   6.613
    1AU     LIG  361  29.417  28.661   6.332
    1AU       S  362  27.747  28.103   7.013
    1AU     LIG  363  27.513  28.488   7.103
    1AU     LIG  364  27.644  28.928   6.979
    1AU     LIG  365  27.884  29.301   6.766
    1AU       S  366  27.296  27.497   6.620
    1AU     LIG  367  27.176  27.856   6.369
    1AU     LIG  368  27.255  28.268   6.156
    1AU     LIG  369  27.145  28.705   6.002
    1AU       S  370  27.293  26.229   7.132
    1AU     LIG  371  26.923  26.001   6.929
    1AU     LIG  372  26.801  25.705   6.605
    1AU     LIG  373  26.569  25.602   6.207
    1AU       S  374  28.223  25.961   7.098
    1AU     LIG  375  28.110  25.841   6.667
    1AU     LIG  376  28.030  25.421   6.408
    1AU     LIG  377  28.239  24.991   6.486
    1AU       S  378  28.427  26.060   7.382
    1AU     LIG  379  28.593  25.658   7.380
    1AU     LIG  380  28.428  25.319   7.256
    1AU     LIG  381  28.575  25.121   6.892
    1AU       S  382  28.790  26.440   6.739
    1AU     LIG  383  28.432  26.240   6.527
    1AU     LIG  384  28.380  25.891   6.218
    1AU     LIG  385  28.649  25.570   6.002
    2AU     AUC  386  12.441  25.749   7.525
    2AU     AUC  387  12.684  25.739   7.355
    2AU     AUC  388  12.688  25.740   7.690
    2AU     AUC  389  12.172  25.754   7.374
    2AU     AUC  390  12.203  25.798   7.698
    2AU     AUC  391  12.283  26.011   7.493
    2AU     AUC  392  12.618  26.004   7.487
    2AU     AUC  393  12.266  25.503   7.548
    2AU     AUC  394  12.593  25.473   7.543
    2AU     AUC  395  12.444  25.601   7.795
    2AU     AUC  396  12.459  25.943   7.761
    2AU     AUC  397  12.425  25.565   7.280
    2AU     AUC  398  12.445  25.871   7.256
    2AU     AUC  399  12.993  25.721   7.194
    2AU     AUC  400  13.005  25.707   7.536
    2AU     AUC  401  12.985  25.716   7.884
    2AU     AUC  402  11.868  25.720   7.240
    2AU     AUC  403  11.869  25.798   7.561
    2AU     AUC  404  11.912  25.855   7.884
    2AU     AUC  405  12.125  26.321   7.437
    2AU     AUC  406  12.482  26.305   7.416
    2AU     AUC  407  12.817  26.281   7.450
    2AU     AUC  408  12.066  25.214   7.575
    2AU     AUC  409  12.409  25.184   7.548
    2AU     AUC  410  12.757  25.169   7.551
    2AU     AUC  411  12.417  25.448   8.108
    2AU     AUC  412  12.451  25.794   8.091
    2AU     AUC  413  12.508  26.152   8.042
    2AU     AUC  414  12.455  25.376   6.999
    2AU     AUC  415  12.409  25.707   6.948
    2AU     AUC  416  12.399  26.022   6.939
    2AU     AUC  417  12.692  25.550   8.006
    2AU     AUC  418  12.743  25.908   7.980
    2AU     AUC  419  12.730  25.580   7.054
    2AU     AUC  420  12.691  25.881   7.066
    2AU     AUC  421  12.161  25.684   8.011
    2AU     AUC  422  12.207  26.028   7.956
    2AU     AUC  423  12.148  25.529   7.108
    2AU     AUC  424  12.107  25.849   7.071
    2AU     AUC  425  12.927  25.997   7.341
    2AU     AUC  426  12.893  25.983   7.675
    2AU     AUC  427  11.978  26.028   7.370
    2AU     AUC  428  12.036  26.116   7.692
    2AU     AUC  429  12.890  25.457   7.392
    2AU     AUC  430  12.846  25.414   7.738
    2AU     AUC  431  11.971  25.446   7.398
    2AU     AUC  432  12.007  25.542   7.731
    2AU     AUC  433  12.355  26.260   7.746
    2AU     AUC  434  12.668  26.215   7.758
    2AU     AUC  435  12.245  25.332   7.835
    2AU     AUC  436  12.550  25.267   7.820
    2AU     AUC  437  12.246  26.170   7.182
    2AU     AUC  438  12.609  26.185   7.194
    2AU     AUC  439  12.276  25.276   7.273
    2AU     AUC  440  12.640  25.312   7.268
    2AU    AUSL  441  12.971  25.662   8.285
    2AU    AUSL  442  12.702  25.275   8.227
    2AU     AUL  443  13.016  25.310   8.386
    2AU    AUSL  444  12.560  25.615   8.450
    2AU    AUSL  445  12.324  26.010   8.439
    2AU     AUL  446  12.565  25.917   8.715
    2AU    AUSL  447  12.654  25.962   8.173
    2AU    AUSL  448  13.108  26.029   8.091
    2AU     AUL  449  12.938  25.967   8.425
    2AU    AUSL  450  12.872  25.777   6.816
    2AU    AUSL  451  12.706  26.156   6.966
    2AU     AUL  452  12.970  26.110   6.702
    2AU    AUSL  453  12.666  25.467   6.590
    2AU    AUSL  454  13.171  25.508   6.971
    2AU     AUL  455  13.054  25.614   6.640
    2AU    AUSL  456  12.488  25.920   6.671
    2AU    AUSL  457  12.305  25.531   6.815
    2AU     AUL  458  12.407  25.593   6.477
    2AU    AUSL  459  11.928  25.976   8.235
    2AU    AUSL  460  12.276  26.267   8.093
    2AU     AUL  461  12.115  26.243   8.417
    2AU    AUSL  462  12.223  25.656   8.190
    2AU    AUSL  463  11.779  25.564   8.142
    2AU     AUL  464  11.789  25.740   8.336
    2AU    AUSL  465  11.865  25.517   6.810
    2AU    AUSL  466  12.112  25.184   6.979
    2AU     AUL  467  12.156  25.227   6.658
    2AU    AUSL  468  12.055  25.880   6.661
    2AU    AUSL  469  11.785  25.884   7.046
    2AU     AUL  470  11.652  25.740   6.796
    2AU    AUSL  471  13.251  26.204   7.476
    2AU    AUSL  472  13.070  25.964   7.145
    2AU     AUL  473  13.342  26.088   7.027
    2AU    AUSL  474  13.406  25.785   7.357
    2AU    AUSL  475  13.360  25.489   7.734
    2AU     AUL  476  13.655  25.529   7.514
    2AU    AUSL  477  13.138  25.852   7.709
    2AU    AUSL  478  12.913  26.255   7.751
    2AU     AUL  479  13.243  26.243   7.808
    2AU    AUSL  480  11.877  26.405   7.487
    2AU    AUSL  481  11.919  26.168   7.852
    2AU     AUL  482  11.607  26.422   7.703
    2AU    AUSL  483  11.678  26.014   7.439
    2AU    AUSL  484  11.811  26.315   7.075
    2AU     AUL  485  11.581  26.244   7.236
    2AU    AUSL  486  11.542  25.983   7.881
    2AU    AUSL  487  11.501  25.627   7.384
    2AU     AUL  488  11.363  25.968   7.569
    2AU    AUSL  489  13.106  25.150   7.600
    2AU    AUSL  490  12.967  25.448   7.916
    2AU     AUL  491  13.274  25.337   7.969
    2AU    AUSL  492  13.073  25.523   7.384
    2AU    AUSL  493  13.056  25.117   7.166
    2AU     AUL  494  13.311  25.318   7.251
    2AU    AUSL  495  11.673  25.255   7.599
    2AU    AUSL  496  11.858  25.450   7.228
    2AU     AUL  497  11.499  25.353   7.255
    2AU    AUSL  498  11.774  25.664   7.727
    2AU    AUSL  499  12.000  25.297   7.877
    2AU     AUL  500  11.684  25.306   7.943
    2AU    AUSL  501  12.540  26.558   7.910
    2AU    AUSL  502  12.084  26.576   7.831
    2AU     AUL  503  12.319  26.613   8.163
    2AU    AUSL  504  12.358  26.452   7.530
    2AU    AUSL  505  12.593  26.571   7.175
    2AU     AUL  506  12.354  26.801   7.483
    2AU    AUSL  507  12.794  26.615   7.556
    2AU    AUSL  508  12.813  26.356   8.168
    2AU     AUL  509  12.916  26.599   7.897
    2AU    AUSL  510  12.375  25.106   7.997
    2AU    AUSL  511  12.796  25.044   7.872
    2AU     AUL  512  12.554  24.993   8.250
    2AU    AUSL  513  12.053  24.902   7.733
    2AU    AUSL  514  12.124  25.266   8.308
    2AU     AUL  515  12.050  24.980   8.078
    2AU    AUSL  516  12.488  24.809   7.691
    2AU    AUSL  517  12.278  25.058   7.389
    2AU     AUL  518  12.176  24.697   7.507
    2AU    AUSL  519  12.413  26.410   6.786
    2AU    AUSL  520  12.974  26.389   7.211
    2AU     AUL  521  12.750  26.504   6.872
    2AU    AUSL  522  12.167  26.536   7.151
    2AU    AUSL  523  12.184  26.110   6.989
    2AU     AUL  524  12.084  26.390   6.795
    2AU    AUSL  525  12.496  24.991   7.001
    2AU    AUSL  526  11.865  25.007   7.302
    2AU     AUL  527  12.156  24.859   7.065
    2AU    AUSL  528  12.710  25.027   7.393
    2AU    AUSL  529  12.730  25.354   6.996
    2AU     AUL  530  12.809  24.983   6.990
    2AU       S  531  12.994  24.853   8.271
    2AU     LIG  532  13.192  24.447   8.269
    2AU     LIG  533  13.386  24.100   8.352
    2AU     LIG  534  13.526  23.962   8.725
    2AU       S  535  12.947  25.604   8.738
    2AU     LIG  536  13.194  25.879   8.983
    2AU     LIG  537  13.393  25.862   9.400
    2AU     LIG  538  13.417  25.628   9.815
    2AU       S  539  12.598  25.442   8.659
    2AU     LIG  540  12.600  25.536   9.102
    2AU     LIG  541  12.993  25.496   9.382
    2AU     LIG  542  13.245  25.171   9.644
    2AU       S  543  12.118  25.820   8.674
    2AU     LIG  544  12.105  25.736   9.138
    2AU     LIG  545  11.765  25.686   9.431
    2AU     LIG  546  11.683  25.791   9.864
    2AU       S  547  12.580  26.373   8.556
    2AU     LIG  548  12.884  26.574   8.804
    2AU     LIG  549  13.229  26.404   9.023
    2AU     LIG  550  13.624  26.208   9.019
    2AU       S  551  13.305  26.216   8.274
    2AU     LIG  552  13.657  26.301   8.483
    2AU     LIG  553  13.741  26.634   8.735
    2AU     LIG  554  14.025  26.911   8.957
    2AU       S  555  12.814  25.897   6.325
    2AU     LIG  556  12.992  25.964   5.899
    2AU     LIG  557  13.098  25.573   5.706
    2AU     LIG  558  13.225  25.153   5.573
    2AU       S  559  13.207  26.498   6.827
    2AU     LIG  560  13.105  26.795   6.544
    2AU     LIG  561  13.299  27.058   6.251
    2AU     LIG  562  13.656  27.302   6.179
    2AU       S  563  13.340  25.259   6.770
    2AU     LIG  564  13.466  24.978   6.419
    2AU     LIG  565  13.567  24.548   6.374
    2AU     LIG  566  13.613  24.186   6.637
    2AU       S  567  12.791  25.705   6.262
    2AU     LIG  568  12.797  25.327   6.099
    2AU     LIG  569  12.720  25.196   5.691
    2AU     LIG  570  12.800  25.400   5.302
    2AU       S  571  11.979  25.531   6.335
    2AU     LIG  572  12.277  25.384   6.011
    2AU     LIG  573  12.245  25.335   5.550
    2AU     LIG  574  12.173  25.458   5.120
    2AU       S  575  12.571  26.033   6.440
    2AU     LIG  576  12.354  25.882   6.060
    2AU     LIG  577  12.589  25.702   5.707
    2AU     LIG  578  12.865  25.914   5.382
    2AU       S  579  11.908  25.946   8.725
    2AU     LIG  580  11.692  25.552   8.869
    2AU     LIG  581  11.426  25.371   9.189
    2AU     LIG  582  11.314  25.465   9.636
    2AU       S  583  11.840  26.553   8.213
    2AU     LIG  584  11.595  26.754   8.511
    2AU     LIG  585  11.258  26.834   8.776
    2AU     LIG  586  10.973  27.001   9.073
    2AU       S  587  11.616  25.315   8.415
    2AU     LIG  588  11.231  25.209   8.190
    2AU     LIG  589  11.086  24.808   8.288
    2AU     LIG  590  10.904  24.679   8.703
    2AU       S  591  12.126  25.625   8.630
    2AU     LIG  592  12.148  25.288   8.910
    2AU     LIG  593  11.904  25.207   9.291
    2AU     LIG  594  11.770  25.252   9.746
    2AU       S  595  11.796  25.457   6.464
    2AU     LIG  596  11.598  25.250   6.148
    2AU     LIG  597  11.801  25.432   5.811
    2AU     LIG  598  11.740  25.532   5.388
    2AU       S  599  11.773  25.020   6.827
    2AU     LIG  600  11.707  24.621   6.685
    2AU     LIG  601  11.621  24.441   6.289
    2AU     LIG  602  11.252  24.468   6.078
    2AU       S  603  11.486  26.163   6.748
    2AU     LIG  604  11.206  26.514   6.753
    2AU     LIG  605  11.227  26.912   6.540
    2AU     LIG  606  11.150  27.012   6.115
    2AU       S  607  11.982  25.817   6.439
    2AU     LIG  608  11.649  25.877   6.161
    2AU     LIG  609  11.741  25.936   5.719
    2AU     LIG  610  12.140  25.846   5.488
    2AU       S  611  13.398  26.532   7.070
    2AU     LIG  612  13.628  26.631   6.620
    2AU     LIG  613  13.752  26.787   6.185
    2AU     LIG  614  14.105  27.082   6.046
    2AU       S  615  13.555  26.233   7.464
    2AU     LIG  616  13.728  26.638   7.525
    2AU     LIG  617  14.180  26.751   7.512
    2AU     LIG  618  14.652  26.755   7.589
    2AU       S  619  13.668  25.989   7.427
    2AU     LIG  620  14.061  26.218   7.473
    2AU     LIG  621  14.498  26.292   7.405
    2AU     LIG  622  14.802  26.529   7.147
    2AU       S  623  13.573  25.095   7.707
    2AU     LIG  624  13.775  25.038   8.072
    2AU     LIG  625  14.231  25.051   8.068
    2AU     LIG  626  14.520  24.767   7.893
    2AU       S  627  13.276  26.492   8.185
    2AU     LIG  628  13.619  26.753   8.205
    2AU     LIG  629  13.714  27.078   8.495
    2AU     LIG  630  13.637  27.243   8.918
    2AU       S  631  13.576  25.936   7.772
    2AU     LIG  632  13.818  26.310   7.926
    2AU     LIG  633  14.307  26.409   7.886
    2AU     LIG  634  14.783  26.289   7.844
    2AU       S  635  11.740  26.381   8.138
    2AU     LIG  636  11.526  26.232   8.482
    2AU     LIG  637  11.117  26.395   8.555
    2AU     LIG  638  10.774  26.668   8.699
    2AU       S  639  11.811  26.734   7.402
    2AU     LIG  640  11.582  27.051   7.153
    2AU     LIG  641  11.209  26.942   7.050
    2AU     LIG  642  11.028  26.555   7.240
    2AU       S  643  11.275  25.914   7.101
    2AU     LIG  644  10.851  25.764   7.042
    2AU     LIG  645  10.431  25.945   7.104
    2AU     LIG  646  10.341  26.336   7.293
    2AU       S  647  11.676  26.580   6.913
    2AU     LIG  648  11.807  26.939   6.710
    2AU     LIG  649  11.554  27.302   6.626
    2AU     LIG  650  11.146  27.434   6.439
    2AU       S  651  11.275  25.515   7.644
    2AU     LIG  652  10.940  25.367   7.381
    2AU     LIG  653  10.546  25.513   7.379
    2AU     LIG  654  10.140  25.543   7.256
    2AU       S  655  11.455  25.974   8.059
    2AU     LIG  656  11.063  26.004   8.184
    2AU     LIG  657  10.763  26.339   8.190
    2AU     LIG  658  10.334  26.372   8.113
    2AU       S  659  13.250  24.982   7.604
    2AU     LIG  660  13.328  24.585   7.409
    2AU     LIG  661  13.726  24.429   7.508
    2AU     LIG  662  14.005  24.667   7.773
    2AU       S  663  13.178  24.920   8.104
    2AU     LIG  664  13.481  24.642   7.908
    2AU     LIG  665  13.743  24.492   8.211
    2AU     LIG  666  13.636  24.459   8.644
    2AU       S  667  13.542  25.037   7.514
    2AU     LIG  668  13.817  24.851   7.241
    2AU     LIG  669  14.267  24.917   7.314
    2AU     LIG  670  14.456  25.214   7.612
    2AU       S  671  13.268  25.016   6.889
    2AU     LIG  672  13.437  24.632   6.893
    2AU     LIG  673  13.289  24.244   7.012
    2AU     LIG  674  13.124  23.917   6.768
    2AU       S  675  11.638  25.118   6.892
    2AU     LIG  676  11.357  25.235   6.623
    2AU     LIG  677  11.233  24.903   6.369
    2AU     LIG  678  10.837  24.681   6.311
    2AU       S  679  11.307  25.268   7.686
    2AU     LIG  680  11.022  24.984   7.760
    2AU     LIG  681  10.743  24.863   7.437
    2AU     LIG  682  10.350  25.037   7.300
    2AU       S  683  11.681  25.081   8.341
    2AU     LIG  684  11.535  24.844   7.971
    2AU     LIG  685  11.437  24.446   8.087
    2AU     LIG  686  11.183  24.298   8.421
    2AU       S  687  11.319  25.556   7.825
    2AU     LIG  688  10.873  25.466   7.918
    2AU     LIG  689  10.551  25.215   7.784
    2AU     LIG  690  10.179  25.423   7.767
    2AU       S  691  11.953  26.751   7.881
    2AU     LIG  692  11.552  26.915   8.021
    2AU     LIG  693  11.138  26.866   8.256
    2AU     LIG  694  10.822  27.127   8.489
    2AU       S  695  12.576  26.920   7.892
    2AU     LIG  696  12.877  27.226   8.136
    2AU     LIG  697  12.643  27.527   8.394
    2AU     LIG  698  12.248  27.700   8.599
    2AU       S  699  12.669  27.073   7.720
    2AU     LIG  700  12.302  27.333   7.728
    2AU     LIG  701  12.219  27.638   8.063
    2AU     LIG  702  12.271  28.056   8.247
    2AU       S  703  12.512  26.877   7.042
    2AU     LIG  704  12.557  27.275   7.266
    2AU     LIG  705  12.666  27.710   7.320
    2AU     LIG  706  12.941  27.899   7.004
    2AU       S  707  13.037  26.445   8.339
    2AU     LIG  708  13.161  26.881   8.461
    2AU     LIG  709  13.305  26.885   8.865
    2AU     LIG  710  13.592  26.748   9.212
    2AU       S  711  12.831  26.909   7.534
    2AU     LIG  712  12.984  27.413   7.608
    2AU     LIG  713  12.708  27.687   7.894
    2AU     LIG  714  12.896  27.949   8.277
    2AU       S  715  12.349  24.604   8.099
    2AU     LIG  716  12.724  24.296   8.150
    2AU     LIG  717  12.930  23.885   8.206
    2AU     LIG  718  12.674  23.550   8.440
    2AU       S  719  12.932  24.903   7.977
    2AU     LIG  720  12.984  24.549   7.793
    2AU     LIG  721  13.200  24.196   7.807
    2AU     LIG  722  13.614  24.109   7.908
    2AU       S  723  12.140  24.535   7.943
    2AU     LIG  724  12.110  24.087   7.774
    2AU     LIG  725  12.106  23.634   7.898
    2AU     LIG  726  12.258  23.320   8.211
    2AU       S  727  11.906  25.224   8.475
    2AU     LIG  728  11.688  25.027   8.837
    2AU     LIG  729  11.421  24.671   8.713
    2AU     LIG  730  11.199  24.326   8.935
    2AU       S  731  12.555  24.598   7.272
    2AU     LIG  732  12.328  24.193   7.246
    2AU     LIG  733  12.596  23.922   7.056
    2AU     LIG  734  12.642  23.518   7.014
    2AU       S  735  12.486  24.649   7.876
    2AU     LIG  736  12.552  24.304   7.677
    2AU     LIG  737  12.738  23.936   7.712
    2AU     LIG  738  12.640  23.566   7.926
    2AU       S  739  12.361  26.785   6.764
    2AU     LIG  740  12.244  27.258   6.819
    2AU     LIG  741  12.487  27.659   6.831
    2AU     LIG  742  12.819  27.770   6.524
    2AU       S  743  13.130  26.571   7.170
    2AU     LIG  744  13.173  26.993   7.012
    2AU     LIG  745  13.523  27.120   6.719
    2AU     LIG  746  13.952  27.063   6.561
    2AU       S  747  12.168  26.797   7.039
    2AU     LIG  748  12.059  27.177   7.283
    2AU     LIG  749  12.147  27.639   7.237
    2AU     LIG  750  12.117  28.043   6.971
    2AU       S  751  11.702  26.203   6.640
    2AU     LIG  752  11.589  26.552   6.400
    2AU     LIG  753  11.656  26.947   6.219
    2AU     LIG  754  11.540  27.350   6.101
    2AU       S  755  11.679  24.927   7.129
    2AU     LIG  756  11.276  24.746   6.945
    2AU     LIG  757  11.212  24.439   6.598
    2AU     LIG  758  11.297  24.023   6.374
    2AU       S  759  12.563  24.612   7.105
    2AU     LIG  760  12.798  24.338   6.851
    2AU     LIG  761  12.696  23.983   6.543
    2AU     LIG  762  12.829  23.504   6.533
    2AU       S  763  12.812  24.701   7.363
    2AU     LIG  764  12.927  24.250   7.352
    2AU     LIG  765  13.051  23.822   7.265
    2AU     LIG  766  13.137  23.472   6.979
    2AU       S  767  13.052  25.152   6.649
    2AU     LIG  768  13.020  24.713   6.575
    2AU     LIG  769  13.130  24.302   6.449
    2AU     LIG  770  13.391  24.016   6.188
    3AU     AUC  771  22.875  38.497   7.535
    3AU     AUC  772  23.127  38.502   7.369
    3AU     AUC  773  23.116  38.496   7.705
    3AU     AUC  774  22.609  38.493   7.378
    3AU     AUC  775  22.629  38.535   7.701
    3AU     AUC  776  22.710  38.754   7.500
    3AU     AUC  777  23.045  38.758   7.502
    3AU     AUC  778  22.709  38.244   7.552
    3AU     AUC  779  23.039  38.229   7.554
    3AU     AUC  780  22.875  38.345   7.803
    3AU     AUC  781  22.877  38.688   7.772
    3AU     AUC  782  22.873  38.315   7.289
    3AU     AUC  783  22.884  38.619   7.267
    3AU     AUC  784  23.443  38.503   7.218
    3AU     AUC  785  23.442  38.486   7.558
    3AU     AUC  786  23.407  38.481   7.912
    3AU     AUC  787  22.310  38.450   7.237
    3AU     AUC  788  22.302  38.525   7.560
    3AU     AUC  789  22.334  38.583   7.877
    3AU     AUC  790  22.546  39.058   7.439
    3AU     AUC  791  22.902  39.051   7.426
    3AU     AUC  792  23.236  39.041   7.467
    3AU     AUC  793  22.520  37.947   7.571
    3AU     AUC  794  22.867  37.933   7.550
    3AU     AUC  795  23.217  37.932   7.562
    3AU     AUC  796  22.846  38.187   8.111
    3AU     AUC  797  22.863  38.536   8.101
    3AU     AUC  798  22.908  38.894   8.058
    3AU     AUC  799  22.914  38.128   7.007
    3AU     AUC  800  22.857  38.454   6.959
    3AU     AUC  801  22.840  38.769   6.949
    3AU     AUC  802  23.116  38.300   8.020
    3AU     AUC  803  23.150  38.655   8.004
    3AU     AUC  804  23.183  38.341   7.074
    3AU     AUC  805  23.139  38.641   7.084
    3AU     AUC  806  22.585  38.415   8.012
    3AU     AUC  807  22.618  38.766   7.959
    3AU     AUC  808  22.599  38.269   7.110
    3AU     AUC  809  22.548  38.588   7.075
    3AU     AUC  810  23.366  38.771   7.363
    3AU     AUC  811  23.306  38.745   7.702
    3AU     AUC  812  22.408  38.760   7.371
    3AU     AUC  813  22.457  38.850   7.693
    3AU     AUC  814  23.344  38.230   7.413
    3AU     AUC  815  23.288  38.180   7.752
    3AU     AUC  816  22.418  38.180   7.398
    3AU     AUC  817  22.442  38.269   7.731
    3AU     AUC  818  22.768  39.004   7.754
    3AU     AUC  819  23.075  38.966   7.777
    3AU     AUC  820  22.690  38.067   7.835
    3AU     AUC  821  22.995  38.014   7.825
    3AU     AUC  822  22.677  38.910   7.188
    3AU     AUC  823  23.042  38.938   7.209
    3AU     AUC  824  22.733  38.021   7.274
    3AU     AUC  825  23.100  38.072   7.280
    3AU    AUSL  826  23.379  38.417   8.313
    3AU    AUSL  827  23.124  38.029   8.232
    3AU     AUL  828  23.422  38.065   8.409
    3AU    AUSL  829  22.963  38.354   8.464
    3AU    AUSL  830  22.717  38.747   8.446
    3AU     AUL  831  22.940  38.647   8.736
    3AU    AUSL  832  23.055  38.706   8.190
    3AU    AUSL  833  23.506  38.795   8.132
    3AU     AUL  834  23.319  38.720   8.455
    3AU    AUSL  835  23.315  38.532   6.850
    3AU    AUSL  836  23.143  38.911   6.986
    3AU     AUL  837  23.390  38.853   6.705
    3AU    AUSL  838  23.129  38.218   6.608
    3AU    AUSL  839  23.636  38.289   6.998
    3AU     AUL  840  23.497  38.360   6.663
    3AU    AUSL  841  22.938  38.671   6.682
    3AU    AUSL  842  22.762  38.279   6.824
    3AU     AUL  843  22.866  38.343   6.486
    3AU    AUSL  844  22.331  38.699   8.226
    3AU    AUSL  845  22.679  39.008   8.102
    3AU     AUL  846  22.504  38.974   8.418
    3AU    AUSL  847  22.638  38.393   8.189
    3AU    AUSL  848  22.211  38.272   8.142
    3AU     AUL  849  22.162  38.477   8.303
    3AU    AUSL  850  22.322  38.250   6.805
    3AU    AUSL  851  22.577  37.923   6.976
    3AU     AUL  852  22.621  37.974   6.659
    3AU    AUSL  853  22.505  38.620   6.663
    3AU    AUSL  854  22.225  38.612   7.040
    3AU     AUL  855  22.105  38.468   6.785
    3AU    AUSL  856  23.641  38.994   7.521
    3AU    AUSL  857  23.546  38.758   7.135
    3AU     AUL  858  23.867  38.998   7.200
    3AU    AUSL  859  23.840  38.591   7.407
    3AU    AUSL  860  23.796  38.275   7.770
    3AU     AUL  861  24.099  38.334   7.556
    3AU    AUSL  862  23.556  38.628   7.747
    3AU    AUSL  863  23.305  39.014   7.794
    3AU     AUL  864  23.635  39.014   7.857
    3AU    AUSL  865  22.296  39.136   7.483
    3AU    AUSL  866  22.334  38.900   7.849
    3AU     AUL  867  22.021  39.142   7.693
    3AU    AUSL  868  22.111  38.736   7.433
    3AU    AUSL  869  22.239  39.044   7.070
    3AU     AUL  870  22.010  38.965   7.224
    3AU    AUSL  871  21.962  38.703   7.868
    3AU    AUSL  872  21.945  38.346   7.374
    3AU     AUL  873  21.794  38.684   7.550
    3AU    AUSL  874  23.562  37.930   7.622
    3AU    AUSL  875  23.399  38.215   7.937
    3AU     AUL  876  23.702  38.106   8.002
    3AU    AUSL  877  23.526  38.304   7.407
    3AU    AUSL  878  23.533  37.895   7.189
    3AU     AUL  879  23.774  38.108   7.287
    3AU    AUSL  880  22.123  37.976   7.588
    3AU    AUSL  881  22.309  38.179   7.223
    3AU     AUL  882  21.952  38.072   7.246
    3AU    AUSL  883  22.205  38.385   7.729
    3AU    AUSL  884  22.444  38.020   7.872
    3AU     AUL  885  22.119  38.017   7.932
    3AU    AUSL  886  22.941  39.305   7.919
    3AU    AUSL  887  22.489  39.312   7.834
    3AU     AUL  888  22.715  39.350   8.181
    3AU    AUSL  889  22.770  39.198   7.536
    3AU    AUSL  890  23.012  39.315   7.187
    3AU     AUL  891  22.762  39.546   7.482
    3AU    AUSL  892  23.208  39.360   7.569
    3AU    AUSL  893  23.190  39.109   8.207
    3AU     AUL  894  23.304  39.356   7.935
    3AU    AUSL  895  22.821  37.830   7.993
    3AU    AUSL  896  23.249  37.804   7.882
    3AU     AUL  897  22.999  37.732   8.250
    3AU    AUSL  898  22.520  37.629   7.718
    3AU    AUSL  899  22.576  37.994   8.304
    3AU     AUL  900  22.488  37.707   8.062
    3AU    AUSL  901  22.965  37.556   7.681
    3AU    AUSL  902  22.744  37.805   7.385
    3AU     AUL  903  22.673  37.445   7.491
    3AU    AUSL  904  22.844  39.149   6.792
    3AU    AUSL  905  23.412  39.172   7.206
    3AU     AUL  906  23.156  39.248   6.874
    3AU    AUSL  907  22.587  39.275   7.151
    3AU    AUSL  908  22.620  38.848   6.997
    3AU     AUL  909  22.513  39.124   6.798
    3AU    AUSL  910  22.971  37.748   7.001
    3AU    AUSL  911  22.335  37.737   7.295
    3AU     AUL  912  22.637  37.602   7.053
    3AU    AUSL  913  23.177  37.796   7.395
    3AU    AUSL  914  23.197  38.116   7.016
    3AU     AUL  915  23.289  37.769   6.985
    3AU       S  916  23.440  37.605   8.287
    3AU     LIG  917  23.608  37.157   8.286
    3AU     LIG  918  23.823  36.751   8.419
    3AU     LIG  919  24.203  36.749   8.713
    3AU       S  920  23.340  38.356   8.763
    3AU     LIG  921  23.656  38.700   8.827
    3AU     LIG  922  23.873  38.705   9.232
    3AU     LIG  923  23.849  38.404   9.612
    3AU       S  924  22.986  38.177   8.664
    3AU     LIG  925  22.982  38.233   9.121
    3AU     LIG  926  23.323  38.166   9.469
    3AU     LIG  927  23.612  37.962   9.791
    3AU       S  928  22.501  38.537   8.655
    3AU     LIG  929  22.549  38.558   9.120
    3AU     LIG  930  22.250  38.641   9.468
    3AU     LIG  931  21.974  38.501   9.812
    3AU       S  932  22.958  39.108   8.594
    3AU     LIG  933  23.184  39.437   8.773
    3AU     LIG  934  23.525  39.284   9.012
    3AU     LIG  935  23.932  39.154   8.914
    3AU       S  936  23.689  38.980   8.329
    3AU     LIG  937  24.099  39.065   8.416
    3AU     LIG  938  24.209  39.451   8.606
    3AU     LIG  939  24.313  39.576   9.016
    3AU       S  940  23.262  38.631   6.327
    3AU     LIG  941  23.530  38.658   5.923
    3AU     LIG  942  23.788  38.328   5.723
    3AU     LIG  943  23.650  37.953   5.484
    3AU       S  944  23.596  39.281   6.788
    3AU     LIG  945  23.476  39.387   6.377
    3AU     LIG  946  23.764  39.567   6.059
    3AU     LIG  947  24.099  39.882   5.998
    3AU       S  948  23.842  38.059   6.816
    3AU     LIG  949  24.079  37.785   6.533
    3AU     LIG  950  24.005  37.387   6.309
    3AU     LIG  951  23.807  37.073   6.046
    3AU       S  952  23.249  38.444   6.268
    3AU     LIG  953  23.340  38.158   5.940
    3AU     LIG  954  23.137  37.994   5.569
    3AU     LIG  955  23.210  38.041   5.120
    3AU       S  956  22.437  38.276   6.336
    3AU     LIG  957  22.508  38.352   5.911
    3AU     LIG  958  22.652  38.193   5.526
    3AU     LIG  959  22.397  38.090   5.183
    3AU       S  960  23.007  38.787   6.442
    3AU     LIG  961  22.808  38.710   6.087
    3AU     LIG  962  23.012  38.502   5.745
    3AU     LIG  963  23.369  38.436   5.455
    3AU       S  964  22.299  38.657   8.700
    3AU     LIG  965  22.009  38.586   8.994
    3AU     LIG  966  21.805  38.380   9.336
    3AU     LIG  967  21.835  38.022   9.619
    3AU       S  968  22.236  39.293   8.212
    3AU     LIG  969  21.942  39.470   8.484
    3AU     LIG  970  21.781  39.383   8.915
    3AU     LIG  971  21.495  39.653   9.179
    3AU       S  972  22.103  38.032   8.430
    3AU     LIG  973  21.676  38.042   8.246
    3AU     LIG  974  21.384  37.674   8.271
    3AU     LIG  975  21.343  37.277   8.525
    3AU       S  976  22.503  38.358   8.599
    3AU     LIG  977  22.479  38.085   8.936
    3AU     LIG  978  22.270  38.150   9.325
    3AU     LIG  979  22.325  38.130   9.783
    3AU       S  980  22.259  38.194   6.448
    3AU     LIG  981  22.104  37.938   6.107
    3AU     LIG  982  22.152  38.052   5.665
    3AU     LIG  983  22.202  38.471   5.482
    3AU       S  984  22.247  37.752   6.820
    3AU     LIG  985  22.154  37.538   6.432
    3AU     LIG  986  21.888  37.374   6.089
    3AU     LIG  987  21.541  37.068   6.132
    3AU       S  988  21.920  38.884   6.738
    3AU     LIG  989  21.564  39.171   6.764
    3AU     LIG  990  21.442  39.559   6.541
    3AU     LIG  991  21.753  39.796   6.342
    3AU       S  992  22.439  38.557   6.441
    3AU     LIG  993  22.243  38.753   6.135
    3AU     LIG  994  22.420  38.863   5.742
    3AU     LIG  995  22.669  38.691   5.400
    3AU       S  996  23.713  39.160   6.811
    3AU     LIG  997  23.955  39.206   6.424
    3AU     LIG  998  24.253  39.406   6.154
    3AU     LIG  999  24.541  39.633   5.893
    3AU       S 1000  24.034  39.014   7.639
    3AU     LIG 1001  24.274  39.350   7.586
    3AU     LIG 1002  24.681  39.248   7.491
    3AU     LIG 1003  25.113  39.203   7.496
    3AU       S 1004  24.062  38.790   7.600
    3AU     LIG 1005  24.496  38.739   7.481
    3AU     LIG 1006  24.885  38.774   7.230
    3AU     LIG 1007  25.336  38.855   7.106
    3AU       S 1008  24.030  37.896   7.754
    3AU     LIG 1009  24.426  37.814   7.892
    3AU     LIG 1010  24.867  37.888   7.865
    3AU     LIG 1011  25.016  37.481   7.902
    3AU       S 1012  23.652  39.259   8.237
    3AU     LIG 1013  24.048  39.434   8.067
    3AU     LIG 1014  24.242  39.815   8.259
    3AU     LIG 1015  24.146  39.975   8.687
    3AU       S 1016  23.977  38.709   7.872
    3AU     LIG 1017  24.399  38.965   7.958
    3AU     LIG 1018  24.852  38.930   7.877
    3AU     LIG 1019  25.288  38.998   8.031
    3AU       S 1020  22.141  39.107   8.134
    3AU     LIG 1021  21.906  38.967   8.488
    3AU     LIG 1022  21.479  39.195   8.539
    3AU     LIG 1023  21.165  39.401   8.833
    3AU       S 1024  22.234  39.455   7.407
    3AU     LIG 1025  22.041  39.832   7.405
    3AU     LIG 1026  21.879  39.796   6.996
    3AU     LIG 1027  21.474  39.596   7.047
    3AU       S 1028  21.713  38.624   7.086
    3AU     LIG 1029  21.298  38.739   6.917
    3AU     LIG 1030  20.873  38.890   6.975
    3AU     LIG 1031  20.657  38.845   7.350
    3AU       S 1032  22.093  39.308   6.901
    3AU     LIG 1033  22.256  39.656   6.664
    3AU     LIG 1034  22.099  40.081   6.571
    3AU     LIG 1035  21.773  40.311   6.276
    3AU       S 1036  21.721  38.232   7.639
    3AU     LIG 1037  21.373  38.296   7.373
    3AU     LIG 1038  20.930  38.401   7.225
    3AU     LIG 1039  20.456  38.373   7.158
    3AU       S 1040  21.841  38.725   8.037
    3AU     LIG 1041  21.488  38.731   8.299
    3AU     LIG 1042  21.093  38.946   8.226
    3AU     LIG 1043  20.832  38.943   7.845
    3AU       S 1044  23.719  37.751   7.632
    3AU     LIG 1045  23.897  37.332   7.540
    3AU     LIG 1046  24.317  37.324   7.665
    3AU     LIG 1047  24.665  37.535   7.510
    3AU       S 1048  23.613  37.690   8.147
    3AU     LIG 1049  23.949  37.457   8.021
    3AU     LIG 1050  24.309  37.244   8.197
    3AU     LIG 1051  24.452  37.199   8.646
    3AU       S 1052  24.008  37.842   7.565
    3AU     LIG 1053  24.172  37.647   7.233
    3AU     LIG 1054  24.564  37.658   7.015
    3AU     LIG 1055  24.934  37.401   7.060
    3AU       S 1056  23.764  37.775   6.946
    3AU     LIG 1057  23.978  37.382   6.832
    3AU     LIG 1058  23.778  37.015   6.631
    3AU     LIG 1059  23.669  36.675   6.344
    3AU       S 1060  22.104  37.842   6.884
    3AU     LIG 1061  21.832  37.935   6.570
    3AU     LIG 1062  21.570  37.699   6.311
    3AU     LIG 1063  21.256  37.501   6.064
    3AU       S 1064  21.743  37.992   7.669
    3AU     LIG 1065  21.390  37.901   7.805
    3AU     LIG 1066  21.156  37.814   7.465
    3AU     LIG 1067  21.188  37.364   7.331
    3AU       S 1068  22.130  37.816   8.341
    3AU     LIG 1069  21.872  37.610   8.057
    3AU     LIG 1070  21.688  37.236   8.132
    3AU     LIG 1071  21.671  36.874   8.390
    3AU       S 1072  21.760  38.277   7.815
    3AU     LIG 1073  21.383  38.562   7.820
    3AU     LIG 1074  20.986  38.393   7.743
    3AU     LIG 1075  20.922  37.989   7.926
    3AU       S 1076  22.357  39.481   7.887
    3AU     LIG 1077  21.910  39.574   7.919
    3AU     LIG 1078  21.528  39.616   8.190
    3AU     LIG 1079  21.512  39.714   8.642
    3AU       S 1080  22.945  39.648   7.893
    3AU     LIG 1081  23.102  39.705   8.291
    3AU     LIG 1082  22.954  40.151   8.368
    3AU     LIG 1083  22.643  40.527   8.430
    3AU       S 1084  23.099  39.816   7.777
    3AU     LIG 1085  22.749  40.115   7.830
    3AU     LIG 1086  22.631  40.570   7.903
    3AU     LIG 1087  22.707  40.951   8.142
    3AU       S 1088  22.927  39.625   7.046
    3AU     LIG 1089  22.844  40.017   7.303
    3AU     LIG 1090  22.883  40.483   7.354
    3AU     LIG 1091  22.963  40.868   7.121
    3AU       S 1092  23.418  39.206   8.391
    3AU     LIG 1093  23.676  39.572   8.604
    3AU     LIG 1094  23.822  39.703   8.996
    3AU     LIG 1095  23.920  39.458   9.367
    3AU       S 1096  23.225  39.646   7.551
    3AU     LIG 1097  23.303  40.153   7.488
    3AU     LIG 1098  23.127  40.449   7.795
    3AU     LIG 1099  23.112  40.620   8.218
    3AU       S 1100  22.800  37.348   8.080
    3AU     LIG 1101  23.112  37.032   8.196
    3AU     LIG 1102  22.982  36.652   8.435
    3AU     LIG 1103  22.550  36.573   8.626
    3AU       S 1104  23.390  37.670   7.990
    3AU     LIG 1105  23.449  37.310   7.819
    3AU     LIG 1106  23.522  36.892   7.858
    3AU     LIG 1107  23.954  36.930   7.943
    3AU       S 1108  22.625  37.278   7.921
    3AU     LIG 1109  22.575  36.873   7.792
    3AU     LIG 1110  22.582  36.570   8.107
    3AU     LIG 1111  22.761  36.200   8.311
    3AU       S 1112  22.386  37.911   8.477
    3AU     LIG 1113  22.235  37.580   8.752
    3AU     LIG 1114  21.854  37.348   8.636
    3AU     LIG 1115  21.679  37.011   8.892
    3AU       S 1116  23.064  37.354   7.268
    3AU     LIG 1117  22.781  36.996   7.216
    3AU     LIG 1118  22.761  36.640   6.901
    3AU     LIG 1119  22.572  36.275   6.666
    3AU       S 1120  22.965  37.384   7.865
    3AU     LIG 1121  23.050  37.012   7.665
    3AU     LIG 1122  23.055  36.623   7.909
    3AU     LIG 1123  23.405  36.491   8.180
    3AU       S 1124  22.778  39.525   6.760
    3AU     LIG 1125  22.780  39.994   6.726
    3AU     LIG 1126  23.017  40.410   6.843
    3AU     LIG 1127  23.382  40.742   6.802
    3AU       S 1128  23.553  39.353   7.122
    3AU     LIG 1129  23.951  39.571   7.013
    3AU     LIG 1130  24.108  39.685   6.583
    3AU     LIG 1131  24.474  39.857   6.356
    3AU       S 1132  22.591  39.537   7.032
    3AU     LIG 1133  22.398  39.933   7.068
    3AU     LIG 1134  22.534  40.344   7.001
    3AU     LIG 1135  22.558  40.758   6.824
    3AU       S 1136  22.137  38.935   6.632
    3AU     LIG 1137  21.974  39.306   6.401
    3AU     LIG 1138  22.194  39.647   6.152
    3AU     LIG 1139  22.197  40.102   6.053
    3AU       S 1140  22.167  37.660   7.129
    3AU     LIG 1141  22.054  37.301   6.883
    3AU     LIG 1142  21.718  37.276   6.581
    3AU     LIG 1143  21.261  37.285   6.532
    3AU       S 1144  23.064  37.385   7.099
    3AU     LIG 1145  23.280  37.079   6.835
    3AU     LIG 1146  23.123  36.758   6.519
    3AU     LIG 1147  22.807  36.529   6.277
    3AU       S 1148  23.308  37.486   7.365
    3AU     LIG 1149  23.483  37.091   7.366
    3AU     LIG 1150  23.397  36.739   7.212
    3AU     LIG 1151  23.497  36.594   6.813
    3AU       S 1152  23.599  37.909   6.687
    3AU     LIG 1153  23.545  37.478   6.565
    3AU     LIG 1154  23.378  37.134   6.303
    3AU     LIG 1155  23.307  36.760   6.002
    4AU     AUC 1156  34.805  34.535   7.528
    4AU     AUC 1157  35.058  34.540   7.365
    4AU     AUC 1158  35.045  34.537   7.701
    4AU     AUC 1159  34.540  34.529   7.370
    4AU     AUC 1160  34.559  34.575   7.692
    4AU     AUC 1161  34.639  34.791   7.489
    4AU     AUC 1162  34.974  34.797   7.494
    4AU     AUC 1163  34.640  34.283   7.547
    4AU     AUC 1164  34.970  34.268   7.552
    4AU     AUC 1165  34.805  34.387   7.797
    4AU     AUC 1166  34.805  34.730   7.763
    4AU     AUC 1167  34.806  34.351   7.284
    4AU     AUC 1168  34.817  34.656   7.259
    4AU     AUC 1169  35.377  34.544   7.217
    4AU     AUC 1170  35.372  34.527   7.553
    4AU     AUC 1171  35.334  34.527   7.908
    4AU     AUC 1172  34.241  34.483   7.228
    4AU     AUC 1173  34.231  34.562   7.549
    4AU     AUC 1174  34.261  34.624   7.865
    4AU     AUC 1175  34.474  35.094   7.424
    4AU     AUC 1176  34.831  35.089   7.415
    4AU     AUC 1177  35.165  35.081   7.459
    4AU     AUC 1178  34.451  33.986   7.569
    4AU     AUC 1179  34.799  33.971   7.551
    4AU     AUC 1180  35.150  33.971   7.563
    4AU     AUC 1181  34.775  34.233   8.108
    4AU     AUC 1182  34.790  34.582   8.093
    4AU     AUC 1183  34.831  34.940   8.049
    4AU     AUC 1184  34.849  34.158   7.005
    4AU     AUC 1185  34.790  34.485   6.955
    4AU     AUC 1186  34.776  34.802   6.941
    4AU     AUC 1187  35.045  34.347   8.016
    4AU     AUC 1188  35.076  34.701   7.999
    4AU     AUC 1189  35.116  34.373   7.073
    4AU     AUC 1190  35.075  34.679   7.082
    4AU     AUC 1191  34.513  34.459   8.005
    4AU     AUC 1192  34.543  34.808   7.947
    4AU     AUC 1193  34.532  34.302   7.106
    4AU     AUC 1194  34.483  34.620   7.065
    4AU     AUC 1195  35.300  34.811   7.358
    4AU     AUC 1196  35.234  34.788   7.698
    4AU     AUC 1197  34.338  34.796   7.357
    4AU     AUC 1198  34.384  34.889   7.680
    4AU     AUC 1199  35.275  34.268   7.411
    4AU     AUC 1200  35.219  34.221   7.750
    4AU     AUC 1201  34.348  34.216   7.392
    4AU     AUC 1202  34.371  34.309   7.725
    4AU     AUC 1203  34.693  35.045   7.742
    4AU     AUC 1204  35.000  35.009   7.769
    4AU     AUC 1205  34.621  34.109   7.833
    4AU     AUC 1206  34.927  34.057   7.825
    4AU     AUC 1207  34.609  34.945   7.176
    4AU     AUC 1208  34.976  34.977   7.198
    4AU     AUC 1209  34.665  34.056   7.274
    4AU     AUC 1210  35.033  34.106   7.278
    4AU    AUSL 1211  35.305  34.470   8.307
    4AU    AUSL 1212  35.056  34.079   8.232
    4AU     AUL 1213  35.356  34.128   8.410
    4AU    AUSL 1214  34.889  34.405   8.458
    4AU    AUSL 1215  34.639  34.795   8.436
    4AU     AUL 1216  34.867  34.703   8.724
    4AU    AUSL 1217  34.980  34.754   8.184
    4AU    AUSL 1218  35.430  34.849   8.125
    4AU     AUL 1219  35.252  34.772   8.450
    4AU    AUSL 1220  35.244  34.563   6.867
    4AU    AUSL 1221  35.082  34.949   6.980
    4AU     AUL 1222  35.304  34.887   6.690
    4AU    AUSL 1223  35.073  34.255   6.608
    4AU    AUSL 1224  35.574  34.325   6.998
    4AU     AUL 1225  35.438  34.417   6.667
    4AU    AUSL 1226  34.874  34.698   6.681
    4AU    AUSL 1227  34.700  34.306   6.818
    4AU     AUL 1228  34.804  34.360   6.488
    4AU    AUSL 1229  34.255  34.743   8.212
    4AU    AUSL 1230  34.600  35.052   8.089
    4AU     AUL 1231  34.424  35.022   8.402
    4AU    AUSL 1232  34.566  34.438   8.181
    4AU    AUSL 1233  34.138  34.314   8.133
    4AU     AUL 1234  34.099  34.523   8.293
    4AU    AUSL 1235  34.261  34.281   6.799
    4AU    AUSL 1236  34.512  33.955   6.978
    4AU     AUL 1237  34.546  33.999   6.661
    4AU    AUSL 1238  34.443  34.648   6.653
    4AU    AUSL 1239  34.159  34.643   7.029
    4AU     AUL 1240  34.042  34.492   6.773
    4AU    AUSL 1241  35.567  35.029   7.520
    4AU    AUSL 1242  35.498  34.809   7.116
    4AU     AUL 1243  35.817  35.072   7.266
    4AU    AUSL 1244  35.769  34.632   7.406
    4AU    AUSL 1245  35.728  34.317   7.763
    4AU     AUL 1246  36.037  34.367   7.546
    4AU    AUSL 1247  35.483  34.667   7.748
    4AU    AUSL 1248  35.227  35.058   7.785
    4AU     AUL 1249  35.561  35.072   7.834
    4AU    AUSL 1250  34.223  35.172   7.465
    4AU    AUSL 1251  34.259  34.940   7.833
    4AU     AUL 1252  33.946  35.180   7.673
    4AU    AUSL 1253  34.039  34.772   7.419
    4AU    AUSL 1254  34.172  35.076   7.053
    4AU     AUL 1255  33.939  34.997   7.207
    4AU    AUSL 1256  33.888  34.742   7.854
    4AU    AUSL 1257  33.874  34.380   7.366
    4AU     AUL 1258  33.721  34.718   7.539
    4AU    AUSL 1259  35.495  33.970   7.624
    4AU    AUSL 1260  35.332  34.260   7.935
    4AU     AUL 1261  35.639  34.165   8.001
    4AU    AUSL 1262  35.456  34.343   7.405
    4AU    AUSL 1263  35.467  33.931   7.191
    4AU     AUL 1264  35.704  34.150   7.285
    4AU    AUSL 1265  34.054  34.013   7.586
    4AU    AUSL 1266  34.238  34.212   7.217
    4AU     AUL 1267  33.878  34.095   7.258
    4AU    AUSL 1268  34.134  34.424   7.720
    4AU    AUSL 1269  34.377  34.062   7.868
    4AU     AUL 1270  34.054  34.049   7.923
    4AU    AUSL 1271  34.862  35.349   7.906
    4AU    AUSL 1272  34.410  35.352   7.816
    4AU     AUL 1273  34.630  35.396   8.162
    4AU    AUSL 1274  34.696  35.235   7.523
    4AU    AUSL 1275  34.942  35.350   7.176
    4AU     AUL 1276  34.680  35.575   7.470
    4AU    AUSL 1277  35.132  35.405   7.560
    4AU    AUSL 1278  35.110  35.158   8.197
    4AU     AUL 1279  35.223  35.403   7.926
    4AU    AUSL 1280  34.753  33.875   7.997
    4AU    AUSL 1281  35.181  33.848   7.885
    4AU     AUL 1282  34.931  33.784   8.257
    4AU    AUSL 1283  34.453  33.669   7.724
    4AU    AUSL 1284  34.502  34.042   8.303
    4AU     AUL 1285  34.427  33.752   8.072
    4AU    AUSL 1286  34.896  33.597   7.688
    4AU    AUSL 1287  34.677  33.840   7.388
    4AU     AUL 1288  34.601  33.474   7.493
    4AU    AUSL 1289  34.782  35.180   6.780
    4AU    AUSL 1290  35.345  35.214   7.202
    4AU     AUL 1291  35.104  35.291   6.864
    4AU    AUSL 1292  34.519  35.308   7.133
    4AU    AUSL 1293  34.554  34.881   6.985
    4AU     AUL 1294  34.455  35.152   6.778
    4AU    AUSL 1295  34.902  33.774   7.007
    4AU    AUSL 1296  34.267  33.772   7.297
    4AU     AUL 1297  34.564  33.638   7.056
    4AU    AUSL 1298  35.111  33.832   7.399
    4AU    AUSL 1299  35.128  34.142   7.015
    4AU     AUL 1300  35.223  33.783   7.000
    4AU       S 1301  35.375  33.669   8.294
    4AU     LIG 1302  35.556  33.273   8.417
    4AU     LIG 1303  35.668  32.833   8.424
    4AU     LIG 1304  36.079  32.601   8.439
    4AU       S 1305  35.258  34.409   8.765
    4AU     LIG 1306  35.649  34.627   8.823
    4AU     LIG 1307  35.881  34.666   9.238
    4AU     LIG 1308  35.943  34.460   9.676
    4AU       S 1309  34.911  34.232   8.659
    4AU     LIG 1310  34.931  34.228   9.116
    4AU     LIG 1311  35.314  34.181   9.415
    4AU     LIG 1312  35.606  34.059   9.786
    4AU       S 1313  34.429  34.590   8.644
    4AU     LIG 1314  34.485  34.572   9.098
    4AU     LIG 1315  34.100  34.435   9.336
    4AU     LIG 1316  33.809  34.509   9.705
    4AU       S 1317  34.873  35.163   8.582
    4AU     LIG 1318  35.091  35.507   8.760
    4AU     LIG 1319  35.451  35.419   9.018
    4AU     LIG 1320  35.767  35.121   8.933
    4AU       S 1321  35.610  35.038   8.304
    4AU     LIG 1322  35.977  34.951   8.506
    4AU     LIG 1323  36.227  35.274   8.722
    4AU     LIG 1324  36.423  35.668   8.908
    4AU       S 1325  35.185  34.651   6.318
    4AU     LIG 1326  35.407  34.704   5.898
    4AU     LIG 1327  35.696  34.405   5.711
    4AU     LIG 1328  35.575  34.009   5.502
    4AU       S 1329  35.560  35.256   6.791
    4AU     LIG 1330  35.512  35.568   6.476
    4AU     LIG 1331  35.741  35.655   6.072
    4AU     LIG 1332  36.092  35.877   5.853
    4AU       S 1333  35.769  34.101   6.812
    4AU     LIG 1334  35.946  33.894   6.450
    4AU     LIG 1335  35.896  33.521   6.222
    4AU     LIG 1336  35.897  33.108   6.327
    4AU       S 1337  35.189  34.453   6.265
    4AU     LIG 1338  35.263  34.185   5.915
    4AU     LIG 1339  35.052  34.025   5.540
    4AU     LIG 1340  35.091  34.049   5.083
    4AU       S 1341  34.379  34.304   6.328
    4AU     LIG 1342  34.357  34.388   5.902
    4AU     LIG 1343  34.544  34.194   5.560
    4AU     LIG 1344  34.531  34.165   5.117
    4AU       S 1345  34.927  34.804   6.420
    4AU     LIG 1346  34.735  34.683   6.057
    4AU     LIG 1347  34.932  34.520   5.690
    4AU     LIG 1348  35.293  34.463   5.408
    4AU       S 1349  34.219  34.714   8.695
    4AU     LIG 1350  33.864  34.488   8.710
    4AU     LIG 1351  33.795  34.159   8.957
    4AU     LIG 1352  33.639  34.141   9.378
    4AU       S 1353  34.152  35.332   8.190
    4AU     LIG 1354  33.896  35.531   8.483
    4AU     LIG 1355  33.762  35.478   8.908
    4AU     LIG 1356  33.361  35.449   9.133
    4AU       S 1357  34.024  34.082   8.421
    4AU     LIG 1358  33.603  34.115   8.271
    4AU     LIG 1359  33.280  33.765   8.296
    4AU     LIG 1360  33.128  33.338   8.498
    4AU       S 1361  34.428  34.405   8.602
    4AU     LIG 1362  34.316  34.126   8.945
    4AU     LIG 1363  34.113  33.921   9.310
    4AU     LIG 1364  33.969  34.013   9.752
    4AU       S 1365  34.205  34.231   6.428
    4AU     LIG 1366  34.024  33.978   6.087
    4AU     LIG 1367  34.007  34.124   5.636
    4AU     LIG 1368  34.022  34.571   5.505
    4AU       S 1369  34.169  33.772   6.820
    4AU     LIG 1370  33.991  33.581   6.463
    4AU     LIG 1371  33.798  33.458   6.075
    4AU     LIG 1372  33.373  33.435   5.905
    4AU       S 1373  33.858  34.907   6.723
    4AU     LIG 1374  33.567  35.211   6.865
    4AU     LIG 1375  33.641  35.603   6.649
    4AU     LIG 1376  33.524  35.791   6.217
    4AU       S 1377  34.383  34.586   6.433
    4AU     LIG 1378  34.171  34.806   6.143
    4AU     LIG 1379  34.335  34.913   5.747
    4AU     LIG 1380  34.521  34.686   5.405
    4AU       S 1381  35.696  35.083   6.829
    4AU     LIG 1382  35.914  35.257   6.421
    4AU     LIG 1383  36.233  35.471   6.137
    4AU     LIG 1384  36.602  35.713   5.953
    4AU       S 1385  35.991  34.988   7.704
    4AU     LIG 1386  36.289  35.266   7.735
    4AU     LIG 1387  36.625  35.381   7.496
    4AU     LIG 1388  36.844  35.692   7.238
    4AU       S 1389  35.965  34.803   7.652
    4AU     LIG 1390  36.343  34.774   7.357
    4AU     LIG 1391  36.772  34.978   7.199
    4AU     LIG 1392  37.143  35.220   6.996
    4AU       S 1393  35.958  33.932   7.760
    4AU     LIG 1394  36.291  33.716   7.920
    4AU     LIG 1395  36.687  33.842   7.806
    4AU     LIG 1396  37.067  33.928   7.684
    4AU       S 1397  35.575  35.306   8.224
    4AU     LIG 1398  36.032  35.352   8.195
    4AU     LIG 1399  36.268  35.682   8.407
    4AU     LIG 1400  36.179  36.064   8.666
    4AU       S 1401  35.868  34.734   7.915
    4AU     LIG 1402  36.283  34.882   8.096
    4AU     LIG 1403  36.584  35.232   8.157
    4AU     LIG 1404  36.878  35.507   7.927
    4AU       S 1405  34.058  35.147   8.116
    4AU     LIG 1406  33.839  35.016   8.480
    4AU     LIG 1407  33.435  35.231   8.608
    4AU     LIG 1408  33.011  35.380   8.740
    4AU       S 1409  34.157  35.490   7.380
    4AU     LIG 1410  33.884  35.841   7.445
    4AU     LIG 1411  33.652  35.965   7.085
    4AU     LIG 1412  33.242  35.733   6.988
    4AU       S 1413  33.640  34.656   7.074
    4AU     LIG 1414  33.150  34.670   7.105
    4AU     LIG 1415  32.775  34.959   7.095
    4AU     LIG 1416  32.661  35.407   7.088
    4AU       S 1417  34.044  35.336   6.881
    4AU     LIG 1418  34.166  35.713   6.661
    4AU     LIG 1419  33.877  36.064   6.573
    4AU     LIG 1420  33.426  36.055   6.630
    4AU       S 1421  33.648  34.269   7.642
    4AU     LIG 1422  33.263  34.281   7.428
    4AU     LIG 1423  32.834  34.222   7.252
    4AU     LIG 1424  32.425  34.009   7.131
    4AU       S 1425  33.760  34.758   8.033
    4AU     LIG 1426  33.396  34.817   8.290
    4AU     LIG 1427  33.022  35.105   8.303
    4AU     LIG 1428  32.756  35.413   8.093
    4AU       S 1429  35.661  33.799   7.639
    4AU     LIG 1430  35.892  33.380   7.571
    4AU     LIG 1431  36.226  33.198   7.799
    4AU     LIG 1432  36.667  33.328   7.844
    4AU       S 1433  35.549  33.752   8.154
    4AU     LIG 1434  35.866  33.481   8.066
    4AU     LIG 1435  36.070  33.183   8.329
    4AU     LIG 1436  36.009  33.026   8.763
    4AU       S 1437  35.942  33.876   7.546
    4AU     LIG 1438  36.264  34.008   7.270
    4AU     LIG 1439  36.733  33.948   7.267
    4AU     LIG 1440  37.033  33.729   6.964
    4AU       S 1441  35.695  33.837   6.930
    4AU     LIG 1442  35.755  33.497   6.732
    4AU     LIG 1443  35.522  33.208   6.843
    4AU     LIG 1444  35.527  32.874   6.588
    4AU       S 1445  34.038  33.889   6.886
    4AU     LIG 1446  33.768  34.029   6.577
    4AU     LIG 1447  33.506  33.838   6.264
    4AU     LIG 1448  33.085  33.625   6.302
    4AU       S 1449  33.658  34.050   7.687
    4AU     LIG 1450  33.290  33.867   7.754
    4AU     LIG 1451  33.130  33.649   7.368
    4AU     LIG 1452  32.744  33.623   7.111
    4AU       S 1453  34.052  33.852   8.332
    4AU     LIG 1454  33.732  33.675   8.037
    4AU     LIG 1455  33.451  33.325   8.090
    4AU     LIG 1456  33.534  32.990   8.373
    4AU       S 1457  33.698  34.311   7.814
    4AU     LIG 1458  33.291  34.424   7.953
    4AU     LIG 1459  32.893  34.287   7.795
    4AU     LIG 1460  32.780  33.883   7.642
    4AU       S 1461  34.267  35.526   7.868
    4AU     LIG 1462  33.807  35.604   7.934
    4AU     LIG 1463  33.448  35.613   8.249
    4AU     LIG 1464  33.365  35.753   8.699
    4AU       S 1465  34.866  35.696   7.882
    4AU     LIG 1466  35.105  35.800   8.256
    4AU     LIG 1467  35.022  36.226   8.454
    4AU     LIG 1468  34.804  36.643   8.298
    4AU       S 1469  34.954  35.861   7.750
    4AU     LIG 1470  34.560  36.090   7.785
    4AU     LIG 1471  34.524  36.537   7.853
    4AU     LIG 1472  34.841  36.844   7.791
    4AU       S 1473  34.858  35.653   7.037
    4AU     LIG 1474  34.731  36.015   7.288
    4AU     LIG 1475  34.877  36.360   7.474
    4AU     LIG 1476  35.008  36.660   7.170
    4AU       S 1477  35.331  35.260   8.381
    4AU     LIG 1478  35.555  35.646   8.570
    4AU     LIG 1479  35.897  35.653   8.863
    4AU     LIG 1480  36.061  35.423   9.232
    4AU       S 1481  35.139  35.685   7.545
    4AU     LIG 1482  35.324  36.125   7.617
    4AU     LIG 1483  35.073  36.334   7.959
    4AU     LIG 1484  35.308  36.619   8.247
    4AU       S 1485  34.748  33.392   8.089
    4AU     LIG 1486  35.122  33.127   8.191
    4AU     LIG 1487  35.165  32.703   8.352
    4AU     LIG 1488  35.086  32.237   8.293
    4AU       S 1489  35.322  33.722   7.997
    4AU     LIG 1490  35.428  33.386   7.827
    4AU     LIG 1491  35.587  33.041   7.947
    4AU     LIG 1492  35.951  32.818   8.005
    4AU       S 1493  34.558  33.324   7.933
    4AU     LIG 1494  34.636  32.918   7.791
    4AU     LIG 1495  34.745  32.510   7.956
    4AU     LIG 1496  34.631  32.077   8.098
    4AU       S 1497  34.291  33.960   8.481
    4AU     LIG 1498  34.008  33.720   8.798
    4AU     LIG 1499  33.636  33.464   8.640
    4AU     LIG 1500  33.424  33.093   8.857
    4AU       S 1501  35.008  33.381   7.287
    4AU     LIG 1502  34.780  32.966   7.274
    4AU     LIG 1503  34.763  32.530   7.038
    4AU     LIG 1504  34.847  32.102   6.816
    4AU       S 1505  34.910  33.423   7.856
    4AU     LIG 1506  35.106  33.044   7.681
    4AU     LIG 1507  35.251  32.642   7.860
    4AU     LIG 1508  35.117  32.216   7.785
    4AU       S 1509  34.714  35.559   6.750
    4AU     LIG 1510  34.640  36.032   6.773
    4AU     LIG 1511  34.894  36.419   6.667
    4AU     LIG 1512  34.858  36.695   6.280
    4AU       S 1513  35.512  35.373   7.078
    4AU     LIG 1514  35.831  35.652   6.900
    4AU     LIG 1515  36.012  35.770   6.502
    4AU     LIG 1516  36.343  36.012   6.295
    4AU       S 1517  34.519  35.569   7.015
    4AU     LIG 1518  34.255  35.934   7.110
    4AU     LIG 1519  34.315  36.384   7.045
    4AU     LIG 1520  34.501  36.710   6.771
    4AU       S 1521  34.076  34.960   6.619
    4AU     LIG 1522  33.986  35.324   6.359
    4AU     LIG 1523  34.031  35.754   6.157
    4AU     LIG 1524  33.826  36.168   6.034
    4AU       S 1525  34.084  33.687   7.115
    4AU     LIG 1526  33.658  33.579   6.907
    4AU     LIG 1527  33.504  33.388   6.513
    4AU     LIG 1528  33.481  33.020   6.221
    4AU       S 1529  34.978  33.415   7.131
    4AU     LIG 1530  35.039  33.329   6.703
    4AU     LIG 1531  35.058  32.950   6.412
    4AU     LIG 1532  35.075  32.487   6.521
    4AU       S 1533  35.248  33.511   7.383
    4AU     LIG 1534  35.507  33.125   7.368
    4AU     LIG 1535  35.557  32.772   7.098
    4AU     LIG 1536  35.139  32.860   6.910
    4AU       S 1537  35.505  33.962   6.692
    4AU     LIG 1538  35.311  33.708   6.475
    4AU     LIG 1539  35.424  33.326   6.351
    4AU     LIG 1540  35.469  32.998   6.087
    5AU     AUC 1541  24.097  16.278   7.532
    5AU     AUC 1542  24.343  16.271   7.367
    5AU     AUC 1543  24.341  16.270   7.702
    5AU     AUC 1544  23.831  16.283   7.377
    5AU     AUC 1545  23.854  16.323   7.700
    5AU     AUC 1546  23.939  16.539   7.498
    5AU     AUC 1547  24.274  16.534   7.498
    5AU     AUC 1548  23.924  16.029   7.549
    5AU     AUC 1549  24.252  16.004   7.551
    5AU     AUC 1550  24.095  16.126   7.800
    5AU     AUC 1551  24.109  16.468   7.768
    5AU     AUC 1552  24.087  16.095   7.287
    5AU     AUC 1553  24.105  16.400   7.263
    5AU     AUC 1554  24.654  16.258   7.211
    5AU     AUC 1555  24.662  16.244   7.555
    5AU     AUC 1556  24.632  16.247   7.904
    5AU     AUC 1557  23.530  16.249   7.239
    5AU     AUC 1558  23.525  16.325   7.560
    5AU     AUC 1559  23.559  16.379   7.878
    5AU     AUC 1560  23.783  16.848   7.439
    5AU     AUC 1561  24.139  16.832   7.422
    5AU     AUC 1562  24.472  16.813   7.459
    5AU     AUC 1563  23.726  15.738   7.570
    5AU     AUC 1564  24.073  15.712   7.546
    5AU     AUC 1565  24.423  15.702   7.557
    5AU     AUC 1566  24.061  15.968   8.109
    5AU     AUC 1567  24.091  16.315   8.096
    5AU     AUC 1568  24.150  16.673   8.052
    5AU     AUC 1569  24.120  15.907   7.005
    5AU     AUC 1570  24.073  16.236   6.954
    5AU     AUC 1571  24.062  16.551   6.942
    5AU     AUC 1572  24.337  16.073   8.017
    5AU     AUC 1573  24.385  16.431   7.996
    5AU     AUC 1574  24.395  16.112   7.067
    5AU     AUC 1575  24.352  16.410   7.074
    5AU     AUC 1576  23.806  16.203   8.010
    5AU     AUC 1577  23.852  16.551   7.958
    5AU     AUC 1578  23.811  16.058   7.110
    5AU     AUC 1579  23.769  16.380   7.075
    5AU     AUC 1580  24.583  16.534   7.356
    5AU     AUC 1581  24.542  16.516   7.692
    5AU     AUC 1582  23.637  16.556   7.370
    5AU     AUC 1583  23.691  16.643   7.694
    5AU     AUC 1584  24.555  15.994   7.411
    5AU     AUC 1585  24.502  15.947   7.752
    5AU     AUC 1586  23.631  15.974   7.396
    5AU     AUC 1587  23.657  16.064   7.729
    5AU     AUC 1588  24.007  16.787   7.752
    5AU     AUC 1589  24.316  16.741   7.771
    5AU     AUC 1590  23.900  15.854   7.832
    5AU     AUC 1591  24.206  15.793   7.822
    5AU     AUC 1592  23.906  16.698   7.186
    5AU     AUC 1593  24.270  16.716   7.201
    5AU     AUC 1594  23.940  15.805   7.273
    5AU     AUC 1595  24.308  15.845   7.276
    5AU    AUSL 1596  24.604  16.183   8.309
    5AU    AUSL 1597  24.347  15.796   8.232
    5AU     AUL 1598  24.651  15.835   8.406
    5AU    AUSL 1599  24.187  16.128   8.455
    5AU    AUSL 1600  23.952  16.527   8.442
    5AU     AUL 1601  24.179  16.423   8.727
    5AU    AUSL 1602  24.290  16.482   8.187
    5AU    AUSL 1603  24.744  16.551   8.119
    5AU     AUL 1604  24.562  16.487   8.449
    5AU    AUSL 1605  24.538  16.304   6.821
    5AU    AUSL 1606  24.366  16.682   6.974
    5AU     AUL 1607  24.630  16.629   6.707
    5AU    AUSL 1608  24.329  15.983   6.604
    5AU    AUSL 1609  24.844  16.055   6.995
    5AU     AUL 1610  24.699  16.099   6.653
    5AU    AUSL 1611  24.155  16.447   6.673
    5AU    AUSL 1612  23.970  16.063   6.824
    5AU     AUL 1613  24.072  16.120   6.483
    5AU    AUSL 1614  23.562  16.493   8.226
    5AU    AUSL 1615  23.922  16.793   8.100
    5AU     AUL 1616  23.750  16.767   8.411
    5AU    AUSL 1617  23.858  16.175   8.186
    5AU    AUSL 1618  23.423  16.071   8.136
    5AU     AUL 1619  23.403  16.266   8.311
    5AU    AUSL 1620  23.529  16.046   6.809
    5AU    AUSL 1621  23.778  15.712   6.977
    5AU     AUL 1622  23.819  15.759   6.661
    5AU    AUSL 1623  23.721  16.410   6.663
    5AU    AUSL 1624  23.448  16.412   7.044
    5AU     AUL 1625  23.317  16.269   6.795
    5AU    AUSL 1626  24.888  16.745   7.494
    5AU    AUSL 1627  24.726  16.496   7.158
    5AU     AUL 1628  24.988  16.610   7.034
    5AU    AUSL 1629  25.062  16.331   7.382
    5AU    AUSL 1630  25.016  16.032   7.764
    5AU     AUL 1631  25.312  16.082   7.558
    5AU    AUSL 1632  24.790  16.391   7.730
    5AU    AUSL 1633  24.559  16.784   7.780
    5AU     AUL 1634  24.895  16.761   7.848
    5AU    AUSL 1635  23.535  16.936   7.486
    5AU    AUSL 1636  23.570  16.697   7.850
    5AU     AUL 1637  23.264  16.947   7.700
    5AU    AUSL 1638  23.337  16.542   7.436
    5AU    AUSL 1639  23.473  16.843   7.074
    5AU     AUL 1640  23.242  16.772   7.232
    5AU    AUSL 1641  23.194  16.509   7.874
    5AU    AUSL 1642  23.161  16.157   7.374
    5AU     AUL 1643  23.019  16.495   7.559
    5AU    AUSL 1644  24.776  15.688   7.618
    5AU    AUSL 1645  24.618  15.981   7.933
    5AU     AUL 1646  24.921  15.869   7.996
    5AU    AUSL 1647  24.736  16.061   7.405
    5AU    AUSL 1648  24.735  15.659   7.184
    5AU     AUL 1649  24.980  15.865   7.278
    5AU    AUSL 1650  23.324  15.781   7.587
    5AU    AUSL 1651  23.521  15.978   7.227
    5AU     AUL 1652  23.164  15.891   7.244
    5AU    AUSL 1653  23.425  16.187   7.725
    5AU    AUSL 1654  23.651  15.815   7.867
    5AU     AUL 1655  23.330  15.810   7.915
    5AU    AUSL 1656  24.193  17.080   7.915
    5AU    AUSL 1657  23.737  17.103   7.836
    5AU     AUL 1658  23.967  17.137   8.171
    5AU    AUSL 1659  24.012  16.981   7.534
    5AU    AUSL 1660  24.252  17.096   7.182
    5AU     AUL 1661  24.008  17.326   7.485
    5AU    AUSL 1662  24.453  17.134   7.563
    5AU    AUSL 1663  24.444  16.878   8.194
    5AU     AUL 1664  24.569  17.119   7.919
    5AU    AUSL 1665  24.028  15.624   7.992
    5AU    AUSL 1666  24.451  15.580   7.870
    5AU     AUL 1667  24.203  15.511   8.245
    5AU    AUSL 1668  23.720  15.421   7.722
    5AU    AUSL 1669  23.771  15.780   8.301
    5AU     AUL 1670  23.701  15.504   8.070
    5AU    AUSL 1671  24.158  15.335   7.682
    5AU    AUSL 1672  23.946  15.586   7.384
    5AU     AUL 1673  23.855  15.224   7.487
    5AU    AUSL 1674  24.078  16.937   6.789
    5AU    AUSL 1675  24.640  16.928   7.200
    5AU     AUL 1676  24.415  17.029   6.874
    5AU    AUSL 1677  23.827  17.064   7.151
    5AU    AUSL 1678  23.848  16.639   6.992
    5AU     AUL 1679  23.749  16.917   6.796
    5AU    AUSL 1680  24.168  15.529   6.998
    5AU    AUSL 1681  23.533  15.535   7.300
    5AU     AUL 1682  23.828  15.391   7.052
    5AU    AUSL 1683  24.379  15.564   7.392
    5AU    AUSL 1684  24.405  15.890   7.012
    5AU     AUL 1685  24.485  15.539   6.976
    5AU       S 1686  24.647  15.387   8.263
    5AU     LIG 1687  24.771  15.042   8.455
    5AU     LIG 1688  24.978  14.687   8.488
    5AU     LIG 1689  25.351  14.506   8.606
    5AU       S 1690  24.558  16.117   8.760
    5AU     LIG 1691  24.884  16.395   8.883
    5AU     LIG 1692  25.062  16.387   9.316
    5AU     LIG 1693  25.038  16.249   9.775
    5AU       S 1694  24.207  15.950   8.660
    5AU     LIG 1695  24.208  15.997   9.117
    5AU     LIG 1696  24.587  15.982   9.428
    5AU     LIG 1697  24.824  15.764   9.790
    5AU       S 1698  23.737  16.330   8.654
    5AU     LIG 1699  23.756  16.288   9.109
    5AU     LIG 1700  23.351  16.281   9.287
    5AU     LIG 1701  23.101  16.378   9.667
    5AU       S 1702  24.211  16.881   8.583
    5AU     LIG 1703  24.468  17.210   8.752
    5AU     LIG 1704  24.897  17.092   8.829
    5AU     LIG 1705  25.192  16.813   9.010
    5AU       S 1706  24.940  16.734   8.321
    5AU     LIG 1707  25.301  16.900   8.513
    5AU     LIG 1708  25.348  17.312   8.674
    5AU     LIG 1709  25.480  17.739   8.845
    5AU       S 1710  24.492  16.398   6.331
    5AU     LIG 1711  24.775  16.395   5.944
    5AU     LIG 1712  25.062  16.069   5.836
    5AU     LIG 1713  24.946  15.659   5.693
    5AU       S 1714  24.871  17.020   6.808
    5AU     LIG 1715  24.861  17.336   6.501
    5AU     LIG 1716  25.060  17.507   6.127
    5AU     LIG 1717  25.423  17.750   6.007
    5AU       S 1718  25.071  15.847   6.807
    5AU     LIG 1719  25.020  15.842   6.306
    5AU     LIG 1720  24.997  15.407   6.150
    5AU     LIG 1721  25.173  15.011   6.362
    5AU       S 1722  24.457  16.207   6.262
    5AU     LIG 1723  24.589  15.872   6.022
    5AU     LIG 1724  24.412  15.687   5.650
    5AU     LIG 1725  24.353  15.804   5.210
    5AU       S 1726  23.640  16.066   6.339
    5AU     LIG 1727  23.899  15.974   5.985
    5AU     LIG 1728  23.916  15.881   5.531
    5AU     LIG 1729  23.715  16.013   5.132
    5AU       S 1730  24.241  16.556   6.437
    5AU     LIG 1731  24.053  16.451   6.045
    5AU     LIG 1732  24.299  16.203   5.734
    5AU     LIG 1733  24.689  16.094   5.494
    5AU       S 1734  23.529  16.470   8.703
    5AU     LIG 1735  23.254  16.150   8.776
    5AU     LIG 1736  23.191  15.830   9.037
    5AU     LIG 1737  23.067  15.883   9.474
    5AU       S 1738  23.484  17.095   8.214
    5AU     LIG 1739  23.219  17.377   8.430
    5AU     LIG 1740  23.022  17.278   8.815
    5AU     LIG 1741  22.758  17.494   9.106
    5AU       S 1742  23.274  15.824   8.392
    5AU     LIG 1743  22.863  15.755   8.186
    5AU     LIG 1744  22.725  15.382   8.363
    5AU     LIG 1745  22.605  15.223   8.791
    5AU       S 1746  23.735  16.139   8.608
    5AU     LIG 1747  23.712  15.826   8.923
    5AU     LIG 1748  23.595  15.825   9.365
    5AU     LIG 1749  23.530  16.093   9.736
    5AU       S 1750  23.454  15.980   6.466
    5AU     LIG 1751  23.269  15.794   6.132
    5AU     LIG 1752  23.415  16.063   5.810
    5AU     LIG 1753  23.359  16.268   5.421
    5AU       S 1754  23.439  15.545   6.830
    5AU     LIG 1755  23.400  15.141   6.690
    5AU     LIG 1756  23.126  15.142   6.327
    5AU     LIG 1757  22.703  14.991   6.226
    5AU       S 1758  23.157  16.694   6.742
    5AU     LIG 1759  22.869  17.013   6.828
    5AU     LIG 1760  22.917  17.315   6.506
    5AU     LIG 1761  22.783  17.462   6.085
    5AU       S 1762  23.652  16.346   6.446
    5AU     LIG 1763  23.391  16.482   6.164
    5AU     LIG 1764  23.589  16.557   5.781
    5AU     LIG 1765  23.878  16.391   5.476
    5AU       S 1766  25.067  17.050   7.049
    5AU     LIG 1767  25.329  17.136   6.640
    5AU     LIG 1768  25.525  17.282   6.224
    5AU     LIG 1769  25.846  17.481   5.911
    5AU       S 1770  25.170  16.786   7.466
    5AU     LIG 1771  25.307  17.105   7.668
    5AU     LIG 1772  25.737  17.232   7.626
    5AU     LIG 1773  26.008  17.561   7.776
    5AU       S 1774  25.302  16.531   7.415
    5AU     LIG 1775  25.730  16.499   7.449
    5AU     LIG 1776  26.016  16.827   7.370
    5AU     LIG 1777  26.222  17.238   7.339
    5AU       S 1778  25.243  15.636   7.758
    5AU     LIG 1779  25.626  15.436   7.897
    5AU     LIG 1780  26.109  15.479   7.878
    5AU     LIG 1781  26.476  15.734   7.782
    5AU       S 1782  24.904  17.010   8.230
    5AU     LIG 1783  25.235  17.286   8.153
    5AU     LIG 1784  25.332  17.696   8.308
    5AU     LIG 1785  25.124  18.001   8.557
    5AU       S 1786  25.263  16.514   7.761
    5AU     LIG 1787  25.662  16.462   7.953
    5AU     LIG 1788  26.083  16.624   7.853
    5AU     LIG 1789  26.195  17.055   7.817
    5AU       S 1790  23.377  16.909   8.143
    5AU     LIG 1791  23.019  16.901   8.419
    5AU     LIG 1792  22.596  17.009   8.583
    5AU     LIG 1793  22.324  17.285   8.876
    5AU       S 1794  23.484  17.255   7.413
    5AU     LIG 1795  23.186  17.501   7.248
    5AU     LIG 1796  22.894  17.546   6.947
    5AU     LIG 1797  22.491  17.395   6.864
    5AU       S 1798  22.937  16.443   7.089
    5AU     LIG 1799  22.518  16.385   6.935
    5AU     LIG 1800  22.215  16.536   7.221
    5AU     LIG 1801  22.358  16.767   7.590
    5AU       S 1802  23.345  17.112   6.917
    5AU     LIG 1803  23.424  17.512   6.766
    5AU     LIG 1804  23.160  17.835   6.614
    5AU     LIG 1805  22.741  17.789   6.486
    5AU       S 1806  22.927  16.043   7.635
    5AU     LIG 1807  22.594  16.103   7.357
    5AU     LIG 1808  22.168  16.023   7.144
    5AU     LIG 1809  21.686  15.932   7.011
    5AU       S 1810  23.074  16.523   8.055
    5AU     LIG 1811  22.654  16.603   8.186
    5AU     LIG 1812  22.372  16.945   8.102
    5AU     LIG 1813  22.454  17.233   7.794
    5AU       S 1814  24.932  15.518   7.626
    5AU     LIG 1815  25.106  15.108   7.551
    5AU     LIG 1816  25.460  14.969   7.729
    5AU     LIG 1817  25.913  15.050   7.704
    5AU       S 1818  24.819  15.449   8.119
    5AU     LIG 1819  25.151  15.164   8.106
    5AU     LIG 1820  25.434  15.006   8.473
    5AU     LIG 1821  25.732  14.780   8.804
    5AU       S 1822  25.225  15.596   7.539
    5AU     LIG 1823  25.577  15.333   7.384
    5AU     LIG 1824  26.050  15.404   7.350
    5AU     LIG 1825  26.488  15.603   7.280
    5AU       S 1826  24.960  15.560   6.922
    5AU     LIG 1827  25.140  15.221   7.036
    5AU     LIG 1828  25.054  14.841   6.833
    5AU     LIG 1829  24.822  14.636   6.481
    5AU       S 1830  23.305  15.646   6.889
    5AU     LIG 1831  23.006  15.696   6.606
    5AU     LIG 1832  22.697  15.383   6.561
    5AU     LIG 1833  22.401  15.038   6.694
    5AU       S 1834  22.936  15.816   7.672
    5AU     LIG 1835  22.787  15.613   7.345
    5AU     LIG 1836  22.393  15.571   7.267
    5AU     LIG 1837  21.968  15.538   7.170
    5AU       S 1838  23.317  15.589   8.310
    5AU     LIG 1839  23.090  15.351   7.951
    5AU     LIG 1840  22.758  15.004   7.998
    5AU     LIG 1841  22.524  14.920   8.367
    5AU       S 1842  22.981  16.088   7.821
    5AU     LIG 1843  22.553  16.111   7.946
    5AU     LIG 1844  22.289  15.879   7.697
    5AU     LIG 1845  22.056  15.527   7.668
    5AU       S 1846  23.597  17.284   7.897
    5AU     LIG 1847  23.137  17.378   7.911
    5AU     LIG 1848  22.769  17.315   8.190
    5AU     LIG 1849  22.658  17.509   8.565
    5AU       S 1850  24.227  17.432   7.898
    5AU     LIG 1851  24.647  17.669   8.034
    5AU     LIG 1852  24.466  18.014   8.259
    5AU     LIG 1853  24.008  18.141   8.280
    5AU       S 1854  24.248  17.624   7.767
    5AU     LIG 1855  23.857  17.831   7.807
    5AU     LIG 1856  23.710  18.270   7.871
    5AU     LIG 1857  23.690  18.580   8.220
    5AU       S 1858  24.177  17.400   7.049
    5AU     LIG 1859  24.136  17.801   7.288
    5AU     LIG 1860  24.303  18.254   7.297
    5AU     LIG 1861  24.624  18.494   7.073
    5AU       S 1862  24.672  16.970   8.370
    5AU     LIG 1863  24.839  17.443   8.462
    5AU     LIG 1864  24.975  17.607   8.863
    5AU     LIG 1865  25.215  17.358   9.177
    5AU       S 1866  24.467  17.429   7.567
    5AU     LIG 1867  24.569  17.884   7.521
    5AU     LIG 1868  24.289  18.145   7.788
    5AU     LIG 1869  24.310  18.484   8.061
    5AU       S 1870  24.002  15.127   8.080
    5AU     LIG 1871  24.391  14.867   8.163
    5AU     LIG 1872  24.551  14.474   8.287
    5AU     LIG 1873  24.528  14.091   8.573
    5AU       S 1874  24.582  15.428   7.972
    5AU     LIG 1875  24.670  15.070   7.790
    5AU     LIG 1876  24.894  14.731   7.959
    5AU     LIG 1877  25.323  14.668   8.115
    5AU       S 1878  23.806  15.074   7.925
    5AU     LIG 1879  23.748  14.757   7.671
    5AU     LIG 1880  23.773  14.378   7.920
    5AU     LIG 1881  23.803  14.030   8.235
    5AU       S 1882  23.532  15.713   8.476
    5AU     LIG 1883  23.256  15.389   8.747
    5AU     LIG 1884  23.011  14.979   8.617
    5AU     LIG 1885  22.717  14.619   8.780
    5AU       S 1886  24.245  15.125   7.263
    5AU     LIG 1887  24.275  14.665   7.171
    5AU     LIG 1888  24.291  14.234   7.076
    5AU     LIG 1889  23.957  13.958   7.077
    5AU       S 1890  24.157  15.169   7.853
    5AU     LIG 1891  24.262  14.791   7.662
    5AU     LIG 1892  24.295  14.379   7.823
    5AU     LIG 1893  24.341  14.037   8.115
    5AU       S 1894  24.029  17.309   6.764
    5AU     LIG 1895  23.946  17.780   6.792
    5AU     LIG 1896  24.172  18.194   6.812
    5AU     LIG 1897  24.325  18.620   6.669
    5AU       S 1898  24.807  17.121   7.157
    5AU     LIG 1899  25.040  17.533   6.947
    5AU     LIG 1900  25.318  17.641   6.557
    5AU     LIG 1901  25.772  17.702   6.406
    5AU       S 1902  23.831  17.329   7.034
    5AU     LIG 1903  23.647  17.719   7.207
    5AU     LIG 1904  23.788  18.177   7.184
    5AU     LIG 1905  23.988  18.608   7.086
    5AU       S 1906  23.366  16.733   6.639
    5AU     LIG 1907  23.395  17.110   6.410
    5AU     LIG 1908  23.299  17.525   6.229
    5AU     LIG 1909  23.061  17.903   6.085
    5AU       S 1910  23.361  15.467   7.143
    5AU     LIG 1911  23.000  15.266   7.028
    5AU     LIG 1912  22.917  14.959   6.761
    5AU     LIG 1913  22.715  14.642   6.597
    5AU       S 1914  24.243  15.165   7.092
    5AU     LIG 1915  24.477  14.936   6.786
    5AU     LIG 1916  24.320  14.521   6.636
    5AU     LIG 1917  24.090  14.100   6.597
    5AU       S 1918  24.489  15.252   7.354
    5AU     LIG 1919  24.738  14.893   7.245
    5AU     LIG 1920  24.717  14.501   6.968
    5AU     LIG 1921  24.878  14.148   6.675
    5AU       S 1922  24.834  15.660   6.711
    5AU     LIG 1923  24.563  15.511   6.446
    5AU     LIG 1924  24.617  15.083   6.296
    5AU     LIG 1925  24.873  14.837   5.993
    6AU     AUC 1926   2.232  22.593   7.529
    6AU     AUC 1927   2.477  22.586   7.358
    6AU     AUC 1928   2.479  22.592   7.694
    6AU     AUC 1929   1.963  22.591   7.380
    6AU     AUC 1930   1.993  22.640   7.701
    6AU     AUC 1931   2.071  22.852   7.492
    6AU     AUC 1932   2.406  22.852   7.486
    6AU     AUC 1933   2.062  22.344   7.559
    6AU     AUC 1934   2.391  22.322   7.551
    6AU     AUC 1935   2.238  22.449   7.801
    6AU     AUC 1936   2.247  22.791   7.761
    6AU     AUC 1937   2.220  22.405   7.288
    6AU     AUC 1938   2.234  22.710   7.258
    6AU     AUC 1939   2.785  22.573   7.197
    6AU     AUC 1940   2.798  22.567   7.540
    6AU     AUC 1941   2.775  22.578   7.890
    6AU     AUC 1942   1.660  22.548   7.250
    6AU     AUC 1943   1.661  22.632   7.568
    6AU     AUC 1944   1.704  22.698   7.883
    6AU     AUC 1945   1.909  23.158   7.429
    6AU     AUC 1946   2.265  23.147   7.407
    6AU     AUC 1947   2.600  23.132   7.440
    6AU     AUC 1948   1.869  22.052   7.591
    6AU     AUC 1949   2.213  22.029   7.562
    6AU     AUC 1950   2.563  22.022   7.562
    6AU     AUC 1951   2.215  22.298   8.114
    6AU     AUC 1952   2.240  22.648   8.094
    6AU     AUC 1953   2.291  23.005   8.040
    6AU     AUC 1954   2.253  22.210   7.010
    6AU     AUC 1955   2.199  22.539   6.953
    6AU     AUC 1956   2.184  22.854   6.936
    6AU     AUC 1957   2.485  22.405   8.012
    6AU     AUC 1958   2.528  22.764   7.983
    6AU     AUC 1959   2.525  22.420   7.061
    6AU     AUC 1960   2.479  22.721   7.066
    6AU     AUC 1961   1.956  22.530   8.016
    6AU     AUC 1962   1.994  22.878   7.953
    6AU     AUC 1963   1.943  22.360   7.118
    6AU     AUC 1964   1.896  22.679   7.076
    6AU     AUC 1965   2.713  22.851   7.339
    6AU     AUC 1966   2.677  22.841   7.675
    6AU     AUC 1967   1.766  22.861   7.370
    6AU     AUC 1968   1.825  22.957   7.689
    6AU     AUC 1969   2.692  22.311   7.399
    6AU     AUC 1970   2.645  22.273   7.745
    6AU     AUC 1971   1.767  22.281   7.413
    6AU     AUC 1972   1.801  22.377   7.745
    6AU     AUC 1973   2.141  23.108   7.739
    6AU     AUC 1974   2.450  23.067   7.754
    6AU     AUC 1975   2.048  22.174   7.848
    6AU     AUC 1976   2.350  22.115   7.829
    6AU     AUC 1977   2.030  23.003   7.178
    6AU     AUC 1978   2.393  23.027   7.188
    6AU     AUC 1979   2.076  22.113   7.287
    6AU     AUC 1980   2.442  22.157   7.279
    6AU    AUSL 1981   2.758  22.525   8.293
    6AU    AUSL 1982   2.494  22.137   8.230
    6AU     AUL 1983   2.793  22.177   8.404
    6AU    AUSL 1984   2.346  22.472   8.457
    6AU    AUSL 1985   2.108  22.869   8.439
    6AU     AUL 1986   2.341  22.775   8.720
    6AU    AUSL 1987   2.438  22.818   8.174
    6AU    AUSL 1988   2.890  22.894   8.096
    6AU     AUL 1989   2.716  22.832   8.430
    6AU    AUSL 1990   2.657  22.611   6.820
    6AU    AUSL 1991   2.487  22.993   6.960
    6AU     AUL 1992   2.750  22.938   6.696
    6AU    AUSL 1993   2.458  22.294   6.598
    6AU    AUSL 1994   2.968  22.360   6.978
    6AU     AUL 1995   2.843  22.448   6.642
    6AU    AUSL 1996   2.274  22.748   6.668
    6AU    AUSL 1997   2.100  22.361   6.825
    6AU     AUL 1998   2.190  22.415   6.482
    6AU    AUSL 1999   1.715  22.826   8.232
    6AU    AUSL 2000   2.061  23.121   8.089
    6AU     AUL 2001   1.898  23.102   8.410
    6AU    AUSL 2002   2.014  22.512   8.192
    6AU    AUSL 2003   1.582  22.402   8.160
    6AU     AUL 2004   1.559  22.612   8.322
    6AU    AUSL 2005   1.660  22.338   6.822
    6AU    AUSL 2006   1.915  22.014   6.996
    6AU     AUL 2007   1.949  22.051   6.676
    6AU    AUSL 2008   1.841  22.701   6.665
    6AU    AUSL 2009   1.574  22.707   7.050
    6AU     AUL 2010   1.440  22.545   6.809
    6AU    AUSL 2011   3.022  23.070   7.471
    6AU    AUSL 2012   2.858  22.816   7.138
    6AU     AUL 2013   3.130  22.949   7.030
    6AU    AUSL 2014   3.196  22.657   7.364
    6AU    AUSL 2015   3.157  22.364   7.749
    6AU     AUL 2016   3.446  22.422   7.516
    6AU    AUSL 2017   2.924  22.718   7.713
    6AU    AUSL 2018   2.691  23.114   7.754
    6AU     AUL 2019   3.024  23.102   7.813
    6AU    AUSL 2020   1.661  23.241   7.478
    6AU    AUSL 2021   1.708  23.011   7.847
    6AU     AUL 2022   1.397  23.256   7.697
    6AU    AUSL 2023   1.469  22.842   7.441
    6AU    AUSL 2024   1.592  23.139   7.070
    6AU     AUL 2025   1.367  23.072   7.233
    6AU    AUSL 2026   1.333  22.822   7.881
    6AU    AUSL 2027   1.295  22.452   7.399
    6AU     AUL 2028   1.152  22.795   7.568
    6AU    AUSL 2029   2.916  22.014   7.614
    6AU    AUSL 2030   2.763  22.310   7.924
    6AU     AUL 2031   3.059  22.196   7.996
    6AU    AUSL 2032   2.874  22.382   7.392
    6AU    AUSL 2033   2.864  21.971   7.182
    6AU     AUL 2034   3.117  22.179   7.256
    6AU    AUSL 2035   1.476  22.085   7.617
    6AU    AUSL 2036   1.653  22.278   7.242
    6AU     AUL 2037   1.296  22.173   7.281
    6AU    AUSL 2038   1.567  22.497   7.743
    6AU    AUSL 2039   1.802  22.134   7.896
    6AU     AUL 2040   1.474  22.139   7.957
    6AU    AUSL 2041   2.322  23.409   7.894
    6AU    AUSL 2042   1.868  23.420   7.820
    6AU     AUL 2043   2.108  23.466   8.159
    6AU    AUSL 2044   2.139  23.295   7.517
    6AU    AUSL 2045   2.370  23.409   7.159
    6AU     AUL 2046   2.128  23.640   7.457
    6AU    AUSL 2047   2.576  23.461   7.537
    6AU    AUSL 2048   2.586  23.216   8.170
    6AU     AUL 2049   2.691  23.455   7.893
    6AU    AUSL 2050   2.178  21.936   8.010
    6AU    AUSL 2051   2.600  21.903   7.879
    6AU     AUL 2052   2.376  21.840   8.257
    6AU    AUSL 2053   1.862  21.739   7.746
    6AU    AUSL 2054   1.950  22.119   8.323
    6AU     AUL 2055   1.846  21.824   8.093
    6AU    AUSL 2056   2.302  21.650   7.702
    6AU    AUSL 2057   2.085  21.899   7.404
    6AU     AUL 2058   2.003  21.536   7.516
    6AU    AUSL 2059   2.191  23.236   6.773
    6AU    AUSL 2060   2.760  23.244   7.183
    6AU     AUL 2061   2.521  23.337   6.854
    6AU    AUSL 2062   1.945  23.366   7.136
    6AU    AUSL 2063   1.969  22.938   6.987
    6AU     AUL 2064   1.861  23.210   6.785
    6AU    AUSL 2065   2.302  21.825   7.020
    6AU    AUSL 2066   1.673  21.837   7.322
    6AU     AUL 2067   1.962  21.696   7.078
    6AU    AUSL 2068   2.518  21.880   7.409
    6AU    AUSL 2069   2.530  22.191   7.007
    6AU     AUL 2070   2.617  21.812   7.025
    6AU       S 2071   2.828  21.734   8.265
    6AU     LIG 2072   2.741  21.321   8.386
    6AU     LIG 2073   2.922  20.937   8.583
    6AU     LIG 2074   3.287  20.946   8.862
    6AU       S 2075   2.727  22.475   8.751
    6AU     LIG 2076   3.026  22.768   8.906
    6AU     LIG 2077   3.221  22.706   9.328
    6AU     LIG 2078   3.363  22.495   9.729
    6AU       S 2079   2.368  22.300   8.661
    6AU     LIG 2080   2.381  22.375   9.113
    6AU     LIG 2081   2.751  22.381   9.430
    6AU     LIG 2082   2.942  22.193   9.828
    6AU       S 2083   1.897  22.674   8.663
    6AU     LIG 2084   1.909  22.638   9.127
    6AU     LIG 2085   1.518  22.546   9.342
    6AU     LIG 2086   1.236  22.577   9.713
    6AU       S 2087   2.362  23.231   8.564
    6AU     LIG 2088   2.640  23.495   8.780
    6AU     LIG 2089   3.067  23.378   8.834
    6AU     LIG 2090   3.390  23.138   9.039
    6AU       S 2091   3.077  23.094   8.283
    6AU     LIG 2092   3.418  23.189   8.503
    6AU     LIG 2093   3.560  23.529   8.719
    6AU     LIG 2094   3.916  23.737   8.902
    6AU       S 2095   2.603  22.713   6.320
    6AU     LIG 2096   2.924  22.684   5.970
    6AU     LIG 2097   3.140  22.300   5.860
    6AU     LIG 2098   3.025  21.873   5.731
    6AU       S 2099   2.968  23.338   6.769
    6AU     LIG 2100   2.963  23.659   6.477
    6AU     LIG 2101   3.261  23.793   6.148
    6AU     LIG 2102   3.717  23.840   6.152
    6AU       S 2103   3.141  22.105   6.771
    6AU     LIG 2104   3.136  21.975   6.289
    6AU     LIG 2105   3.133  21.543   6.132
    6AU     LIG 2106   3.289  21.135   6.296
    6AU       S 2107   2.571  22.513   6.259
    6AU     LIG 2108   2.661  22.158   6.011
    6AU     LIG 2109   2.545  22.046   5.568
    6AU     LIG 2110   2.729  22.112   5.136
    6AU       S 2111   1.757  22.347   6.352
    6AU     LIG 2112   1.956  22.424   5.987
    6AU     LIG 2113   2.011  22.277   5.577
    6AU     LIG 2114   1.689  22.104   5.315
    6AU       S 2115   2.354  22.855   6.436
    6AU     LIG 2116   2.222  22.845   6.011
    6AU     LIG 2117   2.433  22.549   5.744
    6AU     LIG 2118   2.814  22.482   5.497
    6AU       S 2119   1.694  22.810   8.715
    6AU     LIG 2120   1.344  22.583   8.754
    6AU     LIG 2121   1.261  22.205   8.924
    6AU     LIG 2122   1.125  22.189   9.360
    6AU       S 2123   1.625  23.414   8.202
    6AU     LIG 2124   1.540  23.545   8.606
    6AU     LIG 2125   1.215  23.765   8.842
    6AU     LIG 2126   0.769  23.764   8.953
    6AU       S 2127   1.490  22.175   8.462
    6AU     LIG 2128   1.123  22.335   8.344
    6AU     LIG 2129   0.932  21.973   8.323
    6AU     LIG 2130   0.775  21.611   8.531
    6AU       S 2131   1.894  22.491   8.621
    6AU     LIG 2132   1.903  22.177   8.936
    6AU     LIG 2133   1.628  22.054   9.262
    6AU     LIG 2134   1.518  22.145   9.703
    6AU       S 2135   1.589  22.275   6.470
    6AU     LIG 2136   1.392  22.046   6.173
    6AU     LIG 2137   1.510  22.210   5.792
    6AU     LIG 2138   1.363  22.585   5.575
    6AU       S 2139   1.570  21.836   6.848
    6AU     LIG 2140   1.465  21.579   6.522
    6AU     LIG 2141   1.428  21.557   6.075
    6AU     LIG 2142   1.067  21.740   5.849
    6AU       S 2143   1.282  22.967   6.742
    6AU     LIG 2144   1.027  23.283   6.659
    6AU     LIG 2145   1.094  23.682   6.475
    6AU     LIG 2146   1.065  23.766   6.034
    6AU       S 2147   1.765  22.636   6.451
    6AU     LIG 2148   1.527  22.754   6.131
    6AU     LIG 2149   1.745  22.858   5.766
    6AU     LIG 2150   2.069  22.792   5.454
    6AU       S 2151   3.112  23.376   6.908
    6AU     LIG 2152   3.448  23.378   6.594
    6AU     LIG 2153   3.567  23.355   6.150
    6AU     LIG 2154   3.914  23.461   5.869
    6AU       S 2155   3.320  23.132   7.450
    6AU     LIG 2156   3.455  23.535   7.231
    6AU     LIG 2157   3.861  23.735   7.288
    6AU     LIG 2158   4.155  23.528   7.569
    6AU       S 2159   3.458  22.885   7.420
    6AU     LIG 2160   3.830  23.176   7.352
    6AU     LIG 2161   4.282  23.151   7.202
    6AU     LIG 2162   4.727  23.281   7.065
    6AU       S 2163   3.387  21.999   7.738
    6AU     LIG 2164   3.517  21.738   8.035
    6AU     LIG 2165   3.938  21.608   7.990
    6AU     LIG 2166   4.254  21.877   7.747
    6AU       S 2167   3.053  23.367   8.182
    6AU     LIG 2168   3.423  23.659   8.232
    6AU     LIG 2169   3.613  24.004   8.521
    6AU     LIG 2170   3.620  24.141   8.978
    6AU       S 2171   3.382  22.831   7.759
    6AU     LIG 2172   3.572  23.207   7.948
    6AU     LIG 2173   4.041  23.309   8.018
    6AU     LIG 2174   4.475  23.509   7.985
    6AU       S 2175   1.524  23.233   8.134
    6AU     LIG 2176   1.314  23.096   8.489
    6AU     LIG 2177   0.960  23.363   8.629
    6AU     LIG 2178   0.498  23.409   8.678
    6AU       S 2179   1.599  23.566   7.391
    6AU     LIG 2180   1.370  23.870   7.166
    6AU     LIG 2181   1.004  23.679   6.994
    6AU     LIG 2182   0.851  23.264   7.145
    6AU       S 2183   1.074  22.730   7.103
    6AU     LIG 2184   0.769  22.849   6.821
    6AU     LIG 2185   0.394  23.003   6.974
    6AU     LIG 2186   0.370  23.228   7.345
    6AU       S 2187   1.450  23.400   6.894
    6AU     LIG 2188   1.565  23.791   6.704
    6AU     LIG 2189   1.287  24.146   6.647
    6AU     LIG 2190   0.950  24.165   6.346
    6AU       S 2191   1.074  22.343   7.669
    6AU     LIG 2192   0.755  22.480   7.409
    6AU     LIG 2193   0.331  22.519   7.267
    6AU     LIG 2194  44.994  22.285   7.440
    6AU       S 2195   1.234  22.835   8.049
    6AU     LIG 2196   0.917  22.820   8.303
    6AU     LIG 2197   0.674  23.181   8.241
    6AU     LIG 2198   0.277  23.362   8.222
    6AU       S 2199   3.075  21.866   7.621
    6AU     LIG 2200   3.167  21.463   7.613
    6AU     LIG 2201   3.553  21.335   7.727
    6AU     LIG 2202   3.866  21.480   7.493
    6AU       S 2203   2.987  21.761   8.097
    6AU     LIG 2204   3.204  21.350   8.123
    6AU     LIG 2205   3.633  21.249   8.235
    6AU     LIG 2206   3.753  21.125   8.660
    6AU       S 2207   3.364  21.939   7.550
    6AU     LIG 2208   3.464  21.721   7.207
    6AU     LIG 2209   3.904  21.719   7.046
    6AU     LIG 2210   4.304  21.651   7.270
    6AU       S 2211   3.066  21.869   6.894
    6AU     LIG 2212   3.109  21.508   6.671
    6AU     LIG 2213   3.069  21.076   6.753
    6AU     LIG 2214   2.941  20.738   6.492
    6AU       S 2215   1.438  21.944   6.916
    6AU     LIG 2216   1.155  22.050   6.644
    6AU     LIG 2217   0.999  21.747   6.381
    6AU     LIG 2218   0.639  21.642   6.167
    6AU       S 2219   1.081  22.098   7.708
    6AU     LIG 2220   0.808  21.966   7.364
    6AU     LIG 2221   0.353  21.987   7.203
    6AU     LIG 2222  44.970  21.764   7.363
    6AU       S 2223   1.493  21.956   8.373
    6AU     LIG 2224   1.292  21.679   8.096
    6AU     LIG 2225   1.033  21.315   8.191
    6AU     LIG 2226   0.606  21.181   8.311
    6AU       S 2227   1.116  22.395   7.844
    6AU     LIG 2228   0.711  22.318   7.999
    6AU     LIG 2229   0.452  22.151   7.705
    6AU     LIG 2230   0.095  21.956   7.820
    6AU       S 2231   1.758  23.582   7.858
    6AU     LIG 2232   1.370  23.750   7.919
    6AU     LIG 2233   1.153  23.752   8.314
    6AU     LIG 2234   0.911  24.082   8.548
    6AU       S 2235   2.336  23.759   7.859
    6AU     LIG 2236   2.569  23.918   8.180
    6AU     LIG 2237   2.363  24.297   8.344
    6AU     LIG 2238   1.915  24.445   8.381
    6AU       S 2239   2.356  23.984   7.702
    6AU     LIG 2240   2.032  24.323   7.676
    6AU     LIG 2241   1.960  24.706   7.941
    6AU     LIG 2242   1.936  24.960   8.347
    6AU       S 2243   2.282  23.711   7.015
    6AU     LIG 2244   2.368  24.118   7.213
    6AU     LIG 2245   2.312  24.557   7.300
    6AU     LIG 2246   2.208  24.955   7.070
    6AU       S 2247   2.814  23.314   8.344
    6AU     LIG 2248   2.972  23.749   8.481
    6AU     LIG 2249   3.198  23.880   8.842
    6AU     LIG 2250   3.444  23.687   9.189
    6AU       S 2251   2.584  23.758   7.540
    6AU     LIG 2252   2.817  24.114   7.756
    6AU     LIG 2253   2.509  24.460   7.876
    6AU     LIG 2254   2.414  24.811   8.170
    6AU       S 2255   2.153  21.456   8.114
    6AU     LIG 2256   2.379  21.045   8.159
    6AU     LIG 2257   2.500  20.617   8.278
    6AU     LIG 2258   2.367  20.156   8.333
    6AU       S 2259   2.738  21.735   7.964
    6AU     LIG 2260   2.769  21.310   7.873
    6AU     LIG 2261   2.882  20.933   8.075
    6AU     LIG 2262   3.318  20.848   8.268
    6AU       S 2263   1.956  21.381   7.955
    6AU     LIG 2264   1.974  20.915   7.868
    6AU     LIG 2265   2.083  20.489   8.013
    6AU     LIG 2266   1.831  20.181   8.277
    6AU       S 2267   1.745  22.055   8.494
    6AU     LIG 2268   1.557  21.780   8.821
    6AU     LIG 2269   1.264  21.465   8.649
    6AU     LIG 2270   0.940  21.133   8.706
    6AU       S 2271   2.402  21.436   7.297
    6AU     LIG 2272   2.314  20.954   7.180
    6AU     LIG 2273   2.276  20.501   7.062
    6AU     LIG 2274   2.361  20.047   6.976
    6AU       S 2275   2.302  21.479   7.889
    6AU     LIG 2276   2.377  21.111   7.656
    6AU     LIG 2277   2.502  20.704   7.760
    6AU     LIG 2278   2.617  20.276   7.860
    6AU       S 2279   2.130  23.608   6.739
    6AU     LIG 2280   2.035  24.081   6.767
    6AU     LIG 2281   2.310  24.457   6.775
    6AU     LIG 2282   2.590  24.532   6.398
    6AU       S 2283   2.918  23.425   7.133
    6AU     LIG 2284   3.063  23.852   6.974
    6AU     LIG 2285   3.397  23.883   6.634
    6AU     LIG 2286   3.823  24.023   6.619
    6AU       S 2287   1.941  23.627   7.013
    6AU     LIG 2288   1.863  24.024   7.239
    6AU     LIG 2289   1.868  24.476   7.072
    6AU     LIG 2290   1.913  24.779   6.683
    6AU       S 2291   1.479  23.010   6.642
    6AU     LIG 2292   1.434  23.286   6.330
    6AU     LIG 2293   1.557  23.675   6.189
    6AU     LIG 2294   1.443  24.093   6.158
    6AU       S 2295   1.484  21.753   7.149
    6AU     LIG 2296   1.107  21.562   6.932
    6AU     LIG 2297   1.036  21.274   6.595
    6AU     LIG 2298   1.014  21.283   6.127
    6AU       S 2299   2.361  21.456   7.158
    6AU     LIG 2300   2.585  21.230   6.838
    6AU     LIG 2301   2.454  20.806   6.638
    6AU     LIG 2302   2.313  20.334   6.541
    6AU       S 2303   2.662  21.551   7.416
    6AU     LIG 2304   2.810  21.119   7.350
    6AU     LIG 2305   2.774  20.775   7.037
    6AU     LIG 2306   2.723  20.395   6.833
    6AU       S 2307   2.843  21.989   6.678
    6AU     LIG 2308   2.698  21.681   6.416
    6AU     LIG 2309   2.770  21.231   6.350
    6AU     LIG 2310   2.902  20.957   6.008
    7AU     AUC 2311   2.591   3.142   7.527
    7AU     AUC 2312   2.836   3.137   7.357
    7AU     AUC 2313   2.838   3.142   7.692
    7AU     AUC 2314   2.323   3.138   7.375
    7AU     AUC 2315   2.349   3.185   7.698
    7AU     AUC 2316   2.426   3.399   7.491
    7AU     AUC 2317   2.762   3.402   7.487
    7AU     AUC 2318   2.424   2.890   7.552
    7AU     AUC 2319   2.752   2.871   7.547
    7AU     AUC 2320   2.597   2.996   7.798
    7AU     AUC 2321   2.602   3.338   7.760
    7AU     AUC 2322   2.583   2.955   7.283
    7AU     AUC 2323   2.594   3.260   7.256
    7AU     AUC 2324   3.145   3.126   7.198
    7AU     AUC 2325   3.157   3.118   7.541
    7AU     AUC 2326   3.133   3.129   7.889
    7AU     AUC 2327   2.022   3.093   7.240
    7AU     AUC 2328   2.018   3.173   7.561
    7AU     AUC 2329   2.055   3.237   7.881
    7AU     AUC 2330   2.261   3.703   7.430
    7AU     AUC 2331   2.618   3.697   7.411
    7AU     AUC 2332   2.953   3.684   7.446
    7AU     AUC 2333   2.233   2.596   7.580
    7AU     AUC 2334   2.578   2.577   7.554
    7AU     AUC 2335   2.926   2.573   7.558
    7AU     AUC 2336   2.572   2.845   8.111
    7AU     AUC 2337   2.595   3.193   8.091
    7AU     AUC 2338   2.644   3.551   8.040
    7AU     AUC 2339   2.619   2.762   7.003
    7AU     AUC 2340   2.562   3.092   6.949
    7AU     AUC 2341   2.544   3.407   6.937
    7AU     AUC 2342   2.843   2.954   8.011
    7AU     AUC 2343   2.885   3.313   7.982
    7AU     AUC 2344   2.887   2.976   7.059
    7AU     AUC 2345   2.839   3.275   7.066
    7AU     AUC 2346   2.309   3.074   8.011
    7AU     AUC 2347   2.346   3.420   7.951
    7AU     AUC 2348   2.308   2.909   7.111
    7AU     AUC 2349   2.256   3.228   7.071
    7AU     AUC 2350   3.070   3.403   7.341
    7AU     AUC 2351   3.035   3.391   7.676
    7AU     AUC 2352   2.122   3.405   7.367
    7AU     AUC 2353   2.176   3.498   7.688
    7AU     AUC 2354   3.052   2.863   7.397
    7AU     AUC 2355   3.004   2.822   7.744
    7AU     AUC 2356   2.132   2.824   7.401
    7AU     AUC 2357   2.160   2.922   7.734
    7AU     AUC 2358   2.490   3.652   7.740
    7AU     AUC 2359   2.803   3.616   7.756
    7AU     AUC 2360   2.407   2.723   7.839
    7AU     AUC 2361   2.712   2.665   7.825
    7AU     AUC 2362   2.387   3.553   7.178
    7AU     AUC 2363   2.749   3.579   7.191
    7AU     AUC 2364   2.444   2.661   7.278
    7AU     AUC 2365   2.807   2.708   7.274
    7AU    AUSL 2366   3.115   3.075   8.292
    7AU    AUSL 2367   2.860   2.681   8.232
    7AU     AUL 2368   3.165   2.723   8.397
    7AU    AUSL 2369   2.703   3.017   8.451
    7AU    AUSL 2370   2.459   3.409   8.436
    7AU     AUL 2371   2.699   3.321   8.713
    7AU    AUSL 2372   2.793   3.366   8.174
    7AU    AUSL 2373   3.246   3.443   8.095
    7AU     AUL 2374   3.076   3.379   8.428
    7AU    AUSL 2375   3.022   3.173   6.818
    7AU    AUSL 2376   2.847   3.549   6.964
    7AU     AUL 2377   3.107   3.504   6.697
    7AU    AUSL 2378   2.825   2.855   6.594
    7AU    AUSL 2379   3.332   2.921   6.979
    7AU     AUL 2380   3.201   3.013   6.643
    7AU    AUSL 2381   2.635   3.305   6.670
    7AU    AUSL 2382   2.464   2.914   6.819
    7AU     AUL 2383   2.565   2.974   6.478
    7AU    AUSL 2384   2.065   3.363   8.230
    7AU    AUSL 2385   2.407   3.659   8.087
    7AU     AUL 2386   2.242   3.638   8.406
    7AU    AUSL 2387   2.368   3.052   8.188
    7AU    AUSL 2388   1.932   2.943   8.145
    7AU     AUL 2389   1.923   3.136   8.330
    7AU    AUSL 2390   2.024   2.886   6.813
    7AU    AUSL 2391   2.286   2.561   6.984
    7AU     AUL 2392   2.315   2.609   6.664
    7AU    AUSL 2393   2.203   3.253   6.661
    7AU    AUSL 2394   1.933   3.252   7.045
    7AU     AUL 2395   1.805   3.104   6.793
    7AU    AUSL 2396   3.385   3.621   7.473
    7AU    AUSL 2397   3.214   3.371   7.145
    7AU     AUL 2398   3.476   3.489   7.020
    7AU    AUSL 2399   3.556   3.206   7.362
    7AU    AUSL 2400   3.516   2.914   7.748
    7AU     AUL 2401   3.810   2.961   7.531
    7AU    AUSL 2402   3.284   3.269   7.712
    7AU    AUSL 2403   3.049   3.664   7.753
    7AU     AUL 2404   3.381   3.656   7.809
    7AU    AUSL 2405   2.011   3.782   7.477
    7AU    AUSL 2406   2.054   3.550   7.845
    7AU     AUL 2407   1.739   3.790   7.695
    7AU    AUSL 2408   1.821   3.384   7.437
    7AU    AUSL 2409   1.948   3.684   7.067
    7AU     AUL 2410   1.719   3.606   7.230
    7AU    AUSL 2411   1.685   3.351   7.881
    7AU    AUSL 2412   1.658   2.991   7.379
    7AU     AUL 2413   1.511   3.326   7.569
    7AU    AUSL 2414   3.277   2.565   7.612
    7AU    AUSL 2415   3.122   2.861   7.923
    7AU     AUL 2416   3.425   2.756   7.987
    7AU    AUSL 2417   3.233   2.934   7.392
    7AU    AUSL 2418   3.230   2.528   7.177
    7AU     AUL 2419   3.480   2.731   7.261
    7AU    AUSL 2420   1.837   2.626   7.599
    7AU    AUSL 2421   2.022   2.822   7.231
    7AU     AUL 2422   1.668   2.717   7.248
    7AU    AUSL 2423   1.924   3.037   7.727
    7AU    AUSL 2424   2.158   2.679   7.883
    7AU     AUL 2425   1.833   2.682   7.941
    7AU    AUSL 2426   2.668   3.953   7.902
    7AU    AUSL 2427   2.211   3.961   7.822
    7AU     AUL 2428   2.441   4.005   8.160
    7AU    AUSL 2429   2.489   3.842   7.522
    7AU    AUSL 2430   2.722   3.962   7.167
    7AU     AUL 2431   2.473   4.188   7.467
    7AU    AUSL 2432   2.921   4.015   7.548
    7AU    AUSL 2433   2.943   3.764   8.169
    7AU     AUL 2434   3.042   4.004   7.900
    7AU    AUSL 2435   2.540   2.497   8.002
    7AU    AUSL 2436   2.964   2.452   7.878
    7AU     AUL 2437   2.729   2.392   8.252
    7AU    AUSL 2438   2.229   2.286   7.738
    7AU    AUSL 2439   2.293   2.659   8.314
    7AU     AUL 2440   2.208   2.378   8.085
    7AU    AUSL 2441   2.667   2.203   7.698
    7AU    AUSL 2442   2.453   2.445   7.395
    7AU     AUL 2443   2.363   2.079   7.512
    7AU    AUSL 2444   2.548   3.791   6.778
    7AU    AUSL 2445   3.111   3.796   7.200
    7AU     AUL 2446   2.882   3.896   6.864
    7AU    AUSL 2447   2.297   3.914   7.139
    7AU    AUSL 2448   2.327   3.488   6.987
    7AU     AUL 2449   2.221   3.758   6.784
    7AU    AUSL 2450   2.676   2.377   7.012
    7AU    AUSL 2451   2.043   2.381   7.308
    7AU     AUL 2452   2.345   2.239   7.070
    7AU    AUSL 2453   2.886   2.428   7.404
    7AU    AUSL 2454   2.896   2.748   7.001
    7AU     AUL 2455   2.991   2.373   7.012
    7AU       S 2456   3.175   2.269   8.272
    7AU     LIG 2457   3.276   1.839   8.362
    7AU     LIG 2458   3.445   1.461   8.535
    7AU     LIG 2459   3.564   1.376   8.989
    7AU       S 2460   3.081   3.015   8.745
    7AU     LIG 2461   3.436   3.224   8.855
    7AU     LIG 2462   3.550   3.316   9.291
    7AU     LIG 2463   3.555   3.150   9.734
    7AU       S 2464   2.736   2.846   8.663
    7AU     LIG 2465   2.742   2.951   9.117
    7AU     LIG 2466   3.115   2.950   9.435
    7AU     LIG 2467   3.326   2.687   9.782
    7AU       S 2468   2.254   3.216   8.669
    7AU     LIG 2469   2.262   3.181   9.140
    7AU     LIG 2470   1.916   3.152   9.430
    7AU     LIG 2471   1.482   3.301   9.458
    7AU       S 2472   2.704   3.778   8.552
    7AU     LIG 2473   2.893   4.147   8.684
    7AU     LIG 2474   3.213   4.031   8.963
    7AU     LIG 2475   3.509   3.732   8.856
    7AU       S 2476   3.437   3.640   8.279
    7AU     LIG 2477   3.819   3.664   8.460
    7AU     LIG 2478   3.940   4.001   8.734
    7AU     LIG 2479   4.121   4.343   8.992
    7AU       S 2480   2.952   3.288   6.319
    7AU     LIG 2481   3.396   3.299   6.285
    7AU     LIG 2482   3.469   2.862   6.234
    7AU     LIG 2483   3.323   2.495   5.986
    7AU       S 2484   3.338   3.897   6.809
    7AU     LIG 2485   3.252   4.270   6.603
    7AU     LIG 2486   3.460   4.456   6.245
    7AU     LIG 2487   3.829   4.683   6.142
    7AU       S 2488   3.516   2.686   6.777
    7AU     LIG 2489   3.637   2.413   6.408
    7AU     LIG 2490   3.606   1.987   6.265
    7AU     LIG 2491   3.658   1.591   6.493
    7AU       S 2492   2.944   3.093   6.257
    7AU     LIG 2493   2.859   2.706   6.093
    7AU     LIG 2494   2.868   2.611   5.640
    7AU     LIG 2495   3.137   2.757   5.278
    7AU       S 2496   2.133   2.908   6.342
    7AU     LIG 2497   2.350   2.800   5.985
    7AU     LIG 2498   2.360   2.897   5.557
    7AU     LIG 2499   2.147   3.182   5.278
    7AU       S 2500   2.707   3.421   6.440
    7AU     LIG 2501   2.478   3.288   6.072
    7AU     LIG 2502   2.762   3.110   5.778
    7AU     LIG 2503   3.204   2.984   5.798
    7AU       S 2504   2.052   3.345   8.717
    7AU     LIG 2505   1.718   3.194   8.902
    7AU     LIG 2506   1.575   2.866   9.147
    7AU     LIG 2507   1.545   2.801   9.593
    7AU       S 2508   1.962   3.946   8.200
    7AU     LIG 2509   1.753   4.247   8.430
    7AU     LIG 2510   1.518   4.167   8.802
    7AU     LIG 2511   1.249   3.888   9.063
    7AU       S 2512   1.800   2.699   8.424
    7AU     LIG 2513   1.379   2.630   8.260
    7AU     LIG 2514   1.072   2.302   8.404
    7AU     LIG 2515   0.778   2.018   8.689
    7AU       S 2516   2.260   3.025   8.628
    7AU     LIG 2517   2.247   2.719   8.945
    7AU     LIG 2518   2.009   2.650   9.332
    7AU     LIG 2519   2.031   2.763   9.788
    7AU       S 2520   1.951   2.827   6.452
    7AU     LIG 2521   1.800   2.724   6.026
    7AU     LIG 2522   1.860   3.003   5.677
    7AU     LIG 2523   1.663   3.366   5.460
    7AU       S 2524   1.952   2.371   6.837
    7AU     LIG 2525   1.855   2.014   6.620
    7AU     LIG 2526   1.645   2.010   6.222
    7AU     LIG 2527   1.408   2.133   5.830
    7AU       S 2528   1.619   3.522   6.748
    7AU     LIG 2529   1.353   3.911   6.742
    7AU     LIG 2530   1.424   4.315   6.511
    7AU     LIG 2531   1.300   4.411   6.055
    7AU       S 2532   2.135   3.188   6.444
    7AU     LIG 2533   1.890   3.306   6.123
    7AU     LIG 2534   2.075   3.473   5.752
    7AU     LIG 2535   2.474   3.477   5.546
    7AU       S 2536   3.529   3.933   7.036
    7AU     LIG 2537   3.744   4.059   6.588
    7AU     LIG 2538   3.916   4.179   6.162
    7AU     LIG 2539   4.248   4.448   5.940
    7AU       S 2540   3.690   3.660   7.452
    7AU     LIG 2541   3.800   3.962   7.742
    7AU     LIG 2542   4.232   4.124   7.848
    7AU     LIG 2543   4.642   4.278   7.626
    7AU       S 2544   3.801   3.411   7.404
    7AU     LIG 2545   4.218   3.459   7.542
    7AU     LIG 2546   4.473   3.805   7.505
    7AU     LIG 2547   4.755   4.005   7.200
    7AU       S 2548   3.746   2.523   7.753
    7AU     LIG 2549   3.981   2.338   8.088
    7AU     LIG 2550   4.402   2.212   8.025
    7AU     LIG 2551   4.616   2.469   7.719
    7AU       S 2552   3.407   3.910   8.184
    7AU     LIG 2553   3.805   4.126   8.239
    7AU     LIG 2554   3.917   4.482   8.521
    7AU     LIG 2555   3.889   4.801   8.883
    7AU       S 2556   3.735   3.377   7.763
    7AU     LIG 2557   4.057   3.612   8.001
    7AU     LIG 2558   4.509   3.719   8.014
    7AU     LIG 2559   4.726   4.116   8.102
    7AU       S 2560   1.860   3.762   8.134
    7AU     LIG 2561   1.623   3.667   8.487
    7AU     LIG 2562   1.209   3.845   8.550
    7AU     LIG 2563   0.819   4.011   8.715
    7AU       S 2564   1.943   4.097   7.393
    7AU     LIG 2565   1.644   4.421   7.423
    7AU     LIG 2566   1.255   4.489   7.204
    7AU     LIG 2567   0.890   4.308   6.984
    7AU       S 2568   1.413   3.271   7.105
    7AU     LIG 2569   0.943   3.211   7.127
    7AU     LIG 2570   0.526   3.415   7.095
    7AU     LIG 2571   0.390   3.822   6.954
    7AU       S 2572   1.814   3.943   6.906
    7AU     LIG 2573   1.979   4.235   6.637
    7AU     LIG 2574   1.839   4.646   6.581
    7AU     LIG 2575   1.571   4.805   6.246
    7AU       S 2576   1.414   2.868   7.628
    7AU     LIG 2577   0.979   2.868   7.507
    7AU     LIG 2578   0.532   2.797   7.363
    7AU     LIG 2579   0.143   2.756   7.104
    7AU       S 2580   1.563   3.348   8.069
    7AU     LIG 2581   1.135   3.422   8.258
    7AU     LIG 2582   0.783   3.733   8.278
    7AU     LIG 2583   0.722   4.037   7.946
    7AU       S 2584   3.429   2.407   7.620
    7AU     LIG 2585   3.557   2.010   7.531
    7AU     LIG 2586   4.015   2.052   7.654
    7AU     LIG 2587   4.474   2.041   7.488
    7AU       S 2588   3.347   2.329   8.108
    7AU     LIG 2589   3.626   1.992   8.031
    7AU     LIG 2590   3.834   1.845   8.412
    7AU     LIG 2591   3.958   1.422   8.601
    7AU       S 2592   3.723   2.489   7.557
    7AU     LIG 2593   3.814   2.318   7.201
    7AU     LIG 2594   4.251   2.339   7.142
    7AU     LIG 2595   4.662   2.534   7.203
    7AU       S 2596   3.436   2.445   6.878
    7AU     LIG 2597   3.468   2.049   6.771
    7AU     LIG 2598   3.345   1.661   6.892
    7AU     LIG 2599   3.229   1.292   6.662
    7AU       S 2600   1.818   2.478   6.890
    7AU     LIG 2601   1.544   2.523   6.557
    7AU     LIG 2602   1.245   2.325   6.294
    7AU     LIG 2603   1.138   1.872   6.225
    7AU       S 2604   1.459   2.623   7.671
    7AU     LIG 2605   1.109   2.457   7.864
    7AU     LIG 2606   0.711   2.446   7.685
    7AU     LIG 2607   0.435   2.291   7.352
    7AU       S 2608   1.847   2.478   8.353
    7AU     LIG 2609   1.645   2.240   8.041
    7AU     LIG 2610   1.286   1.991   8.072
    7AU     LIG 2611   0.901   1.798   8.232
    7AU       S 2612   1.464   2.917   7.816
    7AU     LIG 2613   1.066   2.977   8.001
    7AU     LIG 2614   0.635   2.916   7.892
    7AU     LIG 2615   0.320   2.589   7.999
    7AU       S 2616   2.076   4.134   7.874
    7AU     LIG 2617   1.645   4.263   7.921
    7AU     LIG 2618   1.271   4.252   8.215
    7AU     LIG 2619   1.119   4.429   8.614
    7AU       S 2620   2.676   4.297   7.875
    7AU     LIG 2621   2.679   4.464   8.293
    7AU     LIG 2622   2.439   4.787   8.540
    7AU     LIG 2623   2.419   5.252   8.648
    7AU       S 2624   2.743   4.473   7.762
    7AU     LIG 2625   2.416   4.754   7.938
    7AU     LIG 2626   2.378   5.190   7.834
    7AU     LIG 2627   2.698   5.521   7.946
    7AU       S 2628   2.633   4.264   7.026
    7AU     LIG 2629   2.595   4.645   7.278
    7AU     LIG 2630   2.753   5.076   7.313
    7AU     LIG 2631   3.070   5.303   7.035
    7AU       S 2632   3.171   3.861   8.355
    7AU     LIG 2633   3.396   4.251   8.538
    7AU     LIG 2634   3.605   4.353   8.913
    7AU     LIG 2635   3.728   4.043   9.221
    7AU       S 2636   2.932   4.294   7.533
    7AU     LIG 2637   3.075   4.738   7.547
    7AU     LIG 2638   2.871   5.024   7.824
    7AU     LIG 2639   2.687   5.106   8.236
    7AU       S 2640   2.512   2.009   8.106
    7AU     LIG 2641   2.805   1.681   8.226
    7AU     LIG 2642   2.922   1.290   8.463
    7AU     LIG 2643   2.813   0.830   8.623
    7AU       S 2644   3.101   2.287   7.969
    7AU     LIG 2645   3.155   1.859   7.858
    7AU     LIG 2646   3.422   1.489   8.009
    7AU     LIG 2647   3.899   1.519   8.052
    7AU       S 2648   2.329   1.948   7.959
    7AU     LIG 2649   2.211   1.606   7.803
    7AU     LIG 2650   2.422   1.238   7.933
    7AU     LIG 2651   2.448   1.043   8.335
    7AU       S 2652   2.082   2.603   8.489
    7AU     LIG 2653   1.825   2.409   8.841
    7AU     LIG 2654   1.503   2.130   8.622
    7AU     LIG 2655   1.212   1.742   8.646
    7AU       S 2656   2.759   1.986   7.293
    7AU     LIG 2657   2.529   1.569   7.201
    7AU     LIG 2658   2.465   1.140   7.019
    7AU     LIG 2659   2.412   0.710   6.901
    7AU       S 2660   2.669   2.039   7.881
    7AU     LIG 2661   2.697   1.675   7.682
    7AU     LIG 2662   2.929   1.387   7.836
    7AU     LIG 2663   2.912   1.013   8.045
    7AU       S 2664   2.489   4.157   6.745
    7AU     LIG 2665   2.380   4.613   6.749
    7AU     LIG 2666   2.654   4.967   6.816
    7AU     LIG 2667   3.058   5.041   6.592
    7AU       S 2668   3.265   3.988   7.155
    7AU     LIG 2669   3.451   4.419   7.052
    7AU     LIG 2670   3.703   4.567   6.688
    7AU     LIG 2671   3.948   4.943   6.607
    7AU       S 2672   2.297   4.170   7.021
    7AU     LIG 2673   2.009   4.500   7.070
    7AU     LIG 2674   2.162   4.912   7.142
    7AU     LIG 2675   2.358   5.319   7.061
    7AU       S 2676   1.839   3.568   6.633
    7AU     LIG 2677   1.714   3.896   6.354
    7AU     LIG 2678   1.808   4.312   6.153
    7AU     LIG 2679   2.068   4.692   6.112
    7AU       S 2680   1.875   2.299   7.151
    7AU     LIG 2681   1.443   2.213   7.072
    7AU     LIG 2682   1.348   1.994   6.692
    7AU     LIG 2683   1.493   1.583   6.506
    7AU       S 2684   2.754   2.007   7.147
    7AU     LIG 2685   2.851   1.728   6.824
    7AU     LIG 2686   2.718   1.347   6.623
    7AU     LIG 2687   2.443   0.992   6.479
    7AU       S 2688   3.026   2.106   7.405
    7AU     LIG 2689   3.123   1.645   7.378
    7AU     LIG 2690   2.956   1.290   7.125
    7AU     LIG 2691   2.903   0.902   6.852
    7AU       S 2692   3.220   2.554   6.663
    7AU     LIG 2693   3.139   2.215   6.407
    7AU     LIG 2694   3.168   1.750   6.401
    7AU     LIG 2695   3.364   1.416   6.122
    8AU     AUC 2696  37.132  11.505   7.530
    8AU     AUC 2697  37.381  11.508   7.361
    8AU     AUC 2698  37.377  11.509   7.697
    8AU     AUC 2699  36.863  11.496   7.379
    8AU     AUC 2700  36.890  11.545   7.700
    8AU     AUC 2701  36.965  11.760   7.494
    8AU     AUC 2702  37.300  11.766   7.491
    8AU     AUC 2703  36.967  11.251   7.555
    8AU     AUC 2704  37.298  11.239   7.552
    8AU     AUC 2705  37.139  11.358   7.801
    8AU     AUC 2706  37.138  11.700   7.764
    8AU     AUC 2707  37.127  11.319   7.288
    8AU     AUC 2708  37.136  11.622   7.261
    8AU     AUC 2709  37.694  11.506   7.204
    8AU     AUC 2710  37.700  11.497   7.546
    8AU     AUC 2711  37.670  11.500   7.899
    8AU     AUC 2712  36.559  11.448   7.245
    8AU     AUC 2713  36.559  11.529   7.566
    8AU     AUC 2714  36.596  11.593   7.881
    8AU     AUC 2715  36.798  12.062   7.431
    8AU     AUC 2716  37.154  12.057   7.412
    8AU     AUC 2717  37.490  12.049   7.446
    8AU     AUC 2718  36.781  10.955   7.581
    8AU     AUC 2719  37.127  10.941   7.555
    8AU     AUC 2720  37.478  10.943   7.560
    8AU     AUC 2721  37.117  11.204   8.112
    8AU     AUC 2722  37.131  11.554   8.096
    8AU     AUC 2723  37.172  11.912   8.045
    8AU     AUC 2724  37.163  11.127   7.008
    8AU     AUC 2725  37.106  11.453   6.955
    8AU     AUC 2726  37.086  11.766   6.941
    8AU     AUC 2727  37.383  11.317   8.014
    8AU     AUC 2728  37.415  11.674   7.992
    8AU     AUC 2729  37.434  11.343   7.067
    8AU     AUC 2730  37.387  11.641   7.071
    8AU     AUC 2731  36.853  11.431   8.015
    8AU     AUC 2732  36.880  11.781   7.953
    8AU     AUC 2733  36.848  11.269   7.115
    8AU     AUC 2734  36.796  11.588   7.076
    8AU     AUC 2735  37.617  11.778   7.347
    8AU     AUC 2736  37.566  11.760   7.685
    8AU     AUC 2737  36.660  11.762   7.370
    8AU     AUC 2738  36.714  11.857   7.690
    8AU     AUC 2739  37.602  11.239   7.408
    8AU     AUC 2740  37.551  11.194   7.747
    8AU     AUC 2741  36.673  11.182   7.407
    8AU     AUC 2742  36.706  11.277   7.739
    8AU     AUC 2743  37.025  12.015   7.742
    8AU     AUC 2744  37.333  11.979   7.761
    8AU     AUC 2745  36.957  11.080   7.842
    8AU     AUC 2746  37.260  11.027   7.825
    8AU     AUC 2747  36.926  11.911   7.180
    8AU     AUC 2748  37.291  11.940   7.195
    8AU     AUC 2749  36.987  11.025   7.279
    8AU     AUC 2750  37.355  11.079   7.279
    8AU    AUSL 2751  37.650  11.441   8.301
    8AU    AUSL 2752  37.396  11.049   8.230
    8AU     AUL 2753  37.694  11.091   8.403
    8AU    AUSL 2754  37.237  11.377   8.459
    8AU    AUSL 2755  36.990  11.772   8.440
    8AU     AUL 2756  37.219  11.672   8.727
    8AU    AUSL 2757  37.323  11.726   8.180
    8AU    AUSL 2758  37.771  11.817   8.111
    8AU     AUL 2759  37.594  11.748   8.441
    8AU    AUSL 2760  37.566  11.530   6.825
    8AU    AUSL 2761  37.390  11.907   6.968
    8AU     AUL 2762  37.649  11.842   6.690
    8AU    AUSL 2763  37.367  11.205   6.606
    8AU    AUSL 2764  37.887  11.294   6.987
    8AU     AUL 2765  37.731  11.324   6.645
    8AU    AUSL 2766  37.181  11.663   6.673
    8AU    AUSL 2767  37.007  11.275   6.828
    8AU     AUL 2768  37.109  11.332   6.485
    8AU    AUSL 2769  36.599  11.717   8.228
    8AU    AUSL 2770  36.943  12.024   8.090
    8AU     AUL 2771  36.777  11.999   8.408
    8AU    AUSL 2772  36.909  11.413   8.190
    8AU    AUSL 2773  36.483  11.287   8.155
    8AU     AUL 2774  36.438  11.492   8.314
    8AU    AUSL 2775  36.567  11.247   6.815
    8AU    AUSL 2776  36.824  10.920   6.984
    8AU     AUL 2777  36.855  10.972   6.670
    8AU    AUSL 2778  36.748  11.614   6.662
    8AU    AUSL 2779  36.473  11.609   7.047
    8AU     AUL 2780  36.354  11.471   6.788
    8AU    AUSL 2781  37.900  12.005   7.493
    8AU    AUSL 2782  37.783  11.754   7.125
    8AU     AUL 2783  38.100  11.980   7.134
    8AU    AUSL 2784  38.096  11.600   7.384
    8AU    AUSL 2785  38.059  11.295   7.757
    8AU     AUL 2786  38.359  11.355   7.535
    8AU    AUSL 2787  37.817  11.645   7.728
    8AU    AUSL 2788  37.566  12.030   7.772
    8AU     AUL 2789  37.898  12.034   7.830
    8AU    AUSL 2790  36.548  12.137   7.478
    8AU    AUSL 2791  36.592  11.910   7.847
    8AU     AUL 2792  36.276  12.145   7.694
    8AU    AUSL 2793  36.362  11.736   7.440
    8AU    AUSL 2794  36.486  12.041   7.067
    8AU     AUL 2795  36.256  11.961   7.230
    8AU    AUSL 2796  36.223  11.707   7.878
    8AU    AUSL 2797  36.198  11.341   7.396
    8AU     AUL 2798  36.047  11.677   7.565
    8AU    AUSL 2799  37.827  10.944   7.618
    8AU    AUSL 2800  37.664  11.233   7.929
    8AU     AUL 2801  37.969  11.134   7.996
    8AU    AUSL 2802  37.782  11.314   7.398
    8AU    AUSL 2803  37.790  10.902   7.186
    8AU     AUL 2804  38.032  11.119   7.276
    8AU    AUSL 2805  36.387  10.978   7.610
    8AU    AUSL 2806  36.559  11.178   7.234
    8AU     AUL 2807  36.201  11.057   7.287
    8AU    AUSL 2808  36.468  11.391   7.740
    8AU    AUSL 2809  36.713  11.032   7.887
    8AU     AUL 2810  36.386  11.034   7.952
    8AU    AUSL 2811  37.200  12.320   7.899
    8AU    AUSL 2812  36.745  12.321   7.822
    8AU     AUL 2813  36.980  12.368   8.165
    8AU    AUSL 2814  37.023  12.205   7.521
    8AU    AUSL 2815  37.259  12.314   7.165
    8AU     AUL 2816  37.013  12.553   7.463
    8AU    AUSL 2817  37.460  12.371   7.543
    8AU    AUSL 2818  37.454  12.130   8.185
    8AU     AUL 2819  37.562  12.372   7.905
    8AU    AUSL 2820  37.091  10.841   8.001
    8AU    AUSL 2821  37.514  10.820   7.879
    8AU     AUL 2822  37.276  10.748   8.254
    8AU    AUSL 2823  36.784  10.641   7.733
    8AU    AUSL 2824  36.858  11.016   8.315
    8AU     AUL 2825  36.767  10.725   8.082
    8AU    AUSL 2826  37.228  10.566   7.687
    8AU    AUSL 2827  37.001  10.810   7.391
    8AU     AUL 2828  36.932  10.449   7.503
    8AU    AUSL 2829  37.086  12.143   6.778
    8AU    AUSL 2830  37.659  12.174   7.180
    8AU     AUL 2831  37.399  12.234   6.848
    8AU    AUSL 2832  36.834  12.275   7.138
    8AU    AUSL 2833  36.866  11.846   6.993
    8AU     AUL 2834  36.762  12.117   6.786
    8AU    AUSL 2835  37.221  10.754   7.004
    8AU    AUSL 2836  36.590  10.738   7.311
    8AU     AUL 2837  36.890  10.603   7.064
    8AU    AUSL 2838  37.435  10.806   7.396
    8AU    AUSL 2839  37.451  11.119   7.015
    8AU     AUL 2840  37.541  10.772   6.985
    8AU       S 2841  37.722  10.635   8.280
    8AU     LIG 2842  37.872  10.194   8.285
    8AU     LIG 2843  37.883   9.726   8.280
    8AU     LIG 2844  38.190   9.367   8.372
    8AU       S 2845  37.619  11.385   8.752
    8AU     LIG 2846  37.871  11.738   8.894
    8AU     LIG 2847  38.011  11.698   9.333
    8AU     LIG 2848  38.037  11.440   9.723
    8AU       S 2849  37.261  11.201   8.661
    8AU     LIG 2850  37.259  11.297   9.106
    8AU     LIG 2851  37.616  11.291   9.430
    8AU     LIG 2852  37.806  10.976   9.742
    8AU       S 2853  36.776  11.570   8.657
    8AU     LIG 2854  36.811  11.569   9.113
    8AU     LIG 2855  36.488  11.410   9.389
    8AU     LIG 2856  36.304  11.485   9.814
    8AU       S 2857  37.242  12.130   8.584
    8AU     LIG 2858  37.519  12.444   8.773
    8AU     LIG 2859  37.942  12.346   8.932
    8AU     LIG 2860  38.269  12.071   9.069
    8AU       S 2861  37.951  12.016   8.297
    8AU     LIG 2862  38.247  12.109   8.557
    8AU     LIG 2863  38.439  12.450   8.717
    8AU     LIG 2864  38.770  12.731   8.870
    8AU       S 2865  37.503  11.618   6.323
    8AU     LIG 2866  37.962  11.604   6.273
    8AU     LIG 2867  38.127  11.372   5.916
    8AU     LIG 2868  37.986  10.954   5.766
    8AU       S 2869  37.833  12.291   6.759
    8AU     LIG 2870  37.837  12.636   6.500
    8AU     LIG 2871  38.100  12.741   6.158
    8AU     LIG 2872  38.507  12.793   6.020
    8AU       S 2873  38.113  11.084   6.806
    8AU     LIG 2874  38.076  11.070   6.317
    8AU     LIG 2875  38.000  10.636   6.201
    8AU     LIG 2876  37.968  10.218   6.451
    8AU       S 2877  37.485  11.451   6.259
    8AU     LIG 2878  37.597  11.088   6.080
    8AU     LIG 2879  37.433  10.949   5.668
    8AU     LIG 2880  37.331  11.197   5.278
    8AU       S 2881  36.678  11.266   6.344
    8AU     LIG 2882  36.794  11.268   5.930
    8AU     LIG 2883  36.884  11.127   5.533
    8AU     LIG 2884  36.831  11.204   5.099
    8AU       S 2885  37.252  11.779   6.441
    8AU     LIG 2886  37.040  11.675   6.087
    8AU     LIG 2887  37.264  11.427   5.781
    8AU     LIG 2888  37.697  11.385   5.627
    8AU       S 2889  36.564  11.701   8.702
    8AU     LIG 2890  36.294  11.377   8.794
    8AU     LIG 2891  36.171  11.093   9.095
    8AU     LIG 2892  36.103  11.077   9.554
    8AU       S 2893  36.497  12.306   8.201
    8AU     LIG 2894  36.226  12.552   8.437
    8AU     LIG 2895  35.988  12.465   8.820
    8AU     LIG 2896  35.607  12.659   9.002
    8AU       S 2897  36.395  11.043   8.444
    8AU     LIG 2898  36.018  11.185   8.319
    8AU     LIG 2899  35.743  10.869   8.257
    8AU     LIG 2900  35.712  10.638   8.626
    8AU       S 2901  36.781  11.386   8.609
    8AU     LIG 2902  36.744  11.102   8.950
    8AU     LIG 2903  36.589  10.903   9.325
    8AU     LIG 2904  36.578  11.038   9.761
    8AU       S 2905  36.489  11.185   6.449
    8AU     LIG 2906  36.296  11.187   6.015
    8AU     LIG 2907  36.393  11.344   5.587
    8AU     LIG 2908  36.493  11.600   5.218
    8AU       S 2909  36.488  10.731   6.837
    8AU     LIG 2910  36.272  10.355   6.706
    8AU     LIG 2911  36.078  10.158   6.360
    8AU     LIG 2912  35.743   9.967   6.091
    8AU       S 2913  36.156  11.885   6.751
    8AU     LIG 2914  35.892  12.269   6.762
    8AU     LIG 2915  35.989  12.628   6.508
    8AU     LIG 2916  35.894  12.723   6.062
    8AU       S 2917  36.679  11.547   6.438
    8AU     LIG 2918  36.491  11.676   6.080
    8AU     LIG 2919  36.692  11.745   5.689
    8AU     LIG 2920  36.999  11.614   5.379
    8AU       S 2921  37.936  12.187   6.773
    8AU     LIG 2922  38.194  12.268   6.403
    8AU     LIG 2923  38.605  12.345   6.251
    8AU     LIG 2924  38.934  12.652   6.261
    8AU       S 2925  38.274  12.035   7.572
    8AU     LIG 2926  38.521  12.357   7.582
    8AU     LIG 2927  38.946  12.262   7.592
    8AU     LIG 2928  39.232  12.470   7.855
    8AU       S 2929  38.342  11.815   7.528
    8AU     LIG 2930  38.792  11.661   7.503
    8AU     LIG 2931  39.127  11.876   7.285
    8AU     LIG 2932  39.172  12.333   7.139
    8AU       S 2933  38.303  10.928   7.754
    8AU     LIG 2934  38.640  10.708   7.941
    8AU     LIG 2935  39.083  10.693   7.948
    8AU     LIG 2936  39.308  10.876   7.643
    8AU       S 2937  37.912  12.290   8.205
    8AU     LIG 2938  38.326  12.475   8.173
    8AU     LIG 2939  38.536  12.838   8.380
    8AU     LIG 2940  38.537  13.158   8.712
    8AU       S 2941  38.244  11.737   7.826
    8AU     LIG 2942  38.656  11.958   7.908
    8AU     LIG 2943  39.122  11.880   7.867
    8AU     LIG 2944  39.503  12.052   8.049
    8AU       S 2945  36.392  12.117   8.137
    8AU     LIG 2946  36.052  12.076   8.428
    8AU     LIG 2947  35.646  12.308   8.466
    8AU     LIG 2948  35.259  12.424   8.693
    8AU       S 2949  36.487  12.457   7.401
    8AU     LIG 2950  36.280  12.810   7.374
    8AU     LIG 2951  36.081  12.744   7.019
    8AU     LIG 2952  35.680  12.614   7.113
    8AU       S 2953  35.968  11.609   7.099
    8AU     LIG 2954  35.510  11.653   7.108
    8AU     LIG 2955  35.218  11.993   7.001
    8AU     LIG 2956  35.273  12.462   6.858
    8AU       S 2957  36.358  12.307   6.911
    8AU     LIG 2958  36.488  12.720   6.725
    8AU     LIG 2959  36.233  13.083   6.618
    8AU     LIG 2960  35.945  13.429   6.780
    8AU       S 2961  35.977  11.225   7.680
    8AU     LIG 2962  35.670  11.218   7.379
    8AU     LIG 2963  35.253  11.206   7.197
    8AU     LIG 2964  34.870  10.952   7.153
    8AU       S 2965  36.088  11.718   8.060
    8AU     LIG 2966  35.659  11.773   8.253
    8AU     LIG 2967  35.267  12.033   8.209
    8AU     LIG 2968  35.222  12.413   7.965
    8AU       S 2969  37.984  10.786   7.629
    8AU     LIG 2970  38.134  10.396   7.459
    8AU     LIG 2971  38.588  10.338   7.584
    8AU     LIG 2972  39.032  10.462   7.472
    8AU       S 2973  37.888  10.714   8.134
    8AU     LIG 2974  38.187  10.465   7.956
    8AU     LIG 2975  38.448  10.197   8.127
    8AU     LIG 2976  38.321   9.925   8.480
    8AU       S 2977  38.275  10.872   7.568
    8AU     LIG 2978  38.491  10.739   7.258
    8AU     LIG 2979  38.904  10.851   7.160
    8AU     LIG 2980  39.330  10.831   7.098
    8AU       S 2981  38.026  10.784   6.946
    8AU     LIG 2982  37.883  10.374   6.969
    8AU     LIG 2983  37.818   9.929   6.842
    8AU     LIG 2984  37.863   9.646   6.455
    8AU       S 2985  36.342  10.851   6.905
    8AU     LIG 2986  36.016  10.779   6.596
    8AU     LIG 2987  35.678  10.453   6.501
    8AU     LIG 2988  35.370  10.083   6.533
    8AU       S 2989  35.992  10.975   7.716
    8AU     LIG 2990  35.573  10.835   7.769
    8AU     LIG 2991  35.331  10.754   7.419
    8AU     LIG 2992  35.334  10.449   7.054
    8AU       S 2993  36.406  10.819   8.354
    8AU     LIG 2994  36.267  10.568   7.981
    8AU     LIG 2995  35.850  10.431   8.014
    8AU     LIG 2996  35.648  10.195   8.361
    8AU       S 2997  36.015  11.273   7.835
    8AU     LIG 2998  35.603  11.306   8.023
    8AU     LIG 2999  35.199  11.121   8.008
    8AU     LIG 3000  34.980  11.114   7.628
    8AU       S 3001  36.616  12.481   7.877
    8AU     LIG 3002  36.194  12.610   7.868
    8AU     LIG 3003  35.825  12.647   8.121
    8AU     LIG 3004  35.800  12.848   8.546
    8AU       S 3005  37.202  12.667   7.872
    8AU     LIG 3006  37.451  12.693   8.259
    8AU     LIG 3007  37.434  13.134   8.316
    8AU     LIG 3008  37.051  13.351   8.175
    8AU       S 3009  37.334  12.826   7.747
    8AU     LIG 3010  36.987  13.127   7.662
    8AU     LIG 3011  36.927  13.590   7.724
    8AU     LIG 3012  36.960  13.855   8.119
    8AU       S 3013  37.181  12.611   7.024
    8AU     LIG 3014  37.227  13.003   7.231
    8AU     LIG 3015  37.273  13.443   7.337
    8AU     LIG 3016  37.346  13.829   7.105
    8AU       S 3017  37.690  12.235   8.360
    8AU     LIG 3018  37.939  12.653   8.526
    8AU     LIG 3019  38.164  12.824   8.902
    8AU     LIG 3020  38.376  12.566   9.231
    8AU       S 3021  37.478  12.645   7.520
    8AU     LIG 3022  37.647  13.103   7.506
    8AU     LIG 3023  37.439  13.353   7.826
    8AU     LIG 3024  37.454  13.683   8.154
    8AU       S 3025  37.080  10.356   8.088
    8AU     LIG 3026  37.394   9.981   8.138
    8AU     LIG 3027  37.334   9.622   8.436
    8AU     LIG 3028  37.101   9.391   8.766
    8AU       S 3029  37.655  10.678   7.982
    8AU     LIG 3030  37.719  10.311   7.807
    8AU     LIG 3031  37.985   9.979   7.832
    8AU     LIG 3032  38.329   9.717   7.994
    8AU       S 3033  36.867  10.294   7.935
    8AU     LIG 3034  36.831   9.923   7.733
    8AU     LIG 3035  37.019   9.630   7.987
    8AU     LIG 3036  36.857   9.385   8.315
    8AU       S 3037  36.658  10.937   8.493
    8AU     LIG 3038  36.423  10.709   8.840
    8AU     LIG 3039  36.127  10.369   8.757
    8AU     LIG 3040  35.726  10.170   8.878
    8AU       S 3041  37.321  10.364   7.271
    8AU     LIG 3042  36.991  10.027   7.242
    8AU     LIG 3043  36.983   9.781   6.883
    8AU     LIG 3044  36.986   9.387   6.685
    8AU       S 3045  37.228  10.390   7.876
    8AU     LIG 3046  37.314  10.033   7.637
    8AU     LIG 3047  37.574   9.696   7.677
    8AU     LIG 3048  37.538   9.453   8.013
    8AU       S 3049  37.021  12.523   6.745
    8AU     LIG 3050  36.997  13.005   6.758
    8AU     LIG 3051  37.273  13.399   6.803
    8AU     LIG 3052  37.341  13.843   6.574
    8AU       S 3053  37.802  12.360   7.090
    8AU     LIG 3054  38.247  12.526   6.973
    8AU     LIG 3055  38.432  12.725   6.577
    8AU     LIG 3056  38.461  13.154   6.376
    8AU       S 3057  36.840  12.532   7.017
    8AU     LIG 3058  36.729  12.929   7.188
    8AU     LIG 3059  36.821  13.382   7.101
    8AU     LIG 3060  36.892  13.732   6.779
    8AU       S 3061  36.380  11.930   6.631
    8AU     LIG 3062  36.406  12.317   6.400
    8AU     LIG 3063  36.397  12.752   6.215
    8AU     LIG 3064  36.227  13.124   6.000
    8AU       S 3065  36.414  10.654   7.143
    8AU     LIG 3066  35.971  10.525   7.084
    8AU     LIG 3067  35.785  10.133   6.887
    8AU     LIG 3068  35.797   9.798   6.582
    8AU       S 3069  37.319  10.390   7.116
    8AU     LIG 3070  37.449  10.274   6.717
    8AU     LIG 3071  37.435   9.931   6.433
    8AU     LIG 3072  37.195   9.579   6.250
    8AU       S 3073  37.574  10.495   7.370
    8AU     LIG 3074  37.736  10.072   7.350
    8AU     LIG 3075  37.445   9.783   7.173
    8AU     LIG 3076  37.459   9.565   6.781
    8AU       S 3077  37.883  10.887   6.713
    8AU     LIG 3078  37.568  10.719   6.469
    8AU     LIG 3079  37.560  10.357   6.168
    8AU     LIG 3080  37.775   9.944   6.036
    9AU     AUC 3081  13.129  35.085   7.539
    9AU     AUC 3082  13.383  35.079   7.376
    9AU     AUC 3083  13.370  35.079   7.712
    9AU     AUC 3084  12.864  35.087   7.380
    9AU     AUC 3085  12.883  35.134   7.702
    9AU     AUC 3086  12.972  35.346   7.498
    9AU     AUC 3087  13.308  35.341   7.505
    9AU     AUC 3088  12.955  34.838   7.559
    9AU     AUC 3089  13.286  34.814   7.564
    9AU     AUC 3090  13.123  34.938   7.810
    9AU     AUC 3091  13.136  35.279   7.773
    9AU     AUC 3092  13.125  34.900   7.296
    9AU     AUC 3093  13.145  35.204   7.269
    9AU     AUC 3094  13.698  35.068   7.227
    9AU     AUC 3095  13.696  35.058   7.567
    9AU     AUC 3096  13.658  35.059   7.921
    9AU     AUC 3097  12.566  35.050   7.238
    9AU     AUC 3098  12.556  35.132   7.558
    9AU     AUC 3099  12.584  35.194   7.873
    9AU     AUC 3100  12.817  35.655   7.432
    9AU     AUC 3101  13.174  35.637   7.423
    9AU     AUC 3102  13.508  35.619   7.466
    9AU     AUC 3103  12.758  34.549   7.580
    9AU     AUC 3104  13.105  34.523   7.562
    9AU     AUC 3105  13.457  34.512   7.578
    9AU     AUC 3106  13.090  34.784   8.120
    9AU     AUC 3107  13.112  35.130   8.102
    9AU     AUC 3108  13.168  35.487   8.056
    9AU     AUC 3109  13.165  34.705   7.018
    9AU     AUC 3110  13.116  35.035   6.964
    9AU     AUC 3111  13.107  35.351   6.947
    9AU     AUC 3112  13.363  34.884   8.029
    9AU     AUC 3113  13.405  35.240   8.008
    9AU     AUC 3114  13.438  34.912   7.084
    9AU     AUC 3115  13.399  35.216   7.088
    9AU     AUC 3116  12.832  35.021   8.016
    9AU     AUC 3117  12.876  35.368   7.956
    9AU     AUC 3118  12.852  34.860   7.116
    9AU     AUC 3119  12.810  35.179   7.074
    9AU     AUC 3120  13.627  35.344   7.367
    9AU     AUC 3121  13.568  35.325   7.705
    9AU     AUC 3122  12.671  35.360   7.366
    9AU     AUC 3123  12.720  35.454   7.687
    9AU     AUC 3124  13.593  34.802   7.424
    9AU     AUC 3125  13.535  34.760   7.765
    9AU     AUC 3126  12.663  34.781   7.404
    9AU     AUC 3127  12.685  34.874   7.736
    9AU     AUC 3128  13.036  35.598   7.750
    9AU     AUC 3129  13.342  35.551   7.778
    9AU     AUC 3130  12.930  34.668   7.844
    9AU     AUC 3131  13.237  34.605   7.838
    9AU     AUC 3132  12.946  35.499   7.184
    9AU     AUC 3133  13.311  35.517   7.208
    9AU     AUC 3134  12.975  34.611   7.286
    9AU     AUC 3135  13.344  34.649   7.293
    9AU    AUSL 3136  13.621  34.998   8.327
    9AU    AUSL 3137  13.378  34.608   8.253
    9AU     AUL 3138  13.676  34.652   8.429
    9AU    AUSL 3139  13.198  34.941   8.460
    9AU    AUSL 3140  12.967  35.349   8.442
    9AU     AUL 3141  13.182  35.239   8.729
    9AU    AUSL 3142  13.308  35.292   8.194
    9AU    AUSL 3143  13.761  35.366   8.137
    9AU     AUL 3144  13.573  35.303   8.464
    9AU    AUSL 3145  13.572  35.098   6.859
    9AU    AUSL 3146  13.413  35.487   6.985
    9AU     AUL 3147  13.669  35.424   6.714
    9AU    AUSL 3148  13.389  34.784   6.618
    9AU    AUSL 3149  13.886  34.847   7.011
    9AU     AUL 3150  13.763  34.936   6.675
    9AU    AUSL 3151  13.206  35.248   6.681
    9AU    AUSL 3152  13.023  34.862   6.829
    9AU     AUL 3153  13.131  34.915   6.496
    9AU    AUSL 3154  12.579  35.313   8.220
    9AU    AUSL 3155  12.943  35.610   8.097
    9AU     AUL 3156  12.764  35.585   8.411
    9AU    AUSL 3157  12.875  34.996   8.188
    9AU    AUSL 3158  12.446  34.885   8.144
    9AU     AUL 3159  12.400  35.102   8.297
    9AU    AUSL 3160  12.584  34.844   6.807
    9AU    AUSL 3161  12.825  34.516   6.990
    9AU     AUL 3162  12.869  34.556   6.671
    9AU    AUSL 3163  12.773  35.206   6.660
    9AU    AUSL 3164  12.488  35.211   7.034
    9AU     AUL 3165  12.368  35.049   6.785
    9AU    AUSL 3166  13.913  35.562   7.522
    9AU    AUSL 3167  13.800  35.319   7.148
    9AU     AUL 3168  14.122  35.528   7.162
    9AU    AUSL 3169  14.098  35.150   7.414
    9AU    AUSL 3170  14.046  34.847   7.786
    9AU     AUL 3171  14.343  34.903   7.563
    9AU    AUSL 3172  13.813  35.202   7.752
    9AU    AUSL 3173  13.575  35.593   7.796
    9AU     AUL 3174  13.902  35.587   7.869
    9AU    AUSL 3175  12.567  35.741   7.473
    9AU    AUSL 3176  12.598  35.510   7.841
    9AU     AUL 3177  12.291  35.763   7.677
    9AU    AUSL 3178  12.375  35.345   7.423
    9AU    AUSL 3179  12.514  35.643   7.061
    9AU     AUL 3180  12.279  35.574   7.213
    9AU    AUSL 3181  12.218  35.329   7.853
    9AU    AUSL 3182  12.194  34.959   7.377
    9AU     AUL 3183  12.047  35.298   7.536
    9AU    AUSL 3184  13.809  34.501   7.642
    9AU    AUSL 3185  13.646  34.795   7.951
    9AU     AUL 3186  13.947  34.681   8.019
    9AU    AUSL 3187  13.777  34.871   7.420
    9AU    AUSL 3188  13.770  34.459   7.210
    9AU     AUL 3189  14.020  34.667   7.295
    9AU    AUSL 3190  12.365  34.588   7.595
    9AU    AUSL 3191  12.553  34.780   7.226
    9AU     AUL 3192  12.190  34.673   7.268
    9AU    AUSL 3193  12.454  34.997   7.731
    9AU    AUSL 3194  12.682  34.628   7.884
    9AU     AUL 3195  12.364  34.609   7.926
    9AU    AUSL 3196  13.217  35.896   7.913
    9AU    AUSL 3197  12.765  35.917   7.821
    9AU     AUL 3198  12.986  35.950   8.168
    9AU    AUSL 3199  13.046  35.787   7.530
    9AU    AUSL 3200  13.292  35.897   7.182
    9AU     AUL 3201  13.046  36.133   7.473
    9AU    AUSL 3202  13.488  35.938   7.565
    9AU    AUSL 3203  13.452  35.691   8.206
    9AU     AUL 3204  13.582  35.938   7.932
    9AU    AUSL 3205  13.060  34.442   8.006
    9AU    AUSL 3206  13.485  34.387   7.894
    9AU     AUL 3207  13.235  34.325   8.260
    9AU    AUSL 3208  12.747  34.234   7.737
    9AU    AUSL 3209  12.812  34.602   8.317
    9AU     AUL 3210  12.737  34.313   8.084
    9AU    AUSL 3211  13.185  34.146   7.707
    9AU    AUSL 3212  12.979  34.395   7.403
    9AU     AUL 3213  12.888  34.033   7.508
    9AU    AUSL 3214  13.121  35.730   6.787
    9AU    AUSL 3215  13.688  35.742   7.204
    9AU     AUL 3216  13.434  35.821   6.876
    9AU    AUSL 3217  12.867  35.864   7.143
    9AU    AUSL 3218  12.889  35.436   6.993
    9AU     AUL 3219  12.790  35.714   6.792
    9AU    AUSL 3220  13.207  34.318   7.026
    9AU    AUSL 3221  12.569  34.340   7.304
    9AU     AUL 3222  12.863  34.196   7.069
    9AU    AUSL 3223  13.413  34.373   7.422
    9AU    AUSL 3224  13.441  34.681   7.029
    9AU     AUL 3225  13.523  34.306   7.037
    9AU       S 3226  13.675  34.190   8.303
    9AU     LIG 3227  13.929  33.775   8.353
    9AU     LIG 3228  13.984  33.311   8.331
    9AU     LIG 3229  13.870  33.022   8.654
    9AU       S 3230  13.555  34.932   8.778
    9AU     LIG 3231  13.910  35.196   8.851
    9AU     LIG 3232  14.141  35.192   9.259
    9AU     LIG 3233  14.203  34.986   9.690
    9AU       S 3234  13.204  34.766   8.667
    9AU     LIG 3235  13.198  34.789   9.128
    9AU     LIG 3236  13.571  34.755   9.432
    9AU     LIG 3237  13.879  34.567   9.759
    9AU       S 3238  12.739  35.149   8.649
    9AU     LIG 3239  12.801  35.141   9.103
    9AU     LIG 3240  12.471  35.111   9.406
    9AU     LIG 3241  12.223  35.261   9.764
    9AU       S 3242  13.223  35.701   8.597
    9AU     LIG 3243  13.490  36.051   8.733
    9AU     LIG 3244  13.905  35.875   8.810
    9AU     LIG 3245  14.232  35.607   8.931
    9AU       S 3246  13.960  35.538   8.338
    9AU     LIG 3247  14.356  35.708   8.435
    9AU     LIG 3248  14.371  36.072   8.669
    9AU     LIG 3249  14.576  36.310   9.001
    9AU       S 3250  13.533  35.194   6.338
    9AU     LIG 3251  13.845  35.220   5.993
    9AU     LIG 3252  14.075  34.863   5.840
    9AU     LIG 3253  13.954  34.534   5.543
    9AU       S 3254  13.867  35.864   6.770
    9AU     LIG 3255  14.044  36.201   6.515
    9AU     LIG 3256  14.347  36.289   6.186
    9AU     LIG 3257  14.613  36.495   5.875
    9AU       S 3258  14.069  34.599   6.815
    9AU     LIG 3259  14.068  34.543   6.321
    9AU     LIG 3260  14.061  34.106   6.150
    9AU     LIG 3261  14.138  33.637   6.215
    9AU       S 3262  13.519  34.985   6.272
    9AU     LIG 3263  13.608  34.669   5.963
    9AU     LIG 3264  13.440  34.588   5.525
    9AU     LIG 3265  13.617  34.717   5.109
    9AU       S 3266  12.706  34.859   6.338
    9AU     LIG 3267  12.736  34.914   5.908
    9AU     LIG 3268  12.921  34.747   5.546
    9AU     LIG 3269  12.895  34.735   5.098
    9AU       S 3270  13.289  35.352   6.443
    9AU     LIG 3271  13.076  35.239   6.089
    9AU     LIG 3272  13.305  35.040   5.767
    9AU     LIG 3273  13.702  35.031   5.523
    9AU       S 3274  12.537  35.284   8.696
    9AU     LIG 3275  12.280  34.945   8.815
    9AU     LIG 3276  12.226  34.703   9.178
    9AU     LIG 3277  12.177  34.742   9.632
    9AU       S 3278  12.509  35.912   8.196
    9AU     LIG 3279  12.282  36.188   8.427
    9AU     LIG 3280  11.983  36.298   8.743
    9AU     LIG 3281  11.877  36.131   9.175
    9AU       S 3282  12.323  34.654   8.405
    9AU     LIG 3283  11.907  34.559   8.198
    9AU     LIG 3284  11.691  34.174   8.311
    9AU     LIG 3285  11.538  33.976   8.718
    9AU       S 3286  12.736  34.973   8.598
    9AU     LIG 3287  12.710  34.676   8.945
    9AU     LIG 3288  12.698  34.650   9.405
    9AU     LIG 3289  12.636  34.826   9.841
    9AU       S 3290  12.524  34.787   6.442
    9AU     LIG 3291  12.282  34.681   6.095
    9AU     LIG 3292  12.336  34.718   5.647
    9AU     LIG 3293  12.491  35.025   5.374
    9AU       S 3294  12.480  34.342   6.822
    9AU     LIG 3295  12.296  34.029   6.546
    9AU     LIG 3296  11.983  33.964   6.210
    9AU     LIG 3297  11.529  33.995   6.054
    9AU       S 3298  12.220  35.473   6.718
    9AU     LIG 3299  11.901  35.732   6.675
    9AU     LIG 3300  11.926  36.163   6.639
    9AU     LIG 3301  11.807  36.454   6.304
    9AU       S 3302  12.709  35.143   6.443
    9AU     LIG 3303  12.437  35.273   6.152
    9AU     LIG 3304  12.594  35.384   5.740
    9AU     LIG 3305  12.944  35.258   5.459
    9AU       S 3306  13.966  35.764   6.817
    9AU     LIG 3307  14.397  35.805   6.803
    9AU     LIG 3308  14.526  35.838   6.382
    9AU     LIG 3309  14.639  35.937   5.940
    9AU       S 3310  14.271  35.585   7.603
    9AU     LIG 3311  14.466  35.952   7.578
    9AU     LIG 3312  14.897  35.987   7.627
    9AU     LIG 3313  15.349  35.923   7.648
    9AU       S 3314  14.360  35.368   7.558
    9AU     LIG 3315  14.669  35.611   7.263
    9AU     LIG 3316  15.105  35.784   7.196
    9AU     LIG 3317  15.573  35.877   7.197
    9AU       S 3318  14.287  34.478   7.778
    9AU     LIG 3319  14.664  34.260   7.963
    9AU     LIG 3320  15.122  34.300   7.938
    9AU     LIG 3321  15.389  34.545   7.640
    9AU       S 3322  13.905  35.815   8.263
    9AU     LIG 3323  14.199  36.007   8.031
    9AU     LIG 3324  14.385  36.380   8.201
    9AU     LIG 3325  14.401  36.587   8.592
    9AU       S 3326  14.242  35.286   7.857
    9AU     LIG 3327  14.588  35.607   7.971
    9AU     LIG 3328  15.039  35.577   7.894
    9AU     LIG 3329  15.482  35.538   7.991
    9AU       S 3330  12.419  35.732   8.114
    9AU     LIG 3331  12.194  35.618   8.462
    9AU     LIG 3332  11.814  35.840   8.540
    9AU     LIG 3333  11.525  36.071   8.809
    9AU       S 3334  12.519  36.062   7.387
    9AU     LIG 3335  12.280  36.390   7.405
    9AU     LIG 3336  11.919  36.362   7.150
    9AU     LIG 3337  11.814  35.917   7.138
    9AU       S 3338  11.986  35.235   7.067
    9AU     LIG 3339  11.564  35.111   6.945
    9AU     LIG 3340  11.230  35.316   7.135
    9AU     LIG 3341  11.312  35.752   7.135
    9AU       S 3342  12.370  35.907   6.881
    9AU     LIG 3343  12.351  36.375   6.863
    9AU     LIG 3344  12.001  36.691   6.745
    9AU     LIG 3345  11.630  36.887   6.499
    9AU       S 3346  11.972  34.855   7.663
    9AU     LIG 3347  11.634  34.907   7.397
    9AU     LIG 3348  11.178  34.827   7.318
    9AU     LIG 3349  10.811  34.994   7.067
    9AU       S 3350  12.098  35.375   8.017
    9AU     LIG 3351  11.760  35.388   8.281
    9AU     LIG 3352  11.337  35.528   8.200
    9AU     LIG 3353  10.924  35.468   8.019
    9AU       S 3354  13.964  34.336   7.657
    9AU     LIG 3355  14.101  33.933   7.520
    9AU     LIG 3356  14.493  33.866   7.684
    9AU     LIG 3357  14.860  34.088   7.513
    9AU       S 3358  13.840  34.269   8.165
    9AU     LIG 3359  14.195  34.071   8.040
    9AU     LIG 3360  14.508  33.788   8.213
    9AU     LIG 3361  14.438  33.489   8.579
    9AU       S 3362  14.258  34.413   7.582
    9AU     LIG 3363  14.437  34.202   7.225
    9AU     LIG 3364  14.868  34.235   7.032
    9AU     LIG 3365  15.309  34.292   7.197
    9AU       S 3366  13.988  34.340   6.946
    9AU     LIG 3367  14.009  33.956   6.702
    9AU     LIG 3368  13.929  33.487   6.667
    9AU     LIG 3369  13.886  33.166   6.322
    9AU       S 3370  12.340  34.462   6.891
    9AU     LIG 3371  12.043  34.476   6.557
    9AU     LIG 3372  11.662  34.208   6.520
    9AU     LIG 3373  11.374  33.838   6.523
    9AU       S 3374  11.968  34.650   7.697
    9AU     LIG 3375  11.802  34.294   7.738
    9AU     LIG 3376  11.478  34.413   7.474
    9AU     LIG 3377  11.062  34.337   7.536
    9AU       S 3378  12.367  34.424   8.344
    9AU     LIG 3379  12.174  34.124   8.089
    9AU     LIG 3380  11.915  33.738   8.145
    9AU     LIG 3381  11.960  33.300   8.210
    9AU       S 3382  12.024  34.906   7.837
    9AU     LIG 3383  11.622  35.155   7.844
    9AU     LIG 3384  11.338  34.797   7.817
    9AU     LIG 3385  11.350  34.367   7.978
    9AU       S 3386  12.636  36.107   7.870
    9AU     LIG 3387  12.188  36.218   7.906
    9AU     LIG 3388  11.835  36.279   8.195
    9AU     LIG 3389  11.570  36.512   8.496
    9AU       S 3390  13.235  36.243   7.893
    9AU     LIG 3391  13.474  36.485   8.235
    9AU     LIG 3392  13.364  36.900   8.436
    9AU     LIG 3393  13.009  37.219   8.557
    9AU       S 3394  13.347  36.385   7.760
    9AU     LIG 3395  12.948  36.584   7.667
    9AU     LIG 3396  12.858  36.986   7.729
    9AU     LIG 3397  12.859  37.254   8.053
    9AU       S 3398  13.213  36.207   7.036
    9AU     LIG 3399  13.236  36.617   7.247
    9AU     LIG 3400  13.411  37.047   7.196
    9AU     LIG 3401  13.738  37.294   6.944
    9AU       S 3402  13.680  35.782   8.373
    9AU     LIG 3403  13.897  36.253   8.460
    9AU     LIG 3404  14.011  36.372   8.875
    9AU     LIG 3405  14.157  36.089   9.211
    9AU       S 3406  13.513  36.212   7.543
    9AU     LIG 3407  13.669  36.668   7.571
    9AU     LIG 3408  13.377  36.920   7.910
    9AU     LIG 3409  13.334  37.348   8.177
    9AU       S 3410  13.031  33.938   8.106
    9AU     LIG 3411  13.427  33.717   8.240
    9AU     LIG 3412  13.466  33.271   8.356
    9AU     LIG 3413  13.125  32.974   8.272
    9AU       S 3414  13.615  34.225   7.992
    9AU     LIG 3415  13.764  33.849   7.870
    9AU     LIG 3416  14.135  33.576   7.924
    9AU     LIG 3417  14.469  33.272   8.124
    9AU       S 3418  12.830  33.871   7.942
    9AU     LIG 3419  12.871  33.450   7.757
    9AU     LIG 3420  12.774  33.023   7.877
    9AU     LIG 3421  12.639  32.789   8.245
    9AU       S 3422  12.595  34.533   8.486
    9AU     LIG 3423  12.318  34.332   8.817
    9AU     LIG 3424  12.064  33.983   8.626
    9AU     LIG 3425  12.082  33.526   8.662
    9AU       S 3426  13.299  33.926   7.314
    9AU     LIG 3427  13.175  33.472   7.284
    9AU     LIG 3428  13.134  33.127   6.997
    9AU     LIG 3429  12.966  32.711   7.047
    9AU       S 3430  13.180  33.980   7.884
    9AU     LIG 3431  13.338  33.633   7.735
    9AU     LIG 3432  13.631  33.345   7.881
    9AU     LIG 3433  13.546  32.899   7.977
    9AU       S 3434  13.067  36.108   6.753
    9AU     LIG 3435  12.973  36.571   6.756
    9AU     LIG 3436  13.108  37.012   6.756
    9AU     LIG 3437  13.405  37.323   6.534
    9AU       S 3438  13.841  35.927   7.120
    9AU     LIG 3439  14.199  36.223   7.006
    9AU     LIG 3440  14.523  36.311   6.665
    9AU     LIG 3441  14.685  36.658   6.373
    9AU       S 3442  12.875  36.127   7.022
    9AU     LIG 3443  12.730  36.513   7.195
    9AU     LIG 3444  12.581  36.880   6.930
    9AU     LIG 3445  12.664  37.311   6.758
    9AU       S 3446  12.416  35.522   6.624
    9AU     LIG 3447  12.305  35.880   6.373
    9AU     LIG 3448  12.316  36.344   6.343
    9AU     LIG 3449  12.208  36.799   6.268
    9AU       S 3450  12.385  34.264   7.115
    9AU     LIG 3451  11.973  34.096   6.938
    9AU     LIG 3452  11.848  33.723   6.658
    9AU     LIG 3453  11.680  33.531   6.242
    9AU       S 3454  13.259  33.957   7.171
    9AU     LIG 3455  13.524  33.792   6.850
    9AU     LIG 3456  13.414  33.421   6.565
    9AU     LIG 3457  13.212  32.973   6.485
    9AU       S 3458  13.554  34.046   7.432
    9AU     LIG 3459  13.701  33.618   7.372
    9AU     LIG 3460  13.613  33.324   7.049
    9AU     LIG 3461  13.638  33.011   6.743
    9AU       S 3462  13.790  34.476   6.715
    9AU     LIG 3463  13.633  34.242   6.431
    9AU     LIG 3464  13.666  33.818   6.341
    9AU     LIG 3465  13.595  33.495   6.066
   10AU     AUC 3466   2.642  10.761   7.518
   10AU     AUC 3467   2.890  10.753   7.354
   10AU     AUC 3468   2.883  10.756   7.687
   10AU     AUC 3469   2.374  10.762   7.364
   10AU     AUC 3470   2.399  10.809   7.685
   10AU     AUC 3471   2.484  11.022   7.480
   10AU     AUC 3472   2.821  11.018   7.481
   10AU     AUC 3473   2.467  10.513   7.541
   10AU     AUC 3474   2.799  10.488   7.540
   10AU     AUC 3475   2.641  10.613   7.788
   10AU     AUC 3476   2.654  10.955   7.753
   10AU     AUC 3477   2.632  10.576   7.275
   10AU     AUC 3478   2.650  10.878   7.248
   10AU     AUC 3479   3.202  10.741   7.200
   10AU     AUC 3480   3.206  10.731   7.544
   10AU     AUC 3481   3.174  10.734   7.893
   10AU     AUC 3482   2.071  10.726   7.229
   10AU     AUC 3483   2.070  10.808   7.549
   10AU     AUC 3484   2.106  10.870   7.863
   10AU     AUC 3485   2.330  11.331   7.415
   10AU     AUC 3486   2.686  11.311   7.398
   10AU     AUC 3487   3.020  11.294   7.435
   10AU     AUC 3488   2.272  10.223   7.566
   10AU     AUC 3489   2.620  10.198   7.536
   10AU     AUC 3490   2.972  10.186   7.548
   10AU     AUC 3491   2.611  10.457   8.097
   10AU     AUC 3492   2.636  10.807   8.082
   10AU     AUC 3493   2.698  11.163   8.033
   10AU     AUC 3494   2.664  10.386   6.995
   10AU     AUC 3495   2.619  10.709   6.941
   10AU     AUC 3496   2.607  11.022   6.926
   10AU     AUC 3497   2.880  10.563   8.006
   10AU     AUC 3498   2.930  10.922   7.981
   10AU     AUC 3499   2.943  10.593   7.054
   10AU     AUC 3500   2.900  10.887   7.059
   10AU     AUC 3501   2.354  10.693   7.998
   10AU     AUC 3502   2.398  11.043   7.939
   10AU     AUC 3503   2.352  10.534   7.100
   10AU     AUC 3504   2.312  10.853   7.060
   10AU     AUC 3505   3.128  11.019   7.337
   10AU     AUC 3506   3.085  11.008   7.676
   10AU     AUC 3507   2.181  11.037   7.354
   10AU     AUC 3508   2.239  11.131   7.674
   10AU     AUC 3509   3.106  10.479   7.401
   10AU     AUC 3510   3.047  10.433   7.739
   10AU     AUC 3511   2.172  10.457   7.393
   10AU     AUC 3512   2.202  10.547   7.723
   10AU     AUC 3513   2.556  11.273   7.729
   10AU     AUC 3514   2.863  11.225   7.750
   10AU     AUC 3515   2.449  10.341   7.824
   10AU     AUC 3516   2.752  10.276   7.811
   10AU     AUC 3517   2.451  11.174   7.165
   10AU     AUC 3518   2.816  11.193   7.178
   10AU     AUC 3519   2.482  10.288   7.265
   10AU     AUC 3520   2.855  10.330   7.266
   10AU    AUSL 3521   3.147  10.672   8.300
   10AU    AUSL 3522   2.889  10.284   8.226
   10AU     AUL 3523   3.185  10.321   8.405
   10AU    AUSL 3524   2.729  10.623   8.440
   10AU    AUSL 3525   2.497  11.024   8.423
   10AU     AUL 3526   2.722  10.924   8.704
   10AU    AUSL 3527   2.837  10.975   8.172
   10AU    AUSL 3528   3.292  11.034   8.105
   10AU     AUL 3529   3.113  10.979   8.434
   10AU    AUSL 3530   3.090  10.781   6.801
   10AU    AUSL 3531   2.911  11.154   6.953
   10AU     AUL 3532   3.174  11.100   6.684
   10AU    AUSL 3533   2.873  10.458   6.594
   10AU    AUSL 3534   3.395  10.536   6.983
   10AU     AUL 3535   3.248  10.577   6.631
   10AU    AUSL 3536   2.699  10.911   6.662
   10AU    AUSL 3537   2.512  10.530   6.814
   10AU     AUL 3538   2.618  10.582   6.471
   10AU    AUSL 3539   2.106  10.988   8.207
   10AU    AUSL 3540   2.468  11.287   8.080
   10AU     AUL 3541   2.295  11.264   8.393
   10AU    AUSL 3542   2.402  10.671   8.171
   10AU    AUSL 3543   1.974  10.558   8.137
   10AU     AUL 3544   1.931  10.771   8.289
   10AU    AUSL 3545   2.070  10.519   6.800
   10AU    AUSL 3546   2.311  10.184   6.970
   10AU     AUL 3547   2.354  10.232   6.654
   10AU    AUSL 3548   2.265  10.877   6.648
   10AU    AUSL 3549   1.989  10.887   7.029
   10AU     AUL 3550   1.862  10.741   6.779
   10AU    AUSL 3551   3.427  11.232   7.471
   10AU    AUSL 3552   3.273  10.973   7.140
   10AU     AUL 3553   3.527  11.077   7.010
   10AU    AUSL 3554   3.611  10.827   7.382
   10AU    AUSL 3555   3.551  10.523   7.766
   10AU     AUL 3556   3.790  10.733   7.732
   10AU    AUSL 3557   3.324  10.878   7.712
   10AU    AUSL 3558   3.114  11.272   7.766
   10AU     AUL 3559   3.488  11.165   7.831
   10AU    AUSL 3560   2.082  11.419   7.461
   10AU    AUSL 3561   2.118  11.190   7.830
   10AU     AUL 3562   1.813  11.439   7.672
   10AU    AUSL 3563   1.886  11.023   7.421
   10AU    AUSL 3564   2.018  11.319   7.051
   10AU     AUL 3565   1.786  11.251   7.209
   10AU    AUSL 3566   1.740  11.004   7.855
   10AU    AUSL 3567   1.704  10.637   7.374
   10AU     AUL 3568   1.565  10.978   7.542
   10AU    AUSL 3569   3.320  10.177   7.611
   10AU    AUSL 3570   3.154  10.469   7.924
   10AU     AUL 3571   3.453  10.348   8.001
   10AU    AUSL 3572   3.288  10.549   7.394
   10AU    AUSL 3573   3.288  10.144   7.178
   10AU     AUL 3574   3.546  10.364   7.282
   10AU    AUSL 3575   1.871  10.265   7.591
   10AU    AUSL 3576   2.059  10.455   7.219
   10AU     AUL 3577   1.699  10.352   7.262
   10AU    AUSL 3578   1.970  10.672   7.724
   10AU    AUSL 3579   2.200  10.299   7.869
   10AU     AUL 3580   1.875  10.299   7.925
   10AU    AUSL 3581   2.747  11.558   7.886
   10AU    AUSL 3582   2.292  11.594   7.805
   10AU     AUL 3583   2.523  11.626   8.149
   10AU    AUSL 3584   2.563  11.463   7.505
   10AU    AUSL 3585   2.799  11.571   7.150
   10AU     AUL 3586   2.571  11.807   7.439
   10AU    AUSL 3587   3.004  11.610   7.530
   10AU    AUSL 3588   2.998  11.370   8.177
   10AU     AUL 3589   3.134  11.593   7.876
   10AU    AUSL 3590   2.579  10.107   7.980
   10AU    AUSL 3591   3.003  10.059   7.869
   10AU     AUL 3592   2.759   9.994   8.236
   10AU    AUSL 3593   2.270   9.907   7.716
   10AU    AUSL 3594   2.344  10.275   8.297
   10AU     AUL 3595   2.256   9.986   8.063
   10AU    AUSL 3596   2.710   9.821   7.669
   10AU    AUSL 3597   2.492  10.072   7.374
   10AU     AUL 3598   2.410   9.716   7.489
   10AU    AUSL 3599   2.620  11.402   6.762
   10AU    AUSL 3600   3.190  11.408   7.164
   10AU     AUL 3601   2.950  11.496   6.840
   10AU    AUSL 3602   2.373  11.538   7.122
   10AU    AUSL 3603   2.391  11.110   6.975
   10AU     AUL 3604   2.293  11.379   6.769
   10AU    AUSL 3605   2.711  10.023   6.983
   10AU    AUSL 3606   2.076  10.015   7.303
   10AU     AUL 3607   2.374   9.871   7.050
   10AU    AUSL 3608   2.925  10.053   7.377
   10AU    AUSL 3609   2.959  10.375   7.003
   10AU     AUL 3610   3.037  10.035   6.959
   10AU       S 3611   3.206   9.873   8.265
   10AU     LIG 3612   3.290   9.421   8.293
   10AU     LIG 3613   3.372   9.105   8.617
   10AU     LIG 3614   3.673   8.758   8.678
   10AU       S 3615   3.094  10.614   8.752
   10AU     LIG 3616   3.516  10.702   8.835
   10AU     LIG 3617   3.680  10.736   9.264
   10AU     LIG 3618   3.505  10.756   9.706
   10AU       S 3619   2.739  10.450   8.647
   10AU     LIG 3620   2.743  10.477   9.102
   10AU     LIG 3621   3.095  10.497   9.423
   10AU     LIG 3622   3.353  10.269   9.737
   10AU       S 3623   2.280  10.828   8.630
   10AU     LIG 3624   2.359  10.821   9.065
   10AU     LIG 3625   1.988  10.715   9.268
   10AU     LIG 3626   1.773  10.868   9.648
   10AU       S 3627   2.758  11.381   8.560
   10AU     LIG 3628   3.052  11.665   8.761
   10AU     LIG 3629   3.487  11.548   8.826
   10AU     LIG 3630   3.728  11.174   8.920
   10AU       S 3631   3.474  11.248   8.299
   10AU     LIG 3632   3.875  11.286   8.438
   10AU     LIG 3633   3.990  11.624   8.712
   10AU     LIG 3634   4.366  11.865   8.836
   10AU       S 3635   3.017  10.875   6.315
   10AU     LIG 3636   3.450  10.927   6.243
   10AU     LIG 3637   3.599  10.565   6.012
   10AU     LIG 3638   3.429  10.146   5.884
   10AU       S 3639   3.401  11.502   6.762
   10AU     LIG 3640   3.205  11.823   6.515
   10AU     LIG 3641   3.371  12.040   6.138
   10AU     LIG 3642   3.744  12.050   5.861
   10AU       S 3643   3.617  10.324   6.816
   10AU     LIG 3644   3.823  10.146   6.454
   10AU     LIG 3645   3.683   9.800   6.202
   10AU     LIG 3646   3.811   9.369   6.228
   10AU       S 3647   2.997  10.694   6.242
   10AU     LIG 3648   2.958  10.302   6.090
   10AU     LIG 3649   2.946  10.127   5.672
   10AU     LIG 3650   3.221  10.111   5.290
   10AU       S 3651   2.181  10.537   6.329
   10AU     LIG 3652   2.433  10.322   6.049
   10AU     LIG 3653   2.440  10.217   5.605
   10AU     LIG 3654   2.282  10.489   5.285
   10AU       S 3655   2.773  11.024   6.422
   10AU     LIG 3656   2.528  10.854   6.056
   10AU     LIG 3657   2.729  10.627   5.734
   10AU     LIG 3658   3.186  10.577   5.679
   10AU       S 3659   2.071  10.967   8.681
   10AU     LIG 3660   1.782  10.671   8.762
   10AU     LIG 3661   1.679  10.351   9.017
   10AU     LIG 3662   1.605  10.411   9.458
   10AU       S 3663   2.042  11.593   8.183
   10AU     LIG 3664   1.849  11.797   8.504
   10AU     LIG 3665   1.568  11.692   8.833
   10AU     LIG 3666   1.159  11.808   9.010
   10AU       S 3667   1.864  10.321   8.414
   10AU     LIG 3668   1.444  10.259   8.205
   10AU     LIG 3669   1.193   9.893   8.083
   10AU     LIG 3670   0.980   9.491   8.234
   10AU       S 3671   2.268  10.645   8.585
   10AU     LIG 3672   2.199  10.361   8.927
   10AU     LIG 3673   2.064  10.186   9.319
   10AU     LIG 3674   2.075  10.435   9.690
   10AU       S 3675   1.991  10.449   6.446
   10AU     LIG 3676   1.921  10.151   6.114
   10AU     LIG 3677   1.970  10.374   5.728
   10AU     LIG 3678   1.837  10.733   5.508
   10AU       S 3679   1.979  10.020   6.837
   10AU     LIG 3680   1.979   9.633   6.645
   10AU     LIG 3681   1.770   9.627   6.248
   10AU     LIG 3682   1.456   9.847   6.023
   10AU       S 3683   1.692  11.162   6.727
   10AU     LIG 3684   1.403  11.487   6.845
   10AU     LIG 3685   1.408  11.801   6.532
   10AU     LIG 3686   1.433  11.799   6.079
   10AU       S 3687   2.195  10.812   6.433
   10AU     LIG 3688   1.888  10.955   6.174
   10AU     LIG 3689   1.996  11.136   5.784
   10AU     LIG 3690   2.328  10.949   5.519
   10AU       S 3691   3.598  11.513   6.953
   10AU     LIG 3692   3.755  11.253   6.554
   10AU     LIG 3693   3.824  11.500   6.166
   10AU     LIG 3694   4.151  11.819   6.081
   10AU       S 3695   3.673  11.319   7.412
   10AU     LIG 3696   3.779  11.638   7.724
   10AU     LIG 3697   4.248  11.754   7.792
   10AU     LIG 3698   4.659  11.677   7.552
   10AU       S 3699   3.861  11.013   7.345
   10AU     LIG 3700   4.277  11.230   7.280
   10AU     LIG 3701   4.710  11.353   7.111
   10AU     LIG 3702   5.168  11.491   7.023
   10AU       S 3703   3.799  10.242   7.708
   10AU     LIG 3704   4.020   9.909   7.956
   10AU     LIG 3705   4.452   9.905   8.054
   10AU     LIG 3706   4.829  10.087   7.929
   10AU       S 3707   3.484  11.492   8.158
   10AU     LIG 3708   3.865  11.749   8.221
   10AU     LIG 3709   4.038  12.102   8.483
   10AU     LIG 3710   4.116  12.326   8.894
   10AU       S 3711   3.877  11.171   7.585
   10AU     LIG 3712   4.099  11.284   7.939
   10AU     LIG 3713   4.563  11.320   7.913
   10AU     LIG 3714   4.899  11.010   7.955
   10AU       S 3715   1.940  11.411   8.110
   10AU     LIG 3716   1.682  11.302   8.456
   10AU     LIG 3717   1.241  11.420   8.539
   10AU     LIG 3718   0.839  11.629   8.636
   10AU       S 3719   2.020  11.744   7.367
   10AU     LIG 3720   1.744  12.123   7.372
   10AU     LIG 3721   1.308  12.186   7.175
   10AU     LIG 3722   1.048  11.983   6.829
   10AU       S 3723   1.480  10.912   7.078
   10AU     LIG 3724   1.019  10.935   7.085
   10AU     LIG 3725   0.792  11.287   7.208
   10AU     LIG 3726   0.856  11.722   7.231
   10AU       S 3727   1.890  11.584   6.875
   10AU     LIG 3728   1.756  12.018   6.868
   10AU     LIG 3729   1.444  12.294   6.684
   10AU     LIG 3730   1.152  12.226   6.335
   10AU       S 3731   1.469  10.531   7.645
   10AU     LIG 3732   1.173  10.491   7.300
   10AU     LIG 3733   0.727  10.482   7.112
   10AU     LIG 3734   0.248  10.504   7.087
   10AU       S 3735   1.618  11.040   8.027
   10AU     LIG 3736   1.203  11.018   8.200
   10AU     LIG 3737   0.835  11.306   8.216
   10AU     LIG 3738   0.909  11.750   8.138
   10AU       S 3739   3.487  10.031   7.626
   10AU     LIG 3740   3.556   9.673   7.436
   10AU     LIG 3741   3.985   9.571   7.560
   10AU     LIG 3742   4.301   9.419   7.867
   10AU       S 3743   3.384   9.914   8.097
   10AU     LIG 3744   3.647   9.550   7.957
   10AU     LIG 3745   3.800   9.251   8.292
   10AU     LIG 3746   3.843   9.250   8.772
   10AU       S 3747   3.776  10.112   7.575
   10AU     LIG 3748   3.959   9.963   7.223
   10AU     LIG 3749   4.403   9.955   7.080
   10AU     LIG 3750   4.642  10.310   6.906
   10AU       S 3751   3.519  10.025   6.950
   10AU     LIG 3752   3.618   9.657   6.711
   10AU     LIG 3753   3.592   9.198   6.678
   10AU     LIG 3754   3.534   8.929   6.310
   10AU       S 3755   1.834  10.128   6.890
   10AU     LIG 3756   1.599  10.067   6.521
   10AU     LIG 3757   1.266   9.798   6.503
   10AU     LIG 3758   1.119   9.462   6.248
   10AU       S 3759   1.474  10.295   7.688
   10AU     LIG 3760   1.052  10.124   7.638
   10AU     LIG 3761   0.857   9.935   7.246
   10AU     LIG 3762   0.459  10.039   6.997
   10AU       S 3763   1.896  10.090   8.334
   10AU     LIG 3764   1.755   9.811   7.981
   10AU     LIG 3765   1.466   9.445   8.013
   10AU     LIG 3766   1.416   9.218   8.381
   10AU       S 3767   1.527  10.580   7.824
   10AU     LIG 3768   1.078  10.564   7.957
   10AU     LIG 3769   0.665  10.410   7.876
   10AU     LIG 3770   0.547  10.213   7.507
   10AU       S 3771   2.184  11.765   7.841
   10AU     LIG 3772   1.782  11.902   7.868
   10AU     LIG 3773   1.471  11.716   8.160
   10AU     LIG 3774   1.244  11.937   8.502
   10AU       S 3775   2.788  11.908   7.877
   10AU     LIG 3776   2.911  12.278   8.166
   10AU     LIG 3777   2.646  12.613   8.381
   10AU     LIG 3778   2.462  12.983   8.586
   10AU       S 3779   2.633  12.044   7.839
   10AU     LIG 3780   2.384  12.258   8.048
   10AU     LIG 3781   2.408  12.655   7.932
   10AU     LIG 3782   2.300  13.004   8.111
   10AU       S 3783   2.711  11.873   6.991
   10AU     LIG 3784   2.697  12.259   7.205
   10AU     LIG 3785   2.850  12.685   7.174
   10AU     LIG 3786   3.040  13.045   6.986
   10AU       S 3787   3.223  11.463   8.337
   10AU     LIG 3788   3.413  11.889   8.453
   10AU     LIG 3789   3.652  12.050   8.815
   10AU     LIG 3790   3.919  11.897   9.151
   10AU       S 3791   2.969  11.973   7.627
   10AU     LIG 3792   2.852  12.447   7.657
   10AU     LIG 3793   2.912  12.754   7.968
   10AU     LIG 3794   2.907  13.094   8.285
   10AU       S 3795   2.558   9.607   8.071
   10AU     LIG 3796   2.880   9.211   8.088
   10AU     LIG 3797   2.969   8.837   8.386
   10AU     LIG 3798   2.676   8.562   8.652
   10AU       S 3799   3.138   9.901   7.963
   10AU     LIG 3800   3.173   9.522   7.768
   10AU     LIG 3801   3.329   9.100   7.797
   10AU     LIG 3802   3.446   8.887   8.174
   10AU       S 3803   2.345   9.550   7.916
   10AU     LIG 3804   2.408   9.130   7.958
   10AU     LIG 3805   2.434   8.885   8.302
   10AU     LIG 3806   2.383   8.445   8.224
   10AU       S 3807   2.132  10.199   8.470
   10AU     LIG 3808   1.917   9.920   8.805
   10AU     LIG 3809   1.729   9.463   8.775
   10AU     LIG 3810   1.625   9.001   8.781
   10AU       S 3811   2.780   9.628   7.234
   10AU     LIG 3812   2.411   9.353   7.123
   10AU     LIG 3813   2.508   8.938   6.988
   10AU     LIG 3814   2.824   8.691   7.163
   10AU       S 3815   2.700   9.645   7.867
   10AU     LIG 3816   2.704   9.318   7.592
   10AU     LIG 3817   2.828   8.955   7.619
   10AU     LIG 3818   2.749   8.694   7.959
   10AU       S 3819   2.569  11.772   6.720
   10AU     LIG 3820   2.601  12.237   6.655
   10AU     LIG 3821   2.853  12.633   6.663
   10AU     LIG 3822   2.984  13.042   6.478
   10AU       S 3823   3.344  11.580   7.113
   10AU     LIG 3824   3.461  11.999   6.922
   10AU     LIG 3825   3.716  12.062   6.525
   10AU     LIG 3826   4.008  12.311   6.239
   10AU       S 3827   2.377  11.792   6.996
   10AU     LIG 3828   2.232  12.184   7.015
   10AU     LIG 3829   2.396  12.623   6.924
   10AU     LIG 3830   2.556  13.030   6.833
   10AU       S 3831   1.906  11.200   6.620
   10AU     LIG 3832   1.826  11.546   6.357
   10AU     LIG 3833   1.842  12.012   6.352
   10AU     LIG 3834   1.701  12.424   6.257
   10AU       S 3835   1.900   9.931   7.138
   10AU     LIG 3836   1.566   9.683   6.943
   10AU     LIG 3837   1.517   9.366   6.614
   10AU     LIG 3838   1.521   9.155   6.190
   10AU       S 3839   2.804   9.654   7.064
   10AU     LIG 3840   3.138   9.468   6.827
   10AU     LIG 3841   3.099   9.067   6.592
   10AU     LIG 3842   2.997   8.628   6.684
   10AU       S 3843   3.034   9.736   7.331
   10AU     LIG 3844   3.155   9.282   7.318
   10AU     LIG 3845   3.277   8.939   7.049
   10AU     LIG 3846   3.540   8.677   6.769
   10AU       S 3847   3.393  10.143   6.699
   10AU     LIG 3848   3.203   9.856   6.459
   10AU     LIG 3849   3.307   9.443   6.302
   10AU     LIG 3850   3.441   9.242   5.894
   11POPC   NC3 3851  27.938  21.368   9.517
   11POPC   PO4 3852  28.576  21.163   9.577
   11POPC   GL1 3853  28.382  21.258   9.183
   11POPC   GL2 3854  28.273  21.605   9.179
   11POPC   C1A 3855  28.352  21.231   8.722
   11POPC   D2A 3856  28.569  21.382   8.322
   11POPC   C3A 3857  28.577  21.164   7.916
   11POPC   C4A 3858  28.288  21.148   7.569
   11POPC   C1B 3859  28.182  21.734   8.767
   11POPC   C2B 3860  28.068  21.499   8.403
   11POPC   C3B 3861  28.079  21.359   7.995
   11POPC   C4B 3862  28.067  21.641   7.674
   12POPC   NC3 3863   6.205  26.764   9.483
   12POPC   PO4 3864   5.574  26.939   9.310
   12POPC   GL1 3865   5.908  26.925   9.075
   12POPC   GL2 3866   6.118  27.246   9.156
   12POPC   C1A 3867   5.779  26.793   8.665
   12POPC   D2A 3868   5.771  26.546   8.310
   12POPC   C3A 3869   5.578  26.667   7.924
   12POPC   C4A 3870   5.814  26.622   7.520
   12POPC   C1B 3871   6.117  27.165   8.690
   12POPC   C2B 3872   6.021  27.020   8.257
   12POPC   C3B 3873   5.933  27.029   7.839
   12POPC   C4B 3874   6.266  26.872   7.619
   13POPC   NC3 3875   2.288  36.553   9.490
   13POPC   PO4 3876   3.059  36.812   9.508
   13POPC   GL1 3877   2.893  36.951   9.111
   13POPC   GL2 3878   2.589  36.812   9.159
   13POPC   C1A 3879   2.724  37.133   8.734
   13POPC   D2A 3880   2.685  36.937   8.393
   13POPC   C3A 3881   2.729  37.100   8.022
   13POPC   C4A 3882   2.959  36.778   7.823
   13POPC   C1B 3883   2.390  36.672   8.824
   13POPC   C2B 3884   2.300  36.608   8.421
   13POPC   C3B 3885   2.511  36.609   8.025
   13POPC   C4B 3886   2.491  36.860   7.610
   14POPC   NC3 3887   9.300   8.856   9.527
   14POPC   PO4 3888   8.669   9.105   9.488
   14POPC   GL1 3889   8.813   9.138   9.118
   14POPC   GL2 3890   9.017   8.855   9.109
   14POPC   C1A 3891   8.883   9.326   8.731
   14POPC   D2A 3892   8.840   9.115   8.340
   14POPC   C3A 3893   8.847   9.229   7.930
   14POPC   C4A 3894   8.751   8.908   7.651
   14POPC   C1B 3895   8.983   8.792   8.711
   14POPC   C2B 3896   9.266   8.813   8.382
   14POPC   C3B 3897   9.147   8.812   7.969
   14POPC   C4B 3898   9.289   8.670   7.571
   15POPC   NC3 3899  35.189   5.200   9.465
   15POPC   PO4 3900  35.392   4.564   9.319
   15POPC   GL1 3901  35.421   4.941   9.080
   15POPC   GL2 3902  35.654   5.247   9.099
   15POPC   C1A 3903  35.380   5.040   8.668
   15POPC   D2A 3904  35.638   5.116   8.324
   15POPC   C3A 3905  35.460   4.972   7.948
   15POPC   C4A 3906  35.329   4.537   7.927
   15POPC   C1B 3907  35.558   5.515   8.689
   15POPC   C2B 3908  35.435   5.559   8.226
   15POPC   C3B 3909  35.666   5.500   7.821
   15POPC   C4B 3910  35.548   5.460   7.340
   16POPC   NC3 3911  10.192   5.050   9.492
   16POPC   PO4 3912  10.810   5.316   9.430
   16POPC   GL1 3913  10.560   5.074   9.112
   16POPC   GL2 3914  10.306   5.315   9.028
   16POPC   C1A 3915  10.390   5.012   8.646
   16POPC   D2A 3916  10.029   4.937   8.384
   16POPC   C3A 3917  10.131   5.155   8.010
   16POPC   C4A 3918  10.366   5.038   7.634
   16POPC   C1B 3919  10.760   5.370   8.765
   16POPC   C2B 3920  10.859   5.641   8.388
   16POPC   C3B 3921  10.864   5.504   7.952
   16POPC   C4B 3922  10.743   5.374   7.527
   17POPC   NC3 3923  27.429  33.324   9.872
   17POPC   PO4 3924  27.441  32.803   9.464
   17POPC   GL1 3925  27.550  32.847   9.091
   17POPC   GL2 3926  27.714  33.155   9.088
   17POPC   C1A 3927  27.396  33.011   8.704
   17POPC   D2A 3928  27.490  33.116   8.297
   17POPC   C3A 3929  27.320  32.837   7.997
   17POPC   C4A 3930  27.321  33.020   7.641
   17POPC   C1B 3931  27.890  32.880   8.718
   17POPC   C2B 3932  28.006  32.834   8.275
   17POPC   C3B 3933  27.806  32.969   7.897
   17POPC   C4B 3934  27.798  33.028   7.452
   18POPC   NC3 3935  27.670   5.548   9.586
   18POPC   PO4 3936  27.522   6.191   9.736
   18POPC   GL1 3937  27.645   5.974   9.294
   18POPC   GL2 3938  27.347   5.815   9.186
   18POPC   C1A 3939  27.746   5.758   8.875
   18POPC   D2A 3940  27.797   5.891   8.417
   18POPC   C3A 3941  27.580   6.035   8.034
   18POPC   C4A 3942  27.812   5.876   7.670
   18POPC   C1B 3943  27.242   5.644   8.788
   18POPC   C2B 3944  27.309   5.706   8.340
   18POPC   C3B 3945  27.457   5.554   7.925
   18POPC   C4B 3946  27.505   5.525   7.456
   19POPC   NC3 3947  31.328  38.342   9.507
   19POPC   PO4 3948  31.564  38.885   9.730
   19POPC   GL1 3949  31.524  38.811   9.263
   19POPC   GL2 3950  31.638  38.503   9.149
   19POPC   C1A 3951  31.383  38.750   8.803
   19POPC   D2A 3952  31.588  38.724   8.369
   19POPC   C3A 3953  31.788  38.464   8.053
   19POPC   C4A 3954  31.542  38.699   7.782
   19POPC   C1B 3955  31.791  38.436   8.752
   19POPC   C2B 3956  31.601  38.201   8.438
   19POPC   C3B 3957  31.425  38.071   8.051
   19POPC   C4B 3958  31.349  38.276   7.633
   20POPC   NC3 3959  31.007  32.345   9.612
   20POPC   PO4 3960  31.697  32.375   9.705
   20POPC   GL1 3961  31.452  32.148   9.383
   20POPC   GL2 3962  31.364  32.415   9.237
   20POPC   C1A 3963  31.444  32.046   8.911
   20POPC   D2A 3964  31.619  31.991   8.474
   20POPC   C3A 3965  31.404  32.157   8.123
   20POPC   C4A 3966  31.539  32.130   7.697
   20POPC   C1B 3967  31.566  32.583   8.905
   20POPC   C2B 3968  31.609  32.497   8.514
   20POPC   C3B 3969  31.616  32.632   8.126
   20POPC   C4B 3970  31.448  32.641   7.767
   21POPC   NC3 3971  25.411  29.515   9.498
   21POPC   PO4 3972  25.094  30.167   9.572
   21POPC   GL1 3973  25.248  30.126   9.147
   21POPC   GL2 3974  25.511  29.839   9.112
   21POPC   C1A 3975  25.313  30.073   8.714
   21POPC   D2A 3976  25.460  29.784   8.440
   21POPC   C3A 3977  25.488  30.063   8.130
   21POPC   C4A 3978  25.065  30.117   7.887
   21POPC   C1B 3979  25.271  29.520   8.855
   21POPC   C2B 3980  25.128  29.373   8.464
   21POPC   C3B 3981  25.091  29.643   8.123
   21POPC   C4B 3982  25.399  29.731   7.781
   22POPC   NC3 3983  14.519   3.378   9.459
   22POPC   PO4 3984  14.496   4.034   9.492
   22POPC   GL1 3985  14.369   3.770   9.143
   22POPC   GL2 3986  14.111   3.487   9.147
   22POPC   C1A 3987  14.481   3.525   8.764
   22POPC   D2A 3988  14.674   3.414   8.369
   22POPC   C3A 3989  14.521   3.452   7.943
   22POPC   C4A 3990  14.397   3.572   7.499
   22POPC   C1B 3991  14.129   3.166   8.853
   22POPC   C2B 3992  14.305   3.043   8.490
   22POPC   C3B 3993  14.114   2.932   8.134
   22POPC   C4B 3994  14.174   3.137   7.770
   23POPC   NC3 3995   3.040  14.717   9.421
   23POPC   PO4 3996   2.875  14.098   9.418
   23POPC   GL1 3997   2.792  14.391   9.066
   23POPC   GL2 3998   2.765  14.770   9.014
   23POPC   C1A 3999   2.983  14.433   8.658
   23POPC   D2A 4000   3.000  14.178   8.282
   23POPC   C3A 4001   2.846  14.361   7.900
   23POPC   C4A 4002   3.094  14.623   7.654
   23POPC   C1B 4003   2.514  14.651   8.703
   23POPC   C2B 4004   2.327  14.506   8.334
   23POPC   C3B 4005   2.454  14.702   7.965
   23POPC   C4B 4006   2.511  14.564   7.528
   24POPC   NC3 4007  27.580  30.006   9.568
   24POPC   PO4 4008  27.110  30.334   9.254
   24POPC   GL1 4009  27.302  30.006   9.066
   24POPC   GL2 4010  27.634  29.847   9.088
   24POPC   C1A 4011  27.357  29.981   8.644
   24POPC   D2A 4012  27.475  30.181   8.265
   24POPC   C3A 4013  27.351  29.959   7.920
   24POPC   C4A 4014  27.450  29.649   7.615
   24POPC   C1B 4015  27.824  29.795   8.685
   24POPC   C2B 4016  27.680  29.733   8.269
   24POPC   C3B 4017  27.852  29.846   7.862
   24POPC   C4B 4018  27.942  29.533   7.520
   25POPC   NC3 4019  31.798  37.562   9.582
   25POPC   PO4 4020  31.770  38.194   9.517
   25POPC   GL1 4021  31.607  37.889   9.193
   25POPC   GL2 4022  31.420  38.080   8.967
   25POPC   C1A 4023  31.513  37.502   8.906
   25POPC   D2A 4024  31.193  37.351   8.534
   25POPC   C3A 4025  31.180  37.577   8.098
   25POPC   C4A 4026  31.327  37.415   7.657
   25POPC   C1B 4027  31.303  37.839   8.596
   25POPC   C2B 4028  31.611  37.618   8.358
   25POPC   C3B 4029  31.698  37.670   7.903
   25POPC   C4B 4030  31.822  38.074   7.693
   26POPC   NC3 4031  40.144  35.857   9.303
   26POPC   PO4 4032  40.150  36.456   9.628
   26POPC   GL1 4033  40.163  36.389   9.187
   26POPC   GL2 4034  39.827  36.271   9.155
   26POPC   C1A 4035  40.158  36.220   8.747
   26POPC   D2A 4036  40.308  36.150   8.316
   26POPC   C3A 4037  40.055  36.270   7.950
   26POPC   C4A 4038  39.893  35.940   7.707
   26POPC   C1B 4039  39.650  36.150   8.781
   26POPC   C2B 4040  39.777  36.013   8.393
   26POPC   C3B 4041  39.568  36.098   8.045
   26POPC   C4B 4042  39.565  36.310   7.659
   27POPC   NC3 4043  10.914  13.146   9.587
   27POPC   PO4 4044  10.373  12.802   9.557
   27POPC   GL1 4045  10.562  12.935   9.194
   27POPC   GL2 4046  10.904  12.843   9.163
   27POPC   C1A 4047  10.438  12.727   8.816
   27POPC   D2A 4048  10.145  12.683   8.495
   27POPC   C3A 4049  10.285  12.529   8.084
   27POPC   C4A 4050  10.279  12.880   7.813
   27POPC   C1B 4051  10.814  13.061   8.760
   27POPC   C2B 4052  10.585  12.981   8.364
   27POPC   C3B 4053  10.744  13.004   7.945
   27POPC   C4B 4054  10.881  12.642   7.751
   28POPC   NC3 4055  38.360  33.870   9.542
   28POPC   PO4 4056  38.954  33.874   9.372
   28POPC   GL1 4057  38.659  33.710   9.089
   28POPC   GL2 4058  38.342  33.883   9.028
   28POPC   C1A 4059  38.597  33.692   8.626
   28POPC   D2A 4060  38.424  33.918   8.265
   28POPC   C3A 4061  38.419  33.621   7.918
   28POPC   C4A 4062  38.668  33.585   7.558
   28POPC   C1B 4063  38.059  33.814   8.671
   28POPC   C2B 4064  37.894  33.908   8.263
   28POPC   C3B 4065  38.029  33.936   7.837
   28POPC   C4B 4066  38.358  33.981   7.509
   29POPC   NC3 4067   4.722  26.431   9.883
   29POPC   PO4 4068   4.153  26.288   9.516
   29POPC   GL1 4069   4.230  26.064   9.173
   29POPC   GL2 4070   4.577  25.926   9.202
   29POPC   C1A 4071   4.063  25.989   8.793
   29POPC   D2A 4072   4.250  25.802   8.467
   29POPC   C3A 4073   4.015  25.843   8.092
   29POPC   C4A 4074   4.060  26.158   7.808
   29POPC   C1B 4075   4.578  26.091   8.759
   29POPC   C2B 4076   4.738  26.074   8.330
   29POPC   C3B 4077   4.541  26.027   7.931
   29POPC   C4B 4078   4.456  26.004   7.477
   30POPC   NC3 4079   7.597   8.612   9.355
   30POPC   PO4 4080   7.190   9.095   9.593
   30POPC   GL1 4081   7.437   9.192   9.209
   30POPC   GL2 4082   7.771   9.031   9.146
   30POPC   C1A 4083   7.493   9.196   8.760
   30POPC   D2A 4084   7.230   8.995   8.446
   30POPC   C3A 4085   7.077   9.236   8.083
   30POPC   C4A 4086   7.108   9.075   7.680
   30POPC   C1B 4087   7.668   8.730   8.752
   30POPC   C2B 4088   7.581   8.585   8.354
   30POPC   C3B 4089   7.352   8.746   8.010
   30POPC   C4B 4090   7.565   8.810   7.647
   31POPC   NC3 4091  38.213  42.821   9.763
   31POPC   PO4 4092  37.665  43.237   9.492
   31POPC   GL1 4093  37.490  43.203   9.117
   31POPC   GL2 4094  37.407  42.853   9.197
   31POPC   C1A 4095  37.735  43.333   8.786
   31POPC   D2A 4096  37.874  43.089   8.460
   31POPC   C3A 4097  37.693  43.258   8.121
   31POPC   C4A 4098  37.722  43.487   7.768
   31POPC   C1B 4099  37.590  42.797   8.782
   31POPC   C2B 4100  37.465  42.803   8.346
   31POPC   C3B 4101  37.638  42.748   7.938
   31POPC   C4B 4102  37.838  43.002   7.629
   32POPC   NC3 4103  23.787  43.473   9.493
   32POPC   PO4 4104  23.447  42.859   9.538
   32POPC   GL1 4105  23.465  42.905   9.106
   32POPC   GL2 4106  23.488  43.272   9.120
   32POPC   C1A 4107  23.693  42.900   8.698
   32POPC   D2A 4108  23.800  43.245   8.440
   32POPC   C3A 4109  23.746  43.237   8.001
   32POPC   C4A 4110  23.831  43.309   7.550
   32POPC   C1B 4111  23.321  43.288   8.728
   32POPC   C2B 4112  23.267  43.082   8.363
   32POPC   C3B 4113  23.172  43.261   7.993
   32POPC   C4B 4114  23.384  43.108   7.662
   33POPC   NC3 4115  24.251   7.817   9.463
   33POPC   PO4 4116  23.576   7.539   9.471
   33POPC   GL1 4117  23.902   7.456   9.166
   33POPC   GL2 4118  23.655   7.193   9.039
   33POPC   C1A 4119  23.918   7.469   8.710
   33POPC   D2A 4120  23.698   7.164   8.430
   33POPC   C3A 4121  23.548   7.290   8.054
   33POPC   C4A 4122  23.722   7.411   7.683
   33POPC   C1B 4123  24.091   7.033   8.921
   33POPC   C2B 4124  24.191   7.060   8.470
   33POPC   C3B 4125  24.073   7.297   8.078
   33POPC   C4B 4126  24.142   7.145   7.670
   34POPC   NC3 4127  39.649   1.712   9.422
   34POPC   PO4 4128  40.316   1.859   9.504
   34POPC   GL1 4129  40.101   1.980   9.168
   34POPC   GL2 4130  39.806   2.208   9.247
   34POPC   C1A 4131  40.196   1.804   8.773
   34POPC   D2A 4132  40.066   1.633   8.406
   34POPC   C3A 4133  40.015   1.857   8.074
   34POPC   C4A 4134  40.237   1.740   7.727
   34POPC   C1B 4135  39.757   2.088   8.811
   34POPC   C2B 4136  40.000   2.211   8.478
   34POPC   C3B 4137  40.024   2.364   8.073
   34POPC   C4B 4138  39.921   2.170   7.682
   35POPC   NC3 4139  16.039  36.113   9.761
   35POPC   PO4 4140  16.746  36.149   9.584
   35POPC   GL1 4141  16.714  36.141   9.181
   35POPC   GL2 4142  16.542  36.465   9.159
   35POPC   C1A 4143  16.944  35.969   8.864
   35POPC   D2A 4144  16.807  35.838   8.471
   35POPC   C3A 4145  17.005  35.883   8.060
   35POPC   C4A 4146  17.050  35.947   7.610
   35POPC   C1B 4147  16.779  36.414   8.741
   35POPC   C2B 4148  16.829  36.351   8.272
   35POPC   C3B 4149  16.636  36.205   7.870
   35POPC   C4B 4150  16.298  36.370   7.596
   36POPC   NC3 4151  16.649  24.964   9.530
   36POPC   PO4 4152  16.857  25.605   9.513
   36POPC   GL1 4153  16.576  25.484   9.180
   36POPC   GL2 4154  16.736  25.169   9.080
   36POPC   C1A 4155  16.576  25.483   8.719
   36POPC   D2A 4156  16.637  25.235   8.374
   36POPC   C3A 4157  16.573  25.490   8.036
   36POPC   C4A 4158  16.978  25.598   7.883
   36POPC   C1B 4159  16.741  24.889   8.756
   36POPC   C2B 4160  16.460  24.742   8.451
   36POPC   C3B 4161  16.310  24.955   8.106
   36POPC   C4B 4162  16.534  25.063   7.763
   37POPC   NC3 4163   0.188  34.980   9.439
   37POPC   PO4 4164   0.797  35.145   9.359
   37POPC   GL1 4165   0.494  35.210   9.066
   37POPC   GL2 4166   0.403  34.884   8.980
   37POPC   C1A 4167   0.583  35.491   8.729
   37POPC   D2A 4168   0.816  35.476   8.346
   37POPC   C3A 4169   0.487  35.592   8.050
   37POPC   C4A 4170   0.468  35.444   7.643
   37POPC   C1B 4171   0.606  34.994   8.586
   37POPC   C2B 4172   0.619  35.011   8.129
   37POPC   C3B 4173   0.259  35.003   7.818
   37POPC   C4B 4174   0.201  35.144   7.357
   38POPC   NC3 4175  31.294   9.996   9.474
   38POPC   PO4 4176  31.526   9.331   9.541
   38POPC   GL1 4177  31.517   9.595   9.185
   38POPC   GL2 4178  31.769   9.882   9.183
   38POPC   C1A 4179  31.153   9.651   8.896
   38POPC   D2A 4180  31.201   9.473   8.513
   38POPC   C3A 4181  30.999   9.564   8.140
   38POPC   C4A 4182  31.124   9.667   7.731
   38POPC   C1B 4183  31.596   9.857   8.742
   38POPC   C2B 4184  31.474   9.891   8.294
   38POPC   C3B 4185  31.639   9.697   7.916
   38POPC   C4B 4186  31.529   9.903   7.543
   39POPC   NC3 4187  12.454  12.177   9.464
   39POPC   PO4 4188  11.930  11.898   9.687
   39POPC   GL1 4189  11.987  11.992   9.267
   39POPC   GL2 4190  12.222  11.728   9.214
   39POPC   C1A 4191  11.967  12.217   8.858
   39POPC   D2A 4192  11.901  12.351   8.446
   39POPC   C3A 4193  11.935  12.108   8.087
   39POPC   C4A 4194  12.082  12.177   7.712
   39POPC   C1B 4195  12.354  11.893   8.870
   39POPC   C2B 4196  12.211  11.938   8.480
   39POPC   C3B 4197  12.444  11.994   8.112
   39POPC   C4B 4198  12.415  11.790   7.730
   40POPC   NC3 4199  13.595  28.071   9.459
   40POPC   PO4 4200  14.149  28.573   9.617
   40POPC   GL1 4201  13.866  28.537   9.217
   40POPC   GL2 4202  13.524  28.442   9.114
   40POPC   C1A 4203  13.892  28.451   8.743
   40POPC   D2A 4204  13.657  28.476   8.352
   40POPC   C3A 4205  13.928  28.439   8.006
   40POPC   C4A 4206  13.837  28.485   7.556
   40POPC   C1B 4207  13.446  28.179   8.718
   40POPC   C2B 4208  13.465  27.989   8.266
   40POPC   C3B 4209  13.563  28.145   7.810
   40POPC   C4B 4210  13.387  28.314   7.381
   41POPC   NC3 4211   6.238   3.216   9.468
   41POPC   PO4 4212   5.686   2.774   9.448
   41POPC   GL1 4213   5.920   2.777   9.102
   41POPC   GL2 4214   5.712   2.493   9.011
   41POPC   C1A 4215   6.136   2.935   8.731
   41POPC   D2A 4216   6.298   2.836   8.334
   41POPC   C3A 4217   5.950   2.902   8.071
   41POPC   C4A 4218   5.925   3.049   7.688
   41POPC   C1B 4219   5.485   2.576   8.652
   41POPC   C2B 4220   5.468   2.718   8.231
   41POPC   C3B 4221   5.569   2.425   7.909
   41POPC   C4B 4222   5.480   2.432   7.460
   42POPC   NC3 4223  42.710   2.153   9.447
   42POPC   PO4 4224  42.092   1.932   9.686
   42POPC   GL1 4225  42.263   1.861   9.226
   42POPC   GL2 4226  42.413   2.131   9.046
   42POPC   C1A 4227  42.222   1.770   8.789
   42POPC   D2A 4228  42.267   2.103   8.498
   42POPC   C3A 4229  42.419   1.982   8.097
   42POPC   C4A 4230  42.038   2.030   7.854
   42POPC   C1B 4231  42.686   2.341   8.820
   42POPC   C2B 4232  42.716   2.374   8.434
   42POPC   C3B 4233  42.747   2.455   8.079
   42POPC   C4B 4234  42.676   2.303   7.717
   43POPC   NC3 4235  38.426  27.819   9.591
   43POPC   PO4 4236  38.778  27.238   9.452
   43POPC   GL1 4237  38.546  27.583   9.155
   43POPC   GL2 4238  38.207  27.813   9.144
   43POPC   C1A 4239  38.461  27.470   8.735
   43POPC   D2A 4240  38.541  27.190   8.374
   43POPC   C3A 4241  38.449  27.411   8.007
   43POPC   C4A 4242  38.696  27.704   7.820
   43POPC   C1B 4243  38.324  27.982   8.761
   43POPC   C2B 4244  38.456  27.889   8.362
   43POPC   C3B 4245  38.236  27.902   7.996
   43POPC   C4B 4246  38.230  27.703   7.614
   44POPC   NC3 4247  43.375  19.739   9.205
   44POPC   PO4 4248  42.985  19.490   9.656
   44POPC   GL1 4249  42.872  19.695   9.231
   44POPC   GL2 4250  42.991  20.051   9.100
   44POPC   C1A 4251  42.913  19.582   8.759
   44POPC   D2A 4252  42.854  19.312   8.366
   44POPC   C3A 4253  43.028  19.414   7.967
   44POPC   C4A 4254  43.398  19.621   7.802
   44POPC   C1B 4255  42.819  20.082   8.711
   44POPC   C2B 4256  43.024  19.935   8.333
   44POPC   C3B 4257  42.964  19.923   7.903
   44POPC   C4B 4258  42.656  19.919   7.592
   45POPC   NC3 4259  20.836  32.868   9.469
   45POPC   PO4 4260  20.218  33.087   9.622
   45POPC   GL1 4261  20.448  33.059   9.217
   45POPC   GL2 4262  20.667  33.306   9.219
   45POPC   C1A 4263  20.713  32.983   8.802
   45POPC   D2A 4264  20.890  33.080   8.364
   45POPC   C3A 4265  20.647  32.900   7.981
   45POPC   C4A 4266  20.565  32.674   7.556
   45POPC   C1B 4267  20.321  33.352   8.845
   45POPC   C2B 4268  20.050  33.266   8.475
   45POPC   C3B 4269  20.185  33.260   8.057
   45POPC   C4B 4270  20.581  33.418   7.926
   46POPC   NC3 4271   4.643  33.001   9.416
   46POPC   PO4 4272   4.226  33.425   9.677
   46POPC   GL1 4273   4.207  33.202   9.229
   46POPC   GL2 4274   4.225  32.821   9.197
   46POPC   C1A 4275   4.360  33.146   8.795
   46POPC   D2A 4276   4.625  33.279   8.443
   46POPC   C3A 4277   4.416  33.247   8.069
   46POPC   C4A 4278   4.070  33.369   7.795
   46POPC   C1B 4279   4.331  32.611   8.798
   46POPC   C2B 4280   4.444  32.768   8.389
   46POPC   C3B 4281   4.318  32.767   7.945
   46POPC   C4B 4282   4.468  32.992   7.611
   47POPC   NC3 4283  31.250  14.484   9.442
   47POPC   PO4 4284  31.703  14.057   9.535
   47POPC   GL1 4285  31.650  14.222   9.122
   47POPC   GL2 4286  31.311  14.119   9.058
   47POPC   C1A 4287  31.581  14.369   8.672
   47POPC   D2A 4288  31.540  14.663   8.300
   47POPC   C3A 4289  31.605  14.457   7.892
   47POPC   C4A 4290  31.725  14.023   7.781
   47POPC   C1B 4291  31.053  14.383   8.760
   47POPC   C2B 4292  31.060  14.390   8.302
   47POPC   C3B 4293  31.120  14.325   7.845
   47POPC   C4B 4294  31.214  14.635   7.536
   48POPC   NC3 4295  32.622  16.490   9.488
   48POPC   PO4 4296  33.209  16.899   9.473
   48POPC   GL1 4297  33.032  16.619   9.182
   48POPC   GL2 4298  32.726  16.777   9.058
   48POPC   C1A 4299  33.067  16.430   8.768
   48POPC   D2A 4300  33.304  16.402   8.368
   48POPC   C3A 4301  33.063  16.505   8.017
   48POPC   C4A 4302  33.105  16.665   7.591
   48POPC   C1B 4303  33.100  16.963   8.798
   48POPC   C2B 4304  33.294  16.943   8.362
   48POPC   C3B 4305  33.121  17.038   7.935
   48POPC   C4B 4306  32.954  17.146   7.494
   49POPC   NC3 4307   5.864  21.178   9.551
   49POPC   PO4 4308   6.150  21.774   9.505
   49POPC   GL1 4309   5.993  21.526   9.200
   49POPC   GL2 4310   5.657  21.618   9.189
   49POPC   C1A 4311   6.142  21.277   8.847
   49POPC   D2A 4312   6.057  21.191   8.429
   49POPC   C3A 4313   5.925  21.473   8.132
   49POPC   C4A 4314   6.105  21.485   7.734
   49POPC   C1B 4315   5.624  21.272   8.902
   49POPC   C2B 4316   5.559  21.261   8.469
   49POPC   C3B 4317   5.643  21.032   8.097
   49POPC   C4B 4318   5.739  21.142   7.691
   50POPC   NC3 4319   6.418  43.854   9.507
   50POPC   PO4 4320   7.089  43.634   9.420
   50POPC   GL1 4321   6.932  43.778   9.049
   50POPC   GL2 4322   6.607  43.903   9.053
   50POPC   C1A 4323   6.840  43.849   8.606
   50POPC   D2A 4324   6.539  43.739   8.288
   50POPC   C3A 4325   6.783  43.894   7.951
   50POPC   C4A 4326   6.892  43.762   7.513
   50POPC   C1B 4327   6.430  44.141   8.731
   50POPC   C2B 4328   6.526  44.271   8.306
   50POPC   C3B 4329   6.299  44.093   7.952
   50POPC   C4B 4330   6.389  43.753   7.682
   51POPC   NC3 4331  13.298  44.082   9.447
   51POPC   PO4 4332  13.932  43.761   9.436
   51POPC   GL1 4333  13.709  43.924   9.096
   51POPC   GL2 4334  13.321  43.846   9.001
   51POPC   C1A 4335  13.680  43.777   8.684
   51POPC   D2A 4336  13.902  43.924   8.392
   51POPC   C3A 4337  13.785  43.869   7.998
   51POPC   C4A 4338  13.807  44.099   7.638
   51POPC   C1B 4339  13.462  44.240   8.795
   51POPC   C2B 4340  13.525  44.363   8.377
   51POPC   C3B 4341  13.345  44.207   7.987
   51POPC   C4B 4342  13.341  44.252   7.538
   52POPC   NC3 4343  26.276  32.552   9.406
   52POPC   PO4 4344  25.741  32.184   9.439
   52POPC   GL1 4345  25.924  32.197   9.060
   52POPC   GL2 4346  26.282  32.229   8.986
   52POPC   C1A 4347  25.660  32.055   8.737
   52POPC   D2A 4348  25.632  32.265   8.346
   52POPC   C3A 4349  26.032  32.167   8.122
   52POPC   C4A 4350  26.123  32.085   7.713
   52POPC   C1B 4351  26.412  32.614   8.756
   52POPC   C2B 4352  26.327  32.605   8.329
   52POPC   C3B 4353  25.978  32.662   8.077
   52POPC   C4B 4354  26.005  32.585   7.678
   53POPC   NC3 4355  19.328   4.813   9.576
   53POPC   PO4 4356  18.985   5.347   9.384
   53POPC   GL1 4357  18.981   5.012   9.116
   53POPC   GL2 4358  19.305   4.981   9.109
   53POPC   C1A 4359  18.891   5.077   8.693
   53POPC   D2A 4360  18.876   5.233   8.280
   53POPC   C3A 4361  19.212   5.190   7.988
   53POPC   C4A 4362  19.264   5.591   7.867
   53POPC   C1B 4363  19.310   4.751   8.754
   53POPC   C2B 4364  19.206   4.805   8.341
   53POPC   C3B 4365  19.358   4.652   7.960
   53POPC   C4B 4366  19.255   4.832   7.584
   54POPC   NC3 4367   5.770  20.208   9.328
   54POPC   PO4 4368   6.089  20.777   9.565
   54POPC   GL1 4369   5.914  20.694   9.179
   54POPC   GL2 4370   6.169  20.461   9.119
   54POPC   C1A 4371   5.822  20.516   8.763
   54POPC   D2A 4372   5.864  20.716   8.420
   54POPC   C3A 4373   5.783  20.471   8.093
   54POPC   C4A 4374   5.805  20.655   7.740
   54POPC   C1B 4375   6.284  20.748   8.782
   54POPC   C2B 4376   6.359  20.802   8.343
   54POPC   C3B 4377   6.180  20.969   7.942
   54POPC   C4B 4378   6.276  20.733   7.530
   55POPC   NC3 4379  25.207  38.294   9.598
   55POPC   PO4 4380  25.315  38.941   9.488
   55POPC   GL1 4381  25.405  38.494   9.173
   55POPC   GL2 4382  25.164  38.172   9.110
   55POPC   C1A 4383  25.481  38.290   8.727
   55POPC   D2A 4384  25.413  38.563   8.352
   55POPC   C3A 4385  25.500  38.540   7.902
   55POPC   C4A 4386  25.225  38.701   7.598
   55POPC   C1B 4387  25.007  38.471   8.806
   55POPC   C2B 4388  24.903  38.577   8.376
   55POPC   C3B 4389  24.995  38.433   7.978
   55POPC   C4B 4390  24.829  38.357   7.587
   56POPC   NC3 4391  31.193  16.120   9.820
   56POPC   PO4 4392  30.607  15.875   9.491
   56POPC   GL1 4393  30.615  15.877   9.064
   56POPC   GL2 4394  30.807  15.635   8.919
   56POPC   C1A 4395  30.685  16.079   8.691
   56POPC   D2A 4396  30.885  16.238   8.351
   56POPC   C3A 4397  30.574  16.146   8.063
   56POPC   C4A 4398  30.684  16.201   7.663
   56POPC   C1B 4399  30.421  15.549   8.748
   56POPC   C2B 4400  30.391  15.736   8.392
   56POPC   C3B 4401  30.407  15.516   8.076
   56POPC   C4B 4402  30.686  15.487   7.733
   57POPC   NC3 4403  24.160   4.038   9.465
   57POPC   PO4 4404  24.816   4.275   9.549
   57POPC   GL1 4405  24.617   4.244   9.164
   57POPC   GL2 4406  24.369   4.491   9.102
   57POPC   C1A 4407  24.691   4.231   8.726
   57POPC   D2A 4408  24.549   4.351   8.364
   57POPC   C3A 4409  24.668   4.134   8.038
   57POPC   C4A 4410  24.610   4.167   7.606
   57POPC   C1B 4411  24.180   4.291   8.775
   57POPC   C2B 4412  24.052   4.197   8.372
   57POPC   C3B 4413  24.168   4.346   8.012
   57POPC   C4B 4414  24.182   4.453   7.617
   58POPC   NC3 4415  38.234  40.367   9.557
   58POPC   PO4 4416  37.954  40.928   9.264
   58POPC   GL1 4417  37.642  40.905   9.006
   58POPC   GL2 4418  37.538  40.591   8.992
   58POPC   C1A 4419  37.479  41.073   8.663
   58POPC   D2A 4420  37.459  40.768   8.368
   58POPC   C3A 4421  37.665  40.910   8.020
   58POPC   C4A 4422  37.533  40.987   7.625
   58POPC   C1B 4423  37.818  40.396   8.748
   58POPC   C2B 4424  37.939  40.480   8.333
   58POPC   C3B 4425  37.835  40.271   7.989
   58POPC   C4B 4426  37.572  40.492   7.744
   59POPC   NC3 4427   3.817  26.669   9.530
   59POPC   PO4 4428   3.295  27.107   9.361
   59POPC   GL1 4429   3.634  26.996   9.096
   59POPC   GL2 4430   3.524  26.672   9.121
   59POPC   C1A 4431   3.827  26.806   8.722
   59POPC   D2A 4432   4.056  26.787   8.342
   59POPC   C3A 4433   3.903  26.639   7.981
   59POPC   C4A 4434   3.952  26.810   7.608
   59POPC   C1B 4435   3.329  26.724   8.761
   59POPC   C2B 4436   3.478  26.673   8.369
   59POPC   C3B 4437   3.358  26.878   8.056
   59POPC   C4B 4438   3.423  26.714   7.691
   60POPC   NC3 4439   6.559  19.391   9.408
   60POPC   PO4 4440   6.219  19.961   9.439
   60POPC   GL1 4441   6.309  19.710   9.091
   60POPC   GL2 4442   6.695  19.764   9.066
   60POPC   C1A 4443   6.400  19.629   8.663
   60POPC   D2A 4444   6.630  19.914   8.404
   60POPC   C3A 4445   6.459  20.023   8.051
   60POPC   C4A 4446   6.296  19.829   7.682
   60POPC   C1B 4447   6.933  19.631   8.693
   60POPC   C2B 4448   6.742  19.420   8.333
   60POPC   C3B 4449   6.561  19.534   8.018
   60POPC   C4B 4450   6.806  19.818   7.739
   61POPC   NC3 4451   2.707  35.648   9.566
   61POPC   PO4 4452   3.006  35.184   9.315
   61POPC   GL1 4453   2.665  35.317   9.109
   61POPC   GL2 4454   2.394  35.050   9.096
   61POPC   C1A 4455   2.822  35.454   8.705
   61POPC   D2A 4456   2.904  35.468   8.289
   61POPC   C3A 4457   2.550  35.510   8.018
   61POPC   C4A 4458   2.712  35.312   7.680
   61POPC   C1B 4459   2.367  35.211   8.705
   61POPC   C2B 4460   2.536  35.097   8.325
   61POPC   C3B 4461   2.405  35.001   7.938
   61POPC   C4B 4462   2.197  35.221   7.648
   62POPC   NC3 4463   0.182   1.111   9.404
   62POPC   PO4 4464   0.514   1.744   9.483
   62POPC   GL1 4465   0.508   1.436   9.117
   62POPC   GL2 4466   0.644   1.095   9.126
   62POPC   C1A 4467   0.320   1.202   8.754
   62POPC   D2A 4468   0.215   1.303   8.341
   62POPC   C3A 4469   0.573   1.411   8.157
   62POPC   C4A 4470   0.725   1.264   7.777
   62POPC   C1B 4471   0.662   0.799   8.766
   62POPC   C2B 4472   0.658   0.918   8.315
   62POPC   C3B 4473   0.343   0.956   7.968
   62POPC   C4B 4474   0.402   0.920   7.503
   63POPC   NC3 4475  25.476  10.670   9.470
   63POPC   PO4 4476  25.016  10.383   9.832
   63POPC   GL1 4477  25.215  10.274   9.331
   63POPC   GL2 4478  25.560  10.194   9.220
   63POPC   C1A 4479  25.122  10.290   8.869
   63POPC   D2A 4480  25.221  10.281   8.419
   63POPC   C3A 4481  24.926  10.386   8.076
   63POPC   C4A 4482  24.893  10.770   7.814
   63POPC   C1B 4483  25.614  10.441   8.836
   63POPC   C2B 4484  25.673  10.568   8.418
   63POPC   C3B 4485  25.518  10.432   8.028
   63POPC   C4B 4486  25.697  10.384   7.622
   64POPC   NC3 4487  31.898  11.389   9.481
   64POPC   PO4 4488  32.519  11.652   9.432
   64POPC   GL1 4489  32.279  11.384   9.122
   64POPC   GL2 4490  32.352  11.056   9.096
   64POPC   C1A 4491  32.242  11.269   8.671
   64POPC   D2A 4492  32.392  11.438   8.298
   64POPC   C3A 4493  32.086  11.309   8.041
   64POPC   C4A 4494  31.914  11.418   7.632
   64POPC   C1B 4495  32.568  10.854   8.799
   64POPC   C2B 4496  32.588  10.965   8.406
   64POPC   C3B 4497  32.432  10.851   7.999
   64POPC   C4B 4498  32.134  10.953   7.672
   65POPC   NC3 4499  41.174  33.349   9.518
   65POPC   PO4 4500  41.712  33.829   9.432
   65POPC   GL1 4501  41.518  33.897   9.074
   65POPC   GL2 4502  41.287  33.627   9.120
   65POPC   C1A 4503  41.608  34.033   8.663
   65POPC   D2A 4504  41.770  34.076   8.240
   65POPC   C3A 4505  41.449  34.027   7.923
   65POPC   C4A 4506  41.554  33.857   7.533
   65POPC   C1B 4507  41.424  33.515   8.727
   65POPC   C2B 4508  41.427  33.687   8.329
   65POPC   C3B 4509  41.497  33.522   7.951
   65POPC   C4B 4510  41.217  33.505   7.649
   66POPC   NC3 4511  32.636  37.017   9.575
   66POPC   PO4 4512  33.322  36.793   9.673
   66POPC   GL1 4513  33.228  36.853   9.239
   66POPC   GL2 4514  32.965  37.049   9.211
   66POPC   C1A 4515  33.090  36.803   8.797
   66POPC   D2A 4516  33.207  36.993   8.435
   66POPC   C3A 4517  33.156  36.822   8.025
   66POPC   C4A 4518  33.031  36.929   7.611
   66POPC   C1B 4519  32.802  37.294   8.904
   66POPC   C2B 4520  32.715  37.259   8.498
   66POPC   C3B 4521  32.512  37.323   8.132
   66POPC   C4B 4522  32.624  37.265   7.725
   67POPC   NC3 4523  18.830  21.159   9.428
   67POPC   PO4 4524  19.164  21.715   9.452
   67POPC   GL1 4525  19.244  21.562   9.083
   67POPC   GL2 4526  19.111  21.220   8.997
   67POPC   C1A 4527  19.035  21.674   8.745
   67POPC   D2A 4528  18.902  21.461   8.415
   67POPC   C3A 4529  18.973  21.642   8.057
   67POPC   C4A 4530  19.150  21.639   7.711
   67POPC   C1B 4531  19.352  21.296   8.612
   67POPC   C2B 4532  19.343  21.283   8.145
   67POPC   C3B 4533  19.045  21.160   7.805
   67POPC   C4B 4534  19.056  20.964   7.375
   68POPC   NC3 4535  28.680  40.485   9.482
   68POPC   PO4 4536  28.156  40.764   9.730
   68POPC   GL1 4537  28.214  40.756   9.307
   68POPC   GL2 4538  28.084  40.423   9.346
   68POPC   C1A 4539  28.345  40.745   8.859
   68POPC   D2A 4540  28.274  40.846   8.422
   68POPC   C3A 4541  28.554  41.117   8.171
   68POPC   C4A 4542  28.546  40.953   7.788
   68POPC   C1B 4543  27.896  40.490   8.944
   68POPC   C2B 4544  27.962  40.435   8.508
   68POPC   C3B 4545  28.019  40.544   8.079
   68POPC   C4B 4546  28.333  40.488   7.804
   69POPC   NC3 4547  41.209  18.519   9.533
   69POPC   PO4 4548  41.936  18.241   9.490
   69POPC   GL1 4549  41.671  18.422   9.182
   69POPC   GL2 4550  41.940  18.539   8.992
   69POPC   C1A 4551  41.562  18.240   8.775
   69POPC   D2A 4552  41.315  18.051   8.471
   69POPC   C3A 4553  41.550  18.152   8.115
   69POPC   C4A 4554  41.439  18.113   7.724
   69POPC   C1B 4555  42.056  18.103   8.847
   69POPC   C2B 4556  41.953  17.948   8.439
   69POPC   C3B 4557  42.062  18.195   8.069
   69POPC   C4B 4558  41.917  18.503   7.746
   70POPC   NC3 4559  18.652  25.845   9.608
   70POPC   PO4 4560  19.309  25.923   9.553
   70POPC   GL1 4561  19.214  26.011   9.128
   70POPC   GL2 4562  18.915  25.992   9.176
   70POPC   C1A 4563  19.330  26.012   8.714
   70POPC   D2A 4564  19.109  26.081   8.341
   70POPC   C3A 4565  19.247  26.224   7.946
   70POPC   C4A 4566  19.048  26.074   7.589
   70POPC   C1B 4567  18.784  26.031   8.771
   70POPC   C2B 4568  18.569  26.061   8.401
   70POPC   C3B 4569  18.715  26.113   8.010
   70POPC   C4B 4570  18.508  26.168   7.647
   71POPC   NC3 4571  34.348   4.853   9.411
   71POPC   PO4 4572  33.902   5.362   9.402
   71POPC   GL1 4573  34.251   5.291   9.113
   71POPC   GL2 4574  34.635   5.253   9.108
   71POPC   C1A 4575  34.342   5.128   8.700
   71POPC   D2A 4576  34.538   5.280   8.334
   71POPC   C3A 4577  34.293   5.248   7.983
   71POPC   C4A 4578  34.341   5.042   7.659
   71POPC   C1B 4579  34.865   5.084   8.727
   71POPC   C2B 4580  35.041   5.187   8.287
   71POPC   C3B 4581  34.877   5.000   7.895
   71POPC   C4B 4582  34.875   4.574   7.718
   72POPC   NC3 4583  13.422   1.130   9.866
   72POPC   PO4 4584  13.903   1.304   9.450
   72POPC   GL1 4585  13.646   1.118   9.129
   72POPC   GL2 4586  13.261   1.158   9.035
   72POPC   C1A 4587  13.563   0.887   8.763
   72POPC   D2A 4588  13.484   1.022   8.343
   72POPC   C3A 4589  13.724   0.968   7.959
   72POPC   C4A 4590  13.595   1.043   7.504
   72POPC   C1B 4591  13.504   1.413   8.722
   72POPC   C2B 4592  13.638   1.493   8.299
   72POPC   C3B 4593  13.414   1.391   7.944
   72POPC   C4B 4594  13.392   1.743   7.688
   73POPC   NC3 4595  16.610  40.908   9.392
   73POPC   PO4 4596  16.114  40.533   9.605
   73POPC   GL1 4597  16.389  40.507   9.150
   73POPC   GL2 4598  16.446  40.204   9.055
   73POPC   C1A 4599  16.571  40.795   8.731
   73POPC   D2A 4600  16.689  40.970   8.284
   73POPC   C3A 4601  17.017  40.768   7.964
   73POPC   C4A 4602  16.889  40.683   7.484
   73POPC   C1B 4603  16.579  40.306   8.671
   73POPC   C2B 4604  16.711  40.452   8.280
   73POPC   C3B 4605  16.543  40.593   7.896
   73POPC   C4B 4606  16.534  40.291   7.603
   74POPC   NC3 4607   4.120   5.149   9.610
   74POPC   PO4 4608   4.623   4.740   9.540
   74POPC   GL1 4609   4.408   5.023   9.192
   74POPC   GL2 4610   4.092   5.233   9.124
   74POPC   C1A 4611   4.334   5.007   8.732
   74POPC   D2A 4612   4.052   4.964   8.381
   74POPC   C3A 4613   4.300   4.915   8.022
   74POPC   C4A 4614   4.448   5.241   7.812
   74POPC   C1B 4615   4.103   5.451   8.748
   74POPC   C2B 4616   4.237   5.438   8.340
   74POPC   C3B 4617   4.035   5.453   7.988
   74POPC   C4B 4618   3.885   5.081   7.767
   75POPC   NC3 4619  11.867  23.358   9.567
   75POPC   PO4 4620  12.376  22.922   9.572
   75POPC   GL1 4621  12.147  22.964   9.211
   75POPC   GL2 4622  11.901  22.659   9.245
   75POPC   C1A 4623  12.361  23.072   8.779
   75POPC   D2A 4624  12.471  22.859   8.377
   75POPC   C3A 4625  12.177  22.863   8.013
   75POPC   C4A 4626  11.835  23.162   7.874
   75POPC   C1B 4627  12.070  22.660   8.827
   75POPC   C2B 4628  11.944  22.912   8.480
   75POPC   C3B 4629  11.710  22.751   8.160
   75POPC   C4B 4630  11.833  22.472   7.872
   76POPC   NC3 4631   6.962  29.648   9.256
   76POPC   PO4 4632   6.446  30.121   9.439
   76POPC   GL1 4633   6.337  29.986   9.042
   76POPC   GL2 4634   6.130  29.684   9.111
   76POPC   C1A 4635   6.659  29.986   8.675
   76POPC   D2A 4636   6.766  29.724   8.289
   76POPC   C3A 4637   6.582  29.939   7.911
   76POPC   C4A 4638   6.767  30.236   7.676
   76POPC   C1B 4639   6.295  29.618   8.684
   76POPC   C2B 4640   6.277  29.887   8.330
   76POPC   C3B 4641   6.174  29.642   7.997
   76POPC   C4B 4642   6.229  29.661   7.569
   77POPC   NC3 4643  27.262  12.161   9.428
   77POPC   PO4 4644  27.993  12.153   9.505
   77POPC   GL1 4645  27.721  12.107   9.178
   77POPC   GL2 4646  27.556  11.758   9.211
   77POPC   C1A 4647  27.650  12.014   8.766
   77POPC   D2A 4648  27.550  11.773   8.411
   77POPC   C3A 4649  27.745  11.917   8.043
   77POPC   C4A 4650  27.764  12.156   7.695
   77POPC   C1B 4651  27.233  11.770   8.874
   77POPC   C2B 4652  27.155  12.097   8.578
   77POPC   C3B 4653  27.227  12.067   8.141
   77POPC   C4B 4654  27.324  11.887   7.744
   78POPC   NC3 4655  42.749  32.091   9.600
   78POPC   PO4 4656  43.227  32.575   9.489
   78POPC   GL1 4657  42.950  32.486   9.187
   78POPC   GL2 4658  42.853  32.140   9.122
   78POPC   C1A 4659  43.105  32.379   8.773
   78POPC   D2A 4660  42.997  32.511   8.425
   78POPC   C3A 4661  43.092  32.229   8.137
   78POPC   C4A 4662  43.117  32.243   7.738
   78POPC   C1B 4663  42.646  31.947   8.788
   78POPC   C2B 4664  42.645  32.095   8.357
   78POPC   C3B 4665  42.689  32.011   7.913
   78POPC   C4B 4666  42.752  32.040   7.459
   79POPC   NC3 4667  30.141  12.993   9.500
   79POPC   PO4 4668  29.496  12.745   9.610
   79POPC   GL1 4669  29.694  12.918   9.233
   79POPC   GL2 4670  29.971  12.707   9.118
   79POPC   C1A 4671  29.651  12.975   8.790
   79POPC   D2A 4672  29.586  12.791   8.419
   79POPC   C3A 4673  29.637  13.031   8.063
   79POPC   C4A 4674  29.638  12.907   7.643
   79POPC   C1B 4675  30.105  12.717   8.687
   79POPC   C2B 4676  30.058  12.727   8.239
   79POPC   C3B 4677  30.158  12.881   7.863
   79POPC   C4B 4678  30.515  13.161   7.792
   80POPC   NC3 4679   2.169  19.003   9.634
   80POPC   PO4 4680   1.568  19.235   9.317
   80POPC   GL1 4681   1.906  18.972   9.161
   80POPC   GL2 4682   2.269  19.098   9.164
   80POPC   C1A 4683   1.866  18.992   8.718
   80POPC   D2A 4684   2.024  19.296   8.469
   80POPC   C3A 4685   1.914  19.221   8.041
   80POPC   C4A 4686   1.778  18.844   7.837
   80POPC   C1B 4687   2.323  18.823   8.855
   80POPC   C2B 4688   2.310  18.623   8.462
   80POPC   C3B 4689   2.234  18.801   8.092
   80POPC   C4B 4690   2.277  18.981   7.707
   81POPC   NC3 4691  43.400  14.635   9.444
   81POPC   PO4 4692  42.798  14.241   9.559
   81POPC   GL1 4693  42.945  14.432   9.227
   81POPC   GL2 4694  43.217  14.232   9.142
   81POPC   C1A 4695  42.922  14.504   8.795
   81POPC   D2A 4696  42.711  14.490   8.402
   81POPC   C3A 4697  43.015  14.502   8.060
   81POPC   C4A 4698  43.079  14.660   7.679
   81POPC   C1B 4699  43.349  14.067   8.748
   81POPC   C2B 4700  43.215  14.090   8.310
   81POPC   C3B 4701  43.285  13.886   7.879
   81POPC   C4B 4702  43.318  13.954   7.380
   82POPC   NC3 4703   0.593  33.523   9.644
   82POPC   PO4 4704   0.056  33.638   9.229
   82POPC   GL1 4705   0.482  33.690   9.053
   82POPC   GL2 4706   0.751  33.453   9.148
   82POPC   C1A 4707   0.636  33.967   8.733
   82POPC   D2A 4708   0.421  34.192   8.409
   82POPC   C3A 4709   0.276  33.951   8.099
   82POPC   C4A 4710   0.565  33.930   7.817
   82POPC   C1B 4711   0.879  33.508   8.673
   82POPC   C2B 4712   0.712  33.553   8.203
   82POPC   C3B 4713   0.759  33.478   7.709
   82POPC   C4B 4714   0.841  33.420   7.244
   83POPC   NC3 4715  15.111  10.197   9.738
   83POPC   PO4 4716  14.801   9.593   9.527
   83POPC   GL1 4717  15.124   9.688   9.171
   83POPC   GL2 4718  15.480   9.494   9.192
   83POPC   C1A 4719  15.427   9.876   8.827
   83POPC   D2A 4720  15.527  10.107   8.421
   83POPC   C3A 4721  15.169  10.085   8.109
   83POPC   C4A 4722  15.039   9.934   7.709
   83POPC   C1B 4723  15.285   9.390   8.783
   83POPC   C2B 4724  15.177   9.621   8.393
   83POPC   C3B 4725  15.162   9.501   7.966
   83POPC   C4B 4726  15.426   9.363   7.622
   84POPC   NC3 4727  31.662  19.808   9.350
   84POPC   PO4 4728  32.180  19.787   9.760
   84POPC   GL1 4729  32.183  19.857   9.284
   84POPC   GL2 4730  32.403  19.577   9.188
   84POPC   C1A 4731  32.067  19.934   8.808
   84POPC   D2A 4732  32.177  20.190   8.419
   84POPC   C3A 4733  32.065  20.143   7.994
   84POPC   C4A 4734  32.258  19.983   7.657
   84POPC   C1B 4735  32.527  19.684   8.775
   84POPC   C2B 4736  32.324  19.663   8.397
   84POPC   C3B 4737  32.102  19.637   8.025
   84POPC   C4B 4738  32.092  19.504   7.617
   85POPC   NC3 4739   5.058  12.560   9.437
   85POPC   PO4 4740   5.219  11.954   9.667
   85POPC   GL1 4741   5.169  12.029   9.212
   85POPC   GL2 4742   5.409  11.797   9.036
   85POPC   C1A 4743   4.962  11.991   8.816
   85POPC   D2A 4744   5.107  11.871   8.399
   85POPC   C3A 4745   4.781  11.879   8.059
   85POPC   C4A 4746   4.839  12.138   7.696
   85POPC   C1B 4747   5.435  12.157   8.728
   85POPC   C2B 4748   5.403  12.314   8.316
   85POPC   C3B 4749   5.277  12.044   7.938
   85POPC   C4B 4750   5.350  12.239   7.502
   86POPC   NC3 4751  16.874  27.136   9.546
   86POPC   PO4 4752  16.667  26.467   9.682
   86POPC   GL1 4753  16.721  26.712   9.288
   86POPC   GL2 4754  16.421  26.710   9.118
   86POPC   C1A 4755  16.811  26.942   8.871
   86POPC   D2A 4756  16.873  26.778   8.408
   86POPC   C3A 4757  16.849  27.023   8.018
   86POPC   C4A 4758  16.847  27.052   7.570
   86POPC   C1B 4759  16.590  26.491   8.745
   86POPC   C2B 4760  16.583  26.363   8.309
   86POPC   C3B 4761  16.724  26.517   7.906
   86POPC   C4B 4762  16.596  26.641   7.487
   87POPC   NC3 4763  11.235  22.584   9.516
   87POPC   PO4 4764  11.422  23.212   9.505
   87POPC   GL1 4765  11.245  22.975   9.152
   87POPC   GL2 4766  11.420  22.658   9.051
   87POPC   C1A 4767  11.188  22.980   8.708
   87POPC   D2A 4768  11.029  23.144   8.330
   87POPC   C3A 4769  11.338  23.091   8.055
   87POPC   C4A 4770  11.220  23.181   7.694
   87POPC   C1B 4771  11.526  22.603   8.632
   87POPC   C2B 4772  11.237  22.637   8.273
   87POPC   C3B 4773  11.348  22.653   7.788
   87POPC   C4B 4774  11.613  22.561   7.388
   88POPC   NC3 4775  23.275  13.702   9.466
   88POPC   PO4 4776  22.643  13.900   9.561
   88POPC   GL1 4777  22.809  13.571   9.229
   88POPC   GL2 4778  23.098  13.292   9.228
   88POPC   C1A 4779  22.983  13.596   8.820
   88POPC   D2A 4780  22.873  13.570   8.398
   88POPC   C3A 4781  23.002  13.872   8.100
   88POPC   C4A 4782  22.664  13.748   7.799
   88POPC   C1B 4783  23.319  13.196   8.847
   88POPC   C2B 4784  23.231  13.107   8.417
   88POPC   C3B 4785  23.332  13.234   8.000
   88POPC   C4B 4786  23.229  13.580   7.765
   89POPC   NC3 4787   1.334  33.781   9.501
   89POPC   PO4 4788   0.676  33.928   9.456
   89POPC   GL1 4789   1.009  33.889   9.114
   89POPC   GL2 4790   1.235  33.575   9.063
   89POPC   C1A 4791   1.159  33.941   8.686
   89POPC   D2A 4792   0.919  34.037   8.298
   89POPC   C3A 4793   1.092  33.789   7.971
   89POPC   C4A 4794   1.218  33.688   7.557
   89POPC   C1B 4795   1.476  33.530   8.719
   89POPC   C2B 4796   1.487  33.690   8.307
   89POPC   C3B 4797   1.621  33.534   7.924
   89POPC   C4B 4798   1.663  33.535   7.450
   90POPC   NC3 4799  44.712  23.237   9.531
   90POPC   PO4 4800  44.758  22.590   9.610
   90POPC   GL1 4801  44.513  22.780   9.198
   90POPC   GL2 4802  44.333  23.122   9.157
   90POPC   C1A 4803  44.506  22.803   8.711
   90POPC   D2A 4804  44.531  22.753   8.239
   90POPC   C3A 4805  44.882  22.913   7.995
   90POPC   C4A 4806   0.218  22.784   7.700
   90POPC   C1B 4807  44.324  23.304   8.743
   90POPC   C2B 4808  44.254  23.164   8.351
   90POPC   C3B 4809  44.423  23.196   7.992
   90POPC   C4B 4810  44.591  23.128   7.615
   91POPC   NC3 4811  17.936  31.562   9.457
   91POPC   PO4 4812  17.159  31.435   9.480
   91POPC   GL1 4813  17.310  31.581   9.039
   91POPC   GL2 4814  17.695  31.607   9.015
   91POPC   C1A 4815  17.261  31.483   8.596
   91POPC   D2A 4816  17.328  31.726   8.227
   91POPC   C3A 4817  17.433  31.497   7.909
   91POPC   C4A 4818  17.222  31.481   7.527
   91POPC   C1B 4819  17.751  31.310   8.688
   91POPC   C2B 4820  17.616  31.228   8.307
   91POPC   C3B 4821  17.690  31.037   7.959
   91POPC   C4B 4822  17.580  31.102   7.558
   92POPC   NC3 4823   1.952  28.110   9.723
   92POPC   PO4 4824   1.931  27.628   9.315
   92POPC   GL1 4825   2.053  27.859   8.977
   92POPC   GL2 4826   1.749  27.914   8.798
   92POPC   C1A 4827   2.249  27.639   8.661
   92POPC   D2A 4828   2.376  27.732   8.277
   92POPC   C3A 4829   2.206  27.542   7.934
   92POPC   C4A 4830   2.412  27.572   7.564
   92POPC   C1B 4831   1.767  27.464   8.704
   92POPC   C2B 4832   1.943  27.304   8.359
   92POPC   C3B 4833   1.728  27.348   8.003
   92POPC   C4B 4834   1.741  27.795   7.932
   93POPC   NC3 4835  30.869  27.154   9.389
   93POPC   PO4 4836  30.289  26.882   9.596
   93POPC   GL1 4837  30.572  26.678   9.263
   93POPC   GL2 4838  30.494  26.934   9.094
   93POPC   C1A 4839  30.881  26.719   8.852
   93POPC   D2A 4840  30.960  26.446   8.493
   93POPC   C3A 4841  30.714  26.596   8.160
   93POPC   C4A 4842  30.683  26.680   7.754
   93POPC   C1B 4843  30.314  27.102   8.751
   93POPC   C2B 4844  30.382  26.932   8.393
   93POPC   C3B 4845  30.348  27.061   8.014
   93POPC   C4B 4846  30.218  26.889   7.668
   94POPC   NC3 4847   2.637  38.204   9.435
   94POPC   PO4 4848   2.992  38.746   9.613
   94POPC   GL1 4849   2.975  38.537   9.183
   94POPC   GL2 4850   3.019  38.154   9.084
   94POPC   C1A 4851   2.837  38.519   8.741
   94POPC   D2A 4852   3.053  38.543   8.350
   94POPC   C3A 4853   2.881  38.689   7.951
   94POPC   C4A 4854   2.905  38.804   7.505
   94POPC   C1B 4855   2.638  38.047   8.795
   94POPC   C2B 4856   2.576  38.163   8.365
   94POPC   C3B 4857   2.838  38.185   8.002
   94POPC   C4B 4858   2.708  38.280   7.595
   95POPC   NC3 4859  14.551  41.868   9.543
   95POPC   PO4 4860  14.170  41.395   9.664
   95POPC   GL1 4861  14.205  41.442   9.198
   95POPC   GL2 4862  14.244  41.800   9.133
   95POPC   C1A 4863  14.326  41.176   8.813
   95POPC   D2A 4864  14.734  41.250   8.566
   95POPC   C3A 4865  14.650  41.267   8.112
   95POPC   C4A 4866  14.724  41.401   7.680
   95POPC   C1B 4867  14.474  41.651   8.801
   95POPC   C2B 4868  14.280  41.573   8.414
   95POPC   C3B 4869  14.343  41.672   7.996
   95POPC   C4B 4870  14.618  41.902   7.758
   96POPC   NC3 4871  20.556  41.750   9.615
   96POPC   PO4 4872  20.665  41.172   9.403
   96POPC   GL1 4873  20.529  41.537   9.152
   96POPC   GL2 4874  20.775  41.839   9.163
   96POPC   C1A 4875  20.548  41.629   8.723
   96POPC   D2A 4876  20.397  41.456   8.341
   96POPC   C3A 4877  20.514  41.672   7.988
   96POPC   C4A 4878  20.828  41.582   7.713
   96POPC   C1B 4879  20.988  41.891   8.774
   96POPC   C2B 4880  20.865  41.851   8.335
   96POPC   C3B 4881  21.022  42.002   7.930
   96POPC   C4B 4882  20.973  41.965   7.416
   97POPC   NC3 4883   9.494  37.115   9.450
   97POPC   PO4 4884  10.156  37.105   9.749
   97POPC   GL1 4885   9.989  36.995   9.304
   97POPC   GL2 4886   9.805  36.677   9.254
   97POPC   C1A 4887   9.892  37.012   8.836
   97POPC   D2A 4888   9.968  37.111   8.377
   97POPC   C3A 4889   9.808  36.981   7.938
   97POPC   C4A 4890  10.008  36.852   7.506
   97POPC   C1B 4891   9.889  36.521   8.821
   97POPC   C2B 4892   9.785  36.598   8.366
   97POPC   C3B 4893   9.902  36.495   7.915
   97POPC   C4B 4894   9.634  36.526   7.529
   98POPC   NC3 4895  25.878  39.986   9.450
   98POPC   PO4 4896  26.078  39.365   9.474
   98POPC   GL1 4897  26.087  39.221   9.054
   98POPC   GL2 4898  26.132  39.584   8.990
   98POPC   C1A 4899  26.014  39.044   8.602
   98POPC   D2A 4900  26.005  39.245   8.179
   98POPC   C3A 4901  26.019  39.036   7.773
   98POPC   C4A 4902  26.182  38.971   7.342
   98POPC   C1B 4903  25.765  39.473   8.733
   98POPC   C2B 4904  25.589  39.533   8.320
   98POPC   C3B 4905  25.740  39.657   7.937
   98POPC   C4B 4906  25.966  39.559   7.557
   99POPC   NC3 4907  40.057  18.452   9.428
   99POPC   PO4 4908  40.245  17.839   9.209
   99POPC   GL1 4909  39.904  18.113   9.088
   99POPC   GL2 4910  40.187  18.343   8.953
   99POPC   C1A 4911  39.707  18.353   8.756
   99POPC   D2A 4912  39.918  18.179   8.384
   99POPC   C3A 4913  39.884  18.373   7.982
   99POPC   C4A 4914  39.772  18.276   7.547
   99POPC   C1B 4915  40.457  18.561   8.660
   99POPC   C2B 4916  40.302  18.531   8.303
   99POPC   C3B 4917  40.402  18.670   7.960
   99POPC   C4B 4918  40.226  18.488   7.629
  100POPC   NC3 4919  41.849  31.819   9.258
  100POPC   PO4 4920  41.891  32.414   9.541
  100POPC   GL1 4921  41.902  32.464   9.140
  100POPC   GL2 4922  41.612  32.230   9.056
  100POPC   C1A 4923  41.787  32.565   8.734
  100POPC   D2A 4924  41.774  32.286   8.425
  100POPC   C3A 4925  41.693  32.428   8.024
  100POPC   C4A 4926  41.856  32.243   7.667
  100POPC   C1B 4927  41.455  31.940   8.700
  100POPC   C2B 4928  41.504  31.900   8.241
  100POPC   C3B 4929  41.350  32.074   7.839
  100POPC   C4B 4930  41.471  32.113   7.375
  101POPC   NC3 4931  16.993  22.486   9.567
  101POPC   PO4 4932  16.341  22.271   9.829
  101POPC   GL1 4933  16.480  22.293   9.400
  101POPC   GL2 4934  16.754  22.054   9.341
  101POPC   C1A 4935  16.560  22.373   8.966
  101POPC   D2A 4936  16.721  22.236   8.537
  101POPC   C3A 4937  16.638  22.409   8.166
  101POPC   C4A 4938  16.909  22.382   7.811
  101POPC   C1B 4939  16.816  21.925   8.905
  101POPC   C2B 4940  17.011  21.770   8.499
  101POPC   C3B 4941  16.909  21.945   8.098
  101POPC   C4B 4942  16.881  21.758   7.708
  102POPC   NC3 4943  19.121   6.469   9.587
  102POPC   PO4 4944  18.611   6.222   9.289
  102POPC   GL1 4945  19.019   6.389   9.086
  102POPC   GL2 4946  19.179   6.707   9.138
  102POPC   C1A 4947  19.261   6.497   8.688
  102POPC   D2A 4948  19.198   6.318   8.304
  102POPC   C3A 4949  19.225   6.530   7.931
  102POPC   C4A 4950  18.880   6.423   7.722
  102POPC   C1B 4951  19.276   7.006   8.819
  102POPC   C2B 4952  19.231   7.063   8.379
  102POPC   C3B 4953  19.383   7.035   7.931
  102POPC   C4B 4954  19.381   6.938   7.474
  103POPC   NC3 4955   8.928   4.671   9.415
  103POPC   PO4 4956   9.243   4.068   9.598
  103POPC   GL1 4957   9.150   4.250   9.198
  103POPC   GL2 4958   9.362   4.534   9.140
  103POPC   C1A 4959   8.936   4.332   8.808
  103POPC   D2A 4960   8.774   4.139   8.444
  103POPC   C3A 4961   8.860   4.305   8.058
  103POPC   C4A 4962   9.080   4.176   7.713
  103POPC   C1B 4963   9.451   4.374   8.787
  103POPC   C2B 4964   9.276   4.283   8.416
  103POPC   C3B 4965   9.338   4.489   8.046
  103POPC   C4B 4966   9.353   4.658   7.641
  104POPC   NC3 4967  33.155  42.317   9.390
  104POPC   PO4 4968  32.546  42.340   9.540
  104POPC   GL1 4969  32.742  42.319   9.096
  104POPC   GL2 4970  32.845  42.040   8.872
  104POPC   C1A 4971  32.749  42.495   8.658
  104POPC   D2A 4972  32.894  42.307   8.261
  104POPC   C3A 4973  32.680  42.299   7.837
  104POPC   C4A 4974  32.739  42.094   7.363
  104POPC   C1B 4975  33.226  42.268   8.724
  104POPC   C2B 4976  33.421  42.238   8.328
  104POPC   C3B 4977  33.276  42.350   7.916
  104POPC   C4B 4978  33.492  42.475   7.563
  105POPC   NC3 4979  35.111   5.976   9.488
  105POPC   PO4 4980  35.513   5.519   9.515
  105POPC   GL1 4981  35.338   5.676   9.129
  105POPC   GL2 4982  35.156   5.401   9.007
  105POPC   C1A 4983  35.258   5.980   8.763
  105POPC   D2A 4984  35.482   6.048   8.351
  105POPC   C3A 4985  35.307   5.986   7.945
  105POPC   C4A 4986  35.133   6.246   7.617
  105POPC   C1B 4987  34.974   5.568   8.665
  105POPC   C2B 4988  34.974   5.795   8.324
  105POPC   C3B 4989  34.943   5.634   7.970
  105POPC   C4B 4990  35.192   5.369   7.771
  106POPC   NC3 4991   8.591   8.623   9.369
  106POPC   PO4 4992   8.284   7.964   9.444
  106POPC   GL1 4993   8.301   8.264   9.141
  106POPC   GL2 4994   7.939   8.331   9.083
  106POPC   C1A 4995   8.596   8.346   8.772
  106POPC   D2A 4996   8.545   8.130   8.371
  106POPC   C3A 4997   8.471   8.360   7.983
  106POPC   C4A 4998   8.374   8.186   7.572
  106POPC   C1B 4999   8.139   8.557   8.758
  106POPC   C2B 5000   8.098   8.427   8.344
  106POPC   C3B 5001   7.904   8.385   7.953
  106POPC   C4B 5002   7.884   8.324   7.525
  107POPC   NC3 5003  22.268   3.465   9.610
  107POPC   PO4 5004  21.675   3.843   9.553
  107POPC   GL1 5005  22.011   3.692   9.222
  107POPC   GL2 5006  22.404   3.715   9.165
  107POPC   C1A 5007  22.087   3.673   8.781
  107POPC   D2A 5008  21.995   3.484   8.419
  107POPC   C3A 5009  22.203   3.635   8.082
  107POPC   C4A 5010  22.065   3.719   7.662
  107POPC   C1B 5011  22.563   3.425   8.779
  107POPC   C2B 5012  22.547   3.312   8.346
  107POPC   C3B 5013  22.510   3.270   7.899
  107POPC   C4B 5014  22.431   3.391   7.455
  108POPC   NC3 5015  29.715  40.300   9.314
  108POPC   PO4 5016  29.644  40.893   9.679
  108POPC   GL1 5017  29.848  40.764   9.181
  108POPC   GL2 5018  29.599  40.661   9.009
  108POPC   C1A 5019  29.788  40.981   8.697
  108POPC   D2A 5020  29.908  41.181   8.298
  108POPC   C3A 5021  29.957  40.920   7.922
  108POPC   C4A 5022  29.761  40.899   7.488
  108POPC   C1B 5023  29.775  40.416   8.654
  108POPC   C2B 5024  29.673  40.336   8.227
  108POPC   C3B 5025  29.703  40.477   7.812
  108POPC   C4B 5026  30.088  40.534   7.614
  109POPC   NC3 5027   4.506   8.122   9.407
  109POPC   PO4 5028   3.864   8.487   9.434
  109POPC   GL1 5029   4.129   8.293   9.118
  109POPC   GL2 5030   3.928   8.026   9.050
  109POPC   C1A 5031   4.388   8.083   8.758
  109POPC   D2A 5032   4.519   7.836   8.383
  109POPC   C3A 5033   4.524   8.047   7.974
  109POPC   C4A 5034   4.602   8.485   7.883
  109POPC   C1B 5035   3.894   8.261   8.674
  109POPC   C2B 5036   4.157   8.249   8.316
  109POPC   C3B 5037   4.092   8.343   7.908
  109POPC   C4B 5038   3.901   8.347   7.473
  110POPC   NC3 5039  15.432  13.890   9.433
  110POPC   PO4 5040  14.820  14.082   9.423
  110POPC   GL1 5041  15.011  13.818   9.110
  110POPC   GL2 5042  15.178  13.489   9.217
  110POPC   C1A 5043  15.026  13.596   8.721
  110POPC   D2A 5044  15.084  13.416   8.304
  110POPC   C3A 5045  15.073  13.688   7.927
  110POPC   C4A 5046  14.783  14.037   7.846
  110POPC   C1B 5047  15.515  13.495   8.898
  110POPC   C2B 5048  15.526  13.585   8.493
  110POPC   C3B 5049  15.573  13.377   8.106
  110POPC   C4B 5050  15.570  13.477   7.677
  111POPC   NC3 5051  24.468  12.482   9.569
  111POPC   PO4 5052  24.563  13.147   9.529
  111POPC   GL1 5053  24.399  12.857   9.197
  111POPC   GL2 5054  24.095  12.679   9.266
  111POPC   C1A 5055  24.565  12.832   8.759
  111POPC   D2A 5056  24.853  12.757   8.416
  111POPC   C3A 5057  24.696  12.620   8.009
  111POPC   C4A 5058  24.472  12.844   7.690
  111POPC   C1B 5059  24.123  12.572   8.818
  111POPC   C2B 5060  24.251  12.656   8.367
  111POPC   C3B 5061  24.179  12.488   7.936
  111POPC   C4B 5062  24.154  12.529   7.445
  112POPC   NC3 5063  27.434  35.704   9.988
  112POPC   PO4 5064  27.841  35.438   9.475
  112POPC   GL1 5065  27.713  35.403   9.083
  112POPC   GL2 5066  27.383  35.266   9.065
  112POPC   C1A 5067  27.560  35.590   8.731
  112POPC   D2A 5068  27.585  35.345   8.405
  112POPC   C3A 5069  27.534  35.626   8.108
  112POPC   C4A 5070  27.568  35.489   7.713
  112POPC   C1B 5071  27.228  35.035   8.692
  112POPC   C2B 5072  27.334  34.842   8.272
  112POPC   C3B 5073  27.407  34.962   7.837
  112POPC   C4B 5074  27.273  35.142   7.434
  113POPC   NC3 5075  34.512  13.718   9.705
  113POPC   PO4 5076  35.042  13.320   9.582
  113POPC   GL1 5077  34.813  13.558   9.237
  113POPC   GL2 5078  34.468  13.562   9.164
  113POPC   C1A 5079  34.814  13.794   8.804
  113POPC   D2A 5080  35.021  14.018   8.447
  113POPC   C3A 5081  34.910  13.803   8.089
  113POPC   C4A 5082  35.037  13.652   7.683
  113POPC   C1B 5083  34.272  13.676   8.771
  113POPC   C2B 5084  34.171  13.487   8.384
  113POPC   C3B 5085  34.243  13.780   8.067
  113POPC   C4B 5086  34.530  13.786   7.753
  114POPC   NC3 5087  21.653   2.951   9.467
  114POPC   PO4 5088  21.279   2.458   9.443
  114POPC   GL1 5089  21.363   2.704   9.108
  114POPC   GL2 5090  21.694   2.609   9.025
  114POPC   C1A 5091  21.228   2.681   8.706
  114POPC   D2A 5092  21.224   2.425   8.361
  114POPC   C3A 5093  21.470   2.610   8.047
  114POPC   C4A 5094  21.277   2.742   7.652
  114POPC   C1B 5095  21.667   2.961   8.745
  114POPC   C2B 5096  21.659   3.097   8.315
  114POPC   C3B 5097  21.535   3.093   7.878
  114POPC   C4B 5098  21.516   3.093   7.392
  115POPC   NC3 5099  35.803  20.772   9.361
  115POPC   PO4 5100  35.134  20.460   9.433
  115POPC   GL1 5101  35.339  20.686   9.137
  115POPC   GL2 5102  35.621  20.480   8.983
  115POPC   C1A 5103  35.328  20.824   8.730
  115POPC   D2A 5104  35.660  20.710   8.463
  115POPC   C3A 5105  35.526  20.549   8.060
  115POPC   C4A 5106  35.192  20.720   7.805
  115POPC   C1B 5107  35.271  20.306   8.751
  115POPC   C2B 5108  35.199  20.148   8.350
  115POPC   C3B 5109  35.114  20.238   7.923
  115POPC   C4B 5110  35.441  20.276   7.608
  116POPC   NC3 5111  27.920  19.847   9.568
  116POPC   PO4 5112  27.349  20.132   9.351
  116POPC   GL1 5113  27.600  19.848   9.126
  116POPC   GL2 5114  27.911  19.978   9.063
  116POPC   C1A 5115  27.697  19.618   8.741
  116POPC   D2A 5116  27.482  19.584   8.337
  116POPC   C3A 5117  27.606  19.423   7.907
  116POPC   C4A 5118  27.690  19.554   7.476
  116POPC   C1B 5119  27.963  20.030   8.613
  116POPC   C2B 5120  27.983  19.767   8.271
  116POPC   C3B 5121  27.955  19.825   7.830
  116POPC   C4B 5122  27.922  19.985   7.382
  117POPC   NC3 5123  29.845  23.674   9.575
  117POPC   PO4 5124  30.426  23.382   9.388
  117POPC   GL1 5125  30.116  23.673   9.154
  117POPC   GL2 5126  30.316  23.888   9.031
  117POPC   C1A 5127  29.794  23.750   8.795
  117POPC   D2A 5128  29.704  23.481   8.401
  117POPC   C3A 5129  29.618  23.736   8.061
  117POPC   C4A 5130  29.879  23.694   7.744
  117POPC   C1B 5131  30.253  23.597   8.654
  117POPC   C2B 5132  30.128  23.699   8.228
  117POPC   C3B 5133  30.344  23.795   7.862
  117POPC   C4B 5134  30.251  23.795   7.409
  118POPC   NC3 5135   9.159  28.043   9.347
  118POPC   PO4 5136   8.624  27.660   9.593
  118POPC   GL1 5137   8.897  27.541   9.208
  118POPC   GL2 5138   9.289  27.505   9.264
  118POPC   C1A 5139   8.742  27.528   8.761
  118POPC   D2A 5140   8.694  27.215   8.402
  118POPC   C3A 5141   8.690  27.436   7.996
  118POPC   C4A 5142   8.923  27.508   7.625
  118POPC   C1B 5143   9.355  27.690   8.858
  118POPC   C2B 5144   9.185  27.638   8.468
  118POPC   C3B 5145   9.308  27.634   8.078
  118POPC   C4B 5146   9.407  27.638   7.681
  119POPC   NC3 5147  18.114  31.662   9.979
  119POPC   PO4 5148  18.364  31.341   9.485
  119POPC   GL1 5149  18.279  31.547   9.101
  119POPC   GL2 5150  18.075  31.263   9.054
  119POPC   C1A 5151  18.221  31.560   8.666
  119POPC   D2A 5152  18.331  31.515   8.281
  119POPC   C3A 5153  18.024  31.444   7.993
  119POPC   C4A 5154  18.074  31.256   7.635
  119POPC   C1B 5155  18.442  31.125   8.798
  119POPC   C2B 5156  18.665  31.139   8.407
  119POPC   C3B 5157  18.515  31.123   7.989
  119POPC   C4B 5158  18.517  30.995   7.553
  120POPC   NC3 5159   7.038  14.239   9.455
  120POPC   PO4 5160   6.330  14.100   9.514
  120POPC   GL1 5161   6.599  14.142   9.172
  120POPC   GL2 5162   6.687  14.502   9.164
  120POPC   C1A 5163   6.643  14.216   8.718
  120POPC   D2A 5164   6.601  14.506   8.345
  120POPC   C3A 5165   6.580  14.343   7.942
  120POPC   C4A 5166   6.289  14.065   7.737
  120POPC   C1B 5167   6.941  14.635   8.789
  120POPC   C2B 5168   7.099  14.443   8.385
  120POPC   C3B 5169   7.073  14.574   7.942
  120POPC   C4B 5170   7.186  14.432   7.510
  121POPC   NC3 5171  15.257  37.846   9.559
  121POPC   PO4 5172  15.641  37.235   9.564
  121POPC   GL1 5173  15.347  37.499   9.219
  121POPC   GL2 5174  14.987  37.578   9.191
  121POPC   C1A 5175  15.271  37.787   8.827
  121POPC   D2A 5176  15.372  37.723   8.403
  121POPC   C3A 5177  15.405  37.953   8.025
  121POPC   C4A 5178  15.244  37.642   7.754
  121POPC   C1B 5179  14.694  37.517   8.856
  121POPC   C2B 5180  14.714  37.409   8.417
  121POPC   C3B 5181  14.567  37.467   8.009
  121POPC   C4B 5182  14.731  37.662   7.666
  122POPC   NC3 5183  38.470   4.756   9.633
  122POPC   PO4 5184  38.482   4.113   9.551
  122POPC   GL1 5185  38.590   4.309   9.189
  122POPC   GL2 5186  38.327   4.499   9.133
  122POPC   C1A 5187  38.449   4.169   8.783
  122POPC   D2A 5188  38.187   4.170   8.465
  122POPC   C3A 5189  38.428   3.977   8.153
  122POPC   C4A 5190  38.396   4.000   7.724
  122POPC   C1B 5191  38.359   4.679   8.723
  122POPC   C2B 5192  38.175   4.724   8.322
  122POPC   C3B 5193  38.196   4.422   7.987
  122POPC   C4B 5194  38.320   4.477   7.559
  123POPC   NC3 5195  27.989   3.844   9.443
  123POPC   PO4 5196  28.335   3.307   9.680
  123POPC   GL1 5197  28.159   3.376   9.272
  123POPC   GL2 5198  27.996   3.091   9.141
  123POPC   C1A 5199  28.311   3.625   8.894
  123POPC   D2A 5200  28.184   3.940   8.546
  123POPC   C3A 5201  28.393   3.845   8.145
  123POPC   C4A 5202  28.276   3.677   7.757
  123POPC   C1B 5203  28.061   3.202   8.762
  123POPC   C2B 5204  28.198   3.414   8.412
  123POPC   C3B 5205  28.230   3.231   8.016
  123POPC   C4B 5206  27.911   3.212   7.730
  124POPC   NC3 5207  16.841  17.337   9.645
  124POPC   PO4 5208  16.375  17.501   9.287
  124POPC   GL1 5209  16.659  17.565   9.064
  124POPC   GL2 5210  16.938  17.658   9.256
  124POPC   C1A 5211  16.585  17.398   8.663
  124POPC   D2A 5212  16.332  17.365   8.323
  124POPC   C3A 5213  16.614  17.355   7.990
  124POPC   C4A 5214  16.537  17.136   7.584
  124POPC   C1B 5215  17.059  17.615   8.767
  124POPC   C2B 5216  17.019  17.310   8.386
  124POPC   C3B 5217  17.128  17.377   7.944
  124POPC   C4B 5218  16.906  17.493   7.571
  125POPC   NC3 5219   3.751   6.410   9.634
  125POPC   PO4 5220   3.356   6.952   9.522
  125POPC   GL1 5221   3.441   6.598   9.257
  125POPC   GL2 5222   3.796   6.612   9.176
  125POPC   C1A 5223   3.411   6.581   8.808
  125POPC   D2A 5224   3.522   6.847   8.457
  125POPC   C3A 5225   3.451   6.612   8.122
  125POPC   C4A 5226   3.472   6.677   7.690
  125POPC   C1B 5227   3.911   6.803   8.810
  125POPC   C2B 5228   3.973   6.617   8.417
  125POPC   C3B 5229   3.921   6.771   7.998
  125POPC   C4B 5230   3.942   6.483   7.663
  126POPC   NC3 5231  29.726  13.910   9.524
  126POPC   PO4 5232  30.207  13.444   9.533
  126POPC   GL1 5233  30.048  13.678   9.214
  126POPC   GL2 5234  29.783  13.444   9.229
  126POPC   C1A 5235  29.918  13.768   8.804
  126POPC   D2A 5236  30.047  13.709   8.381
  126POPC   C3A 5237  29.805  13.817   7.996
  126POPC   C4A 5238  29.757  14.131   7.647
  126POPC   C1B 5239  30.049  13.260   8.897
  126POPC   C2B 5240  30.016  13.193   8.454
  126POPC   C3B 5241  30.046  13.346   8.031
  126POPC   C4B 5242  30.109  13.364   7.602
  127POPC   NC3 5243  40.236  41.626   9.425
  127POPC   PO4 5244  39.537  41.627   9.522
  127POPC   GL1 5245  39.766  41.649   9.120
  127POPC   GL2 5246  40.122  41.741   8.954
  127POPC   C1A 5247  39.727  41.550   8.684
  127POPC   D2A 5248  40.017  41.708   8.371
  127POPC   C3A 5249  40.039  41.498   7.983
  127POPC   C4A 5250  39.691  41.464   7.718
  127POPC   C1B 5251  40.414  41.918   8.630
  127POPC   C2B 5252  40.495  41.907   8.168
  127POPC   C3B 5253  40.388  41.786   7.753
  127POPC   C4B 5254  40.373  41.423   7.446
  128POPC   NC3 5255  17.349  43.843   9.589
  128POPC   PO4 5256  17.898  43.756   9.204
  128POPC   GL1 5257  17.504  43.911   9.091
  128POPC   GL2 5258  17.214  43.705   9.103
  128POPC   C1A 5259  17.390  43.936   8.662
  128POPC   D2A 5260  17.632  43.743   8.342
  128POPC   C3A 5261  17.483  43.819   7.932
  128POPC   C4A 5262  17.137  43.910   7.683
  128POPC   C1B 5263  17.072  43.528   8.703
  128POPC   C2B 5264  17.137  43.600   8.255
  128POPC   C3B 5265  17.175  43.403   7.831
  128POPC   C4B 5266  17.360  43.514   7.424
  129POPC   NC3 5267   6.647  30.563   9.475
  129POPC   PO4 5268   7.021  31.117   9.320
  129POPC   GL1 5269   6.859  30.814   9.040
  129POPC   GL2 5270   6.533  30.872   9.058
  129POPC   C1A 5271   6.857  30.561   8.616
  129POPC   D2A 5272   6.812  30.288   8.258
  129POPC   C3A 5273   6.817  30.612   7.985
  129POPC   C4A 5274   6.808  30.814   7.608
  129POPC   C1B 5275   6.457  30.452   8.869
  129POPC   C2B 5276   6.353  30.377   8.473
  129POPC   C3B 5277   6.340  30.422   8.067
  129POPC   C4B 5278   6.308  30.547   7.655
  130POPC   NC3 5279   8.140  24.797   9.640
  130POPC   PO4 5280   8.379  24.108   9.422
  130POPC   GL1 5281   8.300  24.263   9.058
  130POPC   GL2 5282   8.142  24.548   9.171
  130POPC   C1A 5283   7.991  24.302   8.731
  130POPC   D2A 5284   7.910  24.392   8.298
  130POPC   C3A 5285   8.113  24.088   8.025
  130POPC   C4A 5286   8.261  24.131   7.588
  130POPC   C1B 5287   7.993  24.855   8.888
  130POPC   C2B 5288   8.071  24.933   8.466
  130POPC   C3B 5289   8.172  24.766   8.076
  130POPC   C4B 5290   8.287  24.776   7.655
  131POPC   NC3 5291   7.068   8.706   9.825
  131POPC   PO4 5292   6.442   8.838   9.737
  131POPC   GL1 5293   6.706   9.137   9.362
  131POPC   GL2 5294   6.535   9.366   9.102
  131POPC   C1A 5295   6.930   9.162   8.898
  131POPC   D2A 5296   6.745   8.848   8.599
  131POPC   C3A 5297   6.730   8.886   8.166
  131POPC   C4A 5298   6.738   8.672   7.805
  131POPC   C1B 5299   6.398   9.441   8.721
  131POPC   C2B 5300   6.693   9.392   8.404
  131POPC   C3B 5301   6.564   9.388   8.001
  131POPC   C4B 5302   6.615   9.149   7.677
  132POPC   NC3 5303  28.892  21.702   9.483
  132POPC   PO4 5304  29.396  22.274   9.630
  132POPC   GL1 5305  29.232  22.263   9.204
  132POPC   GL2 5306  29.026  21.977   9.073
  132POPC   C1A 5307  29.191  22.333   8.757
  132POPC   D2A 5308  28.938  22.323   8.394
  132POPC   C3A 5309  29.223  22.382   8.066
  132POPC   C4A 5310  29.312  22.108   7.741
  132POPC   C1B 5311  29.126  21.756   8.671
  132POPC   C2B 5312  28.951  21.775   8.273
  132POPC   C3B 5313  28.834  22.056   7.955
  132POPC   C4B 5314  28.920  21.841   7.568
  133POPC   NC3 5315  39.515  16.786   9.686
  133POPC   PO4 5316  38.885  16.730   9.559
  133POPC   GL1 5317  39.153  16.751   9.223
  133POPC   GL2 5318  39.340  17.074   9.299
  133POPC   C1A 5319  39.172  16.583   8.755
  133POPC   D2A 5320  38.950  16.852   8.424
  133POPC   C3A 5321  38.985  16.780   7.968
  133POPC   C4A 5322  38.972  16.699   7.512
  133POPC   C1B 5323  39.296  17.064   8.848
  133POPC   C2B 5324  39.483  16.898   8.437
  133POPC   C3B 5325  39.495  16.865   7.986
  133POPC   C4B 5326  39.290  17.069   7.648
  134POPC   NC3 5327   7.374  20.335   9.543
  134POPC   PO4 5328   7.653  19.748   9.547
  134POPC   GL1 5329   7.555  19.930   9.195
  134POPC   GL2 5330   7.272  19.700   9.107
  134POPC   C1A 5331   7.502  20.109   8.802
  134POPC   D2A 5332   7.382  19.864   8.439
  134POPC   C3A 5333   7.582  19.901   8.032
  134POPC   C4A 5334   7.274  20.002   7.748
  134POPC   C1B 5335   7.571  19.505   8.816
  134POPC   C2B 5336   7.631  19.417   8.376
  134POPC   C3B 5337   7.322  19.461   8.038
  134POPC   C4B 5338   7.384  19.550   7.608
  135POPC   NC3 5339  25.036  25.773   9.466
  135POPC   PO4 5340  25.400  26.460   9.562
  135POPC   GL1 5341  25.184  26.229   9.232
  135POPC   GL2 5342  25.342  25.931   9.070
  135POPC   C1A 5343  24.927  26.099   8.862
  135POPC   D2A 5344  25.144  25.810   8.580
  135POPC   C3A 5345  25.073  25.804   8.132
  135POPC   C4A 5346  25.145  26.027   7.782
  135POPC   C1B 5347  25.385  26.262   8.746
  135POPC   C2B 5348  25.385  26.187   8.298
  135POPC   C3B 5349  25.575  25.891   7.998
  135POPC   C4B 5350  25.556  25.765   7.534
  136POPC   NC3 5351   4.724   6.641   9.622
  136POPC   PO4 5352   4.088   6.738   9.589
  136POPC   GL1 5353   4.379   6.720   9.250
  136POPC   GL2 5354   4.464   6.363   9.259
  136POPC   C1A 5355   4.537   6.908   8.859
  136POPC   D2A 5356   4.320   6.993   8.479
  136POPC   C3A 5357   4.492   6.938   8.074
  136POPC   C4A 5358   4.333   6.795   7.690
  136POPC   C1B 5359   4.260   6.430   8.860
  136POPC   C2B 5360   4.369   6.276   8.471
  136POPC   C3B 5361   4.304   6.431   8.068
  136POPC   C4B 5362   4.394   6.266   7.683
  137POPC   NC3 5363  12.824  20.902   9.535
  137POPC   PO4 5364  12.954  21.539   9.741
  137POPC   GL1 5365  13.021  21.442   9.310
  137POPC   GL2 5366  12.698  21.323   9.223
  137POPC   C1A 5367  13.078  21.445   8.847
  137POPC   D2A 5368  13.308  21.390   8.454
  137POPC   C3A 5369  13.133  21.511   8.055
  137POPC   C4A 5370  13.008  21.436   7.618
  137POPC   C1B 5371  12.571  21.246   8.786
  137POPC   C2B 5372  12.769  21.300   8.370
  137POPC   C3B 5373  12.881  21.072   7.983
  137POPC   C4B 5374  12.566  21.059   7.656
  138POPC   NC3 5375  44.861  42.875   9.461
  138POPC   PO4 5376  44.544  43.518   9.387
  138POPC   GL1 5377  44.633  43.220   9.064
  138POPC   GL2 5378  44.576  42.843   9.044
  138POPC   C1A 5379  44.426  43.119   8.650
  138POPC   D2A 5380  44.306  43.019   8.232
  138POPC   C3A 5381  44.520  43.215   7.881
  138POPC   C4A 5382  44.460  43.100   7.461
  138POPC   C1B 5383  44.910  42.943   8.739
  138POPC   C2B 5384  44.825  43.109   8.323
  138POPC   C3B 5385   0.039  43.086   7.959
  138POPC   C4B 5386  44.942  42.994   7.559
  139POPC   NC3 5387  28.764  36.547   9.500
  139POPC   PO4 5388  28.139  36.923   9.586
  139POPC   GL1 5389  28.391  36.805   9.223
  139POPC   GL2 5390  28.198  36.558   9.147
  139POPC   C1A 5391  28.627  36.845   8.820
  139POPC   D2A 5392  28.466  37.055   8.432
  139POPC   C3A 5393  28.597  36.914   8.009
  139POPC   C4A 5394  28.457  36.871   7.563
  139POPC   C1B 5395  28.104  36.810   8.723
  139POPC   C2B 5396  28.054  36.800   8.228
  139POPC   C3B 5397  28.068  36.649   7.775
  139POPC   C4B 5398  28.058  36.674   7.302
  140POPC   NC3 5399  43.030  42.703   9.781
  140POPC   PO4 5400  43.001  43.337   9.644
  140POPC   GL1 5401  43.189  43.081   9.297
  140POPC   GL2 5402  42.912  42.858   9.187
  140POPC   C1A 5403  43.283  43.027   8.825
  140POPC   D2A 5404  42.988  43.001   8.480
  140POPC   C3A 5405  43.156  43.065   8.061
  140POPC   C4A 5406  43.052  42.953   7.638
  140POPC   C1B 5407  42.861  43.286   8.967
  140POPC   C2B 5408  42.624  43.375   8.598
  140POPC   C3B 5409  42.754  43.348   8.177
  140POPC   C4B 5410  42.723  43.329   7.760
  141POPC   NC3 5411   3.184  27.540   9.547
  141POPC   PO4 5412   3.312  28.105   9.307
  141POPC   GL1 5413   3.476  27.724   9.156
  141POPC   GL2 5414   3.261  27.460   9.013
  141POPC   C1A 5415   3.777  27.531   8.911
  141POPC   D2A 5416   3.834  27.663   8.524
  141POPC   C3A 5417   3.504  27.625   8.246
  141POPC   C4A 5418   3.638  27.617   7.836
  141POPC   C1B 5419   3.365  27.254   8.647
  141POPC   C2B 5420   3.681  27.156   8.382
  141POPC   C3B 5421   3.782  27.132   7.973
  141POPC   C4B 5422   3.641  27.191   7.552
  142POPC   NC3 5423  30.169  22.737   9.445
  142POPC   PO4 5424  29.570  23.195   9.551
  142POPC   GL1 5425  29.740  23.008   9.211
  142POPC   GL2 5426  30.047  23.168   9.110
  142POPC   C1A 5427  29.782  22.863   8.789
  142POPC   D2A 5428  29.620  22.974   8.381
  142POPC   C3A 5429  29.882  22.749   8.106
  142POPC   C4A 5430  29.896  22.867   7.702
  142POPC   C1B 5431  30.401  23.126   8.798
  142POPC   C2B 5432  30.291  23.029   8.382
  142POPC   C3B 5433  30.074  23.227   8.045
  142POPC   C4B 5434  30.192  23.304   7.620
  143POPC   NC3 5435  43.427  44.154   9.791
  143POPC   PO4 5436  43.929  43.665   9.610
  143POPC   GL1 5437  43.786  43.801   9.222
  143POPC   GL2 5438  44.134  43.893   9.180
  143POPC   C1A 5439  43.796  43.851   8.763
  143POPC   D2A 5440  43.647  43.752   8.336
  143POPC   C3A 5441  43.697  43.820   7.863
  143POPC   C4A 5442  43.926  43.625   7.515
  143POPC   C1B 5443  44.252  44.066   8.797
  143POPC   C2B 5444  44.163  43.923   8.378
  143POPC   C3B 5445  44.241  43.890   7.940
  143POPC   C4B 5446  44.363  44.320   7.843
  144POPC   NC3 5447  14.407  36.561   9.615
  144POPC   PO4 5448  14.085  37.112   9.592
  144POPC   GL1 5449  14.216  37.029   9.160
  144POPC   GL2 5450  14.290  36.719   9.118
  144POPC   C1A 5451  14.550  37.029   8.797
  144POPC   D2A 5452  14.781  36.902   8.395
  144POPC   C3A 5453  14.612  36.953   7.964
  144POPC   C4A 5454  14.708  36.814   7.532
  144POPC   C1B 5455  14.005  36.868   8.729
  144POPC   C2B 5456  13.964  36.741   8.279
  144POPC   C3B 5457  14.150  36.694   7.852
  144POPC   C4B 5458  14.131  36.891   7.442
  145POPC   NC3 5459  28.522  17.311   9.703
  145POPC   PO4 5460  28.125  17.801   9.586
  145POPC   GL1 5461  28.215  17.487   9.269
  145POPC   GL2 5462  28.535  17.585   9.237
  145POPC   C1A 5463  28.312  17.283   8.881
  145POPC   D2A 5464  28.450  17.367   8.481
  145POPC   C3A 5465  28.319  17.265   8.101
  145POPC   C4A 5466  28.557  17.296   7.731
  145POPC   C1B 5467  28.489  17.764   8.831
  145POPC   C2B 5468  28.289  17.879   8.462
  145POPC   C3B 5469  28.469  17.776   8.077
  145POPC   C4B 5470  28.446  17.865   7.667
  146POPC   NC3 5471   4.038  14.714   9.472
  146POPC   PO4 5472   4.480  14.283   9.554
  146POPC   GL1 5473   4.301  14.384   9.173
  146POPC   GL2 5474   4.610  14.585   9.128
  146POPC   C1A 5475   4.253  14.468   8.728
  146POPC   D2A 5476   4.240  14.320   8.304
  146POPC   C3A 5477   4.092  14.677   8.058
  146POPC   C4A 5478   3.962  14.637   7.635
  146POPC   C1B 5479   4.670  14.207   8.865
  146POPC   C2B 5480   4.733  14.393   8.457
  146POPC   C3B 5481   4.641  14.529   8.029
  146POPC   C4B 5482   4.333  14.316   7.784
  147POPC   NC3 5483  43.292  31.254   9.671
  147POPC   PO4 5484  43.067  31.805   9.438
  147POPC   GL1 5485  43.201  31.501   9.177
  147POPC   GL2 5486  42.939  31.279   9.202
  147POPC   C1A 5487  43.110  31.534   8.751
  147POPC   D2A 5488  43.189  31.452   8.342
  147POPC   C3A 5489  43.088  31.715   8.018
  147POPC   C4A 5490  43.178  31.612   7.610
  147POPC   C1B 5491  42.966  31.036   8.817
  147POPC   C2B 5492  42.821  31.065   8.366
  147POPC   C3B 5493  42.931  31.222   7.941
  147POPC   C4B 5494  42.940  31.184   7.465
  148POPC   NC3 5495   3.892  17.068   9.402
  148POPC   PO4 5496   3.468  16.519   9.626
  148POPC   GL1 5497   3.321  16.522   9.218
  148POPC   GL2 5498   3.637  16.679   9.107
  148POPC   C1A 5499   3.186  16.701   8.817
  148POPC   D2A 5500   3.407  16.777   8.431
  148POPC   C3A 5501   3.187  16.843   8.045
  148POPC   C4A 5502   3.238  16.891   7.615
  148POPC   C1B 5503   3.826  16.384   8.803
  148POPC   C2B 5504   3.968  16.528   8.391
  148POPC   C3B 5505   3.848  16.840   8.154
  148POPC   C4B 5506   3.702  16.882   7.790
  149POPC   NC3 5507  44.839  23.882   9.247
  149POPC   PO4 5508  44.353  23.584   9.526
  149POPC   GL1 5509  44.392  23.650   9.118
  149POPC   GL2 5510  44.690  23.461   9.055
  149POPC   C1A 5511  44.480  23.806   8.703
  149POPC   D2A 5512  44.447  23.640   8.319
  149POPC   C3A 5513  44.612  23.924   8.017
  149POPC   C4A 5514  44.709  23.726   7.649
  149POPC   C1B 5515  44.845  23.181   8.813
  149POPC   C2B 5516  44.759  23.210   8.401
  149POPC   C3B 5517  44.836  23.459   8.049
  149POPC   C4B 5518   0.055  23.314   7.718
  150POPC   NC3 5519  17.827  17.190   9.578
  150POPC   PO4 5520  17.672  16.552   9.513
  150POPC   GL1 5521  17.765  16.674   9.156
  150POPC   GL2 5522  17.576  16.964   9.167
  150POPC   C1A 5523  17.650  16.575   8.765
  150POPC   D2A 5524  17.439  16.344   8.470
  150POPC   C3A 5525  17.662  16.453   8.124
  150POPC   C4A 5526  17.718  16.713   7.826
  150POPC   C1B 5527  17.866  17.068   8.827
  150POPC   C2B 5528  17.740  16.929   8.408
  150POPC   C3B 5529  17.354  16.926   8.166
  150POPC   C4B 5530  17.303  16.956   7.709
  151POPC   NC3 5531  33.997   2.300   9.552
  151POPC   PO4 5532  33.768   1.697   9.607
  151POPC   GL1 5533  34.007   1.880   9.260
  151POPC   GL2 5534  33.716   2.106   9.147
  151POPC   C1A 5535  33.953   1.817   8.789
  151POPC   D2A 5536  33.755   2.001   8.412
  151POPC   C3A 5537  33.959   1.798   8.047
  151POPC   C4A 5538  34.177   2.070   7.779
  151POPC   C1B 5539  33.494   2.328   8.792
  151POPC   C2B 5540  33.615   2.518   8.365
  151POPC   C3B 5541  33.711   2.280   7.971
  151POPC   C4B 5542  33.642   1.961   7.661
  152POPC   NC3 5543  26.309  21.100   9.438
  152POPC   PO4 5544  26.095  20.554   9.703
  152POPC   GL1 5545  26.001  20.734   9.238
  152POPC   GL2 5546  26.334  20.818   9.027
  152POPC   C1A 5547  25.967  20.585   8.779
  152POPC   D2A 5548  26.202  20.651   8.363
  152POPC   C3A 5549  25.955  20.476   8.015
  152POPC   C4A 5550  25.986  20.209   7.672
  152POPC   C1B 5551  26.059  21.096   8.765
  152POPC   C2B 5552  25.905  21.055   8.331
  152POPC   C3B 5553  25.955  20.977   7.887
  152POPC   C4B 5554  26.067  20.684   7.549
  153POPC   NC3 5555  37.178   4.025   9.313
  153POPC   PO4 5556  36.899   4.563   9.759
  153POPC   GL1 5557  36.733   4.399   9.311
  153POPC   GL2 5558  36.667   4.054   9.232
  153POPC   C1A 5559  36.737   4.383   8.834
  153POPC   D2A 5560  36.991   4.284   8.454
  153POPC   C3A 5561  36.794   4.302   8.049
  153POPC   C4A 5562  37.020   4.443   7.743
  153POPC   C1B 5563  36.641   3.869   8.787
  153POPC   C2B 5564  36.545   4.016   8.380
  153POPC   C3B 5565  36.507   3.875   7.946
  153POPC   C4B 5566  36.598   4.090   7.573
  154POPC   NC3 5567  17.049   3.245   9.453
  154POPC   PO4 5568  16.707   3.831   9.544
  154POPC   GL1 5569  16.708   3.580   9.197
  154POPC   GL2 5570  16.487   3.282   9.183
  154POPC   C1A 5571  16.831   3.421   8.816
  154POPC   D2A 5572  16.999   3.338   8.421
  154POPC   C3A 5573  16.908   3.620   8.095
  154POPC   C4A 5574  16.808   3.624   7.647
  154POPC   C1B 5575  16.393   3.158   8.748
  154POPC   C2B 5576  16.253   3.228   8.331
  154POPC   C3B 5577  16.478   3.345   8.029
  154POPC   C4B 5578  16.533   3.211   7.664
  155POPC   NC3 5579  23.463  22.540   9.510
  155POPC   PO4 5580  23.801  22.044   9.482
  155POPC   GL1 5581  23.536  22.049   9.137
  155POPC   GL2 5582  23.589  22.371   9.033
  155POPC   C1A 5583  23.563  21.952   8.685
  155POPC   D2A 5584  23.920  21.939   8.346
  155POPC   C3A 5585  23.834  21.962   7.917
  155POPC   C4A 5586  23.455  21.834   7.825
  155POPC   C1B 5587  23.566  22.448   8.595
  155POPC   C2B 5588  23.512  22.244   8.183
  155POPC   C3B 5589  23.434  22.344   7.720
  155POPC   C4B 5590  23.343  22.373   7.255
  156POPC   NC3 5591  34.865  28.242   9.271
  156POPC   PO4 5592  34.187  28.141   9.418
  156POPC   GL1 5593  34.391  28.272   9.080
  156POPC   GL2 5594  34.477  28.576   9.196
  156POPC   C1A 5595  34.578  28.373   8.693
  156POPC   D2A 5596  34.515  28.191   8.305
  156POPC   C3A 5597  34.593  28.422   7.990
  156POPC   C4A 5598  34.601  28.271   7.589
  156POPC   C1B 5599  34.239  28.735   8.841
  156POPC   C2B 5600  34.341  28.729   8.401
  156POPC   C3B 5601  34.379  28.870   7.975
  156POPC   C4B 5602  34.341  28.721   7.559
  157POPC   NC3 5603  12.247  41.156   9.471
  157POPC   PO4 5604  11.877  40.681   9.812
  157POPC   GL1 5605  11.888  40.681   9.327
  157POPC   GL2 5606  11.721  40.361   9.202
  157POPC   C1A 5607  12.117  40.766   8.912
  157POPC   D2A 5608  12.231  40.469   8.565
  157POPC   C3A 5609  12.278  40.622   8.117
  157POPC   C4A 5610  12.260  40.883   7.760
  157POPC   C1B 5611  11.638  40.622   8.844
  157POPC   C2B 5612  11.740  40.868   8.499
  157POPC   C3B 5613  11.686  40.780   8.067
  157POPC   C4B 5614  11.897  40.508   7.784
  158POPC   NC3 5615  34.141  10.748   9.495
  158POPC   PO4 5616  34.744  10.325   9.622
  158POPC   GL1 5617  34.534  10.464   9.243
  158POPC   GL2 5618  34.478  10.791   9.133
  158POPC   C1A 5619  34.440  10.309   8.820
  158POPC   D2A 5620  34.298  10.305   8.407
  158POPC   C3A 5621  34.436  10.491   8.051
  158POPC   C4A 5622  34.506  10.325   7.657
  158POPC   C1B 5623  34.178  10.757   8.792
  158POPC   C2B 5624  34.051  10.758   8.356
  158POPC   C3B 5625  34.228  10.973   7.995
  158POPC   C4B 5626  34.558  10.863   7.699
  159POPC   NC3 5627   7.922  29.469   9.471
  159POPC   PO4 5628   8.114  30.141   9.544
  159POPC   GL1 5629   7.992  30.204   9.153
  159POPC   GL2 5630   7.932  29.850   9.124
  159POPC   C1A 5631   8.252  30.106   8.793
  159POPC   D2A 5632   8.211  29.926   8.390
  159POPC   C3A 5633   8.186  30.075   7.989
  159POPC   C4A 5634   7.863  30.306   7.809
  159POPC   C1B 5635   8.083  29.577   8.789
  159POPC   C2B 5636   8.436  29.500   8.504
  159POPC   C3B 5637   8.409  29.561   8.072
  159POPC   C4B 5638   8.001  29.578   7.883
  160POPC   NC3 5639  37.500  32.245   9.603
  160POPC   PO4 5640  37.845  31.726   9.844
  160POPC   GL1 5641  37.849  32.043   9.295
  160POPC   GL2 5642  37.436  32.109   9.112
  160POPC   C1A 5643  37.782  32.275   8.830
  160POPC   D2A 5644  37.565  32.455   8.494
  160POPC   C3A 5645  37.664  32.311   8.092
  160POPC   C4A 5646  37.558  32.419   7.679
  160POPC   C1B 5647  37.432  31.910   8.693
  160POPC   C2B 5648  37.315  31.793   8.278
  160POPC   C3B 5649  37.252  32.046   7.942
  160POPC   C4B 5650  37.370  31.978   7.553
  161POPC   NC3 5651  17.914  15.460   9.269
  161POPC   PO4 5652  18.266  14.906   9.645
  161POPC   GL1 5653  18.301  14.980   9.212
  161POPC   GL2 5654  18.406  15.320   9.208
  161POPC   C1A 5655  18.142  15.108   8.782
  161POPC   D2A 5656  18.060  15.153   8.358
  161POPC   C3A 5657  18.283  14.959   8.088
  161POPC   C4A 5658  18.095  14.903   7.728
  161POPC   C1B 5659  18.648  15.125   8.878
  161POPC   C2B 5660  18.628  15.205   8.459
  161POPC   C3B 5661  18.498  15.418   8.114
  161POPC   C4B 5662  18.449  15.257   7.695
  162POPC   NC3 5663  21.221  31.965   9.337
  162POPC   PO4 5664  20.703  32.438   9.336
  162POPC   GL1 5665  20.714  32.128   9.079
  162POPC   GL2 5666  20.388  31.966   8.974
  162POPC   C1A 5667  20.843  32.029   8.686
  162POPC   D2A 5668  20.687  31.774   8.407
  162POPC   C3A 5669  20.790  31.999   8.062
  162POPC   C4A 5670  20.906  32.444   7.949
  162POPC   C1B 5671  20.424  32.370   8.727
  162POPC   C2B 5672  20.637  32.550   8.390
  162POPC   C3B 5673  20.416  32.396   8.026
  162POPC   C4B 5674  20.514  32.179   7.655
  163POPC   NC3 5675   6.125  11.041   9.455
  163POPC   PO4 5676   5.673  11.579   9.440
  163POPC   GL1 5677   5.739  11.256   9.165
  163POPC   GL2 5678   6.070  11.438   9.110
  163POPC   C1A 5679   5.794  11.199   8.734
  163POPC   D2A 5680   5.965  11.495   8.447
  163POPC   C3A 5681   5.861  11.372   8.054
  163POPC   C4A 5682   6.040  11.466   7.674
  163POPC   C1B 5683   6.301  11.287   8.766
  163POPC   C2B 5684   6.341  11.178   8.320
  163POPC   C3B 5685   6.242  10.999   7.935
  163POPC   C4B 5686   6.141  11.025   7.474
  164POPC   NC3 5687  31.891  26.398   9.484
  164POPC   PO4 5688  32.579  26.153   9.556
  164POPC   GL1 5689  32.392  26.118   9.165
  164POPC   GL2 5690  32.063  25.952   9.166
  164POPC   C1A 5691  32.375  25.861   8.779
  164POPC   D2A 5692  32.167  25.926   8.394
  164POPC   C3A 5693  32.497  26.034   8.137
  164POPC   C4A 5694  32.483  26.064   7.713
  164POPC   C1B 5695  32.064  26.289   8.817
  164POPC   C2B 5696  32.252  26.451   8.424
  164POPC   C3B 5697  32.149  26.407   7.980
  164POPC   C4B 5698  31.964  26.348   7.569
  165POPC   NC3 5699  21.896   1.184   9.535
  165POPC   PO4 5700  22.579   1.344   9.492
  165POPC   GL1 5701  22.302   1.171   9.190
  165POPC   GL2 5702  21.967   1.308   9.066
  165POPC   C1A 5703  22.415   1.038   8.795
  165POPC   D2A 5704  22.247   1.003   8.408
  165POPC   C3A 5705  22.437   0.864   8.045
  165POPC   C4A 5706  22.202   0.935   7.699
  165POPC   C1B 5707  22.086   1.445   8.705
  165POPC   C2B 5708  22.165   1.510   8.295
  165POPC   C3B 5709  22.046   1.294   8.001
  165POPC   C4B 5710  21.920   1.413   7.606
  166POPC   NC3 5711  23.862   2.331   9.389
  166POPC   PO4 5712  23.365   1.948   9.365
  166POPC   GL1 5713  23.746   1.897   9.081
  166POPC   GL2 5714  23.979   1.592   9.125
  166POPC   C1A 5715  23.766   2.156   8.706
  166POPC   D2A 5716  23.525   2.294   8.357
  166POPC   C3A 5717  23.601   2.043   8.026
  166POPC   C4A 5718  23.455   1.854   7.674
  166POPC   C1B 5719  23.844   1.518   8.710
  166POPC   C2B 5720  23.915   1.680   8.308
  166POPC   C3B 5721  23.838   1.599   7.873
  166POPC   C4B 5722  23.938   1.722   7.424
  167POPC   NC3 5723  24.802  26.635   9.480
  167POPC   PO4 5724  24.166  26.941   9.499
  167POPC   GL1 5725  24.502  27.033   9.207
  167POPC   GL2 5726  24.468  26.707   9.104
  167POPC   C1A 5727  24.745  27.037   8.795
  167POPC   D2A 5728  24.615  26.806   8.412
  167POPC   C3A 5729  24.748  26.977   8.016
  167POPC   C4A 5730  24.660  26.768   7.671
  167POPC   C1B 5731  24.254  26.885   8.774
  167POPC   C2B 5732  24.096  26.736   8.405
  167POPC   C3B 5733  24.260  26.804   8.018
  167POPC   C4B 5734  24.228  27.238   7.935
  168POPC   NC3 5735  34.260  24.377   9.512
  168POPC   PO4 5736  34.984  24.579   9.570
  168POPC   GL1 5737  34.691  24.543   9.215
  168POPC   GL2 5738  34.341  24.594   9.067
  168POPC   C1A 5739  34.795  24.559   8.804
  168POPC   D2A 5740  34.589  24.513   8.436
  168POPC   C3A 5741  34.633  24.776   8.102
  168POPC   C4A 5742  34.803  24.515   7.806
  168POPC   C1B 5743  34.341  24.201   8.823
  168POPC   C2B 5744  34.324  24.067   8.394
  168POPC   C3B 5745  34.323  24.304   8.014
  168POPC   C4B 5746  34.429  24.257   7.587
  169POPC   NC3 5747  38.612  19.408   9.519
  169POPC   PO4 5748  37.981  19.324   9.276
  169POPC   GL1 5749  38.198  19.670   9.124
  169POPC   GL2 5750  38.483  19.930   9.193
  169POPC   C1A 5751  38.352  19.732   8.725
  169POPC   D2A 5752  38.317  19.950   8.382
  169POPC   C3A 5753  38.379  19.709   8.053
  169POPC   C4A 5754  38.285  20.039   7.790
  169POPC   C1B 5755  38.783  20.008   8.824
  169POPC   C2B 5756  38.817  19.892   8.366
  169POPC   C3B 5757  38.753  20.043   7.949
  169POPC   C4B 5758  38.751  20.090   7.415
  170POPC   NC3 5759   9.129  42.580   9.473
  170POPC   PO4 5760   8.829  41.957   9.465
  170POPC   GL1 5761   8.941  42.208   9.156
  170POPC   GL2 5762   9.171  41.969   9.068
  170POPC   C1A 5763   9.035  42.438   8.787
  170POPC   D2A 5764   9.083  42.352   8.357
  170POPC   C3A 5765   8.931  42.587   8.008
  170POPC   C4A 5766   9.125  42.634   7.608
  170POPC   C1B 5767   9.299  42.008   8.707
  170POPC   C2B 5768   9.171  41.844   8.356
  170POPC   C3B 5769   9.310  41.956   8.017
  170POPC   C4B 5770   9.243  41.783   7.688
  171POPC   NC3 5771  24.120  35.619   9.520
  171POPC   PO4 5772  24.575  35.218   9.425
  171POPC   GL1 5773  24.529  35.394   9.059
  171POPC   GL2 5774  24.192  35.421   9.061
  171POPC   C1A 5775  24.448  35.170   8.690
  171POPC   D2A 5776  24.655  35.064   8.321
  171POPC   C3A 5777  24.500  35.115   7.931
  171POPC   C4A 5778  24.762  35.220   7.622
  171POPC   C1B 5779  24.256  35.660   8.698
  171POPC   C2B 5780  24.393  35.518   8.323
  171POPC   C3B 5781  24.515  35.636   7.976
  171POPC   C4B 5782  24.322  35.497   7.608
  172POPC   NC3 5783  37.330  17.307   9.302
  172POPC   PO4 5784  37.784  17.797   9.491
  172POPC   GL1 5785  37.776  17.523   9.108
  172POPC   GL2 5786  37.787  17.174   9.122
  172POPC   C1A 5787  37.982  17.482   8.685
  172POPC   D2A 5788  37.810  17.698   8.330
  172POPC   C3A 5789  37.948  17.764   7.930
  172POPC   C4A 5790  37.544  17.835   7.761
  172POPC   C1B 5791  37.574  17.161   8.726
  172POPC   C2B 5792  37.684  17.186   8.297
  172POPC   C3B 5793  37.645  17.343   7.865
  172POPC   C4B 5794  37.470  17.271   7.461
  173POPC   NC3 5795  22.932  26.200   9.677
  173POPC   PO4 5796  23.089  25.578   9.554
  173POPC   GL1 5797  22.867  25.885   9.273
  173POPC   GL2 5798  23.152  26.083   9.189
  173POPC   C1A 5799  22.678  26.036   8.862
  173POPC   D2A 5800  22.681  26.251   8.444
  173POPC   C3A 5801  22.851  26.083   8.060
  173POPC   C4A 5802  22.732  25.828   7.669
  173POPC   C1B 5803  23.113  25.778   8.829
  173POPC   C2B 5804  23.193  25.906   8.399
  173POPC   C3B 5805  23.167  25.705   7.984
  173POPC   C4B 5806  23.300  25.833   7.604
  174POPC   NC3 5807  35.061   9.929   9.536
  174POPC   PO4 5808  35.656   9.512   9.468
  174POPC   GL1 5809  35.442   9.726   9.176
  174POPC   GL2 5810  35.120   9.603   9.150
  174POPC   C1A 5811  35.363   9.844   8.740
  174POPC   D2A 5812  35.587   9.690   8.392
  174POPC   C3A 5813  35.623   9.797   7.942
  174POPC   C4A 5814  35.442   9.495   7.623
  174POPC   C1B 5815  34.922   9.567   8.776
  174POPC   C2B 5816  35.080   9.594   8.359
  174POPC   C3B 5817  35.120   9.754   7.922
  174POPC   C4B 5818  35.121  10.082   7.561
  175POPC   NC3 5819  44.159  27.754   9.572
  175POPC   PO4 5820  43.620  27.478   9.525
  175POPC   GL1 5821  43.972  27.414   9.227
  175POPC   GL2 5822  43.894  27.151   8.992
  175POPC   C1A 5823  44.228  27.532   8.844
  175POPC   D2A 5824  44.097  27.516   8.419
  175POPC   C3A 5825  44.239  27.331   8.036
  175POPC   C4A 5826  44.107  27.547   7.640
  175POPC   C1B 5827  43.702  27.543   8.796
  175POPC   C2B 5828  43.647  27.763   8.386
  175POPC   C3B 5829  43.666  27.666   7.934
  175POPC   C4B 5830  43.350  27.702   7.582
  176POPC   NC3 5831   6.841  27.224   9.805
  176POPC   PO4 5832   6.851  26.570   9.668
  176POPC   GL1 5833   6.783  26.741   9.297
  176POPC   GL2 5834   7.047  26.582   9.151
  176POPC   C1A 5835   6.552  26.708   8.902
  176POPC   D2A 5836   6.291  26.685   8.536
  176POPC   C3A 5837   6.451  26.738   8.123
  176POPC   C4A 5838   6.565  26.481   7.783
  176POPC   C1B 5839   7.043  26.880   8.852
  176POPC   C2B 5840   6.830  26.809   8.464
  176POPC   C3B 5841   7.005  26.627   8.085
  176POPC   C4B 5842   7.002  26.685   7.675
  177POPC   NC3 5843  26.489  40.764   9.463
  177POPC   PO4 5844  25.826  40.776   9.671
  177POPC   GL1 5845  26.044  40.960   9.269
  177POPC   GL2 5846  26.200  40.683   9.050
  177POPC   C1A 5847  26.074  41.123   8.822
  177POPC   D2A 5848  26.163  40.895   8.453
  177POPC   C3A 5849  26.050  41.044   8.044
  177POPC   C4A 5850  26.162  40.787   7.684
  177POPC   C1B 5851  25.790  40.690   8.806
  177POPC   C2B 5852  25.579  40.601   8.383
  177POPC   C3B 5853  25.811  40.571   8.011
  177POPC   C4B 5854  25.772  40.461   7.589
  178POPC   NC3 5855   1.338   9.417   9.598
  178POPC   PO4 5856   1.368   8.762   9.645
  178POPC   GL1 5857   1.340   8.931   9.235
  178POPC   GL2 5858   1.317   8.603   9.138
  178POPC   C1A 5859   1.141   9.075   8.822
  178POPC   D2A 5860   1.000   8.911   8.432
  178POPC   C3A 5861   1.078   9.028   8.017
  178POPC   C4A 5862   0.810   9.171   7.682
  178POPC   C1B 5863   1.300   8.567   8.722
  178POPC   C2B 5864   1.464   8.707   8.361
  178POPC   C3B 5865   1.578   8.899   8.003
  178POPC   C4B 5866   1.349   8.759   7.666
  179POPC   NC3 5867  38.979  25.211   9.476
  179POPC   PO4 5868  39.764  25.251   9.374
  179POPC   GL1 5869  39.413  25.250   9.184
  179POPC   GL2 5870  39.275  25.555   9.188
  179POPC   C1A 5871  39.175  25.060   8.870
  179POPC   D2A 5872  39.026  25.181   8.504
  179POPC   C3A 5873  39.158  25.023   8.132
  179POPC   C4A 5874  39.235  25.096   7.718
  179POPC   C1B 5875  39.355  25.564   8.750
  179POPC   C2B 5876  39.461  25.420   8.334
  179POPC   C3B 5877  39.380  25.531   7.916
  179POPC   C4B 5878  39.502  25.810   7.598
  180POPC   NC3 5879  39.503  15.500   9.407
  180POPC   PO4 5880  39.122  15.029   9.199
  180POPC   GL1 5881  39.380  15.201   8.988
  180POPC   GL2 5882  39.711  15.225   9.042
  180POPC   C1A 5883  39.415  15.116   8.587
  180POPC   D2A 5884  39.116  15.146   8.306
  180POPC   C3A 5885  39.165  14.848   8.042
  180POPC   C4A 5886  39.405  14.830   7.706
  180POPC   C1B 5887  39.572  15.569   8.729
  180POPC   C2B 5888  39.703  15.474   8.361
  180POPC   C3B 5889  39.563  15.252   8.015
  180POPC   C4B 5890  39.174  15.378   7.820
  181POPC   NC3 5891  35.932  23.229   9.471
  181POPC   PO4 5892  36.298  22.789   9.399
  181POPC   GL1 5893  36.324  23.083   9.079
  181POPC   GL2 5894  35.988  23.199   8.983
  181POPC   C1A 5895  36.253  22.925   8.658
  181POPC   D2A 5896  36.038  23.104   8.311
  181POPC   C3A 5897  36.328  23.058   7.964
  181POPC   C4A 5898  36.514  22.777   7.643
  181POPC   C1B 5899  35.664  23.355   8.651
  181POPC   C2B 5900  35.637  23.406   8.194
  181POPC   C3B 5901  35.852  23.210   7.821
  181POPC   C4B 5902  35.836  23.325   7.373
  182POPC   NC3 5903  24.488   2.390   9.469
  182POPC   PO4 5904  24.024   1.901   9.516
  182POPC   GL1 5905  24.367   1.954   9.195
  182POPC   GL2 5906  24.217   2.241   9.029
  182POPC   C1A 5907  24.642   2.072   8.781
  182POPC   D2A 5908  24.734   2.315   8.348
  182POPC   C3A 5909  24.598   2.179   7.880
  182POPC   C4A 5910  24.710   2.393   7.467
  182POPC   C1B 5911  24.188   1.887   8.728
  182POPC   C2B 5912  24.347   1.960   8.319
  182POPC   C3B 5913  24.132   2.014   7.956
  182POPC   C4B 5914  24.334   1.698   7.741
  183POPC   NC3 5915  18.654   7.016   9.532
  183POPC   PO4 5916  18.059   7.185   9.345
  183POPC   GL1 5917  18.402   7.367   9.078
  183POPC   GL2 5918  18.374   7.733   9.048
  183POPC   C1A 5919  18.381   7.426   8.614
  183POPC   D2A 5920  18.493   7.156   8.248
  183POPC   C3A 5921  18.270   7.322   7.887
  183POPC   C4A 5922  18.014   7.713   7.779
  183POPC   C1B 5923  18.620   7.893   8.687
  183POPC   C2B 5924  18.629   7.927   8.237
  183POPC   C3B 5925  18.672   7.699   7.870
  183POPC   C4B 5926  18.670   7.376   7.576
  184POPC   NC3 5927  18.042   4.470   9.534
  184POPC   PO4 5928  18.706   4.659   9.449
  184POPC   GL1 5929  18.447   4.476   9.107
  184POPC   GL2 5930  18.250   4.185   9.087
  184POPC   C1A 5931  18.407   4.374   8.644
  184POPC   D2A 5932  18.238   4.548   8.280
  184POPC   C3A 5933  18.447   4.522   7.895
  184POPC   C4A 5934  18.344   4.477   7.437
  184POPC   C1B 5935  17.985   4.064   8.765
  184POPC   C2B 5936  18.175   4.016   8.369
  184POPC   C3B 5937  18.510   4.070   8.131
  184POPC   C4B 5938  18.414   4.046   7.707
  185POPC   NC3 5939   6.552  11.816   9.495
  185POPC   PO4 5940   6.964  12.352   9.361
  185POPC   GL1 5941   6.732  12.060   9.067
  185POPC   GL2 5942   6.763  11.675   9.058
  185POPC   C1A 5943   6.738  12.069   8.605
  185POPC   D2A 5944   6.872  12.419   8.343
  185POPC   C3A 5945   6.891  12.290   7.933
  185POPC   C4A 5946   7.013  11.837   7.826
  185POPC   C1B 5947   6.365  11.792   8.836
  185POPC   C2B 5948   6.242  12.015   8.451
  185POPC   C3B 5949   6.516  11.988   8.069
  185POPC   C4B 5950   6.536  11.819   7.622
  186POPC   NC3 5951  11.146  23.579   9.550
  186POPC   PO4 5952  11.768  23.789   9.700
  186POPC   GL1 5953  11.551  23.673   9.259
  186POPC   GL2 5954  11.231  23.863   9.139
  186POPC   C1A 5955  11.354  23.439   8.879
  186POPC   D2A 5956  11.442  23.447   8.416
  186POPC   C3A 5957  11.217  23.579   8.018
  186POPC   C4A 5958  10.870  23.595   7.755
  186POPC   C1B 5959  11.398  23.913   8.698
  186POPC   C2B 5960  11.485  23.945   8.232
  186POPC   C3B 5961  11.456  24.039   7.772
  186POPC   C4B 5962  11.778  23.939   7.407
  187POPC   NC3 5963  17.108  38.436   9.326
  187POPC   PO4 5964  17.788  38.678   9.472
  187POPC   GL1 5965  17.638  38.556   9.122
  187POPC   GL2 5966  17.562  38.220   9.140
  187POPC   C1A 5967  17.620  38.755   8.743
  187POPC   D2A 5968  17.464  38.620   8.361
  187POPC   C3A 5969  17.687  38.562   8.013
  187POPC   C4A 5970  17.588  38.499   7.624
  187POPC   C1B 5971  17.428  38.254   8.722
  187POPC   C2B 5972  17.308  38.085   8.326
  187POPC   C3B 5973  17.220  38.283   7.942
  187POPC   C4B 5974  17.319  38.082   7.543
  188POPC   NC3 5975  14.964  41.314   9.452
  188POPC   PO4 5976  15.018  41.924   9.703
  188POPC   GL1 5977  15.214  41.715   9.254
  188POPC   GL2 5978  15.467  41.460   9.329
  188POPC   C1A 5979  14.992  41.655   8.773
  188POPC   D2A 5980  14.768  41.737   8.372
  188POPC   C3A 5981  15.015  41.627   8.027
  188POPC   C4A 5982  15.093  41.797   7.627
  188POPC   C1B 5983  15.312  41.311   8.913
  188POPC   C2B 5984  15.260  41.351   8.450
  188POPC   C3B 5985  15.515  41.480   8.117
  188POPC   C4B 5986  15.450  41.436   7.692
  189POPC   NC3 5987  27.333  22.331   9.448
  189POPC   PO4 5988  27.500  21.702   9.617
  189POPC   GL1 5989  27.315  21.877   9.207
  189POPC   GL2 5990  27.553  22.089   9.046
  189POPC   C1A 5991  27.141  21.907   8.792
  189POPC   D2A 5992  27.292  21.977   8.376
  189POPC   C3A 5993  27.276  22.334   8.102
  189POPC   C4A 5994  27.470  22.243   7.695
  189POPC   C1B 5995  27.404  22.387   8.739
  189POPC   C2B 5996  27.546  22.668   8.420
  189POPC   C3B 5997  27.725  22.593   8.008
  189POPC   C4B 5998  28.034  22.693   7.741
  190POPC   NC3 5999  37.864  28.941   9.418
  190POPC   PO4 6000  37.354  29.547   9.597
  190POPC   GL1 6001  37.545  29.279   9.212
  190POPC   GL2 6002  37.918  29.348   9.049
  190POPC   C1A 6003  37.622  29.057   8.800
  190POPC   D2A 6004  37.795  29.172   8.407
  190POPC   C3A 6005  37.656  28.896   8.154
  190POPC   C4A 6006  37.384  28.970   7.848
  190POPC   C1B 6007  38.129  28.998   8.751
  190POPC   C2B 6008  38.156  28.788   8.313
  190POPC   C3B 6009  38.061  28.901   7.864
  190POPC   C4B 6010  37.835  29.277   7.817
  191POPC   NC3 6011   7.574  31.168   9.718
  191POPC   PO4 6012   7.252  30.647   9.520
  191POPC   GL1 6013   7.289  30.543   9.095
  191POPC   GL2 6014   7.628  30.565   9.033
  191POPC   C1A 6015   7.333  30.390   8.669
  191POPC   D2A 6016   7.271  30.566   8.276
  191POPC   C3A 6017   7.296  30.380   7.873
  191POPC   C4A 6018   7.550  30.648   7.612
  191POPC   C1B 6019   7.665  30.826   8.635
  191POPC   C2B 6020   7.771  31.083   8.257
  191POPC   C3B 6021   7.766  31.075   7.798
  191POPC   C4B 6022   7.821  30.964   7.312
  192POPC   NC3 6023  29.874  41.799   9.526
  192POPC   PO4 6024  29.779  41.225   9.313
  192POPC   GL1 6025  29.869  41.416   9.008
  192POPC   GL2 6026  29.699  41.717   9.068
  192POPC   C1A 6027  30.163  41.363   8.714
  192POPC   D2A 6028  30.411  41.629   8.545
  192POPC   C3A 6029  30.369  41.461   8.185
  192POPC   C4A 6030  30.097  41.401   7.849
  192POPC   C1B 6031  29.907  41.805   8.683
  192POPC   C2B 6032  29.937  41.708   8.267
  192POPC   C3B 6033  29.693  41.742   7.897
  192POPC   C4B 6034  29.904  41.907   7.546
  193POPC   NC3 6035  39.338  10.063   9.675
  193POPC   PO4 6036  39.235   9.462   9.581
  193POPC   GL1 6037  39.501   9.701   9.255
  193POPC   GL2 6038  39.476  10.085   9.177
  193POPC   C1A 6039  39.505   9.592   8.806
  193POPC   D2A 6040  39.275   9.796   8.445
  193POPC   C3A 6041  39.073   9.629   8.059
  193POPC   C4A 6042  38.781   9.765   7.738
  193POPC   C1B 6043  39.649  10.089   8.750
  193POPC   C2B 6044  39.737   9.975   8.338
  193POPC   C3B 6045  39.515   9.878   7.957
  193POPC   C4B 6046  39.225  10.024   7.652
  194POPC   NC3 6047  41.701  42.542   9.626
  194POPC   PO4 6048  41.264  42.088   9.465
  194POPC   GL1 6049  41.607  42.282   9.185
  194POPC   GL2 6050  41.704  42.610   9.126
  194POPC   C1A 6051  41.816  42.146   8.813
  194POPC   D2A 6052  41.622  42.073   8.426
  194POPC   C3A 6053  41.812  42.180   8.023
  194POPC   C4A 6054  41.568  42.202   7.642
  194POPC   C1B 6055  41.698  42.620   8.710
  194POPC   C2B 6056  41.484  42.568   8.361
  194POPC   C3B 6057  41.599  42.620   7.949
  194POPC   C4B 6058  41.832  42.666   7.575
  195POPC   NC3 6059   5.718  24.864   9.240
  195POPC   PO4 6060   5.676  25.468   9.525
  195POPC   GL1 6061   5.693  25.342   9.078
  195POPC   GL2 6062   5.444  25.096   8.895
  195POPC   C1A 6063   5.879  25.269   8.679
  195POPC   D2A 6064   5.825  25.544   8.350
  195POPC   C3A 6065   6.001  25.490   7.986
  195POPC   C4A 6066   6.063  25.272   7.632
  195POPC   C1B 6067   5.474  24.986   8.500
  195POPC   C2B 6068   5.785  25.043   8.206
  195POPC   C3B 6069   5.782  24.884   7.821
  195POPC   C4B 6070   5.497  24.851   7.547
  196POPC   NC3 6071   7.113  22.708   9.540
  196POPC   PO4 6072   7.723  22.967   9.490
  196POPC   GL1 6073   7.445  22.837   9.152
  196POPC   GL2 6074   7.135  23.004   9.135
  196POPC   C1A 6075   7.399  22.838   8.696
  196POPC   D2A 6076   7.734  22.958   8.399
  196POPC   C3A 6077   7.727  22.777   8.009
  196POPC   C4A 6078   7.443  22.857   7.699
  196POPC   C1B 6079   6.860  23.065   8.858
  196POPC   C2B 6080   6.952  23.000   8.483
  196POPC   C3B 6081   7.243  23.034   8.164
  196POPC   C4B 6082   7.039  23.110   7.801
  197POPC   NC3 6083   7.907  44.773   9.450
  197POPC   PO4 6084   8.176   0.391   9.565
  197POPC   GL1 6085   8.271   0.348   9.139
  197POPC   GL2 6086   8.477   0.646   9.130
  197POPC   C1A 6087   8.207   0.221   8.699
  197POPC   D2A 6088   8.091   0.003   8.307
  197POPC   C3A 6089   8.289   0.225   7.948
  197POPC   C4A 6090   8.297   0.207   7.482
  197POPC   C1B 6091   8.214   0.718   8.764
  197POPC   C2B 6092   8.355   0.714   8.396
  197POPC   C3B 6093   8.160   0.701   8.046
  197POPC   C4B 6094   8.332   0.699   7.657
  198POPC   NC3 6095  33.989  42.868   9.406
  198POPC   PO4 6096  34.222  42.278   9.703
  198POPC   GL1 6097  33.944  42.264   9.276
  198POPC   GL2 6098  33.808  42.554   9.066
  198POPC   C1A 6099  33.779  42.124   8.816
  198POPC   D2A 6100  33.898  42.020   8.368
  198POPC   C3A 6101  33.764  42.165   7.934
  198POPC   C4A 6102  33.949  42.329   7.546
  198POPC   C1B 6103  33.890  42.629   8.650
  198POPC   C2B 6104  33.831  42.551   8.247
  198POPC   C3B 6105  33.971  42.728   7.877
  198POPC   C4B 6106  33.849  42.832   7.471
  199POPC   NC3 6107   9.594  34.631   9.504
  199POPC   PO4 6108  10.003  35.151   9.590
  199POPC   GL1 6109   9.995  34.843   9.228
  199POPC   GL2 6110   9.783  34.570   9.059
  199POPC   C1A 6111  10.076  34.928   8.790
  199POPC   D2A 6112  10.171  34.755   8.364
  199POPC   C3A 6113   9.931  34.437   8.116
  199POPC   C4A 6114   9.816  34.654   7.728
  199POPC   C1B 6115   9.798  34.517   8.657
  199POPC   C2B 6116   9.592  34.735   8.356
  199POPC   C3B 6117   9.421  34.553   8.055
  199POPC   C4B 6118   9.286  34.402   7.723
  200POPC   NC3 6119  39.439  29.311   9.485
  200POPC   PO4 6120  38.954  28.923   9.496
  200POPC   GL1 6121  39.172  29.046   9.133
  200POPC   GL2 6122  39.519  28.850   9.159
  200POPC   C1A 6123  39.020  29.197   8.726
  200POPC   D2A 6124  38.856  29.381   8.353
  200POPC   C3A 6125  38.993  29.156   7.989
  200POPC   C4A 6126  39.333  28.881   7.856
  200POPC   C1B 6127  39.530  29.085   8.760
  200POPC   C2B 6128  39.385  29.239   8.338
  200POPC   C3B 6129  39.491  29.360   7.908
  200POPC   C4B 6130  39.788  29.055   7.699
  201POPC   NC3 6131  15.370  36.824   9.547
  201POPC   PO4 6132  14.733  36.834   9.472
  201POPC   GL1 6133  14.975  37.072   9.119
  201POPC   GL2 6134  15.348  37.017   9.082
  201POPC   C1A 6135  15.112  37.229   8.674
  201POPC   D2A 6136  15.166  37.257   8.190
  201POPC   C3A 6137  15.158  36.836   7.963
  201POPC   C4A 6138  15.215  36.392   7.814
  201POPC   C1B 6139  15.598  36.869   8.738
  201POPC   C2B 6140  15.582  36.808   8.308
  201POPC   C3B 6141  15.772  37.037   7.990
  201POPC   C4B 6142  15.476  37.191   7.769
  202POPC   NC3 6143  40.668  13.950   9.548
  202POPC   PO4 6144  40.907  13.353   9.425
  202POPC   GL1 6145  40.859  13.638   9.091
  202POPC   GL2 6146  41.173  13.566   8.916
  202POPC   C1A 6147  40.746  13.692   8.640
  202POPC   D2A 6148  41.113  13.649   8.378
  202POPC   C3A 6149  41.019  13.497   7.977
  202POPC   C4A 6150  40.677  13.561   7.732
  202POPC   C1B 6151  41.097  14.010   8.782
  202POPC   C2B 6152  40.977  14.159   8.354
  202POPC   C3B 6153  41.134  14.010   7.992
  202POPC   C4B 6154  41.074  13.870   7.620
  203POPC   NC3 6155   8.098  22.738   9.374
  203POPC   PO4 6156   8.713  23.107   9.515
  203POPC   GL1 6157   8.428  23.193   9.159
  203POPC   GL2 6158   8.053  23.192   9.163
  203POPC   C1A 6159   8.592  23.158   8.738
  203POPC   D2A 6160   8.548  22.749   8.539
  203POPC   C3A 6161   8.261  22.736   8.224
  203POPC   C4A 6162   8.307  22.939   7.847
  203POPC   C1B 6163   8.101  23.000   8.760
  203POPC   C2B 6164   8.178  23.226   8.377
  203POPC   C3B 6165   7.932  23.253   7.996
  203POPC   C4B 6166   7.875  23.056   7.585
  204POPC   NC3 6167  15.428  42.126   9.549
  204POPC   PO4 6168  14.833  42.038   9.222
  204POPC   GL1 6169  15.267  42.190   9.067
  204POPC   GL2 6170  15.501  42.487   9.144
  204POPC   C1A 6171  15.403  42.299   8.669
  204POPC   D2A 6172  15.083  42.440   8.384
  204POPC   C3A 6173  14.924  42.157   8.086
  204POPC   C4A 6174  14.978  42.290   7.681
  204POPC   C1B 6175  15.560  42.774   8.783
  204POPC   C2B 6176  15.530  42.673   8.327
  204POPC   C3B 6177  15.382  42.536   7.902
  204POPC   C4B 6178  15.464  42.223   7.575
  205POPC   NC3 6179  10.338  10.358   9.530
  205POPC   PO4 6180  10.312  10.911   9.307
  205POPC   GL1 6181  10.483  10.561   9.057
  205POPC   GL2 6182  10.850  10.433   9.041
  205POPC   C1A 6183  10.618  10.708   8.661
  205POPC   D2A 6184  10.524  10.980   8.324
  205POPC   C3A 6185  10.301  10.790   7.992
  205POPC   C4A 6186  10.332  10.587   7.569
  205POPC   C1B 6187  10.668  10.208   8.707
  205POPC   C2B 6188  10.668  10.375   8.279
  205POPC   C3B 6189  10.731  10.531   7.873
  205POPC   C4B 6190  10.808  10.316   7.487
  206POPC   NC3 6191  12.677   7.832   9.473
  206POPC   PO4 6192  12.762   7.266   9.761
  206POPC   GL1 6193  12.799   7.341   9.285
  206POPC   GL2 6194  13.062   7.130   9.164
  206POPC   C1A 6195  12.684   7.587   8.879
  206POPC   D2A 6196  12.846   7.523   8.444
  206POPC   C3A 6197  12.620   7.518   8.049
  206POPC   C4A 6198  12.782   7.469   7.611
  206POPC   C1B 6199  12.837   7.114   8.781
  206POPC   C2B 6200  12.913   6.991   8.380
  206POPC   C3B 6201  12.791   7.028   7.961
  206POPC   C4B 6202  13.072   7.045   7.618
  207POPC   NC3 6203  26.480   3.489   9.476
  207POPC   PO4 6204  25.899   3.159   9.510
  207POPC   GL1 6205  26.042   3.426   9.200
  207POPC   GL2 6206  25.786   3.637   9.065
  207POPC   C1A 6207  26.192   3.434   8.774
  207POPC   D2A 6208  26.109   3.682   8.404
  207POPC   C3A 6209  26.307   3.552   8.021
  207POPC   C4A 6210  26.126   3.768   7.662
  207POPC   C1B 6211  25.681   3.301   8.813
  207POPC   C2B 6212  25.848   3.230   8.368
  207POPC   C3B 6213  25.815   3.466   7.952
  207POPC   C4B 6214  25.714   3.515   7.472
  208POPC   NC3 6215  28.652  34.671   9.589
  208POPC   PO4 6216  27.956  34.555   9.520
  208POPC   GL1 6217  28.202  34.420   9.158
  208POPC   GL2 6218  28.590  34.351   9.180
  208POPC   C1A 6219  28.392  34.639   8.801
  208POPC   D2A 6220  28.632  34.565   8.417
  208POPC   C3A 6221  28.546  34.872   8.117
  208POPC   C4A 6222  28.166  34.813   7.851
  208POPC   C1B 6223  28.569  34.149   8.758
  208POPC   C2B 6224  28.759  34.048   8.345
  208POPC   C3B 6225  28.598  34.234   7.977
  208POPC   C4B 6226  28.156  34.285   7.879
  209POPC   NC3 6227   8.735  34.212   9.565
  209POPC   PO4 6228   8.943  33.601   9.722
  209POPC   GL1 6229   8.986  33.615   9.259
  209POPC   GL2 6230   8.831  33.929   9.157
  209POPC   C1A 6231   9.130  33.700   8.828
  209POPC   D2A 6232   9.060  33.999   8.489
  209POPC   C3A 6233   9.143  33.795   8.091
  209POPC   C4A 6234   8.961  33.535   7.760
  209POPC   C1B 6235   8.620  33.795   8.779
  209POPC   C2B 6236   8.717  33.595   8.384
  209POPC   C3B 6237   8.623  33.810   8.031
  209POPC   C4B 6238   8.444  33.891   7.626
  210POPC   NC3 6239  14.645  10.940   9.241
  210POPC   PO4 6240  14.377  11.507   9.638
  210POPC   GL1 6241  14.220  11.566   9.192
  210POPC   GL2 6242  14.222  11.222   9.117
  210POPC   C1A 6243  14.305  11.669   8.705
  210POPC   D2A 6244  14.579  11.731   8.309
  210POPC   C3A 6245  14.426  11.545   7.903
  210POPC   C4A 6246  14.617  11.177   7.724
  210POPC   C1B 6247  14.139  11.185   8.693
  210POPC   C2B 6248  14.196  11.259   8.260
  210POPC   C3B 6249  14.220  10.941   7.914
  210POPC   C4B 6250  14.250  10.912   7.449
  211POPC   NC3 6251  24.991   1.226   9.503
  211POPC   PO4 6252  25.697   1.485   9.523
  211POPC   GL1 6253  25.543   1.300   9.139
  211POPC   GL2 6254  25.216   1.252   9.062
  211POPC   C1A 6255  25.585   1.204   8.702
  211POPC   D2A 6256  25.582   1.135   8.283
  211POPC   C3A 6257  25.213   1.091   8.048
  211POPC   C4A 6258  25.492   1.195   7.745
  211POPC   C1B 6259  25.258   1.591   8.775
  211POPC   C2B 6260  25.178   1.479   8.397
  211POPC   C3B 6261  25.292   1.579   8.021
  211POPC   C4B 6262  25.108   1.522   7.632
  212POPC   NC3 6263  20.502  31.221   9.439
  212POPC   PO4 6264  21.036  31.612   9.574
  212POPC   GL1 6265  20.719  31.629   9.235
  212POPC   GL2 6266  20.917  31.673   9.014
  212POPC   C1A 6267  20.483  31.478   8.822
  212POPC   D2A 6268  20.330  31.423   8.380
  212POPC   C3A 6269  20.484  31.565   7.983
  212POPC   C4A 6270  20.488  31.276   7.661
  212POPC   C1B 6271  20.973  31.435   8.684
  212POPC   C2B 6272  20.785  31.222   8.349
  212POPC   C3B 6273  20.909  31.286   7.952
  212POPC   C4B 6274  21.015  31.597   7.784
  213POPC   NC3 6275   5.912  14.206   9.711
  213POPC   PO4 6276   6.255  14.703   9.401
  213POPC   GL1 6277   6.003  14.815   9.107
  213POPC   GL2 6278   5.672  14.661   9.167
  213POPC   C1A 6279   5.901  14.701   8.697
  213POPC   D2A 6280   5.727  14.674   8.329
  213POPC   C3A 6281   6.070  14.525   7.997
  213POPC   C4A 6282   6.253  14.576   7.574
  213POPC   C1B 6283   5.531  14.351   8.833
  213POPC   C2B 6284   5.594  14.202   8.395
  213POPC   C3B 6285   5.604  14.338   7.963
  213POPC   C4B 6286   5.525  14.225   7.533
  214POPC   NC3 6287  15.961  41.250   9.488
  214POPC   PO4 6288  15.797  41.845   9.481
  214POPC   GL1 6289  16.058  41.642   9.185
  214POPC   GL2 6290  15.829  41.522   8.975
  214POPC   C1A 6291  16.324  41.461   8.863
  214POPC   D2A 6292  16.159  41.507   8.465
  214POPC   C3A 6293  16.318  41.337   8.073
  214POPC   C4A 6294  15.969  41.409   7.814
  214POPC   C1B 6295  15.495  41.771   8.782
  214POPC   C2B 6296  15.272  41.885   8.404
  214POPC   C3B 6297  15.390  41.975   8.007
  214POPC   C4B 6298  15.733  41.853   7.761
  215POPC   NC3 6299  44.900  38.831   9.835
  215POPC   PO4 6300  44.552  39.357   9.566
  215POPC   GL1 6301  44.633  39.247   9.167
  215POPC   GL2 6302  44.937  39.142   9.264
  215POPC   C1A 6303  44.439  39.214   8.744
  215POPC   D2A 6304  44.260  39.324   8.343
  215POPC   C3A 6305  44.511  39.091   8.054
  215POPC   C4A 6306  44.628  39.190   7.654
  215POPC   C1B 6307  44.977  39.201   8.806
  215POPC   C2B 6308  44.928  39.372   8.349
  215POPC   C3B 6309   0.034  39.300   7.889
  215POPC   C4B 6310   0.039  39.216   7.367
  216POPC   NC3 6311  35.259  31.771   9.509
  216POPC   PO4 6312  35.566  31.160   9.554
  216POPC   GL1 6313  35.558  31.439   9.251
  216POPC   GL2 6314  35.227  31.401   9.173
  216POPC   C1A 6315  35.585  31.388   8.815
  216POPC   D2A 6316  35.398  31.409   8.435
  216POPC   C3A 6317  35.646  31.564   8.157
  216POPC   C4A 6318  35.569  31.462   7.746
  216POPC   C1B 6319  35.140  31.661   8.813
  216POPC   C2B 6320  34.990  31.705   8.370
  216POPC   C3B 6321  35.175  31.742   7.980
  216POPC   C4B 6322  35.545  31.974   7.881
  217POPC   NC3 6323  44.219   2.477   9.515
  217POPC   PO4 6324  43.958   1.890   9.299
  217POPC   GL1 6325  43.779   2.059   9.016
  217POPC   GL2 6326  43.613   2.378   9.134
  217POPC   C1A 6327  43.590   1.838   8.678
  217POPC   D2A 6328  43.491   1.924   8.260
  217POPC   C3A 6329  43.863   1.772   8.010
  217POPC   C4A 6330  43.899   1.634   7.585
  217POPC   C1B 6331  43.637   2.352   8.656
  217POPC   C2B 6332  43.754   2.466   8.282
  217POPC   C3B 6333  43.705   2.241   7.927
  217POPC   C4B 6334  43.470   1.921   7.703
  218POPC   NC3 6335  31.283   3.363   9.743
  218POPC   PO4 6336  31.597   3.978   9.663
  218POPC   GL1 6337  31.561   3.682   9.225
  218POPC   GL2 6338  31.264   3.747   9.023
  218POPC   C1A 6339  31.454   3.308   8.865
  218POPC   D2A 6340  31.264   3.250   8.432
  218POPC   C3A 6341  31.251   3.390   7.984
  218POPC   C4A 6342  31.492   3.354   7.600
  218POPC   C1B 6343  31.368   3.733   8.621
  218POPC   C2B 6344  31.574   3.679   8.249
  218POPC   C3B 6345  31.511   3.808   7.827
  218POPC   C4B 6346  31.518   3.834   7.378
  219POPC   NC3 6347  40.150  37.638   9.685
  219POPC   PO4 6348  39.926  38.381   9.699
  219POPC   GL1 6349  39.803  38.049   9.263
  219POPC   GL2 6350  40.001  37.736   9.236
  219POPC   C1A 6351  39.761  37.801   8.824
  219POPC   D2A 6352  39.805  37.955   8.419
  219POPC   C3A 6353  39.849  37.770   8.020
  219POPC   C4A 6354  40.150  38.031   7.754
  219POPC   C1B 6355  40.200  37.516   8.897
  219POPC   C2B 6356  40.071  37.461   8.465
  219POPC   C3B 6357  40.134  37.333   8.041
  219POPC   C4B 6358  40.243  37.521   7.664
  220POPC   NC3 6359  32.700  30.741   9.469
  220POPC   PO4 6360  33.155  30.249   9.619
  220POPC   GL1 6361  33.167  30.451   9.170
  220POPC   GL2 6362  33.083  30.782   9.132
  220POPC   C1A 6363  32.968  30.477   8.728
  220POPC   D2A 6364  32.638  30.472   8.401
  220POPC   C3A 6365  32.859  30.501   8.014
  220POPC   C4A 6366  33.200  30.507   7.719
  220POPC   C1B 6367  32.778  30.938   8.845
  220POPC   C2B 6368  32.843  31.003   8.430
  220POPC   C3B 6369  32.722  31.107   8.036
  220POPC   C4B 6370  32.801  30.872   7.664
  221POPC   NC3 6371  19.574  33.972   9.362
  221POPC   PO4 6372  20.189  34.084   9.686
  221POPC   GL1 6373  20.038  34.114   9.181
  221POPC   GL2 6374  19.895  33.779   8.991
  221POPC   C1A 6375  19.871  34.164   8.703
  221POPC   D2A 6376  19.606  33.953   8.385
  221POPC   C3A 6377  19.737  33.990   7.955
  221POPC   C4A 6378  19.808  33.873   7.538
  221POPC   C1B 6379  19.530  33.630   8.794
  221POPC   C2B 6380  19.546  33.417   8.418
  221POPC   C3B 6381  19.706  33.484   8.025
  221POPC   C4B 6382  19.449  33.541   7.659
  222POPC   NC3 6383  27.605   8.697   9.606
  222POPC   PO4 6384  27.908   9.291   9.501
  222POPC   GL1 6385  27.863   8.947   9.215
  222POPC   GL2 6386  27.894   8.545   9.215
  222POPC   C1A 6387  27.768   9.122   8.826
  222POPC   D2A 6388  27.423   9.236   8.577
  222POPC   C3A 6389  27.483   9.260   8.121
  222POPC   C4A 6390  27.416   9.133   7.672
  222POPC   C1B 6391  27.538   8.648   8.900
  222POPC   C2B 6392  27.336   8.733   8.486
  222POPC   C3B 6393  27.467   8.754   8.065
  222POPC   C4B 6394  27.348   8.557   7.731
  223POPC   NC3 6395  28.905  33.704   9.588
  223POPC   PO4 6396  29.259  34.209   9.291
  223POPC   GL1 6397  29.262  33.877   8.998
  223POPC   GL2 6398  29.122  33.586   9.147
  223POPC   C1A 6399  29.236  33.971   8.556
  223POPC   D2A 6400  29.343  34.150   8.141
  223POPC   C3A 6401  29.092  34.058   7.782
  223POPC   C4A 6402  29.297  34.011   7.377
  223POPC   C1B 6403  29.253  33.381   8.774
  223POPC   C2B 6404  29.445  33.538   8.414
  223POPC   C3B 6405  29.379  33.645   7.991
  223POPC   C4B 6406  29.034  33.509   7.742
  224POPC   NC3 6407  20.579  35.110   9.478
  224POPC   PO4 6408  20.863  35.742   9.379
  224POPC   GL1 6409  20.734  35.439   9.101
  224POPC   GL2 6410  20.401  35.465   9.147
  224POPC   C1A 6411  20.635  35.232   8.725
  224POPC   D2A 6412  20.474  35.222   8.304
  224POPC   C3A 6413  20.741  35.184   7.928
  224POPC   C4A 6414  20.815  35.433   7.549
  224POPC   C1B 6415  20.156  35.433   8.795
  224POPC   C2B 6416  20.176  35.632   8.389
  224POPC   C3B 6417  20.283  35.532   7.968
  224POPC   C4B 6418  20.304  35.538   7.573
  225POPC   NC3 6419  42.257  23.424   9.824
  225POPC   PO4 6420  42.073  23.794   9.280
  225POPC   GL1 6421  42.246  23.705   8.963
  225POPC   GL2 6422  42.455  23.467   9.028
  225POPC   C1A 6423  42.230  23.846   8.570
  225POPC   D2A 6424  42.197  23.745   8.155
  225POPC   C3A 6425  42.228  24.009   7.804
  225POPC   C4A 6426  42.257  23.606   7.560
  225POPC   C1B 6427  42.675  23.613   8.686
  225POPC   C2B 6428  42.683  23.867   8.308
  225POPC   C3B 6429  42.649  23.732   7.865
  225POPC   C4B 6430  42.600  23.961   7.437
  226POPC   NC3 6431  38.762  21.893   9.411
  226POPC   PO4 6432  38.287  22.312   9.617
  226POPC   GL1 6433  38.311  22.061   9.220
  226POPC   GL2 6434  38.528  22.320   9.133
  226POPC   C1A 6435  38.269  21.916   8.775
  226POPC   D2A 6436  38.353  22.125   8.372
  226POPC   C3A 6437  38.468  21.865   8.028
  226POPC   C4A 6438  38.312  21.816   7.614
  226POPC   C1B 6439  38.744  22.211   8.770
  226POPC   C2B 6440  39.037  22.357   8.469
  226POPC   C3B 6441  38.952  22.346   8.023
  226POPC   C4B 6442  38.669  22.162   7.665
  227POPC   NC3 6443  18.558   5.125   9.380
  227POPC   PO4 6444  17.836   4.935   9.477
  227POPC   GL1 6445  18.126   4.876   9.160
  227POPC   GL2 6446  18.105   5.208   9.088
  227POPC   C1A 6447  18.347   4.882   8.749
  227POPC   D2A 6448  18.247   5.086   8.355
  227POPC   C3A 6449  18.472   5.090   8.021
  227POPC   C4A 6450  18.417   4.950   7.635
  227POPC   C1B 6451  18.244   5.434   8.723
  227POPC   C2B 6452  17.956   5.530   8.393
  227POPC   C3B 6453  17.817   5.309   8.072
  227POPC   C4B 6454  18.110   5.333   7.781
  228POPC   NC3 6455  30.424  28.111   9.419
  228POPC   PO4 6456  30.940  27.621   9.423
  228POPC   GL1 6457  30.949  27.534   9.010
  228POPC   GL2 6458  30.614  27.421   9.015
  228POPC   C1A 6459  30.777  27.661   8.618
  228POPC   D2A 6460  30.517  27.455   8.340
  228POPC   C3A 6461  30.698  27.624   7.970
  228POPC   C4A 6462  30.807  27.637   7.523
  228POPC   C1B 6463  30.811  27.164   8.643
  228POPC   C2B 6464  30.869  27.106   8.168
  228POPC   C3B 6465  30.739  27.184   7.732
  228POPC   C4B 6466  30.377  27.364   7.522
  229POPC   NC3 6467   5.206   2.751   9.483
  229POPC   PO4 6468   4.849   3.303   9.311
  229POPC   GL1 6469   5.040   2.969   9.047
  229POPC   GL2 6470   5.395   2.905   9.040
  229POPC   C1A 6471   5.002   2.578   8.777
  229POPC   D2A 6472   5.025   2.300   8.372
  229POPC   C3A 6473   5.078   2.461   7.931
  229POPC   C4A 6474   5.040   2.671   7.514
  229POPC   C1B 6475   5.324   3.073   8.635
  229POPC   C2B 6476   5.080   3.185   8.286
  229POPC   C3B 6477   5.097   2.984   7.915
  229POPC   C4B 6478   5.464   2.883   7.692
  230POPC   NC3 6479  36.742  27.065   9.877
  230POPC   PO4 6480  36.921  26.593   9.369
  230POPC   GL1 6481  36.908  26.701   9.028
  230POPC   GL2 6482  37.101  27.043   9.085
  230POPC   C1A 6483  36.915  26.519   8.623
  230POPC   D2A 6484  36.676  26.669   8.278
  230POPC   C3A 6485  36.746  26.662   7.846
  230POPC   C4A 6486  37.104  26.883   7.760
  230POPC   C1B 6487  37.009  27.029   8.670
  230POPC   C2B 6488  36.718  27.153   8.409
  230POPC   C3B 6489  36.919  27.244   8.068
  230POPC   C4B 6490  36.695  27.182   7.756
  231POPC   NC3 6491   3.194  39.171   9.450
  231POPC   PO4 6492   2.730  39.511   9.801
  231POPC   GL1 6493   2.676  39.407   9.334
  231POPC   GL2 6494   2.926  39.341   9.045
  231POPC   C1A 6495   2.457  39.146   8.993
  231POPC   D2A 6496   2.687  38.998   8.628
  231POPC   C3A 6497   2.561  39.015   8.201
  231POPC   C4A 6498   2.679  39.139   7.823
  231POPC   C1B 6499   3.127  39.507   8.668
  231POPC   C2B 6500   3.157  39.611   8.226
  231POPC   C3B 6501   3.028  39.506   7.809
  231POPC   C4B 6502   3.168  39.658   7.417
  232POPC   NC3 6503  27.134  21.471   9.420
  232POPC   PO4 6504  27.581  21.056   9.653
  232POPC   GL1 6505  27.550  21.279   9.177
  232POPC   GL2 6506  27.743  21.595   9.114
  232POPC   C1A 6507  27.726  21.219   8.714
  232POPC   D2A 6508  27.780  21.041   8.273
  232POPC   C3A 6509  27.555  21.235   7.898
  232POPC   C4A 6510  27.659  21.388   7.490
  232POPC   C1B 6511  27.638  21.722   8.708
  232POPC   C2B 6512  27.581  21.548   8.308
  232POPC   C3B 6513  27.614  21.750   7.913
  232POPC   C4B 6514  27.284  21.771   7.639
  233POPC   NC3 6515  17.130  23.030   9.453
  233POPC   PO4 6516  16.609  22.755   9.620
  233POPC   GL1 6517  16.769  22.804   9.162
  233POPC   GL2 6518  16.775  23.162   9.027
  233POPC   C1A 6519  16.797  22.729   8.685
  233POPC   D2A 6520  16.637  22.959   8.354
  233POPC   C3A 6521  16.582  22.854   7.930
  233POPC   C4A 6522  16.605  23.195   7.691
  233POPC   C1B 6523  17.173  23.032   8.815
  233POPC   C2B 6524  17.242  23.015   8.394
  233POPC   C3B 6525  17.020  23.149   8.057
  233POPC   C4B 6526  17.080  22.853   7.773
  234POPC   NC3 6527  15.767  24.849   9.530
  234POPC   PO4 6528  15.866  25.468   9.496
  234POPC   GL1 6529  15.920  25.241   9.154
  234POPC   GL2 6530  16.229  25.066   9.231
  234POPC   C1A 6531  15.924  25.424   8.749
  234POPC   D2A 6532  16.145  25.441   8.381
  234POPC   C3A 6533  15.891  25.498   8.032
  234POPC   C4A 6534  16.136  25.364   7.674
  234POPC   C1B 6535  16.265  25.061   8.797
  234POPC   C2B 6536  15.953  24.980   8.484
  234POPC   C3B 6537  15.807  25.004   8.060
  234POPC   C4B 6538  16.029  24.836   7.690
  235POPC   NC3 6539   8.286  15.050   9.550
  235POPC   PO4 6540   8.317  15.767   9.705
  235POPC   GL1 6541   8.341  15.527   9.315
  235POPC   GL2 6542   8.040  15.465   9.185
  235POPC   C1A 6543   8.476  15.332   8.928
  235POPC   D2A 6544   8.431  15.123   8.544
  235POPC   C3A 6545   8.326  15.326   8.172
  235POPC   C4A 6546   8.345  15.047   7.815
  235POPC   C1B 6547   7.984  15.323   8.760
  235POPC   C2B 6548   7.893  15.116   8.414
  235POPC   C3B 6549   7.863  15.179   8.007
  235POPC   C4B 6550   7.836  14.979   7.605
  236POPC   NC3 6551  34.624   0.707   9.510
  236POPC   PO4 6552  34.069   0.316   9.562
  236POPC   GL1 6553  34.336   0.359   9.163
  236POPC   GL2 6554  34.692   0.306   9.194
  236POPC   C1A 6555  34.474   0.295   8.710
  236POPC   D2A 6556  34.783   0.520   8.395
  236POPC   C3A 6557  34.641   0.444   7.976
  236POPC   C4A 6558  34.214   0.395   7.784
  236POPC   C1B 6559  34.956   0.294   8.829
  236POPC   C2B 6560  34.839   0.012   8.507
  236POPC   C3B 6561  34.870  44.983   8.061
  236POPC   C4B 6562  35.035   0.095   7.667
  237POPC   NC3 6563  16.109  37.497   9.518
  237POPC   PO4 6564  15.727  38.129   9.436
  237POPC   GL1 6565  15.707  37.876   9.078
  237POPC   GL2 6566  15.843  37.531   9.100
  237POPC   C1A 6567  15.835  37.810   8.647
  237POPC   D2A 6568  16.125  37.566   8.395
  237POPC   C3A 6569  16.201  37.792   7.998
  237POPC   C4A 6570  16.494  37.693   7.666
  237POPC   C1B 6571  15.578  37.387   8.794
  237POPC   C2B 6572  15.658  37.309   8.397
  237POPC   C3B 6573  15.727  37.558   8.027
  237POPC   C4B 6574  15.703  37.611   7.562
  238POPC   NC3 6575  20.088   9.677   9.574
  238POPC   PO4 6576  19.481   9.716   9.279
  238POPC   GL1 6577  19.800   9.896   9.033
  238POPC   GL2 6578  20.033   9.643   9.064
  238POPC   C1A 6579  19.872   9.846   8.573
  238POPC   D2A 6580  19.606   9.683   8.203
  238POPC   C3A 6581  19.637   9.939   7.792
  238POPC   C4A 6582  19.916  10.120   7.449
  238POPC   C1B 6583  20.139   9.414   8.705
  238POPC   C2B 6584  20.305   9.561   8.330
  238POPC   C3B 6585  20.075   9.782   8.018
  238POPC   C4B 6586  19.841   9.453   7.789
  239POPC   NC3 6587   0.143   8.769   9.500
  239POPC   PO4 6588   0.638   9.268   9.549
  239POPC   GL1 6589   0.485   9.003   9.162
  239POPC   GL2 6590   0.806   8.827   9.084
  239POPC   C1A 6591   0.314   8.809   8.733
  239POPC   D2A 6592   0.107   9.111   8.376
  239POPC   C3A 6593   0.194   9.252   7.894
  239POPC   C4A 6594   0.362   9.232   7.417
  239POPC   C1B 6595   0.792   8.552   8.744
  239POPC   C2B 6596   0.611   8.609   8.370
  239POPC   C3B 6597   0.543   8.902   8.061
  239POPC   C4B 6598   0.330   8.812   7.671
  240POPC   NC3 6599  22.349   5.736   9.559
  240POPC   PO4 6600  21.828   6.150   9.402
  240POPC   GL1 6601  22.208   6.057   9.159
  240POPC   GL2 6602  22.078   5.751   9.117
  240POPC   C1A 6603  22.300   6.079   8.755
  240POPC   D2A 6604  21.976   5.963   8.440
  240POPC   C3A 6605  22.169   5.982   8.031
  240POPC   C4A 6606  22.063   6.119   7.598
  240POPC   C1B 6607  22.258   5.582   8.766
  240POPC   C2B 6608  22.413   5.680   8.395
  240POPC   C3B 6609  22.467   5.549   8.010
  240POPC   C4B 6610  22.254   5.643   7.648
  241POPC   NC3 6611  19.336  27.073   9.484
  241POPC   PO4 6612  19.127  27.705   9.632
  241POPC   GL1 6613  19.149  27.486   9.230
  241POPC   GL2 6614  18.817  27.402   9.113
  241POPC   C1A 6615  19.190  27.460   8.774
  241POPC   D2A 6616  19.330  27.349   8.348
  241POPC   C3A 6617  19.190  27.577   7.956
  241POPC   C4A 6618  19.219  27.476   7.523
  241POPC   C1B 6619  18.737  27.685   8.771
  241POPC   C2B 6620  18.880  27.681   8.352
  241POPC   C3B 6621  18.771  27.871   7.967
  241POPC   C4B 6622  18.767  27.673   7.570
  242POPC   NC3 6623  37.104  32.736   9.595
  242POPC   PO4 6624  36.432  32.833   9.582
  242POPC   GL1 6625  36.760  32.840   9.220
  242POPC   GL2 6626  37.116  33.018   9.155
  242POPC   C1A 6627  36.849  32.811   8.777
  242POPC   D2A 6628  37.097  32.754   8.418
  242POPC   C3A 6629  36.905  32.910   8.017
  242POPC   C4A 6630  36.968  33.001   7.553
  242POPC   C1B 6631  37.190  33.220   8.704
  242POPC   C2B 6632  37.210  33.249   8.229
  242POPC   C3B 6633  37.185  33.445   7.814
  242POPC   C4B 6634  36.927  33.495   7.422
  243POPC   NC3 6635  13.674  12.394   9.507
  243POPC   PO4 6636  13.389  13.084   9.298
  243POPC   GL1 6637  13.606  12.963   9.013
  243POPC   GL2 6638  13.695  12.671   9.094
  243POPC   C1A 6639  13.633  13.068   8.637
  243POPC   D2A 6640  13.456  12.892   8.328
  243POPC   C3A 6641  13.727  12.884   8.027
  243POPC   C4A 6642  13.524  13.117   7.734
  243POPC   C1B 6643  13.490  12.541   8.730
  243POPC   C2B 6644  13.221  12.447   8.400
  243POPC   C3B 6645  13.238  12.610   7.959
  243POPC   C4B 6646  13.602  12.472   7.769
  244POPC   NC3 6647   4.522  44.455   9.438
  244POPC   PO4 6648   3.964  44.896   9.552
  244POPC   GL1 6649   4.127  44.680   9.183
  244POPC   GL2 6650   4.384  44.866   9.166
  244POPC   C1A 6651   4.285  44.519   8.751
  244POPC   D2A 6652   4.092  44.393   8.356
  244POPC   C3A 6653   4.151  44.597   7.958
  244POPC   C4A 6654   3.978  44.455   7.578
  244POPC   C1B 6655   4.261   0.040   8.780
  244POPC   C2B 6656   4.357  44.904   8.349
  244POPC   C3B 6657   4.306   0.092   7.927
  244POPC   C4B 6658   4.345  44.967   7.449
  245POPC   NC3 6659  11.093  18.099   9.579
  245POPC   PO4 6660  11.173  18.708   9.492
  245POPC   GL1 6661  11.098  18.395   9.160
  245POPC   GL2 6662  11.420  18.208   9.212
  245POPC   C1A 6663  11.224  18.321   8.742
  245POPC   D2A 6664  11.460  18.534   8.444
  245POPC   C3A 6665  11.277  18.472   8.038
  245POPC   C4A 6666  11.040  18.204   7.771
  245POPC   C1B 6667  11.549  17.963   8.874
  245POPC   C2B 6668  11.686  18.023   8.473
  245POPC   C3B 6669  11.731  18.198   8.111
  245POPC   C4B 6670  11.540  18.115   7.762
  246POPC   NC3 6671  19.732  11.604   9.532
  246POPC   PO4 6672  19.905  10.941   9.667
  246POPC   GL1 6673  19.909  11.195   9.281
  246POPC   GL2 6674  20.083  11.541   9.160
  246POPC   C1A 6675  19.652  11.362   8.917
  246POPC   D2A 6676  19.787  11.516   8.535
  246POPC   C3A 6677  19.555  11.336   8.229
  246POPC   C4A 6678  19.596  11.237   7.816
  246POPC   C1B 6679  20.121  11.202   8.828
  246POPC   C2B 6680  20.112  11.097   8.427
  246POPC   C3B 6681  20.052  11.326   8.058
  246POPC   C4B 6682  20.081  11.071   7.716
  247POPC   NC3 6683   9.527  23.923   9.746
  247POPC   PO4 6684   9.710  23.367   9.437
  247POPC   GL1 6685   9.594  23.566   9.075
  247POPC   GL2 6686   9.419  23.849   9.210
  247POPC   C1A 6687   9.841  23.732   8.716
  247POPC   D2A 6688  10.115  23.631   8.374
  247POPC   C3A 6689   9.887  23.685   8.030
  247POPC   C4A 6690   9.620  23.390   7.856
  247POPC   C1B 6691   9.314  23.837   8.749
  247POPC   C2B 6692   9.329  23.609   8.358
  247POPC   C3B 6693   9.296  23.776   7.939
  247POPC   C4B 6694   9.620  24.006   7.742
  248POPC   NC3 6695  13.351   8.853   9.625
  248POPC   PO4 6696  14.034   8.984   9.616
  248POPC   GL1 6697  13.681   9.078   9.290
  248POPC   GL2 6698  13.465   8.809   9.129
  248POPC   C1A 6699  13.703   9.228   8.857
  248POPC   D2A 6700  13.583   9.247   8.425
  248POPC   C3A 6701  13.796   9.071   8.080
  248POPC   C4A 6702  13.741   9.248   7.694
  248POPC   C1B 6703  13.606   8.736   8.715
  248POPC   C2B 6704  13.407   8.724   8.330
  248POPC   C3B 6705  13.379   8.825   7.900
  248POPC   C4B 6706  13.691   8.762   7.601
  249POPC   NC3 6707   0.766  41.530   9.561
  249POPC   PO4 6708   0.142  41.666   9.508
  249POPC   GL1 6709   0.425  41.588   9.148
  249POPC   GL2 6710   0.653  41.300   9.123
  249POPC   C1A 6711   0.635  41.737   8.777
  249POPC   D2A 6712   0.730  41.889   8.370
  249POPC   C3A 6713   0.427  41.780   8.055
  249POPC   C4A 6714   0.673  41.763   7.770
  249POPC   C1B 6715   0.489  41.236   8.759
  249POPC   C2B 6716   0.459  41.398   8.389
  249POPC   C3B 6717   0.583  41.282   8.007
  249POPC   C4B 6718   0.789  40.981   7.830
  250POPC   NC3 6719  10.352  29.487   9.318
  250POPC   PO4 6720  10.701  29.830   9.814
  250POPC   GL1 6721  10.644  29.894   9.312
  250POPC   GL2 6722  10.456  30.151   9.159
  250POPC   C1A 6723  10.545  29.808   8.800
  250POPC   D2A 6724  10.832  29.860   8.441
  250POPC   C3A 6725  10.648  29.827   8.020
  250POPC   C4A 6726  10.221  29.784   7.944
  250POPC   C1B 6727  10.758  30.258   8.837
  250POPC   C2B 6728  10.642  30.361   8.405
  250POPC   C3B 6729  10.758  30.320   7.980
  250POPC   C4B 6730  10.837  30.418   7.590
  251POPC   NC3 6731   4.312  15.669   9.408
  251POPC   PO4 6732   4.408  16.301   9.362
  251POPC   GL1 6733   4.470  16.021   9.058
  251POPC   GL2 6734   4.652  15.697   9.033
  251POPC   C1A 6735   4.265  15.869   8.702
  251POPC   D2A 6736   4.024  16.031   8.392
  251POPC   C3A 6737   4.242  15.893   8.057
  251POPC   C4A 6738   4.075  15.937   7.675
  251POPC   C1B 6739   4.814  15.988   8.701
  251POPC   C2B 6740   4.689  15.876   8.323
  251POPC   C3B 6741   4.769  15.767   7.934
  251POPC   C4B 6742   4.587  15.966   7.647
  252POPC   NC3 6743  42.178  32.789   9.514
  252POPC   PO4 6744  42.581  33.338   9.489
  252POPC   GL1 6745  42.372  33.152   9.198
  252POPC   GL2 6746  42.586  32.875   9.129
  252POPC   C1A 6747  42.420  33.246   8.783
  252POPC   D2A 6748  42.587  33.405   8.437
  252POPC   C3A 6749  42.478  33.160   8.135
  252POPC   C4A 6750  42.166  33.190   7.841
  252POPC   C1B 6751  42.212  32.789   8.869
  252POPC   C2B 6752  42.114  32.928   8.454
  252POPC   C3B 6753  42.093  32.744   8.083
  252POPC   C4B 6754  42.196  32.695   7.684
  253POPC   NC3 6755  22.006  31.248   9.568
  253POPC   PO4 6756  22.462  31.788   9.621
  253POPC   GL1 6757  22.131  31.715   9.270
  253POPC   GL2 6758  22.229  31.396   9.137
  253POPC   C1A 6759  21.929  31.685   8.804
  253POPC   D2A 6760  22.106  31.651   8.314
  253POPC   C3A 6761  21.874  31.566   7.907
  253POPC   C4A 6762  21.926  31.774   7.474
  253POPC   C1B 6763  22.379  31.430   8.716
  253POPC   C2B 6764  22.686  31.219   8.467
  253POPC   C3B 6765  22.734  31.371   8.074
  253POPC   C4B 6766  22.358  31.379   7.803
  254POPC   NC3 6767  21.761  20.918   9.464
  254POPC   PO4 6768  22.391  20.523   9.515
  254POPC   GL1 6769  22.265  20.487   9.103
  254POPC   GL2 6770  22.174  20.825   9.148
  254POPC   C1A 6771  22.297  20.595   8.657
  254POPC   D2A 6772  22.242  20.944   8.340
  254POPC   C3A 6773  22.244  20.876   7.905
  254POPC   C4A 6774  22.190  20.513   7.694
  254POPC   C1B 6775  22.120  21.054   8.814
  254POPC   C2B 6776  21.782  21.079   8.549
  254POPC   C3B 6777  21.733  21.042   8.112
  254POPC   C4B 6778  21.875  21.143   7.704
  255POPC   NC3 6779  30.397  33.861   9.329
  255POPC   PO4 6780  30.853  34.261   9.650
  255POPC   GL1 6781  30.675  34.454   9.297
  255POPC   GL2 6782  30.395  34.352   9.223
  255POPC   C1A 6783  30.668  34.674   8.904
  255POPC   D2A 6784  30.601  34.637   8.468
  255POPC   C3A 6785  30.836  34.431   8.154
  255POPC   C4A 6786  30.848  34.632   7.745
  255POPC   C1B 6787  30.302  34.324   8.784
  255POPC   C2B 6788  30.222  34.344   8.349
  255POPC   C3B 6789  30.397  34.474   7.957
  255POPC   C4B 6790  30.482  34.375   7.487
  256POPC   NC3 6791  25.047  44.620   9.468
  256POPC   PO4 6792  25.622  44.974   9.307
  256POPC   GL1 6793  25.239  44.922   9.078
  256POPC   GL2 6794  24.991   0.207   9.127
  256POPC   C1A 6795  25.206  44.556   8.777
  256POPC   D2A 6796  25.484  44.248   8.492
  256POPC   C3A 6797  25.404  44.307   8.058
  256POPC   C4A 6798  25.588  44.551   7.712
  256POPC   C1B 6799  24.904  44.979   8.698
  256POPC   C2B 6800  25.002  44.774   8.283
  256POPC   C3B 6801  25.071  44.659   7.817
  256POPC   C4B 6802  24.885  44.537   7.395
  257POPC   NC3 6803  25.718  13.975   9.400
  257POPC   PO4 6804  25.094  13.676   9.584
  257POPC   GL1 6805  25.242  13.620   9.129
  257POPC   GL2 6806  25.359  13.273   9.032
  257POPC   C1A 6807  25.369  13.820   8.734
  257POPC   D2A 6808  25.111  13.732   8.377
  257POPC   C3A 6809  25.199  13.738   7.935
  257POPC   C4A 6810  25.070  13.950   7.539
  257POPC   C1B 6811  25.449  13.348   8.598
  257POPC   C2B 6812  25.487  13.191   8.192
  257POPC   C3B 6813  25.481  13.323   7.781
  257POPC   C4B 6814  25.587  13.185   7.351
  258POPC   NC3 6815  20.563  34.112   9.418
  258POPC   PO4 6816  20.879  34.751   9.503
  258POPC   GL1 6817  20.544  34.637   9.199
  258POPC   GL2 6818  20.351  34.934   9.070
  258POPC   C1A 6819  20.564  34.526   8.755
  258POPC   D2A 6820  20.693  34.776   8.377
  258POPC   C3A 6821  20.618  34.660   7.931
  258POPC   C4A 6822  20.871  34.316   7.705
  258POPC   C1B 6823  20.254  34.913   8.649
  258POPC   C2B 6824  20.152  34.830   8.207
  258POPC   C3B 6825  20.218  35.007   7.822
  258POPC   C4B 6826  20.480  35.064   7.494
  259POPC   NC3 6827  26.610  31.075   9.881
  259POPC   PO4 6828  26.675  30.695   9.440
  259POPC   GL1 6829  26.826  30.672   9.029
  259POPC   GL2 6830  27.188  30.754   8.980
  259POPC   C1A 6831  26.792  30.466   8.628
  259POPC   D2A 6832  26.822  30.819   8.345
  259POPC   C3A 6833  26.774  30.704   7.936
  259POPC   C4A 6834  26.646  30.912   7.563
  259POPC   C1B 6835  27.292  30.496   8.638
  259POPC   C2B 6836  27.267  30.627   8.246
  259POPC   C3B 6837  27.236  30.528   7.858
  259POPC   C4B 6838  27.152  30.867   7.564
  260POPC   NC3 6839   9.218  31.068   9.437
  260POPC   PO4 6840   8.934  31.542   9.585
  260POPC   GL1 6841   9.050  31.558   9.177
  260POPC   GL2 6842   9.373  31.462   9.141
  260POPC   C1A 6843   8.974  31.601   8.744
  260POPC   D2A 6844   8.619  31.657   8.471
  260POPC   C3A 6845   8.624  31.429   8.100
  260POPC   C4A 6846   8.826  31.630   7.775
  260POPC   C1B 6847   9.315  31.185   8.779
  260POPC   C2B 6848   9.046  31.194   8.435
  260POPC   C3B 6849   9.113  31.543   8.187
  260POPC   C4B 6850   9.334  31.422   7.827
  261POPC   NC3 6851  32.705  44.050   9.772
  261POPC   PO4 6852  32.017  43.778   9.521
  261POPC   GL1 6853  32.174  44.018   9.173
  261POPC   GL2 6854  31.959  44.278   8.985
  261POPC   C1A 6855  32.181  43.777   8.791
  261POPC   D2A 6856  32.440  43.733   8.439
  261POPC   C3A 6857  32.220  43.746   8.044
  261POPC   C4A 6858  32.301  43.556   7.684
  261POPC   C1B 6859  32.330  44.269   8.744
  261POPC   C2B 6860  32.200  44.167   8.331
  261POPC   C3B 6861  32.338  44.300   7.937
  261POPC   C4B 6862  32.450  44.034   7.589
  262POPC   NC3 6863   8.977  35.527   9.389
  262POPC   PO4 6864   9.213  34.830   9.311
  262POPC   GL1 6865   9.141  35.191   9.027
  262POPC   GL2 6866   8.806  35.118   9.067
  262POPC   C1A 6867   8.966  35.559   8.742
  262POPC   D2A 6868   8.968  35.799   8.332
  262POPC   C3A 6869   9.004  35.537   7.950
  262POPC   C4A 6870   8.797  35.555   7.527
  262POPC   C1B 6871   8.787  35.111   8.623
  262POPC   C2B 6872   8.594  35.401   8.331
  262POPC   C3B 6873   8.572  35.291   7.920
  262POPC   C4B 6874   8.922  35.050   7.810
  263POPC   NC3 6875  30.910   1.952   9.483
  263POPC   PO4 6876  31.564   2.075   9.733
  263POPC   GL1 6877  31.571   2.119   9.290
  263POPC   GL2 6878  31.332   1.870   9.134
  263POPC   C1A 6879  31.612   2.153   8.835
  263POPC   D2A 6880  31.517   1.865   8.489
  263POPC   C3A 6881  31.429   1.952   8.058
  263POPC   C4A 6882  31.679   1.980   7.694
  263POPC   C1B 6883  31.085   2.021   8.741
  263POPC   C2B 6884  30.827   1.809   8.411
  263POPC   C3B 6885  30.880   1.704   7.957
  263POPC   C4B 6886  31.242   1.684   7.633
  264POPC   NC3 6887  20.860   7.243   9.419
  264POPC   PO4 6888  21.047   7.826   9.621
  264POPC   GL1 6889  21.261   7.605   9.252
  264POPC   GL2 6890  21.331   7.231   9.235
  264POPC   C1A 6891  21.377   7.554   8.816
  264POPC   D2A 6892  21.313   7.737   8.408
  264POPC   C3A 6893  21.556   7.526   8.085
  264POPC   C4A 6894  21.759   7.614   7.725
  264POPC   C1B 6895  21.158   7.070   8.834
  264POPC   C2B 6896  21.244   7.237   8.422
  264POPC   C3B 6897  21.052   7.463   8.066
  264POPC   C4B 6898  21.195   7.303   7.693
  265POPC   NC3 6899  13.704  16.093   9.478
  265POPC   PO4 6900  14.044  15.509   9.430
  265POPC   GL1 6901  13.861  15.799   9.086
  265POPC   GL2 6902  13.495  15.906   9.069
  265POPC   C1A 6903  13.779  15.918   8.645
  265POPC   D2A 6904  13.562  16.008   8.266
  265POPC   C3A 6905  13.836  15.982   7.936
  265POPC   C4A 6906  13.956  16.009   7.496
  265POPC   C1B 6907  13.424  16.291   8.797
  265POPC   C2B 6908  13.161  16.512   8.491
  265POPC   C3B 6909  13.170  16.325   8.099
  265POPC   C4B 6910  13.374  16.097   7.762
  266POPC   NC3 6911  10.704  18.650   9.384
  266POPC   PO4 6912  10.359  19.147   9.710
  266POPC   GL1 6913  10.657  19.148   9.325
  266POPC   GL2 6914  10.362  19.123   9.151
  266POPC   C1A 6915  10.798  19.260   8.876
  266POPC   D2A 6916  10.739  19.173   8.407
  266POPC   C3A 6917  10.354  19.357   8.168
  266POPC   C4A 6918  10.201  19.497   7.726
  266POPC   C1B 6919  10.478  18.871   8.791
  266POPC   C2B 6920  10.465  18.731   8.382
  266POPC   C3B 6921  10.522  18.918   7.973
  266POPC   C4B 6922  10.165  18.976   7.721
  267POPC   NC3 6923  35.005  37.793   9.629
  267POPC   PO4 6924  35.683  37.971   9.563
  267POPC   GL1 6925  35.443  37.663   9.286
  267POPC   GL2 6926  35.091  37.671   9.129
  267POPC   C1A 6927  35.504  37.491   8.867
  267POPC   D2A 6928  35.330  37.556   8.469
  267POPC   C3A 6929  35.539  37.415   8.110
  267POPC   C4A 6930  35.319  37.459   7.748
  267POPC   C1B 6931  35.344  37.958   8.829
  267POPC   C2B 6932  35.558  38.033   8.443
  267POPC   C3B 6933  35.498  37.916   8.007
  267POPC   C4B 6934  35.792  38.106   7.749
  268POPC   NC3 6935  10.105  18.169   9.441
  268POPC   PO4 6936   9.561  18.600   9.377
  268POPC   GL1 6937   9.809  18.338   9.070
  268POPC   GL2 6938   9.570  18.136   9.061
  268POPC   C1A 6939   9.864  18.066   8.672
  268POPC   D2A 6940   9.644  18.074   8.275
  268POPC   C3A 6941   9.907  18.074   7.929
  268POPC   C4A 6942  10.013  18.322   7.591
  268POPC   C1B 6943   9.455  18.371   8.688
  268POPC   C2B 6944   9.491  18.568   8.318
  268POPC   C3B 6945   9.651  18.522   7.931
  268POPC   C4B 6946   9.458  18.293   7.635
  269POPC   NC3 6947  28.792  14.987   9.411
  269POPC   PO4 6948  29.376  15.427   9.508
  269POPC   GL1 6949  29.275  15.126   9.215
  269POPC   GL2 6950  29.023  15.271   9.060
  269POPC   C1A 6951  29.370  15.018   8.785
  269POPC   D2A 6952  29.064  15.077   8.467
  269POPC   C3A 6953  29.233  15.034   8.056
  269POPC   C4A 6954  29.056  14.954   7.669
  269POPC   C1B 6955  28.854  15.542   8.758
  269POPC   C2B 6956  28.735  15.463   8.349
  269POPC   C3B 6957  28.725  15.191   8.032
  269POPC   C4B 6958  28.740  15.396   7.640
  270POPC   NC3 6959  27.584   1.702   9.550
  270POPC   PO4 6960  28.054   2.118   9.500
  270POPC   GL1 6961  27.754   2.015   9.188
  270POPC   GL2 6962  27.523   2.228   9.092
  270POPC   C1A 6963  27.655   1.776   8.806
  270POPC   D2A 6964  27.624   1.552   8.377
  270POPC   C3A 6965  27.493   1.796   7.973
  270POPC   C4A 6966  27.492   2.015   7.536
  270POPC   C1B 6967  27.848   2.231   8.744
  270POPC   C2B 6968  27.759   2.074   8.343
  270POPC   C3B 6969  27.687   2.296   7.976
  270POPC   C4B 6970  27.289   2.364   7.854
  271POPC   NC3 6971   9.210  14.985   9.499
  271POPC   PO4 6972   8.838  15.523   9.516
  271POPC   GL1 6973   8.911  15.214   9.159
  271POPC   GL2 6974   9.237  15.317   9.062
  271POPC   C1A 6975   8.956  15.140   8.669
  271POPC   D2A 6976   9.140  14.973   8.245
  271POPC   C3A 6977   8.885  14.963   7.848
  271POPC   C4A 6978   8.705  15.092   7.441
  271POPC   C1B 6979   8.894  15.616   8.859
  271POPC   C2B 6980   8.693  15.592   8.480
  271POPC   C3B 6981   8.833  15.431   8.094
  271POPC   C4B 6982   8.604  15.500   7.740
  272POPC   NC3 6983  33.331  18.059   9.514
  272POPC   PO4 6984  32.769  18.468   9.639
  272POPC   GL1 6985  32.982  18.311   9.218
  272POPC   GL2 6986  33.143  18.023   9.040
  272POPC   C1A 6987  32.856  18.373   8.789
  272POPC   D2A 6988  33.003  18.205   8.408
  272POPC   C3A 6989  32.863  18.505   8.106
  272POPC   C4A 6990  32.931  18.508   7.666
  272POPC   C1B 6991  33.352  18.396   8.789
  272POPC   C2B 6992  33.298  18.631   8.405
  272POPC   C3B 6993  33.343  18.409   8.018
  272POPC   C4B 6994  33.328  18.083   7.725
  273POPC   NC3 6995  15.603  23.689   9.482
  273POPC   PO4 6996  15.090  23.261   9.575
  273POPC   GL1 6997  15.070  23.522   9.191
  273POPC   GL2 6998  15.188  23.841   9.199
  273POPC   C1A 6999  14.961  23.680   8.774
  273POPC   D2A 7000  14.803  23.589   8.381
  273POPC   C3A 7001  14.936  23.821   8.028
  273POPC   C4A 7002  14.799  23.605   7.664
  273POPC   C1B 7003  15.432  23.919   8.808
  273POPC   C2B 7004  15.341  23.770   8.390
  273POPC   C3B 7005  15.498  23.551   8.032
  273POPC   C4B 7006  15.308  23.741   7.672
  274POPC   NC3 7007   7.924  18.311   9.678
  274POPC   PO4 7008   7.204  18.109   9.571
  274POPC   GL1 7009   7.383  18.167   9.198
  274POPC   GL2 7010   7.547  18.459   9.301
  274POPC   C1A 7011   7.258  18.243   8.781
  274POPC   D2A 7012   7.498  18.243   8.385
  274POPC   C3A 7013   7.297  18.395   8.047
  274POPC   C4A 7014   7.166  18.214   7.676
  274POPC   C1B 7015   7.657  18.522   8.874
  274POPC   C2B 7016   7.889  18.544   8.496
  274POPC   C3B 7017   7.802  18.596   8.056
  274POPC   C4B 7018   7.572  18.547   7.655
  275POPC   NC3 7019  29.668  12.237   9.953
  275POPC   PO4 7020  30.112  11.958   9.586
  275POPC   GL1 7021  29.823  12.060   9.231
  275POPC   GL2 7022  29.599  12.360   9.259
  275POPC   C1A 7023  29.673  11.934   8.819
  275POPC   D2A 7024  29.478  11.886   8.398
  275POPC   C3A 7025  29.742  11.948   8.021
  275POPC   C4A 7026  29.765  11.685   7.674
  275POPC   C1B 7027  29.673  12.442   8.811
  275POPC   C2B 7028  29.787  12.309   8.401
  275POPC   C3B 7029  29.676  12.474   7.978
  275POPC   C4B 7030  29.927  12.499   7.593
  276POPC   NC3 7031  32.695  24.693   9.448
  276POPC   PO4 7032  33.115  24.163   9.511
  276POPC   GL1 7033  33.327  24.332   9.120
  276POPC   GL2 7034  33.103  24.612   9.083
  276POPC   C1A 7035  33.353  24.329   8.679
  276POPC   D2A 7036  33.133  24.623   8.429
  276POPC   C3A 7037  33.270  24.539   8.044
  276POPC   C4A 7038  33.130  24.561   7.655
  276POPC   C1B 7039  32.760  24.699   8.781
  276POPC   C2B 7040  32.756  24.956   8.395
  276POPC   C3B 7041  32.802  24.797   7.990
  276POPC   C4B 7042  32.675  24.762   7.560
  277POPC   NC3 7043   4.579  39.821   9.389
  277POPC   PO4 7044   4.121  40.278   9.646
  277POPC   GL1 7045   4.020  40.159   9.217
  277POPC   GL2 7046   4.363  40.238   9.170
  277POPC   C1A 7047   4.098  39.916   8.795
  277POPC   D2A 7048   4.455  39.947   8.567
  277POPC   C3A 7049   4.432  39.933   8.120
  277POPC   C4A 7050   4.086  39.850   7.853
  277POPC   C1B 7051   4.234  40.400   8.776
  277POPC   C2B 7052   4.163  40.303   8.340
  277POPC   C3B 7053   4.190  40.373   7.887
  277POPC   C4B 7054   4.215  40.201   7.443
  278POPC   NC3 7055  42.402  42.755   9.418
  278POPC   PO4 7056  42.033  42.171   9.488
  278POPC   GL1 7057  42.359  42.275   9.174
  278POPC   GL2 7058  42.204  42.510   9.002
  278POPC   C1A 7059  42.612  42.199   8.814
  278POPC   D2A 7060  42.621  42.027   8.426
  278POPC   C3A 7061  42.439  42.271   8.081
  278POPC   C4A 7062  42.620  42.046   7.734
  278POPC   C1B 7063  42.207  42.430   8.584
  278POPC   C2B 7064  42.008  42.632   8.267
  278POPC   C3B 7065  42.181  42.764   7.907
  278POPC   C4B 7066  42.329  42.468   7.581
  279POPC   NC3 7067  17.727  26.622   9.457
  279POPC   PO4 7068  17.337  27.134   9.520
  279POPC   GL1 7069  17.265  26.813   9.211
  279POPC   GL2 7070  17.562  26.967   9.071
  279POPC   C1A 7071  17.216  26.652   8.776
  279POPC   D2A 7072  17.394  26.767   8.389
  279POPC   C3A 7073  17.217  26.667   8.002
  279POPC   C4A 7074  17.331  26.893   7.644
  279POPC   C1B 7075  17.757  26.779   8.742
  279POPC   C2B 7076  17.932  26.671   8.341
  279POPC   C3B 7077  17.726  26.822   7.998
  279POPC   C4B 7078  17.850  26.799   7.619
  280POPC   NC3 7079  39.332  34.105   9.519
  280POPC   PO4 7080  39.219  33.544   9.789
  280POPC   GL1 7081  39.297  33.570   9.211
  280POPC   GL2 7082  39.397  33.900   9.069
  280POPC   C1A 7083  39.463  33.514   8.766
  280POPC   D2A 7084  39.592  33.680   8.366
  280POPC   C3A 7085  39.353  33.632   8.005
  280POPC   C4A 7086  39.306  33.961   7.741
  280POPC   C1B 7087  39.079  33.852   8.744
  280POPC   C2B 7088  39.057  33.950   8.323
  280POPC   C3B 7089  38.853  33.874   7.945
  280POPC   C4B 7090  38.856  34.130   7.566
  281POPC   NC3 7091  31.281  29.525   9.460
  281POPC   PO4 7092  31.742  29.963   9.237
  281POPC   GL1 7093  31.403  30.087   9.064
  281POPC   GL2 7094  31.262  29.787   9.032
  281POPC   C1A 7095  31.441  29.997   8.607
  281POPC   D2A 7096  31.444  30.224   8.235
  281POPC   C3A 7097  31.683  30.026   7.919
  281POPC   C4A 7098  31.685  29.564   7.823
  281POPC   C1B 7099  31.045  29.619   8.679
  281POPC   C2B 7100  31.283  29.613   8.298
  281POPC   C3B 7101  31.163  29.704   7.903
  281POPC   C4B 7102  30.945  30.051   7.762
  282POPC   NC3 7103  29.158  38.947   9.548
  282POPC   PO4 7104  29.498  39.551   9.332
  282POPC   GL1 7105  29.267  39.406   9.032
  282POPC   GL2 7106  29.027  39.226   9.148
  282POPC   C1A 7107  29.117  39.369   8.608
  282POPC   D2A 7108  29.330  39.512   8.232
  282POPC   C3A 7109  29.206  39.294   7.866
  282POPC   C4A 7110  29.207  39.283   7.374
  282POPC   C1B 7111  28.900  38.935   8.846
  282POPC   C2B 7112  29.070  38.861   8.440
  282POPC   C3B 7113  28.954  38.785   8.023
  282POPC   C4B 7114  29.111  38.857   7.641
  283POPC   NC3 7115  18.826  33.311   9.429
  283POPC   PO4 7116  19.307  32.888   9.596
  283POPC   GL1 7117  19.256  32.932   9.161
  283POPC   GL2 7118  19.406  33.274   9.191
  283POPC   C1A 7119  19.029  32.767   8.763
  283POPC   D2A 7120  18.964  32.853   8.316
  283POPC   C3A 7121  19.260  32.721   8.032
  283POPC   C4A 7122  19.250  32.666   7.597
  283POPC   C1B 7123  19.165  33.267   8.791
  283POPC   C2B 7124  19.030  33.375   8.385
  283POPC   C3B 7125  19.236  33.237   8.042
  283POPC   C4B 7126  18.980  33.069   7.764
  284POPC   NC3 7127  16.279  11.904   9.484
  284POPC   PO4 7128  15.611  11.895   9.373
  284POPC   GL1 7129  15.905  12.158   9.137
  284POPC   GL2 7130  16.262  12.139   9.030
  284POPC   C1A 7131  15.860  12.346   8.728
  284POPC   D2A 7132  16.087  12.258   8.336
  284POPC   C3A 7133  15.938  12.398   7.934
  284POPC   C4A 7134  15.801  12.201   7.559
  284POPC   C1B 7135  16.158  11.814   8.756
  284POPC   C2B 7136  16.311  11.758   8.353
  284POPC   C3B 7137  16.269  11.933   7.966
  284POPC   C4B 7138  15.998  11.760   7.667
  285POPC   NC3 7139  20.381   1.686   9.699
  285POPC   PO4 7140  20.631   2.214   9.457
  285POPC   GL1 7141  20.665   2.052   9.086
  285POPC   GL2 7142  20.788   1.746   9.057
  285POPC   C1A 7143  20.841   2.105   8.699
  285POPC   D2A 7144  20.768   1.870   8.338
  285POPC   C3A 7145  20.706   2.087   7.985
  285POPC   C4A 7146  20.670   2.217   7.569
  285POPC   C1B 7147  20.593   1.544   8.704
  285POPC   C2B 7148  20.518   1.423   8.260
  285POPC   C3B 7149  20.417   1.689   7.900
  285POPC   C4B 7150  20.621   1.728   7.463
  286POPC   NC3 7151  32.948  36.512   9.669
  286POPC   PO4 7152  32.878  35.898   9.714
  286POPC   GL1 7153  32.975  36.131   9.291
  286POPC   GL2 7154  32.983  35.821   9.141
  286POPC   C1A 7155  32.901  36.288   8.781
  286POPC   D2A 7156  32.710  36.194   8.345
  286POPC   C3A 7157  32.898  36.380   7.990
  286POPC   C4A 7158  33.312  36.367   7.812
  286POPC   C1B 7159  32.743  35.813   8.770
  286POPC   C2B 7160  32.965  35.765   8.379
  286POPC   C3B 7161  33.072  35.799   7.929
  286POPC   C4B 7162  32.942  35.590   7.516
  287POPC   NC3 7163  17.299  14.094   9.500
  287POPC   PO4 7164  17.556  13.460   9.484
  287POPC   GL1 7165  17.395  13.482   9.072
  287POPC   GL2 7166  17.343  13.809   9.086
  287POPC   C1A 7167  17.425  13.439   8.615
  287POPC   D2A 7168  17.598  13.166   8.357
  287POPC   C3A 7169  17.439  13.313   8.032
  287POPC   C4A 7170  17.311  13.453   7.682
  287POPC   C1B 7171  17.523  13.926   8.716
  287POPC   C2B 7172  17.291  13.940   8.375
  287POPC   C3B 7173  17.366  13.862   7.968
  287POPC   C4B 7174  17.530  13.898   7.559
  288POPC   NC3 7175  33.742  27.972   9.414
  288POPC   PO4 7176  33.971  27.345   9.479
  288POPC   GL1 7177  33.896  27.485   9.108
  288POPC   GL2 7178  33.596  27.579   9.131
  288POPC   C1A 7179  34.094  27.734   8.807
  288POPC   D2A 7180  34.133  27.871   8.388
  288POPC   C3A 7181  34.059  27.613   8.059
  288POPC   C4A 7182  33.691  27.538   7.802
  288POPC   C1B 7183  33.386  27.794   8.808
  288POPC   C2B 7184  33.634  27.965   8.478
  288POPC   C3B 7185  33.658  28.015   8.051
  288POPC   C4B 7186  33.428  27.997   7.668
  289POPC   NC3 7187  44.923  33.060   9.509
  289POPC   PO4 7188  44.324  32.860   9.570
  289POPC   GL1 7189  44.517  33.038   9.183
  289POPC   GL2 7190  44.480  32.742   9.085
  289POPC   C1A 7191  44.698  33.135   8.747
  289POPC   D2A 7192   0.092  33.152   8.421
  289POPC   C3A 7193  44.949  33.117   7.963
  289POPC   C4A 7194  44.566  33.307   7.744
  289POPC   C1B 7195  44.310  32.766   8.712
  289POPC   C2B 7196  44.249  32.996   8.374
  289POPC   C3B 7197  44.491  32.929   8.074
  289POPC   C4B 7198  44.559  32.782   7.654
  290POPC   NC3 7199  43.776  17.877   9.522
  290POPC   PO4 7200  44.079  17.303   9.616
  290POPC   GL1 7201  44.038  17.512   9.218
  290POPC   GL2 7202  43.689  17.489   9.201
  290POPC   C1A 7203  43.913  17.351   8.783
  290POPC   D2A 7204  44.028  17.489   8.399
  290POPC   C3A 7205  43.916  17.333   8.061
  290POPC   C4A 7206  43.887  17.505   7.704
  290POPC   C1B 7207  43.581  17.817   8.909
  290POPC   C2B 7208  43.580  17.793   8.478
  290POPC   C3B 7209  43.728  17.845   8.070
  290POPC   C4B 7210  43.522  17.874   7.663
  291POPC   NC3 7211  27.637  31.622   9.798
  291POPC   PO4 7212  28.023  32.035   9.376
  291POPC   GL1 7213  27.636  31.726   9.208
  291POPC   GL2 7214  27.535  31.380   9.296
  291POPC   C1A 7215  27.370  31.590   8.811
  291POPC   D2A 7216  27.415  31.696   8.370
  291POPC   C3A 7217  27.503  31.543   7.948
  291POPC   C4A 7218  27.514  31.660   7.489
  291POPC   C1B 7219  27.780  31.314   8.900
  291POPC   C2B 7220  27.820  31.303   8.444
  291POPC   C3B 7221  27.891  31.079   8.060
  291POPC   C4B 7222  27.842  31.301   7.643
  292POPC   NC3 7223  38.865   9.188   9.575
  292POPC   PO4 7224  39.559   8.848   9.545
  292POPC   GL1 7225  39.325   8.705   9.202
  292POPC   GL2 7226  39.015   8.826   9.236
  292POPC   C1A 7227  39.213   8.615   8.788
  292POPC   D2A 7228  39.449   8.867   8.496
  292POPC   C3A 7229  39.335   8.730   8.093
  292POPC   C4A 7230  39.034   8.628   7.770
  292POPC   C1B 7231  39.104   9.105   8.843
  292POPC   C2B 7232  39.060   9.172   8.355
  292POPC   C3B 7233  39.091   9.137   7.901
  292POPC   C4B 7234  39.452   9.361   7.802
  293POPC   NC3 7235  18.450  41.295   9.362
  293POPC   PO4 7236  18.334  41.860   9.679
  293POPC   GL1 7237  18.148  41.726   9.283
  293POPC   GL2 7238  18.389  41.917   9.143
  293POPC   C1A 7239  18.177  41.575   8.837
  293POPC   D2A 7240  18.035  41.460   8.445
  293POPC   C3A 7241  18.290  41.406   8.115
  293POPC   C4A 7242  17.978  41.496   7.864
  293POPC   C1B 7243  18.587  41.917   8.770
  293POPC   C2B 7244  18.436  41.805   8.397
  293POPC   C3B 7245  18.578  41.809   8.005
  293POPC   C4B 7246  18.669  41.936   7.625
  294POPC   NC3 7247   2.295  32.429   9.625
  294POPC   PO4 7248   1.753  31.994   9.444
  294POPC   GL1 7249   1.708  31.969   9.066
  294POPC   GL2 7250   2.046  31.994   8.985
  294POPC   C1A 7251   1.706  32.174   8.695
  294POPC   D2A 7252   1.958  32.276   8.381
  294POPC   C3A 7253   1.906  32.519   8.038
  294POPC   C4A 7254   1.629  32.441   7.729
  294POPC   C1B 7255   2.209  32.413   8.813
  294POPC   C2B 7256   2.429  32.453   8.385
  294POPC   C3B 7257   2.323  32.121   8.064
  294POPC   C4B 7258   2.263  32.331   7.683
  295POPC   NC3 7259  10.400   9.772   9.675
  295POPC   PO4 7260  10.814  10.271   9.507
  295POPC   GL1 7261  10.497  10.018   9.187
  295POPC   GL2 7262  10.570   9.649   9.135
  295POPC   C1A 7263  10.290   9.867   8.769
  295POPC   D2A 7264  10.473   9.871   8.317
  295POPC   C3A 7265  10.477   9.467   8.047
  295POPC   C4A 7266  10.506   9.258   7.597
  295POPC   C1B 7267  10.810   9.705   8.718
  295POPC   C2B 7268  11.005   9.982   8.388
  295POPC   C3B 7269  10.879  10.049   7.963
  295POPC   C4B 7270  10.666   9.774   7.699
  296POPC   NC3 7271  40.431  19.976   9.390
  296POPC   PO4 7272  39.738  20.010   9.422
  296POPC   GL1 7273  40.002  19.715   9.173
  296POPC   GL2 7274  39.816  19.414   9.115
  296POPC   C1A 7275  40.267  19.806   8.785
  296POPC   D2A 7276  40.205  20.081   8.426
  296POPC   C3A 7277  40.194  19.912   8.042
  296POPC   C4A 7278  40.019  19.916   7.638
  296POPC   C1B 7279  39.603  19.399   8.718
  296POPC   C2B 7280  39.763  19.402   8.286
  296POPC   C3B 7281  39.694  19.632   7.905
  296POPC   C4B 7282  39.486  19.614   7.465
  297POPC   NC3 7283   9.605  39.518   9.416
  297POPC   PO4 7284  10.046  39.038   9.454
  297POPC   GL1 7285   9.863  39.256   9.076
  297POPC   GL2 7286   9.457  39.204   9.058
  297POPC   C1A 7287   9.748  39.080   8.687
  297POPC   D2A 7288   9.920  39.036   8.329
  297POPC   C3A 7289   9.684  39.139   7.985
  297POPC   C4A 7290   9.788  39.499   7.765
  297POPC   C1B 7291   9.547  39.585   8.760
  297POPC   C2B 7292   9.366  39.774   8.358
  297POPC   C3B 7293   9.331  39.672   7.893
  297POPC   C4B 7294   9.348  39.325   7.585
  298POPC   NC3 7295  44.177  18.484   9.542
  298POPC   PO4 7296  43.522  18.264   9.461
  298POPC   GL1 7297  43.798  18.249   9.110
  298POPC   GL2 7298  44.081  18.029   9.147
  298POPC   C1A 7299  43.771  18.261   8.650
  298POPC   D2A 7300  43.831  18.467   8.238
  298POPC   C3A 7301  43.664  18.336   7.818
  298POPC   C4A 7302  43.723  18.219   7.353
  298POPC   C1B 7303  44.067  17.849   8.755
  298POPC   C2B 7304  44.157  18.031   8.356
  298POPC   C3B 7305  44.245  18.268   7.997
  298POPC   C4B 7306  44.045  18.014   7.693
  299POPC   NC3 7307  24.777  18.769   9.493
  299POPC   PO4 7308  24.211  19.047   9.508
  299POPC   GL1 7309  24.414  19.205   9.125
  299POPC   GL2 7310  24.733  19.347   9.240
  299POPC   C1A 7311  24.454  19.029   8.717
  299POPC   D2A 7312  24.579  18.784   8.371
  299POPC   C3A 7313  24.500  18.940   7.950
  299POPC   C4A 7314  24.347  18.727   7.549
  299POPC   C1B 7315  24.856  19.363   8.809
  299POPC   C2B 7316  24.759  19.259   8.382
  299POPC   C3B 7317  24.921  19.213   7.990
  299POPC   C4B 7318  25.033  19.016   7.623
  300POPC   NC3 7319  13.705   5.813   9.427
  300POPC   PO4 7320  13.386   6.328   9.486
  300POPC   GL1 7321  13.611   6.258   9.134
  300POPC   GL2 7322  13.386   6.005   9.051
  300POPC   C1A 7323  13.590   6.311   8.690
  300POPC   D2A 7324  13.490   6.032   8.333
  300POPC   C3A 7325  13.761   5.993   8.001
  300POPC   C4A 7326  13.631   6.164   7.619
  300POPC   C1B 7327  13.613   5.779   8.749
  300POPC   C2B 7328  13.860   5.600   8.405
  300POPC   C3B 7329  13.791   5.465   7.966
  300POPC   C4B 7330  13.720   5.667   7.565
  301POPC   NC3 7331  12.225  13.151   9.446
  301POPC   PO4 7332  12.092  12.498   9.426
  301POPC   GL1 7333  12.208  12.748   9.094
  301POPC   GL2 7334  12.551  12.763   9.187
  301POPC   C1A 7335  12.239  12.701   8.651
  301POPC   D2A 7336  12.386  12.461   8.306
  301POPC   C3A 7337  12.132  12.616   7.993
  301POPC   C4A 7338  11.804  12.949   8.019
  301POPC   C1B 7339  12.501  13.088   8.846
  301POPC   C2B 7340  12.571  13.109   8.442
  301POPC   C3B 7341  12.411  13.048   8.038
  301POPC   C4B 7342  12.567  13.062   7.640
  302POPC   NC3 7343  40.539  35.842   9.793
  302POPC   PO4 7344  40.892  36.319   9.489
  302POPC   GL1 7345  40.661  36.214   9.171
  302POPC   GL2 7346  40.644  35.894   9.279
  302POPC   C1A 7347  40.668  36.307   8.746
  302POPC   D2A 7348  40.811  36.189   8.346
  302POPC   C3A 7349  40.660  36.321   7.944
  302POPC   C4A 7350  41.029  36.273   7.672
  302POPC   C1B 7351  40.632  35.771   8.841
  302POPC   C2B 7352  40.752  35.653   8.413
  302POPC   C3B 7353  40.912  35.791   8.025
  302POPC   C4B 7354  40.696  35.891   7.675
  303POPC   NC3 7355  21.355  34.585   9.605
  303POPC   PO4 7356  22.064  34.545   9.636
  303POPC   GL1 7357  21.710  34.553   9.211
  303POPC   GL2 7358  21.323  34.397   9.161
  303POPC   C1A 7359  21.621  34.415   8.767
  303POPC   D2A 7360  21.528  34.292   8.352
  303POPC   C3A 7361  21.600  34.601   8.072
  303POPC   C4A 7362  21.575  34.550   7.686
  303POPC   C1B 7363  21.097  34.624   8.880
  303POPC   C2B 7364  21.205  34.703   8.477
  303POPC   C3B 7365  21.101  34.542   8.105
  303POPC   C4B 7366  21.109  34.745   7.733
  304POPC   NC3 7367   9.405  17.455   9.458
  304POPC   PO4 7368  10.063  17.630   9.451
  304POPC   GL1 7369   9.926  17.716   9.059
  304POPC   GL2 7370   9.602  17.645   9.035
  304POPC   C1A 7371   9.874  17.552   8.636
  304POPC   D2A 7372   9.732  17.384   8.284
  304POPC   C3A 7373   9.932  17.541   7.930
  304POPC   C4A 7374  10.073  17.302   7.578
  304POPC   C1B 7375   9.373  17.813   8.643
  304POPC   C2B 7376   9.332  17.683   8.171
  304POPC   C3B 7377   9.512  17.800   7.751
  304POPC   C4B 7378   9.316  17.911   7.301
  305POPC   NC3 7379   0.981  18.597   9.714
  305POPC   PO4 7380   1.446  18.248   9.425
  305POPC   GL1 7381   1.352  18.396   9.060
  305POPC   GL2 7382   1.011  18.467   9.212
  305POPC   C1A 7383   1.493  18.247   8.678
  305POPC   D2A 7384   1.248  18.212   8.342
  305POPC   C3A 7385   1.427  18.438   8.051
  305POPC   C4A 7386   1.391  18.326   7.721
  305POPC   C1B 7387   0.886  18.269   8.825
  305POPC   C2B 7388   0.794  18.460   8.440
  305POPC   C3B 7389   0.877  18.386   8.022
  305POPC   C4B 7390   0.906  18.530   7.606
  306POPC   NC3 7391  30.837  18.578   9.331
  306POPC   PO4 7392  30.450  18.062   9.404
  306POPC   GL1 7393  30.459  18.313   9.067
  306POPC   GL2 7394  30.357  18.670   9.162
  306POPC   C1A 7395  30.807  18.262   8.773
  306POPC   D2A 7396  31.047  18.424   8.413
  306POPC   C3A 7397  30.846  18.334   8.030
  306POPC   C4A 7398  30.527  18.369   7.687
  306POPC   C1B 7399  30.537  18.721   8.762
  306POPC   C2B 7400  30.521  18.484   8.437
  306POPC   C3B 7401  30.326  18.407   8.146
  306POPC   C4B 7402  30.171  18.668   7.873
  307POPC   NC3 7403  32.559  13.037   9.477
  307POPC   PO4 7404  32.054  12.564   9.506
  307POPC   GL1 7405  32.305  12.690   9.169
  307POPC   GL2 7406  32.146  13.023   9.137
  307POPC   C1A 7407  32.502  12.939   8.801
  307POPC   D2A 7408  32.317  13.132   8.435
  307POPC   C3A 7409  32.405  12.978   8.027
  307POPC   C4A 7410  32.541  12.966   7.607
  307POPC   C1B 7411  32.011  12.769   8.760
  307POPC   C2B 7412  32.103  12.672   8.330
  307POPC   C3B 7413  31.898  12.567   7.927
  307POPC   C4B 7414  31.922  12.516   7.392
  308POPC   NC3 7415  25.623  26.065   9.477
  308POPC   PO4 7416  26.157  25.848   9.333
  308POPC   GL1 7417  25.833  25.809   9.035
  308POPC   GL2 7418  25.807  26.168   8.998
  308POPC   C1A 7419  25.697  25.879   8.590
  308POPC   D2A 7420  26.020  25.976   8.255
  308POPC   C3A 7421  25.990  26.154   7.866
  308POPC   C4A 7422  26.001  25.994   7.455
  308POPC   C1B 7423  25.862  26.366   8.561
  308POPC   C2B 7424  26.193  26.471   8.246
  308POPC   C3B 7425  26.455  26.337   7.888
  308POPC   C4B 7426  26.308  26.398   7.485
  309POPC   NC3 7427  22.289  17.706   9.573
  309POPC   PO4 7428  21.740  17.320   9.369
  309POPC   GL1 7429  21.969  17.684   9.119
  309POPC   GL2 7430  22.346  17.783   9.037
  309POPC   C1A 7431  22.009  17.657   8.666
  309POPC   D2A 7432  22.210  17.382   8.358
  309POPC   C3A 7433  22.052  17.495   7.962
  309POPC   C4A 7434  22.243  17.646   7.604
  309POPC   C1B 7435  22.428  17.944   8.587
  309POPC   C2B 7436  22.454  17.804   8.169
  309POPC   C3B 7437  22.710  17.680   7.830
  309POPC   C4B 7438  22.689  17.494   7.406
  310POPC   NC3 7439   5.459  28.111   9.575
  310POPC   PO4 7440   4.898  27.637   9.546
  310POPC   GL1 7441   4.884  27.375   9.204
  310POPC   GL2 7442   4.565  27.237   9.119
  310POPC   C1A 7443   5.069  27.547   8.840
  310POPC   D2A 7444   5.286  27.648   8.494
  310POPC   C3A 7445   5.061  27.741   8.112
  310POPC   C4A 7446   5.244  27.886   7.754
  310POPC   C1B 7447   4.797  27.138   8.752
  310POPC   C2B 7448   4.995  27.223   8.370
  310POPC   C3B 7449   4.808  27.284   8.005
  310POPC   C4B 7450   5.015  27.450   7.670
  311POPC   NC3 7451   8.835   3.277   9.467
  311POPC   PO4 7452   9.020   2.576   9.406
  311POPC   GL1 7453   8.893   2.865   9.109
  311POPC   GL2 7454   8.536   2.925   9.043
  311POPC   C1A 7455   8.906   2.988   8.689
  311POPC   D2A 7456   8.853   3.207   8.340
  311POPC   C3A 7457   9.009   2.910   8.070
  311POPC   C4A 7458   8.807   2.879   7.695
  311POPC   C1B 7459   8.578   2.598   8.742
  311POPC   C2B 7460   8.797   2.499   8.376
  311POPC   C3B 7461   8.770   2.450   7.952
  311POPC   C4B 7462   8.689   2.426   7.528
  312POPC   NC3 7463  22.179  11.167   9.513
  312POPC   PO4 7464  22.114  11.820   9.261
  312POPC   GL1 7465  22.244  11.446   9.085
  312POPC   GL2 7466  21.950  11.210   9.074
  312POPC   C1A 7467  22.411  11.386   8.678
  312POPC   D2A 7468  22.526  11.506   8.252
  312POPC   C3A 7469  22.296  11.215   7.917
  312POPC   C4A 7470  22.230  11.260   7.462
  312POPC   C1B 7471  21.904  11.492   8.712
  312POPC   C2B 7472  22.016  11.366   8.329
  312POPC   C3B 7473  22.080  11.652   8.022
  312POPC   C4B 7474  22.032  11.704   7.628
  313POPC   NC3 7475  18.206  28.264   9.404
  313POPC   PO4 7476  18.668  28.891   9.450
  313POPC   GL1 7477  18.495  28.623   9.148
  313POPC   GL2 7478  18.133  28.688   9.079
  313POPC   C1A 7479  18.447  28.403   8.750
  313POPC   D2A 7480  18.262  28.407   8.370
  313POPC   C3A 7481  18.522  28.315   8.044
  313POPC   C4A 7482  18.210  28.281   7.697
  313POPC   C1B 7483  18.366  28.920   8.741
  313POPC   C2B 7484  18.553  28.820   8.346
  313POPC   C3B 7485  18.300  28.749   7.964
  313POPC   C4B 7486  18.450  28.722   7.532
  314POPC   NC3 7487  13.774  11.335   9.317
  314POPC   PO4 7488  13.569  11.920   9.516
  314POPC   GL1 7489  13.305  12.151   9.225
  314POPC   GL2 7490  13.624  12.160   9.045
  314POPC   C1A 7491  13.190  12.112   8.804
  314POPC   D2A 7492  13.524  12.045   8.506
  314POPC   C3A 7493  13.434  12.101   8.081
  314POPC   C4A 7494  13.578  11.949   7.714
  314POPC   C1B 7495  13.834  11.815   8.852
  314POPC   C2B 7496  13.857  11.631   8.442
  314POPC   C3B 7497  13.954  11.754   8.026
  314POPC   C4B 7498  14.081  12.036   7.702
  315POPC   NC3 7499   4.980  41.459   9.438
  315POPC   PO4 7500   5.411  41.942   9.293
  315POPC   GL1 7501   5.083  41.777   9.069
  315POPC   GL2 7502   5.225  41.439   8.991
  315POPC   C1A 7503   4.969  41.715   8.650
  315POPC   D2A 7504   5.235  41.435   8.444
  315POPC   C3A 7505   5.293  41.672   8.098
  315POPC   C4A 7506   5.101  41.802   7.744
  315POPC   C1B 7507   4.863  41.208   8.832
  315POPC   C2B 7508   4.863  41.066   8.426
  315POPC   C3B 7509   4.820  41.373   8.122
  315POPC   C4B 7510   4.935  41.240   7.760
  316POPC   NC3 7511  26.868  10.117   9.816
  316POPC   PO4 7512  27.007   9.680   9.314
  316POPC   GL1 7513  26.750   9.564   9.019
  316POPC   GL2 7514  26.650   9.881   8.995
  316POPC   C1A 7515  26.914   9.528   8.642
  316POPC   D2A 7516  26.859   9.742   8.275
  316POPC   C3A 7517  27.128   9.622   7.932
  316POPC   C4A 7518  26.974   9.745   7.528
  316POPC   C1B 7519  26.548  10.057   8.622
  316POPC   C2B 7520  26.529  10.172   8.207
  316POPC   C3B 7521  26.687  10.011   7.845
  316POPC   C4B 7522  26.568  10.014   7.386
  317POPC   NC3 7523   9.087   1.304   9.584
  317POPC   PO4 7524   8.883   0.676   9.468
  317POPC   GL1 7525   9.056   0.993   9.181
  317POPC   GL2 7526   8.885   1.335   9.132
  317POPC   C1A 7527   9.124   1.006   8.751
  317POPC   D2A 7528   8.891   0.777   8.446
  317POPC   C3A 7529   8.976   0.979   8.089
  317POPC   C4A 7530   9.209   1.080   7.782
  317POPC   C1B 7531   8.905   1.491   8.741
  317POPC   C2B 7532   8.858   1.673   8.375
  317POPC   C3B 7533   8.971   1.508   8.021
  317POPC   C4B 7534   8.783   1.332   7.694
  318POPC   NC3 7535  43.650  11.536   9.935
  318POPC   PO4 7536  43.794  11.028   9.449
  318POPC   GL1 7537  44.028  11.187   9.097
  318POPC   GL2 7538  44.155  11.488   9.208
  318POPC   C1A 7539  44.088  11.275   8.642
  318POPC   D2A 7540  43.951  11.098   8.283
  318POPC   C3A 7541  44.188  11.141   7.945
  318POPC   C4A 7542  43.891  11.186   7.627
  318POPC   C1B 7543  43.875  11.673   8.849
  318POPC   C2B 7544  43.989  11.761   8.444
  318POPC   C3B 7545  43.895  11.561   8.081
  318POPC   C4B 7546  43.722  11.671   7.696
  319POPC   NC3 7547  33.252  28.180   9.745
  319POPC   PO4 7548  32.799  28.675   9.508
  319POPC   GL1 7549  33.061  28.564   9.184
  319POPC   GL2 7550  33.122  28.216   9.223
  319POPC   C1A 7551  33.122  28.636   8.754
  319POPC   D2A 7552  32.926  28.518   8.380
  319POPC   C3A 7553  33.111  28.653   8.053
  319POPC   C4A 7554  33.242  28.497   7.684
  319POPC   C1B 7555  32.931  28.158   8.826
  319POPC   C2B 7556  33.119  28.050   8.458
  319POPC   C3B 7557  33.127  28.141   8.057
  319POPC   C4B 7558  32.773  28.320   7.849
  320POPC   NC3 7559  11.521  29.641   9.521
  320POPC   PO4 7560  10.936  29.480   9.188
  320POPC   GL1 7561  11.067  29.897   9.021
  320POPC   GL2 7562  11.333  30.055   9.193
  320POPC   C1A 7563  11.241  30.203   8.721
  320POPC   D2A 7564  11.126  30.255   8.338
  320POPC   C3A 7565  11.153  29.994   8.029
  320POPC   C4A 7566  11.292  30.205   7.698
  320POPC   C1B 7567  11.531  29.785   8.852
  320POPC   C2B 7568  11.507  29.884   8.428
  320POPC   C3B 7569  11.618  29.778   8.043
  320POPC   C4B 7570  11.373  29.644   7.721
  321POPC   NC3 7571  17.569  37.516   9.507
  321POPC   PO4 7572  17.128  37.988   9.438
  321POPC   GL1 7573  17.366  37.761   9.083
  321POPC   GL2 7574  17.724  37.558   9.038
  321POPC   C1A 7575  17.352  37.605   8.659
  321POPC   D2A 7576  17.161  37.542   8.306
  321POPC   C3A 7577  17.488  37.488   8.042
  321POPC   C4A 7578  17.517  37.627   7.665
  321POPC   C1B 7579  17.773  37.884   8.779
  321POPC   C2B 7580  17.828  38.032   8.364
  321POPC   C3B 7581  17.698  38.050   7.923
  321POPC   C4B 7582  17.809  38.024   7.482
  322POPC   NC3 7583  42.327  12.222   9.467
  322POPC   PO4 7584  42.473  11.625   9.454
  322POPC   GL1 7585  42.288  11.844   9.096
  322POPC   GL2 7586  42.229  12.222   8.994
  322POPC   C1A 7587  42.303  11.853   8.669
  322POPC   D2A 7588  42.097  11.769   8.313
  322POPC   C3A 7589  42.323  11.989   8.050
  322POPC   C4A 7590  42.359  12.217   7.690
  322POPC   C1B 7591  41.981  12.264   8.656
  322POPC   C2B 7592  42.036  12.370   8.242
  322POPC   C3B 7593  41.879  12.164   7.884
  322POPC   C4B 7594  41.832  12.244   7.459
  323POPC   NC3 7595  34.557  11.636   9.694
  323POPC   PO4 7596  34.158  11.193   9.662
  323POPC   GL1 7597  34.450  11.293   9.283
  323POPC   GL2 7598  34.582  11.635   9.165
  323POPC   C1A 7599  34.615  11.188   8.853
  323POPC   D2A 7600  34.455  11.090   8.443
  323POPC   C3A 7601  34.667  11.263   8.073
  323POPC   C4A 7602  34.545  11.390   7.686
  323POPC   C1B 7603  34.922  11.611   8.801
  323POPC   C2B 7604  35.055  11.554   8.309
  323POPC   C3B 7605  35.022  11.592   7.827
  323POPC   C4B 7606  34.903  11.548   7.342
  324POPC   NC3 7607   7.197  11.234   9.551
  324POPC   PO4 7608   6.493  11.346   9.448
  324POPC   GL1 7609   6.669  11.162   9.095
  324POPC   GL2 7610   7.027  11.133   9.075
  324POPC   C1A 7611   6.792  11.332   8.670
  324POPC   D2A 7612   6.597  11.614   8.414
  324POPC   C3A 7613   6.653  11.486   8.012
  324POPC   C4A 7614   6.547  11.297   7.640
  324POPC   C1B 7615   6.847  10.831   8.758
  324POPC   C2B 7616   6.638  10.768   8.355
  324POPC   C3B 7617   6.762  10.909   7.927
  324POPC   C4B 7618   7.062  11.266   7.796
  325POPC   NC3 7619  30.362  16.221   9.328
  325POPC   PO4 7620  29.787  16.079   9.566
  325POPC   GL1 7621  29.973  15.924   9.169
  325POPC   GL2 7622  29.671  15.841   9.095
  325POPC   C1A 7623  30.169  16.009   8.761
  325POPC   D2A 7624  30.173  16.229   8.371
  325POPC   C3A 7625  30.094  15.943   8.037
  325POPC   C4A 7626  30.335  15.838   7.701
  325POPC   C1B 7627  29.656  16.048   8.720
  325POPC   C2B 7628  29.545  15.991   8.302
  325POPC   C3B 7629  29.609  15.873   7.885
  325POPC   C4B 7630  29.875  15.957   7.532
  326POPC   NC3 7631   2.512  16.641   9.536
  326POPC   PO4 7632   2.652  15.961   9.776
  326POPC   GL1 7633   2.524  16.007   9.211
  326POPC   GL2 7634   2.782  15.740   8.983
  326POPC   C1A 7635   2.727  16.169   8.780
  326POPC   D2A 7636   2.992  16.049   8.445
  326POPC   C3A 7637   3.022  16.319   8.102
  326POPC   C4A 7638   2.955  16.090   7.730
  326POPC   C1B 7639   2.882  15.562   8.629
  326POPC   C2B 7640   2.511  15.579   8.365
  326POPC   C3B 7641   2.685  15.736   8.005
  326POPC   C4B 7642   2.839  15.507   7.648
  327POPC   NC3 7643  35.830  26.195   9.574
  327POPC   PO4 7644  35.170  26.175   9.582
  327POPC   GL1 7645  35.458  26.210   9.221
  327POPC   GL2 7646  35.510  25.875   9.278
  327POPC   C1A 7647  35.535  26.279   8.771
  327POPC   D2A 7648  35.254  26.059   8.471
  327POPC   C3A 7649  35.167  26.053   8.023
  327POPC   C4A 7650  35.342  26.183   7.648
  327POPC   C1B 7651  35.471  25.770   8.850
  327POPC   C2B 7652  35.536  25.655   8.402
  327POPC   C3B 7653  35.727  25.742   8.027
  327POPC   C4B 7654  35.635  25.771   7.598
  328POPC   NC3 7655   0.755  39.402   9.444
  328POPC   PO4 7656   0.366  38.872   9.517
  328POPC   GL1 7657   0.442  39.110   9.152
  328POPC   GL2 7658   0.326  39.467   9.162
  328POPC   C1A 7659   0.474  39.063   8.726
  328POPC   D2A 7660   0.738  39.042   8.376
  328POPC   C3A 7661   0.473  39.105   8.023
  328POPC   C4A 7662   0.502  39.113   7.581
  328POPC   C1B 7663   0.268  39.596   8.738
  328POPC   C2B 7664   0.437  39.483   8.372
  328POPC   C3B 7665   0.407  39.649   7.980
  328POPC   C4B 7666   0.297  39.586   7.581
  329POPC   NC3 7667  15.699   4.480   9.522
  329POPC   PO4 7668  16.184   4.049   9.382
  329POPC   GL1 7669  15.850   4.200   9.134
  329POPC   GL2 7670  16.041   4.468   9.089
  329POPC   C1A 7671  15.914   4.091   8.726
  329POPC   D2A 7672  16.100   3.891   8.390
  329POPC   C3A 7673  15.956   4.027   7.996
  329POPC   C4A 7674  16.103   4.205   7.616
  329POPC   C1B 7675  16.102   4.575   8.705
  329POPC   C2B 7676  16.059   4.398   8.323
  329POPC   C3B 7677  15.917   4.550   7.944
  329POPC   C4B 7678  16.166   4.730   7.616
  330POPC   NC3 7679   9.074  16.811   9.561
  330POPC   PO4 7680   8.667  16.320   9.652
  330POPC   GL1 7681   8.784  16.535   9.200
  330POPC   GL2 7682   9.177  16.635   9.100
  330POPC   C1A 7683   8.856  16.636   8.719
  330POPC   D2A 7684   8.816  16.918   8.345
  330POPC   C3A 7685   8.817  16.657   7.985
  330POPC   C4A 7686   9.129  16.338   7.845
  330POPC   C1B 7687   9.336  16.795   8.693
  330POPC   C2B 7688   9.269  16.614   8.271
  330POPC   C3B 7689   9.277  16.841   7.852
  330POPC   C4B 7690   9.240  17.060   7.428
  331POPC   NC3 7691   5.802  43.551   9.572
  331POPC   PO4 7692   5.536  44.108   9.547
  331POPC   GL1 7693   5.817  43.932   9.211
  331POPC   GL2 7694   6.086  43.679   9.146
  331POPC   C1A 7695   5.868  43.984   8.770
  331POPC   D2A 7696   6.053  44.065   8.398
  331POPC   C3A 7697   5.795  44.171   8.066
  331POPC   C4A 7698   5.893  44.328   7.637
  331POPC   C1B 7699   5.731  43.516   8.876
  331POPC   C2B 7700   5.782  43.570   8.429
  331POPC   C3B 7701   6.012  43.663   8.066
  331POPC   C4B 7702   5.880  43.827   7.691
  332POPC   NC3 7703  20.512  38.201   9.509
  332POPC   PO4 7704  20.589  37.512   9.529
  332POPC   GL1 7705  20.436  37.608   9.144
  332POPC   GL2 7706  20.351  37.952   9.115
  332POPC   C1A 7707  20.627  37.751   8.751
  332POPC   D2A 7708  20.787  37.735   8.338
  332POPC   C3A 7709  20.496  37.727   7.968
  332POPC   C4A 7710  20.791  37.542   7.670
  332POPC   C1B 7711  20.299  38.148   8.718
  332POPC   C2B 7712  20.426  38.122   8.290
  332POPC   C3B 7713  20.497  38.249   7.860
  332POPC   C4B 7714  20.668  38.016   7.481
  333POPC   NC3 7715  43.457  43.421   9.594
  333POPC   PO4 7716  43.085  43.982   9.534
  333POPC   GL1 7717  43.242  43.713   9.222
  333POPC   GL2 7718  42.998  43.873   9.009
  333POPC   C1A 7719  43.276  43.538   8.796
  333POPC   D2A 7720  43.029  43.670   8.458
  333POPC   C3A 7721  43.250  43.566   8.086
  333POPC   C4A 7722  43.189  43.455   7.677
  333POPC   C1B 7723  43.322  44.031   8.677
  333POPC   C2B 7724  43.231  44.095   8.240
  333POPC   C3B 7725  42.937  43.913   7.908
  333POPC   C4B 7726  43.259  43.968   7.599
  334POPC   NC3 7727  26.240  42.409   9.910
  334POPC   PO4 7728  26.367  42.146   9.323
  334POPC   GL1 7729  26.065  42.169   8.965
  334POPC   GL2 7730  25.749  41.941   9.037
  334POPC   C1A 7731  26.234  42.487   8.651
  334POPC   D2A 7732  26.160  42.632   8.239
  334POPC   C3A 7733  26.163  42.226   8.014
  334POPC   C4A 7734  26.447  42.101   7.690
  334POPC   C1B 7735  25.636  42.028   8.661
  334POPC   C2B 7736  25.785  42.325   8.429
  334POPC   C3B 7737  25.697  42.421   8.052
  334POPC   C4B 7738  25.853  42.433   7.668
  335POPC   NC3 7739  42.173  17.331   9.548
  335POPC   PO4 7740  42.682  17.738   9.593
  335POPC   GL1 7741  42.606  17.594   9.199
  335POPC   GL2 7742  42.433  17.298   9.099
  335POPC   C1A 7743  42.529  17.687   8.763
  335POPC   D2A 7744  42.498  17.384   8.421
  335POPC   C3A 7745  42.378  17.550   8.009
  335POPC   C4A 7746  42.397  17.305   7.617
  335POPC   C1B 7747  42.070  17.464   8.864
  335POPC   C2B 7748  41.929  17.330   8.449
  335POPC   C3B 7749  42.051  17.170   8.058
  335POPC   C4B 7750  41.981  17.003   7.652
  336POPC   NC3 7751  16.214  26.554   9.591
  336POPC   PO4 7752  15.810  27.072   9.491
  336POPC   GL1 7753  16.003  27.011   9.107
  336POPC   GL2 7754  15.718  27.155   8.966
  336POPC   C1A 7755  16.048  26.690   8.726
  336POPC   D2A 7756  16.049  26.380   8.336
  336POPC   C3A 7757  16.178  26.483   7.917
  336POPC   C4A 7758  16.322  26.888   7.834
  336POPC   C1B 7759  16.058  27.219   8.652
  336POPC   C2B 7760  16.057  26.984   8.271
  336POPC   C3B 7761  15.792  26.885   7.935
  336POPC   C4B 7762  15.630  26.529   7.757
  337POPC   NC3 7763   7.345   9.547   9.603
  337POPC   PO4 7764   7.540  10.213   9.501
  337POPC   GL1 7765   7.582   9.875   9.201
  337POPC   GL2 7766   7.788   9.570   9.233
  337POPC   C1A 7767   7.309   9.638   8.919
  337POPC   D2A 7768   7.194   9.513   8.503
  337POPC   C3A 7769   7.332   9.711   8.116
  337POPC   C4A 7770   7.203   9.601   7.724
  337POPC   C1B 7771   7.804   9.677   8.773
  337POPC   C2B 7772   7.716   9.453   8.377
  337POPC   C3B 7773   7.569   9.269   7.975
  337POPC   C4B 7774   7.539   9.298   7.524
  338POPC   NC3 7775  11.401  13.484   9.545
  338POPC   PO4 7776  11.009  13.933   9.233
  338POPC   GL1 7777  11.380  13.672   9.054
  338POPC   GL2 7778  11.580  13.332   9.105
  338POPC   C1A 7779  11.652  13.614   8.683
  338POPC   D2A 7780  11.619  13.606   8.219
  338POPC   C3A 7781  11.248  13.816   8.024
  338POPC   C4A 7782  10.946  13.885   7.656
  338POPC   C1B 7783  11.331  13.193   8.743
  338POPC   C2B 7784  11.078  13.217   8.329
  338POPC   C3B 7785  11.087  13.369   7.888
  338POPC   C4B 7786  11.519  13.362   7.742
  339POPC   NC3 7787  10.823  28.692   9.462
  339POPC   PO4 7788  10.441  28.077   9.531
  339POPC   GL1 7789  10.441  28.057   9.107
  339POPC   GL2 7790  10.425  28.416   9.146
  339POPC   C1A 7791  10.412  28.229   8.673
  339POPC   D2A 7792  10.574  28.453   8.335
  339POPC   C3A 7793  10.711  28.101   8.116
  339POPC   C4A 7794  10.521  28.075   7.732
  339POPC   C1B 7795  10.105  28.575   8.873
  339POPC   C2B 7796  10.256  28.833   8.535
  339POPC   C3B 7797  10.217  28.793   8.133
  339POPC   C4B 7798  10.428  28.570   7.814
  340POPC   NC3 7799   8.783  34.727   9.419
  340POPC   PO4 7800   9.246  34.267   9.585
  340POPC   GL1 7801   9.155  34.349   9.136
  340POPC   GL2 7802   8.808  34.442   8.999
  340POPC   C1A 7803   9.259  34.560   8.716
  340POPC   D2A 7804   9.051  34.754   8.343
  340POPC   C3A 7805   8.924  34.389   8.100
  340POPC   C4A 7806   8.878  34.121   7.735
  340POPC   C1B 7807   8.472  34.776   8.833
  340POPC   C2B 7808   8.339  34.942   8.415
  340POPC   C3B 7809   8.528  34.794   8.048
  340POPC   C4B 7810   8.701  34.611   7.677
  341POPC   NC3 7811  17.966  34.801   9.527
  341POPC   PO4 7812  18.452  34.333   9.660
  341POPC   GL1 7813  18.275  34.478   9.254
  341POPC   GL2 7814  18.305  34.207   9.060
  341POPC   C1A 7815  18.441  34.620   8.804
  341POPC   D2A 7816  18.300  34.588   8.345
  341POPC   C3A 7817  18.550  34.802   8.011
  341POPC   C4A 7818  18.774  34.754   7.606
  341POPC   C1B 7819  17.944  34.433   8.846
  341POPC   C2B 7820  17.723  34.511   8.435
  341POPC   C3B 7821  17.902  34.438   8.016
  341POPC   C4B 7822  18.314  34.370   7.839
  342POPC   NC3 7823  33.641   0.538   9.583
  342POPC   PO4 7824  33.143   0.093   9.574
  342POPC   GL1 7825  33.532   0.167   9.253
  342POPC   GL2 7826  33.827   0.455   9.127
  342POPC   C1A 7827  33.544   0.232   8.811
  342POPC   D2A 7828  33.617   0.624   8.567
  342POPC   C3A 7829  33.750   0.525   8.141
  342POPC   C4A 7830  33.557   0.552   7.740
  342POPC   C1B 7831  34.085   0.618   8.760
  342POPC   C2B 7832  34.256   0.550   8.322
  342POPC   C3B 7833  34.309   0.846   7.977
  342POPC   C4B 7834  33.959   0.851   7.780
  343POPC   NC3 7835  10.460   5.616   9.400
  343POPC   PO4 7836  10.884   6.061   9.650
  343POPC   GL1 7837  10.881   6.089   9.160
  343POPC   GL2 7838  10.794   5.770   9.062
  343POPC   C1A 7839  10.699   6.127   8.704
  343POPC   D2A 7840  10.490   6.015   8.331
  343POPC   C3A 7841  10.753   6.026   7.993
  343POPC   C4A 7842  10.592   5.884   7.625
  343POPC   C1B 7843  10.414   5.724   8.753
  343POPC   C2B 7844  10.379   5.460   8.397
  343POPC   C3B 7845  10.358   5.625   8.003
  343POPC   C4B 7846  10.241   5.507   7.605
  344POPC   NC3 7847  16.398   6.130   9.522
  344POPC   PO4 7848  15.786   5.692   9.526
  344POPC   GL1 7849  15.989   5.915   9.227
  344POPC   GL2 7850  16.304   5.805   9.124
  344POPC   C1A 7851  15.853   5.923   8.815
  344POPC   D2A 7852  16.005   6.046   8.423
  344POPC   C3A 7853  15.718   6.092   8.108
  344POPC   C4A 7854  15.723   5.883   7.730
  344POPC   C1B 7855  16.425   5.871   8.699
  344POPC   C2B 7856  16.490   5.971   8.257
  344POPC   C3B 7857  16.196   5.909   7.916
  344POPC   C4B 7858  16.282   5.803   7.454
  345POPC   NC3 7859  29.140  28.611   9.659
  345POPC   PO4 7860  29.492  29.088   9.530
  345POPC   GL1 7861  29.383  29.224   9.085
  345POPC   GL2 7862  29.016  29.236   9.065
  345POPC   C1A 7863  29.262  29.216   8.624
  345POPC   D2A 7864  29.072  29.272   8.224
  345POPC   C3A 7865  29.289  29.071   7.861
  345POPC   C4A 7866  29.227  28.647   7.698
  345POPC   C1B 7867  28.820  29.508   8.712
  345POPC   C2B 7868  28.676  29.604   8.252
  345POPC   C3B 7869  28.833  29.520   7.815
  345POPC   C4B 7870  28.776  29.582   7.361
  346POPC   NC3 7871   0.292  30.362   9.301
  346POPC   PO4 7872   0.542  31.038   9.398
  346POPC   GL1 7873   0.554  30.761   9.101
  346POPC   GL2 7874   0.773  30.481   9.165
  346POPC   C1A 7875   0.317  30.699   8.717
  346POPC   D2A 7876   0.161  30.867   8.324
  346POPC   C3A 7877   0.343  30.756   7.919
  346POPC   C4A 7878   0.354  30.401   7.649
  346POPC   C1B 7879   0.808  30.573   8.707
  346POPC   C2B 7880   0.640  30.563   8.299
  346POPC   C3B 7881   0.810  30.454   7.899
  346POPC   C4B 7882   0.854  30.297   7.460
  347POPC   NC3 7883   6.113   6.116   9.690
  347POPC   PO4 7884   5.932   5.494   9.491
  347POPC   GL1 7885   5.938   5.877   9.251
  347POPC   GL2 7886   5.629   6.025   9.165
  347POPC   C1A 7887   6.181   6.099   8.943
  347POPC   D2A 7888   6.223   6.107   8.496
  347POPC   C3A 7889   5.973   5.801   8.298
  347POPC   C4A 7890   5.965   5.829   7.878
  347POPC   C1B 7891   5.592   5.781   8.814
  347POPC   C2B 7892   5.520   6.029   8.460
  347POPC   C3B 7893   5.598   6.151   8.068
  347POPC   C4B 7894   5.476   5.857   7.762
  348POPC   NC3 7895   5.464  13.357   9.496
  348POPC   PO4 7896   4.838  13.745   9.520
  348POPC   GL1 7897   5.073  13.560   9.165
  348POPC   GL2 7898   5.412  13.679   9.128
  348POPC   C1A 7899   5.059  13.562   8.712
  348POPC   D2A 7900   4.844  13.378   8.345
  348POPC   C3A 7901   4.987  13.584   7.979
  348POPC   C4A 7902   5.101  13.507   7.531
  348POPC   C1B 7903   5.494  13.317   8.828
  348POPC   C2B 7904   5.360  13.292   8.380
  348POPC   C3B 7905   5.475  13.399   7.957
  348POPC   C4B 7906   5.523  13.211   7.531
  349POPC   NC3 7907   6.604  21.848   9.488
  349POPC   PO4 7908   7.011  21.377   9.822
  349POPC   GL1 7909   6.651  21.349   9.383
  349POPC   GL2 7910   6.490  21.583   9.088
  349POPC   C1A 7911   6.639  21.124   8.944
  349POPC   D2A 7912   6.575  21.237   8.498
  349POPC   C3A 7913   6.707  21.056   8.063
  349POPC   C4A 7914   6.539  21.206   7.645
  349POPC   C1B 7915   6.822  21.624   8.772
  349POPC   C2B 7916   6.920  21.584   8.347
  349POPC   C3B 7917   6.604  21.549   8.068
  349POPC   C4B 7918   6.557  21.721   7.716
  350POPC   NC3 7919  36.373   6.205   9.514
  350POPC   PO4 7920  36.254   6.894   9.521
  350POPC   GL1 7921  36.162   6.617   9.190
  350POPC   GL2 7922  36.508   6.647   9.103
  350POPC   C1A 7923  36.029   6.463   8.762
  350POPC   D2A 7924  35.940   6.259   8.364
  350POPC   C3A 7925  35.956   6.486   7.964
  350POPC   C4A 7926  36.151   6.683   7.618
  350POPC   C1B 7927  36.534   6.466   8.682
  350POPC   C2B 7928  36.304   6.592   8.330
  350POPC   C3B 7929  36.283   6.913   8.040
  350POPC   C4B 7930  36.584   6.944   7.755
  351POPC   NC3 7931  27.309   3.320   9.430
  351POPC   PO4 7932  26.810   3.829   9.435
  351POPC   GL1 7933  26.879   3.467   9.148
  351POPC   GL2 7934  27.135   3.660   9.054
  351POPC   C1A 7935  26.704   3.246   8.754
  351POPC   D2A 7936  26.622   3.199   8.279
  351POPC   C3A 7937  26.862   3.462   7.976
  351POPC   C4A 7938  26.657   3.822   7.760
  351POPC   C1B 7939  27.311   3.590   8.709
  351POPC   C2B 7940  27.294   3.416   8.345
  351POPC   C3B 7941  27.348   3.707   8.034
  351POPC   C4B 7942  27.161   3.809   7.683
  352POPC   NC3 7943  23.866  20.265   9.538
  352POPC   PO4 7944  23.829  19.568   9.452
  352POPC   GL1 7945  23.805  19.893   9.143
  352POPC   GL2 7946  23.472  20.017   9.049
  352POPC   C1A 7947  24.038  19.990   8.755
  352POPC   D2A 7948  24.206  19.882   8.325
  352POPC   C3A 7949  23.972  19.695   7.963
  352POPC   C4A 7950  23.840  19.923   7.582
  352POPC   C1B 7951  23.490  19.660   8.777
  352POPC   C2B 7952  23.719  19.753   8.437
  352POPC   C3B 7953  23.552  19.969   8.125
  352POPC   C4B 7954  23.460  19.673   7.834
  353POPC   NC3 7955  14.048  41.009   9.443
  353POPC   PO4 7956  13.570  40.600   9.752
  353POPC   GL1 7957  13.749  40.559   9.278
  353POPC   GL2 7958  13.459  40.607   9.080
  353POPC   C1A 7959  13.801  40.802   8.812
  353POPC   D2A 7960  13.483  40.730   8.468
  353POPC   C3A 7961  13.533  40.902   8.070
  353POPC   C4A 7962  13.753  40.825   7.681
  353POPC   C1B 7963  13.178  40.458   8.816
  353POPC   C2B 7964  13.167  40.316   8.408
  353POPC   C3B 7965  13.159  40.483   7.995
  353POPC   C4B 7966  13.299  40.556   7.578
  354POPC   NC3 7967  34.753   3.300   9.458
  354POPC   PO4 7968  34.688   3.974   9.404
  354POPC   GL1 7969  34.674   3.675   9.105
  354POPC   GL2 7970  34.355   3.515   9.155
  354POPC   C1A 7971  34.932   3.563   8.778
  354POPC   D2A 7972  35.016   3.706   8.381
  354POPC   C3A 7973  34.659   3.518   8.170
  354POPC   C4A 7974  34.559   3.329   7.767
  354POPC   C1B 7975  34.281   3.819   8.781
  354POPC   C2B 7976  34.130   3.748   8.329
  354POPC   C3B 7977  34.318   3.763   7.890
  354POPC   C4B 7978  34.338   3.656   7.431
  355POPC   NC3 7979  26.912  14.740   9.578
  355POPC   PO4 7980  26.552  14.236   9.524
  355POPC   GL1 7981  26.639  14.492   9.190
  355POPC   GL2 7982  27.027  14.497   9.148
  355POPC   C1A 7983  26.712  14.466   8.742
  355POPC   D2A 7984  26.653  14.204   8.392
  355POPC   C3A 7985  26.450  14.352   8.013
  355POPC   C4A 7986  26.422  14.173   7.575
  355POPC   C1B 7987  27.192  14.663   8.742
  355POPC   C2B 7988  27.195  14.486   8.323
  355POPC   C3B 7989  27.005  14.218   8.017
  355POPC   C4B 7990  26.838  14.440   7.683
  356POPC   NC3 7991  37.261   0.766   9.494
  356POPC   PO4 7992  37.133   0.110   9.641
  356POPC   GL1 7993  37.076   0.170   9.217
  356POPC   GL2 7994  36.898   0.460   9.123
  356POPC   C1A 7995  37.148   0.169   8.792
  356POPC   D2A 7996  37.073  44.974   8.423
  356POPC   C3A 7997  36.874   0.207   8.091
  356POPC   C4A 7998  37.099   0.328   7.720
  356POPC   C1B 7999  37.064   0.691   8.770
  356POPC   C2B 8000  36.989   0.707   8.318
  356POPC   C3B 8001  36.834   0.719   7.886
  356POPC   C4B 8002  37.018   0.753   7.459
  357POPC   NC3 8003   7.541  17.798   9.533
  357POPC   PO4 8004   7.459  17.215   9.437
  357POPC   GL1 8005   7.444  17.490   9.153
  357POPC   GL2 8006   7.145  17.684   9.208
  357POPC   C1A 8007   7.634  17.536   8.804
  357POPC   D2A 8008   7.591  17.680   8.430
  357POPC   C3A 8009   7.446  17.390   8.146
  357POPC   C4A 8010   7.490  17.488   7.725
  357POPC   C1B 8011   7.139  17.639   8.766
  357POPC   C2B 8012   7.148  17.896   8.439
  357POPC   C3B 8013   7.309  17.873   8.038
  357POPC   C4B 8014   7.018  17.720   7.762
  358POPC   NC3 8015  29.359  41.219   9.483
  358POPC   PO4 8016  29.388  41.874   9.512
  358POPC   GL1 8017  29.179  41.680   9.155
  358POPC   GL2 8018  28.781  41.711   9.169
  358POPC   C1A 8019  29.369  41.429   8.802
  358POPC   D2A 8020  29.479  41.512   8.379
  358POPC   C3A 8021  29.122  41.385   8.112
  358POPC   C4A 8022  29.163  41.500   7.716
  358POPC   C1B 8023  28.893  41.929   8.785
  358POPC   C2B 8024  29.075  41.840   8.369
  358POPC   C3B 8025  28.891  41.858   7.967
  358POPC   C4B 8026  28.720  41.990   7.581
  359POPC   NC3 8027   6.882  43.130   9.521
  359POPC   PO4 8028   6.241  43.399   9.575
  359POPC   GL1 8029   6.527  43.409   9.236
  359POPC   GL2 8030   6.482  43.087   9.116
  359POPC   C1A 8031   6.579  43.462   8.787
  359POPC   D2A 8032   6.920  43.347   8.485
  359POPC   C3A 8033   6.862  43.359   8.033
  359POPC   C4A 8034   6.870  42.968   7.795
  359POPC   C1B 8035   6.597  42.958   8.700
  359POPC   C2B 8036   6.425  43.205   8.360
  359POPC   C3B 8037   6.363  43.307   7.955
  359POPC   C4B 8038   6.324  42.971   7.699
  360POPC   NC3 8039   7.857  36.923   9.472
  360POPC   PO4 8040   8.583  37.110   9.376
  360POPC   GL1 8041   8.263  36.957   9.148
  360POPC   GL2 8042   8.136  37.297   9.149
  360POPC   C1A 8043   8.276  36.728   8.767
  360POPC   D2A 8044   8.335  36.947   8.381
  360POPC   C3A 8045   8.110  36.694   8.130
  360POPC   C4A 8046   8.290  36.388   7.824
  360POPC   C1B 8047   8.029  37.173   8.753
  360POPC   C2B 8048   7.748  37.142   8.438
  360POPC   C3B 8049   7.971  37.220   8.109
  360POPC   C4B 8050   8.263  37.071   7.833
  361POPC   NC3 8051  34.933  17.812   9.522
  361POPC   PO4 8052  35.504  17.384   9.501
  361POPC   GL1 8053  35.308  17.411   9.106
  361POPC   GL2 8054  35.077  17.618   9.090
  361POPC   C1A 8055  35.448  17.470   8.701
  361POPC   D2A 8056  35.497  17.697   8.320
  361POPC   C3A 8057  35.284  17.602   7.947
  361POPC   C4A 8058  35.260  17.297   7.633
  361POPC   C1B 8059  35.149  17.873   8.717
  361POPC   C2B 8060  34.975  17.819   8.313
  361POPC   C3B 8061  34.952  17.991   7.905
  361POPC   C4B 8062  35.162  17.875   7.502
  362POPC   NC3 8063  10.968  31.038   9.294
  362POPC   PO4 8064  11.107  31.489   9.804
  362POPC   GL1 8065  11.402  31.447   9.373
  362POPC   GL2 8066  11.477  31.126   9.171
  362POPC   C1A 8067  11.524  31.552   8.903
  362POPC   D2A 8068  11.737  31.557   8.474
  362POPC   C3A 8069  11.566  31.548   8.036
  362POPC   C4A 8070  11.330  31.500   7.655
  362POPC   C1B 8071  11.320  31.109   8.721
  362POPC   C2B 8072  11.533  31.126   8.296
  362POPC   C3B 8073  11.511  31.046   7.836
  362POPC   C4B 8074  11.438  31.130   7.335
  363POPC   NC3 8075   8.046  20.023   9.489
  363POPC   PO4 8076   8.529  19.563   9.535
  363POPC   GL1 8077   8.310  19.539   9.161
  363POPC   GL2 8078   7.943  19.524   9.184
  363POPC   C1A 8079   8.283  19.470   8.750
  363POPC   D2A 8080   8.326  19.777   8.438
  363POPC   C3A 8081   8.084  19.718   8.082
  363POPC   C4A 8082   8.354  19.690   7.742
  363POPC   C1B 8083   7.973  19.862   8.859
  363POPC   C2B 8084   7.883  20.036   8.466
  363POPC   C3B 8085   7.949  20.240   8.104
  363POPC   C4B 8086   8.022  20.100   7.741
  364POPC   NC3 8087  10.558  13.980   9.169
  364POPC   PO4 8088  10.957  13.610   9.640
  364POPC   GL1 8089  10.931  13.427   9.170
  364POPC   GL2 8090  10.566  13.444   9.039
  364POPC   C1A 8091  10.952  13.547   8.718
  364POPC   D2A 8092  10.635  13.485   8.400
  364POPC   C3A 8093  10.691  13.785   8.092
  364POPC   C4A 8094  10.518  14.079   7.834
  364POPC   C1B 8095  10.250  13.627   8.721
  364POPC   C2B 8096  10.183  13.765   8.284
  364POPC   C3B 8097  10.130  13.769   7.846
  364POPC   C4B 8098  10.020  14.093   7.543
  365POPC   NC3 8099  38.777  20.273   9.470
  365POPC   PO4 8100  39.269  20.767   9.467
  365POPC   GL1 8101  39.173  20.539   9.103
  365POPC   GL2 8102  39.216  20.184   9.223
  365POPC   C1A 8103  39.230  20.705   8.652
  365POPC   D2A 8104  39.423  21.008   8.323
  365POPC   C3A 8105  39.255  20.887   7.910
  365POPC   C4A 8106  38.868  20.695   8.056
  365POPC   C1B 8107  39.301  20.163   8.792
  365POPC   C2B 8108  39.172  20.254   8.414
  365POPC   C3B 8109  39.310  20.402   8.057
  365POPC   C4B 8110  39.082  20.334   7.716
  366POPC   NC3 8111  16.396  34.614   9.416
  366POPC   PO4 8112  15.780  34.684   9.660
  366POPC   GL1 8113  15.923  34.528   9.241
  366POPC   GL2 8114  16.137  34.223   9.205
  366POPC   C1A 8115  15.922  34.629   8.806
  366POPC   D2A 8116  15.870  34.479   8.390
  366POPC   C3A 8117  15.978  34.807   8.105
  366POPC   C4A 8118  15.897  34.694   7.695
  366POPC   C1B 8119  16.360  34.382   8.817
  366POPC   C2B 8120  16.369  34.547   8.382
  366POPC   C3B 8121  16.218  34.366   7.981
  366POPC   C4B 8122  16.244  34.359   7.514
  367POPC   NC3 8123   9.712  19.041   9.464
  367POPC   PO4 8124  10.236  18.611   9.369
  367POPC   GL1 8125   9.950  18.821   9.086
  367POPC   GL2 8126   9.865  19.205   9.014
  367POPC   C1A 8127   9.776  18.791   8.729
  367POPC   D2A 8128  10.037  19.025   8.491
  367POPC   C3A 8129   9.850  18.961   8.137
  367POPC   C4A 8130   9.666  19.017   7.765
  367POPC   C1B 8131   9.583  19.295   8.641
  367POPC   C2B 8132   9.587  19.425   8.177
  367POPC   C3B 8133   9.284  19.315   7.829
  367POPC   C4B 8134   9.461  19.334   7.415
  368POPC   NC3 8135  24.178  29.003   9.430
  368POPC   PO4 8136  24.666  29.399   9.614
  368POPC   GL1 8137  24.583  29.220   9.205
  368POPC   GL2 8138  24.263  29.387   9.079
  368POPC   C1A 8139  24.700  29.198   8.766
  368POPC   D2A 8140  24.619  29.453   8.392
  368POPC   C3A 8141  24.698  29.267   8.019
  368POPC   C4A 8142  24.679  29.054   7.613
  368POPC   C1B 8143  24.192  29.053   8.770
  368POPC   C2B 8144  24.361  28.967   8.359
  368POPC   C3B 8145  24.331  28.918   7.957
  368POPC   C4B 8146  24.271  29.334   7.745
  369POPC   NC3 8147   9.664  26.722   9.880
  369POPC   PO4 8148  10.129  27.203   9.543
  369POPC   GL1 8149   9.987  26.931   9.160
  369POPC   GL2 8150   9.729  26.705   9.267
  369POPC   C1A 8151   9.758  26.806   8.753
  369POPC   D2A 8152   9.465  26.634   8.427
  369POPC   C3A 8153   9.479  26.772   8.025
  369POPC   C4A 8154   9.896  26.819   7.874
  369POPC   C1B 8155   9.941  26.400   9.000
  369POPC   C2B 8156   9.941  26.354   8.539
  369POPC   C3B 8157   9.832  26.370   8.110
  369POPC   C4B 8158  10.043  26.368   7.700
  370POPC   NC3 8159  16.973  30.953   9.558
  370POPC   PO4 8160  16.607  30.323   9.523
  370POPC   GL1 8161  16.835  30.536   9.218
  370POPC   GL2 8162  16.753  30.893   9.095
  370POPC   C1A 8163  16.847  30.448   8.794
  370POPC   D2A 8164  16.859  30.731   8.449
  370POPC   C3A 8165  16.688  30.532   8.116
  370POPC   C4A 8166  16.945  30.386   7.827
  370POPC   C1B 8167  16.426  30.766   8.785
  370POPC   C2B 8168  16.348  30.871   8.339
  370POPC   C3B 8169  16.567  31.033   8.037
  370POPC   C4B 8170  16.718  30.858   7.689
  371POPC   NC3 8171  33.414   3.652   9.428
  371POPC   PO4 8172  33.903   3.917   9.601
  371POPC   GL1 8173  33.873   3.734   9.162
  371POPC   GL2 8174  33.710   3.407   9.069
  371POPC   C1A 8175  33.756   3.810   8.715
  371POPC   D2A 8176  33.558   3.853   8.286
  371POPC   C3A 8177  33.808   3.748   7.880
  371POPC   C4A 8178  34.016   3.345   7.725
  371POPC   C1B 8179  33.362   3.403   8.783
  371POPC   C2B 8180  33.229   3.416   8.371
  371POPC   C3B 8181  33.411   3.444   7.974
  371POPC   C4B 8182  33.341   3.746   7.658
  372POPC   NC3 8183  34.824  24.996   9.422
  372POPC   PO4 8184  34.524  25.616   9.414
  372POPC   GL1 8185  34.393  25.457   9.042
  372POPC   GL2 8186  34.419  25.105   9.133
  372POPC   C1A 8187  34.525  25.480   8.617
  372POPC   D2A 8188  34.812  25.162   8.421
  372POPC   C3A 8189  34.911  25.227   8.005
  372POPC   C4A 8190  34.771  25.633   7.800
  372POPC   C1B 8191  34.470  24.953   8.733
  372POPC   C2B 8192  34.266  25.104   8.392
  372POPC   C3B 8193  34.423  25.351   8.081
  372POPC   C4B 8194  34.525  25.094   7.715
  373POPC   NC3 8195  21.530  13.333   9.281
  373POPC   PO4 8196  21.602  12.653   9.474
  373POPC   GL1 8197  21.478  12.838   9.132
  373POPC   GL2 8198  21.145  12.863   9.225
  373POPC   C1A 8199  21.455  13.002   8.741
  373POPC   D2A 8200  21.639  12.995   8.374
  373POPC   C3A 8201  21.389  13.096   8.021
  373POPC   C4A 8202  21.424  12.966   7.590
  373POPC   C1B 8203  21.068  12.678   8.837
  373POPC   C2B 8204  21.196  12.716   8.398
  373POPC   C3B 8205  21.083  12.675   7.967
  373POPC   C4B 8206  21.203  12.291   7.800
  374POPC   NC3 8207  29.680   0.051   9.747
  374POPC   PO4 8208  30.094   0.552   9.689
  374POPC   GL1 8209  29.952   0.516   9.251
  374POPC   GL2 8210  29.718   0.236   9.252
  374POPC   C1A 8211  29.910   0.702   8.832
  374POPC   D2A 8212  30.090   0.507   8.462
  374POPC   C3A 8213  29.985   0.647   8.046
  374POPC   C4A 8214  29.864   0.448   7.647
  374POPC   C1B 8215  29.966   0.184   8.861
  374POPC   C2B 8216  29.904   0.024   8.446
  374POPC   C3B 8217  29.978   0.121   8.022
  374POPC   C4B 8218  29.915  44.939   7.595
  375POPC   NC3 8219  26.236   5.169   9.564
  375POPC   PO4 8220  25.619   4.871   9.531
  375POPC   GL1 8221  25.982   4.860   9.238
  375POPC   GL2 8222  25.896   5.213   9.155
  375POPC   C1A 8223  26.235   5.010   8.852
  375POPC   D2A 8224  26.010   5.273   8.530
  375POPC   C3A 8225  25.937   5.200   8.106
  375POPC   C4A 8226  26.208   5.001   7.821
  375POPC   C1B 8227  25.726   4.927   8.800
  375POPC   C2B 8228  25.487   4.928   8.411
  375POPC   C3B 8229  25.571   4.859   7.989
  375POPC   C4B 8230  25.730   5.020   7.627
  376POPC   NC3 8231  25.991  11.549   9.774
  376POPC   PO4 8232  25.765  11.004   9.602
  376POPC   GL1 8233  26.049  11.098   9.246
  376POPC   GL2 8234  26.153  11.458   9.286
  376POPC   C1A 8235  26.003  11.257   8.827
  376POPC   D2A 8236  25.778  11.506   8.546
  376POPC   C3A 8237  25.854  11.408   8.139
  376POPC   C4A 8238  25.851  11.200   7.770
  376POPC   C1B 8239  26.230  11.695   8.898
  376POPC   C2B 8240  26.329  11.520   8.499
  376POPC   C3B 8241  26.312  11.719   8.114
  376POPC   C4B 8242  26.149  11.598   7.762
  377POPC   NC3 8243  44.388  39.716   9.793
  377POPC   PO4 8244  44.865  40.132   9.460
  377POPC   GL1 8245  44.592  40.017   9.113
  377POPC   GL2 8246  44.410  39.708   9.184
  377POPC   C1A 8247  44.721  40.125   8.696
  377POPC   D2A 8248  44.965  40.023   8.345
  377POPC   C3A 8249  44.669  40.143   8.069
  377POPC   C4A 8250  44.512  40.139   7.689
  377POPC   C1B 8251  44.684  39.639   8.787
  377POPC   C2B 8252  44.553  39.732   8.366
  377POPC   C3B 8253  44.620  39.648   7.897
  377POPC   C4B 8254  44.792  39.675   7.447
  378POPC   NC3 8255  23.764  26.748   9.584
  378POPC   PO4 8256  23.374  27.273   9.467
  378POPC   GL1 8257  23.736  27.111   9.172
  378POPC   GL2 8258  23.910  26.741   9.111
  378POPC   C1A 8259  23.775  27.026   8.718
  378POPC   D2A 8260  23.941  27.221   8.359
  378POPC   C3A 8261  23.793  26.985   8.060
  378POPC   C4A 8262  23.746  27.084   7.695
  378POPC   C1B 8263  23.863  26.464   8.774
  378POPC   C2B 8264  23.651  26.418   8.370
  378POPC   C3B 8265  23.530  26.566   7.941
  378POPC   C4B 8266  23.750  26.619   7.513
  379POPC   NC3 8267  29.956  39.474   9.256
  379POPC   PO4 8268  29.541  39.148   9.711
  379POPC   GL1 8269  29.614  39.049   9.197
  379POPC   GL2 8270  29.964  39.047   8.975
  379POPC   C1A 8271  29.551  39.125   8.705
  379POPC   D2A 8272  29.800  39.258   8.316
  379POPC   C3A 8273  29.733  39.388   7.915
  379POPC   C4A 8274  29.602  39.074   7.643
  379POPC   C1B 8275  30.132  39.406   8.660
  379POPC   C2B 8276  30.207  39.576   8.238
  379POPC   C3B 8277  30.265  39.421   7.863
  379POPC   C4B 8278  30.091  39.002   7.802
  380POPC   NC3 8279  11.383  37.825   9.650
  380POPC   PO4 8280  10.874  37.511   9.450
  380POPC   GL1 8281  11.081  37.842   9.180
  380POPC   GL2 8282  11.477  37.865   9.138
  380POPC   C1A 8283  11.176  37.845   8.725
  380POPC   D2A 8284  11.485  37.905   8.383
  380POPC   C3A 8285  11.289  37.877   7.964
  380POPC   C4A 8286  11.121  37.770   7.557
  380POPC   C1B 8287  11.606  37.563   8.780
  380POPC   C2B 8288  11.721  37.429   8.365
  380POPC   C3B 8289  11.675  37.257   7.947
  380POPC   C4B 8290  11.606  37.613   7.654
  381POPC   NC3 8291  41.442  44.116   9.454
  381POPC   PO4 8292  42.088  44.223   9.306
  381POPC   GL1 8293  41.714  44.044   9.020
  381POPC   GL2 8294  41.560  43.721   9.027
  381POPC   C1A 8295  41.504  43.967   8.588
  381POPC   D2A 8296  41.761  44.119   8.253
  381POPC   C3A 8297  41.597  44.074   7.858
  381POPC   C4A 8298  41.192  43.931   7.806
  381POPC   C1B 8299  41.755  43.536   8.677
  381POPC   C2B 8300  41.710  43.558   8.242
  381POPC   C3B 8301  41.973  43.720   7.951
  381POPC   C4B 8302  41.971  43.928   7.541
  382POPC   NC3 8303   3.325  34.039   9.405
  382POPC   PO4 8304   3.657  33.507   9.482
  382POPC   GL1 8305   3.789  33.464   9.120
  382POPC   GL2 8306   3.722  33.826   9.038
  382POPC   C1A 8307   3.857  33.437   8.728
  382POPC   D2A 8308   3.650  33.742   8.512
  382POPC   C3A 8309   3.560  33.561   8.150
  382POPC   C4A 8310   3.783  33.809   7.859
  382POPC   C1B 8311   3.309  33.634   8.881
  382POPC   C2B 8312   3.097  33.756   8.493
  382POPC   C3B 8313   3.210  33.930   8.113
  382POPC   C4B 8314   3.294  33.784   7.700
  383POPC   NC3 8315  16.650  24.322   9.601
  383POPC   PO4 8316  17.066  24.864   9.375
  383POPC   GL1 8317  16.707  24.594   9.165
  383POPC   GL2 8318  16.404  24.331   9.166
  383POPC   C1A 8319  16.733  24.383   8.766
  383POPC   D2A 8320  16.860  24.398   8.351
  383POPC   C3A 8321  16.727  24.638   8.031
  383POPC   C4A 8322  16.980  24.639   7.690
  383POPC   C1B 8323  16.223  24.421   8.769
  383POPC   C2B 8324  16.365  24.226   8.425
  383POPC   C3B 8325  16.668  23.953   8.218
  383POPC   C4B 8326  16.676  24.154   7.844
  384POPC   NC3 8327  11.452  43.108   9.760
  384POPC   PO4 8328  10.980  42.734   9.545
  384POPC   GL1 8329  11.182  43.013   9.255
  384POPC   GL2 8330  11.543  43.078   9.231
  384POPC   C1A 8331  11.100  43.153   8.849
  384POPC   D2A 8332  10.878  43.229   8.500
  384POPC   C3A 8333  11.144  43.093   8.218
  384POPC   C4A 8334  11.126  43.140   7.835
  384POPC   C1B 8335  11.611  43.041   8.777
  384POPC   C2B 8336  11.635  43.226   8.336
  384POPC   C3B 8337  11.618  42.980   7.920
  384POPC   C4B 8338  11.760  42.697   7.555
  385POPC   NC3 8339  12.549  44.635   9.569
  385POPC   PO4 8340  13.057   0.112   9.532
  385POPC   GL1 8341  12.899  44.787   9.205
  385POPC   GL2 8342  12.526  44.785   9.100
  385POPC   C1A 8343  12.874  44.681   8.736
  385POPC   D2A 8344  12.962  44.495   8.329
  385POPC   C3A 8345  12.841  44.734   7.977
  385POPC   C4A 8346  13.077  44.825   7.643
  385POPC   C1B 8347  12.470   0.004   8.749
  385POPC   C2B 8348  12.511  44.882   8.351
  385POPC   C3B 8349  12.508   0.201   8.033
  385POPC   C4B 8350  12.739   0.215   7.664
  386POPC   NC3 8351  11.193   6.385   9.433
  386POPC   PO4 8352  10.835   6.922   9.688
  386POPC   GL1 8353  11.089   6.937   9.217
  386POPC   GL2 8354  11.313   6.661   9.049
  386POPC   C1A 8355  11.041   6.924   8.749
  386POPC   D2A 8356  11.407   6.770   8.505
  386POPC   C3A 8357  11.153   6.782   8.168
  386POPC   C4A 8358  11.153   6.793   7.766
  386POPC   C1B 8359  11.090   6.423   8.723
  386POPC   C2B 8360  11.228   6.297   8.320
  386POPC   C3B 8361  11.498   6.433   7.982
  386POPC   C4B 8362  11.244   6.294   7.688
  387POPC   NC3 8363  43.613   0.111   9.569
  387POPC   PO4 8364  44.137   0.590   9.569
  387POPC   GL1 8365  43.984   0.326   9.261
  387POPC   GL2 8366  43.766   0.579   9.166
  387POPC   C1A 8367  44.084   0.226   8.848
  387POPC   D2A 8368  43.915  45.000   8.486
  387POPC   C3A 8369  43.938   0.166   8.107
  387POPC   C4A 8370  44.017   0.314   7.739
  387POPC   C1B 8371  43.968   0.748   8.810
  387POPC   C2B 8372  43.979   0.600   8.391
  387POPC   C3B 8373  43.983   0.763   7.968
  387POPC   C4B 8374  43.672   0.760   7.637
  388POPC   NC3 8375  41.216   6.640   9.846
  388POPC   PO4 8376  40.658   6.802   9.497
  388POPC   GL1 8377  40.667   6.607   9.119
  388POPC   GL2 8378  40.997   6.511   9.153
  388POPC   C1A 8379  40.837   6.754   8.722
  388POPC   D2A 8380  41.009   6.579   8.343
  388POPC   C3A 8381  40.837   6.696   7.921
  388POPC   C4A 8382  41.048   6.961   7.610
  388POPC   C1B 8383  41.183   6.337   8.771
  388POPC   C2B 8384  41.125   6.066   8.408
  388POPC   C3B 8385  41.147   6.247   7.986
  388POPC   C4B 8386  40.926   6.248   7.649
  389POPC   NC3 8387  23.149  33.507   9.599
  389POPC   PO4 8388  22.613  34.004   9.609
  389POPC   GL1 8389  22.776  33.822   9.216
  389POPC   GL2 8390  23.166  33.829   9.197
  389POPC   C1A 8391  22.885  33.800   8.758
  389POPC   D2A 8392  23.078  33.814   8.356
  389POPC   C3A 8393  22.837  34.005   8.026
  389POPC   C4A 8394  22.702  33.600   7.932
  389POPC   C1B 8395  23.399  33.787   8.794
  389POPC   C2B 8396  23.539  34.012   8.412
  389POPC   C3B 8397  23.363  34.058   7.990
  389POPC   C4B 8398  23.158  33.742   7.692
  390POPC   NC3 8399  32.900   7.188   9.602
  390POPC   PO4 8400  32.710   7.727   9.311
  390POPC   GL1 8401  33.056   7.473   9.113
  390POPC   GL2 8402  33.264   7.152   9.261
  390POPC   C1A 8403  33.106   7.623   8.697
  390POPC   D2A 8404  32.799   7.527   8.372
  390POPC   C3A 8405  32.694   7.775   8.052
  390POPC   C4A 8406  32.883   7.510   7.787
  390POPC   C1B 8407  33.222   7.028   8.859
  390POPC   C2B 8408  33.190   7.196   8.434
  390POPC   C3B 8409  33.089   7.031   8.013
  390POPC   C4B 8410  33.187   7.159   7.568
  391POPC   NC3 8411  40.983  43.230   9.518
  391POPC   PO4 8412  40.403  43.533   9.470
  391POPC   GL1 8413  40.578  43.213   9.165
  391POPC   GL2 8414  40.922  43.199   9.011
  391POPC   C1A 8415  40.544  42.901   8.835
  391POPC   D2A 8416  40.742  42.836   8.468
  391POPC   C3A 8417  40.788  43.203   8.203
  391POPC   C4A 8418  40.806  43.084   7.780
  391POPC   C1B 8419  41.226  43.437   8.746
  391POPC   C2B 8420  41.190  43.588   8.323
  391POPC   C3B 8421  41.224  43.374   7.929
  391POPC   C4B 8422  41.198  43.342   7.416
  392POPC   NC3 8423  21.723  42.853   9.802
  392POPC   PO4 8424  21.262  43.325   9.626
  392POPC   GL1 8425  21.606  43.118   9.348
  392POPC   GL2 8426  21.331  43.145   9.135
  392POPC   C1A 8427  21.788  43.036   8.881
  392POPC   D2A 8428  21.644  42.905   8.432
  392POPC   C3A 8429  21.743  43.133   8.025
  392POPC   C4A 8430  21.918  42.939   7.654
  392POPC   C1B 8431  21.301  42.819   8.839
  392POPC   C2B 8432  21.100  42.835   8.447
  392POPC   C3B 8433  21.256  42.964   8.072
  392POPC   C4B 8434  21.542  42.689   7.871
  393POPC   NC3 8435   8.280  41.098   9.847
  393POPC   PO4 8436   8.058  41.109   9.251
  393POPC   GL1 8437   8.157  40.899   8.889
  393POPC   GL2 8438   8.039  40.609   9.064
  393POPC   C1A 8439   8.527  40.903   8.592
  393POPC   D2A 8440   8.651  41.039   8.148
  393POPC   C3A 8441   8.433  40.890   7.720
  393POPC   C4A 8442   8.441  41.084   7.258
  393POPC   C1B 8443   7.862  40.501   8.716
  393POPC   C2B 8444   8.128  40.629   8.422
  393POPC   C3B 8445   8.244  40.503   8.046
  393POPC   C4B 8446   7.956  40.502   7.741
  394POPC   NC3 8447   2.545  39.084   9.823
  394POPC   PO4 8448   1.883  39.014   9.617
  394POPC   GL1 8449   1.925  39.116   9.200
  394POPC   GL2 8450   1.599  39.016   9.120
  394POPC   C1A 8451   2.019  39.413   8.856
  394POPC   D2A 8452   2.227  39.233   8.506
  394POPC   C3A 8453   2.142  39.305   8.053
  394POPC   C4A 8454   2.269  39.351   7.620
  394POPC   C1B 8455   1.812  38.963   8.719
  394POPC   C2B 8456   1.732  39.191   8.358
  394POPC   C3B 8457   1.760  38.988   7.992
  394POPC   C4B 8458   1.972  38.951   7.633
  395POPC   NC3 8459  39.603  20.454   9.427
  395POPC   PO4 8460  39.900  20.980   9.600
  395POPC   GL1 8461  40.177  20.806   9.259
  395POPC   GL2 8462  40.170  20.425   9.277
  395POPC   C1A 8463  40.122  20.909   8.823
  395POPC   D2A 8464  39.742  20.727   8.614
  395POPC   C3A 8465  39.757  20.662   8.142
  395POPC   C4A 8466  39.756  20.899   7.740
  395POPC   C1B 8467  40.076  20.391   8.833
  395POPC   C2B 8468  40.194  20.605   8.421
  395POPC   C3B 8469  40.243  20.450   8.005
  395POPC   C4B 8470  39.933  20.417   7.716
  396POPC   NC3 8471  34.025  40.175   9.530
  396POPC   PO4 8472  33.520  39.808   9.559
  396POPC   GL1 8473  33.781  39.797   9.193
  396POPC   GL2 8474  33.652  40.114   9.123
  396POPC   C1A 8475  33.808  39.838   8.718
  396POPC   D2A 8476  33.531  39.998   8.358
  396POPC   C3A 8477  33.555  39.753   7.995
  396POPC   C4A 8478  33.785  39.719   7.594
  396POPC   C1B 8479  33.685  40.342   8.777
  396POPC   C2B 8480  33.947  40.280   8.450
  396POPC   C3B 8481  33.946  40.110   8.047
  396POPC   C4B 8482  33.750  40.342   7.756
  397POPC   NC3 8483  26.869  16.433   9.408
  397POPC   PO4 8484  27.046  15.855   9.650
  397POPC   GL1 8485  27.012  15.914   9.195
  397POPC   GL2 8486  27.081  16.212   8.994
  397POPC   C1A 8487  26.947  15.746   8.750
  397POPC   D2A 8488  26.686  15.809   8.365
  397POPC   C3A 8489  26.881  15.977   8.007
  397POPC   C4A 8490  27.214  16.156   7.798
  397POPC   C1B 8491  26.777  16.257   8.664
  397POPC   C2B 8492  26.670  16.393   8.242
  397POPC   C3B 8493  26.458  16.259   7.850
  397POPC   C4B 8494  26.407  16.110   7.417
  398POPC   NC3 8495   8.232  19.210   9.551
  398POPC   PO4 8496   8.574  18.675   9.399
  398POPC   GL1 8497   8.479  19.014   9.125
  398POPC   GL2 8498   8.114  19.042   9.076
  398POPC   C1A 8499   8.442  18.978   8.685
  398POPC   D2A 8500   8.364  18.676   8.395
  398POPC   C3A 8501   8.307  18.819   7.983
  398POPC   C4A 8502   8.363  19.199   7.810
  398POPC   C1B 8503   7.962  19.081   8.653
  398POPC   C2B 8504   8.118  19.239   8.281
  398POPC   C3B 8505   7.865  19.259   7.910
  398POPC   C4B 8506   7.919  18.915   7.649
  399POPC   NC3 8507  25.487   2.935   9.565
  399POPC   PO4 8508  24.925   2.546   9.440
  399POPC   GL1 8509  25.173   2.664   9.102
  399POPC   GL2 8510  25.317   2.992   9.097
  399POPC   C1A 8511  24.988   2.891   8.727
  399POPC   D2A 8512  25.012   2.824   8.310
  399POPC   C3A 8513  25.219   2.475   8.182
  399POPC   C4A 8514  25.262   2.411   7.768
  399POPC   C1B 8515  25.518   2.786   8.740
  399POPC   C2B 8516  25.617   2.768   8.308
  399POPC   C3B 8517  25.409   2.942   7.966
  399POPC   C4B 8518  25.706   3.055   7.691
  400POPC   NC3 8519  13.957  11.387   9.813
  400POPC   PO4 8520  13.332  11.264   9.488
  400POPC   GL1 8521  13.332  11.292   9.070
  400POPC   GL2 8522  13.404  11.653   9.083
  400POPC   C1A 8523  13.623  11.208   8.719
  400POPC   D2A 8524  13.562  11.237   8.329
  400POPC   C3A 8525  13.767  11.102   8.051
  400POPC   C4A 8526  13.950  11.332   7.729
  400POPC   C1B 8527  13.303  11.601   8.660
  400POPC   C2B 8528  13.280  11.641   8.245
  400POPC   C3B 8529  13.480  11.492   7.891
  400POPC   C4B 8530  13.465  11.385   7.477
  401POPC   NC3 8531  31.708  23.249   9.590
  401POPC   PO4 8532  31.321  22.648   9.516
  401POPC   GL1 8533  31.330  22.799   9.112
  401POPC   GL2 8534  31.601  23.016   9.153
  401POPC   C1A 8535  31.495  22.751   8.702
  401POPC   D2A 8536  31.628  22.854   8.306
  401POPC   C3A 8537  31.363  22.780   7.932
  401POPC   C4A 8538  31.335  22.871   7.477
  401POPC   C1B 8539  31.448  23.236   8.820
  401POPC   C2B 8540  31.640  23.361   8.427
  401POPC   C3B 8541  31.565  23.261   8.004
  401POPC   C4B 8542  31.364  23.370   7.613
  402POPC   NC3 8543  42.287  13.813   9.945
  402POPC   PO4 8544  42.184  14.392   9.653
  402POPC   GL1 8545  42.215  14.458   9.246
  402POPC   GL2 8546  41.978  14.183   9.201
  402POPC   C1A 8547  42.409  14.346   8.866
  402POPC   D2A 8548  42.170  14.502   8.497
  402POPC   C3A 8549  42.284  14.493   8.094
  402POPC   C4A 8550  42.148  14.292   7.723
  402POPC   C1B 8551  41.894  14.244   8.828
  402POPC   C2B 8552  41.944  14.032   8.465
  402POPC   C3B 8553  41.850  14.185   8.110
  402POPC   C4B 8554  41.668  14.068   7.772
  403POPC   NC3 8555  43.818  44.316   9.283
  403POPC   PO4 8556  44.108  44.885   9.536
  403POPC   GL1 8557  43.970  44.785   9.127
  403POPC   GL2 8558  44.248  44.508   9.075
  403POPC   C1A 8559  43.625  44.786   8.826
  403POPC   D2A 8560  43.423  44.692   8.433
  403POPC   C3A 8561  43.688  44.717   8.085
  403POPC   C4A 8562  43.698  44.894   7.686
  403POPC   C1B 8563  44.010  44.495   8.673
  403POPC   C2B 8564  43.740  44.269   8.450
  403POPC   C3B 8565  43.887  44.240   8.065
  403POPC   C4B 8566  43.833  44.404   7.678
  404POPC   NC3 8567  38.090  29.764   9.581
  404POPC   PO4 8568  38.792  29.770   9.695
  404POPC   GL1 8569  38.604  29.925   9.307
  404POPC   GL2 8570  38.402  29.655   9.186
  404POPC   C1A 8571  38.581  29.998   8.846
  404POPC   D2A 8572  38.513  29.766   8.464
  404POPC   C3A 8573  38.480  30.003   8.099
  404POPC   C4A 8574  38.521  29.996   7.681
  404POPC   C1B 8575  38.107  29.780   8.864
  404POPC   C2B 8576  37.963  29.656   8.470
  404POPC   C3B 8577  38.049  29.714   8.038
  404POPC   C4B 8578  38.174  29.611   7.607
  405POPC   NC3 8579   9.229   2.148   9.375
  405POPC   PO4 8580   8.778   1.666   9.564
  405POPC   GL1 8581   8.866   1.874   9.117
  405POPC   GL2 8582   8.819   2.251   9.057
  405POPC   C1A 8583   9.096   1.975   8.719
  405POPC   D2A 8584   9.322   2.100   8.354
  405POPC   C3A 8585   9.063   2.049   8.019
  405POPC   C4A 8586   8.794   1.884   7.720
  405POPC   C1B 8587   9.112   2.495   8.776
  405POPC   C2B 8588   9.308   2.629   8.405
  405POPC   C3B 8589   9.428   2.506   7.999
  405POPC   C4B 8590   9.190   2.421   7.636
  406POPC   NC3 8591  38.145   2.316   9.808
  406POPC   PO4 8592  38.406   1.776   9.541
  406POPC   GL1 8593  38.488   1.945   9.114
  406POPC   GL2 8594  38.109   1.957   9.092
  406POPC   C1A 8595  38.808   2.053   8.761
  406POPC   D2A 8596  38.958   1.941   8.330
  406POPC   C3A 8597  38.646   2.056   8.003
  406POPC   C4A 8598  38.349   2.109   7.666
  406POPC   C1B 8599  38.218   1.721   8.733
  406POPC   C2B 8600  38.294   1.817   8.318
  406POPC   C3B 8601  38.039   1.891   7.982
  406POPC   C4B 8602  38.058   1.705   7.531
  407POPC   NC3 8603   3.207  28.535   9.449
  407POPC   PO4 8604   3.731  28.486   9.919
  407POPC   GL1 8605   3.712  28.569   9.393
  407POPC   GL2 8606   3.807  28.248   9.205
  407POPC   C1A 8607   3.614  28.621   8.912
  407POPC   D2A 8608   3.341  28.450   8.583
  407POPC   C3A 8609   3.486  28.571   8.171
  407POPC   C4A 8610   3.303  28.482   7.772
  407POPC   C1B 8611   3.690  28.106   8.787
  407POPC   C2B 8612   3.670  28.115   8.366
  407POPC   C3B 8613   3.571  28.103   7.970
  407POPC   C4B 8614   3.782  28.084   7.628
  408POPC   NC3 8615  41.734   2.238   9.646
  408POPC   PO4 8616  41.572   2.853   9.625
  408POPC   GL1 8617  41.710   2.797   9.193
  408POPC   GL2 8618  41.561   2.509   9.205
  408POPC   C1A 8619  41.747   2.636   8.752
  408POPC   D2A 8620  41.741   2.923   8.414
  408POPC   C3A 8621  41.951   2.876   8.060
  408POPC   C4A 8622  41.891   2.719   7.681
  408POPC   C1B 8623  41.265   2.464   8.851
  408POPC   C2B 8624  41.303   2.617   8.430
  408POPC   C3B 8625  41.454   2.783   8.017
  408POPC   C4B 8626  41.371   2.621   7.621
  409POPC   NC3 8627   9.585   2.880   9.523
  409POPC   PO4 8628   9.937   2.331   9.721
  409POPC   GL1 8629   9.877   2.533   9.283
  409POPC   GL2 8630   9.517   2.542   9.124
  409POPC   C1A 8631   9.923   2.753   8.857
  409POPC   D2A 8632   9.776   2.843   8.431
  409POPC   C3A 8633   9.944   2.734   8.023
  409POPC   C4A 8634   9.775   2.722   7.605
  409POPC   C1B 8635   9.405   2.933   8.853
  409POPC   C2B 8636   9.350   3.142   8.430
  409POPC   C3B 8637   9.501   3.032   8.016
  409POPC   C4B 8638   9.308   2.907   7.642
  410POPC   NC3 8639  12.143  11.482   9.643
  410POPC   PO4 8640  12.287  10.783   9.515
  410POPC   GL1 8641  12.148  11.192   9.227
  410POPC   GL2 8642  11.832  11.318   9.096
  410POPC   C1A 8643  12.240  11.401   8.808
  410POPC   D2A 8644  11.972  11.462   8.445
  410POPC   C3A 8645  12.229  11.502   8.098
  410POPC   C4A 8646  12.451  11.294   7.735
  410POPC   C1B 8647  11.841  11.717   8.863
  410POPC   C2B 8648  11.651  11.875   8.490
  410POPC   C3B 8649  11.646  11.686   8.082
  410POPC   C4B 8650  11.902  11.678   7.708
  411POPC   NC3 8651  37.668  24.046   9.358
  411POPC   PO4 8652  38.085  24.506   9.504
  411POPC   GL1 8653  37.745  24.580   9.195
  411POPC   GL2 8654  37.375  24.433   9.175
  411POPC   C1A 8655  37.626  24.664   8.775
  411POPC   D2A 8656  37.780  24.790   8.401
  411POPC   C3A 8657  37.648  24.603   8.030
  411POPC   C4A 8658  37.700  24.810   7.648
  411POPC   C1B 8659  37.229  24.256   8.759
  411POPC   C2B 8660  36.999  24.176   8.351
  411POPC   C3B 8661  37.117  24.252   7.923
  411POPC   C4B 8662  37.484  24.330   7.621
  412POPC   NC3 8663  11.290  33.653   9.908
  412POPC   PO4 8664  11.717  33.441   9.418
  412POPC   GL1 8665  11.646  33.529   8.984
  412POPC   GL2 8666  11.281  33.598   9.060
  412POPC   C1A 8667  11.602  33.513   8.522
  412POPC   D2A 8668  11.308  33.399   8.237
  412POPC   C3A 8669  11.438  33.633   7.887
  412POPC   C4A 8670  11.389  33.924   7.554
  412POPC   C1B 8671  11.119  33.648   8.645
  412POPC   C2B 8672  11.247  33.908   8.296
  412POPC   C3B 8673  11.034  33.976   7.930
  412POPC   C4B 8674  10.944  33.628   7.717
  413POPC   NC3 8675   0.701  33.008   9.447
  413POPC   PO4 8676   0.167  33.377   9.721
  413POPC   GL1 8677   0.308  33.222   9.232
  413POPC   GL2 8678   0.078  32.997   9.040
  413POPC   C1A 8679   0.493  33.196   8.797
  413POPC   D2A 8680   0.716  33.068   8.404
  413POPC   C3A 8681   0.483  33.124   8.028
  413POPC   C4A 8682   0.273  33.490   7.857
  413POPC   C1B 8683   0.264  32.752   8.740
  413POPC   C2B 8684   0.369  32.690   8.339
  413POPC   C3B 8685   0.628  32.601   7.992
  413POPC   C4B 8686   0.275  32.739   7.765
  414POPC   NC3 8687  12.064   0.508   9.522
  414POPC   PO4 8688  11.458   0.082   9.523
  414POPC   GL1 8689  11.813   0.160   9.196
  414POPC   GL2 8690  12.170   0.265   9.097
  414POPC   C1A 8691  11.834   0.316   8.746
  414POPC   D2A 8692  12.134   0.270   8.407
  414POPC   C3A 8693  11.925   0.295   7.990
  414POPC   C4A 8694  12.165   0.294   7.618
  414POPC   C1B 8695  12.124   0.719   8.887
  414POPC   C2B 8696  12.258   0.880   8.477
  414POPC   C3B 8697  12.254   0.691   8.066
  414POPC   C4B 8698  11.899   0.783   7.810
  415POPC   NC3 8699  38.306  31.724   9.883
  415POPC   PO4 8700  38.448  32.267   9.503
  415POPC   GL1 8701  38.304  32.255   9.096
  415POPC   GL2 8702  38.085  32.513   9.121
  415POPC   C1A 8703  38.243  32.310   8.642
  415POPC   D2A 8704  38.520  32.171   8.342
  415POPC   C3A 8705  38.431  32.156   7.945
  415POPC   C4A 8706  38.064  32.260   7.745
  415POPC   C1B 8707  38.444  32.716   8.919
  415POPC   C2B 8708  38.494  32.724   8.461
  415POPC   C3B 8709  38.458  32.666   8.029
  415POPC   C4B 8710  38.636  32.520   7.647
  416POPC   NC3 8711  28.475  31.988   9.392
  416POPC   PO4 8712  28.364  32.642   9.512
  416POPC   GL1 8713  28.334  32.426   9.121
  416POPC   GL2 8714  28.588  32.223   8.957
  416POPC   C1A 8715  28.270  32.538   8.689
  416POPC   D2A 8716  28.206  32.295   8.318
  416POPC   C3A 8717  28.275  32.427   7.909
  416POPC   C4A 8718  28.126  32.666   7.574
  416POPC   C1B 8719  28.238  31.979   8.748
  416POPC   C2B 8720  28.093  31.760   8.359
  416POPC   C3B 8721  28.140  31.923   7.931
  416POPC   C4B 8722  28.596  31.921   7.753
  417POPC   NC3 8723  29.547  33.884   9.436
  417POPC   PO4 8724  30.167  33.606   9.648
  417POPC   GL1 8725  29.954  33.657   9.225
  417POPC   GL2 8726  29.653  33.477   9.121
  417POPC   C1A 8727  29.948  33.946   8.824
  417POPC   D2A 8728  29.759  34.000   8.420
  417POPC   C3A 8729  29.920  33.882   8.002
  417POPC   C4A 8730  29.720  33.770   7.619
  417POPC   C1B 8731  29.988  33.453   8.771
  417POPC   C2B 8732  29.934  33.521   8.346
  417POPC   C3B 8733  29.834  33.375   7.965
  417POPC   C4B 8734  30.112  33.430   7.647
  418POPC   NC3 8735   5.862  41.929   9.398
  418POPC   PO4 8736   5.741  42.533   9.594
  418POPC   GL1 8737   6.044  42.442   9.270
  418POPC   GL2 8738   5.900  42.266   9.029
  418POPC   C1A 8739   6.230  42.652   8.893
  418POPC   D2A 8740   6.195  42.742   8.447
  418POPC   C3A 8741   6.194  42.417   8.141
  418POPC   C4A 8742   6.034  42.527   7.742
  418POPC   C1B 8743   5.974  42.309   8.607
  418POPC   C2B 8744   5.739  42.210   8.251
  418POPC   C3B 8745   5.513  42.105   7.899
  418POPC   C4B 8746   5.576  42.158   7.469
  419POPC   NC3 8747   8.632  36.642   9.326
  419POPC   PO4 8748   8.809  35.982   9.397
  419POPC   GL1 8749   8.945  36.187   9.062
  419POPC   GL2 8750   9.180  35.956   9.003
  419POPC   C1A 8751   8.966  36.246   8.619
  419POPC   D2A 8752   9.091  36.595   8.357
  419POPC   C3A 8753   8.879  36.475   7.980
  419POPC   C4A 8754   8.815  36.025   7.821
  419POPC   C1B 8755   9.389  35.817   8.658
  419POPC   C2B 8756   9.454  35.659   8.249
  419POPC   C3B 8757   9.319  35.907   7.896
  419POPC   C4B 8758   9.257  35.795   7.463
  420POPC   NC3 8759   3.020   0.770   9.605
  420POPC   PO4 8760   3.671   0.546   9.597
  420POPC   GL1 8761   3.636   0.407   9.183
  420POPC   GL2 8762   3.319   0.262   9.137
  420POPC   C1A 8763   3.739   0.224   8.776
  420POPC   D2A 8764   4.020   0.312   8.424
  420POPC   C3A 8765   3.844   0.258   8.041
  420POPC   C4A 8766   3.715   0.526   7.750
  420POPC   C1B 8767   3.321   0.525   8.775
  420POPC   C2B 8768   3.499   0.437   8.350
  420POPC   C3B 8769   3.312   0.278   7.928
  420POPC   C4B 8770   3.205   0.585   7.560
  421POPC   NC3 8771  24.630  23.501   9.442
  421POPC   PO4 8772  24.911  24.011   9.668
  421POPC   GL1 8773  24.794  23.976   9.189
  421POPC   GL2 8774  24.506  23.767   9.027
  421POPC   C1A 8775  24.753  24.032   8.708
  421POPC   D2A 8776  24.319  24.039   8.476
  421POPC   C3A 8777  24.362  23.902   8.048
  421POPC   C4A 8778  24.760  23.846   7.814
  421POPC   C1B 8779  24.462  23.360   8.816
  421POPC   C2B 8780  24.610  23.202   8.414
  421POPC   C3B 8781  24.608  23.405   8.058
  421POPC   C4B 8782  24.341  23.525   7.704
  422POPC   NC3 8783  24.817  21.123   9.482
  422POPC   PO4 8784  24.419  21.638   9.493
  422POPC   GL1 8785  24.668  21.523   9.184
  422POPC   GL2 8786  24.380  21.430   9.007
  422POPC   C1A 8787  24.836  21.455   8.813
  422POPC   D2A 8788  24.514  21.478   8.475
  422POPC   C3A 8789  24.568  21.303   8.066
  422POPC   C4A 8790  24.478  21.499   7.625
  422POPC   C1B 8791  24.427  21.056   8.781
  422POPC   C2B 8792  24.136  20.917   8.458
  422POPC   C3B 8793  24.039  21.064   8.091
  422POPC   C4B 8794  24.204  21.093   7.748
  423POPC   NC3 8795  42.864  17.245   9.582
  423POPC   PO4 8796  43.404  17.614   9.592
  423POPC   GL1 8797  43.136  17.539   9.252
  423POPC   GL2 8798  43.255  17.207   9.196
  423POPC   C1A 8799  42.896  17.340   8.870
  423POPC   D2A 8800  43.035  17.243   8.449
  423POPC   C3A 8801  42.892  17.376   8.058
  423POPC   C4A 8802  42.794  17.639   7.719
  423POPC   C1B 8803  43.395  17.364   8.793
  423POPC   C2B 8804  43.527  17.291   8.368
  423POPC   C3B 8805  43.410  17.428   7.930
  423POPC   C4B 8806  43.112  17.260   7.593
  424POPC   NC3 8807   4.331  30.027   9.534
  424POPC   PO4 8808   4.798  29.545   9.558
  424POPC   GL1 8809   4.569  29.773   9.182
  424POPC   GL2 8810   4.687  30.133   9.155
  424POPC   C1A 8811   4.393  29.794   8.762
  424POPC   D2A 8812   4.606  29.927   8.382
  424POPC   C3A 8813   4.524  29.654   8.054
  424POPC   C4A 8814   4.322  29.717   7.709
  424POPC   C1B 8815   4.316  30.269   8.906
  424POPC   C2B 8816   4.028  30.168   8.528
  424POPC   C3B 8817   4.136  30.041   8.091
  424POPC   C4B 8818   4.532  30.144   7.857
  425POPC   NC3 8819   6.803  12.754   9.494
  425POPC   PO4 8820   6.235  13.108   9.430
  425POPC   GL1 8821   6.472  12.882   9.105
  425POPC   GL2 8822   6.507  12.525   9.161
  425POPC   C1A 8823   6.743  13.058   8.762
  425POPC   D2A 8824   6.782  13.362   8.395
  425POPC   C3A 8825   6.720  13.195   7.992
  425POPC   C4A 8826   6.797  13.120   7.557
  425POPC   C1B 8827   6.362  12.344   8.833
  425POPC   C2B 8828   6.348  12.561   8.464
  425POPC   C3B 8829   6.398  12.498   8.050
  425POPC   C4B 8830   6.545  12.553   7.640
  426POPC   NC3 8831  43.955  30.134   9.449
  426POPC   PO4 8832  44.201  29.563   9.460
  426POPC   GL1 8833  44.061  29.669   9.027
  426POPC   GL2 8834  43.838  29.993   8.987
  426POPC   C1A 8835  44.019  29.771   8.563
  426POPC   D2A 8836  43.754  30.082   8.345
  426POPC   C3A 8837  43.865  30.150   7.914
  426POPC   C4A 8838  43.990  29.796   7.667
  426POPC   C1B 8839  43.599  29.663   8.812
  426POPC   C2B 8840  43.497  29.608   8.383
  426POPC   C3B 8841  43.544  29.752   7.976
  426POPC   C4B 8842  43.500  29.934   7.591
  427POPC   NC3 8843  27.706  40.654   9.646
  427POPC   PO4 8844  26.961  40.721   9.580
  427POPC   GL1 8845  27.321  40.851   9.237
  427POPC   GL2 8846  27.724  40.899   9.196
  427POPC   C1A 8847  27.452  40.746   8.798
  427POPC   D2A 8848  27.460  40.467   8.451
  427POPC   C3A 8849  27.509  40.596   8.033
  427POPC   C4A 8850  27.292  40.922   7.856
  427POPC   C1B 8851  27.894  41.019   8.777
  427POPC   C2B 8852  27.754  40.906   8.354
  427POPC   C3B 8853  27.797  40.999   7.889
  427POPC   C4B 8854  28.100  40.901   7.563
  428POPC   NC3 8855   1.231  16.185   9.593
  428POPC   PO4 8856   1.567  15.676   9.485
  428POPC   GL1 8857   1.494  15.948   9.161
  428POPC   GL2 8858   1.158  16.063   9.098
  428POPC   C1A 8859   1.552  16.084   8.752
  428POPC   D2A 8860   1.253  16.048   8.442
  428POPC   C3A 8861   1.516  16.021   8.093
  428POPC   C4A 8862   1.373  16.012   7.692
  428POPC   C1B 8863   0.961  16.412   8.920
  428POPC   C2B 8864   1.053  16.526   8.502
  428POPC   C3B 8865   0.981  16.333   8.086
  428POPC   C4B 8866   0.931  16.268   7.636
  429POPC   NC3 8867  17.088  19.543   9.351
  429POPC   PO4 8868  16.528  19.895   9.565
  429POPC   GL1 8869  16.760  20.011   9.188
  429POPC   GL2 8870  17.037  20.275   9.169
  429POPC   C1A 8871  16.842  19.829   8.785
  429POPC   D2A 8872  16.619  19.820   8.402
  429POPC   C3A 8873  16.808  19.861   8.012
  429POPC   C4A 8874  16.648  19.684   7.654
  429POPC   C1B 8875  17.224  20.235   8.733
  429POPC   C2B 8876  17.083  20.179   8.317
  429POPC   C3B 8877  17.231  20.102   7.886
  429POPC   C4B 8878  16.990  20.070   7.492
  430POPC   NC3 8879  17.897   9.992   9.325
  430POPC   PO4 8880  17.306   9.743   9.610
  430POPC   GL1 8881  17.248   9.574   9.182
  430POPC   GL2 8882  17.603   9.566   9.190
  430POPC   C1A 8883  17.342   9.635   8.695
  430POPC   D2A 8884  17.367   9.830   8.267
  430POPC   C3A 8885  17.315   9.790   7.793
  430POPC   C4A 8886  17.181  10.161   7.530
  430POPC   C1B 8887  17.871   9.499   8.837
  430POPC   C2B 8888  17.827   9.664   8.433
  430POPC   C3B 8889  17.810   9.754   7.999
  430POPC   C4B 8890  17.742   9.495   7.663
  431POPC   NC3 8891  22.971   1.692   9.398
  431POPC   PO4 8892  22.728   2.270   9.645
  431POPC   GL1 8893  22.957   2.226   9.191
  431POPC   GL2 8894  22.852   1.951   8.986
  431POPC   C1A 8895  23.151   2.273   8.734
  431POPC   D2A 8896  23.044   2.457   8.293
  431POPC   C3A 8897  23.009   2.133   7.948
  431POPC   C4A 8898  22.690   1.863   7.765
  431POPC   C1B 8899  23.079   1.716   8.692
  431POPC   C2B 8900  22.990   1.670   8.241
  431POPC   C3B 8901  23.077   1.539   7.812
  431POPC   C4B 8902  23.136   1.624   7.354
  432POPC   NC3 8903  33.480  44.555   9.663
  432POPC   PO4 8904  34.124  44.537   9.671
  432POPC   GL1 8905  33.888  44.655   9.295
  432POPC   GL2 8906  33.992  44.962   9.190
  432POPC   C1A 8907  33.642  44.725   8.896
  432POPC   D2A 8908  33.561  44.544   8.484
  432POPC   C3A 8909  33.675  44.603   8.051
  432POPC   C4A 8910  34.026  44.581   7.768
  432POPC   C1B 8911  34.018   0.079   8.762
  432POPC   C2B 8912  33.761   0.026   8.390
  432POPC   C3B 8913  33.886   0.053   7.977
  432POPC   C4B 8914  33.849   0.117   7.569
  433POPC   NC3 8915  17.931  19.654   9.380
  433POPC   PO4 8916  18.594  19.777   9.504
  433POPC   GL1 8917  18.571  19.924   9.086
  433POPC   GL2 8918  18.224  20.051   9.020
  433POPC   C1A 8919  18.446  19.667   8.750
  433POPC   D2A 8920  18.098  19.578   8.465
  433POPC   C3A 8921  18.054  19.734   8.052
  433POPC   C4A 8922  18.226  19.553   7.645
  433POPC   C1B 8923  18.210  20.080   8.545
  433POPC   C2B 8924  18.566  19.886   8.306
  433POPC   C3B 8925  18.552  19.837   7.900
  433POPC   C4B 8926  18.267  20.115   7.761
  434POPC   NC3 8927  20.967  23.559   9.506
  434POPC   PO4 8928  21.604  23.499   9.525
  434POPC   GL1 8929  21.434  23.726   9.203
  434POPC   GL2 8930  21.712  23.937   9.146
  434POPC   C1A 8931  21.175  23.558   8.852
  434POPC   D2A 8932  21.157  23.338   8.427
  434POPC   C3A 8933  21.258  23.651   8.080
  434POPC   C4A 8934  21.134  23.981   7.762
  434POPC   C1B 8935  21.615  23.865   8.736
  434POPC   C2B 8936  21.391  24.107   8.445
  434POPC   C3B 8937  21.535  24.093   8.052
  434POPC   C4B 8938  21.754  23.780   7.887
  435POPC   NC3 8939  38.560   1.362   9.650
  435POPC   PO4 8940  38.336   0.773   9.619
  435POPC   GL1 8941  38.343   1.164   9.239
  435POPC   GL2 8942  38.607   1.431   9.137
  435POPC   C1A 8943  38.404   1.150   8.774
  435POPC   D2A 8944  38.281   1.293   8.376
  435POPC   C3A 8945  38.282   0.985   8.047
  435POPC   C4A 8946  38.403   0.835   7.651
  435POPC   C1B 8947  38.712   1.551   8.676
  435POPC   C2B 8948  38.702   1.530   8.209
  435POPC   C3B 8949  38.472   1.594   7.823
  435POPC   C4B 8950  38.560   1.758   7.379
  436POPC   NC3 8951  30.694   7.108   9.471
  436POPC   PO4 8952  30.906   7.753   9.551
  436POPC   GL1 8953  30.672   7.605   9.221
  436POPC   GL2 8954  30.366   7.796   9.168
  436POPC   C1A 8955  30.748   7.359   8.869
  436POPC   D2A 8956  30.793   7.403   8.444
  436POPC   C3A 8957  30.708   7.073   8.147
  436POPC   C4A 8958  30.803   7.166   7.751
  436POPC   C1B 8959  30.562   7.900   8.788
  436POPC   C2B 8960  30.438   7.795   8.384
  436POPC   C3B 8961  30.602   7.583   8.007
  436POPC   C4B 8962  30.851   7.646   7.647
  437POPC   NC3 8963   2.295  42.808   9.870
  437POPC   PO4 8964   1.758  42.825   9.411
  437POPC   GL1 8965   1.729  42.897   8.982
  437POPC   GL2 8966   2.020  43.153   9.044
  437POPC   C1A 8967   1.732  43.141   8.595
  437POPC   D2A 8968   2.047  43.475   8.504
  437POPC   C3A 8969   2.158  43.470   8.050
  437POPC   C4A 8970   2.091  43.182   7.679
  437POPC   C1B 8971   2.228  42.951   8.722
  437POPC   C2B 8972   2.231  43.041   8.307
  437POPC   C3B 8973   2.388  42.884   7.954
  437POPC   C4B 8974   2.305  42.724   7.570
  438POPC   NC3 8975  20.754   4.249   9.633
  438POPC   PO4 8976  20.418   4.720   9.503
  438POPC   GL1 8977  20.383   4.435   9.166
  438POPC   GL2 8978  20.438   4.077   9.256
  438POPC   C1A 8979  20.392   4.619   8.748
  438POPC   D2A 8980  20.644   4.823   8.417
  438POPC   C3A 8981  20.513   4.629   8.039
  438POPC   C4A 8982  20.428   4.175   7.943
  438POPC   C1B 8983  20.593   4.084   8.828
  438POPC   C2B 8984  20.682   4.300   8.445
  438POPC   C3B 8985  20.953   4.356   8.121
  438POPC   C4B 8986  20.906   4.186   7.757
  439POPC   NC3 8987  41.055  27.209   9.312
  439POPC   PO4 8988  40.532  27.156   9.715
  439POPC   GL1 8989  40.604  27.515   9.256
  439POPC   GL2 8990  40.899  27.675   9.131
  439POPC   C1A 8991  40.664  27.468   8.734
  439POPC   D2A 8992  40.622  27.581   8.307
  439POPC   C3A 8993  40.870  27.384   7.996
  439POPC   C4A 8994  40.776  27.601   7.617
  439POPC   C1B 8995  40.996  27.880   8.746
  439POPC   C2B 8996  41.128  27.747   8.350
  439POPC   C3B 8997  41.062  27.875   7.939
  439POPC   C4B 8998  41.277  27.699   7.609
  440POPC   NC3 8999   4.090  30.768   9.538
  440POPC   PO4 9000   3.405  30.727   9.562
  440POPC   GL1 9001   3.650  30.766   9.240
  440POPC   GL2 9002   3.802  30.429   9.249
  440POPC   C1A 9003   3.496  30.864   8.850
  440POPC   D2A 9004   3.395  30.718   8.467
  440POPC   C3A 9005   3.493  31.015   8.177
  440POPC   C4A 9006   3.545  30.854   7.789
  440POPC   C1B 9007   3.933  30.579   8.854
  440POPC   C2B 9008   3.924  30.687   8.462
  440POPC   C3B 9009   3.756  30.462   8.120
  440POPC   C4B 9010   3.931  30.455   7.721
  441POPC   NC3 9011  29.421  25.223   9.643
  441POPC   PO4 9012  30.043  25.097   9.538
  441POPC   GL1 9013  30.035  25.088   9.086
  441POPC   GL2 9014  30.182  25.418   9.037
  441POPC   C1A 9015  29.841  24.925   8.661
  441POPC   D2A 9016  29.639  24.777   8.252
  441POPC   C3A 9017  29.603  25.054   7.873
  441POPC   C4A 9018  29.444  25.306   7.500
  441POPC   C1B 9019  30.226  25.268   8.615
  441POPC   C2B 9020  30.023  25.139   8.198
  441POPC   C3B 9021  29.940  25.484   7.876
  441POPC   C4B 9022  30.340  25.745   7.845
  442POPC   NC3 9023  42.465  22.581   9.505
  442POPC   PO4 9024  42.160  22.012   9.627
  442POPC   GL1 9025  42.075  21.988   9.173
  442POPC   GL2 9026  42.448  21.903   9.180
  442POPC   C1A 9027  41.980  22.208   8.743
  442POPC   D2A 9028  42.219  22.522   8.442
  442POPC   C3A 9029  42.403  22.336   8.041
  442POPC   C4A 9030  42.223  21.965   7.832
  442POPC   C1B 9031  42.502  22.178   8.840
  442POPC   C2B 9032  42.399  22.025   8.442
  442POPC   C3B 9033  42.637  21.826   8.133
  442POPC   C4B 9034  42.699  21.694   7.745
  443POPC   NC3 9035   3.071   7.257   9.329
  443POPC   PO4 9036   3.567   7.589   9.532
  443POPC   GL1 9037   3.491   7.438   9.099
  443POPC   GL2 9038   3.520   7.070   9.059
  443POPC   C1A 9039   3.608   7.359   8.661
  443POPC   D2A 9040   3.691   7.629   8.310
  443POPC   C3A 9041   3.693   7.471   7.919
  443POPC   C4A 9042   3.479   7.695   7.587
  443POPC   C1B 9043   3.165   7.044   8.748
  443POPC   C2B 9044   3.018   6.928   8.334
  443POPC   C3B 9045   3.225   7.045   7.967
  443POPC   C4B 9046   3.406   7.203   7.585
  444POPC   NC3 9047  11.102  44.824   9.365
  444POPC   PO4 9048  11.507  44.316   9.483
  444POPC   GL1 9049  11.337  44.431   9.103
  444POPC   GL2 9050  11.541  44.726   9.134
  444POPC   C1A 9051  11.185  44.544   8.664
  444POPC   D2A 9052  11.186  44.913   8.361
  444POPC   C3A 9053  11.087  44.861   7.948
  444POPC   C4A 9054  11.286  44.470   7.889
  444POPC   C1B 9055  11.507  44.934   8.769
  444POPC   C2B 9056  11.695  44.987   8.353
  444POPC   C3B 9057  11.616  44.877   7.913
  444POPC   C4B 9058  11.909  44.845   7.567
  445POPC   NC3 9059  41.689  41.837   9.399
  445POPC   PO4 9060  41.507  41.119   9.415
  445POPC   GL1 9061  41.545  41.435   9.118
  445POPC   GL2 9062  41.272  41.695   9.135
  445POPC   C1A 9063  41.700  41.614   8.722
  445POPC   D2A 9064  41.808  41.561   8.283
  445POPC   C3A 9065  41.518  41.763   8.034
  445POPC   C4A 9066  41.287  41.757   7.696
  445POPC   C1B 9067  41.134  41.382   8.864
  445POPC   C2B 9068  41.351  41.221   8.516
  445POPC   C3B 9069  41.225  41.340   8.120
  445POPC   C4B 9070  41.232  41.247   7.718
  446POPC   NC3 9071  39.843  17.658   9.387
  446POPC   PO4 9072  40.383  17.807   9.733
  446POPC   GL1 9073  40.302  17.378   9.376
  446POPC   GL2 9074  40.009  17.171   9.324
  446POPC   C1A 9075  40.293  17.258   8.884
  446POPC   D2A 9076  40.141  17.495   8.485
  446POPC   C3A 9077  40.264  17.553   8.021
  446POPC   C4A 9078  40.167  17.892   7.697
  446POPC   C1B 9079  39.791  17.122   8.960
  446POPC   C2B 9080  39.672  17.353   8.619
  446POPC   C3B 9081  39.748  17.307   8.178
  446POPC   C4B 9082  39.664  17.427   7.769
  447POPC   NC3 9083  28.768   8.394   9.239
  447POPC   PO4 9084  29.223   8.016   9.552
  447POPC   GL1 9085  29.178   8.077   9.128
  447POPC   GL2 9086  29.275   8.404   9.131
  447POPC   C1A 9087  28.961   7.996   8.731
  447POPC   D2A 9088  28.781   8.233   8.391
  447POPC   C3A 9089  28.941   7.999   8.066
  447POPC   C4A 9090  29.278   7.999   7.797
  447POPC   C1B 9091  29.090   8.506   8.712
  447POPC   C2B 9092  29.049   8.680   8.306
  447POPC   C3B 9093  29.021   8.488   7.911
  447POPC   C4B 9094  28.834   8.213   7.621
  448POPC   NC3 9095  42.069  32.065   9.787
  448POPC   PO4 9096  42.581  32.522   9.601
  448POPC   GL1 9097  42.417  32.400   9.225
  448POPC   GL2 9098  42.293  32.082   9.263
  448POPC   C1A 9099  42.601  32.468   8.812
  448POPC   D2A 9100  42.606  32.816   8.536
  448POPC   C3A 9101  42.610  32.660   8.115
  448POPC   C4A 9102  42.674  32.495   7.728
  448POPC   C1B 9103  42.171  32.190   8.811
  448POPC   C2B 9104  42.259  32.416   8.433
  448POPC   C3B 9105  42.258  32.271   7.994
  448POPC   C4B 9106  42.242  31.906   7.711
  449POPC   NC3 9107  22.209   4.985   9.546
  449POPC   PO4 9108  21.910   5.625   9.619
  449POPC   GL1 9109  21.902   5.300   9.269
  449POPC   GL2 9110  22.275   5.258   9.140
  449POPC   C1A 9111  21.884   5.239   8.818
  449POPC   D2A 9112  22.185   5.187   8.451
  449POPC   C3A 9113  22.014   5.305   8.050
  449POPC   C4A 9114  21.889   5.167   7.650
  449POPC   C1B 9115  22.457   4.927   8.874
  449POPC   C2B 9116  22.484   4.760   8.462
  449POPC   C3B 9117  22.556   5.009   8.083
  449POPC   C4B 9118  22.398   5.151   7.705
  450POPC   NC3 9119   2.261  43.528   9.360
  450POPC   PO4 9120   1.868  43.965   9.663
  450POPC   GL1 9121   1.995  43.987   9.222
  450POPC   GL2 9122   2.340  44.007   9.193
  450POPC   C1A 9123   2.070  43.955   8.755
  450POPC   D2A 9124   2.215  43.937   8.334
  450POPC   C3A 9125   1.906  43.910   8.063
  450POPC   C4A 9126   1.789  43.646   7.740
  450POPC   C1B 9127   2.555  44.135   8.814
  450POPC   C2B 9128   2.465  44.372   8.420
  450POPC   C3B 9129   2.315  44.324   7.978
  450POPC   C4B 9130   2.123  44.038   7.628
  451POPC   NC3 9131  27.014  36.467   9.497
  451POPC   PO4 9132  27.061  35.804   9.723
  451POPC   GL1 9133  26.929  35.964   9.298
  451POPC   GL2 9134  26.569  35.891   9.164
  451POPC   C1A 9135  26.888  36.153   8.874
  451POPC   D2A 9136  26.730  36.325   8.501
  451POPC   C3A 9137  26.852  36.066   8.149
  451POPC   C4A 9138  26.984  36.059   7.726
  451POPC   C1B 9139  26.367  36.066   8.800
  451POPC   C2B 9140  26.333  36.026   8.365
  451POPC   C3B 9141  26.418  36.310   8.078
  451POPC   C4B 9142  26.482  36.076   7.753
  452POPC   NC3 9143  34.410  30.232   9.462
  452POPC   PO4 9144  34.857  29.671   9.356
  452POPC   GL1 9145  34.617  29.906   9.085
  452POPC   GL2 9146  34.276  29.816   9.169
  452POPC   C1A 9147  34.466  29.745   8.704
  452POPC   D2A 9148  34.332  29.776   8.319
  452POPC   C3A 9149  34.681  29.731   8.074
  452POPC   C4A 9150  34.540  29.688   7.695
  452POPC   C1B 9151  34.242  30.205   8.868
  452POPC   C2B 9152  34.429  30.230   8.511
  452POPC   C3B 9153  34.472  30.237   8.110
  452POPC   C4B 9154  34.296  30.141   7.737
  453POPC   NC3 9155  24.294  44.647   9.317
  453POPC   PO4 9156  24.805  44.999   9.575
  453POPC   GL1 9157  24.728  44.790   9.122
  453POPC   GL2 9158  24.479  44.938   8.959
  453POPC   C1A 9159  24.645  44.525   8.733
  453POPC   D2A 9160  24.429  44.611   8.352
  453POPC   C3A 9161  24.684  44.439   8.061
  453POPC   C4A 9162  24.615  44.156   7.740
  453POPC   C1B 9163  24.396   0.180   8.628
  453POPC   C2B 9164  24.575   0.107   8.284
  453POPC   C3B 9165  24.559  44.938   7.944
  453POPC   C4B 9166  24.475  44.642   7.668
  454POPC   NC3 9167  10.272  27.648   9.662
  454POPC   PO4 9168  10.917  27.461   9.689
  454POPC   GL1 9169  10.662  27.575   9.305
  454POPC   GL2 9170  10.310  27.549   9.170
  454POPC   C1A 9171  10.735  27.469   8.871
  454POPC   D2A 9172  10.739  27.654   8.436
  454POPC   C3A 9173  10.710  27.398   8.060
  454POPC   C4A 9174  10.758  27.585   7.653
  454POPC   C1B 9175  10.308  27.721   8.742
  454POPC   C2B 9176  10.245  27.871   8.309
  454POPC   C3B 9177  10.288  27.672   7.910
  454POPC   C4B 9178  10.271  27.738   7.456
  455POPC   NC3 9179  13.432  21.442   9.631
  455POPC   PO4 9180  13.435  21.971   9.228
  455POPC   GL1 9181  13.667  21.602   9.197
  455POPC   GL2 9182  13.661  21.217   9.201
  455POPC   C1A 9183  13.705  21.485   8.776
  455POPC   D2A 9184  13.857  21.637   8.411
  455POPC   C3A 9185  13.646  21.461   8.070
  455POPC   C4A 9186  13.507  21.569   7.706
  455POPC   C1B 9187  13.927  21.035   8.850
  455POPC   C2B 9188  13.897  21.136   8.385
  455POPC   C3B 9189  13.856  21.021   7.912
  455POPC   C4B 9190  13.771  21.202   7.478
  456POPC   NC3 9191  43.419  24.340   9.498
  456POPC   PO4 9192  44.020  24.526   9.615
  456POPC   GL1 9193  43.823  24.564   9.236
  456POPC   GL2 9194  43.867  24.237   9.156
  456POPC   C1A 9195  43.771  24.591   8.780
  456POPC   D2A 9196  43.782  24.379   8.385
  456POPC   C3A 9197  44.061  24.595   8.110
  456POPC   C4A 9198  43.910  24.887   7.789
  456POPC   C1B 9199  44.101  24.160   8.745
  456POPC   C2B 9200  44.183  24.070   8.286
  456POPC   C3B 9201  44.191  24.175   7.853
  456POPC   C4B 9202  43.924  24.361   7.592
  457POPC   NC3 9203   7.637   2.423   9.463
  457POPC   PO4 9204   7.393   3.083   9.571
  457POPC   GL1 9205   7.538   2.931   9.214
  457POPC   GL2 9206   7.223   3.029   9.067
  457POPC   C1A 9207   7.631   2.717   8.842
  457POPC   D2A 9208   7.759   2.623   8.439
  457POPC   C3A 9209   7.469   2.649   8.097
  457POPC   C4A 9210   7.542   2.937   7.784
  457POPC   C1B 9211   7.201   2.929   8.627
  457POPC   C2B 9212   7.194   3.179   8.253
  457POPC   C3B 9213   7.054   3.050   7.882
  457POPC   C4B 9214   7.083   2.664   7.673
  458POPC   NC3 9215  34.246  31.475   9.395
  458POPC   PO4 9216  34.866  31.520   9.538
  458POPC   GL1 9217  34.730  31.312   9.153
  458POPC   GL2 9218  34.910  30.983   9.155
  458POPC   C1A 9219  34.684  31.454   8.723
  458POPC   D2A 9220  34.485  31.688   8.396
  458POPC   C3A 9221  34.653  31.552   7.994
  458POPC   C4A 9222  34.765  31.857   7.668
  458POPC   C1B 9223  35.093  31.124   8.768
  458POPC   C2B 9224  34.970  31.110   8.353
  458POPC   C3B 9225  35.168  31.217   7.983
  458POPC   C4B 9226  35.013  31.417   7.613
  459POPC   NC3 9227  33.354  39.464   9.320
  459POPC   PO4 9228  32.774  39.367   9.767
  459POPC   GL1 9229  32.861  39.370   9.241
  459POPC   GL2 9230  32.961  39.051   9.105
  459POPC   C1A 9231  33.121  39.346   8.766
  459POPC   D2A 9232  33.133  39.146   8.424
  459POPC   C3A 9233  33.185  39.331   8.059
  459POPC   C4A 9234  32.868  39.398   7.788
  459POPC   C1B 9235  32.757  38.740   8.817
  459POPC   C2B 9236  32.620  38.846   8.389
  459POPC   C3B 9237  32.866  38.919   8.040
  459POPC   C4B 9238  33.129  38.667   7.855
  460POPC   NC3 9239   6.798  37.160   9.607
  460POPC   PO4 9240   7.218  36.665   9.484
  460POPC   GL1 9241   7.416  36.907   9.192
  460POPC   GL2 9242   7.136  37.169   9.197
  460POPC   C1A 9243   7.689  36.789   8.822
  460POPC   D2A 9244   7.636  36.602   8.398
  460POPC   C3A 9245   7.549  36.875   8.023
  460POPC   C4A 9246   7.404  36.933   7.580
  460POPC   C1B 9247   7.336  37.177   8.785
  460POPC   C2B 9248   7.230  36.989   8.415
  460POPC   C3B 9249   7.059  37.238   8.089
  460POPC   C4B 9250   7.147  37.377   7.675
  461POPC   NC3 9251  20.370  30.664   9.606
  461POPC   PO4 9252  20.878  30.335   9.388
  461POPC   GL1 9253  20.610  30.621   9.150
  461POPC   GL2 9254  20.519  30.412   8.911
  461POPC   C1A 9255  20.545  30.911   8.784
  461POPC   D2A 9256  20.667  30.716   8.399
  461POPC   C3A 9257  20.647  30.862   7.982
  461POPC   C4A 9258  20.699  30.833   7.543
  461POPC   C1B 9259  20.236  30.460   8.580
  461POPC   C2B 9260  20.271  30.515   8.126
  461POPC   C3B 9261  20.450  30.439   7.723
  461POPC   C4B 9262  20.409  30.501   7.267
  462POPC   NC3 9263  34.886  15.394   9.380
  462POPC   PO4 9264  34.446  14.955   9.611
  462POPC   GL1 9265  34.428  15.093   9.218
  462POPC   GL2 9266  34.758  14.971   9.113
  462POPC   C1A 9267  34.397  15.185   8.793
  462POPC   D2A 9268  34.653  15.427   8.507
  462POPC   C3A 9269  34.487  15.438   8.104
  462POPC   C4A 9270  34.497  15.113   7.814
  462POPC   C1B 9271  34.931  14.914   8.702
  462POPC   C2B 9272  34.792  14.958   8.279
  462POPC   C3B 9273  34.912  14.803   7.880
  462POPC   C4B 9274  34.805  14.800   7.418
  463POPC   NC3 9275  14.524  11.962   9.528
  463POPC   PO4 9276  14.701  11.399   9.171
  463POPC   GL1 9277  14.626  11.868   9.039
  463POPC   GL2 9278  14.266  12.066   9.081
  463POPC   C1A 9279  14.531  12.141   8.654
  463POPC   D2A 9280  14.275  12.139   8.282
  463POPC   C3A 9281  14.540  12.057   7.890
  463POPC   C4A 9282  14.503  11.843   7.481
  463POPC   C1B 9283  14.016  12.339   8.768
  463POPC   C2B 9284  13.825  12.453   8.351
  463POPC   C3B 9285  14.059  12.474   7.975
  463POPC   C4B 9286  14.240  12.512   7.586
  464POPC   NC3 9287   1.768  32.448   9.392
  464POPC   PO4 9288   1.918  32.890   9.854
  464POPC   GL1 9289   1.809  32.971   9.381
  464POPC   GL2 9290   1.799  33.296   9.209
  464POPC   C1A 9291   1.863  32.868   8.892
  464POPC   D2A 9292   2.069  32.814   8.460
  464POPC   C3A 9293   2.117  32.999   8.007
  464POPC   C4A 9294   2.046  32.790   7.566
  464POPC   C1B 9295   1.957  33.351   8.769
  464POPC   C2B 9296   1.775  33.255   8.378
  464POPC   C3B 9297   1.592  32.987   8.086
  464POPC   C4B 9298   1.664  33.080   7.672
  465POPC   NC3 9299  41.942   7.200   9.445
  465POPC   PO4 9300  41.333   6.934   9.508
  465POPC   GL1 9301  41.504   7.222   9.185
  465POPC   GL2 9302  41.694   7.589   9.216
  465POPC   C1A 9303  41.462   7.386   8.788
  465POPC   D2A 9304  41.312   7.466   8.408
  465POPC   C3A 9305  41.605   7.277   8.159
  465POPC   C4A 9306  41.516   7.273   7.785
  465POPC   C1B 9307  41.670   7.850   8.832
  465POPC   C2B 9308  41.764   7.715   8.409
  465POPC   C3B 9309  41.578   7.760   7.994
  465POPC   C4B 9310  41.644   7.690   7.549
  466POPC   NC3 9311  14.945   8.338   9.371
  466POPC   PO4 9312  15.615   8.144   9.444
  466POPC   GL1 9313  15.463   8.379   9.101
  466POPC   GL2 9314  15.259   8.096   9.060
  466POPC   C1A 9315  15.226   8.432   8.702
  466POPC   D2A 9316  14.953   8.314   8.362
  466POPC   C3A 9317  15.080   8.579   8.033
  466POPC   C4A 9318  15.138   8.419   7.653
  466POPC   C1B 9319  15.073   7.944   8.694
  466POPC   C2B 9320  15.196   7.864   8.263
  466POPC   C3B 9321  15.012   7.968   7.869
  466POPC   C4B 9322  15.224   7.917   7.473
  467POPC   NC3 9323  32.389  18.228   9.805
  467POPC   PO4 9324  32.277  17.753   9.321
  467POPC   GL1 9325  32.523  18.126   9.091
  467POPC   GL2 9326  32.504  18.520   9.164
  467POPC   C1A 9327  32.359  18.274   8.693
  467POPC   D2A 9328  31.995  18.316   8.416
  467POPC   C3A 9329  32.199  18.225   8.062
  467POPC   C4A 9330  32.129  18.063   7.716
  467POPC   C1B 9331  32.508  18.766   8.741
  467POPC   C2B 9332  32.403  18.644   8.304
  467POPC   C3B 9333  32.450  18.628   7.833
  467POPC   C4B 9334  32.525  18.733   7.378
  468POPC   NC3 9335   3.861  17.912   9.294
  468POPC   PO4 9336   3.328  18.123   9.477
  468POPC   GL1 9337   3.439  18.382   9.154
  468POPC   GL2 9338   3.452  18.066   8.966
  468POPC   C1A 9339   3.652  18.491   8.766
  468POPC   D2A 9340   3.649  18.199   8.415
  468POPC   C3A 9341   3.603  18.395   8.012
  468POPC   C4A 9342   3.362  18.449   7.650
  468POPC   C1B 9343   3.113  17.910   8.718
  468POPC   C2B 9344   2.991  17.895   8.276
  468POPC   C3B 9345   3.201  18.001   7.873
  468POPC   C4B 9346   3.165  17.966   7.410
  469POPC   NC3 9347  42.512  23.941   9.360
  469POPC   PO4 9348  42.329  24.578   9.521
  469POPC   GL1 9349  42.504  24.471   9.160
  469POPC   GL2 9350  42.471  24.833   9.050
  469POPC   C1A 9351  42.406  24.322   8.750
  469POPC   D2A 9352  42.318  24.612   8.417
  469POPC   C3A 9353  42.372  24.464   8.009
  469POPC   C4A 9354  42.709  24.270   7.822
  469POPC   C1B 9355  42.051  24.707   8.850
  469POPC   C2B 9356  41.755  24.647   8.510
  469POPC   C3B 9357  41.906  24.690   8.109
  469POPC   C4B 9358  42.037  24.727   7.715
  470POPC   NC3 9359  35.847  18.635   9.286
  470POPC   PO4 9360  36.199  18.102   9.452
  470POPC   GL1 9361  36.207  18.264   9.078
  470POPC   GL2 9362  35.960  18.051   9.017
  470POPC   C1A 9363  36.286  18.191   8.639
  470POPC   D2A 9364  36.512  18.456   8.331
  470POPC   C3A 9365  36.383  18.374   7.901
  470POPC   C4A 9366  36.296  18.634   7.558
  470POPC   C1B 9367  35.808  17.830   8.694
  470POPC   C2B 9368  35.869  18.070   8.333
  470POPC   C3B 9369  36.031  17.952   7.961
  470POPC   C4B 9370  36.059  18.069   7.539
  471POPC   NC3 9371  19.025   8.470   9.304
  471POPC   PO4 9372  18.820   9.069   9.542
  471POPC   GL1 9373  19.099   8.973   9.182
  471POPC   GL2 9374  19.423   8.759   9.162
  471POPC   C1A 9375  19.183   8.994   8.747
  471POPC   D2A 9376  19.460   9.111   8.435
  471POPC   C3A 9377  19.239   9.131   8.061
  471POPC   C4A 9378  19.036   9.091   7.649
  471POPC   C1B 9379  19.347   8.512   8.760
  471POPC   C2B 9380  19.195   8.642   8.338
  471POPC   C3B 9381  19.271   8.669   7.866
  471POPC   C4B 9382  19.543   9.020   7.668
  472POPC   NC3 9383  27.827  17.422   9.608
  472POPC   PO4 9384  27.359  16.956   9.604
  472POPC   GL1 9385  27.452  17.356   9.258
  472POPC   GL2 9386  27.709  17.649   9.176
  472POPC   C1A 9387  27.454  17.418   8.766
  472POPC   D2A 9388  27.380  17.561   8.311
  472POPC   C3A 9389  27.551  17.408   7.898
  472POPC   C4A 9390  27.679  17.315   7.419
  472POPC   C1B 9391  27.952  17.644   8.810
  472POPC   C2B 9392  27.929  17.488   8.387
  472POPC   C3B 9393  28.006  17.628   7.979
  472POPC   C4B 9394  28.099  17.524   7.592
  473POPC   NC3 9395  16.742  15.747   9.573
  473POPC   PO4 9396  17.059  16.308   9.500
  473POPC   GL1 9397  16.819  16.092   9.189
  473POPC   GL2 9398  17.061  15.834   9.135
  473POPC   C1A 9399  16.551  16.105   8.797
  473POPC   D2A 9400  16.381  16.309   8.395
  473POPC   C3A 9401  16.363  15.997   8.042
  473POPC   C4A 9402  16.545  15.629   7.817
  473POPC   C1B 9403  17.066  16.145   8.763
  473POPC   C2B 9404  16.873  16.112   8.355
  473POPC   C3B 9405  16.887  16.008   7.914
  473POPC   C4B 9406  16.773  16.102   7.490
  474POPC   NC3 9407  33.784   8.608   9.480
  474POPC   PO4 9408  34.078   9.210   9.476
  474POPC   GL1 9409  33.977   8.954   9.135
  474POPC   GL2 9410  33.643   8.925   9.085
  474POPC   C1A 9411  33.976   8.891   8.699
  474POPC   D2A 9412  33.634   8.907   8.438
  474POPC   C3A 9413  33.788   9.058   8.089
  474POPC   C4A 9414  34.191   8.994   7.888
  474POPC   C1B 9415  33.603   8.546   8.799
  474POPC   C2B 9416  33.806   8.416   8.395
  474POPC   C3B 9417  33.673   8.568   7.976
  474POPC   C4B 9418  33.778   8.857   7.636
  475POPC   NC3 9419   3.918  20.950   9.316
  475POPC   PO4 9420   3.888  20.296   9.500
  475POPC   GL1 9421   3.721  20.501   9.107
  475POPC   GL2 9422   3.380  20.505   9.130
  475POPC   C1A 9423   3.608  20.623   8.656
  475POPC   D2A 9424   3.484  20.362   8.301
  475POPC   C3A 9425   3.631  20.570   7.929
  475POPC   C4A 9426   3.450  20.523   7.511
  475POPC   C1B 9427   3.143  20.435   8.743
  475POPC   C2B 9428   2.973  20.445   8.325
  475POPC   C3B 9429   3.121  20.518   7.924
  475POPC   C4B 9430   3.238  20.938   7.718
  476POPC   NC3 9431   7.549  15.298   9.450
  476POPC   PO4 9432   7.097  14.742   9.503
  476POPC   GL1 9433   7.203  15.047   9.161
  476POPC   GL2 9434   7.159  15.419   9.145
  476POPC   C1A 9435   7.467  15.058   8.777
  476POPC   D2A 9436   7.237  14.938   8.413
  476POPC   C3A 9437   7.405  14.982   8.019
  476POPC   C4A 9438   7.326  14.924   7.601
  476POPC   C1B 9439   7.296  15.518   8.740
  476POPC   C2B 9440   7.453  15.415   8.344
  476POPC   C3B 9441   7.197  15.483   7.973
  476POPC   C4B 9442   7.123  15.447   7.487
  477POPC   NC3 9443  35.067  12.215   9.299
  477POPC   PO4 9444  34.483  12.052   9.503
  477POPC   GL1 9445  34.530  12.233   9.111
  477POPC   GL2 9446  34.743  12.553   9.114
  477POPC   C1A 9447  34.520  11.938   8.756
  477POPC   D2A 9448  34.568  11.613   8.444
  477POPC   C3A 9449  34.571  11.780   8.027
  477POPC   C4A 9450  34.689  11.912   7.602
  477POPC   C1B 9451  34.746  12.407   8.677
  477POPC   C2B 9452  34.552  12.218   8.332
  477POPC   C3B 9453  34.745  12.260   7.961
  477POPC   C4B 9454  34.714  12.516   7.622
  478POPC   NC3 9455   6.067   2.390   9.435
  478POPC   PO4 9456   5.714   1.753   9.438
  478POPC   GL1 9457   5.766   2.002   9.094
  478POPC   GL2 9458   6.119   2.022   8.993
  478POPC   C1A 9459   5.763   2.068   8.634
  478POPC   D2A 9460   6.047   1.972   8.295
  478POPC   C3A 9461   5.860   1.988   7.883
  478POPC   C4A 9462   5.846   2.084   7.442
  478POPC   C1B 9463   6.148   2.426   8.793
  478POPC   C2B 9464   5.934   2.515   8.436
  478POPC   C3B 9465   6.062   2.421   8.049
  478POPC   C4B 9466   5.970   2.546   7.646
  479POPC   NC3 9467  18.814  34.647   9.681
  479POPC   PO4 9468  19.420  34.572   9.730
  479POPC   GL1 9469  19.105  34.638   9.287
  479POPC   GL2 9470  18.774  34.463   9.218
  479POPC   C1A 9471  19.047  34.648   8.827
  479POPC   D2A 9472  18.832  34.696   8.449
  479POPC   C3A 9473  19.056  34.738   8.042
  479POPC   C4A 9474  19.267  34.612   7.645
  479POPC   C1B 9475  18.777  34.215   8.858
  479POPC   C2B 9476  18.604  34.186   8.513
  479POPC   C3B 9477  18.718  34.317   8.143
  479POPC   C4B 9478  18.862  34.274   7.780
  480POPC   NC3 9479   2.060  35.810   9.533
  480POPC   PO4 9480   1.789  36.490   9.456
  480POPC   GL1 9481   2.031  36.322   9.104
  480POPC   GL2 9482   2.243  36.031   9.110
  480POPC   C1A 9483   1.880  36.123   8.736
  480POPC   D2A 9484   1.693  36.288   8.387
  480POPC   C3A 9485   1.718  36.046   8.047
  480POPC   C4A 9486   1.939  36.129   7.729
  480POPC   C1B 9487   2.391  36.163   8.716
  480POPC   C2B 9488   2.211  36.118   8.307
  480POPC   C3B 9489   2.408  36.094   7.925
  480POPC   C4B 9490   2.345  36.388   7.600
  481POPC   NC3 9491   9.189  37.953   9.485
  481POPC   PO4 9492   8.764  37.571   9.804
  481POPC   GL1 9493   8.978  37.447   9.355
  481POPC   GL2 9494   8.917  37.730   9.131
  481POPC   C1A 9495   9.170  37.386   8.864
  481POPC   D2A 9496   9.318  37.696   8.513
  481POPC   C3A 9497   9.232  37.551   8.090
  481POPC   C4A 9498   9.104  37.769   7.720
  481POPC   C1B 9499   8.720  37.650   8.773
  481POPC   C2B 9500   8.817  37.705   8.372
  481POPC   C3B 9501   8.726  37.482   8.034
  481POPC   C4B 9502   8.613  37.596   7.683
  482POPC   NC3 9503   6.564   1.006   9.735
  482POPC   PO4 9504   6.740   0.330   9.510
  482POPC   GL1 9505   6.462   0.343   9.176
  482POPC   GL2 9506   6.712   0.515   8.997
  482POPC   C1A 9507   6.268   0.384   8.770
  482POPC   D2A 9508   6.223   0.618   8.359
  482POPC   C3A 9509   6.402   0.540   7.913
  482POPC   C4A 9510   6.248   0.634   7.461
  482POPC   C1B 9511   6.736   0.446   8.580
  482POPC   C2B 9512   6.844   0.300   8.213
  482POPC   C3B 9513   6.869   0.354   7.803
  482POPC   C4B 9514   6.734   0.567   7.498
  483POPC   NC3 9515  27.731  44.319   9.643
  483POPC   PO4 9516  27.152  44.045   9.493
  483POPC   GL1 9517  27.412  44.097   9.123
  483POPC   GL2 9518  27.754  43.997   9.177
  483POPC   C1A 9519  27.603  44.006   8.697
  483POPC   D2A 9520  27.578  43.698   8.344
  483POPC   C3A 9521  27.586  43.841   7.898
  483POPC   C4A 9522  27.340  43.636   7.580
  483POPC   C1B 9523  27.884  43.609   8.862
  483POPC   C2B 9524  28.028  43.464   8.397
  483POPC   C3B 9525  28.066  43.684   7.952
  483POPC   C4B 9526  27.979  44.143   7.765
  484POPC   NC3 9527  13.203  40.557   9.488
  484POPC   PO4 9528  12.658  40.938   9.520
  484POPC   GL1 9529  12.593  40.853   9.128
  484POPC   GL2 9530  12.975  40.842   9.093
  484POPC   C1A 9531  12.630  40.780   8.714
  484POPC   D2A 9532  12.971  40.786   8.476
  484POPC   C3A 9533  12.817  40.836   8.107
  484POPC   C4A 9534  12.713  40.657   7.779
  484POPC   C1B 9535  13.294  41.022   8.820
  484POPC   C2B 9536  13.247  41.239   8.438
  484POPC   C3B 9537  13.072  41.272   8.051
  484POPC   C4B 9538  13.160  41.007   7.743
  485POPC   NC3 9539  21.679  15.795   9.574
  485POPC   PO4 9540  21.426  16.373   9.431
  485POPC   GL1 9541  21.213  16.198   9.044
  485POPC   GL2 9542  21.002  15.894   9.058
  485POPC   C1A 9543  21.297  15.985   8.641
  485POPC   D2A 9544  21.304  15.950   8.182
  485POPC   C3A 9545  21.536  16.151   7.847
  485POPC   C4A 9546  21.825  15.999   7.513
  485POPC   C1B 9547  21.026  15.564   8.767
  485POPC   C2B 9548  21.208  15.479   8.385
  485POPC   C3B 9549  21.080  15.551   7.955
  485POPC   C4B 9550  21.051  15.597   7.517
  486POPC   NC3 9551  18.904  15.810   9.449
  486POPC   PO4 9552  18.640  16.387   9.451
  486POPC   GL1 9553  18.894  16.217   9.113
  486POPC   GL2 9554  19.247  16.084   9.128
  486POPC   C1A 9555  18.964  16.126   8.692
  486POPC   D2A 9556  18.836  16.257   8.302
  486POPC   C3A 9557  18.837  15.990   7.976
  486POPC   C4A 9558  19.204  16.144   7.822
  486POPC   C1B 9559  19.366  15.801   8.760
  486POPC   C2B 9560  19.230  15.848   8.329
  486POPC   C3B 9561  19.403  15.706   7.945
  486POPC   C4B 9562  19.320  15.749   7.504
  487POPC   NC3 9563  42.567  30.856  10.009
  487POPC   PO4 9564  42.123  30.701   9.506
  487POPC   GL1 9565  42.334  30.607   9.128
  487POPC   GL2 9566  42.609  30.810   9.078
  487POPC   C1A 9567  42.480  30.413   8.753
  487POPC   D2A 9568  42.293  30.362   8.360
  487POPC   C3A 9569  42.432  30.653   8.054
  487POPC   C4A 9570  42.409  30.576   7.622
  487POPC   C1B 9571  42.425  30.919   8.672
  487POPC   C2B 9572  42.238  31.237   8.412
  487POPC   C3B 9573  42.191  31.125   7.990
  487POPC   C4B 9574  42.498  31.077   7.702
  488POPC   NC3 9575  28.605  19.140   9.392
  488POPC   PO4 9576  28.113  19.487   9.361
  488POPC   GL1 9577  28.281  19.278   9.041
  488POPC   GL2 9578  28.158  18.928   9.090
  488POPC   C1A 9579  28.488  19.031   8.703
  488POPC   D2A 9580  28.269  18.885   8.356
  488POPC   C3A 9581  28.516  18.796   8.027
  488POPC   C4A 9582  28.809  18.944   7.712
  488POPC   C1B 9583  27.944  19.153   8.710
  488POPC   C2B 9584  27.907  19.259   8.275
  488POPC   C3B 9585  28.072  19.145   7.848
  488POPC   C4B 9586  28.302  18.820   7.589
  489POPC   NC3 9587  25.308  24.081   9.894
  489POPC   PO4 9588  25.334  23.687   9.340
  489POPC   GL1 9589  25.195  23.709   9.001
  489POPC   GL2 9590  24.933  23.463   9.042
  489POPC   C1A 9591  25.362  23.766   8.597
  489POPC   D2A 9592  25.108  23.905   8.263
  489POPC   C3A 9593  25.435  24.014   8.006
  489POPC   C4A 9594  25.597  23.652   7.860
  489POPC   C1B 9595  24.903  23.546   8.629
  489POPC   C2B 9596  25.105  23.382   8.308
  489POPC   C3B 9597  25.111  23.477   7.894
  489POPC   C4B 9598  24.806  23.318   7.611
  490POPC   NC3 9599  25.772  22.512   9.578
  490POPC   PO4 9600  26.124  23.150   9.527
  490POPC   GL1 9601  25.972  22.869   9.221
  490POPC   GL2 9602  25.780  23.127   9.112
  490POPC   C1A 9603  25.941  22.754   8.772
  490POPC   D2A 9604  25.936  22.904   8.334
  490POPC   C3A 9605  25.836  22.611   8.008
  490POPC   C4A 9606  25.925  22.796   7.644
  490POPC   C1B 9607  25.888  23.267   8.703
  490POPC   C2B 9608  25.828  23.424   8.288
  490POPC   C3B 9609  25.970  23.277   7.862
  490POPC   C4B 9610  26.026  23.223   7.386
  491POPC   NC3 9611   0.071  14.538   9.514
  491POPC   PO4 9612   0.709  14.326   9.579
  491POPC   GL1 9613   0.472  14.379   9.205
  491POPC   GL2 9614   0.209  14.130   9.235
  491POPC   C1A 9615   0.248  14.555   8.832
  491POPC   D2A 9616   0.422  14.422   8.442
  491POPC   C3A 9617   0.319  14.549   8.019
  491POPC   C4A 9618   0.695  14.627   7.755
  491POPC   C1B 9619   0.281  14.039   8.830
  491POPC   C2B 9620   0.443  13.903   8.500
  491POPC   C3B 9621   0.336  14.018   8.104
  491POPC   C4B 9622   0.344  14.163   7.673
  492POPC   NC3 9623  32.424  19.199   9.570
  492POPC   PO4 9624  32.140  18.584   9.619
  492POPC   GL1 9625  32.022  18.736   9.241
  492POPC   GL2 9626  32.261  18.992   9.134
  492POPC   C1A 9627  32.011  18.646   8.816
  492POPC   D2A 9628  31.916  18.833   8.443
  492POPC   C3A 9629  31.963  18.705   7.999
  492POPC   C4A 9630  32.115  18.982   7.665
  492POPC   C1B 9631  32.179  19.207   8.742
  492POPC   C2B 9632  32.299  19.146   8.323
  492POPC   C3B 9633  32.435  19.258   7.951
  492POPC   C4B 9634  32.578  19.612   7.749
  493POPC   NC3 9635  33.372  21.442   9.676
  493POPC   PO4 9636  33.971  21.648   9.811
  493POPC   GL1 9637  33.944  21.367   9.370
  493POPC   GL2 9638  33.661  21.162   9.212
  493POPC   C1A 9639  34.075  21.311   8.902
  493POPC   D2A 9640  34.097  21.249   8.442
  493POPC   C3A 9641  33.878  21.505   8.140
  493POPC   C4A 9642  33.728  21.676   7.751
  493POPC   C1B 9643  33.634  21.037   8.742
  493POPC   C2B 9644  33.434  21.252   8.367
  493POPC   C3B 9645  33.456  21.282   7.892
  493POPC   C4B 9646  33.534  21.172   7.431
  494POPC   NC3 9647  18.957  43.615   9.522
  494POPC   PO4 9648  19.267  44.184   9.328
  494POPC   GL1 9649  19.105  43.858   9.101
  494POPC   GL2 9650  19.368  43.599   9.169
  494POPC   C1A 9651  18.882  43.985   8.749
  494POPC   D2A 9652  18.994  44.226   8.410
  494POPC   C3A 9653  18.969  44.009   8.037
  494POPC   C4A 9654  19.280  43.974   7.742
  494POPC   C1B 9655  19.458  43.740   8.755
  494POPC   C2B 9656  19.267  43.747   8.372
  494POPC   C3B 9657  19.345  43.524   8.011
  494POPC   C4B 9658  19.436  43.497   7.604
  495POPC   NC3 9659  10.634  37.899   9.542
  495POPC   PO4 9660  10.417  37.265   9.340
  495POPC   GL1 9661  10.530  37.607   9.088
  495POPC   GL2 9662  10.305  37.881   9.153
  495POPC   C1A 9663  10.672  37.537   8.665
  495POPC   D2A 9664  10.458  37.296   8.326
  495POPC   C3A 9665  10.596  37.510   7.973
  495POPC   C4A 9666  10.748  37.919   7.913
  495POPC   C1B 9667  10.195  37.812   8.716
  495POPC   C2B 9668  10.079  38.088   8.360
  495POPC   C3B 9669  10.216  37.901   7.997
  495POPC   C4B 9670  10.002  37.808   7.625
  496POPC   NC3 9671  30.415  32.487   9.540
  496POPC   PO4 9672  30.771  31.909   9.683
  496POPC   GL1 9673  30.862  32.026   9.232
  496POPC   GL2 9674  30.755  32.361   9.155
  496POPC   C1A 9675  30.657  32.009   8.778
  496POPC   D2A 9676  30.693  32.226   8.361
  496POPC   C3A 9677  30.630  31.963   7.987
  496POPC   C4A 9678  30.347  32.007   7.665
  496POPC   C1B 9679  31.059  32.404   8.789
  496POPC   C2B 9680  31.123  32.555   8.351
  496POPC   C3B 9681  30.991  32.418   7.962
  496POPC   C4B 9682  30.658  32.410   7.656
  497POPC   NC3 9683  20.401  25.560   9.275
  497POPC   PO4 9684  20.836  26.063   9.523
  497POPC   GL1 9685  20.804  26.181   9.111
  497POPC   GL2 9686  20.483  26.329   9.173
  497POPC   C1A 9687  20.895  26.055   8.666
  497POPC   D2A 9688  20.758  25.867   8.269
  497POPC   C3A 9689  20.837  25.975   7.833
  497POPC   C4A 9690  20.485  25.754   7.677
  497POPC   C1B 9691  20.391  26.170   8.791
  497POPC   C2B 9692  20.474  26.290   8.388
  497POPC   C3B 9693  20.358  26.160   7.983
  497POPC   C4B 9694  20.125  26.476   7.825
  498POPC   NC3 9695  17.178  28.373   9.459
  498POPC   PO4 9696  17.812  28.622   9.496
  498POPC   GL1 9697  17.735  28.298   9.185
  498POPC   GL2 9698  17.410  28.178   9.045
  498POPC   C1A 9699  17.881  28.290   8.769
  498POPC   D2A 9700  17.793  28.553   8.422
  498POPC   C3A 9701  17.832  28.421   8.015
  498POPC   C4A 9702  17.472  28.588   7.786
  498POPC   C1B 9703  17.369  28.509   8.724
  498POPC   C2B 9704  17.288  28.555   8.276
  498POPC   C3B 9705  17.388  28.167   8.050
  498POPC   C4B 9706  17.277  27.932   7.682
  499POPC   NC3 9707   4.061  28.318   9.652
  499POPC   PO4 9708   4.687  28.552   9.606
  499POPC   GL1 9709   4.653  28.302   9.143
  499POPC   GL2 9710   4.327  28.218   9.211
  499POPC   C1A 9711   4.491  28.345   8.682
  499POPC   D2A 9712   4.030  28.453   8.521
  499POPC   C3A 9713   3.982  28.417   8.054
  499POPC   C4A 9714   4.392  28.296   7.879
  499POPC   C1B 9715   4.171  27.997   8.867
  499POPC   C2B 9716   4.251  27.949   8.435
  499POPC   C3B 9717   4.043  27.906   8.059
  499POPC   C4B 9718   4.226  27.890   7.646
  500POPC   NC3 9719   9.128  13.196   9.672
  500POPC   PO4 9720   8.703  13.804   9.628
  500POPC   GL1 9721   8.729  13.584   9.207
  500POPC   GL2 9722   8.741  13.239   9.244
  500POPC   C1A 9723   8.794  13.630   8.720
  500POPC   D2A 9724   9.011  13.812   8.285
  500POPC   C3A 9725   8.761  13.744   7.915
  500POPC   C4A 9726   8.703  13.357   7.712
  500POPC   C1B 9727   9.145  13.384   9.005
  500POPC   C2B 9728   9.254  13.463   8.567
  500POPC   C3B 9729   9.069  13.315   8.173
  500POPC   C4B 9730   9.183  13.510   7.784
  501POPC   NC3 9731  30.041  19.046   9.417
  501POPC   PO4 9732  30.045  19.623   9.681
  501POPC   GL1 9733  30.132  19.462   9.132
  501POPC   GL2 9734  30.268  19.157   8.979
  501POPC   C1A 9735  29.974  19.481   8.703
  501POPC   D2A 9736  29.902  19.165   8.397
  501POPC   C3A 9737  30.035  19.236   7.980
  501POPC   C4A 9738  29.709  19.449   7.741
  501POPC   C1B 9739  30.034  18.823   8.766
  501POPC   C2B 9740  29.926  18.654   8.355
  501POPC   C3B 9741  29.724  18.846   7.987
  501POPC   C4B 9742  29.740  18.556   7.638
  502POPC   NC3 9743  14.429  22.757   9.494
  502POPC   PO4 9744  14.195  23.401   9.485
  502POPC   GL1 9745  14.420  23.116   9.165
  502POPC   GL2 9746  14.776  23.109   9.158
  502POPC   C1A 9747  14.424  22.817   8.808
  502POPC   D2A 9748  14.348  22.566   8.420
  502POPC   C3A 9749  14.519  22.730   8.038
  502POPC   C4A 9750  14.204  22.951   7.820
  502POPC   C1B 9751  14.820  23.179   8.744
  502POPC   C2B 9752  14.535  23.141   8.412
  502POPC   C3B 9753  14.548  23.272   8.015
  502POPC   C4B 9754  14.663  23.117   7.610
  503POPC   NC3 9755  38.876  26.179   9.703
  503POPC   PO4 9756  39.400  25.789   9.630
  503POPC   GL1 9757  39.147  26.041   9.304
  503POPC   GL2 9758  38.854  25.872   9.254
  503POPC   C1A 9759  39.121  26.013   8.843
  503POPC   D2A 9760  39.242  26.172   8.456
  503POPC   C3A 9761  39.422  26.023   8.084
  503POPC   C4A 9762  39.165  26.228   7.735
  503POPC   C1B 9763  38.841  25.587   8.851
  503POPC   C2B 9764  38.998  25.665   8.391
  503POPC   C3B 9765  38.956  25.853   7.993
  503POPC   C4B 9766  38.985  25.784   7.527
  504POPC   NC3 9767   7.623  30.350   9.520
  504POPC   PO4 9768   7.408  29.663   9.437
  504POPC   GL1 9769   7.440  29.724   9.024
  504POPC   GL2 9770   7.472  30.072   9.081
  504POPC   C1A 9771   7.207  29.881   8.661
  504POPC   D2A 9772   7.258  30.048   8.270
  504POPC   C3A 9773   7.091  29.856   7.886
  504POPC   C4A 9774   7.104  29.928   7.441
  504POPC   C1B 9775   7.730  30.053   8.707
  504POPC   C2B 9776   7.720  29.802   8.340
  504POPC   C3B 9777   7.602  29.891   7.928
  504POPC   C4B 9778   7.540  29.677   7.584
  505POPC   NC3 9779  22.832   1.051   9.755
  505POPC   PO4 9780  23.201   0.562   9.386
  505POPC   GL1 9781  23.013   0.343   9.091
  505POPC   GL2 9782  22.657   0.293   9.193
  505POPC   C1A 9783  23.040   0.551   8.689
  505POPC   D2A 9784  23.228   0.590   8.265
  505POPC   C3A 9785  22.877   0.557   7.989
  505POPC   C4A 9786  22.869   0.266   7.668
  505POPC   C1B 9787  22.686   0.154   8.764
  505POPC   C2B 9788  22.892   0.193   8.361
  505POPC   C3B 9789  22.604   0.114   8.062
  505POPC   C4B 9790  22.430  44.938   7.700
  506POPC   NC3 9791   7.112  32.021   9.478
  506POPC   PO4 9792   7.758  32.337   9.474
  506POPC   GL1 9793   7.530  32.265   9.140
  506POPC   GL2 9794   7.510  31.939   9.139
  506POPC   C1A 9795   7.514  32.491   8.755
  506POPC   D2A 9796   7.645  32.671   8.369
  506POPC   C3A 9797   7.490  32.454   8.022
  506POPC   C4A 9798   7.437  32.378   7.543
  506POPC   C1B 9799   7.259  32.025   8.746
  506POPC   C2B 9800   7.196  31.930   8.277
  506POPC   C3B 9801   7.419  31.979   7.875
  506POPC   C4B 9802   7.359  31.867   7.435
  507POPC   NC3 9803  28.671   4.438   9.331
  507POPC   PO4 9804  28.096   4.272   9.571
  507POPC   GL1 9805  28.185   4.319   9.184
  507POPC   GL2 9806  28.231   4.673   9.128
  507POPC   C1A 9807  27.954   4.342   8.853
  507POPC   D2A 9808  27.843   4.367   8.469
  507POPC   C3A 9809  28.191   4.348   8.201
  507POPC   C4A 9810  28.220   4.313   7.778
  507POPC   C1B 9811  28.417   4.528   8.702
  507POPC   C2B 9812  28.605   4.674   8.287
  507POPC   C3B 9813  28.721   4.517   7.867
  507POPC   C4B 9814  28.710   4.548   7.402
  508POPC   NC3 9815  22.645  29.333   9.504
  508POPC   PO4 9816  21.986  29.067   9.492
  508POPC   GL1 9817  22.095  29.067   9.074
  508POPC   GL2 9818  22.442  29.083   9.107
  508POPC   C1A 9819  21.928  29.026   8.673
  508POPC   D2A 9820  22.015  29.183   8.276
  508POPC   C3A 9821  21.865  29.061   7.874
  508POPC   C4A 9822  22.041  29.388   7.615
  508POPC   C1B 9823  22.523  29.282   8.750
  508POPC   C2B 9824  22.556  29.092   8.338
  508POPC   C3B 9825  22.381  29.007   7.932
  508POPC   C4B 9826  22.281  28.971   7.504
  509POPC   NC3 9827  22.805  14.348   9.520
  509POPC   PO4 9828  23.377  14.153   9.433
  509POPC   GL1 9829  22.996  14.045   9.131
  509POPC   GL2 9830  22.608  14.148   9.103
  509POPC   C1A 9831  22.952  14.097   8.661
  509POPC   D2A 9832  22.891  14.412   8.334
  509POPC   C3A 9833  23.185  14.403   7.985
  509POPC   C4A 9834  23.100  14.730   7.698
  509POPC   C1B 9835  22.459  14.046   8.710
  509POPC   C2B 9836  22.560  14.027   8.257
  509POPC   C3B 9837  22.715  14.249   7.872
  509POPC   C4B 9838  22.617  14.128   7.443
  510POPC   NC3 9839  36.137  13.685   9.643
  510POPC   PO4 9840  36.446  14.112   9.227
  510POPC   GL1 9841  36.051  13.850   9.162
  510POPC   GL2 9842  35.997  13.480   9.069
  510POPC   C1A 9843  35.848  13.849   8.762
  510POPC   D2A 9844  35.963  13.541   8.449
  510POPC   C3A 9845  35.917  13.676   8.040
  510POPC   C4A 9846  36.265  13.724   7.749
  510POPC   C1B 9847  35.613  13.372   8.781
  510POPC   C2B 9848  35.559  13.237   8.343
  510POPC   C3B 9849  35.849  13.145   8.023
  510POPC   C4B 9850  35.943  13.326   7.628
  511POPC   NC3 9851  28.179  42.242   9.679
  511POPC   PO4 9852  28.692  42.493   9.326
  511POPC   GL1 9853  28.532  42.192   9.112
  511POPC   GL2 9854  28.185  42.181   9.163
  511POPC   C1A 9855  28.497  42.256   8.691
  511POPC   D2A 9856  28.274  42.169   8.312
  511POPC   C3A 9857  28.366  42.467   8.045
  511POPC   C4A 9858  28.467  42.639   7.679
  511POPC   C1B 9859  27.998  42.202   8.734
  511POPC   C2B 9860  27.877  42.514   8.399
  511POPC   C3B 9861  27.937  42.725   7.985
  511POPC   C4B 9862  27.983  42.640   7.525
  512POPC   NC3 9863   4.357  13.842   9.468
  512POPC   PO4 9864   4.121  13.164   9.561
  512POPC   GL1 9865   4.403  13.380   9.242
  512POPC   GL2 9866   4.125  13.568   9.108
  512POPC   C1A 9867   4.553  13.607   8.832
  512POPC   D2A 9868   4.337  13.705   8.435
  512POPC   C3A 9869   4.453  13.545   8.036
  512POPC   C4A 9870   4.621  13.655   7.628
  512POPC   C1B 9871   4.139  13.958   8.831
  512POPC   C2B 9872   3.892  13.975   8.440
  512POPC   C3B 9873   3.950  13.761   8.082
  512POPC   C4B 9874   4.153  13.820   7.715
  513POPC   NC3 9875  33.897  42.723   9.923
  513POPC   PO4 9876  33.705  43.222   9.528
  513POPC   GL1 9877  33.775  43.258   9.119
  513POPC   GL2 9878  33.530  43.009   9.076
  513POPC   C1A 9879  33.862  43.150   8.714
  513POPC   D2A 9880  33.698  43.027   8.358
  513POPC   C3A 9881  34.010  43.198   8.136
  513POPC   C4A 9882  34.165  43.191   7.736
  513POPC   C1B 9883  33.413  42.757   8.739
  513POPC   C2B 9884  33.246  42.720   8.326
  513POPC   C3B 9885  33.474  42.806   7.964
  513POPC   C4B 9886  33.641  43.177   7.812
  514POPC   NC3 9887  28.990  39.649   9.447
  514POPC   PO4 9888  29.422  40.137   9.625
  514POPC   GL1 9889  29.262  40.006   9.217
  514POPC   GL2 9890  28.952  40.120   9.087
  514POPC   C1A 9891  29.220  39.837   8.784
  514POPC   D2A 9892  29.316  40.010   8.399
  514POPC   C3A 9893  29.024  39.929   8.084
  514POPC   C4A 9894  28.934  39.689   7.727
  514POPC   C1B 9895  29.274  40.333   8.810
  514POPC   C2B 9896  29.221  40.518   8.421
  514POPC   C3B 9897  29.228  40.396   7.986
  514POPC   C4B 9898  29.177  40.149   7.624
  515POPC   NC3 9899  13.143  27.754   9.903
  515POPC   PO4 9900  13.729  27.667   9.669
  515POPC   GL1 9901  13.803  27.636   9.202
  515POPC   GL2 9902  14.050  27.398   9.162
  515POPC   C1A 9903  13.670  27.720   8.761
  515POPC   D2A 9904  13.382  27.462   8.474
  515POPC   C3A 9905  13.344  27.529   8.028
  515POPC   C4A 9906  13.155  27.879   7.835
  515POPC   C1B 9907  14.094  27.373   8.714
  515POPC   C2B 9908  13.889  27.535   8.345
  515POPC   C3B 9909  13.822  27.295   7.984
  515POPC   C4B 9910  13.485  27.054   7.785
  516POPC   NC3 9911  20.123  37.435   9.519
  516POPC   PO4 9912  20.058  38.086   9.530
  516POPC   GL1 9913  19.898  37.765   9.200
  516POPC   GL2 9914  19.575  37.607   9.278
  516POPC   C1A 9915  20.098  37.667   8.783
  516POPC   D2A 9916  20.054  37.772   8.373
  516POPC   C3A 9917  20.038  37.496   8.029
  516POPC   C4A 9918  19.870  37.700   7.698
  516POPC   C1B 9919  19.622  37.530   8.833
  516POPC   C2B 9920  19.478  37.454   8.436
  516POPC   C3B 9921  19.466  37.528   8.036
  516POPC   C4B 9922  19.587  37.276   7.708
  517POPC   NC3 9923  22.758  22.098   9.876
  517POPC   PO4 9924  22.993  22.631   9.538
  517POPC   GL1 9925  23.066  22.310   9.264
  517POPC   GL2 9926  22.750  22.118   9.204
  517POPC   C1A 9927  23.134  22.238   8.853
  517POPC   D2A 9928  22.865  22.150   8.564
  517POPC   C3A 9929  23.093  21.942   8.256
  517POPC   C4A 9930  23.007  22.059   7.845
  517POPC   C1B 9931  22.558  21.823   8.872
  517POPC   C2B 9932  22.641  21.721   8.418
  517POPC   C3B 9933  22.649  21.706   7.961
  517POPC   C4B 9934  22.701  21.782   7.503
  518POPC   NC3 9935  31.797  21.585   9.524
  518POPC   PO4 9936  32.395  21.044   9.531
  518POPC   GL1 9937  32.187  21.356   9.266
  518POPC   GL2 9938  32.392  21.236   9.060
  518POPC   C1A 9939  32.113  21.591   8.846
  518POPC   D2A 9940  32.310  21.653   8.431
  518POPC   C3A 9941  32.091  21.640   8.067
  518POPC   C4A 9942  32.327  21.593   7.715
  518POPC   C1B 9943  32.557  21.285   8.710
  518POPC   C2B 9944  32.482  21.088   8.322
  518POPC   C3B 9945  32.611  21.203   7.934
  518POPC   C4B 9946  32.498  20.992   7.596
  519POPC   NC3 9947  34.225   1.600   9.719
  519POPC   PO4 9948  34.702   1.136   9.613
  519POPC   GL1 9949  34.800   1.068   9.150
  519POPC   GL2 9950  34.930   0.763   9.086
  519POPC   C1A 9951  34.790   1.283   8.732
  519POPC   D2A 9952  34.430   1.522   8.522
  519POPC   C3A 9953  34.270   1.355   8.121
  519POPC   C4A 9954  34.497   1.415   7.729
  519POPC   C1B 9955  34.582   0.781   8.804
  519POPC   C2B 9956  34.491   0.997   8.429
  519POPC   C3B 9957  34.740   1.100   8.048
  519POPC   C4B 9958  34.763   0.933   7.619
  520POPC   NC3 9959  24.654   9.583   9.538
  520POPC   PO4 9960  23.956   9.670   9.523
  520POPC   GL1 9961  24.239   9.532   9.199
  520POPC   GL2 9962  24.535   9.731   9.074
  520POPC   C1A 9963  24.173   9.549   8.783
  520POPC   D2A 9964  24.249   9.846   8.508
  520POPC   C3A 9965  24.190   9.682   8.151
  520POPC   C4A 9966  24.346   9.752   7.777
  520POPC   C1B 9967  24.677  10.018   8.763
  520POPC   C2B 9968  24.834   9.933   8.356
  520POPC   C3B 9969  24.795   9.886   7.934
  520POPC   C4B 9970  24.767  10.142   7.573
  521POPC   NC3 9971  31.533   8.453   9.442
  521POPC   PO4 9972  31.787   7.859   9.672
  521POPC   GL1 9973  31.538   7.911   9.235
  521POPC   GL2 9974  31.237   8.037   9.280
  521POPC   C1A 9975  31.616   7.845   8.807
  521POPC   D2A 9976  31.855   7.771   8.449
  521POPC   C3A 9977  31.710   7.961   8.072
  521POPC   C4A 9978  31.783   8.346   7.813
  521POPC   C1B 9979  31.282   8.222   8.866
  521POPC   C2B 9980  31.367   8.103   8.441
  521POPC   C3B 9981  31.298   8.274   8.026
  521POPC   C4B 9982  31.292   8.227   7.574
  522POPC   NC3 9983  15.557  13.101   9.732
  522POPC   PO4 9984  15.079  12.740   9.416
  522POPC   GL1 9985  15.366  12.733   9.120
  522POPC   GL2 9986  15.505  13.062   9.194
  522POPC   C1A 9987  15.368  12.654   8.687
  522POPC   D2A 9988  15.221  12.919   8.363
  522POPC   C3A 9989  15.138  12.655   8.023
  522POPC   C4A 9990  15.448  12.504   7.800
  522POPC   C1B 9991  15.159  13.113   8.843
  522POPC   C2B 9992  14.766  13.080   8.563
  522POPC   C3B 9993  14.791  13.029   8.112
  522POPC   C4B 9994  15.181  13.147   7.881
  523POPC   NC3 9995  36.998  39.650   9.563
  523POPC   PO4 9996  37.181  40.317   9.393
  523POPC   GL1 9997  36.892  40.172   9.115
  523POPC   GL2 9998  36.845  39.810   9.086
  523POPC   C1A 9999  36.828  40.338   8.717
  523POPC   D2A10000  36.984  40.098   8.405
  523POPC   C3A10001  36.783  40.189   8.050
  523POPC   C4A10002  36.772  40.001   7.685
  523POPC   C1B10003  37.158  39.685   8.804
  523POPC   C2B10004  37.326  39.702   8.411
  523POPC   C3B10005  37.046  39.686   8.063
  523POPC   C4B10006  37.164  39.692   7.658
  524POPC   NC310007  14.568  38.244   9.553
  524POPC   PO410008  13.898  38.516   9.538
  524POPC   GL110009  14.282  38.605   9.251
  524POPC   GL210010  14.396  38.303   9.086
  524POPC   C1A10011  14.652  38.725   8.957
  524POPC   D2A10012  14.694  38.778   8.499
  524POPC   C3A10013  14.366  38.641   8.192
  524POPC   C4A10014  14.408  38.805   7.733
  524POPC   C1B10015  14.314  38.406   8.673
  524POPC   C2B10016  14.114  38.149   8.368
  524POPC   C3B10017  14.451  38.068   8.089
  524POPC   C4B10018  14.608  38.366   7.829
  525POPC   NC310019  16.005  21.062   9.699
  525POPC   PO410020  15.937  20.415   9.558
  525POPC   GL110021  15.920  20.515   9.152
  525POPC   GL210022  15.866  20.836   9.273
  525POPC   C1A10023  16.072  20.492   8.723
  525POPC   D2A10024  15.932  20.493   8.267
  525POPC   C3A10025  16.220  20.540   7.930
  525POPC   C4A10026  16.100  20.347   7.553
  525POPC   C1B10027  15.811  20.989   8.905
  525POPC   C2B10028  15.955  20.944   8.507
  525POPC   C3B10029  15.773  21.006   8.117
  525POPC   C4B10030  15.920  20.941   7.717
  526POPC   NC310031  34.706  42.201   9.694
  526POPC   PO410032  34.532  41.532   9.582
  526POPC   GL110033  34.460  41.515   9.143
  526POPC   GL210034  34.517  41.847   9.136
  526POPC   C1A10035  34.763  41.551   8.765
  526POPC   D2A10036  34.846  41.704   8.361
  526POPC   C3A10037  34.751  41.443   8.032
  526POPC   C4A10038  34.942  41.312   7.698
  526POPC   C1B10039  34.507  41.978   8.702
  526POPC   C2B10040  34.379  41.874   8.286
  526POPC   C3B10041  34.563  41.890   7.897
  526POPC   C4B10042  34.313  41.951   7.577
  527POPC   NC310043  14.444   5.737   9.282
  527POPC   PO410044  14.057   6.204   9.474
  527POPC   GL110045  14.020   5.955   9.050
  527POPC   GL210046  14.171   5.630   8.870
  527POPC   C1A10047  14.037   6.060   8.614
  527POPC   D2A10048  14.341   5.851   8.364
  527POPC   C3A10049  14.250   5.800   7.937
  527POPC   C4A10050  14.574   5.907   7.611
  527POPC   C1B10051  14.628   5.558   8.675
  527POPC   C2B10052  14.783   5.493   8.225
  527POPC   C3B10053  14.583   5.413   7.814
  527POPC   C4B10054  14.178   5.430   7.589
  528POPC   NC310055  11.668  21.758   9.498
  528POPC   PO410056  11.384  21.172   9.462
  528POPC   GL110057  11.189  21.325   9.141
  528POPC   GL210058  11.314  21.644   9.160
  528POPC   C1A10059  11.098  21.482   8.739
  528POPC   D2A10060  11.325  21.620   8.406
  528POPC   C3A10061  11.183  21.433   8.098
  528POPC   C4A10062  11.100  21.482   7.705
  528POPC   C1B10063  11.624  21.518   8.833
  528POPC   C2B10064  11.847  21.611   8.448
  528POPC   C3B10065  11.717  21.541   8.019
  528POPC   C4B10066  11.558  21.636   7.619
  529POPC   NC310067  18.055  34.017   9.517
  529POPC   PO410068  18.473  33.543   9.647
  529POPC   GL110069  18.437  33.762   9.266
  529POPC   GL210070  18.096  33.731   9.098
  529POPC   C1A10071  18.511  33.768   8.806
  529POPC   D2A10072  18.482  33.629   8.347
  529POPC   C3A10073  18.531  33.875   7.926
  529POPC   C4A10074  18.672  33.904   7.460
  529POPC   C1B10075  18.056  33.960   8.697
  529POPC   C2B10076  18.177  34.074   8.286
  529POPC   C3B10077  18.020  33.954   7.922
  529POPC   C4B10078  17.672  34.097   7.679
  530POPC   NC310079  33.019  29.093   9.448
  530POPC   PO410080  32.427  29.343   9.457
  530POPC   GL110081  32.558  29.137   9.075
  530POPC   GL210082  32.921  29.041   8.976
  530POPC   C1A10083  32.649  29.265   8.640
  530POPC   D2A10084  32.988  29.045   8.442
  530POPC   C3A10085  32.856  29.087   8.070
  530POPC   C4A10086  32.908  28.927   7.679
  530POPC   C1B10087  33.276  29.290   8.789
  530POPC   C2B10088  33.516  29.172   8.430
  530POPC   C3B10089  33.384  29.075   8.023
  530POPC   C4B10090  33.152  29.358   7.739
  531POPC   NC310091   5.055  36.641   9.745
  531POPC   PO410092   5.355  37.232   9.724
  531POPC   GL110093   5.100  37.149   9.305
  531POPC   GL210094   5.269  36.847   9.278
  531POPC   C1A10095   4.890  36.877   8.896
  531POPC   D2A10096   4.806  36.603   8.493
  531POPC   C3A10097   4.810  36.825   8.086
  531POPC   C4A10098   4.959  36.758   7.633
  531POPC   C1B10099   5.378  37.002   8.861
  531POPC   C2B10100   5.222  36.890   8.447
  531POPC   C3B10101   5.326  36.780   7.999
  531POPC   C4B10102   5.499  36.814   7.544
  532POPC   NC310103   7.033  21.830   9.757
  532POPC   PO410104   6.461  22.209   9.750
  532POPC   GL110105   6.414  22.256   9.284
  532POPC   GL210106   6.762  22.216   9.129
  532POPC   C1A10107   6.362  22.054   8.865
  532POPC   D2A10108   6.362  22.212   8.460
  532POPC   C3A10109   6.707  22.091   8.193
  532POPC   C4A10110   6.689  22.215   7.774
  532POPC   C1B10111   7.005  22.551   8.895
  532POPC   C2B10112   6.989  22.495   8.465
  532POPC   C3B10113   6.902  22.655   8.087
  532POPC   C4B10114   7.032  22.596   7.697
  533POPC   NC310115  36.448   4.604   9.672
  533POPC   PO410116  35.978   4.962   9.530
  533POPC   GL110117  36.171   5.096   9.157
  533POPC   GL210118  36.499   4.922   9.232
  533POPC   C1A10119  36.001   5.196   8.735
  533POPC   D2A10120  36.127   5.260   8.318
  533POPC   C3A10121  35.988   5.067   7.939
  533POPC   C4A10122  35.888   5.133   7.526
  533POPC   C1B10123  36.410   4.800   8.802
  533POPC   C2B10124  36.489   4.846   8.370
  533POPC   C3B10125  36.504   5.093   8.008
  533POPC   C4B10126  36.398   5.148   7.576
  534POPC   NC310127   6.420   9.529   9.586
  534POPC   PO410128   6.985   9.852   9.588
  534POPC   GL110129   6.872   9.714   9.206
  534POPC   GL210130   6.543   9.891   9.180
  534POPC   C1A10131   6.817   9.771   8.753
  534POPC   D2A10132   6.985   9.965   8.377
  534POPC   C3A10133   6.804   9.859   7.960
  534POPC   C4A10134   6.901   9.930   7.505
  534POPC   C1B10135   6.328   9.954   8.758
  534POPC   C2B10136   6.385   9.798   8.305
  534POPC   C3B10137   6.268   9.818   7.864
  534POPC   C4B10138   6.480   9.639   7.520
  535POPC   NC310139   9.166  18.375   9.261
  535POPC   PO410140   9.094  18.930   9.657
  535POPC   GL110141   9.032  18.919   9.195
  535POPC   GL210142   9.374  18.987   9.079
  535POPC   C1A10143   8.882  19.191   8.816
  535POPC   D2A10144   8.647  19.353   8.411
  535POPC   C3A10145   8.833  19.225   8.028
  535POPC   C4A10146   8.771  18.918   7.698
  535POPC   C1B10147   9.269  18.876   8.680
  535POPC   C2B10148   9.302  19.019   8.262
  535POPC   C3B10149   9.212  18.787   7.915
  535POPC   C4B10150   9.254  18.871   7.480
  536POPC   NC310151  43.405  27.908   9.521
  536POPC   PO410152  42.864  27.450   9.445
  536POPC   GL110153  43.043  27.776   9.188
  536POPC   GL210154  42.803  27.936   9.050
  536POPC   C1A10155  43.205  27.786   8.759
  536POPC   D2A10156  43.267  27.423   8.513
  536POPC   C3A10157  43.200  27.508   8.089
  536POPC   C4A10158  43.431  27.235   7.780
  536POPC   C1B10159  42.762  27.503   8.820
  536POPC   C2B10160  42.789  27.295   8.429
  536POPC   C3B10161  42.661  27.421   8.031
  536POPC   C4B10162  42.895  27.431   7.684
  537POPC   NC310163  12.223  40.425   9.634
  537POPC   PO410164  12.401  39.826   9.636
  537POPC   GL110165  12.098  40.010   9.286
  537POPC   GL210166  12.250  40.320   9.130
  537POPC   C1A10167  11.964  40.041   8.796
  537POPC   D2A10168  11.872  39.833   8.336
  537POPC   C3A10169  11.753  40.004   7.875
  537POPC   C4A10170  11.918  40.170   7.413
  537POPC   C1B10171  12.449  39.942   8.941
  537POPC   C2B10172  12.395  39.863   8.500
  537POPC   C3B10173  12.439  39.701   8.067
  537POPC   C4B10174  12.198  39.829   7.700
  538POPC   NC310175  19.451  42.746   9.536
  538POPC   PO410176  18.785  42.388   9.551
  538POPC   GL110177  19.081  42.471   9.212
  538POPC   GL210178  19.327  42.236   9.202
  538POPC   C1A10179  19.039  42.289   8.778
  538POPC   D2A10180  18.892  42.059   8.367
  538POPC   C3A10181  18.953  42.235   7.950
  538POPC   C4A10182  18.869  42.636   7.768
  538POPC   C1B10183  19.540  42.229   8.812
  538POPC   C2B10184  19.369  42.264   8.394
  538POPC   C3B10185  19.462  42.114   8.012
  538POPC   C4B10186  19.381  42.293   7.646
  539POPC   NC310187  37.874   9.305   9.633
  539POPC   PO410188  37.895   8.673   9.765
  539POPC   GL110189  37.688   8.879   9.392
  539POPC   GL210190  37.647   8.633   9.151
  539POPC   C1A10191  37.749   9.075   8.954
  539POPC   D2A10192  37.727   8.863   8.539
  539POPC   C3A10193  37.797   9.034   8.128
  539POPC   C4A10194  37.643   9.057   7.704
  539POPC   C1B10195  37.414   8.433   8.824
  539POPC   C2B10196  37.303   8.569   8.409
  539POPC   C3B10197  37.415   8.703   8.003
  539POPC   C4B10198  37.313   8.556   7.614
  540POPC   NC310199  28.484  37.229   9.487
  540POPC   PO410200  28.406  37.872   9.332
  540POPC   GL110201  28.327  37.660   8.995
  540POPC   GL210202  28.351  37.278   8.976
  540POPC   C1A10203  28.199  37.745   8.600
  540POPC   D2A10204  28.149  37.457   8.280
  540POPC   C3A10205  28.229  37.756   7.978
  540POPC   C4A10206  28.601  37.859   7.802
  540POPC   C1B10207  28.642  37.480   8.663
  540POPC   C2B10208  28.633  37.764   8.322
  540POPC   C3B10209  28.623  37.418   8.078
  540POPC   C4B10210  28.444  37.354   7.699
  541POPC   NC310211   3.997  16.322   9.559
  541POPC   PO410212   4.353  16.938   9.542
  541POPC   GL110213   4.175  16.710   9.195
  541POPC   GL210214   4.508  16.705   9.057
  541POPC   C1A10215   4.093  16.841   8.797
  541POPC   D2A10216   4.458  16.923   8.579
  541POPC   C3A10217   4.363  16.820   8.183
  541POPC   C4A10218   4.218  16.828   7.791
  541POPC   C1B10219   4.345  16.405   8.727
  541POPC   C2B10220   4.465  16.325   8.324
  541POPC   C3B10221   4.399  16.361   7.896
  541POPC   C4B10222   4.305  16.344   7.444
  542POPC   NC310223  33.890   7.119   9.482
  542POPC   PO410224  33.461   7.588   9.404
  542POPC   GL110225  33.702   7.338   9.054
  542POPC   GL210226  34.015   7.092   8.992
  542POPC   C1A10227  33.867   7.457   8.648
  542POPC   D2A10228  33.670   7.638   8.279
  542POPC   C3A10229  33.942   7.568   7.895
  542POPC   C4A10230  34.140   7.555   7.461
  542POPC   C1B10231  33.680   6.974   8.660
  542POPC   C2B10232  33.581   6.969   8.226
  542POPC   C3B10233  33.509   7.307   7.929
  542POPC   C4B10234  33.668   7.355   7.496
  543POPC   NC310235   9.733  10.856   9.397
  543POPC   PO410236   9.584  11.508   9.464
  543POPC   GL110237   9.683  11.275   9.116
  543POPC   GL210238  10.027  11.234   9.025
  543POPC   C1A10239   9.572  11.120   8.721
  543POPC   D2A10240   9.731  11.306   8.349
  543POPC   C3A10241   9.491  11.516   8.026
  543POPC   C4A10242   9.806  11.431   7.699
  543POPC   C1B10243  10.019  10.868   8.712
  543POPC   C2B10244   9.778  10.791   8.320
  543POPC   C3B10245   9.822  10.974   7.915
  543POPC   C4B10246  10.136  11.061   7.595
  544POPC   NC310247   4.101  19.858   9.488
  544POPC   PO410248   4.613  19.466   9.562
  544POPC   GL110249   4.524  19.707   9.215
  544POPC   GL210250   4.445  20.093   9.219
  544POPC   C1A10251   4.548  19.619   8.799
  544POPC   D2A10252   4.248  19.646   8.450
  544POPC   C3A10253   4.468  19.472   8.134
  544POPC   C4A10254   4.502  19.514   7.719
  544POPC   C1B10255   4.261  20.047   8.797
  544POPC   C2B10256   4.411  20.152   8.355
  544POPC   C3B10257   4.427  20.014   7.917
  544POPC   C4B10258   4.428  20.255   7.530
  545POPC   NC310259  11.161  43.996   9.404
  545POPC   PO410260  11.603  43.525   9.639
  545POPC   GL110261  11.702  43.593   9.208
  545POPC   GL210262  11.594  43.938   9.125
  545POPC   C1A10263  11.468  43.538   8.824
  545POPC   D2A10264  11.172  43.637   8.530
  545POPC   C3A10265  11.258  43.568   8.107
  545POPC   C4A10266  11.161  43.654   7.675
  545POPC   C1B10267  11.376  44.059   8.736
  545POPC   C2B10268  11.222  44.122   8.303
  545POPC   C3B10269  11.440  44.001   7.943
  545POPC   C4B10270  11.749  43.964   7.648
  546POPC   NC310271  32.097  13.930   9.320
  546POPC   PO410272  32.490  13.452   9.652
  546POPC   GL110273  32.355  13.486   9.211
  546POPC   GL210274  32.489  13.778   9.044
  546POPC   C1A10275  32.113  13.440   8.813
  546POPC   D2A10276  32.088  13.605   8.386
  546POPC   C3A10277  32.157  13.417   7.944
  546POPC   C4A10278  32.268  13.362   7.469
  546POPC   C1B10279  32.219  14.002   8.715
  546POPC   C2B10280  32.007  14.139   8.355
  546POPC   C3B10281  32.162  13.928   8.008
  546POPC   C4B10282  32.185  13.831   7.604
  547POPC   NC310283  36.723  23.840   9.507
  547POPC   PO410284  37.195  23.313   9.491
  547POPC   GL110285  37.054  23.600   9.202
  547POPC   GL210286  36.735  23.466   9.154
  547POPC   C1A10287  37.076  23.746   8.792
  547POPC   D2A10288  37.012  23.480   8.438
  547POPC   C3A10289  37.118  23.709   8.082
  547POPC   C4A10290  37.055  23.800   7.681
  547POPC   C1B10291  36.603  23.630   8.793
  547POPC   C2B10292  36.608  23.797   8.413
  547POPC   C3B10293  36.677  23.950   8.026
  547POPC   C4B10294  36.534  23.781   7.678
  548POPC   NC310295  14.426  31.104   9.551
  548POPC   PO410296  14.296  31.822   9.654
  548POPC   GL110297  14.375  31.658   9.252
  548POPC   GL210298  14.122  31.844   9.148
  548POPC   C1A10299  14.500  31.375   8.888
  548POPC   D2A10300  14.426  31.164   8.480
  548POPC   C3A10301  14.517  31.366   8.076
  548POPC   C4A10302  14.454  31.371   7.619
  548POPC   C1B10303  14.442  31.867   8.793
  548POPC   C2B10304  14.348  31.771   8.370
  548POPC   C3B10305  14.493  31.876   7.953
  548POPC   C4B10306  14.367  31.865   7.529
  549POPC   NC310307  23.256  24.421   9.555
  549POPC   PO410308  22.649  24.302   9.559
  549POPC   GL110309  22.809  24.635   9.262
  549POPC   GL210310  23.140  24.630   9.107
  549POPC   C1A10311  22.771  24.795   8.819
  549POPC   D2A10312  22.755  24.611   8.420
  549POPC   C3A10313  23.017  24.712   8.103
  549POPC   C4A10314  22.782  24.719   7.737
  549POPC   C1B10315  23.103  24.386   8.767
  549POPC   C2B10316  23.260  24.329   8.407
  549POPC   C3B10317  23.208  24.259   7.989
  549POPC   C4B10318  23.239  24.532   7.633
  550POPC   NC310319  37.189  15.642   9.614
  550POPC   PO410320  36.872  16.176   9.544
  550POPC   GL110321  36.735  15.838   9.254
  550POPC   GL210322  37.029  15.773   9.127
  550POPC   C1A10323  36.678  15.884   8.777
  550POPC   D2A10324  36.893  16.000   8.382
  550POPC   C3A10325  36.937  15.819   7.944
  550POPC   C4A10326  36.854  15.810   7.466
  550POPC   C1B10327  37.119  16.178   8.883
  550POPC   C2B10328  37.269  16.366   8.475
  550POPC   C3B10329  37.196  16.279   8.031
  550POPC   C4B10330  37.063  16.256   7.614
  551POPC   NC310331  41.752   1.768   9.422
  551POPC   PO410332  42.049   2.323   9.322
  551POPC   GL110333  41.852   2.109   9.013
  551POPC   GL210334  41.506   2.036   9.086
  551POPC   C1A10335  41.693   2.147   8.601
  551POPC   D2A10336  41.747   2.408   8.252
  551POPC   C3A10337  41.400   2.288   8.008
  551POPC   C4A10338  41.554   2.093   7.648
  551POPC   C1B10339  41.231   1.920   8.812
  551POPC   C2B10340  41.160   2.084   8.439
  551POPC   C3B10341  41.113   1.865   8.087
  551POPC   C4B10342  41.245   1.698   7.761
  552POPC   NC310343   5.499  18.886   9.394
  552POPC   PO410344   6.170  19.141   9.485
  552POPC   GL110345   6.156  18.893   9.099
  552POPC   GL210346   5.834  18.757   9.015
  552POPC   C1A10347   6.136  18.978   8.666
  552POPC   D2A10348   5.941  19.341   8.490
  552POPC   C3A10349   6.099  19.227   8.111
  552POPC   C4A10350   6.117  18.758   8.121
  552POPC   C1B10351   5.634  18.992   8.730
  552POPC   C2B10352   5.455  19.158   8.402
  552POPC   C3B10353   5.463  19.002   8.041
  552POPC   C4B10354   5.819  18.937   7.755
  553POPC   NC310355  26.266  36.695   9.318
  553POPC   PO410356  26.805  37.072   9.577
  553POPC   GL110357  26.704  36.944   9.150
  553POPC   GL210358  26.765  36.598   9.066
  553POPC   C1A10359  26.864  36.977   8.724
  553POPC   D2A10360  26.879  37.202   8.342
  553POPC   C3A10361  27.021  37.019   7.946
  553POPC   C4A10362  27.181  37.136   7.541
  553POPC   C1B10363  27.163  36.570   8.773
  553POPC   C2B10364  27.056  36.679   8.338
  553POPC   C3B10365  26.913  36.525   7.948
  553POPC   C4B10366  27.237  36.499   7.631
  554POPC   NC310367  41.150  37.544   9.420
  554POPC   PO410368  40.578  37.915   9.493
  554POPC   GL110369  40.787  37.781   9.140
  554POPC   GL210370  41.065  37.983   9.135
  554POPC   C1A10371  40.791  37.516   8.785
  554POPC   D2A10372  40.611  37.433   8.384
  554POPC   C3A10373  40.900  37.348   8.052
  554POPC   C4A10374  40.804  37.412   7.622
  554POPC   C1B10375  41.203  37.825   8.762
  554POPC   C2B10376  41.088  37.704   8.368
  554POPC   C3B10377  41.022  37.843   7.947
  554POPC   C4B10378  40.639  37.872   7.748
  555POPC   NC310379  41.059  20.088   9.526
  555POPC   PO410380  40.620  19.541   9.471
  555POPC   GL110381  40.877  19.690   9.176
  555POPC   GL210382  40.834  20.029   9.067
  555POPC   C1A10383  40.762  19.606   8.766
  555POPC   D2A10384  40.673  19.851   8.418
  555POPC   C3A10385  40.638  19.655   8.013
  555POPC   C4A10386  40.934  19.735   7.748
  555POPC   C1B10387  40.560  20.236   8.772
  555POPC   C2B10388  40.633  20.383   8.361
  555POPC   C3B10389  40.681  20.157   8.009
  555POPC   C4B10390  40.513  19.998   7.661
  556POPC   NC310391   3.239  41.284   9.281
  556POPC   PO410392   2.578  41.151   9.233
  556POPC   GL110393   2.721  40.816   8.956
  556POPC   GL210394   3.055  40.720   9.041
  556POPC   C1A10395   2.707  40.675   8.538
  556POPC   D2A10396   2.389  40.475   8.283
  556POPC   C3A10397   2.519  40.549   7.863
  556POPC   C4A10398   2.482  40.950   7.779
  556POPC   C1B10399   3.052  41.075   8.705
  556POPC   C2B10400   2.802  41.176   8.349
  556POPC   C3B10401   2.901  41.167   7.953
  556POPC   C4B10402   2.974  40.848   7.672
  557POPC   NC310403  22.660  35.048   9.352
  557POPC   PO410404  23.041  35.422   9.651
  557POPC   GL110405  22.956  35.430   9.198
  557POPC   GL210406  22.579  35.525   9.189
  557POPC   C1A10407  23.018  35.083   8.833
  557POPC   D2A10408  23.008  35.219   8.423
  557POPC   C3A10409  23.144  35.078   8.043
  557POPC   C4A10410  23.087  35.295   7.673
  557POPC   C1B10411  22.542  35.269   8.751
  557POPC   C2B10412  22.517  35.343   8.303
  557POPC   C3B10413  22.637  35.214   7.896
  557POPC   C4B10414  22.626  35.346   7.450
  558POPC   NC310415   9.486  44.875   9.342
  558POPC   PO410416   9.908  44.300   9.498
  558POPC   GL110417   9.892  44.486   9.146
  558POPC   GL210418  10.056  44.788   9.122
  558POPC   C1A10419   9.855  44.368   8.753
  558POPC   D2A10420   9.526  44.434   8.466
  558POPC   C3A10421   9.639  44.573   8.062
  558POPC   C4A10422   9.980  44.502   7.805
  558POPC   C1B10423   9.811  44.883   8.739
  558POPC   C2B10424   9.499  44.952   8.386
  558POPC   C3B10425   9.427   0.025   7.938
  558POPC   C4B10426   9.617  44.790   7.565
  559POPC   NC310427  24.479  41.056   9.518
  559POPC   PO410428  24.546  40.378   9.539
  559POPC   GL110429  24.711  40.625   9.203
  559POPC   GL210430  24.496  40.849   9.064
  559POPC   C1A10431  24.807  40.629   8.749
  559POPC   D2A10432  24.684  40.808   8.423
  559POPC   C3A10433  24.617  40.648   8.033
  559POPC   C4A10434  24.860  40.652   7.674
  559POPC   C1B10435  24.278  40.643   8.751
  559POPC   C2B10436  24.144  40.705   8.326
  559POPC   C3B10437  24.136  40.531   7.896
  559POPC   C4B10438  24.358  40.594   7.512
  560POPC   NC310439  33.528  17.267   9.508
  560POPC   PO410440  33.797  17.927   9.527
  560POPC   GL110441  33.798  17.625   9.215
  560POPC   GL210442  33.513  17.637   9.129
  560POPC   C1A10443  33.942  17.708   8.795
  560POPC   D2A10444  33.895  17.818   8.364
  560POPC   C3A10445  34.035  17.512   8.082
  560POPC   C4A10446  33.965  17.389   7.668
  560POPC   C1B10447  33.592  17.322   8.822
  560POPC   C2B10448  33.556  17.420   8.388
  560POPC   C3B10449  33.618  17.189   8.011
  560POPC   C4B10450  33.466  17.266   7.608
  561POPC   NC310451  27.945   9.703   9.701
  561POPC   PO410452  28.558   9.710   9.559
  561POPC   GL110453  28.238   9.717   9.260
  561POPC   GL210454  28.141  10.065   9.276
  561POPC   C1A10455  28.260   9.700   8.813
  561POPC   D2A10456  28.063   9.873   8.441
  561POPC   C3A10457  28.127   9.587   8.101
  561POPC   C4A10458  28.480   9.374   7.904
  561POPC   C1B10459  28.317  10.206   8.857
  561POPC   C2B10460  28.530  10.107   8.471
  561POPC   C3B10461  28.383  10.024   8.044
  561POPC   C4B10462  28.614  10.085   7.673
  562POPC   NC310463  35.527  20.131   9.356
  562POPC   PO410464  35.063  19.703   9.425
  562POPC   GL110465  35.187  19.884   9.072
  562POPC   GL210466  35.459  19.688   9.045
  562POPC   C1A10467  35.092  19.757   8.679
  562POPC   D2A10468  35.040  19.540   8.320
  562POPC   C3A10469  35.124  19.731   7.922
  562POPC   C4A10470  35.422  19.679   7.571
  562POPC   C1B10471  35.591  19.897   8.716
  562POPC   C2B10472  35.520  19.751   8.356
  562POPC   C3B10473  35.556  19.990   8.019
  562POPC   C4B10474  35.813  19.943   7.727
  563POPC   NC310475  23.146   7.366   9.439
  563POPC   PO410476  22.606   6.927   9.545
  563POPC   GL110477  22.731   7.185   9.131
  563POPC   GL210478  23.100   7.182   8.996
  563POPC   C1A10479  22.768   7.488   8.748
  563POPC   D2A10480  22.578   7.742   8.392
  563POPC   C3A10481  22.609   7.455   8.027
  563POPC   C4A10482  22.818   7.493   7.591
  563POPC   C1B10483  23.286   7.340   8.674
  563POPC   C2B10484  23.089   7.242   8.297
  563POPC   C3B10485  23.109   7.523   7.984
  563POPC   C4B10486  23.296   7.719   7.670
  564POPC   NC310487   3.880   7.167   9.522
  564POPC   PO410488   4.433   7.674   9.508
  564POPC   GL110489   4.339   7.696   9.113
  564POPC   GL210490   3.999   7.535   9.161
  564POPC   C1A10491   4.501   7.456   8.762
  564POPC   D2A10492   4.704   7.344   8.377
  564POPC   C3A10493   4.534   7.453   7.966
  564POPC   C4A10494   4.162   7.272   7.806
  564POPC   C1B10495   4.025   7.657   8.718
  564POPC   C2B10496   4.168   7.465   8.342
  564POPC   C3B10497   4.122   7.751   8.027
  564POPC   C4B10498   3.901   7.917   7.728
  565POPC   NC310499   6.039  25.778   9.489
  565POPC   PO410500   5.874  26.448   9.496
  565POPC   GL110501   5.746  26.234   9.118
  565POPC   GL210502   5.609  25.877   9.178
  565POPC   C1A10503   5.973  26.312   8.718
  565POPC   D2A10504   6.201  26.224   8.301
  565POPC   C3A10505   6.078  26.448   7.929
  565POPC   C4A10506   5.746  26.211   7.815
  565POPC   C1B10507   5.830  25.832   8.781
  565POPC   C2B10508   5.695  26.031   8.367
  565POPC   C3B10509   5.526  25.809   7.990
  565POPC   C4B10510   5.748  25.709   7.602
  566POPC   NC310511   7.257  34.489   9.422
  566POPC   PO410512   6.591  34.365   9.531
  566POPC   GL110513   6.641  34.564   9.160
  566POPC   GL210514   6.335  34.716   9.088
  566POPC   C1A10515   6.846  34.471   8.762
  566POPC   D2A10516   6.679  34.275   8.415
  566POPC   C3A10517   6.575  34.475   8.014
  566POPC   C4A10518   6.852  34.769   7.782
  566POPC   C1B10519   6.557  34.888   8.758
  566POPC   C2B10520   6.667  34.877   8.354
  566POPC   C3B10521   6.455  34.999   7.997
  566POPC   C4B10522   6.403  34.865   7.559
  567POPC   NC310523  31.264  13.761   9.437
  567POPC   PO410524  31.928  13.523   9.507
  567POPC   GL110525  31.683  13.696   9.139
  567POPC   GL210526  31.350  13.590   8.961
  567POPC   C1A10527  31.726  13.867   8.740
  567POPC   D2A10528  31.583  13.595   8.464
  567POPC   C3A10529  31.664  13.578   8.050
  567POPC   C4A10530  31.367  13.326   7.841
  567POPC   C1B10531  31.208  13.896   8.612
  567POPC   C2B10532  31.343  13.970   8.170
  567POPC   C3B10533  31.249  13.849   7.729
  567POPC   C4B10534  31.031  13.964   7.281
  568POPC   NC310535  14.374   9.321   9.564
  568POPC   PO410536  14.749   8.763   9.450
  568POPC   GL110537  14.427   8.919   9.143
  568POPC   GL210538  14.161   9.169   9.133
  568POPC   C1A10539  14.230   8.793   8.758
  568POPC   D2A10540  14.224   8.980   8.356
  568POPC   C3A10541  14.238   8.757   7.973
  568POPC   C4A10542  14.561   8.799   7.655
  568POPC   C1B10543  14.216   9.348   8.726
  568POPC   C2B10544  14.201   9.485   8.300
  568POPC   C3B10545  14.216   9.374   7.831
  568POPC   C4B10546  14.098   9.452   7.343
  569POPC   NC310547  21.897  40.967   9.391
  569POPC   PO410548  22.244  41.517   9.608
  569POPC   GL110549  22.114  41.504   9.192
  569POPC   GL210550  21.898  41.794   9.212
  569POPC   C1A10551  22.249  41.520   8.758
  569POPC   D2A10552  22.308  41.795   8.395
  569POPC   C3A10553  22.228  41.644   7.967
  569POPC   C4A10554  22.207  41.521   7.531
  569POPC   C1B10555  21.773  41.703   8.790
  569POPC   C2B10556  21.869  41.512   8.386
  569POPC   C3B10557  21.728  41.605   7.986
  569POPC   C4B10558  21.819  41.829   7.605
  570POPC   NC310559  11.824  15.724   9.469
  570POPC   PO410560  12.299  16.053   9.814
  570POPC   GL110561  12.150  16.101   9.324
  570POPC   GL210562  12.268  15.847   9.218
  570POPC   C1A10563  11.934  16.010   8.875
  570POPC   D2A10564  12.168  16.026   8.463
  570POPC   C3A10565  12.062  16.170   8.073
  570POPC   C4A10566  11.929  15.881   7.796
  570POPC   C1B10567  12.461  15.990   8.865
  570POPC   C2B10568  12.603  15.742   8.484
  570POPC   C3B10569  12.360  15.725   8.081
  570POPC   C4B10570  12.402  16.030   7.704
  571POPC   NC310571  15.891   8.659   9.335
  571POPC   PO410572  16.293   9.239   9.522
  571POPC   GL110573  16.020   9.181   9.187
  571POPC   GL210574  16.171   8.982   8.978
  571POPC   C1A10575  15.701   9.047   8.819
  571POPC   D2A10576  15.811   9.133   8.438
  571POPC   C3A10577  15.890   8.880   8.105
  571POPC   C4A10578  15.821   9.039   7.711
  571POPC   C1B10579  16.113   8.755   8.591
  571POPC   C2B10580  16.194   8.474   8.255
  571POPC   C3B10581  16.340   8.705   7.916
  571POPC   C4B10582  16.321   9.071   7.641
  572POPC   NC310583  10.570  16.727   9.804
  572POPC   PO410584  10.939  16.816   9.298
  572POPC   GL110585  10.511  16.841   9.221
  572POPC   GL210586  10.322  16.549   9.348
  572POPC   C1A10587  10.410  16.973   8.809
  572POPC   D2A10588  10.672  16.743   8.483
  572POPC   C3A10589  10.647  16.903   8.066
  572POPC   C4A10590  10.923  16.855   7.705
  572POPC   C1B10591  10.221  16.512   8.893
  572POPC   C2B10592  10.174  16.681   8.449
  572POPC   C3B10593  10.257  16.552   8.020
  572POPC   C4B10594  10.447  16.372   7.631
  573POPC   NC310595  12.344  29.219   9.442
  573POPC   PO410596  12.887  28.986   9.601
  573POPC   GL110597  12.816  29.134   9.185
  573POPC   GL210598  12.569  28.865   9.129
  573POPC   C1A10599  13.073  29.262   8.801
  573POPC   D2A10600  12.845  29.343   8.426
  573POPC   C3A10601  12.896  29.267   8.000
  573POPC   C4A10602  12.542  29.377   7.724
  573POPC   C1B10603  12.715  28.896   8.714
  573POPC   C2B10604  12.528  28.917   8.318
  573POPC   C3B10605  12.743  28.742   7.999
  573POPC   C4B10606  12.800  28.932   7.621
  574POPC   NC310607   4.788  19.175   9.248
  574POPC   PO410608   4.243  18.908   9.561
  574POPC   GL110609   4.268  19.224   9.252
  574POPC   GL210610   4.390  18.931   9.057
  574POPC   C1A10611   4.114  19.330   8.851
  574POPC   D2A10612   3.998  19.017   8.536
  574POPC   C3A10613   4.017  19.180   8.125
  574POPC   C4A10614   4.125  19.146   7.696
  574POPC   C1B10615   4.512  19.054   8.647
  574POPC   C2B10616   4.450  18.851   8.268
  574POPC   C3B10617   4.591  19.039   7.898
  574POPC   C4B10618   4.589  18.915   7.500
  575POPC   NC310619  31.743  31.105   9.622
  575POPC   PO410620  31.476  31.680   9.584
  575POPC   GL110621  31.434  31.623   9.216
  575POPC   GL210622  31.379  31.273   9.224
  575POPC   C1A10623  31.602  31.548   8.806
  575POPC   D2A10624  31.438  31.520   8.410
  575POPC   C3A10625  31.620  31.670   8.007
  575POPC   C4A10626  31.574  31.643   7.534
  575POPC   C1B10627  31.137  31.163   8.846
  575POPC   C2B10628  31.078  31.172   8.382
  575POPC   C3B10629  31.461  31.150   8.064
  575POPC   C4B10630  31.348  31.164   7.607
  576POPC   NC310631  12.723  18.455   9.281
  576POPC   PO410632  12.687  19.053   9.472
  576POPC   GL110633  12.926  19.052   9.106
  576POPC   GL210634  13.087  18.744   9.108
  576POPC   C1A10635  12.928  19.228   8.705
  576POPC   D2A10636  12.648  19.128   8.365
  576POPC   C3A10637  12.776  19.319   7.961
  576POPC   C4A10638  12.789  19.252   7.486
  576POPC   C1B10639  12.871  18.713   8.677
  576POPC   C2B10640  12.932  18.732   8.220
  576POPC   C3B10641  12.819  18.834   7.801
  576POPC   C4B10642  12.962  18.750   7.370
  577POPC   NC310643   6.255  15.169   9.443
  577POPC   PO410644   5.678  15.451   9.529
  577POPC   GL110645   5.898  15.331   9.159
  577POPC   GL210646   5.645  15.167   9.069
  577POPC   C1A10647   6.084  15.185   8.762
  577POPC   D2A10648   5.808  15.183   8.409
  577POPC   C3A10649   5.856  14.998   7.992
  577POPC   C4A10650   6.045  15.050   7.649
  577POPC   C1B10651   5.454  14.913   8.781
  577POPC   C2B10652   5.285  15.091   8.463
  577POPC   C3B10653   5.406  15.246   8.103
  577POPC   C4B10654   5.400  15.000   7.749
  578POPC   NC310655  16.016   7.127   9.247
  578POPC   PO410656  16.179   6.585   9.586
  578POPC   GL110657  15.983   6.462   9.224
  578POPC   GL210658  15.697   6.719   9.169
  578POPC   C1A10659  16.194   6.288   8.876
  578POPC   D2A10660  16.304   6.502   8.496
  578POPC   C3A10661  16.228   6.391   8.084
  578POPC   C4A10662  15.968   6.334   7.732
  578POPC   C1B10663  15.883   6.665   8.745
  578POPC   C2B10664  15.792   6.591   8.292
  578POPC   C3B10665  15.687   6.741   7.852
  578POPC   C4B10666  15.559   6.833   7.421
  579POPC   NC310667  13.874  19.345   9.425
  579POPC   PO410668  13.826  18.664   9.631
  579POPC   GL110669  13.698  18.873   9.244
  579POPC   GL210670  13.436  19.120   9.203
  579POPC   C1A10671  13.878  18.961   8.842
  579POPC   D2A10672  13.774  18.706   8.496
  579POPC   C3A10673  13.700  18.896   8.096
  579POPC   C4A10674  13.688  18.852   7.641
  579POPC   C1B10675  13.375  18.957   8.768
  579POPC   C2B10676  13.328  19.138   8.369
  579POPC   C3B10677  13.239  19.098   7.939
  579POPC   C4B10678  13.300  19.158   7.492
  580POPC   NC310679  33.110  40.431   9.255
  580POPC   PO410680  32.847  39.921   9.687
  580POPC   GL110681  32.839  39.913   9.254
  580POPC   GL210682  33.171  39.921   9.185
  580POPC   C1A10683  32.811  39.733   8.815
  580POPC   D2A10684  33.080  39.696   8.408
  580POPC   C3A10685  33.039  39.829   7.981
  580POPC   C4A10686  32.919  39.815   7.526
  580POPC   C1B10687  33.213  40.067   8.749
  580POPC   C2B10688  33.060  40.223   8.340
  580POPC   C3B10689  33.281  40.278   7.950
  580POPC   C4B10690  33.362  40.016   7.612
  581POPC   NC310691  19.549   3.892   9.536
  581POPC   PO410692  19.832   3.206   9.574
  581POPC   GL110693  19.889   3.350   9.165
  581POPC   GL210694  19.621   3.562   9.154
  581POPC   C1A10695  19.823   3.363   8.718
  581POPC   D2A10696  19.857   3.615   8.323
  581POPC   C3A10697  19.834   3.317   7.989
  581POPC   C4A10698  20.011   3.275   7.614
  581POPC   C1B10699  19.514   3.793   8.790
  581POPC   C2B10700  19.487   4.059   8.426
  581POPC   C3B10701  19.415   4.071   7.986
  581POPC   C4B10702  19.658   3.754   7.806
  582POPC   NC310703  37.719  38.553   9.932
  582POPC   PO410704  37.579  38.589   9.314
  582POPC   GL110705  37.735  38.626   8.969
  582POPC   GL210706  37.477  38.867   8.881
  582POPC   C1A10707  37.679  38.493   8.567
  582POPC   D2A10708  37.509  38.698   8.231
  582POPC   C3A10709  37.797  38.592   7.924
  582POPC   C4A10710  37.783  38.603   7.502
  582POPC   C1B10711  37.185  38.529   8.746
  582POPC   C2B10712  37.228  38.274   8.394
  582POPC   C3B10713  37.561  38.183   8.124
  582POPC   C4B10714  37.610  38.135   7.712
  583POPC   NC310715  17.511  31.214   9.319
  583POPC   PO410716  17.309  30.606   9.517
  583POPC   GL110717  17.291  30.774   9.138
  583POPC   GL210718  17.648  30.758   9.095
  583POPC   C1A10719  17.325  30.619   8.722
  583POPC   D2A10720  17.535  30.682   8.357
  583POPC   C3A10721  17.243  30.745   8.045
  583POPC   C4A10722  17.154  31.077   7.824
  583POPC   C1B10723  17.915  30.378   8.960
  583POPC   C2B10724  17.932  30.322   8.528
  583POPC   C3B10725  17.870  30.413   8.112
  583POPC   C4B10726  17.651  30.592   7.726
  584POPC   NC310727  28.392  23.137   9.378
  584POPC   PO410728  27.939  22.771   9.710
  584POPC   GL110729  28.183  22.683   9.272
  584POPC   GL210730  28.546  22.636   9.241
  584POPC   C1A10731  28.219  22.752   8.806
  584POPC   D2A10732  28.069  22.789   8.364
  584POPC   C3A10733  28.323  22.994   8.053
  584POPC   C4A10734  28.240  23.174   7.666
  584POPC   C1B10735  28.707  22.561   8.807
  584POPC   C2B10736  28.618  22.722   8.385
  584POPC   C3B10737  28.762  22.643   7.970
  584POPC   C4B10738  28.521  22.762   7.611
  585POPC   NC310739  39.571   6.596   9.390
  585POPC   PO410740  38.828   6.757   9.552
  585POPC   GL110741  39.108   6.781   9.228
  585POPC   GL210742  39.101   6.441   9.167
  585POPC   C1A10743  39.213   6.902   8.818
  585POPC   D2A10744  38.959   6.892   8.458
  585POPC   C3A10745  39.152   6.869   8.043
  585POPC   C4A10746  39.510   6.990   7.772
  585POPC   C1B10747  39.329   6.385   8.786
  585POPC   C2B10748  39.373   6.576   8.410
  585POPC   C3B10749  39.308   6.373   8.038
  585POPC   C4B10750  39.464   6.494   7.676
  586POPC   NC310751  12.987   2.278   9.445
  586POPC   PO410752  12.955   1.610   9.540
  586POPC   GL110753  12.861   1.856   9.198
  586POPC   GL210754  13.206   1.909   9.115
  586POPC   C1A10755  12.734   2.063   8.818
  586POPC   D2A10756  12.846   2.109   8.387
  586POPC   C3A10757  12.630   2.014   8.000
  586POPC   C4A10758  12.489   1.622   7.764
  586POPC   C1B10759  13.242   2.141   8.741
  586POPC   C2B10760  13.260   2.391   8.340
  586POPC   C3B10761  13.179   2.117   7.985
  586POPC   C4B10762  12.952   2.094   7.612
  587POPC   NC310763   6.435  35.525   9.607
  587POPC   PO410764   6.372  36.135   9.441
  587POPC   GL110765   6.714  36.096   9.145
  587POPC   GL210766   6.929  35.781   9.268
  587POPC   C1A10767   6.744  36.300   8.725
  587POPC   D2A10768   6.549  36.432   8.303
  587POPC   C3A10769   6.531  36.125   7.932
  587POPC   C4A10770   6.140  35.885   7.764
  587POPC   C1B10771   6.840  35.703   8.838
  587POPC   C2B10772   6.849  35.873   8.421
  587POPC   C3B10773   6.887  35.739   8.012
  587POPC   C4B10774   7.014  36.000   7.713
  588POPC   NC310775  21.180  12.499   9.582
  588POPC   PO410776  21.233  11.849   9.495
  588POPC   GL110777  21.296  11.992   9.102
  588POPC   GL210778  21.348  12.333   9.137
  588POPC   C1A10779  21.522  11.865   8.763
  588POPC   D2A10780  21.319  11.671   8.484
  588POPC   C3A10781  21.293  11.915   8.130
  588POPC   C4A10782  21.603  11.964   7.800
  588POPC   C1B10783  21.471  12.382   8.737
  588POPC   C2B10784  21.563  12.352   8.316
  588POPC   C3B10785  21.612  12.627   7.992
  588POPC   C4B10786  21.750  12.435   7.673
  589POPC   NC310787  11.985   3.470   9.652
  589POPC   PO410788  12.029   4.124   9.557
  589POPC   GL110789  11.931   3.828   9.213
  589POPC   GL210790  12.155   3.542   9.182
  589POPC   C1A10791  11.798   3.776   8.756
  589POPC   D2A10792  11.802   3.809   8.265
  589POPC   C3A10793  11.855   3.410   8.010
  589POPC   C4A10794  11.586   3.120   7.774
  589POPC   C1B10795  12.356   3.684   8.817
  589POPC   C2B10796  12.405   3.411   8.454
  589POPC   C3B10797  12.424   3.491   8.057
  589POPC   C4B10798  12.187   3.750   7.807
  590POPC   NC310799  41.815  15.283   9.502
  590POPC   PO410800  41.375  14.816   9.578
  590POPC   GL110801  41.476  15.020   9.154
  590POPC   GL210802  41.765  15.231   9.005
  590POPC   C1A10803  41.400  14.924   8.722
  590POPC   D2A10804  41.471  14.976   8.283
  590POPC   C3A10805  41.210  15.155   7.968
  590POPC   C4A10806  41.324  14.879   7.695
  590POPC   C1B10807  41.545  15.416   8.661
  590POPC   C2B10808  41.522  15.467   8.219
  590POPC   C3B10809  41.737  15.266   7.883
  590POPC   C4B10810  41.966  15.417   7.531
  591POPC   NC310811  26.937  15.441   9.510
  591POPC   PO410812  26.510  14.949   9.620
  591POPC   GL110813  26.664  15.010   9.198
  591POPC   GL210814  27.013  15.027   9.121
  591POPC   C1A10815  26.646  15.176   8.777
  591POPC   D2A10816  26.814  15.293   8.367
  591POPC   C3A10817  26.742  15.079   7.991
  591POPC   C4A10818  26.849  15.399   7.704
  591POPC   C1B10819  27.162  15.197   8.716
  591POPC   C2B10820  27.287  15.011   8.299
  591POPC   C3B10821  27.250  15.115   7.859
  591POPC   C4B10822  26.981  14.905   7.546
  592POPC   NC310823  35.138  17.066   9.450
  592POPC   PO410824  35.618  16.598   9.407
  592POPC   GL110825  35.342  16.758   9.111
  592POPC   GL210826  35.612  17.012   9.066
  592POPC   C1A10827  35.156  16.552   8.770
  592POPC   D2A10828  35.481  16.411   8.511
  592POPC   C3A10829  35.341  16.518   8.143
  592POPC   C4A10830  35.333  16.350   7.785
  592POPC   C1B10831  35.468  16.970   8.644
  592POPC   C2B10832  35.369  17.186   8.246
  592POPC   C3B10833  35.505  16.944   7.923
  592POPC   C4B10834  35.352  16.806   7.544
  593POPC   NC310835  42.671  26.268   9.457
  593POPC   PO410836  43.259  26.600   9.522
  593POPC   GL110837  43.040  26.767   9.211
  593POPC   GL210838  43.027  26.412   9.085
  593POPC   C1A10839  43.033  27.044   8.843
  593POPC   D2A10840  43.090  26.857   8.443
  593POPC   C3A10841  43.007  27.038   8.040
  593POPC   C4A10842  43.120  26.864   7.665
  593POPC   C1B10843  42.730  26.627   8.829
  593POPC   C2B10844  42.642  26.578   8.424
  593POPC   C3B10845  42.899  26.547   8.070
  593POPC   C4B10846  42.787  26.471   7.688
  594POPC   NC310847  16.452  42.810   9.520
  594POPC   PO410848  16.776  42.208   9.555
  594POPC   GL110849  16.769  42.225   9.123
  594POPC   GL210850  17.000  41.982   9.153
  594POPC   C1A10851  16.709  42.308   8.674
  594POPC   D2A10852  16.461  42.451   8.308
  594POPC   C3A10853  16.500  42.227   7.904
  594POPC   C4A10854  16.409  42.325   7.454
  594POPC   C1B10855  17.169  42.069   8.789
  594POPC   C2B10856  17.150  42.236   8.382
  594POPC   C3B10857  17.009  42.145   7.972
  594POPC   C4B10858  16.906  42.303   7.559
  595POPC   NC310859  12.967  20.363   9.364
  595POPC   PO410860  13.283  21.015   9.480
  595POPC   GL110861  13.071  20.974   9.079
  595POPC   GL210862  12.744  20.800   9.059
  595POPC   C1A10863  13.043  20.961   8.635
  595POPC   D2A10864  13.188  20.586   8.424
  595POPC   C3A10865  13.083  20.463   8.040
  595POPC   C4A10866  13.059  20.533   7.617
  595POPC   C1B10867  12.785  20.520   8.715
  595POPC   C2B10868  12.690  20.734   8.335
  595POPC   C3B10869  12.620  20.628   7.938
  595POPC   C4B10870  12.679  20.229   7.787
  596POPC   NC310871  15.583   0.459   9.606
  596POPC   PO410872  16.088   0.046   9.549
  596POPC   GL110873  15.806   0.171   9.208
  596POPC   GL210874  15.752   0.544   9.134
  596POPC   C1A10875  15.933   0.158   8.774
  596POPC   D2A10876  15.803   0.309   8.355
  596POPC   C3A10877  15.962   0.179   7.932
  596POPC   C4A10878  15.776   0.360   7.562
  596POPC   C1B10879  16.067   0.648   8.823
  596POPC   C2B10880  15.998   0.792   8.412
  596POPC   C3B10881  15.948   0.694   7.966
  596POPC   C4B10882  16.247   0.535   7.679
  597POPC   NC310883   2.227  33.298   9.535
  597POPC   PO410884   1.800  33.783   9.418
  597POPC   GL110885   1.842  33.778   9.027
  597POPC   GL210886   2.211  33.650   9.109
  597POPC   C1A10887   1.718  34.007   8.653
  597POPC   D2A10888   2.038  34.246   8.430
  597POPC   C3A10889   2.035  34.152   7.997
  597POPC   C4A10890   1.700  34.005   7.761
  597POPC   C1B10891   2.199  33.803   8.668
  597POPC   C2B10892   2.033  33.707   8.250
  597POPC   C3B10893   2.081  33.644   7.769
  597POPC   C4B10894   2.118  33.310   7.432
  598POPC   NC310895   5.977  35.987   9.630
  598POPC   PO410896   5.541  35.590   9.327
  598POPC   GL110897   5.866  35.862   9.117
  598POPC   GL210898   5.962  36.174   9.133
  598POPC   C1A10899   5.715  36.035   8.724
  598POPC   D2A10900   5.498  35.818   8.421
  598POPC   C3A10901   5.733  35.981   8.112
  598POPC   C4A10902   5.564  35.968   7.767
  598POPC   C1B10903   6.170  36.333   8.773
  598POPC   C2B10904   6.012  36.379   8.372
  598POPC   C3B10905   6.082  36.352   7.968
  598POPC   C4B10906   5.815  36.376   7.621
  599POPC   NC310907   0.550  37.843   9.558
  599POPC   PO410908   0.287  37.237   9.631
  599POPC   GL110909   0.255  37.522   9.279
  599POPC   GL210910   0.589  37.520   9.135
  599POPC   C1A10911   0.241  37.768   8.872
  599POPC   D2A10912   0.068  37.875   8.453
  599POPC   C3A10913   0.275  37.705   8.085
  599POPC   C4A10914   0.394  37.897   7.719
  599POPC   C1B10915   0.798  37.763   8.840
  599POPC   C2B10916   0.640  37.706   8.446
  599POPC   C3B10917   0.796  37.763   8.026
  599POPC   C4B10918   0.632  37.409   7.831
  600POPC   NC310919  38.184  37.767   9.734
  600POPC   PO410920  38.790  37.551   9.675
  600POPC   GL110921  38.450  37.514   9.364
  600POPC   GL210922  38.447  37.839   9.290
  600POPC   C1A10923  38.387  37.375   8.942
  600POPC   D2A10924  38.485  37.513   8.524
  600POPC   C3A10925  38.403  37.316   8.134
  600POPC   C4A10926  38.321  37.576   7.799
  600POPC   C1B10927  38.351  37.899   8.869
  600POPC   C2B10928  38.540  38.025   8.506
  600POPC   C3B10929  38.505  37.933   8.104
  600POPC   C4B10930  38.618  38.161   7.744
  601POPC   NC310931  32.081  34.199   9.460
  601POPC   PO410932  32.236  34.792   9.437
  601POPC   GL110933  32.007  34.594   9.120
  601POPC   GL210934  32.280  34.371   9.027
  601POPC   C1A10935  31.978  34.701   8.689
  601POPC   D2A10936  31.956  34.990   8.382
  601POPC   C3A10937  32.221  34.823   8.116
  601POPC   C4A10938  32.165  34.931   7.728
  601POPC   C1B10939  31.988  34.186   8.764
  601POPC   C2B10940  32.079  34.168   8.318
  601POPC   C3B10941  32.146  34.366   7.888
  601POPC   C4B10942  32.426  34.258   7.570
  602POPC   NC310943  42.746   6.178   9.316
  602POPC   PO410944  43.299   6.614   9.459
  602POPC   GL110945  43.113   6.719   9.120
  602POPC   GL210946  42.840   6.925   9.166
  602POPC   C1A10947  43.239   6.600   8.706
  602POPC   D2A10948  43.397   6.494   8.308
  602POPC   C3A10949  43.350   6.725   7.907
  602POPC   C4A10950  43.331   6.915   7.462
  602POPC   C1B10951  42.738   6.685   8.801
  602POPC   C2B10952  42.749   6.428   8.436
  602POPC   C3B10953  42.925   6.437   8.023
  602POPC   C4B10954  42.620   6.406   7.697
  603POPC   NC310955  13.837  15.105   9.559
  603POPC   PO410956  13.449  15.706   9.609
  603POPC   GL110957  13.578  15.414   9.235
  603POPC   GL210958  13.367  15.164   9.115
  603POPC   C1A10959  13.698  15.415   8.793
  603POPC   D2A10960  13.502  15.486   8.396
  603POPC   C3A10961  13.706  15.456   8.016
  603POPC   C4A10962  13.591  15.648   7.654
  603POPC   C1B10963  13.563  14.923   8.815
  603POPC   C2B10964  13.374  14.952   8.433
  603POPC   C3B10965  13.463  14.875   8.014
  603POPC   C4B10966  13.395  14.502   7.805
  604POPC   NC310967   2.869  19.354   9.499
  604POPC   PO410968   2.499  18.682   9.512
  604POPC   GL110969   2.745  18.731   9.140
  604POPC   GL210970   2.804  19.066   9.100
  604POPC   C1A10971   2.797  18.776   8.690
  604POPC   D2A10972   3.002  18.904   8.341
  604POPC   C3A10973   2.740  18.908   8.007
  604POPC   C4A10974   2.941  18.885   7.653
  604POPC   C1B10975   2.576  19.287   8.820
  604POPC   C2B10976   2.503  19.112   8.429
  604POPC   C3B10977   2.408  19.304   8.057
  604POPC   C4B10978   2.630  19.330   7.672
  605POPC   NC310979   8.908  18.489   9.684
  605POPC   PO410980   9.224  17.916   9.359
  605POPC   GL110981   8.829  17.930   9.128
  605POPC   GL210982   8.702  18.295   9.064
  605POPC   C1A10983   8.836  17.966   8.684
  605POPC   D2A10984   9.008  18.319   8.439
  605POPC   C3A10985   9.177  18.225   8.056
  605POPC   C4A10986   9.053  17.978   7.720
  605POPC   C1B10987   8.811  18.653   8.785
  605POPC   C2B10988   8.848  18.824   8.369
  605POPC   C3B10989   8.746  18.542   8.037
  605POPC   C4B10990   8.617  18.159   7.840
  606POPC   NC310991  24.673   0.544   9.545
  606POPC   PO410992  24.222   0.109   9.359
  606POPC   GL110993  24.454   0.404   9.123
  606POPC   GL210994  24.196   0.627   9.216
  606POPC   C1A10995  24.758   0.499   8.784
  606POPC   D2A10996  24.619   0.621   8.385
  606POPC   C3A10997  24.854   0.674   7.997
  606POPC   C4A10998  24.590   0.417   7.735
  606POPC   C1B10999  24.286   0.742   8.795
  606POPC   C2B11000  24.281   0.976   8.415
  606POPC   C3B11001  24.378   0.873   7.980
  606POPC   C4B11002  24.138   0.646   7.682
  607POPC   NC311003  10.840  37.089   9.245
  607POPC   PO411004  11.302  36.996   9.720
  607POPC   GL111005  11.327  37.048   9.252
  607POPC   GL211006  11.325  37.374   9.172
  607POPC   C1A11007  11.307  36.851   8.814
  607POPC   D2A11008  11.414  37.020   8.404
  607POPC   C3A11009  11.289  36.848   8.024
  607POPC   C4A11010  11.540  36.729   7.722
  607POPC   C1B11011  11.152  37.331   8.734
  607POPC   C2B11012  11.185  37.497   8.318
  607POPC   C3B11013  11.170  37.362   7.891
  607POPC   C4B11014  11.200  37.054   7.545
  608POPC   NC311015  30.152  20.075   9.704
  608POPC   PO411016  29.730  19.697   9.271
  608POPC   GL111017  30.027  19.977   9.107
  608POPC   GL211018  29.800  20.145   8.911
  608POPC   C1A11019  30.211  19.986   8.669
  608POPC   D2A11020  29.997  19.864   8.289
  608POPC   C3A11021  30.081  20.071   7.907
  608POPC   C4A11022  29.930  19.876   7.536
  608POPC   C1B11023  29.612  19.839   8.630
  608POPC   C2B11024  29.423  19.817   8.245
  608POPC   C3B11025  29.590  19.962   7.917
  608POPC   C4B11026  29.650  20.319   7.674
  609POPC   NC311027  43.303  22.044   9.413
  609POPC   PO411028  42.971  22.586   9.462
  609POPC   GL111029  42.992  22.317   9.083
  609POPC   GL211030  42.953  21.934   9.046
  609POPC   C1A11031  43.317  22.294   8.770
  609POPC   D2A11032  43.364  22.112   8.393
  609POPC   C3A11033  43.338  22.312   8.038
  609POPC   C4A11034  43.340  22.130   7.638
  609POPC   C1B11035  42.910  21.926   8.592
  609POPC   C2B11036  42.876  22.254   8.271
  609POPC   C3B11037  42.862  22.198   7.819
  609POPC   C4B11038  42.902  22.436   7.436
  610POPC   NC311039  39.193  37.382   9.826
  610POPC   PO411040  39.706  37.807   9.687
  610POPC   GL111041  39.463  37.635   9.288
  610POPC   GL211042  39.079  37.626   9.256
  610POPC   C1A11043  39.333  37.527   8.834
  610POPC   D2A11044  39.546  37.490   8.444
  610POPC   C3A11045  39.306  37.456   8.112
  610POPC   C4A11046  39.338  37.725   7.808
  610POPC   C1B11047  38.870  37.774   8.847
  610POPC   C2B11048  38.938  37.734   8.374
  610POPC   C3B11049  38.842  37.593   7.926
  610POPC   C4B11050  38.701  37.458   7.513
  611POPC   NC311051  40.189  33.448   9.661
  611POPC   PO411052  39.782  33.932   9.517
  611POPC   GL111053  39.864  33.653   9.146
  611POPC   GL211054  40.224  33.549   9.159
  611POPC   C1A11055  39.992  33.616   8.689
  611POPC   D2A11056  39.966  33.287   8.376
  611POPC   C3A11057  39.848  33.413   7.959
  611POPC   C4A11058  39.779  33.814   7.781
  611POPC   C1B11059  40.444  33.804   8.866
  611POPC   C2B11060  40.366  33.932   8.462
  611POPC   C3B11061  40.520  33.887   8.060
  611POPC   C4B11062  40.264  33.738   7.766
  612POPC   NC311063  35.664  15.391   9.486
  612POPC   PO411064  35.136  14.977   9.441
  612POPC   GL111065  35.324  15.225   9.131
  612POPC   GL211066  35.662  15.108   9.056
  612POPC   C1A11067  35.298  15.293   8.705
  612POPC   D2A11068  35.373  15.070   8.323
  612POPC   C3A11069  35.381  15.336   7.987
  612POPC   C4A11070  34.946  15.323   7.937
  612POPC   C1B11071  35.654  14.819   8.679
  612POPC   C2B11072  35.787  14.783   8.221
  612POPC   C3B11073  35.665  14.904   7.761
  612POPC   C4B11074  35.686  14.930   7.263
  613POPC   NC311075  39.121  17.893   9.632
  613POPC   PO411076  39.599  18.366   9.464
  613POPC   GL111077  39.282  18.433   9.120
  613POPC   GL211078  39.069  18.155   9.202
  613POPC   C1A11079  39.206  18.551   8.656
  613POPC   D2A11080  39.462  18.415   8.290
  613POPC   C3A11081  39.336  18.409   7.841
  613POPC   C4A11082  39.381  18.584   7.415
  613POPC   C1B11083  38.904  18.168   8.814
  613POPC   C2B11084  39.131  18.052   8.482
  613POPC   C3B11085  38.991  17.789   8.198
  613POPC   C4B11086  38.851  18.000   7.862
  614POPC   NC311087   0.039  18.356   9.482
  614POPC   PO411088  44.380  18.047   9.567
  614POPC   GL111089  44.531  18.279   9.196
  614POPC   GL211090  44.869  18.185   9.027
  614POPC   C1A11091  44.429  18.209   8.766
  614POPC   D2A11092  44.731  18.260   8.449
  614POPC   C3A11093  44.724  18.024   8.057
  614POPC   C4A11094  44.589  18.104   7.636
  614POPC   C1B11095  44.937  18.603   8.819
  614POPC   C2B11096  44.783  18.785   8.423
  614POPC   C3B11097  44.724  18.564   8.038
  614POPC   C4B11098  44.866  18.571   7.613
  615POPC   NC311099  42.920  44.402   9.442
  615POPC   PO411100  43.541  44.550   9.563
  615POPC   GL111101  43.324  44.601   9.177
  615POPC   GL211102  43.318  44.250   9.136
  615POPC   C1A11103  43.110  44.855   8.814
  615POPC   D2A11104  43.008   0.039   8.378
  615POPC   C3A11105  43.160  44.888   7.967
  615POPC   C4A11106  42.881  44.763   7.583
  615POPC   C1B11107  42.976  44.363   8.814
  615POPC   C2B11108  42.931  44.510   8.399
  615POPC   C3B11109  42.918  44.417   7.957
  615POPC   C4B11110  42.868  44.262   7.510
  616POPC   NC311111  44.547  35.498   9.538
  616POPC   PO411112  44.450  34.928   9.752
  616POPC   GL111113  44.382  35.136   9.230
  616POPC   GL211114  44.736  35.313   9.105
  616POPC   C1A11115  44.356  35.488   8.842
  616POPC   D2A11116  44.665  35.505   8.451
  616POPC   C3A11117  44.450  35.549   8.036
  616POPC   C4A11118  44.452  35.648   7.610
  616POPC   C1B11119   0.021  35.171   8.769
  616POPC   C2B11120  44.929  35.058   8.356
  616POPC   C3B11121  44.914  35.323   8.019
  616POPC   C4B11122  44.771  35.186   7.646
  617POPC   NC311123  40.459  39.817   9.517
  617POPC   PO411124  41.026  40.244   9.359
  617POPC   GL111125  40.641  40.117   9.061
  617POPC   GL211126  40.698  39.796   9.042
  617POPC   C1A11127  40.423  39.950   8.652
  617POPC   D2A11128  40.551  39.966   8.198
  617POPC   C3A11129  40.264  40.110   7.849
  617POPC   C4A11130  40.344  40.316   7.440
  617POPC   C1B11131  40.936  39.950   8.656
  617POPC   C2B11132  41.132  39.760   8.291
  617POPC   C3B11133  40.929  39.759   7.908
  617POPC   C4B11134  40.761  40.149   7.745
  618POPC   NC311135  21.041  16.101   9.534
  618POPC   PO411136  20.303  15.920   9.492
  618POPC   GL111137  20.479  16.013   9.113
  618POPC   GL211138  20.703  16.264   9.172
  618POPC   C1A11139  20.554  15.786   8.717
  618POPC   D2A11140  20.838  15.848   8.369
  618POPC   C3A11141  20.626  15.806   8.006
  618POPC   C4A11142  20.573  15.701   7.614
  618POPC   C1B11143  20.815  16.224   8.724
  618POPC   C2B11144  21.061  16.369   8.411
  618POPC   C3B11145  21.086  16.417   7.987
  618POPC   C4B11146  21.013  16.040   7.774
  619POPC   NC311147  29.729   9.843   9.573
  619POPC   PO411148  30.104   9.298   9.351
  619POPC   GL111149  29.844   9.538   9.141
  619POPC   GL211150  29.936   9.871   9.122
  619POPC   C1A11151  29.897   9.562   8.721
  619POPC   D2A11152  30.074   9.741   8.385
  619POPC   C3A11153  29.791   9.569   8.102
  619POPC   C4A11154  29.946   9.511   7.692
  619POPC   C1B11155  29.919  10.090   8.737
  619POPC   C2B11156  29.708  10.110   8.314
  619POPC   C3B11157  29.854  10.030   7.898
  619POPC   C4B11158  29.916  10.214   7.522
  620POPC   NC311159  10.026  35.605   9.495
  620POPC   PO411160   9.375  35.749   9.420
  620POPC   GL111161   9.536  35.547   9.068
  620POPC   GL211162   9.699  35.249   9.165
  620POPC   C1A11163   9.728  35.458   8.671
  620POPC   D2A11164   9.853  35.159   8.377
  620POPC   C3A11165   9.826  35.163   7.946
  620POPC   C4A11166   9.567  35.476   7.770
  620POPC   C1B11167   9.565  34.999   8.807
  620POPC   C2B11168   9.302  35.194   8.516
  620POPC   C3B11169   9.333  35.151   8.103
  620POPC   C4B11170   9.401  34.934   7.726
  621POPC   NC311171  24.782  28.963   9.680
  621POPC   PO411172  25.408  29.032   9.451
  621POPC   GL111173  25.247  29.018   9.081
  621POPC   GL211174  24.923  28.804   9.162
  621POPC   C1A11175  25.454  29.016   8.672
  621POPC   D2A11176  25.485  28.887   8.254
  621POPC   C3A11177  25.426  29.257   8.023
  621POPC   C4A11178  25.089  29.350   7.720
  621POPC   C1B11179  25.016  28.774   8.718
  621POPC   C2B11180  24.885  28.933   8.345
  621POPC   C3B11181  25.060  28.899   7.942
  621POPC   C4B11182  25.060  28.762   7.477
  622POPC   NC311183  18.325   9.127   9.498
  622POPC   PO411184  18.594   8.477   9.507
  622POPC   GL111185  18.320   8.707   9.213
  622POPC   GL211186  18.640   8.763   9.069
  622POPC   C1A11187  18.179   9.030   8.858
  622POPC   D2A11188  18.157   9.265   8.466
  622POPC   C3A11189  18.006   9.079   8.096
  622POPC   C4A11190  18.062   9.029   7.661
  622POPC   C1B11191  18.673   9.052   8.746
  622POPC   C2B11192  18.775   9.120   8.314
  622POPC   C3B11193  18.532   9.098   7.918
  622POPC   C4B11194  18.557   9.036   7.468
  623POPC   NC311195  42.552  38.596   9.500
  623POPC   PO411196  42.005  38.704   9.799
  623POPC   GL111197  42.062  38.430   9.341
  623POPC   GL211198  42.347  38.207   9.250
  623POPC   C1A11199  42.135  38.468   8.867
  623POPC   D2A11200  42.301  38.747   8.526
  623POPC   C3A11201  42.356  38.597   8.092
  623POPC   C4A11202  42.295  38.497   7.674
  623POPC   C1B11203  42.625  38.400   8.887
  623POPC   C2B11204  42.870  38.393   8.529
  623POPC   C3B11205  42.806  38.374   8.074
  623POPC   C4B11206  42.726  38.216   7.636
  624POPC   NC311207  25.337   8.916   9.697
  624POPC   PO411208  25.107   9.431   9.525
  624POPC   GL111209  25.440   9.151   9.252
  624POPC   GL211210  25.354   8.797   9.206
  624POPC   C1A11211  25.602   8.974   8.809
  624POPC   D2A11212  25.349   9.137   8.487
  624POPC   C3A11213  25.373   9.162   8.049
  624POPC   C4A11214  25.070   9.424   7.826
  624POPC   C1B11215  25.049   8.925   8.891
  624POPC   C2B11216  24.987   8.726   8.480
  624POPC   C3B11217  25.322   8.631   8.177
  624POPC   C4B11218  25.480   8.696   7.760
  625POPC   NC311219   7.412  12.315   9.385
  625POPC   PO411220   7.104  11.710   9.559
  625POPC   GL111221   7.207  11.920   9.183
  625POPC   GL211222   7.569  11.951   9.078
  625POPC   C1A11223   7.193  12.169   8.791
  625POPC   D2A11224   7.354  12.017   8.458
  625POPC   C3A11225   7.367  12.119   8.054
  625POPC   C4A11226   7.342  12.377   7.732
  625POPC   C1B11227   7.793  11.912   8.705
  625POPC   C2B11228   7.828  12.166   8.339
  625POPC   C3B11229   7.852  12.328   7.922
  625POPC   C4B11230   7.766  12.248   7.474
  626POPC   NC311231  38.872   6.207   9.583
  626POPC   PO411232  39.451   6.147   9.384
  626POPC   GL111233  39.082   5.926   9.206
  626POPC   GL211234  39.041   5.577   9.090
  626POPC   C1A11235  38.972   6.010   8.804
  626POPC   D2A11236  39.220   6.016   8.405
  626POPC   C3A11237  39.037   5.933   7.980
  626POPC   C4A11238  39.155   6.117   7.594
  626POPC   C1B11239  39.415   5.700   8.809
  626POPC   C2B11240  39.566   5.645   8.356
  626POPC   C3B11241  39.477   5.623   7.888
  626POPC   C4B11242  39.305   5.640   7.438
  627POPC   NC311243  40.231   1.400   9.533
  627POPC   PO411244  40.413   0.813   9.530
  627POPC   GL111245  40.107   1.045   9.186
  627POPC   GL211246  40.006   1.447   9.085
  627POPC   C1A11247  39.915   1.041   8.785
  627POPC   D2A11248  40.129   1.099   8.413
  627POPC   C3A11249  40.066   0.883   8.017
  627POPC   C4A11250  40.056   0.771   7.584
  627POPC   C1B11251  39.716   1.510   8.754
  627POPC   C2B11252  39.672   1.322   8.325
  627POPC   C3B11253  39.886   1.378   7.972
  627POPC   C4B11254  39.750   1.626   7.640
  628POPC   NC311255  26.077  28.852   9.553
  628POPC   PO411256  25.860  29.560   9.621
  628POPC   GL111257  25.851  29.272   9.291
  628POPC   GL211258  26.186  29.226   9.144
  628POPC   C1A11259  25.763  29.368   8.868
  628POPC   D2A11260  25.772  29.355   8.410
  628POPC   C3A11261  26.215  29.376   8.214
  628POPC   C4A11262  26.355  29.367   7.778
  628POPC   C1B11263  26.193  29.164   8.679
  628POPC   C2B11264  26.003  28.908   8.312
  628POPC   C3B11265  25.961  29.035   7.861
  628POPC   C4B11266  25.917  28.803   7.451
  629POPC   NC311267  38.722   2.218   9.493
  629POPC   PO411268  39.192   1.726   9.468
  629POPC   GL111269  39.056   1.742   9.067
  629POPC   GL211270  39.292   2.010   9.034
  629POPC   C1A11271  39.235   1.655   8.659
  629POPC   D2A11272  39.575   1.832   8.377
  629POPC   C3A11273  39.435   1.883   7.964
  629POPC   C4A11274  39.028   1.799   7.779
  629POPC   C1B11275  39.296   2.192   8.626
  629POPC   C2B11276  39.540   2.345   8.276
  629POPC   C3B11277  39.473   2.393   7.839
  629POPC   C4B11278  39.130   2.364   7.539
  630POPC   NC311279  18.887  29.361   9.455
  630POPC   PO411280  19.450  28.953   9.475
  630POPC   GL111281  19.255  29.207   9.160
  630POPC   GL211282  19.037  28.947   9.099
  630POPC   C1A11283  19.287  29.334   8.730
  630POPC   D2A11284  19.227  29.068   8.366
  630POPC   C3A11285  19.108  29.287   7.991
  630POPC   C4A11286  19.220  29.047   7.662
  630POPC   C1B11287  18.814  29.167   8.804
  630POPC   C2B11288  18.781  29.291   8.396
  630POPC   C3B11289  18.659  29.620   8.145
  630POPC   C4B11290  18.838  29.745   7.758
  631POPC   NC311291  41.664   4.824   9.417
  631POPC   PO411292  41.460   5.457   9.456
  631POPC   GL111293  41.283   5.152   9.190
  631POPC   GL211294  41.585   5.149   9.015
  631POPC   C1A11295  41.187   4.982   8.761
  631POPC   D2A11296  41.474   4.919   8.422
  631POPC   C3A11297  41.314   5.120   8.075
  631POPC   C4A11298  41.462   5.075   7.673
  631POPC   C1B11299  41.816   4.810   8.794
  631POPC   C2B11300  41.998   4.832   8.414
  631POPC   C3B11301  41.849   4.963   8.030
  631POPC   C4B11302  41.929   4.810   7.653
  632POPC   NC311303   3.803  39.930   9.678
  632POPC   PO411304   3.236  39.642   9.319
  632POPC   GL111305   3.307  39.902   8.959
  632POPC   GL211306   3.522  40.182   9.090
  632POPC   C1A11307   3.554  39.821   8.611
  632POPC   D2A11308   3.860  39.891   8.339
  632POPC   C3A11309   3.601  39.977   8.004
  632POPC   C4A11310   3.728  40.096   7.590
  632POPC   C1B11311   3.744  40.292   8.728
  632POPC   C2B11312   3.719  40.517   8.347
  632POPC   C3B11313   3.597  40.477   7.945
  632POPC   C4B11314   3.164  40.444   7.904
  633POPC   NC311315  14.118  15.646   9.863
  633POPC   PO411316  14.324  16.235   9.588
  633POPC   GL111317  14.307  15.977   9.247
  633POPC   GL211318  14.624  16.021   9.136
  633POPC   C1A11319  14.284  15.836   8.804
  633POPC   D2A11320  14.479  16.020   8.460
  633POPC   C3A11321  14.329  15.909   8.076
  633POPC   C4A11322  14.552  15.815   7.737
  633POPC   C1B11323  14.812  16.318   8.838
  633POPC   C2B11324  14.647  16.504   8.458
  633POPC   C3B11325  14.596  16.350   8.044
  633POPC   C4B11326  14.937  16.132   7.855
  634POPC   NC311327   8.322  21.839   9.750
  634POPC   PO411328   7.729  21.513   9.572
  634POPC   GL111329   7.935  21.388   9.191
  634POPC   GL211330   7.962  21.693   9.073
  634POPC   C1A11331   8.214  21.182   8.895
  634POPC   D2A11332   8.407  21.318   8.520
  634POPC   C3A11333   8.328  21.057   8.162
  634POPC   C4A11334   8.141  21.156   7.775
  634POPC   C1B11335   7.880  21.494   8.675
  634POPC   C2B11336   8.042  21.594   8.293
  634POPC   C3B11337   7.956  21.618   7.880
  634POPC   C4B11338   7.904  21.698   7.440
  635POPC   NC311339   7.822  31.850   9.542
  635POPC   PO411340   8.415  32.140   9.562
  635POPC   GL111341   8.160  32.098   9.193
  635POPC   GL211342   8.037  31.764   9.082
  635POPC   C1A11343   8.368  32.043   8.796
  635POPC   D2A11344   8.206  31.972   8.406
  635POPC   C3A11345   8.420  32.123   8.029
  635POPC   C4A11346   8.349  32.156   7.583
  635POPC   C1B11347   7.843  32.063   8.790
  635POPC   C2B11348   7.679  32.131   8.404
  635POPC   C3B11349   7.886  32.048   8.034
  635POPC   C4B11350   7.911  32.333   7.755
  636POPC   NC311351  17.075   2.464   9.814
  636POPC   PO411352  16.686   2.947   9.514
  636POPC   GL111353  16.896   2.781   9.173
  636POPC   GL211354  16.579   2.659   9.067
  636POPC   C1A11355  16.877   2.907   8.739
  636POPC   D2A11356  16.685   2.939   8.326
  636POPC   C3A11357  16.937   3.059   7.977
  636POPC   C4A11358  17.119   2.743   7.735
  636POPC   C1B11359  16.514   2.537   8.638
  636POPC   C2B11360  16.222   2.720   8.341
  636POPC   C3B11361  16.301   2.838   7.937
  636POPC   C4B11362  16.611   2.711   7.662
  637POPC   NC311363  26.642   1.938   9.347
  637POPC   PO411364  27.277   2.132   9.537
  637POPC   GL111365  27.094   1.940   9.124
  637POPC   GL211366  26.759   1.719   8.937
  637POPC   C1A11367  27.093   2.148   8.724
  637POPC   D2A11368  27.129   2.020   8.287
  637POPC   C3A11369  26.841   2.213   7.977
  637POPC   C4A11370  26.987   2.031   7.606
  637POPC   C1B11371  26.575   2.067   8.729
  637POPC   C2B11372  26.631   1.955   8.361
  637POPC   C3B11373  26.641   1.757   8.001
  637POPC   C4B11374  26.485   2.000   7.657
  638POPC   NC311375  16.406  39.119   9.532
  638POPC   PO411376  16.929  39.491   9.576
  638POPC   GL111377  16.821  39.223   9.206
  638POPC   GL211378  16.537  39.311   9.074
  638POPC   C1A11379  16.781  38.930   8.814
  638POPC   D2A11380  16.977  39.030   8.399
  638POPC   C3A11381  16.881  39.276   8.017
  638POPC   C4A11382  16.475  39.143   7.845
  638POPC   C1B11383  16.813  39.428   8.722
  638POPC   C2B11384  16.555  39.435   8.363
  638POPC   C3B11385  16.428  39.634   7.976
  638POPC   C4B11386  16.307  39.517   7.536
  639POPC   NC311387  12.962   0.575   9.514
  639POPC   PO411388  13.567   0.272   9.773
  639POPC   GL111389  13.633   0.428   9.305
  639POPC   GL211390  13.385   0.681   9.238
  639POPC   C1A11391  13.545   0.361   8.832
  639POPC   D2A11392  13.680   0.551   8.419
  639POPC   C3A11393  13.589   0.435   8.049
  639POPC   C4A11394  13.674   0.567   7.630
  639POPC   C1B11395  13.086   0.698   8.906
  639POPC   C2B11396  13.175   0.597   8.530
  639POPC   C3B11397  13.174   0.689   8.142
  639POPC   C4B11398  13.220   0.915   7.793
  640POPC   NC311399  34.210   5.787   9.514
  640POPC   PO411400  34.883   5.549   9.446
  640POPC   GL111401  34.833   5.808   9.091
  640POPC   GL211402  34.520   5.795   9.127
  640POPC   C1A11403  34.720   6.022   8.704
  640POPC   D2A11404  34.559   6.112   8.303
  640POPC   C3A11405  34.755   6.114   7.921
  640POPC   C4A11406  34.671   5.954   7.494
  640POPC   C1B11407  34.435   5.612   8.759
  640POPC   C2B11408  34.264   5.714   8.392
  640POPC   C3B11409  34.430   5.726   7.973
  640POPC   C4B11410  34.239   5.670   7.567
  641POPC   NC311411  27.921  32.485   9.469
  641POPC   PO411412  27.378  32.041   9.579
  641POPC   GL111413  27.557  32.225   9.169
  641POPC   GL211414  27.842  32.408   8.991
  641POPC   C1A11415  27.699  31.992   8.754
  641POPC   D2A11416  27.743  32.109   8.330
  641POPC   C3A11417  27.500  32.048   7.972
  641POPC   C4A11418  27.743  32.094   7.591
  641POPC   C1B11419  27.513  32.497   8.736
  641POPC   C2B11420  27.581  32.586   8.340
  641POPC   C3B11421  27.759  32.478   7.948
  641POPC   C4B11422  27.572  32.583   7.551
  642POPC   NC311423  37.755   5.407   9.378
  642POPC   PO411424  37.853   4.861   9.767
  642POPC   GL111425  37.658   4.918   9.263
  642POPC   GL211426  37.891   5.074   8.968
  642POPC   C1A11427  37.420   5.025   8.862
  642POPC   D2A11428  37.664   4.987   8.453
  642POPC   C3A11429  37.452   5.108   8.072
  642POPC   C4A11430  37.337   4.853   7.727
  642POPC   C1B11431  37.826   5.443   8.723
  642POPC   C2B11432  37.803   5.471   8.306
  642POPC   C3B11433  37.969   5.251   7.984
  642POPC   C4B11434  38.153   5.348   7.572
  643POPC   NC311435  33.527   5.087   9.452
  643POPC   PO411436  33.990   4.574   9.484
  643POPC   GL111437  33.895   4.902   9.119
  643POPC   GL211438  33.625   5.185   8.982
  643POPC   C1A11439  33.906   4.872   8.675
  643POPC   D2A11440  34.095   4.911   8.306
  643POPC   C3A11441  33.817   5.034   7.977
  643POPC   C4A11442  33.872   4.917   7.545
  643POPC   C1B11443  33.895   5.397   8.723
  643POPC   C2B11444  33.887   5.382   8.336
  643POPC   C3B11445  33.922   5.604   8.002
  643POPC   C4B11446  33.821   5.410   7.649
  644POPC   NC311447  11.935   2.262   9.566
  644POPC   PO411448  12.107   1.609   9.600
  644POPC   GL111449  12.182   1.727   9.188
  644POPC   GL211450  11.970   2.015   9.143
  644POPC   C1A11451  12.268   1.879   8.772
  644POPC   D2A11452  12.333   2.052   8.415
  644POPC   C3A11453  12.157   1.845   8.087
  644POPC   C4A11454  12.208   2.049   7.692
  644POPC   C1B11455  11.890   2.219   8.768
  644POPC   C2B11456  11.802   2.114   8.378
  644POPC   C3B11457  11.854   2.270   7.987
  644POPC   C4B11458  11.682   2.209   7.630
  645POPC   NC311459   1.394  37.869   9.480
  645POPC   PO411460   0.845  37.486   9.568
  645POPC   GL111461   1.124  37.550   9.192
  645POPC   GL211462   1.367  37.316   9.094
  645POPC   C1A11463   1.349  37.763   8.815
  645POPC   D2A11464   1.155  37.849   8.408
  645POPC   C3A11465   1.328  37.762   7.988
  645POPC   C4A11466   1.344  38.016   7.590
  645POPC   C1B11467   1.078  37.320   8.739
  645POPC   C2B11468   1.009  37.361   8.297
  645POPC   C3B11469   1.129  37.279   7.878
  645POPC   C4B11470   1.252  37.206   7.454
  646POPC   NC311471   8.332  12.595   9.603
  646POPC   PO411472   7.990  13.222   9.469
  646POPC   GL111473   8.296  12.956   9.252
  646POPC   GL211474   8.182  12.648   9.123
  646POPC   C1A11475   8.471  12.987   8.833
  646POPC   D2A11476   8.256  13.118   8.452
  646POPC   C3A11477   8.503  13.090   8.076
  646POPC   C4A11478   8.527  12.878   7.678
  646POPC   C1B11479   7.996  12.810   8.777
  646POPC   C2B11480   7.941  12.696   8.376
  646POPC   C3B11481   8.128  12.766   8.009
  646POPC   C4B11482   8.068  12.681   7.594
  647POPC   NC311483  23.086  32.626   9.671
  647POPC   PO411484  23.700  32.948   9.587
  647POPC   GL111485  23.740  32.901   9.177
  647POPC   GL211486  24.109  32.864   9.213
  647POPC   C1A11487  23.494  32.989   8.822
  647POPC   D2A11488  23.436  33.239   8.453
  647POPC   C3A11489  23.584  33.040   8.100
  647POPC   C4A11490  23.397  32.840   7.767
  647POPC   C1B11491  24.098  33.012   8.801
  647POPC   C2B11492  23.984  33.057   8.423
  647POPC   C3B11493  24.060  32.819   8.063
  647POPC   C4B11494  23.886  32.908   7.656
  648POPC   NC311495  30.387  25.449   9.518
  648POPC   PO411496  30.691  24.882   9.577
  648POPC   GL111497  30.906  25.035   9.216
  648POPC   GL211498  30.585  25.096   9.072
  648POPC   C1A11499  31.094  25.138   8.818
  648POPC   D2A11500  30.888  25.133   8.455
  648POPC   C3A11501  31.034  25.343   8.130
  648POPC   C4A11502  31.097  25.349   7.719
  648POPC   C1B11503  30.684  25.468   8.823
  648POPC   C2B11504  30.616  25.558   8.376
  648POPC   C3B11505  30.532  25.276   8.052
  648POPC   C4B11506  30.278  25.148   7.735
  649POPC   NC311507  15.392  25.536   9.533
  649POPC   PO411508  15.305  24.816   9.582
  649POPC   GL111509  15.413  25.118   9.255
  649POPC   GL211510  15.099  25.293   9.205
  649POPC   C1A11511  15.562  25.073   8.817
  649POPC   D2A11512  15.554  25.337   8.422
  649POPC   C3A11513  15.337  25.221   8.069
  649POPC   C4A11514  15.356  25.296   7.649
  649POPC   C1B11515  15.158  25.384   8.768
  649POPC   C2B11516  15.018  25.521   8.358
  649POPC   C3B11517  14.722  25.401   8.044
  649POPC   C4B11518  14.900  25.096   7.839
  650POPC   NC311519  30.873  28.737   9.745
  650POPC   PO411520  30.479  29.236   9.479
  650POPC   GL111521  30.753  29.281   9.071
  650POPC   GL211522  30.820  29.596   9.161
  650POPC   C1A11523  30.997  29.060   8.691
  650POPC   D2A11524  31.008  28.776   8.317
  650POPC   C3A11525  30.587  28.859   8.131
  650POPC   C4A11526  30.379  29.025   7.759
  650POPC   C1B11527  30.488  29.594   8.814
  650POPC   C2B11528  30.547  29.276   8.519
  650POPC   C3B11529  30.873  29.302   8.213
  650POPC   C4B11530  30.881  29.166   7.800
  651POPC   NC311531   7.219  29.373   9.741
  651POPC   PO411532   7.759  29.005   9.633
  651POPC   GL111533   7.593  29.117   9.232
  651POPC   GL211534   7.252  29.233   9.173
  651POPC   C1A11535   7.572  28.994   8.788
  651POPC   D2A11536   7.736  29.303   8.494
  651POPC   C3A11537   7.664  29.196   8.078
  651POPC   C4A11538   7.666  28.775   7.850
  651POPC   C1B11539   7.238  29.369   8.712
  651POPC   C2B11540   7.276  29.518   8.280
  651POPC   C3B11541   7.196  29.337   7.878
  651POPC   C4B11542   7.133  29.418   7.458
  652POPC   NC311543   9.464  10.072   9.370
  652POPC   PO411544   9.927  10.513   9.658
  652POPC   GL111545   9.923  10.328   9.241
  652POPC   GL211546   9.673  10.449   9.053
  652POPC   C1A11547  10.098  10.339   8.806
  652POPC   D2A11548  10.201  10.498   8.402
  652POPC   C3A11549   9.973  10.406   8.007
  652POPC   C4A11550   9.846  10.571   7.621
  652POPC   C1B11551   9.468  10.579   8.714
  652POPC   C2B11552   9.520  10.344   8.364
  652POPC   C3B11553   9.453  10.462   7.979
  652POPC   C4B11554   9.349  10.713   7.673
  653POPC   NC311555  37.580  23.045   9.395
  653POPC   PO411556  37.538  22.375   9.439
  653POPC   GL111557  37.675  22.603   9.097
  653POPC   GL211558  37.447  22.848   8.925
  653POPC   C1A11559  37.890  22.660   8.714
  653POPC   D2A11560  37.730  23.009   8.493
  653POPC   C3A11561  37.673  22.936   8.077
  653POPC   C4A11562  37.980  22.827   7.767
  653POPC   C1B11563  37.399  23.303   8.743
  653POPC   C2B11564  37.498  23.411   8.268
  653POPC   C3B11565  37.311  23.308   7.823
  653POPC   C4B11566  37.354  23.515   7.371
  654POPC   NC311567  19.518  34.941   9.380
  654POPC   PO411568  20.126  35.256   9.503
  654POPC   GL111569  19.777  35.415   9.224
  654POPC   GL211570  19.666  35.754   9.152
  654POPC   C1A11571  19.632  35.402   8.789
  654POPC   D2A11572  19.854  35.169   8.479
  654POPC   C3A11573  19.843  35.296   8.105
  654POPC   C4A11574  19.840  35.324   7.707
  654POPC   C1B11575  19.821  35.866   8.708
  654POPC   C2B11576  19.713  35.801   8.243
  654POPC   C3B11577  19.884  35.810   7.814
  654POPC   C4B11578  19.892  35.709   7.348
  655POPC   NC311579  43.405   5.436   9.437
  655POPC   PO411580  44.080   5.172   9.588
  655POPC   GL111581  44.003   5.009   9.184
  655POPC   GL211582  43.810   5.308   9.152
  655POPC   C1A11583  43.993   4.785   8.772
  655POPC   D2A11584  44.011   5.017   8.361
  655POPC   C3A11585  43.783   4.959   7.996
  655POPC   C4A11586  43.849   4.801   7.591
  655POPC   C1B11587  43.709   5.529   8.786
  655POPC   C2B11588  43.699   5.410   8.368
  655POPC   C3B11589  43.779   5.481   7.978
  655POPC   C4B11590  43.787   5.298   7.605
  656POPC   NC311591  39.471  44.119   9.496
  656POPC   PO411592  39.139  43.541   9.525
  656POPC   GL111593  39.440  43.651   9.143
  656POPC   GL211594  39.615  43.987   9.046
  656POPC   C1A11595  39.484  43.705   8.673
  656POPC   D2A11596  39.097  43.783   8.455
  656POPC   C3A11597  39.261  43.856   8.084
  656POPC   C4A11598  39.073  43.819   7.695
  656POPC   C1B11599  39.299  44.181   8.756
  656POPC   C2B11600  39.183  44.308   8.332
  656POPC   C3B11601  39.280  44.312   7.886
  656POPC   C4B11602  39.636  44.088   7.770
  657POPC   NC311603  26.035   1.814   9.541
  657POPC   PO411604  26.483   2.352   9.423
  657POPC   GL111605  26.197   2.099   9.125
  657POPC   GL211606  26.239   1.729   9.064
  657POPC   C1A11607  26.062   2.024   8.688
  657POPC   D2A11608  26.165   1.731   8.408
  657POPC   C3A11609  26.182   1.955   8.075
  657POPC   C4A11610  25.977   2.027   7.740
  657POPC   C1B11611  25.822   1.626   8.855
  657POPC   C2B11612  25.659   1.666   8.439
  657POPC   C3B11613  25.791   1.618   8.020
  657POPC   C4B11614  25.743   1.600   7.565
  658POPC   NC311615  24.906  33.571   9.902
  658POPC   PO411616  25.124  34.040   9.461
  658POPC   GL111617  25.284  34.091   9.094
  658POPC   GL211618  25.207  33.740   9.049
  658POPC   C1A11619  25.341  34.051   8.688
  658POPC   D2A11620  25.289  33.751   8.425
  658POPC   C3A11621  25.410  33.959   8.069
  658POPC   C4A11622  25.308  33.827   7.699
  658POPC   C1B11623  25.510  33.495   8.857
  658POPC   C2B11624  25.566  33.323   8.450
  658POPC   C3B11625  25.390  33.412   8.037
  658POPC   C4B11626  25.457  33.253   7.621
  659POPC   NC311627  15.735  44.684   9.537
  659POPC   PO411628  16.182  44.162   9.483
  659POPC   GL111629  15.954  44.395   9.180
  659POPC   GL211630  15.618  44.313   9.174
  659POPC   C1A11631  16.038  44.650   8.835
  659POPC   D2A11632  16.302  44.520   8.500
  659POPC   C3A11633  16.175  44.726   8.120
  659POPC   C4A11634  16.029  44.709   7.696
  659POPC   C1B11635  15.585  44.399   8.780
  659POPC   C2B11636  15.809  44.413   8.422
  659POPC   C3B11637  15.820  44.366   8.021
  659POPC   C4B11638  15.515  44.549   7.761
  660POPC   NC311639  41.014  21.869   9.550
  660POPC   PO411640  40.474  22.295   9.460
  660POPC   GL111641  40.730  22.097   9.138
  660POPC   GL211642  41.044  21.952   9.064
  660POPC   C1A11643  40.813  22.227   8.706
  660POPC   D2A11644  40.535  22.331   8.356
  660POPC   C3A11645  40.757  22.215   8.002
  660POPC   C4A11646  40.815  22.357   7.602
  660POPC   C1B11647  40.991  21.719   8.725
  660POPC   C2B11648  41.079  21.856   8.324
  660POPC   C3B11649  41.002  21.755   7.926
  660POPC   C4B11650  41.139  21.969   7.561
  661POPC   NC311651  42.369  14.018   9.453
  661POPC   PO411652  42.434  13.413   9.753
  661POPC   GL111653  42.518  13.408   9.291
  661POPC   GL211654  42.215  13.552   9.177
  661POPC   C1A11655  42.616  13.516   8.840
  661POPC   D2A11656  42.351  13.553   8.447
  661POPC   C3A11657  42.422  13.494   8.026
  661POPC   C4A11658  42.040  13.656   7.777
  661POPC   C1B11659  42.238  13.860   8.841
  661POPC   C2B11660  42.435  14.058   8.458
  661POPC   C3B11661  42.311  13.976   8.076
  661POPC   C4B11662  42.478  13.879   7.659
  662POPC   NC311663  37.300  26.292   9.574
  662POPC   PO411664  36.943  25.726   9.472
  662POPC   GL111665  36.936  26.023   9.178
  662POPC   GL211666  37.178  26.238   9.107
  662POPC   C1A11667  36.800  26.031   8.776
  662POPC   D2A11668  36.999  26.011   8.384
  662POPC   C3A11669  36.769  26.192   8.094
  662POPC   C4A11670  36.666  26.123   7.689
  662POPC   C1B11671  37.297  26.173   8.756
  662POPC   C2B11672  37.377  26.429   8.415
  662POPC   C3B11673  37.197  26.455   8.041
  662POPC   C4B11674  37.114  26.367   7.625
  663POPC   NC311675  20.461  44.292   9.699
  663POPC   PO411676  19.877  43.874   9.613
  663POPC   GL111677  19.786  43.916   9.165
  663POPC   GL211678  19.890  43.621   9.034
  663POPC   C1A11679  19.721  44.165   8.792
  663POPC   D2A11680  19.527  44.202   8.391
  663POPC   C3A11681  19.806  44.280   8.059
  663POPC   C4A11682  19.839  43.955   7.764
  663POPC   C1B11683  20.070  43.752   8.641
  663POPC   C2B11684  20.110  43.831   8.194
  663POPC   C3B11685  20.340  43.783   7.783
  663POPC   C4B11686  20.677  43.741   7.433
  664POPC   NC311687  32.404   7.901   9.635
  664POPC   PO411688  31.908   8.212   9.285
  664POPC   GL111689  32.070   8.182   8.980
  664POPC   GL211690  32.398   8.097   9.117
  664POPC   C1A11691  32.012   8.292   8.581
  664POPC   D2A11692  32.327   8.043   8.431
  664POPC   C3A11693  32.217   7.975   8.053
  664POPC   C4A11694  32.154   7.796   7.717
  664POPC   C1B11695  32.482   8.406   8.785
  664POPC   C2B11696  32.500   8.503   8.333
  664POPC   C3B11697  32.408   8.400   7.875
  664POPC   C4B11698  32.563   8.048   7.616
  665POPC   NC311699  24.096  41.700   9.349
  665POPC   PO411700  24.745  41.895   9.415
  665POPC   GL111701  24.548  41.692   9.103
  665POPC   GL211702  24.436  41.350   9.106
  665POPC   C1A11703  24.575  41.605   8.703
  665POPC   D2A11704  24.288  41.593   8.367
  665POPC   C3A11705  24.516  41.582   7.989
  665POPC   C4A11706  24.370  41.715   7.586
  665POPC   C1B11707  24.374  41.144   8.657
  665POPC   C2B11708  24.396  41.126   8.182
  665POPC   C3B11709  24.418  41.042   7.768
  665POPC   C4B11710  24.163  41.223   7.494
  666POPC   NC311711  21.071   2.051   9.447
  666POPC   PO411712  21.730   1.630   9.500
  666POPC   GL111713  21.540   1.981   9.239
  666POPC   GL211714  21.291   1.774   9.082
  666POPC   C1A11715  21.376   2.200   8.837
  666POPC   D2A11716  21.267   1.932   8.510
  666POPC   C3A11717  21.300   2.004   8.073
  666POPC   C4A11718  21.121   2.299   7.823
  666POPC   C1B11719  21.603   1.692   8.811
  666POPC   C2B11720  21.672   1.623   8.409
  666POPC   C3B11721  21.738   1.711   8.002
  666POPC   C4B11722  21.477   1.731   7.657
  667POPC   NC311723  40.069  28.559   9.294
  667POPC   PO411724  39.901  29.243   9.523
  667POPC   GL111725  39.981  29.131   9.124
  667POPC   GL211726  40.010  28.847   8.877
  667POPC   C1A11727  39.979  29.332   8.774
  667POPC   D2A11728  39.912  29.135   8.390
  667POPC   C3A11729  39.986  29.357   8.057
  667POPC   C4A11730  40.253  29.295   7.730
  667POPC   C1B11731  40.378  29.056   8.627
  667POPC   C2B11732  40.426  29.086   8.207
  667POPC   C3B11733  40.202  28.836   7.937
  667POPC   C4B11734  40.204  28.840   7.502
  668POPC   NC311735  44.323  22.407   9.566
  668POPC   PO411736  43.728  22.093   9.564
  668POPC   GL111737  43.790  21.870   9.212
  668POPC   GL211738  44.105  22.055   9.224
  668POPC   C1A11739  43.827  22.001   8.808
  668POPC   D2A11740  43.819  22.288   8.524
  668POPC   C3A11741  43.821  22.109   8.140
  668POPC   C4A11742  43.799  22.356   7.792
  668POPC   C1B11743  44.159  22.398   8.912
  668POPC   C2B11744  44.336  22.346   8.499
  668POPC   C3B11745  44.257  22.368   8.052
  668POPC   C4B11746  44.183  22.735   7.829
  669POPC   NC311747  36.419  22.339   9.428
  669POPC   PO411748  35.880  21.888   9.510
  669POPC   GL111749  36.034  22.126   9.159
  669POPC   GL211750  35.958  22.495   9.157
  669POPC   C1A11751  36.359  22.088   8.815
  669POPC   D2A11752  36.441  22.200   8.368
  669POPC   C3A11753  36.072  22.096   8.123
  669POPC   C4A11754  36.081  21.903   7.736
  669POPC   C1B11755  35.860  22.361   8.729
  669POPC   C2B11756  35.950  22.576   8.349
  669POPC   C3B11757  36.165  22.576   7.978
  669POPC   C4B11758  35.932  22.465   7.649
  670POPC   NC311759  22.942  44.165   9.727
  670POPC   PO411760  23.344  43.662   9.460
  670POPC   GL111761  22.991  43.920   9.239
  670POPC   GL211762  22.975  44.313   9.219
  670POPC   C1A11763  22.848  43.971   8.818
  670POPC   D2A11764  22.943  43.682   8.483
  670POPC   C3A11765  22.957  43.830   8.070
  670POPC   C4A11766  23.017  43.638   7.684
  670POPC   C1B11767  23.211  44.378   8.808
  670POPC   C2B11768  23.222  44.150   8.438
  670POPC   C3B11769  23.362  44.164   8.043
  670POPC   C4B11770  23.088  44.391   7.797
  671POPC   NC311771  44.048   4.692   9.620
  671POPC   PO411772  43.522   4.329   9.494
  671POPC   GL111773  43.832   4.445   9.156
  671POPC   GL211774  44.226   4.543   9.155
  671POPC   C1A11775  43.684   4.375   8.729
  671POPC   D2A11776  43.662   4.640   8.381
  671POPC   C3A11777  43.810   4.440   8.003
  671POPC   C4A11778  43.662   4.079   7.804
  671POPC   C1B11779  44.192   4.287   8.802
  671POPC   C2B11780  44.044   4.178   8.393
  671POPC   C3B11781  44.275   4.140   8.006
  671POPC   C4B11782  44.241   4.480   7.708
  672POPC   NC311783  16.331  22.700   9.993
  672POPC   PO411784  15.872  22.940   9.591
  672POPC   GL111785  15.987  22.990   9.187
  672POPC   GL211786  16.254  22.746   9.208
  672POPC   C1A11787  15.777  23.061   8.793
  672POPC   D2A11788  15.704  22.867   8.408
  672POPC   C3A11789  15.519  23.007   8.035
  672POPC   C4A11790  15.669  22.954   7.604
  672POPC   C1B11791  16.286  22.827   8.768
  672POPC   C2B11792  16.201  22.718   8.337
  672POPC   C3B11793  16.073  22.957   7.943
  672POPC   C4B11794  16.211  22.954   7.493
  673POPC   NC311795  32.560   1.658   9.445
  673POPC   PO411796  32.057   2.142   9.494
  673POPC   GL111797  32.182   1.914   9.188
  673POPC   GL211798  31.882   1.771   9.083
  673POPC   C1A11799  32.455   1.895   8.833
  673POPC   D2A11800  32.472   1.776   8.415
  673POPC   C3A11801  32.426   2.041   8.049
  673POPC   C4A11802  32.335   1.887   7.638
  673POPC   C1B11803  31.996   1.815   8.672
  673POPC   C2B11804  31.983   1.961   8.289
  673POPC   C3B11805  32.009   1.721   7.983
  673POPC   C4B11806  31.952   1.559   7.579
  674POPC   NC311807  11.164   4.818   9.523
  674POPC   PO411808  11.533   5.362   9.718
  674POPC   GL111809  11.359   5.295   9.244
  674POPC   GL211810  11.108   5.056   9.089
  674POPC   C1A11811  11.297   5.394   8.763
  674POPC   D2A11812  11.280   5.369   8.283
  674POPC   C3A11813  11.278   5.000   8.061
  674POPC   C4A11814  11.432   4.748   7.724
  674POPC   C1B11815  11.048   4.913   8.674
  674POPC   C2B11816  10.825   5.110   8.336
  674POPC   C3B11817  10.762   5.006   7.945
  674POPC   C4B11818  10.983   4.938   7.603
  675POPC   NC311819   0.253  26.659   9.479
  675POPC   PO411820   0.768  26.910   9.719
  675POPC   GL111821   0.593  26.976   9.255
  675POPC   GL211822   0.222  27.016   9.130
  675POPC   C1A11823   0.638  26.983   8.787
  675POPC   D2A11824   0.657  26.791   8.386
  675POPC   C3A11825   0.707  26.978   7.976
  675POPC   C4A11826   0.530  26.945   7.528
  675POPC   C1B11827   0.259  26.649   8.798
  675POPC   C2B11828   0.190  26.510   8.373
  675POPC   C3B11829   0.361  26.597   7.987
  675POPC   C4B11830   0.285  26.505   7.583
  676POPC   NC311831   3.973  31.928   9.485
  676POPC   PO411832   4.190  31.234   9.479
  676POPC   GL111833   4.264  31.465   9.111
  676POPC   GL211834   4.431  31.761   9.264
  676POPC   C1A11835   4.363  31.298   8.677
  676POPC   D2A11836   4.437  31.023   8.286
  676POPC   C3A11837   4.313  31.291   7.930
  676POPC   C4A11838   4.642  31.410   7.716
  676POPC   C1B11839   4.620  31.722   8.857
  676POPC   C2B11840   4.611  31.700   8.415
  676POPC   C3B11841   4.655  31.847   7.996
  676POPC   C4B11842   4.321  31.800   7.699
  677POPC   NC311843  17.108  30.160   9.461
  677POPC   PO411844  16.641  29.568   9.462
  677POPC   GL111845  16.768  29.870   9.185
  677POPC   GL211846  17.137  29.750   9.163
  677POPC   C1A11847  16.564  29.945   8.783
  677POPC   D2A11848  16.408  29.716   8.444
  677POPC   C3A11849  16.566  29.951   8.107
  677POPC   C4A11850  16.478  30.219   7.757
  677POPC   C1B11851  17.064  29.968   8.765
  677POPC   C2B11852  16.994  30.153   8.341
  677POPC   C3B11853  17.029  29.911   7.930
  677POPC   C4B11854  16.899  29.971   7.510
  678POPC   NC311855  32.753   9.874   9.510
  678POPC   PO411856  33.294   9.690   9.325
  678POPC   GL111857  32.913   9.693   9.053
  678POPC   GL211858  32.817  10.049   9.033
  678POPC   C1A11859  33.004   9.658   8.618
  678POPC   D2A11860  33.426   9.707   8.434
  678POPC   C3A11861  33.450   9.465   8.052
  678POPC   C4A11862  33.175   9.569   7.723
  678POPC   C1B11863  32.587   9.954   8.677
  678POPC   C2B11864  32.553   9.670   8.358
  678POPC   C3B11865  32.830   9.763   8.052
  678POPC   C4B11866  32.618   9.982   7.766
  679POPC   NC311867  15.429  12.371   9.491
  679POPC   PO411868  14.973  11.920   9.655
  679POPC   GL111869  15.110  12.020   9.208
  679POPC   GL211870  15.401  12.220   9.012
  679POPC   C1A11871  15.047  11.977   8.762
  679POPC   D2A11872  15.272  12.166   8.457
  679POPC   C3A11873  15.006  12.118   8.131
  679POPC   C4A11874  15.008  12.222   7.736
  679POPC   C1B11875  15.630  11.906   8.747
  679POPC   C2B11876  15.714  11.907   8.330
  679POPC   C3B11877  15.527  12.053   8.003
  679POPC   C4B11878  15.390  11.857   7.684
  680POPC   NC311879   0.171  12.431   9.471
  680POPC   PO411880   0.019  11.795   9.495
  680POPC   GL111881   0.227  11.989   9.111
  680POPC   GL211882   0.475  12.302   9.078
  680POPC   C1A11883   0.426  11.925   8.695
  680POPC   D2A11884   0.624  12.156   8.313
  680POPC   C3A11885   0.531  11.984   7.886
  680POPC   C4A11886   0.437  11.934   7.434
  680POPC   C1B11887   0.135  12.389   8.795
  680POPC   C2B11888   0.120  12.186   8.396
  680POPC   C3B11889   0.182  12.344   7.982
  680POPC   C4B11890   0.023  12.217   7.555
  681POPC   NC311891  25.146  14.456   9.746
  681POPC   PO411892  25.710  14.460   9.535
  681POPC   GL111893  25.546  14.371   9.113
  681POPC   GL211894  25.274  14.138   9.139
  681POPC   C1A11895  25.736  14.206   8.713
  681POPC   D2A11896  25.484  14.114   8.304
  681POPC   C3A11897  25.318  14.244   7.877
  681POPC   C4A11898  25.172  14.541   7.558
  681POPC   C1B11899  25.005  14.171   8.743
  681POPC   C2B11900  24.986  14.218   8.279
  681POPC   C3B11901  24.795  14.234   7.873
  681POPC   C4B11902  24.665  14.435   7.477
  682POPC   NC311903  32.935  18.793   9.358
  682POPC   PO411904  33.178  19.379   9.584
  682POPC   GL111905  33.263  19.114   9.128
  682POPC   GL211906  32.980  18.945   8.874
  682POPC   C1A11907  33.434  19.063   8.726
  682POPC   D2A11908  33.232  19.294   8.401
  682POPC   C3A11909  32.979  19.005   8.198
  682POPC   C4A11910  33.251  18.885   7.867
  682POPC   C1B11911  32.735  19.247   8.593
  682POPC   C2B11912  32.790  19.528   8.231
  682POPC   C3B11913  33.009  19.391   7.872
  682POPC   C4B11914  32.792  19.007   7.711
  683POPC   NC311915  20.222  27.503   9.437
  683POPC   PO411916  20.841  27.748   9.277
  683POPC   GL111917  20.572  27.614   9.060
  683POPC   GL211918  20.626  27.292   9.216
  683POPC   C1A11919  20.607  27.805   8.678
  683POPC   D2A11920  20.858  28.039   8.427
  683POPC   C3A11921  20.690  27.821   8.135
  683POPC   C4A11922  20.542  27.783   7.754
  683POPC   C1B11923  20.546  27.173   8.810
  683POPC   C2B11924  20.675  27.360   8.457
  683POPC   C3B11925  20.582  27.333   8.057
  683POPC   C4B11926  20.507  27.272   7.652
  684POPC   NC311927  38.793  35.345   9.637
  684POPC   PO411928  39.449  35.383   9.559
  684POPC   GL111929  39.219  35.369   9.230
  684POPC   GL211930  39.027  35.057   9.266
  684POPC   C1A11931  39.144  35.410   8.801
  684POPC   D2A11932  39.200  35.178   8.452
  684POPC   C3A11933  39.173  35.373   8.058
  684POPC   C4A11934  39.226  35.419   7.616
  684POPC   C1B11935  38.882  34.823   8.893
  684POPC   C2B11936  38.761  34.916   8.502
  684POPC   C3B11937  38.708  35.201   8.198
  684POPC   C4B11938  38.827  35.119   7.778
  685POPC   NC311939  27.253  16.569   9.834
  685POPC   PO411940  26.674  16.827   9.608
  685POPC   GL111941  26.872  16.867   9.160
  685POPC   GL211942  26.629  16.620   9.016
  685POPC   C1A11943  27.088  16.674   8.775
  685POPC   D2A11944  27.205  16.398   8.401
  685POPC   C3A11945  27.092  16.625   8.013
  685POPC   C4A11946  27.004  17.094   7.981
  685POPC   C1B11947  26.619  16.803   8.613
  685POPC   C2B11948  26.553  16.999   8.227
  685POPC   C3B11949  26.614  16.764   7.879
  685POPC   C4B11950  26.491  16.752   7.507
  686POPC   NC311951  40.326  21.146   9.623
  686POPC   PO411952  39.797  21.648   9.539
  686POPC   GL111953  40.065  21.439   9.258
  686POPC   GL211954  39.841  21.201   9.145
  686POPC   C1A11955  40.173  21.442   8.807
  686POPC   D2A11956  40.102  21.625   8.408
  686POPC   C3A11957  40.006  21.470   7.991
  686POPC   C4A11958  40.009  21.688   7.623
  686POPC   C1B11959  39.713  21.232   8.726
  686POPC   C2B11960  39.931  21.127   8.359
  686POPC   C3B11961  40.174  20.979   8.019
  686POPC   C4B11962  40.280  20.826   7.602
  687POPC   NC311963   6.858  41.283   9.424
  687POPC   PO411964   6.389  41.788   9.435
  687POPC   GL111965   6.669  41.684   9.123
  687POPC   GL211966   6.481  41.378   9.108
  687POPC   C1A11967   6.870  41.488   8.754
  687POPC   D2A11968   6.782  41.367   8.309
  687POPC   C3A11969   6.898  41.672   7.953
  687POPC   C4A11970   6.942  41.683   7.474
  687POPC   C1B11971   6.270  41.552   8.797
  687POPC   C2B11972   6.238  41.398   8.426
  687POPC   C3B11973   6.370  41.564   8.081
  687POPC   C4B11974   6.541  41.318   7.843
  688POPC   NC311975   6.833  25.376   9.557
  688POPC   PO411976   6.979  24.764   9.388
  688POPC   GL111977   6.820  25.159   9.082
  688POPC   GL211978   6.827  25.572   9.092
  688POPC   C1A11979   6.851  25.337   8.638
  688POPC   D2A11980   7.053  25.506   8.267
  688POPC   C3A11981   6.949  25.219   7.929
  688POPC   C4A11982   6.725  24.971   7.613
  688POPC   C1B11983   6.428  25.558   8.828
  688POPC   C2B11984   6.323  25.360   8.418
  688POPC   C3B11985   6.437  25.214   8.011
  688POPC   C4B11986   6.553  25.472   7.661
  689POPC   NC311987  42.703   5.231   9.313
  689POPC   PO411988  42.172   4.912   9.541
  689POPC   GL111989  42.064   5.057   9.166
  689POPC   GL211990  42.367   4.990   9.005
  689POPC   C1A11991  42.021   5.293   8.771
  689POPC   D2A11992  42.327   5.226   8.477
  689POPC   C3A11993  42.203   5.322   8.094
  689POPC   C4A11994  42.268   5.193   7.682
  689POPC   C1B11995  42.700   4.756   8.803
  689POPC   C2B11996  42.521   4.743   8.409
  689POPC   C3B11997  42.597   4.965   8.050
  689POPC   C4B11998  42.517   4.752   7.687
  690POPC   NC311999   4.094  24.896   9.517
  690POPC   PO412000   4.759  25.186   9.630
  690POPC   GL112001   4.426  25.220   9.250
  690POPC   GL212002   4.206  25.541   9.170
  690POPC   C1A12003   4.255  25.182   8.804
  690POPC   D2A12004   4.510  25.135   8.464
  690POPC   C3A12005   4.461  25.057   8.040
  690POPC   C4A12006   4.105  25.125   7.826
  690POPC   C1B12007   4.591  25.559   8.866
  690POPC   C2B12008   4.742  25.589   8.441
  690POPC   C3B12009   4.484  25.553   8.098
  690POPC   C4B12010   4.603  25.569   7.708
  691POPC   NC312011  40.948  38.226   9.556
  691POPC   PO412012  40.501  38.676   9.465
  691POPC   GL112013  40.683  38.694   9.065
  691POPC   GL212014  40.927  38.497   9.118
  691POPC   C1A12015  40.789  38.665   8.629
  691POPC   D2A12016  40.594  38.595   8.240
  691POPC   C3A12017  40.805  38.822   7.953
  691POPC   C4A12018  41.020  38.807   7.564
  691POPC   C1B12019  40.756  38.184   8.791
  691POPC   C2B12020  40.790  38.141   8.327
  691POPC   C3B12021  41.025  38.354   7.980
  691POPC   C4B12022  41.038  38.231   7.545
  692POPC   NC312023  24.628   5.575   9.526
  692POPC   PO412024  24.254   6.085   9.259
  692POPC   GL112025  24.599   5.860   9.094
  692POPC   GL212026  24.864   6.056   9.201
  692POPC   C1A12027  24.605   5.806   8.677
  692POPC   D2A12028  24.585   6.086   8.357
  692POPC   C3A12029  24.488   5.906   8.020
  692POPC   C4A12030  24.346   5.624   7.749
  692POPC   C1B12031  25.042   6.118   8.792
  692POPC   C2B12032  25.013   6.348   8.390
  692POPC   C3B12033  24.918   6.186   7.952
  692POPC   C4B12034  24.760   6.214   7.464
  693POPC   NC312035  44.434  44.582   9.661
  693POPC   PO412036  44.907  44.951   9.548
  693POPC   GL112037  44.690  44.761   9.233
  693POPC   GL212038  44.440  44.980   9.122
  693POPC   C1A12039  44.818  44.652   8.822
  693POPC   D2A12040  44.786  44.788   8.386
  693POPC   C3A12041  44.820  44.517   8.030
  693POPC   C4A12042  44.655  44.710   7.678
  693POPC   C1B12043  44.371  44.833   8.690
  693POPC   C2B12044  44.276  44.732   8.235
  693POPC   C3B12045  44.174  44.800   7.799
  693POPC   C4B12046  44.218  44.572   7.386
  694POPC   NC312047  18.076  36.389   9.470
  694POPC   PO412048  18.588  35.944   9.556
  694POPC   GL112049  18.359  35.983   9.179
  694POPC   GL212050  18.100  36.180   9.022
  694POPC   C1A12051  18.364  35.845   8.744
  694POPC   D2A12052  18.183  36.009   8.368
  694POPC   C3A12053  18.307  36.059   7.922
  694POPC   C4A12054  18.222  36.050   7.421
  694POPC   C1B12055  17.913  36.518   8.825
  694POPC   C2B12056  17.746  36.511   8.443
  694POPC   C3B12057  17.891  36.334   8.093
  694POPC   C4B12058  17.996  36.395   7.701
  695POPC   NC312059  19.994   2.759   9.582
  695POPC   PO412060  19.759   2.295   9.126
  695POPC   GL112061  19.961   2.698   9.077
  695POPC   GL212062  19.662   2.888   9.191
  695POPC   C1A12063  20.088   2.765   8.660
  695POPC   D2A12064  20.016   2.554   8.270
  695POPC   C3A12065  20.057   2.837   7.929
  695POPC   C4A12066  19.873   2.805   7.515
  695POPC   C1B12067  19.567   2.857   8.753
  695POPC   C2B12068  19.707   2.976   8.347
  695POPC   C3B12069  19.540   2.879   7.936
  695POPC   C4B12070  19.406   2.980   7.531
  696POPC   NC312071  22.438   8.094   9.573
  696POPC   PO412072  23.000   8.331   9.353
  696POPC   GL112073  22.919   7.974   9.136
  696POPC   GL212074  22.591   7.811   9.150
  696POPC   C1A12075  22.946   7.999   8.708
  696POPC   D2A12076  23.087   7.758   8.426
  696POPC   C3A12077  23.244   8.005   8.120
  696POPC   C4A12078  23.171   8.198   7.748
  696POPC   C1B12079  22.518   8.205   8.887
  696POPC   C2B12080  22.643   8.399   8.487
  696POPC   C3B12081  22.773   8.347   8.049
  696POPC   C4B12082  22.733   7.936   7.861
  697POPC   NC312083   0.243   0.274   9.499
  697POPC   PO412084   0.651   0.754   9.491
  697POPC   GL112085   0.360   0.653   9.180
  697POPC   GL212086   0.579   0.373   9.134
  697POPC   C1A12087   0.167   0.473   8.827
  697POPC   D2A12088   0.301   0.575   8.425
  697POPC   C3A12089   0.307   0.353   8.048
  697POPC   C4A12090   0.597   0.550   7.790
  697POPC   C1B12091   0.625   0.236   8.757
  697POPC   C2B12092   0.664   0.179   8.371
  697POPC   C3B12093   0.699   0.025   7.975
  697POPC   C4B12094   0.574   0.077   7.584
  698POPC   NC312095  39.406  40.055   9.752
  698POPC   PO412096  38.844  40.198   9.529
  698POPC   GL112097  39.000  39.942   9.176
  698POPC   GL212098  39.333  39.983   9.149
  698POPC   C1A12099  38.867  39.769   8.782
  698POPC   D2A12100  38.894  39.946   8.373
  698POPC   C3A12101  38.854  39.710   8.000
  698POPC   C4A12102  38.928  39.918   7.654
  698POPC   C1B12103  39.547  40.230   8.849
  698POPC   C2B12104  39.454  40.249   8.409
  698POPC   C3B12105  39.309  40.004   8.048
  698POPC   C4B12106  39.403  40.080   7.622
  699POPC   NC312107  40.504  12.245   9.537
  699POPC   PO412108  41.105  12.054   9.529
  699POPC   GL112109  40.884  12.037   9.139
  699POPC   GL212110  40.568  12.191   9.044
  699POPC   C1A12111  40.979  12.189   8.733
  699POPC   D2A12112  41.128  12.263   8.332
  699POPC   C3A12113  40.907  12.138   7.946
  699POPC   C4A12114  40.994  11.873   7.585
  699POPC   C1B12115  40.513  12.420   8.667
  699POPC   C2B12116  40.620  12.472   8.227
  699POPC   C3B12117  40.354  12.288   7.874
  699POPC   C4B12118  40.403  12.316   7.419
  700POPC   NC312119  44.821  13.573   9.435
  700POPC   PO412120  44.306  14.011   9.531
  700POPC   GL112121  44.538  13.886   9.158
  700POPC   GL212122  44.400  13.540   9.110
  700POPC   C1A12123  44.859  13.740   8.806
  700POPC   D2A12124   0.015  13.672   8.372
  700POPC   C3A12125  44.716  13.545   8.089
  700POPC   C4A12126  44.653  13.531   7.657
  700POPC   C1B12127  44.340  13.788   8.715
  700POPC   C2B12128  44.193  13.834   8.305
  700POPC   C3B12129  44.349  13.859   7.922
  700POPC   C4B12130  44.459  14.153   7.638
  701POPC   NC312131   0.839  19.541   9.518
  701POPC   PO412132   1.325  19.967   9.522
  701POPC   GL112133   1.264  19.901   9.110
  701POPC   GL212134   0.929  19.844   9.132
  701POPC   C1A12135   1.304  20.071   8.699
  701POPC   D2A12136   1.120  19.998   8.298
  701POPC   C3A12137   1.420  20.102   7.965
  701POPC   C4A12138   1.411  20.160   7.515
  701POPC   C1B12139   0.973  19.681   8.742
  701POPC   C2B12140   0.944  19.499   8.378
  701POPC   C3B12141   1.091  19.593   8.003
  701POPC   C4B12142   0.988  19.952   7.782
  702POPC   NC312143  36.991  18.972   9.474
  702POPC   PO412144  36.593  19.549   9.388
  702POPC   GL112145  36.729  19.238   9.129
  702POPC   GL212146  37.055  19.372   9.162
  702POPC   C1A12147  36.760  18.927   8.790
  702POPC   D2A12148  36.728  19.074   8.373
  702POPC   C3A12149  36.573  18.880   8.002
  702POPC   C4A12150  36.710  18.954   7.581
  702POPC   C1B12151  37.207  19.180   8.798
  702POPC   C2B12152  37.272  18.915   8.439
  702POPC   C3B12153  37.091  18.913   8.031
  702POPC   C4B12154  37.194  18.996   7.622
  703POPC   NC312155  18.700  30.108   9.515
  703POPC   PO412156  19.305  29.700   9.458
  703POPC   GL112157  19.205  29.724   9.093
  703POPC   GL212158  18.850  29.662   9.044
  703POPC   C1A12159  19.304  29.881   8.736
  703POPC   D2A12160  19.059  29.753   8.419
  703POPC   C3A12161  19.270  29.784   8.038
  703POPC   C4A12162  19.529  30.072   7.823
  703POPC   C1B12163  18.835  30.075   8.885
  703POPC   C2B12164  18.806  30.240   8.496
  703POPC   C3B12165  18.830  30.126   8.108
  703POPC   C4B12166  19.057  30.228   7.801
  704POPC   NC312167  11.627  12.449   9.514
  704POPC   PO412168  11.345  13.031   9.502
  704POPC   GL112169  11.412  12.808   9.104
  704POPC   GL212170  11.712  12.629   9.052
  704POPC   C1A12171  11.183  12.697   8.710
  704POPC   D2A12172  11.020  12.709   8.271
  704POPC   C3A12173  11.293  12.898   7.934
  704POPC   C4A12174  11.586  12.910   7.551
  704POPC   C1B12175  11.699  12.794   8.642
  704POPC   C2B12176  11.527  12.617   8.269
  704POPC   C3B12177  11.668  12.493   7.817
  704POPC   C4B12178  11.878  12.524   7.376
  705POPC   NC312179   8.010   0.763   9.361
  705POPC   PO412180   7.977   1.370   9.611
  705POPC   GL112181   8.089   1.274   9.204
  705POPC   GL212182   8.415   1.151   9.230
  705POPC   C1A12183   8.022   1.186   8.772
  705POPC   D2A12184   8.109   1.154   8.331
  705POPC   C3A12185   7.777   1.338   8.101
  705POPC   C4A12186   7.847   1.618   7.732
  705POPC   C1B12187   8.598   1.054   8.814
  705POPC   C2B12188   8.625   1.209   8.395
  705POPC   C3B12189   8.492   1.068   7.996
  705POPC   C4B12190   8.126   1.179   7.775
  706POPC   NC312191   5.025  22.393   9.730
  706POPC   PO412192   4.807  21.853   9.490
  706POPC   GL112193   4.884  22.155   9.132
  706POPC   GL212194   5.000  22.488   9.221
  706POPC   C1A12195   5.066  22.095   8.705
  706POPC   D2A12196   5.240  22.286   8.308
  706POPC   C3A12197   5.356  22.072   7.916
  706POPC   C4A12198   5.738  21.859   7.859
  706POPC   C1B12199   5.061  22.598   8.777
  706POPC   C2B12200   4.912  22.680   8.337
  706POPC   C3B12201   4.952  22.501   7.900
  706POPC   C4B12202   4.768  22.223   7.552
  707POPC   NC312203  20.319   8.750   9.452
  707POPC   PO412204  19.626   8.479   9.597
  707POPC   GL112205  19.745   8.351   9.183
  707POPC   GL212206  19.808   7.997   9.118
  707POPC   C1A12207  19.859   8.431   8.795
  707POPC   D2A12208  19.662   8.385   8.386
  707POPC   C3A12209  19.602   7.996   8.218
  707POPC   C4A12210  19.677   7.969   7.806
  707POPC   C1B12211  20.134   7.980   8.806
  707POPC   C2B12212  20.390   7.922   8.419
  707POPC   C3B12213  20.440   8.166   8.066
  707POPC   C4B12214  20.130   8.204   7.781
  708POPC   NC312215  20.219  42.634   9.593
  708POPC   PO412216  20.691  42.187   9.573
  708POPC   GL112217  20.642  42.353   9.197
  708POPC   GL212218  20.395  42.592   9.126
  708POPC   C1A12219  20.556  42.197   8.808
  708POPC   D2A12220  20.468  42.450   8.476
  708POPC   C3A12221  20.640  42.282   8.137
  708POPC   C4A12222  20.585  42.114   7.736
  708POPC   C1B12223  20.205  42.855   8.821
  708POPC   C2B12224  20.073  42.783   8.418
  708POPC   C3B12225  20.285  42.663   8.025
  708POPC   C4B12226  20.285  42.498   7.587
  709POPC   NC312227  44.807  20.880   9.473
  709POPC   PO412228  44.711  20.215   9.540
  709POPC   GL112229  44.633  20.472   9.212
  709POPC   GL212230  44.338  20.705   9.189
  709POPC   C1A12231  44.821  20.412   8.829
  709POPC   D2A12232  44.974  20.579   8.458
  709POPC   C3A12233  44.764  20.528   8.084
  709POPC   C4A12234  44.764  20.199   7.794
  709POPC   C1B12235  44.544  20.827   8.779
  709POPC   C2B12236  44.615  20.994   8.345
  709POPC   C3B12237  44.446  20.896   7.929
  709POPC   C4B12238  44.528  20.610   7.608
  710POPC   NC312239  35.687   0.245   9.492
  710POPC   PO412240  35.045   0.516   9.504
  710POPC   GL112241  35.324   0.360   9.150
  710POPC   GL212242  35.509   0.031   9.087
  710POPC   C1A12243  35.647   0.478   8.849
  710POPC   D2A12244  35.723   0.790   8.509
  710POPC   C3A12245  35.464   0.670   8.175
  710POPC   C4A12246  35.529   0.656   7.740
  710POPC   C1B12247  35.375   0.018   8.696
  710POPC   C2B12248  35.280   0.210   8.327
  710POPC   C3B12249  35.474   0.200   7.939
  710POPC   C4B12250  35.496   0.216   7.470
  711POPC   NC312251  39.219  38.942   9.474
  711POPC   PO412252  39.246  39.640   9.555
  711POPC   GL112253  39.231  39.469   9.135
  711POPC   GL212254  39.558  39.491   8.990
  711POPC   C1A12255  39.206  39.207   8.750
  711POPC   D2A12256  39.400  38.905   8.473
  711POPC   C3A12257  39.323  39.037   8.076
  711POPC   C4A12258  39.444  39.093   7.665
  711POPC   C1B12259  39.362  39.744   8.692
  711POPC   C2B12260  39.220  39.548   8.348
  711POPC   C3B12261  39.427  39.510   8.001
  711POPC   C4B12262  39.269  39.564   7.676
  712POPC   NC312263  18.921  13.963   9.484
  712POPC   PO412264  19.233  14.690   9.506
  712POPC   GL112265  19.026  14.414   9.239
  712POPC   GL212266  19.318  14.209   9.227
  712POPC   C1A12267  18.858  14.207   8.834
  712POPC   D2A12268  18.736  14.010   8.408
  712POPC   C3A12269  18.719  14.322   8.061
  712POPC   C4A12270  18.995  14.459   7.716
  712POPC   C1B12271  19.349  14.014   8.823
  712POPC   C2B12272  19.332  14.155   8.422
  712POPC   C3B12273  19.410  13.970   8.035
  712POPC   C4B12274  19.196  13.994   7.642
  713POPC   NC312275  17.246  16.753   9.529
  713POPC   PO412276  16.631  16.892   9.537
  713POPC   GL112277  16.862  16.659   9.147
  713POPC   GL212278  17.222  16.557   9.070
  713POPC   C1A12279  16.682  16.619   8.715
  713POPC   D2A12280  16.652  16.959   8.375
  713POPC   C3A12281  16.835  16.904   7.953
  713POPC   C4A12282  16.699  16.552   7.714
  713POPC   C1B12283  17.175  16.769   8.676
  713POPC   C2B12284  17.010  16.591   8.315
  713POPC   C3B12285  17.173  16.500   7.931
  713POPC   C4B12286  17.158  16.433   7.518
  714POPC   NC312287  33.235  26.476   9.857
  714POPC   PO412288  33.054  25.901   9.463
  714POPC   GL112289  32.906  26.065   9.129
  714POPC   GL212290  33.064  26.395   9.211
  714POPC   C1A12291  32.976  25.804   8.768
  714POPC   D2A12292  33.335  25.684   8.486
  714POPC   C3A12293  33.209  25.631   8.054
  714POPC   C4A12294  33.278  25.759   7.635
  714POPC   C1B12295  33.237  26.251   8.782
  714POPC   C2B12296  32.990  26.131   8.383
  714POPC   C3B12297  33.004  26.099   7.946
  714POPC   C4B12298  33.305  26.331   7.706
  715POPC   NC312299   5.642  35.185   9.838
  715POPC   PO412300   4.979  35.100   9.589
  715POPC   GL112301   5.082  35.279   9.194
  715POPC   GL212302   5.011  35.643   9.179
  715POPC   C1A12303   5.213  35.151   8.776
  715POPC   D2A12304   5.051  35.227   8.351
  715POPC   C3A12305   5.383  35.411   8.095
  715POPC   C4A12306   5.460  35.141   7.766
  715POPC   C1B12307   5.042  35.662   8.711
  715POPC   C2B12308   4.962  35.726   8.253
  715POPC   C3B12309   4.946  35.463   7.854
  715POPC   C4B12310   5.316  35.592   7.578
  716POPC   NC312311  20.356  18.911   9.559
  716POPC   PO412312  20.906  19.165   9.488
  716POPC   GL112313  20.715  19.058   9.127
  716POPC   GL212314  20.412  19.208   9.154
  716POPC   C1A12315  20.846  19.038   8.690
  716POPC   D2A12316  20.919  19.264   8.312
  716POPC   C3A12317  20.726  19.127   7.931
  716POPC   C4A12318  20.831  19.254   7.524
  716POPC   C1B12319  20.411  19.274   8.744
  716POPC   C2B12320  20.417  19.072   8.369
  716POPC   C3B12321  20.233  18.985   7.968
  716POPC   C4B12322  20.333  19.074   7.548
  717POPC   NC312323  43.590  30.667   9.533
  717POPC   PO412324  42.909  30.951   9.701
  717POPC   GL112325  43.102  30.804   9.314
  717POPC   GL212326  43.379  31.008   9.231
  717POPC   C1A12327  43.015  30.539   8.941
  717POPC   D2A12328  42.930  30.511   8.494
  717POPC   C3A12329  43.076  30.682   8.113
  717POPC   C4A12330  42.869  30.739   7.736
  717POPC   C1B12331  43.473  31.164   8.856
  717POPC   C2B12332  43.329  30.993   8.485
  717POPC   C3B12333  43.437  31.065   8.115
  717POPC   C4B12334  43.335  30.965   7.747
  718POPC   NC312335  24.243  22.692   9.536
  718POPC   PO412336  23.575  23.016   9.542
  718POPC   GL112337  23.496  22.882   9.141
  718POPC   GL212338  23.854  22.768   9.193
  718POPC   C1A12339  23.619  22.967   8.743
  718POPC   D2A12340  23.784  22.838   8.363
  718POPC   C3A12341  23.500  22.753   8.053
  718POPC   C4A12342  23.463  23.074   7.772
  718POPC   C1B12343  24.020  22.648   8.828
  718POPC   C2B12344  24.081  22.370   8.516
  718POPC   C3B12345  23.978  22.446   8.098
  718POPC   C4B12346  23.966  22.815   7.853
  719POPC   NC312347  21.345  30.507   9.451
  719POPC   PO412348  20.796  30.879   9.554
  719POPC   GL112349  21.076  30.820   9.173
  719POPC   GL212350  20.924  31.147   9.103
  719POPC   C1A12351  21.459  30.710   8.828
  719POPC   D2A12352  21.612  30.724   8.367
  719POPC   C3A12353  21.444  30.502   7.993
  719POPC   C4A12354  21.402  30.455   7.542
  719POPC   C1B12355  21.034  30.940   8.708
  719POPC   C2B12356  21.267  31.081   8.437
  719POPC   C3B12357  21.167  30.902   8.123
  719POPC   C4B12358  21.153  30.866   7.741
  720POPC   NC312359  27.659  38.247   9.765
  720POPC   PO412360  27.849  38.932   9.656
  720POPC   GL112361  27.762  38.731   9.259
  720POPC   GL212362  27.583  38.423   9.289
  720POPC   C1A12363  27.530  38.708   8.870
  720POPC   D2A12364  27.337  38.726   8.455
  720POPC   C3A12365  27.622  38.653   8.092
  720POPC   C4A12366  27.442  38.768   7.710
  720POPC   C1B12367  27.304  38.226   8.967
  720POPC   C2B12368  27.297  38.184   8.514
  720POPC   C3B12369  27.204  38.367   8.113
  720POPC   C4B12370  27.341  38.255   7.723
  721POPC   NC312371  39.056  13.081   9.654
  721POPC   PO412372  39.446  12.572   9.727
  721POPC   GL112373  39.444  12.790   9.316
  721POPC   GL212374  39.147  13.001   9.165
  721POPC   C1A12375  39.507  12.821   8.863
  721POPC   D2A12376  39.527  13.084   8.493
  721POPC   C3A12377  39.396  12.894   8.099
  721POPC   C4A12378  39.269  13.065   7.712
  721POPC   C1B12379  39.056  13.186   8.744
  721POPC   C2B12380  38.981  13.162   8.289
  721POPC   C3B12381  38.856  12.874   7.972
  721POPC   C4B12382  38.446  12.861   7.764
  722POPC   NC312383  44.085  25.719   9.512
  722POPC   PO412384  43.929  26.363   9.585
  722POPC   GL112385  44.065  26.151   9.205
  722POPC   GL212386  43.771  25.941   9.154
  722POPC   C1A12387  43.949  26.207   8.760
  722POPC   D2A12388  43.671  26.110   8.409
  722POPC   C3A12389  43.762  26.337   8.039
  722POPC   C4A12390  44.008  26.215   7.747
  722POPC   C1B12391  44.021  25.703   8.842
  722POPC   C2B12392  44.137  25.838   8.421
  722POPC   C3B12393  43.953  25.801   8.034
  722POPC   C4B12394  44.203  25.711   7.693
  723POPC   NC312395   7.864  23.393   9.607
  723POPC   PO412396   7.463  23.890   9.437
  723POPC   GL112397   7.308  23.669   9.108
  723POPC   GL212398   7.423  23.375   9.314
  723POPC   C1A12399   7.279  23.805   8.679
  723POPC   D2A12400   7.559  24.082   8.453
  723POPC   C3A12401   7.560  24.121   8.014
  723POPC   C4A12402   7.322  23.859   7.746
  723POPC   C1B12403   7.596  23.277   8.911
  723POPC   C2B12404   7.436  23.349   8.529
  723POPC   C3B12405   7.443  23.518   8.128
  723POPC   C4B12406   7.479  23.370   7.709
  724POPC   NC312407  17.459  32.460   9.521
  724POPC   PO412408  17.559  31.834   9.458
  724POPC   GL112409  17.469  32.078   9.080
  724POPC   GL212410  17.281  32.397   9.051
  724POPC   C1A12411  17.515  31.906   8.668
  724POPC   D2A12412  17.825  31.723   8.379
  724POPC   C3A12413  17.810  31.917   7.981
  724POPC   C4A12414  17.435  31.998   7.773
  724POPC   C1B12415  17.565  32.400   8.686
  724POPC   C2B12416  17.400  32.233   8.296
  724POPC   C3B12417  17.227  32.422   7.964
  724POPC   C4B12418  17.626  32.514   7.824
  725POPC   NC312419  42.117  33.535   9.478
  725POPC   PO412420  42.502  33.952   9.790
  725POPC   GL112421  42.435  33.928   9.295
  725POPC   GL212422  42.098  33.918   9.116
  725POPC   C1A12423  42.525  33.759   8.851
  725POPC   D2A12424  42.675  33.913   8.412
  725POPC   C3A12425  42.558  33.715   8.007
  725POPC   C4A12426  42.370  33.993   7.701
  725POPC   C1B12427  41.981  33.644   8.755
  725POPC   C2B12428  42.100  33.596   8.298
  725POPC   C3B12429  41.978  33.687   7.862
  725POPC   C4B12430  41.815  33.422   7.530
  726POPC   NC312431  42.532  31.124   9.463
  726POPC   PO412432  42.117  31.636   9.608
  726POPC   GL112433  42.280  31.550   9.175
  726POPC   GL212434  42.263  31.208   9.052
  726POPC   C1A12435  42.201  31.668   8.721
  726POPC   D2A12436  42.176  31.865   8.319
  726POPC   C3A12437  41.977  31.595   8.008
  726POPC   C4A12438  42.137  31.440   7.571
  726POPC   C1B12439  42.610  31.390   8.812
  726POPC   C2B12440  42.674  31.572   8.418
  726POPC   C3B12441  42.502  31.538   8.027
  726POPC   C4B12442  42.651  31.571   7.635
  727POPC   NC312443   9.433  44.067   9.343
  727POPC   PO412444   8.805  43.652   9.449
  727POPC   GL112445   8.775  43.651   9.052
  727POPC   GL212446   9.135  43.562   9.067
  727POPC   C1A12447   8.674  43.798   8.647
  727POPC   D2A12448   8.859  43.741   8.239
  727POPC   C3A12449   8.812  44.113   7.954
  727POPC   C4A12450   8.644  44.237   7.552
  727POPC   C1B12451   9.169  43.755   8.692
  727POPC   C2B12452   9.418  43.932   8.412
  727POPC   C3B12453   9.291  43.973   8.014
  727POPC   C4B12454   9.052  43.626   7.781
  728POPC   NC312455  40.562  33.045   9.656
  728POPC   PO412456  41.097  32.855   9.497
  728POPC   GL112457  40.822  32.983   9.173
  728POPC   GL212458  40.441  33.072   9.161
  728POPC   C1A12459  40.711  32.849   8.770
  728POPC   D2A12460  40.779  33.087   8.438
  728POPC   C3A12461  40.764  32.990   8.059
  728POPC   C4A12462  40.804  33.111   7.672
  728POPC   C1B12463  40.400  33.286   8.736
  728POPC   C2B12464  40.438  33.419   8.273
  728POPC   C3B12465  40.348  33.253   7.841
  728POPC   C4B12466  40.431  33.260   7.342
  729POPC   NC312467  42.437   3.721   9.302
  729POPC   PO412468  43.095   3.478   9.545
  729POPC   GL112469  43.173   3.459   9.125
  729POPC   GL212470  42.912   3.677   9.116
  729POPC   C1A12471  43.330   3.621   8.731
  729POPC   D2A12472  43.552   3.844   8.373
  729POPC   C3A12473  43.440   3.667   7.986
  729POPC   C4A12474  43.221   3.655   7.616
  729POPC   C1B12475  42.823   3.819   8.753
  729POPC   C2B12476  43.019   3.841   8.373
  729POPC   C3B12477  42.920   3.676   8.021
  729POPC   C4B12478  42.662   3.846   7.724
  730POPC   NC312479  37.247  27.842   9.490
  730POPC   PO412480  37.929  27.728   9.598
  730POPC   GL112481  37.699  27.693   9.194
  730POPC   GL212482  37.414  27.454   9.222
  730POPC   C1A12483  37.886  27.593   8.770
  730POPC   D2A12484  38.101  27.489   8.379
  730POPC   C3A12485  37.907  27.494   7.986
  730POPC   C4A12486  37.755  27.529   7.581
  730POPC   C1B12487  37.454  27.308   8.804
  730POPC   C2B12488  37.585  27.365   8.362
  730POPC   C3B12489  37.383  27.479   7.941
  730POPC   C4B12490  37.294  27.328   7.490
  731POPC   NC312491  30.215  34.798   9.411
  731POPC   PO412492  29.961  34.148   9.444
  731POPC   GL112493  29.922  34.441   9.077
  731POPC   GL212494  29.874  34.808   9.007
  731POPC   C1A12495  29.690  34.404   8.737
  731POPC   D2A12496  29.796  34.614   8.397
  731POPC   C3A12497  29.805  34.374   8.079
  731POPC   C4A12498  30.016  34.288   7.720
  731POPC   C1B12499  30.187  34.841   8.705
  731POPC   C2B12500  30.218  34.912   8.266
  731POPC   C3B12501  30.013  34.800   7.896
  731POPC   C4B12502  30.322  34.833   7.602
  732POPC   NC312503  43.512  10.636   9.522
  732POPC   PO412504  43.817  10.052   9.492
  732POPC   GL112505  43.984  10.416   9.224
  732POPC   GL212506  43.709  10.593   9.066
  732POPC   C1A12507  44.144  10.621   8.824
  732POPC   D2A12508  43.919  10.608   8.403
  732POPC   C3A12509  44.080  10.643   7.994
  732POPC   C4A12510  43.885  10.591   7.596
  732POPC   C1B12511  43.720  10.912   8.757
  732POPC   C2B12512  43.488  10.922   8.383
  732POPC   C3B12513  43.612  10.869   7.937
  732POPC   C4B12514  43.427  10.965   7.520
  733POPC   NC312515   9.739  24.870   9.987
  733POPC   PO412516   9.640  25.302   9.591
  733POPC   GL112517   9.544  25.091   9.218
  733POPC   GL212518   9.624  25.437   9.074
  733POPC   C1A12519   9.455  25.072   8.783
  733POPC   D2A12520   9.723  25.302   8.488
  733POPC   C3A12521   9.696  25.281   8.039
  733POPC   C4A12522   9.574  24.963   7.768
  733POPC   C1B12523   9.380  25.603   8.730
  733POPC   C2B12524   9.335  25.615   8.284
  733POPC   C3B12525   9.491  25.756   7.878
  733POPC   C4B12526   9.752  25.574   7.581
  734POPC   NC312527  41.418  25.994   9.587
  734POPC   PO412528  41.881  25.441   9.510
  734POPC   GL112529  41.666  25.731   9.192
  734POPC   GL212530  41.621  26.136   9.146
  734POPC   C1A12531  41.609  25.791   8.751
  734POPC   D2A12532  41.827  25.921   8.376
  734POPC   C3A12533  41.683  25.916   7.970
  734POPC   C4A12534  41.827  26.154   7.643
  734POPC   C1B12535  41.526  26.297   8.735
  734POPC   C2B12536  41.380  26.156   8.330
  734POPC   C3B12537  41.456  26.365   7.935
  734POPC   C4B12538  41.399  26.329   7.463
  735POPC   NC312539  17.492  23.641   9.699
  735POPC   PO412540  17.728  24.119   9.296
  735POPC   GL112541  17.638  23.705   9.066
  735POPC   GL212542  17.410  23.451   9.206
  735POPC   C1A12543  17.542  23.906   8.674
  735POPC   D2A12544  17.736  23.873   8.313
  735POPC   C3A12545  17.646  24.065   7.961
  735POPC   C4A12546  17.590  23.807   7.624
  735POPC   C1B12547  17.214  23.523   8.822
  735POPC   C2B12548  17.375  23.501   8.428
  735POPC   C3B12549  17.308  23.607   8.041
  735POPC   C4B12550  17.301  23.380   7.712
  736POPC   NC312551  11.767  17.364   9.643
  736POPC   PO412552  12.219  17.904   9.729
  736POPC   GL112553  12.175  17.672   9.323
  736POPC   GL212554  11.855  17.734   9.220
  736POPC   C1A12555  12.286  17.477   8.895
  736POPC   D2A12556  12.156  17.577   8.437
  736POPC   C3A12557  12.265  17.451   8.006
  736POPC   C4A12558  12.079  17.367   7.576
  736POPC   C1B12559  11.793  17.531   8.812
  736POPC   C2B12560  11.643  17.512   8.400
  736POPC   C3B12561  11.730  17.667   7.980
  736POPC   C4B12562  11.736  17.741   7.514
  737POPC   NC312563  21.921  34.948   9.458
  737POPC   PO412564  22.229  35.592   9.596
  737POPC   GL112565  22.079  35.362   9.184
  737POPC   GL212566  21.705  35.340   9.179
  737POPC   C1A12567  21.993  35.260   8.721
  737POPC   D2A12568  22.015  35.512   8.336
  737POPC   C3A12569  22.120  35.367   7.902
  737POPC   C4A12570  21.933  35.692   7.645
  737POPC   C1B12571  21.587  34.977   8.910
  737POPC   C2B12572  21.679  34.869   8.521
  737POPC   C3B12573  21.845  35.040   8.178
  737POPC   C4B12574  21.743  35.027   7.763
  738POPC   NC312575  16.548  11.207   9.677
  738POPC   PO412576  16.720  11.748   9.454
  738POPC   GL112577  16.814  11.356   9.227
  738POPC   GL212578  16.611  11.039   9.202
  738POPC   C1A12579  16.753  11.405   8.797
  738POPC   D2A12580  16.793  11.607   8.422
  738POPC   C3A12581  16.684  11.569   8.013
  738POPC   C4A12582  16.980  11.545   7.665
  738POPC   C1B12583  16.884  10.915   8.890
  738POPC   C2B12584  16.900  11.026   8.486
  738POPC   C3B12585  16.792  10.941   8.098
  738POPC   C4B12586  16.720  11.120   7.744
  739POPC   NC312587  42.070  30.239   9.402
  739POPC   PO412588  42.565  29.805   9.525
  739POPC   GL112589  42.434  29.683   9.127
  739POPC   GL212590  42.380  30.016   9.059
  739POPC   C1A12591  42.473  29.656   8.683
  739POPC   D2A12592  42.211  29.824   8.343
  739POPC   C3A12593  42.326  30.016   7.972
  739POPC   C4A12594  42.460  30.064   7.560
  739POPC   C1B12595  42.056  30.072   8.773
  739POPC   C2B12596  41.809  30.170   8.443
  739POPC   C3B12597  41.893  30.266   8.020
  739POPC   C4B12598  42.000  30.289   7.564
  740POPC   NC312599   4.212  37.146   9.562
  740POPC   PO412600   4.726  36.857   9.523
  740POPC   GL112601   4.427  36.917   9.150
  740POPC   GL212602   4.141  37.177   9.076
  740POPC   C1A12603   4.396  36.709   8.765
  740POPC   D2A12604   4.297  36.520   8.347
  740POPC   C3A12605   4.235  36.760   7.958
  740POPC   C4A12606   4.509  36.979   7.700
  740POPC   C1B12607   3.984  36.983   8.718
  740POPC   C2B12608   3.880  36.827   8.330
  740POPC   C3B12609   3.967  37.187   8.100
  740POPC   C4B12610   4.093  37.263   7.713
  741POPC   NC312611   9.587  44.478   9.782
  741POPC   PO412612   9.738  43.808   9.587
  741POPC   GL112613   9.858  43.920   9.123
  741POPC   GL212614   9.604  43.757   8.960
  741POPC   C1A12615  10.006  43.889   8.691
  741POPC   D2A12616   9.878  43.741   8.327
  741POPC   C3A12617   9.789  44.078   8.064
  741POPC   C4A12618   9.614  44.200   7.662
  741POPC   C1B12619   9.495  43.357   8.771
  741POPC   C2B12620   9.300  43.329   8.383
  741POPC   C3B12621   9.514  43.510   8.052
  741POPC   C4B12622   9.547  43.700   7.645
  742POPC   NC312623  28.739   1.246   9.579
  742POPC   PO412624  29.381   1.100   9.728
  742POPC   GL112625  29.213   1.013   9.260
  742POPC   GL212626  28.857   0.840   9.247
  742POPC   C1A12627  29.355   1.168   8.813
  742POPC   D2A12628  29.154   1.278   8.412
  742POPC   C3A12629  29.438   1.241   8.041
  742POPC   C4A12630  29.612   0.914   7.779
  742POPC   C1B12631  28.852   1.029   8.826
  742POPC   C2B12632  28.757   0.947   8.378
  742POPC   C3B12633  28.919   1.107   7.977
  742POPC   C4B12634  28.816   1.091   7.499
  743POPC   NC312635   1.001  38.752   9.928
  743POPC   PO412636   1.189  38.303   9.504
  743POPC   GL112637   1.350  38.365   9.119
  743POPC   GL212638   1.217  38.674   9.128
  743POPC   C1A12639   1.188  38.300   8.695
  743POPC   D2A12640   1.050  38.583   8.343
  743POPC   C3A12641   1.028  38.322   7.968
  743POPC   C4A12642   1.142  38.482   7.547
  743POPC   C1B12643   1.339  38.782   8.728
  743POPC   C2B12644   1.557  38.663   8.346
  743POPC   C3B12645   1.358  38.706   7.957
  743POPC   C4B12646   1.457  38.870   7.579
  744POPC   NC312647  20.099  20.851   9.573
  744POPC   PO412648  19.742  20.344   9.442
  744POPC   GL112649  19.664  20.577   9.107
  744POPC   GL212650  19.956  20.760   9.108
  744POPC   C1A12651  19.758  20.530   8.681
  744POPC   D2A12652  19.697  20.334   8.301
  744POPC   C3A12653  19.715  20.641   7.999
  744POPC   C4A12654  19.447  20.868   7.760
  744POPC   C1B12655  20.205  20.756   8.760
  744POPC   C2B12656  20.170  20.546   8.364
  744POPC   C3B12657  20.238  20.729   7.962
  744POPC   C4B12658  20.308  20.482   7.552
  745POPC   NC312659  44.357  36.168   9.494
  745POPC   PO412660  44.942  35.776   9.557
  745POPC   GL112661  44.669  35.883   9.210
  745POPC   GL212662  44.703  36.266   9.134
  745POPC   C1A12663  44.721  35.873   8.792
  745POPC   D2A12664  44.694  36.079   8.423
  745POPC   C3A12665  44.846  35.876   8.070
  745POPC   C4A12666  44.906  36.127   7.727
  745POPC   C1B12667  44.498  36.494   8.800
  745POPC   C2B12668  44.359  36.446   8.386
  745POPC   C3B12669  44.503  36.549   8.005
  745POPC   C4B12670  44.236  36.681   7.717
  746POPC   NC312671   5.859  31.556   9.583
  746POPC   PO412672   5.534  32.036   9.228
  746POPC   GL112673   5.807  31.684   9.074
  746POPC   GL212674   6.156  31.646   9.133
  746POPC   C1A12675   5.751  31.445   8.696
  746POPC   D2A12676   5.520  31.404   8.301
  746POPC   C3A12677   5.648  31.488   7.871
  746POPC   C4A12678   5.833  31.248   7.511
  746POPC   C1B12679   6.233  31.331   8.799
  746POPC   C2B12680   6.068  31.206   8.380
  746POPC   C3B12681   6.140  31.369   7.966
  746POPC   C4B12682   6.523  31.530   7.775
  747POPC   NC312683  38.769   3.046   9.529
  747POPC   PO412684  39.284   3.559   9.429
  747POPC   GL112685  39.217   3.663   9.015
  747POPC   GL212686  38.885   3.693   9.025
  747POPC   C1A12687  39.283   3.596   8.580
  747POPC   D2A12688  39.552   3.709   8.253
  747POPC   C3A12689  39.336   3.531   7.913
  747POPC   C4A12690  39.477   3.316   7.522
  747POPC   C1B12691  38.872   3.914   8.643
  747POPC   C2B12692  38.914   3.806   8.208
  747POPC   C3B12693  38.906   3.844   7.760
  747POPC   C4B12694  39.035   3.541   7.466
  748POPC   NC312695  32.072  29.643   9.363
  748POPC   PO412696  32.064  30.249   9.675
  748POPC   GL112697  32.229  30.081   9.197
  748POPC   GL212698  32.500  29.839   9.154
  748POPC   C1A12699  32.107  29.800   8.748
  748POPC   D2A12700  31.846  29.793   8.354
  748POPC   C3A12701  32.122  29.768   7.984
  748POPC   C4A12702  32.010  29.844   7.529
  748POPC   C1B12703  32.498  30.108   8.754
  748POPC   C2B12704  32.456  29.943   8.376
  748POPC   C3B12705  32.564  30.080   8.010
  748POPC   C4B12706  32.493  29.869   7.655
  749POPC   NC312707  11.868   5.270   9.418
  749POPC   PO412708  12.451   5.028   9.500
  749POPC   GL112709  12.250   4.890   9.142
  749POPC   GL212710  11.939   4.828   9.207
  749POPC   C1A12711  12.107   5.110   8.783
  749POPC   D2A12712  12.099   5.242   8.344
  749POPC   C3A12713  12.227   4.963   7.978
  749POPC   C4A12714  12.174   4.989   7.510
  749POPC   C1B12715  11.608   4.974   8.897
  749POPC   C2B12716  11.545   4.805   8.501
  749POPC   C3B12717  11.756   4.791   8.114
  749POPC   C4B12718  11.762   5.145   7.826
  750POPC   NC312719  16.999  37.514   9.461
  750POPC   PO412720  16.386  37.900   9.506
  750POPC   GL112721  16.541  37.550   9.210
  750POPC   GL212722  16.876  37.604   8.994
  750POPC   C1A12723  16.476  37.370   8.804
  750POPC   D2A12724  16.670  37.520   8.445
  750POPC   C3A12725  16.771  37.360   8.005
  750POPC   C4A12726  16.583  37.177   7.631
  750POPC   C1B12727  16.997  37.955   8.757
  750POPC   C2B12728  16.798  38.030   8.406
  750POPC   C3B12729  16.707  37.863   8.087
  750POPC   C4B12730  17.055  37.792   7.862
  751POPC   NC312731  28.580  10.905   9.542
  751POPC   PO412732  28.173  11.413   9.716
  751POPC   GL112733  28.212  11.385   9.233
  751POPC   GL212734  28.169  11.073   9.219
  751POPC   C1A12735  28.517  11.338   8.829
  751POPC   D2A12736  28.472  11.618   8.480
  751POPC   C3A12737  28.434  11.445   8.059
  751POPC   C4A12738  28.477  11.485   7.630
  751POPC   C1B12739  28.046  11.172   8.784
  751POPC   C2B12740  28.317  11.010   8.465
  751POPC   C3B12741  28.456  10.933   8.055
  751POPC   C4B12742  28.239  11.043   7.696
  752POPC   NC312743  25.028  13.251   9.416
  752POPC   PO412744  25.484  12.757   9.529
  752POPC   GL112745  25.299  12.763   9.136
  752POPC   GL212746  24.935  12.866   9.112
  752POPC   C1A12747  25.284  12.866   8.707
  752POPC   D2A12748  25.370  12.684   8.331
  752POPC   C3A12749  25.179  12.842   7.987
  752POPC   C4A12750  25.502  12.817   7.698
  752POPC   C1B12751  24.957  12.488   8.873
  752POPC   C2B12752  25.074  12.307   8.507
  752POPC   C3B12753  25.105  12.283   8.084
  752POPC   C4B12754  25.109  12.436   7.689
  753POPC   NC312755  40.053  38.840   9.587
  753POPC   PO412756  40.065  39.570   9.568
  753POPC   GL112757  40.022  39.403   9.179
  753POPC   GL212758  39.853  39.089   9.177
  753POPC   C1A12759  40.006  39.338   8.755
  753POPC   D2A12760  39.674  39.329   8.496
  753POPC   C3A12761  39.882  39.336   8.132
  753POPC   C4A12762  39.887  39.312   7.715
  753POPC   C1B12763  39.816  38.857   8.778
  753POPC   C2B12764  39.976  38.871   8.367
  753POPC   C3B12765  39.794  38.826   7.952
  753POPC   C4B12766  39.985  38.846   7.528
  754POPC   NC312767   5.829  10.305   9.362
  754POPC   PO412768   6.005   9.738   9.747
  754POPC   GL112769   5.815   9.788   9.327
  754POPC   GL212770   6.086   9.628   9.144
  754POPC   C1A12771   5.758   9.869   8.859
  754POPC   D2A12772   5.939   9.706   8.520
  754POPC   C3A12773   5.664   9.705   8.193
  754POPC   C4A12774   5.759   9.700   7.747
  754POPC   C1B12775   5.859   9.326   8.859
  754POPC   C2B12776   5.805   9.226   8.435
  754POPC   C3B12777   6.046   9.394   8.088
  754POPC   C4B12778   6.117   9.298   7.674
  755POPC   NC312779  10.196  17.173   9.449
  755POPC   PO412780   9.508  16.929   9.400
  755POPC   GL112781   9.737  16.791   9.084
  755POPC   GL212782   9.847  17.177   9.065
  755POPC   C1A12783   9.751  16.515   8.703
  755POPC   D2A12784   9.824  16.319   8.300
  755POPC   C3A12785   9.669  16.510   7.927
  755POPC   C4A12786   9.958  16.612   7.606
  755POPC   C1B12787   9.849  17.029   8.662
  755POPC   C2B12788   9.723  16.852   8.304
  755POPC   C3B12789   9.805  17.007   7.927
  755POPC   C4B12790   9.504  17.295   7.816
  756POPC   NC312791  40.089  28.582   9.799
  756POPC   PO412792  40.153  27.959   9.456
  756POPC   GL112793  40.096  28.121   9.052
  756POPC   GL212794  39.754  28.115   9.049
  756POPC   C1A12795  40.269  28.402   8.720
  756POPC   D2A12796  40.139  28.648   8.414
  756POPC   C3A12797  40.205  28.347   8.145
  756POPC   C4A12798  40.225  28.346   7.736
  756POPC   C1B12799  39.654  28.485   8.786
  756POPC   C2B12800  39.617  28.725   8.407
  756POPC   C3B12801  39.761  28.611   8.024
  756POPC   C4B12802  39.797  28.162   7.912
  757POPC   NC312803  11.577  40.881  10.160
  757POPC   PO412804  11.154  40.946   9.593
  757POPC   GL112805  11.321  40.856   9.192
  757POPC   GL212806  11.601  41.064   9.129
  757POPC   C1A12807  11.185  40.903   8.760
  757POPC   D2A12808  11.247  40.739   8.356
  757POPC   C3A12809  11.138  40.843   7.935
  757POPC   C4A12810  11.005  40.551   7.582
  757POPC   C1B12811  11.515  41.283   8.746
  757POPC   C2B12812  11.421  41.217   8.290
  757POPC   C3B12813  11.498  41.225   7.847
  757POPC   C4B12814  11.780  41.010   7.613
  758POPC   NC312815  21.800   9.717   9.720
  758POPC   PO412816  21.181   9.387   9.576
  758POPC   GL112817  21.289   9.489   9.136
  758POPC   GL212818  21.379   9.799   9.027
  758POPC   C1A12819  21.115   9.536   8.715
  758POPC   D2A12820  21.383   9.686   8.453
  758POPC   C3A12821  21.198   9.657   8.084
  758POPC   C4A12822  20.977   9.459   7.758
  758POPC   C1B12823  21.644  10.023   8.797
  758POPC   C2B12824  21.725  10.151   8.395
  758POPC   C3B12825  21.562  10.041   8.018
  758POPC   C4B12826  21.780   9.986   7.680
  759POPC   NC312827  25.501  36.725   9.509
  759POPC   PO412828  25.083  37.210   9.428
  759POPC   GL112829  25.231  36.948   9.131
  759POPC   GL212830  25.487  37.033   9.049
  759POPC   C1A12831  25.287  36.683   8.751
  759POPC   D2A12832  25.122  36.676   8.342
  759POPC   C3A12833  25.422  36.686   8.004
  759POPC   C4A12834  25.339  36.774   7.551
  759POPC   C1B12835  25.404  37.236   8.685
  759POPC   C2B12836  25.530  37.133   8.258
  759POPC   C3B12837  25.430  37.185   7.827
  759POPC   C4B12838  25.650  37.241   7.432
  760POPC   NC312839  43.100  16.273   9.597
  760POPC   PO412840  43.500  15.705   9.335
  760POPC   GL112841  43.380  16.007   9.117
  760POPC   GL212842  43.496  16.309   9.233
  760POPC   C1A12843  43.037  15.962   8.825
  760POPC   D2A12844  42.833  15.841   8.462
  760POPC   C3A12845  43.043  15.875   8.116
  760POPC   C4A12846  43.326  15.640   7.855
  760POPC   C1B12847  43.425  16.422   8.800
  760POPC   C2B12848  43.253  16.259   8.447
  760POPC   C3B12849  43.092  16.411   8.091
  760POPC   C4B12850  43.255  16.157   7.762
  761POPC   NC312851  10.095   1.982   9.449
  761POPC   PO412852  10.685   2.261   9.494
  761POPC   GL112853  10.541   2.082   9.149
  761POPC   GL212854  10.554   1.736   9.143
  761POPC   C1A12855  10.709   2.057   8.755
  761POPC   D2A12856  10.526   2.118   8.376
  761POPC   C3A12857  10.769   2.044   8.015
  761POPC   C4A12858  10.612   2.145   7.613
  761POPC   C1B12859  10.247   1.819   8.800
  761POPC   C2B12860  10.161   1.748   8.377
  761POPC   C3B12861  10.258   1.905   7.966
  761POPC   C4B12862  10.433   1.664   7.598
  762POPC   NC312863  19.761  44.938   9.898
  762POPC   PO412864  19.670   0.464   9.502
  762POPC   GL112865  19.787   0.567   9.101
  762POPC   GL212866  20.117   0.523   9.203
  762POPC   C1A12867  19.610   0.541   8.691
  762POPC   D2A12868  19.444   0.259   8.380
  762POPC   C3A12869  19.621   0.357   8.022
  762POPC   C4A12870  19.481   0.216   7.652
  762POPC   C1B12871  20.106   0.247   8.835
  762POPC   C2B12872  19.962   0.262   8.429
  762POPC   C3B12873  20.082   0.150   8.043
  762POPC   C4B12874  19.982   0.313   7.653
  763POPC   NC312875   7.787  39.985   9.530
  763POPC   PO412876   7.135  39.848   9.404
  763POPC   GL112877   7.372  40.116   9.131
  763POPC   GL212878   7.722  40.132   9.048
  763POPC   C1A12879   7.352  40.276   8.714
  763POPC   D2A12880   7.342  40.032   8.341
  763POPC   C3A12881   7.056  40.013   8.012
  763POPC   C4A12882   7.194  39.903   7.600
  763POPC   C1B12883   7.781  40.012   8.620
  763POPC   C2B12884   7.767  40.295   8.255
  763POPC   C3B12885   7.476  40.349   7.941
  763POPC   C4B12886   7.674  40.075   7.666
  764POPC   NC312887  23.875   8.605   9.951
  764POPC   PO412888  24.379   9.043   9.560
  764POPC   GL112889  24.323   9.006   9.108
  764POPC   GL212890  24.201   8.649   8.987
  764POPC   C1A12891  24.564   9.224   8.805
  764POPC   D2A12892  24.406   9.262   8.389
  764POPC   C3A12893  24.616   9.410   8.059
  764POPC   C4A12894  24.557   9.211   7.689
  764POPC   C1B12895  24.453   8.753   8.631
  764POPC   C2B12896  24.289   8.737   8.219
  764POPC   C3B12897  24.255   8.766   7.776
  764POPC   C4B12898  24.243   8.522   7.404
  765POPC   NC312899  36.872   8.916   9.651
  765POPC   PO412900  37.410   9.319   9.722
  765POPC   GL112901  37.188   9.118   9.290
  765POPC   GL212902  37.169   8.760   9.235
  765POPC   C1A12903  36.808   9.012   8.949
  765POPC   D2A12904  36.852   8.899   8.472
  765POPC   C3A12905  36.675   8.986   8.052
  765POPC   C4A12906  36.672   9.270   7.674
  765POPC   C1B12907  37.280   8.917   8.790
  765POPC   C2B12908  37.303   9.099   8.335
  765POPC   C3B12909  37.149   9.152   7.884
  765POPC   C4B12910  37.131   9.496   7.510
  766POPC   NC312911  34.632  41.054   9.990
  766POPC   PO412912  34.289  40.571   9.602
  766POPC   GL112913  34.451  40.696   9.205
  766POPC   GL212914  34.302  41.013   9.236
  766POPC   C1A12915  34.658  40.571   8.798
  766POPC   D2A12916  34.859  40.824   8.512
  766POPC   C3A12917  34.892  40.932   8.081
  766POPC   C4A12918  34.685  40.876   7.700
  766POPC   C1B12919  34.603  41.076   8.890
  766POPC   C2B12920  34.556  41.219   8.455
  766POPC   C3B12921  34.399  41.070   8.077
  766POPC   C4B12922  34.331  41.298   7.722
  767POPC   NC312923   6.663  28.586   9.474
  767POPC   PO412924   6.908  27.980   9.757
  767POPC   GL112925   6.571  28.052   9.366
  767POPC   GL212926   6.281  28.339   9.255
  767POPC   C1A12927   6.494  28.086   8.895
  767POPC   D2A12928   6.705  28.064   8.508
  767POPC   C3A12929   6.528  28.234   8.180
  767POPC   C4A12930   6.553  28.327   7.787
  767POPC   C1B12931   6.400  28.605   8.871
  767POPC   C2B12932   6.532  28.727   8.450
  767POPC   C3B12933   6.323  28.716   8.068
  767POPC   C4B12934   6.394  28.763   7.621
  768POPC   NC312935  14.208  39.785   9.450
  768POPC   PO412936  14.753  40.158   9.662
  768POPC   GL112937  14.636  39.981   9.240
  768POPC   GL212938  14.519  40.237   9.007
  768POPC   C1A12939  14.528  39.753   8.837
  768POPC   D2A12940  14.521  39.978   8.421
  768POPC   C3A12941  14.382  39.765   8.033
  768POPC   C4A12942  14.519  39.817   7.628
  768POPC   C1B12943  14.130  40.048   8.789
  768POPC   C2B12944  14.033  40.135   8.381
  768POPC   C3B12945  13.931  39.962   8.030
  768POPC   C4B12946  14.074  40.028   7.624
  769POPC   NC312947  11.181  39.634   9.456
  769POPC   PO412948  11.621  39.211   9.525
  769POPC   GL112949  11.402  39.328   9.139
  769POPC   GL212950  11.592  39.221   8.884
  769POPC   C1A12951  11.207  39.527   8.770
  769POPC   D2A12952  11.412  39.543   8.356
  769POPC   C3A12953  11.350  39.310   7.984
  769POPC   C4A12954  10.993  39.191   7.723
  769POPC   C1B12955  11.185  39.027   8.734
  769POPC   C2B12956  11.097  39.079   8.342
  769POPC   C3B12957  11.208  38.817   8.006
  769POPC   C4B12958  11.277  38.773   7.584
  770POPC   NC312959  30.433  36.321   9.417
  770POPC   PO412960  31.088  35.943   9.434
  770POPC   GL112961  30.795  36.032   9.128
  770POPC   GL212962  30.643  35.718   9.158
  770POPC   C1A12963  30.711  36.168   8.704
  770POPC   D2A12964  30.788  35.990   8.285
  770POPC   C3A12965  30.743  36.288   7.902
  770POPC   C4A12966  30.704  36.469   7.448
  770POPC   C1B12967  30.568  35.679   8.739
  770POPC   C2B12968  30.286  35.891   8.486
  770POPC   C3B12969  30.319  36.123   8.138
  770POPC   C4B12970  30.312  36.058   7.727
  771POPC   NC312971  36.117  37.832   9.641
  771POPC   PO412972  36.616  37.379   9.524
  771POPC   GL112973  36.343  37.671   9.233
  771POPC   GL212974  35.962  37.606   9.224
  771POPC   C1A12975  36.432  37.852   8.821
  771POPC   D2A12976  36.646  37.582   8.499
  771POPC   C3A12977  36.468  37.577   8.103
  771POPC   C4A12978  36.299  37.559   7.705
  771POPC   C1B12979  35.896  37.811   8.866
  771POPC   C2B12980  35.858  37.605   8.487
  771POPC   C3B12981  35.963  37.719   8.082
  771POPC   C4B12982  35.803  37.608   7.685
  772POPC   NC312983  29.291  16.564   9.425
  772POPC   PO412984  28.927  17.122   9.610
  772POPC   GL112985  29.185  17.079   9.226
  772POPC   GL212986  29.103  16.790   9.008
  772POPC   C1A12987  29.369  17.180   8.824
  772POPC   D2A12988  29.386  16.902   8.499
  772POPC   C3A12989  29.581  16.896   8.129
  772POPC   C4A12990  29.378  16.579   7.856
  772POPC   C1B12991  29.343  16.469   8.750
  772POPC   C2B12992  29.240  16.401   8.326
  772POPC   C3B12993  28.875  16.444   8.094
  772POPC   C4B12994  28.644  16.418   7.728
  773POPC   NC312995   3.529  41.717   9.604
  773POPC   PO412996   3.657  41.290   9.084
  773POPC   GL112997   3.488  41.656   9.049
  773POPC   GL212998   3.796  41.800   9.161
  773POPC   C1A12999   3.272  41.594   8.657
  773POPC   D2A13000   3.316  41.300   8.330
  773POPC   C3A13001   3.208  41.556   8.032
  773POPC   C4A13002   3.420  41.759   7.714
  773POPC   C1B13003   3.959  41.790   8.801
  773POPC   C2B13004   3.773  41.526   8.485
  773POPC   C3B13005   3.688  41.760   8.158
  773POPC   C4B13006   3.921  41.721   7.788
  774POPC   NC313007  22.473  13.461   9.590
  774POPC   PO413008  21.896  13.235   9.561
  774POPC   GL113009  22.021  13.534   9.223
  774POPC   GL213010  22.146  13.884   9.204
  774POPC   C1A13011  22.313  13.556   8.876
  774POPC   D2A13012  22.305  13.629   8.457
  774POPC   C3A13013  22.421  13.387   8.112
  774POPC   C4A13014  22.203  13.385   7.711
  774POPC   C1B13015  21.975  13.957   8.774
  774POPC   C2B13016  22.050  14.069   8.341
  774POPC   C3B13017  22.164  13.831   7.997
  774POPC   C4B13018  21.973  13.829   7.635
  775POPC   NC313019  14.739  17.580   9.351
  775POPC   PO413020  15.404  17.537   9.530
  775POPC   GL113021  15.196  17.521   9.145
  775POPC   GL213022  14.992  17.227   9.092
  775POPC   C1A13023  15.041  17.621   8.745
  775POPC   D2A13024  15.414  17.659   8.520
  775POPC   C3A13025  15.356  17.660   8.109
  775POPC   C4A13026  15.508  17.609   7.721
  775POPC   C1B13027  15.293  17.174   8.743
  775POPC   C2B13028  15.135  17.244   8.357
  775POPC   C3B13029  15.170  17.215   7.937
  775POPC   C4B13030  14.995  17.575   7.738
  776POPC   NC313031   8.983  14.035   9.291
  776POPC   PO413032   8.818  14.707   9.491
  776POPC   GL113033   9.036  14.582   9.084
  776POPC   GL213034   9.243  14.298   8.914
  776POPC   C1A13035   9.002  14.632   8.614
  776POPC   D2A13036   9.120  14.388   8.246
  776POPC   C3A13037   9.249  14.540   7.856
  776POPC   C4A13038   9.024  14.578   7.479
  776POPC   C1B13039   8.888  14.141   8.644
  776POPC   C2B13040   8.641  14.170   8.240
  776POPC   C3B13041   8.861  14.226   7.833
  776POPC   C4B13042   9.053  13.928   7.545
  777POPC   NC313043  22.183   7.143   9.590
  777POPC   PO413044  22.093   7.784   9.580
  777POPC   GL113045  22.171   7.506   9.229
  777POPC   GL213046  21.863   7.285   9.224
  777POPC   C1A13047  22.263   7.566   8.796
  777POPC   D2A13048  22.217   7.377   8.399
  777POPC   C3A13049  22.129   7.658   8.100
  777POPC   C4A13050  22.294   7.695   7.711
  777POPC   C1B13051  21.830   7.252   8.800
  777POPC   C2B13052  21.757   7.153   8.381
  777POPC   C3B13053  21.940   7.190   7.985
  777POPC   C4B13054  21.663   7.121   7.678
  778POPC   NC313055  31.730  19.860   9.855
  778POPC   PO413056  31.212  19.844   9.444
  778POPC   GL113057  31.269  19.713   9.057
  778POPC   GL213058  31.345  20.068   8.990
  778POPC   C1A13059  31.627  19.508   8.799
  778POPC   D2A13060  31.809  19.615   8.445
  778POPC   C3A13061  31.524  19.638   8.114
  778POPC   C4A13062  31.691  19.803   7.753
  778POPC   C1B13063  31.372  19.882   8.589
  778POPC   C2B13064  31.149  19.987   8.268
  778POPC   C3B13065  31.284  20.076   7.888
  778POPC   C4B13066  31.466  20.179   7.484
  779POPC   NC313067  20.397  25.463   9.802
  779POPC   PO413068  20.904  25.123   9.435
  779POPC   GL113069  20.732  25.252   9.093
  779POPC   GL213070  20.885  25.642   9.126
  779POPC   C1A13071  20.465  25.134   8.732
  779POPC   D2A13072  20.291  25.315   8.341
  779POPC   C3A13073  20.513  25.231   7.953
  779POPC   C4A13074  20.674  25.010   7.626
  779POPC   C1B13075  20.846  25.525   8.686
  779POPC   C2B13076  20.883  25.321   8.312
  779POPC   C3B13077  20.981  25.480   7.929
  779POPC   C4B13078  20.875  25.451   7.531
  780POPC   NC313079   1.443   6.993   9.467
  780POPC   PO413080   1.143   6.388   9.507
  780POPC   GL113081   1.370   6.431   9.166
  780POPC   GL213082   1.218   6.724   9.060
  780POPC   C1A13083   1.462   6.377   8.740
  780POPC   D2A13084   1.250   6.307   8.341
  780POPC   C3A13085   1.246   6.699   8.119
  780POPC   C4A13086   1.365   6.823   7.718
  780POPC   C1B13087   0.955   6.507   8.728
  780POPC   C2B13088   0.731   6.422   8.333
  780POPC   C3B13089   0.858   6.447   7.901
  780POPC   C4B13090   0.844   6.707   7.558
  781POPC   NC313091   8.331  27.977   9.383
  781POPC   PO413092   7.977  28.387   9.801
  781POPC   GL113093   8.026  28.363   9.285
  781POPC   GL213094   8.351  28.395   9.104
  781POPC   C1A13095   7.991  28.240   8.825
  781POPC   D2A13096   8.172  28.387   8.454
  781POPC   C3A13097   8.066  28.279   8.027
  781POPC   C4A13098   8.097  28.544   7.672
  781POPC   C1B13099   8.468  28.042   8.741
  781POPC   C2B13100   8.543  28.131   8.240
  781POPC   C3B13101   8.535  28.231   7.762
  781POPC   C4B13102   8.584  28.124   7.287
  782POPC   NC313103  24.768  10.514   9.456
  782POPC   PO413104  24.064  10.658   9.509
  782POPC   GL113105  24.335  10.583   9.169
  782POPC   GL213106  24.350  10.208   9.209
  782POPC   C1A13107  24.470  10.749   8.734
  782POPC   D2A13108  24.665  10.801   8.308
  782POPC   C3A13109  24.409  10.892   7.932
  782POPC   C4A13110  24.513  10.969   7.480
  782POPC   C1B13111  24.229  10.297   8.775
  782POPC   C2B13112  24.443  10.314   8.378
  782POPC   C3B13113  24.420  10.257   7.948
  782POPC   C4B13114  24.402  10.489   7.556
  783POPC   NC313115  25.909   9.832   9.801
  783POPC   PO413116  26.600   9.780   9.643
  783POPC   GL113117  26.279   9.586   9.279
  783POPC   GL213118  25.939   9.800   9.216
  783POPC   C1A13119  26.217   9.673   8.811
  783POPC   D2A13120  26.136   9.844   8.383
  783POPC   C3A13121  26.301   9.684   8.011
  783POPC   C4A13122  26.062   9.585   7.657
  783POPC   C1B13123  25.758   9.936   8.798
  783POPC   C2B13124  25.660  10.021   8.352
  783POPC   C3B13125  25.765   9.964   7.898
  783POPC   C4B13126  25.712   9.907   7.412
  784POPC   NC313127  22.387  26.614   9.586
  784POPC   PO413128  21.963  27.155   9.367
  784POPC   GL113129  22.231  26.884   9.141
  784POPC   GL213130  22.575  26.890   9.185
  784POPC   C1A13131  22.161  26.628   8.775
  784POPC   D2A13132  21.855  26.457   8.445
  784POPC   C3A13133  22.009  26.590   8.035
  784POPC   C4A13134  22.054  26.976   7.806
  784POPC   C1B13135  22.632  26.891   8.772
  784POPC   C2B13136  22.516  26.733   8.385
  784POPC   C3B13137  22.518  26.883   8.000
  784POPC   C4B13138  22.500  27.156   7.668
  785POPC   NC313139  22.081  34.089   9.528
  785POPC   PO413140  21.905  33.364   9.489
  785POPC   GL113141  22.197  33.643   9.201
  785POPC   GL213142  22.117  33.959   9.060
  785POPC   C1A13143  22.393  33.670   8.781
  785POPC   D2A13144  22.475  33.837   8.372
  785POPC   C3A13145  22.204  33.738   8.016
  785POPC   C4A13146  22.287  33.510   7.664
  785POPC   C1B13147  21.939  33.952   8.708
  785POPC   C2B13148  21.983  34.062   8.330
  785POPC   C3B13149  21.854  34.153   7.926
  785POPC   C4B13150  22.082  34.066   7.556
  786POPC   NC313151  25.974  25.438   9.381
  786POPC   PO413152  26.467  24.947   9.554
  786POPC   GL113153  26.396  25.151   9.165
  786POPC   GL213154  26.349  25.490   9.019
  786POPC   C1A13155  26.156  25.063   8.796
  786POPC   D2A13156  26.330  25.101   8.379
  786POPC   C3A13157  26.094  25.124   8.043
  786POPC   C4A13158  25.871  25.158   7.676
  786POPC   C1B13159  26.068  25.531   8.651
  786POPC   C2B13160  25.831  25.500   8.267
  786POPC   C3B13161  25.992  25.626   7.847
  786POPC   C4B13162  26.399  25.837   7.743
  787POPC   NC313163  20.327  32.205   9.438
  787POPC   PO413164  19.737  32.222   9.478
  787POPC   GL113165  19.883  32.080   9.104
  787POPC   GL213166  20.042  32.396   9.058
  787POPC   C1A13167  19.651  32.068   8.730
  787POPC   D2A13168  19.435  32.339   8.399
  787POPC   C3A13169  19.383  32.246   7.938
  787POPC   C4A13170  19.590  32.174   7.485
  787POPC   C1B13171  19.856  32.527   8.681
  787POPC   C2B13172  19.998  32.265   8.359
  787POPC   C3B13173  19.920  32.255   7.943
  787POPC   C4B13174  19.715  32.581   7.756
  788POPC   NC313175   6.200  41.377   9.557
  788POPC   PO413176   5.602  41.629   9.681
  788POPC   GL113177   5.701  41.518   9.179
  788POPC   GL213178   5.964  41.260   9.119
  788POPC   C1A13179   5.816  41.819   8.755
  788POPC   D2A13180   6.128  41.896   8.382
  788POPC   C3A13181   5.982  41.863   7.934
  788POPC   C4A13182   5.643  41.641   7.717
  788POPC   C1B13183   5.795  41.324   8.710
  788POPC   C2B13184   5.743  41.534   8.321
  788POPC   C3B13185   5.917  41.334   8.002
  788POPC   C4B13186   6.100  41.425   7.622
  789POPC   NC313187  11.877   8.661   9.323
  789POPC   PO413188  12.284   9.136   9.313
  789POPC   GL113189  12.145   8.930   8.976
  789POPC   GL213190  11.803   9.080   9.017
  789POPC   C1A13191  12.064   8.630   8.636
  789POPC   D2A13192  11.843   8.660   8.234
  789POPC   C3A13193  12.132   8.672   7.874
  789POPC   C4A13194  12.381   9.080   7.754
  789POPC   C1B13195  11.923   9.134   8.578
  789POPC   C2B13196  12.240   9.245   8.279
  789POPC   C3B13197  11.947   9.129   8.006
  789POPC   C4B13198  11.878   9.046   7.588
  790POPC   NC313199  33.294   5.707   9.535
  790POPC   PO413200  33.829   5.927   9.745
  790POPC   GL113201  33.722   5.839   9.284
  790POPC   GL213202  34.002   5.750   9.060
  790POPC   C1A13203  33.535   5.767   8.859
  790POPC   D2A13204  33.769   5.871   8.475
  790POPC   C3A13205  33.558   5.990   8.074
  790POPC   C4A13206  33.736   5.921   7.642
  790POPC   C1B13207  34.195   6.082   8.837
  790POPC   C2B13208  34.109   6.247   8.451
  790POPC   C3B13209  34.063   6.089   8.083
  790POPC   C4B13210  34.261   6.152   7.745
  791POPC   NC313211  15.174  39.830   9.762
  791POPC   PO413212  15.433  40.202   9.262
  791POPC   GL113213  15.360  39.906   9.031
  791POPC   GL213214  15.101  39.739   9.222
  791POPC   C1A13215  15.356  40.025   8.611
  791POPC   D2A13216  15.425  40.330   8.301
  791POPC   C3A13217  15.293  40.194   7.930
  791POPC   C4A13218  14.952  40.484   7.842
  791POPC   C1B13219  15.009  39.653   8.760
  791POPC   C2B13220  15.048  39.735   8.319
  791POPC   C3B13221  14.857  39.961   8.007
  791POPC   C4B13222  15.025  39.838   7.633
  792POPC   NC313223  10.651   6.463   9.814
  792POPC   PO413224  10.742   6.586   9.259
  792POPC   GL113225  10.464   6.444   9.029
  792POPC   GL213226  10.383   6.113   9.112
  792POPC   C1A13227  10.501   6.600   8.629
  792POPC   D2A13228  10.736   6.489   8.292
  792POPC   C3A13229  10.664   6.784   7.975
  792POPC   C4A13230  10.696   6.631   7.594
  792POPC   C1B13231  10.162   6.183   8.696
  792POPC   C2B13232  10.185   6.424   8.270
  792POPC   C3B13233  10.369   6.337   7.863
  792POPC   C4B13234  10.370   6.286   7.387
  793POPC   NC313235  44.538  15.954   9.506
  793POPC   PO413236   0.169  15.853   9.620
  793POPC   GL113237  44.980  15.943   9.227
  793POPC   GL213238  44.789  15.626   9.197
  793POPC   C1A13239  44.734  16.021   8.844
  793POPC   D2A13240  44.678  16.224   8.426
  793POPC   C3A13241  44.699  16.082   7.984
  793POPC   C4A13242  44.289  15.942   7.836
  793POPC   C1B13243  44.710  15.519   8.743
  793POPC   C2B13244  44.592  15.655   8.315
  793POPC   C3B13245  44.655  15.565   7.872
  793POPC   C4B13246   0.031  15.449   7.653
  794POPC   NC313247  25.876  42.208   9.449
  794POPC   PO413248  25.264  42.637   9.393
  794POPC   GL113249  25.442  42.360   9.104
  794POPC   GL213250  25.312  42.053   9.286
  794POPC   C1A13251  25.335  42.446   8.665
  794POPC   D2A13252  25.042  42.468   8.318
  794POPC   C3A13253  25.221  42.391   7.924
  794POPC   C4A13254  25.438  42.715   7.676
  794POPC   C1B13255  25.127  41.988   8.867
  794POPC   C2B13256  25.182  41.974   8.425
  794POPC   C3B13257  25.496  41.930   8.099
  794POPC   C4B13258  25.508  42.040   7.659
  795POPC   NC313259  35.868  17.079   9.502
  795POPC   PO413260  36.287  16.655   9.686
  795POPC   GL113261  36.148  16.746   9.233
  795POPC   GL213262  36.194  17.100   9.125
  795POPC   C1A13263  35.987  16.776   8.786
  795POPC   D2A13264  36.078  16.528   8.417
  795POPC   C3A13265  35.862  16.426   8.039
  795POPC   C4A13266  36.191  16.447   7.750
  795POPC   C1B13267  36.420  17.201   8.783
  795POPC   C2B13268  36.271  17.034   8.413
  795POPC   C3B13269  36.038  16.919   8.036
  795POPC   C4B13270  36.293  16.970   7.686
  796POPC   NC313271  21.233  11.431   9.702
  796POPC   PO413272  21.694  10.964   9.562
  796POPC   GL113273  21.402  11.218   9.269
  796POPC   GL213274  21.570  11.535   9.162
  796POPC   C1A13275  21.126  11.458   8.938
  796POPC   D2A13276  20.890  11.392   8.557
  796POPC   C3A13277  21.044  11.451   8.124
  796POPC   C4A13278  21.271  11.274   7.788
  796POPC   C1B13279  21.520  11.185   8.784
  796POPC   C2B13280  21.461  11.207   8.345
  796POPC   C3B13281  21.600  11.510   8.064
  796POPC   C4B13282  21.811  11.259   7.777
  797POPC   NC313283  35.057  23.232   9.517
  797POPC   PO413284  35.328  22.646   9.550
  797POPC   GL113285  35.243  22.856   9.181
  797POPC   GL213286  35.600  22.916   9.166
  797POPC   C1A13287  35.241  23.072   8.775
  797POPC   D2A13288  35.028  22.993   8.376
  797POPC   C3A13289  35.195  23.116   7.963
  797POPC   C4A13290  35.146  22.767   7.662
  797POPC   C1B13291  35.741  22.855   8.744
  797POPC   C2B13292  35.545  22.915   8.357
  797POPC   C3B13293  35.603  22.759   7.955
  797POPC   C4B13294  35.620  22.858   7.527
  798POPC   NC313295  30.231   8.868   9.439
  798POPC   PO413296  30.724   9.162   9.711
  798POPC   GL113297  30.729   9.153   9.261
  798POPC   GL213298  30.714   8.819   9.206
  798POPC   C1A13299  30.917   9.111   8.819
  798POPC   D2A13300  31.044   8.891   8.415
  798POPC   C3A13301  30.856   9.038   8.004
  798POPC   C4A13302  30.431   9.186   7.839
  798POPC   C1B13303  30.465   8.826   8.809
  798POPC   C2B13304  30.509   8.769   8.354
  798POPC   C3B13305  30.431   8.690   7.920
  798POPC   C4B13306  30.476   8.390   7.587
  799POPC   NC313307   7.411  19.336   9.513
  799POPC   PO413308   7.887  18.798   9.488
  799POPC   GL113309   7.608  18.987   9.175
  799POPC   GL213310   7.256  18.878   9.168
  799POPC   C1A13311   7.500  18.974   8.750
  799POPC   D2A13312   7.387  18.730   8.444
  799POPC   C3A13313   7.497  18.976   8.125
  799POPC   C4A13314   7.399  19.050   7.721
  799POPC   C1B13315   7.102  19.216   8.906
  799POPC   C2B13316   7.153  19.190   8.465
  799POPC   C3B13317   7.000  19.042   8.063
  799POPC   C4B13318   6.912  19.313   7.697
  800POPC   NC313319   9.733  32.122   9.487
  800POPC   PO413320   9.919  32.673   9.184
  800POPC   GL113321   9.602  32.382   9.055
  800POPC   GL213322   9.551  31.977   9.031
  800POPC   C1A13323   9.584  32.314   8.646
  800POPC   D2A13324   9.729  32.118   8.349
  800POPC   C3A13325   9.706  32.407   8.071
  800POPC   C4A13326   9.528  32.359   7.712
  800POPC   C1B13327   9.956  31.953   8.800
  800POPC   C2B13328  10.200  31.901   8.403
  800POPC   C3B13329  10.054  31.939   7.986
  800POPC   C4B13330  10.128  31.919   7.565
  801POPC   NC313331  22.884  30.040   9.636
  801POPC   PO413332  22.377  29.723   9.574
  801POPC   GL113333  22.690  29.762   9.226
  801POPC   GL213334  23.033  29.910   9.176
  801POPC   C1A13335  22.715  29.766   8.789
  801POPC   D2A13336  22.599  30.013   8.424
  801POPC   C3A13337  22.762  29.856   8.008
  801POPC   C4A13338  23.080  29.718   7.721
  801POPC   C1B13339  23.280  29.811   8.829
  801POPC   C2B13340  23.325  29.668   8.415
  801POPC   C3B13341  23.420  29.873   8.060
  801POPC   C4B13342  23.432  30.273   7.828
  802POPC   NC313343  26.820  40.265   9.638
  802POPC   PO413344  26.966  39.623   9.607
  802POPC   GL113345  26.687  39.856   9.283
  802POPC   GL213346  26.741  40.201   9.139
  802POPC   C1A13347  26.566  39.796   8.856
  802POPC   D2A13348  26.623  39.901   8.437
  802POPC   C3A13349  26.977  39.707   8.225
  802POPC   C4A13350  26.765  39.557   7.883
  802POPC   C1B13351  26.956  40.329   8.770
  802POPC   C2B13352  27.006  40.241   8.360
  802POPC   C3B13353  27.021  40.466   8.014
  802POPC   C4B13354  27.007  40.422   7.582
  803POPC   NC313355  23.553  29.479   9.390
  803POPC   PO413356  23.744  28.819   9.483
  803POPC   GL113357  23.777  29.092   9.137
  803POPC   GL213358  23.451  29.031   9.111
  803POPC   C1A13359  23.730  29.269   8.726
  803POPC   D2A13360  23.843  28.986   8.365
  803POPC   C3A13361  23.821  29.127   7.936
  803POPC   C4A13362  23.473  29.405   7.852
  803POPC   C1B13363  23.347  28.935   8.712
  803POPC   C2B13364  23.353  29.150   8.344
  803POPC   C3B13365  23.352  28.925   8.004
  803POPC   C4B13366  23.206  29.049   7.609
  804POPC   NC313367  11.744  44.725   9.613
  804POPC   PO413368  12.175  44.344   9.680
  804POPC   GL113369  12.097  44.577   9.292
  804POPC   GL213370  11.894  44.355   9.147
  804POPC   C1A13371  12.024  44.804   8.891
  804POPC   D2A13372  12.076  44.643   8.459
  804POPC   C3A13373  12.112  44.828   8.047
  804POPC   C4A13374  12.410  44.826   7.694
  804POPC   C1B13375  11.702  44.443   8.745
  804POPC   C2B13376  11.580  44.492   8.327
  804POPC   C3B13377  11.786  44.394   7.965
  804POPC   C4B13378  12.108  44.406   7.729
  805POPC   NC313379  41.005   5.594   9.344
  805POPC   PO413380  40.727   5.128   9.737
  805POPC   GL113381  40.763   4.983   9.254
  805POPC   GL213382  40.802   5.262   9.033
  805POPC   C1A13383  40.691   4.823   8.821
  805POPC   D2A13384  40.760   5.088   8.442
  805POPC   C3A13385  40.786   4.913   8.028
  805POPC   C4A13386  41.044   4.808   7.699
  805POPC   C1B13387  40.461   5.388   8.795
  805POPC   C2B13388  40.483   5.535   8.380
  805POPC   C3B13389  40.585   5.383   7.985
  805POPC   C4B13390  40.521   5.526   7.589
  806POPC   NC313391   0.898  40.028   9.762
  806POPC   PO413392   1.559  39.866   9.591
  806POPC   GL113393   1.175  39.883   9.306
  806POPC   GL213394   0.940  40.161   9.272
  806POPC   C1A13395   1.119  39.852   8.852
  806POPC   D2A13396   1.392  39.809   8.474
  806POPC   C3A13397   1.278  39.776   8.035
  806POPC   C4A13398   1.563  40.017   7.818
  806POPC   C1B13399   0.882  40.346   8.862
  806POPC   C2B13400   0.991  40.202   8.464
  806POPC   C3B13401   1.187  40.278   8.104
  806POPC   C4B13402   1.080  40.185   7.698
  807POPC   NC313403  44.135   7.361   9.443
  807POPC   PO413404  43.437   7.637   9.383
  807POPC   GL113405  43.711   7.549   9.047
  807POPC   GL213406  43.945   7.253   8.994
  807POPC   C1A13407  43.846   7.583   8.621
  807POPC   D2A13408  44.240   7.454   8.450
  807POPC   C3A13409  44.182   7.414   7.997
  807POPC   C4A13410  43.857   7.485   7.690
  807POPC   C1B13411  43.591   7.115   8.767
  807POPC   C2B13412  43.498   6.995   8.365
  807POPC   C3B13413  43.721   7.087   7.994
  807POPC   C4B13414  43.814   6.954   7.575
  808POPC   NC313415  22.515  34.465   9.697
  808POPC   PO413416  22.292  34.858   9.199
  808POPC   GL113417  22.206  34.468   9.134
  808POPC   GL213418  22.460  34.294   9.226
  808POPC   C1A13419  22.124  34.415   8.718
  808POPC   D2A13420  22.038  34.564   8.324
  808POPC   C3A13421  22.272  34.785   8.037
  808POPC   C4A13422  22.062  34.589   7.730
  808POPC   C1B13423  22.546  34.162   8.825
  808POPC   C2B13424  22.538  34.344   8.413
  808POPC   C3B13425  22.365  34.251   8.018
  808POPC   C4B13426  22.533  34.409   7.664
  809POPC   NC313427  11.772   1.275   9.580
  809POPC   PO413428  12.326   0.895   9.493
  809POPC   GL113429  12.165   1.194   9.192
  809POPC   GL213430  11.815   1.137   9.086
  809POPC   C1A13431  12.357   1.392   8.835
  809POPC   D2A13432  12.593   1.583   8.480
  809POPC   C3A13433  12.495   1.281   8.188
  809POPC   C4A13434  12.264   1.165   7.848
  809POPC   C1B13435  11.912   1.214   8.638
  809POPC   C2B13436  11.925   1.337   8.190
  809POPC   C3B13437  11.656   1.249   7.812
  809POPC   C4B13438  11.528   0.986   7.428
  810POPC   NC313439  28.918  32.843   9.524
  810POPC   PO413440  29.369  33.441   9.566
  810POPC   GL113441  29.296  33.098   9.233
  810POPC   GL213442  28.967  33.096   9.096
  810POPC   C1A13443  29.274  32.782   8.847
  810POPC   D2A13444  29.455  32.794   8.415
  810POPC   C3A13445  29.419  33.115   8.136
  810POPC   C4A13446  29.425  33.188   7.705
  810POPC   C1B13447  28.753  32.764   8.844
  810POPC   C2B13448  28.840  32.883   8.392
  810POPC   C3B13449  28.950  33.022   7.955
  810POPC   C4B13450  29.010  32.757   7.597
  811POPC   NC313451  16.775  36.752   9.536
  811POPC   PO413452  17.278  37.183   9.708
  811POPC   GL113453  16.884  37.108   9.216
  811POPC   GL213454  16.946  36.791   9.053
  811POPC   C1A13455  16.951  37.170   8.722
  811POPC   D2A13456  16.992  36.816   8.496
  811POPC   C3A13457  16.761  36.871   8.152
  811POPC   C4A13458  16.731  36.713   7.777
  811POPC   C1B13459  16.552  36.868   8.845
  811POPC   C2B13460  16.440  36.657   8.479
  811POPC   C3B13461  16.331  36.616   8.060
  811POPC   C4B13462  16.143  36.845   7.694
  812POPC   NC313463   7.269   7.062   9.508
  812POPC   PO413464   7.713   6.435   9.505
  812POPC   GL113465   7.445   6.324   9.185
  812POPC   GL213466   7.268   6.642   9.147
  812POPC   C1A13467   7.516   6.374   8.766
  812POPC   D2A13468   7.538   6.683   8.453
  812POPC   C3A13469   7.513   6.568   8.026
  812POPC   C4A13470   7.836   6.485   7.767
  812POPC   C1B13471   7.068   6.591   8.716
  812POPC   C2B13472   7.048   6.715   8.283
  812POPC   C3B13473   7.064   6.729   7.835
  812POPC   C4B13474   6.968   6.486   7.488
  813POPC   NC313475  35.210   9.240   9.520
  813POPC   PO413476  35.713   8.691   9.458
  813POPC   GL113477  35.468   8.958   9.164
  813POPC   GL213478  35.114   8.935   9.118
  813POPC   C1A13479  35.451   9.215   8.764
  813POPC   D2A13480  35.659   9.182   8.329
  813POPC   C3A13481  35.618   8.859   8.031
  813POPC   C4A13482  35.442   8.948   7.630
  813POPC   C1B13483  34.907   9.051   8.762
  813POPC   C2B13484  35.114   9.070   8.386
  813POPC   C3B13485  35.241   9.238   8.028
  813POPC   C4B13486  34.989   9.257   7.710
  814POPC   NC313487  24.568   4.680   9.537
  814POPC   PO413488  24.291   5.236   9.621
  814POPC   GL113489  24.526   5.164   9.212
  814POPC   GL213490  24.700   4.887   9.086
  814POPC   C1A13491  24.596   5.275   8.755
  814POPC   D2A13492  24.374   5.210   8.334
  814POPC   C3A13493  24.598   5.205   7.924
  814POPC   C4A13494  24.746   5.316   7.496
  814POPC   C1B13495  24.606   4.754   8.690
  814POPC   C2B13496  24.691   4.818   8.264
  814POPC   C3B13497  24.582   4.637   7.890
  814POPC   C4B13498  24.447   4.884   7.534
  815POPC   NC313499  11.947  43.217   9.519
  815POPC   PO413500  12.572  43.201   9.641
  815POPC   GL113501  12.343  42.934   9.304
  815POPC   GL213502  12.073  43.100   9.053
  815POPC   C1A13503  12.448  42.852   8.852
  815POPC   D2A13504  12.155  42.850   8.485
  815POPC   C3A13505  12.127  43.167   8.156
  815POPC   C4A13506  12.050  43.199   7.718
  815POPC   C1B13507  11.953  43.417   8.759
  815POPC   C2B13508  12.057  43.614   8.419
  815POPC   C3B13509  11.818  43.670   8.075
  815POPC   C4B13510  11.625  43.470   7.733
  816POPC   NC313511  29.107  15.804   9.610
  816POPC   PO413512  28.913  16.350   9.243
  816POPC   GL113513  29.221  16.099   9.095
  816POPC   GL213514  29.175  15.746   9.122
  816POPC   C1A13515  29.155  15.984   8.668
  816POPC   D2A13516  28.919  15.958   8.321
  816POPC   C3A13517  29.129  16.034   7.957
  816POPC   C4A13518  28.851  15.891   7.652
  816POPC   C1B13519  29.378  15.542   8.788
  816POPC   C2B13520  29.256  15.557   8.376
  816POPC   C3B13521  29.117  15.535   7.977
  816POPC   C4B13522  29.446  15.397   7.771
  817POPC   NC313523  14.751  20.413   9.526
  817POPC   PO413524  14.085  20.419   9.451
  817POPC   GL113525  14.274  20.809   9.190
  817POPC   GL213526  14.638  20.814   9.173
  817POPC   C1A13527  14.416  20.964   8.753
  817POPC   D2A13528  14.215  20.752   8.396
  817POPC   C3A13529  14.353  20.927   8.008
  817POPC   C4A13530  14.402  20.795   7.584
  817POPC   C1B13531  14.554  20.486   8.834
  817POPC   C2B13532  14.486  20.313   8.398
  817POPC   C3B13533  14.431  20.368   7.942
  817POPC   C4B13534  14.695  20.371   7.572
  818POPC   NC313535  32.189  42.623   9.542
  818POPC   PO413536  31.974  41.905   9.460
  818POPC   GL113537  32.180  42.186   9.130
  818POPC   GL213538  32.295  42.531   9.073
  818POPC   C1A13539  32.367  42.170   8.732
  818POPC   D2A13540  32.370  42.317   8.313
  818POPC   C3A13541  32.145  42.118   7.967
  818POPC   C4A13542  32.266  42.242   7.529
  818POPC   C1B13543  32.079  42.615   8.722
  818POPC   C2B13544  32.145  42.771   8.305
  818POPC   C3B13545  32.196  42.613   7.895
  818POPC   C4B13546  32.053  42.707   7.461
  819POPC   NC313547  37.944   4.521   9.469
  819POPC   PO413548  37.264   4.470   9.338
  819POPC   GL113549  37.638   4.418   9.098
  819POPC   GL213550  37.948   4.162   9.108
  819POPC   C1A13551  37.856   4.572   8.758
  819POPC   D2A13552  37.757   4.411   8.364
  819POPC   C3A13553  37.454   4.546   8.116
  819POPC   C4A13554  37.794   4.755   7.926
  819POPC   C1B13555  37.670   4.042   8.772
  819POPC   C2B13556  37.682   3.917   8.361
  819POPC   C3B13557  37.759   4.082   7.934
  819POPC   C4B13558  37.534   3.875   7.557
  820POPC   NC313559   2.561  34.171   9.596
  820POPC   PO413560   2.662  33.502   9.585
  820POPC   GL113561   2.749  33.530   9.161
  820POPC   GL213562   2.578  33.209   9.143
  820POPC   C1A13563   2.699  33.866   8.811
  820POPC   D2A13564   2.533  34.068   8.383
  820POPC   C3A13565   2.673  33.900   7.965
  820POPC   C4A13566   2.820  33.845   7.519
  820POPC   C1B13567   2.475  33.379   8.766
  820POPC   C2B13568   2.609  33.559   8.404
  820POPC   C3B13569   2.443  33.433   8.056
  820POPC   C4B13570   2.543  33.444   7.656
  821POPC   NC313571  44.097  14.381   9.345
  821POPC   PO413572  44.649  14.708   9.662
  821POPC   GL113573  44.579  14.635   9.207
  821POPC   GL213574  44.432  14.369   8.990
  821POPC   C1A13575  44.746  14.744   8.784
  821POPC   D2A13576  44.948  14.709   8.370
  821POPC   C3A13577  44.607  14.572   8.090
  821POPC   C4A13578  44.444  14.657   7.656
  821POPC   C1B13579  44.816  14.245   8.871
  821POPC   C2B13580  44.954  14.178   8.449
  821POPC   C3B13581  44.831  14.081   8.018
  821POPC   C4B13582  44.901  14.395   7.707
  822POPC   NC313583  14.562   5.168   9.662
  822POPC   PO413584  14.061   5.507   9.405
  822POPC   GL113585  14.392   5.233   9.164
  822POPC   GL213586  14.758   5.081   9.211
  822POPC   C1A13587  14.401   5.074   8.748
  822POPC   D2A13588  14.377   4.784   8.411
  822POPC   C3A13589  14.424   4.956   8.008
  822POPC   C4A13590  14.623   4.909   7.621
  822POPC   C1B13591  14.899   5.129   8.814
  822POPC   C2B13592  14.836   4.969   8.403
  822POPC   C3B13593  14.922   4.778   8.021
  822POPC   C4B13594  15.045   5.157   7.847
  823POPC   NC313595   8.973  21.382   9.602
  823POPC   PO413596   8.296  21.412   9.545
  823POPC   GL113597   8.609  21.212   9.251
  823POPC   GL213598   8.877  21.453   9.131
  823POPC   C1A13599   8.743  21.081   8.824
  823POPC   D2A13600   8.793  21.001   8.403
  823POPC   C3A13601   8.760  21.328   8.100
  823POPC   C4A13602   9.001  21.175   7.802
  823POPC   C1B13603   9.175  21.485   8.864
  823POPC   C2B13604   9.065  21.524   8.458
  823POPC   C3B13605   9.282  21.471   8.093
  823POPC   C4B13606   9.216  21.635   7.682
  824POPC   NC313607  24.495  24.208   9.572
  824POPC   PO413608  25.024  24.540   9.483
  824POPC   GL113609  24.715  24.520   9.185
  824POPC   GL213610  24.708  24.885   9.195
  824POPC   C1A13611  24.422  24.401   8.838
  824POPC   D2A13612  24.375  24.547   8.375
  824POPC   C3A13613  24.517  24.382   7.939
  824POPC   C4A13614  24.496  24.426   7.459
  824POPC   C1B13615  24.629  24.854   8.742
  824POPC   C2B13616  24.430  25.054   8.356
  824POPC   C3B13617  24.439  24.892   7.893
  824POPC   C4B13618  24.545  24.922   7.406
  825POPC   NC313619  37.187  19.747   9.520
  825POPC   PO413620  36.716  20.196   9.510
  825POPC   GL113621  36.929  20.186   9.153
  825POPC   GL213622  36.869  19.830   9.077
  825POPC   C1A13623  36.999  20.133   8.721
  825POPC   D2A13624  36.971  19.891   8.373
  825POPC   C3A13625  36.545  19.917   8.214
  825POPC   C4A13626  36.481  20.236   7.873
  825POPC   C1B13627  36.836  19.523   8.706
  825POPC   C2B13628  37.128  19.401   8.336
  825POPC   C3B13629  37.089  19.433   7.893
  825POPC   C4B13630  36.651  19.431   7.821
  826POPC   NC313631   9.128  11.643   9.520
  826POPC   PO413632   8.642  11.175   9.453
  826POPC   GL113633   8.814  11.430   9.136
  826POPC   GL213634   9.178  11.439   9.068
  826POPC   C1A13635   8.775  11.597   8.713
  826POPC   D2A13636   8.974  11.753   8.311
  826POPC   C3A13637   8.971  11.455   7.990
  826POPC   C4A13638   8.885  11.048   7.869
  826POPC   C1B13639   9.042  11.140   8.778
  826POPC   C2B13640   9.187  11.244   8.398
  826POPC   C3B13641   9.353  11.034   8.069
  826POPC   C4B13642   9.325  11.214   7.663
  827POPC   NC313643  32.443  36.036   9.612
  827POPC   PO413644  32.693  36.586   9.301
  827POPC   GL113645  32.511  36.163   9.107
  827POPC   GL213646  32.171  36.021   9.144
  827POPC   C1A13647  32.348  36.191   8.693
  827POPC   D2A13648  32.305  36.505   8.390
  827POPC   C3A13649  32.363  36.337   7.987
  827POPC   C4A13650  32.085  36.464   7.701
  827POPC   C1B13651  32.225  35.712   8.783
  827POPC   C2B13652  32.432  35.727   8.374
  827POPC   C3B13653  32.416  35.801   7.941
  827POPC   C4B13654  32.103  35.966   7.680
  828POPC   NC313655  12.963  37.880   9.289
  828POPC   PO413656  12.429  37.455   9.492
  828POPC   GL113657  12.755  37.440   9.135
  828POPC   GL213658  13.157  37.449   9.079
  828POPC   C1A13659  12.748  37.630   8.732
  828POPC   D2A13660  12.563  37.498   8.381
  828POPC   C3A13661  12.567  37.670   7.999
  828POPC   C4A13662  12.674  37.448   7.589
  828POPC   C1B13663  13.274  37.674   8.688
  828POPC   C2B13664  13.038  37.832   8.323
  828POPC   C3B13665  13.062  37.701   7.890
  828POPC   C4B13666  13.211  37.342   7.650
  829POPC   NC313667  32.284   7.075   9.555
  829POPC   PO413668  32.006   6.390   9.478
  829POPC   GL113669  32.062   6.568   9.105
  829POPC   GL213670  32.183   6.897   9.089
  829POPC   C1A13671  32.101   6.501   8.708
  829POPC   D2A13672  32.298   6.664   8.378
  829POPC   C3A13673  32.237   6.464   8.008
  829POPC   C4A13674  31.895   6.545   7.771
  829POPC   C1B13675  32.542   6.701   8.854
  829POPC   C2B13676  32.716   6.433   8.511
  829POPC   C3B13677  32.791   6.451   8.077
  829POPC   C4B13678  32.612   6.577   7.680
  830POPC   NC313679   2.974  31.884   9.499
  830POPC   PO413680   2.235  31.969   9.628
  830POPC   GL113681   2.447  32.165   9.205
  830POPC   GL213682   2.738  32.209   9.121
  830POPC   C1A13683   2.582  32.073   8.686
  830POPC   D2A13684   2.901  32.247   8.357
  830POPC   C3A13685   2.734  32.354   7.946
  830POPC   C4A13686   2.688  32.055   7.654
  830POPC   C1B13687   2.979  32.427   8.819
  830POPC   C2B13688   2.999  32.749   8.469
  830POPC   C3B13689   3.098  32.661   8.046
  830POPC   C4B13690   3.146  32.350   7.652
  831POPC   NC313691   0.695  36.946   9.976
  831POPC   PO413692   1.163  36.778   9.483
  831POPC   GL113693   1.095  36.874   9.081
  831POPC   GL213694   1.458  36.813   9.014
  831POPC   C1A13695   1.099  36.809   8.639
  831POPC   D2A13696   1.379  36.687   8.359
  831POPC   C3A13697   1.217  36.779   7.987
  831POPC   C4A13698   0.969  36.830   7.658
  831POPC   C1B13699   1.559  37.106   8.666
  831POPC   C2B13700   1.491  37.168   8.218
  831POPC   C3B13701   1.617  37.056   7.786
  831POPC   C4B13702   1.729  37.165   7.300
  832POPC   NC313703  16.494  23.345   9.454
  832POPC   PO413704  16.052  23.787   9.554
  832POPC   GL113705  16.035  23.505   9.222
  832POPC   GL213706  15.753  23.536   9.029
  832POPC   C1A13707  16.198  23.353   8.830
  832POPC   D2A13708  16.137  23.217   8.402
  832POPC   C3A13709  16.021  23.482   8.037
  832POPC   C4A13710  16.295  23.602   7.704
  832POPC   C1B13711  15.786  23.579   8.593
  832POPC   C2B13712  15.814  23.984   8.405
  832POPC   C3B13713  15.676  24.016   7.996
  832POPC   C4B13714  15.820  23.821   7.633
  833POPC   NC313715  42.038   8.051   9.540
  833POPC   PO413716  41.471   8.313   9.634
  833POPC   GL113717  41.466   8.179   9.203
  833POPC   GL213718  41.786   8.288   9.146
  833POPC   C1A13719  41.313   8.222   8.751
  833POPC   D2A13720  41.529   8.163   8.360
  833POPC   C3A13721  41.315   8.194   7.987
  833POPC   C4A13722  41.529   8.158   7.648
  833POPC   C1B13723  41.783   8.428   8.722
  833POPC   C2B13724  41.962   8.537   8.304
  833POPC   C3B13725  41.788   8.538   7.863
  833POPC   C4B13726  41.897   8.397   7.392
  834POPC   NC313727  32.416  43.585   9.390
  834POPC   PO413728  32.621  42.980   9.484
  834POPC   GL113729  32.375  43.049   9.127
  834POPC   GL213730  32.017  42.944   9.179
  834POPC   C1A13731  32.380  43.027   8.671
  834POPC   D2A13732  32.228  43.278   8.293
  834POPC   C3A13733  32.345  43.087   7.872
  834POPC   C4A13734  32.358  43.128   7.377
  834POPC   C1B13735  31.932  43.209   8.843
  834POPC   C2B13736  31.725  43.189   8.445
  834POPC   C3B13737  31.790  43.368   8.027
  834POPC   C4B13738  31.920  43.221   7.636
  835POPC   NC313739  22.586   2.613   9.343
  835POPC   PO413740  22.083   3.033   9.594
  835POPC   GL113741  22.171   2.878   9.191
  835POPC   GL213742  22.380   3.182   9.177
  835POPC   C1A13743  22.147   2.656   8.760
  835POPC   D2A13744  21.851   2.599   8.428
  835POPC   C3A13745  22.021   2.631   8.008
  835POPC   C4A13746  21.788   2.693   7.628
  835POPC   C1B13747  22.138   3.161   8.783
  835POPC   C2B13748  22.149   3.007   8.357
  835POPC   C3B13749  22.028   3.151   7.939
  835POPC   C4B13750  22.234   2.939   7.601
  836POPC   NC313751  15.472  20.271   9.399
  836POPC   PO413752  15.008  20.797   9.520
  836POPC   GL113753  15.094  20.562   9.146
  836POPC   GL213754  15.390  20.738   9.146
  836POPC   C1A13755  15.034  20.718   8.714
  836POPC   D2A13756  14.721  20.771   8.372
  836POPC   C3A13757  14.823  20.715   7.949
  836POPC   C4A13758  15.139  20.539   7.747
  836POPC   C1B13759  15.548  20.559   8.791
  836POPC   C2B13760  15.440  20.551   8.397
  836POPC   C3B13761  15.449  20.306   8.066
  836POPC   C4B13762  15.661  20.517   7.741
  837POPC   NC313763  38.948   3.929   9.471
  837POPC   PO413764  39.470   4.412   9.477
  837POPC   GL113765  39.395   4.110   9.182
  837POPC   GL213766  39.072   4.184   9.055
  837POPC   C1A13767  39.424   4.070   8.726
  837POPC   D2A13768  39.199   4.216   8.389
  837POPC   C3A13769  39.307   4.075   8.005
  837POPC   C4A13770  39.226   4.285   7.680
  837POPC   C1B13771  38.882   4.439   8.754
  837POPC   C2B13772  38.656   4.414   8.369
  837POPC   C3B13773  38.773   4.324   7.953
  837POPC   C4B13774  38.770   4.310   7.515
  838POPC   NC313775  12.057   5.782   9.571
  838POPC   PO413776  11.680   6.317   9.462
  838POPC   GL113777  11.878   6.088   9.036
  838POPC   GL213778  12.185   5.915   9.096
  838POPC   C1A13779  11.859   5.826   8.668
  838POPC   D2A13780  12.114   5.772   8.316
  838POPC   C3A13781  12.062   5.555   7.935
  838POPC   C4A13782  12.099   5.876   7.640
  838POPC   C1B13783  12.330   5.612   8.792
  838POPC   C2B13784  12.595   5.718   8.440
  838POPC   C3B13785  12.526   5.778   7.978
  838POPC   C4B13786  12.456   5.526   7.577
  839POPC   NC313787  14.853  11.492   9.586
  839POPC   PO413788  15.374  11.017   9.502
  839POPC   GL113789  15.147  11.165   9.114
  839POPC   GL213790  15.152  11.532   8.982
  839POPC   C1A13791  15.140  11.092   8.674
  839POPC   D2A13792  15.443  11.098   8.319
  839POPC   C3A13793  15.270  11.156   7.885
  839POPC   C4A13794  15.039  10.962   7.545
  839POPC   C1B13795  15.339  11.553   8.558
  839POPC   C2B13796  15.218  11.637   8.133
  839POPC   C3B13797  14.920  11.677   7.773
  839POPC   C4B13798  14.989  11.858   7.353
  840POPC   NC313799   8.331  28.063   9.907
  840POPC   PO413800   7.847  27.873   9.431
  840POPC   GL113801   8.064  27.718   9.047
  840POPC   GL213802   8.352  27.496   9.129
  840POPC   C1A13803   8.084  27.745   8.610
  840POPC   D2A13804   8.415  27.664   8.357
  840POPC   C3A13805   8.307  27.784   7.929
  840POPC   C4A13806   8.450  27.640   7.513
  840POPC   C1B13807   8.248  27.288   8.707
  840POPC   C2B13808   8.034  27.343   8.267
  840POPC   C3B13809   8.226  27.274   7.851
  840POPC   C4B13810   8.211  27.192   7.389
  841POPC   NC313811  33.770  29.650   9.557
  841POPC   PO413812  34.203  29.124   9.604
  841POPC   GL113813  34.022  29.318   9.239
  841POPC   GL213814  33.916  28.986   9.179
  841POPC   C1A13815  33.799  29.354   8.830
  841POPC   D2A13816  33.966  29.431   8.405
  841POPC   C3A13817  33.794  29.358   7.988
  841POPC   C4A13818  33.758  29.318   7.527
  841POPC   C1B13819  33.593  28.850   8.915
  841POPC   C2B13820  33.791  28.744   8.562
  841POPC   C3B13821  33.920  28.922   8.195
  841POPC   C4B13822  33.881  28.878   7.756
  842POPC   NC313823   4.575  40.563   9.619
  842POPC   PO413824   4.077  40.959   9.499
  842POPC   GL113825   4.356  40.770   9.139
  842POPC   GL213826   4.710  40.645   9.154
  842POPC   C1A13827   4.525  40.796   8.691
  842POPC   D2A13828   4.316  40.786   8.283
  842POPC   C3A13829   4.480  40.966   7.897
  842POPC   C4A13830   4.331  40.775   7.511
  842POPC   C1B13831   4.732  40.315   8.830
  842POPC   C2B13832   4.666  40.378   8.402
  842POPC   C3B13833   4.695  40.509   8.000
  842POPC   C4B13834   4.648  40.373   7.599
  843POPC   NC313835   7.459  30.987   9.267
  843POPC   PO413836   7.384  31.638   9.553
  843POPC   GL113837   7.155  31.584   9.109
  843POPC   GL213838   7.255  31.270   8.911
  843POPC   C1A13839   7.022  31.579   8.626
  843POPC   D2A13840   7.329  31.349   8.362
  843POPC   C3A13841   7.449  31.468   7.936
  843POPC   C4A13842   7.531  31.383   7.484
  843POPC   C1B13843   7.175  30.945   8.659
  843POPC   C2B13844   6.989  30.974   8.284
  843POPC   C3B13845   7.220  30.959   7.914
  843POPC   C4B13846   7.056  31.255   7.672
  844POPC   NC313847   8.742  29.575   9.517
  844POPC   PO413848   9.144  30.021   9.543
  844POPC   GL113849   9.089  30.001   9.154
  844POPC   GL213850   9.107  29.642   9.115
  844POPC   C1A13851   8.899  30.198   8.813
  844POPC   D2A13852   8.711  29.927   8.549
  844POPC   C3A13853   8.681  29.997   8.140
  844POPC   C4A13854   8.801  30.120   7.760
  844POPC   C1B13855   9.214  29.776   8.693
  844POPC   C2B13856   9.194  29.938   8.270
  844POPC   C3B13857   9.275  29.945   7.837
  844POPC   C4B13858   9.095  29.820   7.413
  845POPC   NC313859  37.807  20.482   9.591
  845POPC   PO413860  38.133  21.090   9.730
  845POPC   GL113861  37.930  20.929   9.295
  845POPC   GL213862  37.685  20.664   9.142
  845POPC   C1A13863  37.936  20.917   8.804
  845POPC   D2A13864  38.056  20.594   8.499
  845POPC   C3A13865  37.968  20.610   8.057
  845POPC   C4A13866  37.725  20.784   7.711
  845POPC   C1B13867  37.540  20.365   8.821
  845POPC   C2B13868  37.361  20.275   8.408
  845POPC   C3B13869  37.515  20.383   8.022
  845POPC   C4B13870  37.475  20.258   7.615
  846POPC   NC313871  40.375  19.069   9.533
  846POPC   PO413872  39.702  19.151   9.536
  846POPC   GL113873  39.936  18.911   9.186
  846POPC   GL213874  40.226  19.114   9.057
  846POPC   C1A13875  40.013  18.807   8.713
  846POPC   D2A13876  40.155  19.012   8.301
  846POPC   C3A13877  39.941  18.882   7.907
  846POPC   C4A13878  39.858  18.787   7.411
  846POPC   C1B13879  40.104  19.330   8.708
  846POPC   C2B13880  40.278  19.506   8.356
  846POPC   C3B13881  40.160  19.410   7.941
  846POPC   C4B13882  40.327  19.515   7.555
  847POPC   NC313883  29.462  29.543   9.491
  847POPC   PO413884  29.026  30.000   9.512
  847POPC   GL113885  29.194  30.070   9.144
  847POPC   GL213886  29.191  29.720   9.075
  847POPC   C1A13887  29.053  30.061   8.722
  847POPC   D2A13888  29.123  29.761   8.404
  847POPC   C3A13889  29.036  29.937   8.033
  847POPC   C4A13890  29.114  30.283   7.832
  847POPC   C1B13891  29.481  29.646   8.765
  847POPC   C2B13892  29.615  29.681   8.355
  847POPC   C3B13893  29.379  29.565   7.959
  847POPC   C4B13894  29.247  29.462   7.505
  848POPC   NC313895  22.256  36.989   9.578
  848POPC   PO413896  22.334  37.510   9.476
  848POPC   GL113897  22.146  37.202   9.117
  848POPC   GL213898  22.133  36.817   9.113
  848POPC   C1A13899  22.266  37.057   8.673
  848POPC   D2A13900  22.252  37.305   8.280
  848POPC   C3A13901  22.125  37.207   7.846
  848POPC   C4A13902  21.903  37.503   7.544
  848POPC   C1B13903  21.997  36.626   8.737
  848POPC   C2B13904  22.134  36.687   8.321
  848POPC   C3B13905  21.971  36.701   7.910
  848POPC   C4B13906  22.165  36.738   7.516
  849POPC   NC313907  26.802  11.607   9.705
  849POPC   PO413908  26.756  12.280   9.569
  849POPC   GL113909  26.823  12.137   9.144
  849POPC   GL213910  26.895  11.811   9.243
  849POPC   C1A13911  26.584  12.211   8.763
  849POPC   D2A13912  26.532  12.433   8.359
  849POPC   C3A13913  26.556  12.173   8.030
  849POPC   C4A13914  26.896  12.157   7.772
  849POPC   C1B13915  26.732  11.698   8.834
  849POPC   C2B13916  26.720  11.858   8.424
  849POPC   C3B13917  26.817  11.741   8.034
  849POPC   C4B13918  26.601  11.774   7.656
  850POPC   NC313919  30.428  14.619   9.469
  850POPC   PO413920  30.945  14.110   9.428
  850POPC   GL113921  30.739  14.092   9.063
  850POPC   GL213922  30.377  14.039   9.045
  850POPC   C1A13923  30.706  13.991   8.634
  850POPC   D2A13924  30.821  13.936   8.218
  850POPC   C3A13925  30.638  14.288   7.988
  850POPC   C4A13926  30.753  14.671   7.757
  850POPC   C1B13927  30.469  14.434   8.796
  850POPC   C2B13928  30.572  14.615   8.380
  850POPC   C3B13929  30.321  14.709   8.013
  850POPC   C4B13930  30.361  14.733   7.457
  851POPC   NC313931  16.314  43.722   9.432
  851POPC   PO413932  16.907  44.018   9.617
  851POPC   GL113933  16.756  43.920   9.229
  851POPC   GL213934  16.734  43.549   9.211
  851POPC   C1A13935  16.689  43.871   8.794
  851POPC   D2A13936  16.343  43.985   8.525
  851POPC   C3A13937  16.380  44.182   8.116
  851POPC   C4A13938  16.575  44.032   7.732
  851POPC   C1B13939  16.585  43.364   8.811
  851POPC   C2B13940  16.628  43.549   8.403
  851POPC   C3B13941  16.717  43.623   7.978
  851POPC   C4B13942  16.764  43.607   7.539
  852POPC   NC313943  43.542  13.066   9.453
  852POPC   PO413944  44.193  13.213   9.511
  852POPC   GL113945  43.978  13.022   9.185
  852POPC   GL213946  43.852  12.671   9.258
  852POPC   C1A13947  43.737  13.036   8.808
  852POPC   D2A13948  43.624  13.113   8.387
  852POPC   C3A13949  43.979  13.059   8.135
  852POPC   C4A13950  43.953  12.937   7.733
  852POPC   C1B13951  44.134  12.642   8.888
  852POPC   C2B13952  43.997  12.666   8.470
  852POPC   C3B13953  43.912  12.542   8.054
  852POPC   C4B13954  44.152  12.463   7.677
  853POPC   NC313955   9.337  41.694   9.459
  853POPC   PO413956  10.053  41.482   9.631
  853POPC   GL113957   9.828  41.636   9.290
  853POPC   GL213958   9.760  41.325   9.131
  853POPC   C1A13959   9.724  41.789   8.885
  853POPC   D2A13960   9.627  41.649   8.492
  853POPC   C3A13961   9.771  41.812   8.130
  853POPC   C4A13962   9.766  41.715   7.695
  853POPC   C1B13963   9.505  41.189   8.785
  853POPC   C2B13964   9.301  41.271   8.392
  853POPC   C3B13965   9.446  41.418   8.011
  853POPC   C4B13966   9.289  41.290   7.605
  854POPC   NC313967  17.691   7.475   9.456
  854POPC   PO413968  17.223   7.039   9.535
  854POPC   GL113969  17.353   7.282   9.135
  854POPC   GL213970  17.249   7.638   9.197
  854POPC   C1A13971  17.593   7.603   8.823
  854POPC   D2A13972  17.811   7.720   8.425
  854POPC   C3A13973  17.798   7.378   8.112
  854POPC   C4A13974  17.625   7.390   7.695
  854POPC   C1B13975  17.078   7.750   8.779
  854POPC   C2B13976  17.254   7.810   8.355
  854POPC   C3B13977  17.252   7.760   7.898
  854POPC   C4B13978  17.288   7.675   7.446
  855POPC   NC313979   4.237  38.124   9.452
  855POPC   PO413980   4.566  38.690   9.623
  855POPC   GL113981   4.497  38.513   9.197
  855POPC   GL213982   4.123  38.494   9.100
  855POPC   C1A13983   4.496  38.599   8.748
  855POPC   D2A13984   4.336  38.621   8.328
  855POPC   C3A13985   4.610  38.701   7.964
  855POPC   C4A13986   4.566  38.482   7.588
  855POPC   C1B13987   4.219  38.168   8.774
  855POPC   C2B13988   4.161  38.117   8.333
  855POPC   C3B13989   4.259  38.242   7.926
  855POPC   C4B13990   4.036  38.079   7.563
  856POPC   NC313991  11.087   7.319   9.536
  856POPC   PO413992  11.613   7.060   9.160
  856POPC   GL113993  11.346   7.436   9.116
  856POPC   GL213994  11.499   7.776   9.110
  856POPC   C1A13995  11.053   7.418   8.776
  856POPC   D2A13996  11.228   7.238   8.386
  856POPC   C3A13997  11.364   7.429   8.004
  856POPC   C4A13998  11.150   7.532   7.615
  856POPC   C1B13999  11.538   7.601   8.660
  856POPC   C2B14000  11.477   7.873   8.308
  856POPC   C3B14001  11.411   7.942   7.883
  856POPC   C4B14002  11.634   7.673   7.622
  857POPC   NC314003  41.449   6.481   9.387
  857POPC   PO414004  42.092   6.769   9.547
  857POPC   GL114005  41.811   6.773   9.179
  857POPC   GL214006  41.665   6.510   8.942
  857POPC   C1A14007  41.801   7.000   8.809
  857POPC   D2A14008  41.993   7.090   8.447
  857POPC   C3A14009  41.813   6.779   8.207
  857POPC   C4A14010  41.882   6.930   7.827
  857POPC   C1B14011  41.331   6.828   8.847
  857POPC   C2B14012  41.351   6.957   8.452
  857POPC   C3B14013  41.341   6.827   8.012
  857POPC   C4B14014  41.573   6.483   7.812
  858POPC   NC314015  14.534  32.887   9.580
  858POPC   PO414016  13.951  32.678   9.484
  858POPC   GL114017  14.252  32.848   9.132
  858POPC   GL214018  14.595  32.708   9.113
  858POPC   C1A14019  14.376  32.945   8.681
  858POPC   D2A14020  14.260  32.821   8.236
  858POPC   C3A14021  14.078  33.075   7.863
  858POPC   C4A14022  14.157  33.379   7.467
  858POPC   C1B14023  14.882  32.718   8.803
  858POPC   C2B14024  14.730  32.709   8.405
  858POPC   C3B14025  14.829  32.795   8.035
  858POPC   C4B14026  14.545  32.851   7.746
  859POPC   NC314027   7.914   1.779   9.348
  859POPC   PO414028   7.300   2.093   9.473
  859POPC   GL114029   7.469   1.980   9.111
  859POPC   GL214030   7.321   1.651   9.140
  859POPC   C1A14031   7.525   2.201   8.716
  859POPC   D2A14032   7.311   2.177   8.310
  859POPC   C3A14033   7.581   2.049   7.960
  859POPC   C4A14034   7.480   2.179   7.559
  859POPC   C1B14035   7.155   1.698   8.696
  859POPC   C2B14036   7.243   1.663   8.233
  859POPC   C3B14037   7.117   1.869   7.832
  859POPC   C4B14038   7.186   1.828   7.361
  860POPC   NC314039  36.814  34.552   9.922
  860POPC   PO414040  36.977  34.188   9.580
  860POPC   GL114041  36.940  34.580   9.357
  860POPC   GL214042  37.249  34.739   9.209
  860POPC   C1A14043  36.852  34.682   8.898
  860POPC   D2A14044  37.069  34.535   8.515
  860POPC   C3A14045  36.929  34.543   8.097
  860POPC   C4A14046  37.230  34.388   7.848
  860POPC   C1B14047  37.326  34.876   8.786
  860POPC   C2B14048  37.184  35.037   8.365
  860POPC   C3B14049  37.019  35.016   7.951
  860POPC   C4B14050  36.660  34.898   7.728
  861POPC   NC314051  43.483  40.244   9.523
  861POPC   PO414052  44.165  40.018   9.530
  861POPC   GL114053  44.042  40.087   9.117
  861POPC   GL214054  43.695  39.931   9.025
  861POPC   C1A14055  44.184  39.892   8.750
  861POPC   D2A14056  43.961  39.779   8.395
  861POPC   C3A14057  44.176  39.869   8.059
  861POPC   C4A14058  44.130  39.823   7.681
  861POPC   C1B14059  43.723  40.206   8.681
  861POPC   C2B14060  43.739  40.229   8.235
  861POPC   C3B14061  43.678  39.931   7.899
  861POPC   C4B14062  43.703  39.970   7.449
  862POPC   NC314063  16.562  32.528   9.525
  862POPC   PO414064  16.462  33.215   9.510
  862POPC   GL114065  16.797  33.124   9.194
  862POPC   GL214066  16.945  32.783   9.225
  862POPC   C1A14067  16.883  33.099   8.743
  862POPC   D2A14068  17.015  33.038   8.301
  862POPC   C3A14069  16.782  33.161   7.923
  862POPC   C4A14070  16.397  33.424   7.892
  862POPC   C1B14071  16.837  32.557   8.846
  862POPC   C2B14072  16.988  32.522   8.433
  862POPC   C3B14073  16.776  32.649   8.060
  862POPC   C4B14074  16.932  32.735   7.648
  863POPC   NC314075  20.328  15.404   9.452
  863POPC   PO414076  20.802  14.926   9.415
  863POPC   GL114077  20.724  14.999   8.993
  863POPC   GL214078  20.390  15.000   9.087
  863POPC   C1A14079  20.889  15.101   8.581
  863POPC   D2A14080  20.732  15.323   8.253
  863POPC   C3A14081  20.844  15.110   7.853
  863POPC   C4A14082  20.888  15.124   7.403
  863POPC   C1B14083  20.316  15.307   8.782
  863POPC   C2B14084  20.154  15.306   8.372
  863POPC   C3B14085  20.323  15.402   7.970
  863POPC   C4B14086  20.430  15.210   7.585
  864POPC   NC314087  42.891   1.171   9.503
  864POPC   PO414088  43.484   1.324   9.452
  864POPC   GL114089  43.278   1.016   9.202
  864POPC   GL214090  43.042   1.313   9.045
  864POPC   C1A14091  43.056   0.867   8.834
  864POPC   D2A14092  43.006   1.142   8.483
  864POPC   C3A14093  42.976   1.021   8.064
  864POPC   C4A14094  42.956   1.165   7.648
  864POPC   C1B14095  42.658   1.398   8.771
  864POPC   C2B14096  42.562   1.442   8.307
  864POPC   C3B14097  42.670   1.520   7.845
  864POPC   C4B14098  42.748   1.521   7.341
  865POPC   NC314099   9.706   3.616   9.561
  865POPC   PO414100  10.046   3.002   9.444
  865POPC   GL114101   9.742   3.250   9.168
  865POPC   GL214102   9.929   3.567   9.131
  865POPC   C1A14103   9.658   3.417   8.727
  865POPC   D2A14104   9.745   3.459   8.256
  865POPC   C3A14105   9.961   3.228   7.916
  865POPC   C4A14106   9.688   3.232   7.533
  865POPC   C1B14107   9.929   3.875   8.830
  865POPC   C2B14108  10.091   3.836   8.448
  865POPC   C3B14109   9.940   3.974   8.068
  865POPC   C4B14110   9.811   3.684   7.783
  866POPC   NC314111   7.273  26.748   9.565
  866POPC   PO414112   7.955  26.892   9.593
  866POPC   GL114113   7.710  26.693   9.267
  866POPC   GL214114   7.547  26.989   9.187
  866POPC   C1A14115   7.529  26.601   8.862
  866POPC   D2A14116   7.300  26.546   8.504
  866POPC   C3A14117   7.520  26.479   8.121
  866POPC   C4A14118   7.463  26.767   7.796
  866POPC   C1B14119   7.484  27.116   8.746
  866POPC   C2B14120   7.180  27.163   8.419
  866POPC   C3B14121   7.164  27.112   7.990
  866POPC   C4B14122   7.597  27.267   7.844
  867POPC   NC314123   0.988  20.341   9.597
  867POPC   PO414124   1.457  20.835   9.464
  867POPC   GL114125   1.290  20.494   9.148
  867POPC   GL214126   0.963  20.349   9.106
  867POPC   C1A14127   1.169  20.594   8.704
  867POPC   D2A14128   1.005  20.805   8.313
  867POPC   C3A14129   1.186  20.594   7.940
  867POPC   C4A14130   1.624  20.539   7.781
  867POPC   C1B14131   0.807  20.182   8.772
  867POPC   C2B14132   0.815  20.356   8.427
  867POPC   C3B14133   0.748  20.310   8.034
  867POPC   C4B14134   0.836  20.420   7.607
  868POPC   NC314135  36.569   3.247   9.365
  868POPC   PO414136  36.867   2.646   9.595
  868POPC   GL114137  37.051   2.866   9.198
  868POPC   GL214138  36.997   2.587   8.993
  868POPC   C1A14139  37.185   2.969   8.713
  868POPC   D2A14140  37.214   3.196   8.269
  868POPC   C3A14141  37.071   2.995   7.858
  868POPC   C4A14142  37.018   3.156   7.387
  868POPC   C1B14143  36.653   2.465   8.757
  868POPC   C2B14144  36.820   2.438   8.375
  868POPC   C3B14145  36.825   2.554   7.963
  868POPC   C4B14146  36.817   2.406   7.553
  869POPC   NC314147   8.624   9.561   9.393
  869POPC   PO414148   9.070  10.000   9.704
  869POPC   GL114149   9.084   9.752   9.246
  869POPC   GL214150   8.803   9.797   8.983
  869POPC   C1A14151   9.283   9.681   8.820
  869POPC   D2A14152   9.343   9.837   8.391
  869POPC   C3A14153   8.964   9.672   8.165
  869POPC   C4A14154   8.587   9.680   7.863
  869POPC   C1B14155   8.619  10.080   8.665
  869POPC   C2B14156   8.569  10.073   8.213
  869POPC   C3B14157   8.593  10.202   7.793
  869POPC   C4B14158   8.722   9.966   7.438
  870POPC   NC314159  17.948  18.786   9.663
  870POPC   PO414160  17.228  18.913   9.813
  870POPC   GL114161  17.304  19.059   9.366
  870POPC   GL214162  17.550  18.801   9.282
  870POPC   C1A14163  17.419  19.199   8.901
  870POPC   D2A14164  17.382  19.053   8.438
  870POPC   C3A14165  17.229  19.243   8.055
  870POPC   C4A14166  17.454  19.217   7.656
  870POPC   C1B14167  17.529  18.694   8.833
  870POPC   C2B14168  17.775  18.735   8.462
  870POPC   C3B14169  17.750  18.957   8.051
  870POPC   C4B14170  17.755  18.822   7.613
  871POPC   NC314171  14.316   8.608   9.535
  871POPC   PO414172  14.108   8.003   9.435
  871POPC   GL114173  14.460   8.038   9.149
  871POPC   GL214174  14.506   8.401   9.096
  871POPC   C1A14175  14.537   8.082   8.687
  871POPC   D2A14176  14.317   8.374   8.391
  871POPC   C3A14177  14.156   8.214   7.989
  871POPC   C4A14178  14.314   8.023   7.635
  871POPC   C1B14179  14.719   8.590   8.742
  871POPC   C2B14180  14.668   8.725   8.297
  871POPC   C3B14181  14.628   8.387   7.941
  871POPC   C4B14182  14.661   8.333   7.482
  872POPC   NC314183  20.256   3.449   9.510
  872POPC   PO414184  20.894   3.814   9.633
  872POPC   GL114185  20.767   3.660   9.204
  872POPC   GL214186  20.607   3.341   9.152
  872POPC   C1A14187  20.875   3.567   8.761
  872POPC   D2A14188  20.746   3.386   8.349
  872POPC   C3A14189  20.714   3.700   7.988
  872POPC   C4A14190  20.881   3.721   7.566
  872POPC   C1B14191  20.333   3.188   8.815
  872POPC   C2B14192  20.167   3.196   8.386
  872POPC   C3B14193  20.350   3.261   8.013
  872POPC   C4B14194  20.580   3.313   7.673
  873POPC   NC314195  29.901   3.351   9.540
  873POPC   PO414196  30.572   3.388   9.729
  873POPC   GL114197  30.302   3.528   9.305
  873POPC   GL214198  30.397   3.340   9.066
  873POPC   C1A14199  29.997   3.635   8.953
  873POPC   D2A14200  30.067   3.713   8.522
  873POPC   C3A14201  29.807   3.569   8.184
  873POPC   C4A14202  29.595   3.502   7.823
  873POPC   C1B14203  30.268   3.246   8.664
  873POPC   C2B14204  30.286   3.355   8.210
  873POPC   C3B14205  30.131   3.352   7.780
  873POPC   C4B14206  30.139   3.375   7.317
  874POPC   NC314207  33.301  12.415   9.456
  874POPC   PO414208  33.020  13.058   9.516
  874POPC   GL114209  33.107  12.901   9.133
  874POPC   GL214210  32.823  12.715   9.154
  874POPC   C1A14211  33.004  13.085   8.722
  874POPC   D2A14212  33.042  13.275   8.301
  874POPC   C3A14213  33.044  12.982   7.945
  874POPC   C4A14214  33.309  12.592   7.899
  874POPC   C1B14215  32.876  12.585   8.764
  874POPC   C2B14216  32.765  12.793   8.378
  874POPC   C3B14217  32.718  12.581   8.032
  874POPC   C4B14218  32.858  12.556   7.673
  875POPC   NC314219   6.022  24.053   9.376
  875POPC   PO414220   5.609  23.460   9.481
  875POPC   GL114221   5.954  23.464   9.181
  875POPC   GL214222   5.818  23.752   9.025
  875POPC   C1A14223   6.085  23.469   8.731
  875POPC   D2A14224   6.015  23.683   8.303
  875POPC   C3A14225   5.980  23.393   7.891
  875POPC   C4A14226   6.108  23.334   7.398
  875POPC   C1B14227   5.500  23.827   8.698
  875POPC   C2B14228   5.426  24.100   8.350
  875POPC   C3B14229   5.437  23.940   7.948
  875POPC   C4B14230   5.829  23.858   7.756
  876POPC   NC314231   7.065  33.550   9.505
  876POPC   PO414232   7.485  34.087   9.461
  876POPC   GL114233   7.642  33.804   9.141
  876POPC   GL214234   7.289  33.713   9.074
  876POPC   C1A14235   7.605  33.526   8.741
  876POPC   D2A14236   7.313  33.622   8.410
  876POPC   C3A14237   7.540  33.754   8.068
  876POPC   C4A14238   7.787  33.593   7.745
  876POPC   C1B14239   7.414  34.020   8.737
  876POPC   C2B14240   7.192  34.113   8.371
  876POPC   C3B14241   7.055  33.937   7.992
  876POPC   C4B14242   6.968  34.273   7.725
  877POPC   NC314243  21.288  14.158   9.549
  877POPC   PO414244  21.741  14.586   9.474
  877POPC   GL114245  21.312  14.610   9.223
  877POPC   GL214246  21.206  14.285   9.079
  877POPC   C1A14247  21.089  14.672   8.793
  877POPC   D2A14248  21.136  14.433   8.379
  877POPC   C3A14249  21.100  14.638   7.977
  877POPC   C4A14250  21.473  14.704   7.688
  877POPC   C1B14251  21.317  14.074   8.715
  877POPC   C2B14252  21.579  13.890   8.436
  877POPC   C3B14253  21.646  13.965   8.010
  877POPC   C4B14254  21.324  14.212   7.813
  878POPC   NC314255  29.085  30.469   9.489
  878POPC   PO414256  28.968  31.150   9.534
  878POPC   GL114257  28.880  30.848   9.193
  878POPC   GL214258  29.237  30.848   9.153
  878POPC   C1A14259  28.951  30.618   8.770
  878POPC   D2A14260  28.907  30.426   8.331
  878POPC   C3A14261  29.031  30.737   8.027
  878POPC   C4A14262  29.147  30.756   7.613
  878POPC   C1B14263  29.504  30.715   8.804
  878POPC   C2B14264  29.371  30.664   8.397
  878POPC   C3B14265  29.532  30.565   7.981
  878POPC   C4B14266  29.644  30.784   7.597
  879POPC   NC314267  35.976  16.339   9.559
  879POPC   PO414268  35.992  15.704   9.600
  879POPC   GL114269  36.231  15.941   9.286
  879POPC   GL214270  36.420  16.273   9.328
  879POPC   C1A14271  36.163  15.875   8.856
  879POPC   D2A14272  35.895  16.035   8.543
  879POPC   C3A14273  35.984  15.779   8.199
  879POPC   C4A14274  36.062  15.958   7.826
  879POPC   C1B14275  36.302  16.359   8.911
  879POPC   C2B14276  36.541  16.347   8.542
  879POPC   C3B14277  36.414  16.169   8.157
  879POPC   C4B14278  36.558  16.100   7.752
  880POPC   NC314279  39.047  41.726   9.584
  880POPC   PO414280  39.139  41.079   9.346
  880POPC   GL114281  39.232  41.441   9.047
  880POPC   GL214282  39.213  41.789   9.132
  880POPC   C1A14283  39.100  41.625   8.667
  880POPC   D2A14284  39.061  41.634   8.243
  880POPC   C3A14285  39.263  41.368   7.988
  880POPC   C4A14286  39.216  41.518   7.563
  880POPC   C1B14287  39.461  41.952   8.861
  880POPC   C2B14288  39.489  41.948   8.442
  880POPC   C3B14289  39.548  41.784   8.065
  880POPC   C4B14290  39.550  41.939   7.622
  881POPC   NC314291  23.734   7.109   9.533
  881POPC   PO414292  23.917   6.503   9.589
  881POPC   GL114293  23.770   6.687   9.200
  881POPC   GL214294  23.467   6.499   9.119
  881POPC   C1A14295  23.690   6.773   8.749
  881POPC   D2A14296  23.806   6.570   8.365
  881POPC   C3A14297  23.930   6.811   8.051
  881POPC   C4A14298  23.654   6.903   7.738
  881POPC   C1B14299  23.698   6.272   8.770
  881POPC   C2B14300  23.628   6.042   8.421
  881POPC   C3B14301  23.487   6.256   8.091
  881POPC   C4B14302  23.770   6.369   7.843
  882POPC   NC314303  26.464  20.864   9.930
  882POPC   PO414304  26.825  20.403   9.614
  882POPC   GL114305  26.673  20.421   9.179
  882POPC   GL214306  26.295  20.317   9.139
  882POPC   C1A14307  26.830  20.702   8.805
  882POPC   D2A14308  26.811  20.849   8.360
  882POPC   C3A14309  26.875  20.605   7.966
  882POPC   C4A14310  26.929  20.804   7.518
  882POPC   C1B14311  26.440  20.377   8.738
  882POPC   C2B14312  26.627  20.322   8.366
  882POPC   C3B14313  26.417  20.251   8.011
  882POPC   C4B14314  26.489  20.346   7.613
  883POPC   NC314315   8.230  35.055   9.857
  883POPC   PO414316   8.382  34.511   9.584
  883POPC   GL114317   8.326  34.448   9.186
  883POPC   GL214318   8.053  34.627   9.140
  883POPC   C1A14319   8.326  34.281   8.773
  883POPC   D2A14320   8.195  34.449   8.369
  883POPC   C3A14321   8.426  34.292   8.028
  883POPC   C4A14322   8.233  34.420   7.702
  883POPC   C1B14323   7.962  34.833   8.746
  883POPC   C2B14324   7.759  34.770   8.368
  883POPC   C3B14325   7.842  34.647   7.962
  883POPC   C4B14326   7.808  34.643   7.517
  884POPC   NC314327  24.212  31.599   9.444
  884POPC   PO414328  24.906  31.782   9.501
  884POPC   GL114329  24.621  31.729   9.183
  884POPC   GL214330  24.618  31.348   9.191
  884POPC   C1A14331  24.524  31.630   8.771
  884POPC   D2A14332  24.628  31.449   8.382
  884POPC   C3A14333  24.527  31.624   7.994
  884POPC   C4A14334  24.414  31.645   7.572
  884POPC   C1B14335  24.354  31.157   8.843
  884POPC   C2B14336  24.416  30.968   8.445
  884POPC   C3B14337  24.678  31.035   8.083
  884POPC   C4B14338  24.636  31.215   7.694
  885POPC   NC314339   3.461  38.698   9.713
  885POPC   PO414340   3.758  38.104   9.569
  885POPC   GL114341   3.613  38.386   9.213
  885POPC   GL214342   3.494  38.762   9.191
  885POPC   C1A14343   3.717  38.364   8.773
  885POPC   D2A14344   3.536  38.328   8.366
  885POPC   C3A14345   3.858  38.516   8.125
  885POPC   C4A14346   3.892  38.557   7.709
  885POPC   C1B14347   3.708  38.877   8.781
  885POPC   C2B14348   3.537  38.846   8.367
  885POPC   C3B14349   3.394  38.688   7.995
  885POPC   C4B14350   3.413  38.720   7.576
  886POPC   NC314351  29.418  19.434   9.482
  886POPC   PO414352  28.951  18.843   9.440
  886POPC   GL114353  29.191  19.086   9.133
  886POPC   GL214354  29.593  19.105   9.131
  886POPC   C1A14355  29.022  19.127   8.709
  886POPC   D2A14356  28.877  19.019   8.304
  886POPC   C3A14357  29.225  18.943   8.055
  886POPC   C4A14358  29.303  18.786   7.672
  886POPC   C1B14359  29.489  19.342   8.779
  886POPC   C2B14360  29.385  19.318   8.367
  886POPC   C3B14361  29.099  19.443   8.056
  886POPC   C4B14362  29.220  19.285   7.660
  887POPC   NC314363  13.685   5.100   9.443
  887POPC   PO414364  13.252   5.616   9.393
  887POPC   GL114365  13.381   5.361   9.049
  887POPC   GL214366  13.723   5.413   9.049
  887POPC   C1A14367  13.479   5.253   8.602
  887POPC   D2A14368  13.470   4.905   8.283
  887POPC   C3A14369  13.351   5.001   7.859
  887POPC   C4A14370  13.364   5.312   7.557
  887POPC   C1B14371  13.891   5.060   8.839
  887POPC   C2B14372  13.947   5.042   8.429
  887POPC   C3B14373  13.946   4.780   8.089
  887POPC   C4B14374  13.863   5.000   7.728
  888POPC   NC314375  26.080  19.479   9.648
  888POPC   PO414376  26.036  18.844   9.545
  888POPC   GL114377  26.053  19.051   9.170
  888POPC   GL214378  25.731  19.133   9.196
  888POPC   C1A14379  26.188  19.030   8.734
  888POPC   D2A14380  26.147  18.959   8.299
  888POPC   C3A14381  25.918  19.030   7.970
  888POPC   C4A14382  26.136  19.045   7.596
  888POPC   C1B14383  25.742  18.800   8.847
  888POPC   C2B14384  25.649  18.820   8.392
  888POPC   C3B14385  25.625  18.587   7.972
  888POPC   C4B14386  25.828  18.639   7.573
  889POPC   NC314387  26.924   2.454   9.557
  889POPC   PO414388  26.687   3.051   9.456
  889POPC   GL114389  26.748   2.741   9.156
  889POPC   GL214390  27.102   2.602   9.103
  889POPC   C1A14391  26.698   2.686   8.738
  889POPC   D2A14392  26.820   2.475   8.410
  889POPC   C3A14393  26.621   2.689   8.076
  889POPC   C4A14394  26.568   2.537   7.667
  889POPC   C1B14395  27.126   2.955   8.786
  889POPC   C2B14396  27.058   2.939   8.323
  889POPC   C3B14397  27.048   2.844   7.847
  889POPC   C4B14398  27.195   2.998   7.452
  890POPC   NC314399  26.916  25.122   9.498
  890POPC   PO414400  27.143  25.690   9.383
  890POPC   GL114401  26.867  25.407   9.087
  890POPC   GL214402  27.065  25.070   9.016
  890POPC   C1A14403  26.674  25.171   8.735
  890POPC   D2A14404  26.817  25.296   8.339
  890POPC   C3A14405  26.659  25.226   7.965
  890POPC   C4A14406  26.889  25.056   7.598
  890POPC   C1B14407  27.182  25.390   8.685
  890POPC   C2B14408  27.267  25.552   8.250
  890POPC   C3B14409  27.130  25.471   7.832
  890POPC   C4B14410  27.273  25.375   7.421
  891POPC   NC314411  42.567  28.492   9.537
  891POPC   PO414412  42.108  28.104   9.433
  891POPC   GL114413  42.374  28.291   9.088
  891POPC   GL214414  42.484  28.660   9.046
  891POPC   C1A14415  42.279  28.351   8.651
  891POPC   D2A14416  42.497  28.242   8.292
  891POPC   C3A14417  42.279  28.112   7.919
  891POPC   C4A14418  42.526  28.217   7.549
  891POPC   C1B14419  42.102  28.805   8.810
  891POPC   C2B14420  42.037  28.717   8.376
  891POPC   C3B14421  42.265  28.629   7.993
  891POPC   C4B14422  42.102  28.480   7.602
  892POPC   NC314423  12.914   3.118   9.538
  892POPC   PO414424  12.558   2.522   9.432
  892POPC   GL114425  12.854   2.679   9.159
  892POPC   GL214426  12.692   2.977   9.095
  892POPC   C1A14427  12.920   2.551   8.729
  892POPC   D2A14428  12.661   2.602   8.371
  892POPC   C3A14429  12.857   2.509   8.014
  892POPC   C4A14430  12.945   2.645   7.642
  892POPC   C1B14431  13.121   3.002   8.869
  892POPC   C2B14432  13.296   2.888   8.452
  892POPC   C3B14433  13.217   3.006   7.980
  892POPC   C4B14434  13.268   3.011   7.486
  893POPC   NC314435   3.983  41.400   9.399
  893POPC   PO414436   4.639  41.767   9.448
  893POPC   GL114437   4.405  41.619   9.157
  893POPC   GL214438   4.497  41.266   9.261
  893POPC   C1A14439   4.462  41.686   8.725
  893POPC   D2A14440   4.206  41.760   8.369
  893POPC   C3A14441   4.418  41.742   8.043
  893POPC   C4A14442   4.600  41.641   7.715
  893POPC   C1B14443   4.308  41.219   8.851
  893POPC   C2B14444   4.386  41.272   8.421
  893POPC   C3B14445   4.141  41.323   8.075
  893POPC   C4B14446   4.098  41.260   7.654
  894POPC   NC314447  11.245  40.371   9.431
  894POPC   PO414448  11.622  39.837   9.445
  894POPC   GL114449  11.439  39.915   9.083
  894POPC   GL214450  11.088  39.983   8.980
  894POPC   C1A14451  11.484  39.932   8.673
  894POPC   D2A14452  11.099  39.965   8.452
  894POPC   C3A14453  11.201  39.916   8.051
  894POPC   C4A14454  11.324  39.706   7.698
  894POPC   C1B14455  11.228  40.358   8.742
  894POPC   C2B14456  11.510  40.320   8.344
  894POPC   C3B14457  11.392  40.380   7.899
  894POPC   C4B14458  11.416  40.150   7.509
  895POPC   NC314459  28.059  30.745   9.566
  895POPC   PO414460  28.632  30.450   9.418
  895POPC   GL114461  28.373  30.671   9.158
  895POPC   GL214462  28.341  31.032   9.169
  895POPC   C1A14463  28.050  30.707   8.885
  895POPC   D2A14464  28.093  30.850   8.499
  895POPC   C3A14465  28.315  30.580   8.228
  895POPC   C4A14466  28.146  30.637   7.830
  895POPC   C1B14467  28.599  31.069   8.798
  895POPC   C2B14468  28.707  30.929   8.387
  895POPC   C3B14469  28.558  30.939   7.949
  895POPC   C4B14470  28.646  30.525   7.785
  896POPC   NC314471  33.431  23.823   9.580
  896POPC   PO414472  32.892  23.324   9.447
  896POPC   GL114473  32.925  23.583   9.118
  896POPC   GL214474  33.119  23.860   9.123
  896POPC   C1A14475  32.867  23.674   8.708
  896POPC   D2A14476  33.067  23.508   8.369
  896POPC   C3A14477  33.000  23.767   8.041
  896POPC   C4A14478  32.663  23.743   7.784
  896POPC   C1B14479  32.898  24.171   8.844
  896POPC   C2B14480  32.950  24.143   8.393
  896POPC   C3B14481  32.834  24.253   7.960
  896POPC   C4B14482  32.562  24.208   7.603
  897POPC   NC314483  33.295  22.340   9.336
  897POPC   PO414484  33.012  21.744   9.543
  897POPC   GL114485  32.909  21.977   9.152
  897POPC   GL214486  32.533  21.888   9.172
  897POPC   C1A14487  33.099  22.186   8.744
  897POPC   D2A14488  33.223  22.464   8.391
  897POPC   C3A14489  33.107  22.278   8.033
  897POPC   C4A14490  32.931  22.251   7.651
  897POPC   C1B14491  32.656  21.853   8.738
  897POPC   C2B14492  32.915  21.867   8.374
  897POPC   C3B14493  32.698  21.913   8.002
  897POPC   C4B14494  32.776  21.778   7.596
  898POPC   NC314495   8.962  28.694   9.455
  898POPC   PO414496   9.202  29.297   9.502
  898POPC   GL114497   8.997  29.127   9.165
  898POPC   GL214498   9.294  28.934   9.076
  898POPC   C1A14499   8.896  28.838   8.829
  898POPC   D2A14500   9.151  28.637   8.514
  898POPC   C3A14501   9.170  28.931   8.170
  898POPC   C4A14502   9.090  28.889   7.721
  898POPC   C1B14503   9.192  29.232   8.684
  898POPC   C2B14504   8.946  29.490   8.332
  898POPC   C3B14505   8.890  29.602   7.876
  898POPC   C4B14506   9.025  29.342   7.532
  899POPC   NC314507   5.803  37.237   9.553
  899POPC   PO414508   5.732  36.432   9.491
  899POPC   GL114509   5.752  36.688   9.129
  899POPC   GL214510   6.008  36.953   9.151
  899POPC   C1A14511   5.749  36.672   8.696
  899POPC   D2A14512   5.708  36.928   8.328
  899POPC   C3A14513   5.838  36.782   7.927
  899POPC   C4A14514   6.008  36.895   7.509
  899POPC   C1B14515   5.849  37.174   8.798
  899POPC   C2B14516   6.023  37.307   8.415
  899POPC   C3B14517   6.033  37.231   7.980
  899POPC   C4B14518   6.162  37.416   7.640
  900POPC   NC314519  26.123  24.595   9.625
  900POPC   PO414520  26.532  24.023   9.489
  900POPC   GL114521  26.222  24.266   9.221
  900POPC   GL214522  26.256  24.650   9.148
  900POPC   C1A14523  26.021  24.312   8.817
  900POPC   D2A14524  25.855  24.126   8.447
  900POPC   C3A14525  25.847  24.340   8.078
  900POPC   C4A14526  25.849  24.702   7.865
  900POPC   C1B14527  26.415  24.646   8.744
  900POPC   C2B14528  26.164  24.615   8.392
  900POPC   C3B14529  26.337  24.620   8.002
  900POPC   C4B14530  26.395  24.899   7.696
  901POPC   NC314531  10.775  41.920   9.205
  901POPC   PO414532  10.310  42.378   9.526
  901POPC   GL114533  10.503  42.403   9.141
  901POPC   GL214534  10.899  42.412   9.126
  901POPC   C1A14535  10.270  42.511   8.769
  901POPC   D2A14536  10.435  42.572   8.389
  901POPC   C3A14537  10.241  42.647   8.033
  901POPC   C4A14538  10.402  42.299   7.831
  901POPC   C1B14539  10.741  42.282   8.674
  901POPC   C2B14540  10.603  42.070   8.257
  901POPC   C3B14541  10.773  41.924   7.833
  901POPC   C4B14542  10.893  42.039   7.378
  902POPC   NC314543  32.614  25.716   9.431
  902POPC   PO414544  32.160  25.250   9.463
  902POPC   GL114545  32.045  25.359   9.068
  902POPC   GL214546  31.896  25.053   8.980
  902POPC   C1A14547  32.071  25.460   8.632
  902POPC   D2A14548  32.374  25.455   8.312
  902POPC   C3A14549  32.340  25.602   7.882
  902POPC   C4A14550  32.352  25.513   7.439
  902POPC   C1B14551  32.278  24.988   8.723
  902POPC   C2B14552  32.278  24.953   8.268
  902POPC   C3B14553  32.375  25.083   7.841
  902POPC   C4B14554  32.230  24.953   7.435
  903POPC   NC314555  33.111  40.335   9.745
  903POPC   PO414556  33.167  40.886   9.347
  903POPC   GL114557  33.175  40.814   8.928
  903POPC   GL214558  32.879  40.602   8.846
  903POPC   C1A14559  33.301  40.608   8.569
  903POPC   D2A14560  33.020  40.768   8.307
  903POPC   C3A14561  32.877  40.574   7.989
  903POPC   C4A14562  33.099  40.773   7.715
  903POPC   C1B14563  32.725  40.990   8.683
  903POPC   C2B14564  32.537  40.949   8.278
  903POPC   C3B14565  32.714  41.040   7.910
  903POPC   C4B14566  32.759  41.152   7.505
  904POPC   NC314567  12.104  38.057   9.330
  904POPC   PO414568  12.132  38.707   9.420
  904POPC   GL114569  11.960  38.507   9.086
  904POPC   GL214570  11.675  38.334   9.206
  904POPC   C1A14571  12.185  38.433   8.707
  904POPC   D2A14572  12.405  38.712   8.399
  904POPC   C3A14573  12.242  38.577   8.001
  904POPC   C4A14574  12.266  38.164   7.830
  904POPC   C1B14575  11.605  38.231   8.765
  904POPC   C2B14576  11.855  38.258   8.354
  904POPC   C3B14577  11.796  38.005   7.977
  904POPC   C4B14578  11.868  38.055   7.538
  905POPC   NC314579  16.166   3.596   9.492
  905POPC   PO414580  15.648   3.242   9.134
  905POPC   GL114581  15.995   3.367   9.049
  905POPC   GL214582  15.925   3.708   9.073
  905POPC   C1A14583  15.957   3.484   8.632
  905POPC   D2A14584  15.734   3.419   8.302
  905POPC   C3A14585  15.961   3.499   7.980
  905POPC   C4A14586  15.792   3.730   7.632
  905POPC   C1B14587  16.354   3.698   8.850
  905POPC   C2B14588  16.548   3.664   8.453
  905POPC   C3B14589  16.453   3.857   8.036
  905POPC   C4B14590  16.309   3.720   7.701
  906POPC   NC314591  23.936   9.189   9.418
  906POPC   PO414592  23.526   8.697   9.650
  906POPC   GL114593  23.695   8.682   9.156
  906POPC   GL214594  23.817   8.979   8.981
  906POPC   C1A14595  23.494   8.712   8.710
  906POPC   D2A14596  23.300   8.994   8.366
  906POPC   C3A14597  23.534   9.082   7.958
  906POPC   C4A14598  23.486   9.361   7.608
  906POPC   C1B14599  24.022   9.065   8.653
  906POPC   C2B14600  23.904   9.274   8.283
  906POPC   C3B14601  24.088   9.257   7.898
  906POPC   C4B14602  23.919   9.099   7.561
  907POPC   NC314603  24.616  43.718   9.500
  907POPC   PO414604  24.659  44.369   9.383
  907POPC   GL114605  24.409  44.116   9.183
  907POPC   GL214606  24.698  43.949   9.042
  907POPC   C1A14607  24.282  44.142   8.764
  907POPC   D2A14608  24.496  44.089   8.363
  907POPC   C3A14609  24.467  43.763   8.047
  907POPC   C4A14610  24.260  43.605   7.673
  907POPC   C1B14611  24.746  43.737   8.653
  907POPC   C2B14612  24.801  43.466   8.313
  907POPC   C3B14613  24.962  43.520   7.916
  907POPC   C4B14614  24.772  43.703   7.550
  908POPC   NC314615  34.642  37.328   9.440
  908POPC   PO414616  34.550  37.931   9.733
  908POPC   GL114617  34.509  37.779   9.242
  908POPC   GL214618  34.398  37.424   9.029
  908POPC   C1A14619  34.624  37.825   8.777
  908POPC   D2A14620  34.393  37.847   8.337
  908POPC   C3A14621  34.614  37.852   7.935
  908POPC   C4A14622  34.543  37.658   7.538
  908POPC   C1B14623  34.401  37.405   8.586
  908POPC   C2B14624  34.784  37.514   8.314
  908POPC   C3B14625  34.806  37.352   7.893
  908POPC   C4B14626  34.398  37.107   7.830
  909POPC   NC314627   4.222  43.549   9.468
  909POPC   PO414628   4.142  44.211   9.383
  909POPC   GL114629   4.381  44.113   9.048
  909POPC   GL214630   4.500  43.777   9.075
  909POPC   C1A14631   4.174  43.987   8.674
  909POPC   D2A14632   4.134  43.754   8.282
  909POPC   C3A14633   4.120  44.062   7.939
  909POPC   C4A14634   4.500  44.114   7.725
  909POPC   C1B14635   4.444  43.554   8.674
  909POPC   C2B14636   4.648  43.626   8.259
  909POPC   C3B14637   4.432  43.620   7.871
  909POPC   C4B14638   4.030  43.610   7.722
  910POPC   NC314639  11.374  27.421   9.733
  910POPC   PO414640  11.426  27.998   9.568
  910POPC   GL114641  11.255  27.797   9.186
  910POPC   GL214642  11.159  27.456   9.233
  910POPC   C1A14643  11.105  27.839   8.773
  910POPC   D2A14644  11.183  27.985   8.352
  910POPC   C3A14645  11.100  27.741   8.029
  910POPC   C4A14646  11.383  27.696   7.685
  910POPC   C1B14647  11.233  27.345   8.785
  910POPC   C2B14648  11.256  27.376   8.334
  910POPC   C3B14649  11.193  27.247   7.887
  910POPC   C4B14650  11.290  26.881   7.576
  911POPC   NC314651  18.101  44.120   9.415
  911POPC   PO414652  18.496  44.740   9.472
  911POPC   GL114653  18.554  44.689   9.082
  911POPC   GL214654  18.692   0.005   9.025
  911POPC   C1A14655  18.495  44.326   8.829
  911POPC   D2A14656  18.487  44.210   8.411
  911POPC   C3A14657  18.272  44.564   8.218
  911POPC   C4A14658  18.127  44.576   7.811
  911POPC   C1B14659  18.351  44.977   8.697
  911POPC   C2B14660  18.462   0.077   8.269
  911POPC   C3B14661  18.409  44.981   7.872
  911POPC   C4B14662  18.018   0.082   7.728
  912POPC   NC314663  34.608  39.456   9.466
  912POPC   PO414664  34.291  38.868   9.497
  912POPC   GL114665  34.422  39.137   9.136
  912POPC   GL214666  34.273  39.503   9.081
  912POPC   C1A14667  34.647  39.194   8.760
  912POPC   D2A14668  34.659  38.935   8.420
  912POPC   C3A14669  34.762  39.078   8.010
  912POPC   C4A14670  34.372  39.176   7.803
  912POPC   C1B14671  34.285  39.595   8.637
  912POPC   C2B14672  34.514  39.432   8.303
  912POPC   C3B14673  34.776  39.598   8.005
  912POPC   C4B14674  34.784  39.422   7.635
  913POPC   NC314675  36.847  24.571   9.579
  913POPC   PO414676  37.223  23.999   9.518
  913POPC   GL114677  36.929  24.134   9.159
  913POPC   GL214678  36.852  24.514   9.080
  913POPC   C1A14679  36.714  24.161   8.770
  913POPC   D2A14680  36.728  24.574   8.550
  913POPC   C3A14681  36.743  24.598   8.107
  913POPC   C4A14682  36.614  24.369   7.750
  913POPC   C1B14683  37.131  24.756   8.792
  913POPC   C2B14684  37.235  24.640   8.331
  913POPC   C3B14685  37.175  24.767   7.848
  913POPC   C4B14686  37.225  24.939   7.397
  914POPC   NC314687  25.557  33.822   9.466
  914POPC   PO414688  26.212  33.745   9.607
  914POPC   GL114689  26.212  33.767   9.180
  914POPC   GL214690  26.297  34.112   9.093
  914POPC   C1A14691  25.934  33.789   8.840
  914POPC   D2A14692  26.030  33.591   8.452
  914POPC   C3A14693  25.832  33.697   8.122
  914POPC   C4A14694  25.814  33.575   7.745
  914POPC   C1B14695  26.256  34.131   8.657
  914POPC   C2B14696  26.278  33.987   8.260
  914POPC   C3B14697  26.218  33.921   7.837
  914POPC   C4B14698  26.457  34.013   7.453
  915POPC   NC314699  41.194   2.590   9.539
  915POPC   PO414700  40.572   2.825   9.472
  915POPC   GL114701  40.890   2.727   9.158
  915POPC   GL214702  41.206   2.952   9.179
  915POPC   C1A14703  40.911   2.874   8.755
  915POPC   D2A14704  40.726   2.991   8.393
  915POPC   C3A14705  40.942   2.766   8.090
  915POPC   C4A14706  40.834   2.616   7.706
  915POPC   C1B14707  41.399   3.026   8.775
  915POPC   C2B14708  41.254   3.135   8.337
  915POPC   C3B14709  41.145   3.147   7.848
  915POPC   C4B14710  41.059   3.009   7.405
  916POPC   NC314711  13.086  39.649   9.355
  916POPC   PO414712  13.077  39.022   9.277
  916POPC   GL114713  12.791  39.227   9.065
  916POPC   GL214714  12.786  39.565   8.959
  916POPC   C1A14715  12.594  39.126   8.691
  916POPC   D2A14716  12.848  39.046   8.316
  916POPC   C3A14717  12.628  39.152   7.936
  916POPC   C4A14718  12.488  39.413   7.594
  916POPC   C1B14719  13.193  39.440   8.756
  916POPC   C2B14720  13.180  39.465   8.349
  916POPC   C3B14721  13.089  39.381   7.946
  916POPC   C4B14722  13.030  39.325   7.495
  917POPC   NC314723   7.050  18.555   9.492
  917POPC   PO414724   6.465  18.180   9.567
  917POPC   GL114725   6.597  18.108   9.201
  917POPC   GL214726   6.371  17.801   9.201
  917POPC   C1A14727   6.742  18.271   8.814
  917POPC   D2A14728   6.456  18.527   8.595
  917POPC   C3A14729   6.436  18.365   8.180
  917POPC   C4A14730   6.275  18.410   7.768
  917POPC   C1B14731   6.666  17.767   8.852
  917POPC   C2B14732   6.651  17.920   8.442
  917POPC   C3B14733   6.844  18.085   8.088
  917POPC   C4B14734   6.667  18.102   7.721
  918POPC   NC314735  26.536  41.762   9.513
  918POPC   PO414736  27.212  41.705   9.624
  918POPC   GL114737  27.038  41.548   9.180
  918POPC   GL214738  26.670  41.547   9.087
  918POPC   C1A14739  26.980  41.586   8.698
  918POPC   D2A14740  26.743  41.760   8.316
  918POPC   C3A14741  26.929  41.583   7.942
  918POPC   C4A14742  26.962  41.239   7.652
  918POPC   C1B14743  26.561  41.263   8.760
  918POPC   C2B14744  26.415  41.330   8.344
  918POPC   C3B14745  26.509  41.258   7.912
  918POPC   C4B14746  26.506  41.112   7.488
  919POPC   NC314747   5.302  39.130   9.483
  919POPC   PO414748   4.742  39.391   9.464
  919POPC   GL114749   5.024  39.281   9.072
  919POPC   GL214750   5.276  38.978   9.012
  919POPC   C1A14751   5.069  39.316   8.626
  919POPC   D2A14752   4.762  39.170   8.306
  919POPC   C3A14753   4.879  39.388   7.937
  919POPC   C4A14754   5.282  39.529   7.848
  919POPC   C1B14755   4.932  38.849   8.786
  919POPC   C2B14756   4.893  38.677   8.398
  919POPC   C3B14757   5.122  38.809   8.045
  919POPC   C4B14758   5.143  39.053   7.654
  920POPC   NC314759  39.315  10.995   9.634
  920POPC   PO414760  39.566  11.598   9.632
  920POPC   GL114761  39.461  11.274   9.239
  920POPC   GL214762  39.138  11.138   9.142
  920POPC   C1A14763  39.528  11.235   8.791
  920POPC   D2A14764  39.482  11.581   8.476
  920POPC   C3A14765  39.646  11.539   8.066
  920POPC   C4A14766  39.693  11.152   7.869
  920POPC   C1B14767  39.069  11.080   8.664
  920POPC   C2B14768  39.269  11.172   8.234
  920POPC   C3B14769  39.144  11.322   7.819
  920POPC   C4B14770  38.802  11.099   7.593
  921POPC   NC314771  17.599  40.771   9.332
  921POPC   PO414772  17.038  41.080   9.467
  921POPC   GL114773  17.313  41.162   9.117
  921POPC   GL214774  17.664  41.315   9.159
  921POPC   C1A14775  17.391  40.926   8.730
  921POPC   D2A14776  17.541  40.551   8.512
  921POPC   C3A14777  17.562  40.702   8.109
  921POPC   C4A14778  17.483  40.549   7.716
  921POPC   C1B14779  17.937  41.110   8.854
  921POPC   C2B14780  17.848  40.966   8.473
  921POPC   C3B14781  17.982  41.004   8.092
  921POPC   C4B14782  17.788  40.969   7.723
  922POPC   NC314783  24.727  43.089   9.531
  922POPC   PO414784  24.240  43.466   9.483
  922POPC   GL114785  24.442  43.279   9.149
  922POPC   GL214786  24.771  43.436   9.100
  922POPC   C1A14787  24.259  42.964   8.881
  922POPC   D2A14788  24.210  42.871   8.474
  922POPC   C3A14789  24.259  43.175   8.176
  922POPC   C4A14790  24.193  43.045   7.780
  922POPC   C1B14791  24.770  43.151   8.753
  922POPC   C2B14792  24.715  42.947   8.348
  922POPC   C3B14793  24.691  43.081   7.909
  922POPC   C4B14794  24.577  43.223   7.500
  923POPC   NC314795   1.242  30.052   9.584
  923POPC   PO414796   0.595  30.044   9.501
  923POPC   GL114797   0.939  29.995   9.156
  923POPC   GL214798   1.300  29.877   9.103
  923POPC   C1A14799   1.130  30.206   8.761
  923POPC   D2A14800   1.137  30.397   8.342
  923POPC   C3A14801   1.127  30.082   8.078
  923POPC   C4A14802   1.150  29.954   7.713
  923POPC   C1B14803   1.058  29.717   8.719
  923POPC   C2B14804   1.088  29.610   8.248
  923POPC   C3B14805   1.383  29.541   7.865
  923POPC   C4B14806   1.447  29.685   7.386
  924POPC   NC314807  13.859  39.026   9.477
  924POPC   PO414808  13.511  39.694   9.545
  924POPC   GL114809  13.524  39.396   9.222
  924POPC   GL214810  13.861  39.478   9.196
  924POPC   C1A14811  13.658  39.174   8.843
  924POPC   D2A14812  13.681  39.364   8.471
  924POPC   C3A14813  13.522  39.137   8.145
  924POPC   C4A14814  13.524  39.201   7.723
  924POPC   C1B14815  14.114  39.450   8.842
  924POPC   C2B14816  14.118  39.634   8.453
  924POPC   C3B14817  13.985  39.441   8.074
  924POPC   C4B14818  13.875  39.572   7.693
  925POPC   NC314819   3.195  16.920   9.542
  925POPC   PO414820   2.858  16.331   9.407
  925POPC   GL114821   2.720  16.587   9.085
  925POPC   GL214822   2.380  16.480   9.067
  925POPC   C1A14823   2.714  16.917   8.798
  925POPC   D2A14824   2.841  16.718   8.410
  925POPC   C3A14825   2.659  16.934   8.086
  925POPC   C4A14826   2.823  17.125   7.738
  925POPC   C1B14827   2.428  16.533   8.646
  925POPC   C2B14828   2.496  16.301   8.285
  925POPC   C3B14829   2.501  16.347   7.835
  925POPC   C4B14830   2.824  16.612   7.712
  926POPC   NC314831  34.332  44.944   9.579
  926POPC   PO414832  34.744  44.565   9.424
  926POPC   GL114833  34.591  44.589   9.075
  926POPC   GL214834  34.458  44.872   9.027
  926POPC   C1A14835  34.625  44.487   8.669
  926POPC   D2A14836  34.671  44.575   8.300
  926POPC   C3A14837  34.524  44.492   7.944
  926POPC   C4A14838  34.826  44.644   7.671
  926POPC   C1B14839  34.144  44.584   8.829
  926POPC   C2B14840  34.114  44.626   8.375
  926POPC   C3B14841  34.354  44.956   8.136
  926POPC   C4B14842  34.399  44.938   7.689
  927POPC   NC314843  37.036  44.802   9.968
  927POPC   PO414844  36.604  44.386   9.673
  927POPC   GL114845  36.787  44.719   9.369
  927POPC   GL214846  37.143  44.640   9.292
  927POPC   C1A14847  36.754  44.875   8.910
  927POPC   D2A14848  36.658  44.680   8.465
  927POPC   C3A14849  36.913  44.657   8.047
  927POPC   C4A14850  36.864  44.896   7.639
  927POPC   C1B14851  37.098  44.489   8.852
  927POPC   C2B14852  37.303  44.505   8.448
  927POPC   C3B14853  37.411  44.450   8.026
  927POPC   C4B14854  37.230  44.507   7.634
  928POPC   NC314855   1.602  43.253   9.322
  928POPC   PO414856   0.952  42.982   9.484
  928POPC   GL114857   1.135  43.041   9.088
  928POPC   GL214858   1.299  43.311   8.926
  928POPC   C1A14859   1.195  42.905   8.673
  928POPC   D2A14860   1.280  43.125   8.281
  928POPC   C3A14861   0.983  43.118   7.941
  928POPC   C4A14862   0.954  42.850   7.553
  928POPC   C1B14863   1.361  43.538   8.557
  928POPC   C2B14864   1.625  43.521   8.222
  928POPC   C3B14865   1.693  43.211   7.983
  928POPC   C4B14866   1.434  42.948   7.794
  929POPC   NC314867  31.040  44.354   9.747
  929POPC   PO414868  30.674  44.847   9.511
  929POPC   GL114869  30.883  44.709   9.173
  929POPC   GL214870  30.936  44.371   9.243
  929POPC   C1A14871  30.853  44.866   8.772
  929POPC   D2A14872  30.731  44.656   8.423
  929POPC   C3A14873  30.807  44.825   8.024
  929POPC   C4A14874  30.713  44.620   7.625
  929POPC   C1B14875  30.694  44.321   8.858
  929POPC   C2B14876  30.781  44.127   8.474
  929POPC   C3B14877  30.694  44.290   8.065
  929POPC   C4B14878  30.789  44.085   7.677
  930POPC   NC314879  27.465  13.325   9.280
  930POPC   PO414880  27.766  13.918   9.511
  930POPC   GL114881  27.660  13.779   9.097
  930POPC   GL214882  27.801  13.485   8.928
  930POPC   C1A14883  27.392  13.683   8.731
  930POPC   D2A14884  27.368  13.401   8.365
  930POPC   C3A14885  27.395  13.675   8.044
  930POPC   C4A14886  27.286  13.670   7.657
  930POPC   C1B14887  27.844  13.565   8.505
  930POPC   C2B14888  27.814  13.413   8.111
  930POPC   C3B14889  27.563  13.262   7.819
  930POPC   C4B14890  27.358  13.248   7.380
  931POPC   NC314891  38.680  14.252   9.792
  931POPC   PO414892  38.350  14.899   9.658
  931POPC   GL114893  38.369  14.687   9.213
  931POPC   GL214894  38.604  14.413   9.184
  931POPC   C1A14895  38.237  14.527   8.768
  931POPC   D2A14896  38.228  14.744   8.370
  931POPC   C3A14897  38.203  14.573   7.931
  931POPC   C4A14898  38.174  14.429   7.483
  931POPC   C1B14899  38.713  14.683   8.798
  931POPC   C2B14900  38.780  14.633   8.350
  931POPC   C3B14901  38.692  14.683   7.922
  931POPC   C4B14902  38.596  14.286   7.754
  932POPC   NC314903  11.126  17.195   9.471
  932POPC   PO414904  11.469  17.805   9.572
  932POPC   GL114905  11.316  17.650   9.236
  932POPC   GL214906  11.505  17.363   9.184
  932POPC   C1A14907  11.175  17.617   8.832
  932POPC   D2A14908  11.204  17.829   8.451
  932POPC   C3A14909  11.231  17.551   8.101
  932POPC   C4A14910  11.248  17.684   7.696
  932POPC   C1B14911  11.424  17.170   8.768
  932POPC   C2B14912  11.636  16.996   8.375
  932POPC   C3B14913  11.820  17.140   7.988
  932POPC   C4B14914  11.567  17.288   7.659
  933POPC   NC314915  25.817   5.996   9.676
  933POPC   PO414916  25.183   5.871   9.561
  933POPC   GL114917  25.249   5.688   9.183
  933POPC   GL214918  24.965   5.436   9.166
  933POPC   C1A14919  25.464   5.850   8.818
  933POPC   D2A14920  25.458   6.098   8.434
  933POPC   C3A14921  25.382   5.925   8.017
  933POPC   C4A14922  25.249   6.028   7.593
  933POPC   C1B14923  25.047   5.556   8.749
  933POPC   C2B14924  25.030   5.795   8.384
  933POPC   C3B14925  24.968   5.630   8.003
  933POPC   C4B14926  24.828   5.768   7.674
  934POPC   NC314927  17.178  35.958   9.558
  934POPC   PO414928  17.903  35.924   9.568
  934POPC   GL114929  17.622  36.019   9.273
  934POPC   GL214930  17.601  36.375   9.272
  934POPC   C1A14931  17.615  36.062   8.853
  934POPC   D2A14932  17.705  35.997   8.455
  934POPC   C3A14933  17.459  36.067   8.143
  934POPC   C4A14934  17.542  36.152   7.725
  934POPC   C1B14935  17.234  36.363   9.019
  934POPC   C2B14936  17.258  36.312   8.568
  934POPC   C3B14937  17.310  36.554   8.189
  934POPC   C4B14938  17.115  36.388   7.844
  935POPC   NC314939  35.792  14.556   9.584
  935POPC   PO414940  35.181  14.279   9.669
  935POPC   GL114941  35.131  14.420   9.239
  935POPC   GL214942  35.434  14.636   9.141
  935POPC   C1A14943  35.030  14.406   8.807
  935POPC   D2A14944  35.246  14.551   8.425
  935POPC   C3A14945  35.127  14.362   8.026
  935POPC   C4A14946  35.229  14.516   7.579
  935POPC   C1B14947  35.559  14.314   8.812
  935POPC   C2B14948  35.678  14.249   8.352
  935POPC   C3B14949  35.624  14.400   7.912
  935POPC   C4B14950  35.743  14.473   7.478
  936POPC   NC314951  35.793  17.815   9.548
  936POPC   PO414952  36.254  17.348   9.564
  936POPC   GL114953  36.107  17.601   9.228
  936POPC   GL214954  35.818  17.504   9.118
  936POPC   C1A14955  36.264  17.689   8.830
  936POPC   D2A14956  36.181  17.652   8.388
  936POPC   C3A14957  36.243  17.392   8.035
  936POPC   C4A14958  36.113  17.556   7.654
  936POPC   C1B14959  35.922  17.305   8.759
  936POPC   C2B14960  35.834  17.273   8.371
  936POPC   C3B14961  35.747  17.400   7.975
  936POPC   C4B14962  35.756  17.225   7.578
  937POPC   NC314963  26.933  29.308   9.797
  937POPC   PO414964  26.534  28.832   9.657
  937POPC   GL114965  26.663  29.191   9.367
  937POPC   GL214966  27.004  29.341   9.289
  937POPC   C1A14967  26.663  29.267   8.910
  937POPC   D2A14968  26.724  29.437   8.504
  937POPC   C3A14969  26.680  29.167   8.150
  937POPC   C4A14970  26.804  29.104   7.743
  937POPC   C1B14971  27.127  29.547   8.868
  937POPC   C2B14972  27.212  29.556   8.401
  937POPC   C3B14973  27.146  29.442   7.964
  937POPC   C4B14974  27.306  29.165   7.600
  938POPC   NC314975  21.300  21.668   9.449
  938POPC   PO414976  21.433  21.043   9.169
  938POPC   GL114977  21.055  21.193   9.007
  938POPC   GL214978  21.096  21.545   8.942
  938POPC   C1A14979  20.914  21.172   8.602
  938POPC   D2A14980  21.275  21.154   8.386
  938POPC   C3A14981  21.206  21.362   8.058
  938POPC   C4A14982  21.383  21.195   7.741
  938POPC   C1B14983  21.476  21.512   8.714
  938POPC   C2B14984  21.725  21.548   8.367
  938POPC   C3B14985  21.683  21.566   7.970
  938POPC   C4B14986  21.650  21.653   7.579
  939POPC   NC314987  37.777   6.857   9.856
  939POPC   PO414988  37.211   6.835   9.582
  939POPC   GL114989  37.491   6.742   9.196
  939POPC   GL214990  37.820   6.846   9.170
  939POPC   C1A14991  37.581   6.608   8.765
  939POPC   D2A14992  37.865   6.656   8.396
  939POPC   C3A14993  37.626   6.587   8.003
  939POPC   C4A14994  37.442   6.423   7.590
  939POPC   C1B14995  37.910   7.018   8.754
  939POPC   C2B14996  38.033   7.163   8.326
  939POPC   C3B14997  37.942   7.034   7.883
  939POPC   C4B14998  37.955   6.691   7.598
  940POPC   NC314999  40.673   3.531   9.531
  940POPC   PO415000  40.782   4.189   9.618
  940POPC   GL115001  40.859   3.883   9.195
  940POPC   GL215002  40.956   3.491   9.112
  940POPC   C1A15003  40.933   3.822   8.740
  940POPC   D2A15004  40.886   3.511   8.373
  940POPC   C3A15005  40.700   3.654   7.979
  940POPC   C4A15006  40.859   4.002   7.736
  940POPC   C1B15007  40.671   3.346   8.811
  940POPC   C2B15008  40.358   3.366   8.478
  940POPC   C3B15009  40.397   3.222   8.052
  940POPC   C4B15010  40.662   3.225   7.659
  941POPC   NC315011   7.600  43.349   9.831
  941POPC   PO415012   7.517  43.999   9.644
  941POPC   GL115013   7.497  44.060   9.195
  941POPC   GL215014   7.638  44.371   9.274
  941POPC   C1A15015   7.306  44.007   8.779
  941POPC   D2A15016   7.159  44.161   8.373
  941POPC   C3A15017   7.266  44.049   7.949
  941POPC   C4A15018   7.490  43.721   7.735
  941POPC   C1B15019   7.794  44.336   8.864
  941POPC   C2B15020   7.673  44.147   8.458
  941POPC   C3B15021   7.776  44.019   8.079
  941POPC   C4B15022   7.680  44.224   7.716
  942POPC   NC315023  29.102  12.467   9.394
  942POPC   PO415024  29.472  11.925   9.618
  942POPC   GL115025  29.249  11.970   9.205
  942POPC   GL215026  28.916  11.821   9.264
  942POPC   C1A15027  29.217  12.190   8.786
  942POPC   D2A15028  29.290  12.387   8.375
  942POPC   C3A15029  29.247  12.155   7.993
  942POPC   C4A15030  29.300  11.709   7.879
  942POPC   C1B15031  28.909  11.759   8.793
  942POPC   C2B15032  28.962  11.721   8.318
  942POPC   C3B15033  28.804  11.780   7.887
  942POPC   C4B15034  28.942  11.546   7.474
  943POPC   NC315035  10.321  18.689   9.816
  943POPC   PO415036  10.640  18.175   9.473
  943POPC   GL115037  10.531  18.266   9.097
  943POPC   GL215038  10.299  18.052   8.984
  943POPC   C1A15039  10.720  18.410   8.733
  943POPC   D2A15040  10.897  18.228   8.356
  943POPC   C3A15041  10.691  18.422   8.045
  943POPC   C4A15042  10.420  18.136   7.860
  943POPC   C1B15043  10.191  18.444   8.745
  943POPC   C2B15044   9.988  18.491   8.366
  943POPC   C3B15045  10.167  18.557   7.995
  943POPC   C4B15046  10.458  18.562   7.605
  944POPC   NC315047  13.160  16.823   9.620
  944POPC   PO415048  12.680  16.398   9.581
  944POPC   GL115049  12.919  16.497   9.193
  944POPC   GL215050  13.137  16.794   9.124
  944POPC   C1A15051  12.743  16.627   8.792
  944POPC   D2A15052  12.727  16.837   8.381
  944POPC   C3A15053  12.709  16.554   8.030
  944POPC   C4A15054  12.613  16.551   7.598
  944POPC   C1B15055  13.105  16.986   8.746
  944POPC   C2B15056  13.195  17.092   8.337
  944POPC   C3B15057  13.129  16.878   7.983
  944POPC   C4B15058  13.127  16.589   7.659
  945POPC   NC315059  38.366   0.405   9.347
  945POPC   PO415060  38.776   0.979   9.455
  945POPC   GL115061  38.628   0.768   9.091
  945POPC   GL215062  38.251   0.727   8.984
  945POPC   C1A15063  38.605   0.484   8.745
  945POPC   D2A15064  38.399   0.615   8.398
  945POPC   C3A15065  38.688   0.593   8.058
  945POPC   C4A15066  38.626   0.299   7.731
  945POPC   C1B15067  38.018   0.440   8.722
  945POPC   C2B15068  37.883   0.465   8.281
  945POPC   C3B15069  38.179   0.478   7.951
  945POPC   C4B15070  38.155   0.367   7.535
  946POPC   NC315071   6.389  16.927   9.528
  946POPC   PO415072   6.918  16.461   9.477
  946POPC   GL115073   6.748  16.762   9.147
  946POPC   GL215074   6.386  16.795   9.047
  946POPC   C1A15075   6.706  16.676   8.686
  946POPC   D2A15076   6.571  16.499   8.305
  946POPC   C3A15077   6.731  16.648   7.922
  946POPC   C4A15078   7.004  16.354   7.717
  946POPC   C1B15079   6.295  17.003   8.649
  946POPC   C2B15080   6.556  17.017   8.274
  946POPC   C3B15081   6.466  17.077   7.859
  946POPC   C4B15082   6.404  16.898   7.444
  947POPC   NC315083  36.973   5.739   9.412
  947POPC   PO415084  36.353   5.748   9.432
  947POPC   GL115085  36.581   5.941   9.131
  947POPC   GL215086  36.342   6.156   9.030
  947POPC   C1A15087  36.791   5.893   8.780
  947POPC   D2A15088  37.063   5.924   8.469
  947POPC   C3A15089  36.921   5.838   8.094
  947POPC   C4A15090  37.161   6.053   7.804
  947POPC   C1B15091  36.279   5.992   8.686
  947POPC   C2B15092  36.500   6.053   8.382
  947POPC   C3B15093  36.403   5.997   8.029
  947POPC   C4B15094  36.654   6.004   7.688
  948POPC   NC315095   8.289  32.549   9.391
  948POPC   PO415096   8.117  33.081   9.722
  948POPC   GL115097   8.037  33.014   9.223
  948POPC   GL215098   7.901  32.668   9.087
  948POPC   C1A15099   8.197  32.980   8.792
  948POPC   D2A15100   8.427  32.998   8.406
  948POPC   C3A15101   8.117  33.025   8.102
  948POPC   C4A15102   8.128  33.083   7.671
  948POPC   C1B15103   8.102  32.488   8.694
  948POPC   C2B15104   8.099  32.482   8.237
  948POPC   C3B15105   8.327  32.619   7.864
  948POPC   C4B15106   8.203  32.621   7.444
  949POPC   NC315107  22.429  36.006   9.526
  949POPC   PO415108  22.051  36.576   9.564
  949POPC   GL115109  22.129  36.272   9.192
  949POPC   GL215110  22.123  35.877   9.150
  949POPC   C1A15111  22.251  36.191   8.766
  949POPC   D2A15112  22.007  36.169   8.433
  949POPC   C3A15113  22.185  36.249   8.051
  949POPC   C4A15114  22.158  36.238   7.620
  949POPC   C1B15115  22.273  35.693   8.772
  949POPC   C2B15116  22.408  35.843   8.362
  949POPC   C3B15117  22.368  35.806   7.901
  949POPC   C4B15118  22.412  35.825   7.420
  950POPC   NC315119  43.080  15.576   9.502
  950POPC   PO415120  43.015  14.887   9.498
  950POPC   GL115121  43.127  14.901   9.071
  950POPC   GL215122  43.399  15.132   9.188
  950POPC   C1A15123  42.872  15.017   8.667
  950POPC   D2A15124  42.633  15.374   8.421
  950POPC   C3A15125  42.811  15.408   8.006
  950POPC   C4A15126  43.165  15.108   7.891
  950POPC   C1B15127  43.379  15.188   8.731
  950POPC   C2B15128  43.493  15.107   8.296
  950POPC   C3B15129  43.669  15.240   7.898
  950POPC   C4B15130  43.515  15.325   7.491
  951POPC   NC315131  35.215  30.818   9.554
  951POPC   PO415132  35.761  30.440   9.451
  951POPC   GL115133  35.483  30.627   9.149
  951POPC   GL215134  35.455  30.950   9.113
  951POPC   C1A15135  35.222  30.629   8.771
  951POPC   D2A15136  34.952  30.572   8.411
  951POPC   C3A15137  35.176  30.672   8.033
  951POPC   C4A15138  35.377  30.374   7.741
  951POPC   C1B15139  35.696  30.903   8.775
  951POPC   C2B15140  35.491  30.917   8.423
  951POPC   C3B15141  35.650  31.030   8.072
  951POPC   C4B15142  35.528  30.920   7.707
  952POPC   NC315143  30.085  11.515   9.514
  952POPC   PO415144  29.639  11.087   9.453
  952POPC   GL115145  29.986  11.114   9.142
  952POPC   GL215146  30.084  11.448   9.024
  952POPC   C1A15147  30.130  11.052   8.717
  952POPC   D2A15148  30.009  10.989   8.306
  952POPC   C3A15149  29.924  11.383   8.067
  952POPC   C4A15150  29.989  11.234   7.659
  952POPC   C1B15151  29.887  11.504   8.639
  952POPC   C2B15152  30.038  11.838   8.416
  952POPC   C3B15153  30.282  11.806   8.064
  952POPC   C4B15154  30.267  11.665   7.691
  953POPC   NC315155  41.021  10.385   9.731
  953POPC   PO415156  41.690  10.476   9.719
  953POPC   GL115157  41.718  10.604   9.309
  953POPC   GL215158  41.392  10.693   9.269
  953POPC   C1A15159  41.779  10.467   8.922
  953POPC   D2A15160  41.804  10.639   8.529
  953POPC   C3A15161  41.510  10.491   8.243
  953POPC   C4A15162  41.560  10.400   7.824
  953POPC   C1B15163  41.421  10.832   8.824
  953POPC   C2B15164  41.460  11.000   8.386
  953POPC   C3B15165  41.584  10.941   7.959
  953POPC   C4B15166  41.271  10.780   7.694
  954POPC   NC315167  26.652  30.264   9.298
  954POPC   PO415168  26.845  29.733   9.654
  954POPC   GL115169  26.820  29.802   9.191
  954POPC   GL215170  26.514  29.662   9.201
  954POPC   C1A15171  26.800  29.928   8.728
  954POPC   D2A15172  26.977  30.017   8.303
  954POPC   C3A15173  26.870  30.131   7.866
  954POPC   C4A15174  27.121  30.017   7.473
  954POPC   C1B15175  26.354  29.663   8.772
  954POPC   C2B15176  26.434  29.834   8.354
  954POPC   C3B15177  26.685  29.672   8.046
  954POPC   C4B15178  26.781  29.651   7.639
  955POPC   NC315179  16.220  15.493   9.384
  955POPC   PO415180  15.701  15.146   9.623
  955POPC   GL115181  15.914  15.013   9.237
  955POPC   GL215182  16.308  14.977   9.291
  955POPC   C1A15183  15.740  15.098   8.815
  955POPC   D2A15184  15.522  15.025   8.427
  955POPC   C3A15185  15.754  15.044   8.077
  955POPC   C4A15186  15.946  15.290   7.765
  955POPC   C1B15187  16.262  14.840   8.867
  955POPC   C2B15188  16.053  14.852   8.470
  955POPC   C3B15189  16.103  14.688   8.053
  955POPC   C4B15190  16.014  14.794   7.636
  956POPC   NC315191  23.397   0.034   9.532
  956POPC   PO415192  22.912  44.612   9.669
  956POPC   GL115193  22.873  44.819   9.233
  956POPC   GL215194  23.121  44.828   9.114
  956POPC   C1A15195  22.749  44.586   8.826
  956POPC   D2A15196  22.656  44.756   8.430
  956POPC   C3A15197  22.636  44.588   8.043
  956POPC   C4A15198  22.616  44.178   7.912
  956POPC   C1B15199  23.128  44.906   8.718
  956POPC   C2B15200  23.173  44.698   8.330
  956POPC   C3B15201  23.063  44.886   7.959
  956POPC   C4B15202  23.165  44.854   7.539
  957POPC   NC315203  14.748  14.529   9.369
  957POPC   PO415204  15.403  14.344   9.525
  957POPC   GL115205  15.215  14.311   9.155
  957POPC   GL215206  15.200  14.657   9.142
  957POPC   C1A15207  15.277  14.113   8.768
  957POPC   D2A15208  15.162  13.948   8.382
  957POPC   C3A15209  15.237  14.227   8.107
  957POPC   C4A15210  15.265  14.237   7.705
  957POPC   C1B15211  14.990  14.549   8.749
  957POPC   C2B15212  15.161  14.651   8.372
  957POPC   C3B15213  15.336  14.737   7.975
  957POPC   C4B15214  15.176  14.723   7.548
  958POPC   NC315215  32.573  15.742   9.631
  958POPC   PO415216  33.156  15.918   9.504
  958POPC   GL115217  33.041  15.771   9.099
  958POPC   GL215218  32.691  15.691   9.137
  958POPC   C1A15219  33.151  15.654   8.676
  958POPC   D2A15220  33.115  15.580   8.218
  958POPC   C3A15221  33.354  15.927   8.062
  958POPC   C4A15222  33.363  16.217   7.740
  958POPC   C1B15223  32.682  15.940   8.750
  958POPC   C2B15224  32.923  16.047   8.378
  958POPC   C3B15225  32.864  16.015   7.931
  958POPC   C4B15226  32.669  16.336   7.731
  959POPC   NC315227   3.626  13.256   9.547
  959POPC   PO415228   3.855  13.901   9.425
  959POPC   GL115229   3.676  13.825   9.037
  959POPC   GL215230   3.507  13.515   9.078
  959POPC   C1A15231   3.828  13.557   8.703
  959POPC   D2A15232   3.563  13.536   8.400
  959POPC   C3A15233   3.532  13.489   8.001
  959POPC   C4A15234   3.672  13.632   7.651
  959POPC   C1B15235   3.182  13.482   8.716
  959POPC   C2B15236   3.063  13.634   8.291
  959POPC   C3B15237   3.042  13.449   7.874
  959POPC   C4B15238   3.204  13.492   7.461
  960POPC   NC315239  15.855  18.609   9.589
  960POPC   PO415240  15.827  19.295   9.660
  960POPC   GL115241  15.930  19.067   9.268
  960POPC   GL215242  16.216  18.832   9.269
  960POPC   C1A15243  16.024  19.179   8.823
  960POPC   D2A15244  16.263  19.355   8.454
  960POPC   C3A15245  16.064  19.196   8.084
  960POPC   C4A15246  15.656  19.172   7.903
  960POPC   C1B15247  16.168  18.678   8.841
  960POPC   C2B15248  15.851  18.517   8.513
  960POPC   C3B15249  15.844  18.695   8.085
  960POPC   C4B15250  16.276  18.741   7.881
  961POPC   NC315251  11.715   8.097   9.540
  961POPC   PO415252  12.393   8.174   9.565
  961POPC   GL115253  12.151   8.143   9.199
  961POPC   GL215254  12.314   8.449   9.086
  961POPC   C1A15255  12.125   8.104   8.740
  961POPC   D2A15256  12.183   7.984   8.333
  961POPC   C3A15257  11.884   8.156   8.113
  961POPC   C4A15258  11.866   8.113   7.731
  961POPC   C1B15259  12.545   8.375   8.691
  961POPC   C2B15260  12.457   8.436   8.240
  961POPC   C3B15261  12.384   8.180   7.874
  961POPC   C4B15262  12.242   8.281   7.456
  962POPC   NC315263   9.344  21.977   9.639
  962POPC   PO415264  10.017  21.994   9.620
  962POPC   GL115265   9.813  22.255   9.292
  962POPC   GL215266  10.001  22.503   9.095
  962POPC   C1A15267   9.479  22.393   8.994
  962POPC   D2A15268   9.505  22.288   8.564
  962POPC   C3A15269   9.474  22.421   8.126
  962POPC   C4A15270   9.829  22.370   7.835
  962POPC   C1B15271  10.015  22.152   8.791
  962POPC   C2B15272   9.926  22.065   8.335
  962POPC   C3B15273  10.042  21.915   7.906
  962POPC   C4B15274  10.039  21.866   7.448
  963POPC   NC315275  18.168  16.387   9.402
  963POPC   PO415276  18.363  17.050   9.579
  963POPC   GL115277  18.403  16.898   9.165
  963POPC   GL215278  18.669  17.143   9.014
  963POPC   C1A15279  18.168  16.656   8.806
  963POPC   D2A15280  18.060  16.420   8.432
  963POPC   C3A15281  18.169  16.619   8.037
  963POPC   C4A15282  18.340  16.775   7.669
  963POPC   C1B15283  18.356  17.131   8.713
  963POPC   C2B15284  18.234  17.036   8.318
  963POPC   C3B15285  18.440  17.175   7.973
  963POPC   C4B15286  18.850  17.172   7.819
  964POPC   NC315287   6.067  12.669   9.404
  964POPC   PO415288   5.489  12.460   9.280
  964POPC   GL115289   5.692  12.727   9.030
  964POPC   GL215290   5.775  13.044   9.159
  964POPC   C1A15291   5.603  12.858   8.628
  964POPC   D2A15292   5.818  13.106   8.323
  964POPC   C3A15293   5.703  12.923   7.949
  964POPC   C4A15294   5.995  12.659   7.722
  964POPC   C1B15295   6.078  12.965   8.792
  964POPC   C2B15296   6.322  13.103   8.450
  964POPC   C3B15297   6.241  12.991   8.032
  964POPC   C4B15298   6.307  13.026   7.590
  965POPC   NC315299  17.594  14.741   9.707
  965POPC   PO415300  17.763  14.170   9.452
  965POPC   GL115301  17.572  14.283   9.109
  965POPC   GL215302  17.529  14.597   9.201
  965POPC   C1A15303  17.396  14.414   8.735
  965POPC   D2A15304  17.606  14.359   8.367
  965POPC   C3A15305  17.338  14.389   8.050
  965POPC   C4A15306  17.236  14.291   7.666
  965POPC   C1B15307  17.769  14.751   8.816
  965POPC   C2B15308  17.624  14.886   8.402
  965POPC   C3B15309  17.737  14.723   8.020
  965POPC   C4B15310  17.740  14.456   7.654
  966POPC   NC315311  15.656  26.685   9.309
  966POPC   PO415312  15.050  26.765   9.614
  966POPC   GL115313  15.146  26.603   9.229
  966POPC   GL215314  15.260  26.929   9.102
  966POPC   C1A15315  14.990  26.622   8.798
  966POPC   D2A15316  15.047  26.586   8.344
  966POPC   C3A15317  15.244  26.790   7.984
  966POPC   C4A15318  15.137  26.574   7.579
  966POPC   C1B15319  15.454  26.818   8.682
  966POPC   C2B15320  15.432  27.124   8.355
  966POPC   C3B15321  15.109  27.371   8.142
  966POPC   C4B15322  15.009  27.194   7.728
  967POPC   NC315323  21.260   3.692   9.350
  967POPC   PO415324  21.214   4.369   9.590
  967POPC   GL115325  21.322   4.217   9.220
  967POPC   GL215326  20.975   4.135   9.176
  967POPC   C1A15327  21.501   4.406   8.831
  967POPC   D2A15328  21.338   4.560   8.406
  967POPC   C3A15329  21.479   4.369   8.006
  967POPC   C4A15330  21.328   4.455   7.599
  967POPC   C1B15331  21.115   4.045   8.757
  967POPC   C2B15332  21.023   3.890   8.348
  967POPC   C3B15333  21.255   3.873   7.960
  967POPC   C4B15334  21.320   3.956   7.531
  968POPC   NC315335  44.394   3.831   9.246
  968POPC   PO415336  44.918   3.703   9.543
  968POPC   GL115337  44.717   3.429   9.218
  968POPC   GL215338  44.836   3.751   9.035
  968POPC   C1A15339  44.650   3.377   8.759
  968POPC   D2A15340  44.655   3.675   8.397
  968POPC   C3A15341  44.455   3.621   8.003
  968POPC   C4A15342  44.571   3.354   7.682
  968POPC   C1B15343   0.079   3.696   8.718
  968POPC   C2B15344   0.149   3.519   8.347
  968POPC   C3B15345  44.962   3.516   7.971
  968POPC   C4B15346   0.021   3.597   7.540
  969POPC   NC315347  37.005  21.611   9.375
  969POPC   PO415348  36.550  21.156   9.392
  969POPC   GL115349  36.765  21.332   9.018
  969POPC   GL215350  36.708  21.679   8.964
  969POPC   C1A15351  37.020  21.273   8.644
  969POPC   D2A15352  37.018  20.950   8.316
  969POPC   C3A15353  36.869  21.179   7.954
  969POPC   C4A15354  37.100  21.541   7.782
  969POPC   C1B15355  36.664  21.717   8.552
  969POPC   C2B15356  36.940  21.698   8.236
  969POPC   C3B15357  36.969  22.002   7.915
  969POPC   C4B15358  36.978  21.933   7.457
  970POPC   NC315359  27.150  32.427   9.460
  970POPC   PO415360  26.511  32.064   9.405
  970POPC   GL115361  26.792  32.169   9.099
  970POPC   GL215362  27.055  31.941   9.209
  970POPC   C1A15363  26.777  32.281   8.635
  970POPC   D2A15364  26.536  32.129   8.253
  970POPC   C3A15365  26.509  32.387   7.879
  970POPC   C4A15366  26.465  32.558   7.471
  970POPC   C1B15367  27.208  32.076   8.831
  970POPC   C2B15368  27.259  32.178   8.434
  970POPC   C3B15369  27.018  32.216   8.107
  970POPC   C4B15370  27.159  32.399   7.782
  971POPC   NC315371  13.637  37.199   9.574
  971POPC   PO415372  13.379  37.768   9.440
  971POPC   GL115373  13.670  37.658   9.093
  971POPC   GL215374  13.756  37.310   9.096
  971POPC   C1A15375  13.808  37.760   8.659
  971POPC   D2A15376  13.598  37.808   8.265
  971POPC   C3A15377  13.764  38.045   7.921
  971POPC   C4A15378  13.463  37.898   7.665
  971POPC   C1B15379  13.634  37.273   8.675
  971POPC   C2B15380  13.826  37.353   8.295
  971POPC   C3B15381  13.701  37.486   7.858
  971POPC   C4B15382  13.691  37.154   7.602
  972POPC   NC315383  36.727  31.672   9.874
  972POPC   PO415384  37.036  32.257   9.596
  972POPC   GL115385  37.002  32.383   9.205
  972POPC   GL215386  36.687  32.255   9.093
  972POPC   C1A15387  37.169  32.416   8.811
  972POPC   D2A15388  37.094  32.217   8.417
  972POPC   C3A15389  36.869  32.373   8.087
  972POPC   C4A15390  37.086  32.536   7.754
  972POPC   C1B15391  36.933  31.961   8.826
  972POPC   C2B15392  36.856  31.668   8.489
  972POPC   C3B15393  36.781  31.816   8.057
  972POPC   C4B15394  36.828  32.046   7.650
  973POPC   NC315395   1.453  31.911   9.779
  973POPC   PO415396   1.403  32.522   9.669
  973POPC   GL115397   1.308  32.297   9.249
  973POPC   GL215398   1.243  31.931   9.299
  973POPC   C1A15399   1.313  32.466   8.796
  973POPC   D2A15400   1.400  32.320   8.339
  973POPC   C3A15401   1.141  32.350   8.010
  973POPC   C4A15402   1.156  32.588   7.630
  973POPC   C1B15403   1.229  31.967   8.859
  973POPC   C2B15404   1.044  31.940   8.464
  973POPC   C3B15405   1.178  31.827   8.065
  973POPC   C4B15406   1.369  31.976   7.711
  974POPC   NC315407  34.073  12.265   9.421
  974POPC   PO415408  33.488  11.892   9.415
  974POPC   GL115409  33.758  11.878   9.033
  974POPC   GL215410  34.128  11.894   9.098
  974POPC   C1A15411  33.652  11.973   8.594
  974POPC   D2A15412  33.529  12.280   8.270
  974POPC   C3A15413  33.535  12.132   7.860
  974POPC   C4A15414  33.611  11.734   7.732
  974POPC   C1B15415  34.095  12.213   8.782
  974POPC   C2B15416  34.041  12.248   8.379
  974POPC   C3B15417  33.985  12.003   8.065
  974POPC   C4B15418  34.271  12.118   7.776
  975POPC   NC315419  10.257  22.383   9.567
  975POPC   PO415420  10.546  21.717   9.486
  975POPC   GL115421  10.371  22.015   9.176
  975POPC   GL215422  10.486  22.361   9.126
  975POPC   C1A15423  10.593  22.023   8.767
  975POPC   D2A15424  10.424  21.951   8.370
  975POPC   C3A15425  10.480  22.163   7.986
  975POPC   C4A15426  10.501  21.858   7.660
  975POPC   C1B15427  10.406  22.492   8.703
  975POPC   C2B15428  10.704  22.462   8.354
  975POPC   C3B15429  10.953  22.354   7.984
  975POPC   C4B15430  10.783  22.436   7.594
  976POPC   NC315431  29.613  20.139   9.398
  976POPC   PO415432  29.065  19.748   9.522
  976POPC   GL115433  29.137  19.618   9.091
  976POPC   GL215434  29.320  19.902   9.034
  976POPC   C1A15435  29.110  19.668   8.625
  976POPC   D2A15436  28.921  19.933   8.319
  976POPC   C3A15437  28.981  19.909   7.874
  976POPC   C4A15438  29.294  19.774   7.563
  976POPC   C1B15439  29.333  20.266   8.746
  976POPC   C2B15440  29.560  20.320   8.369
  976POPC   C3B15441  29.247  20.318   8.067
  976POPC   C4B15442  29.146  20.390   7.666
  977POPC   NC315443  14.500  19.065   9.680
  977POPC   PO415444  14.290  19.414   9.192
  977POPC   GL115445  14.633  19.210   9.060
  977POPC   GL215446  14.641  18.910   9.209
  977POPC   C1A15447  14.804  19.297   8.669
  977POPC   D2A15448  14.458  19.396   8.406
  977POPC   C3A15449  14.472  19.268   8.001
  977POPC   C4A15450  14.114  19.057   7.814
  977POPC   C1B15451  14.663  18.817   8.755
  977POPC   C2B15452  14.788  18.917   8.326
  977POPC   C3B15453  14.537  18.779   8.019
  977POPC   C4B15454  14.438  18.721   7.626
  978POPC   NC315455  39.906  11.475   9.316
  978POPC   PO415456  40.085  12.083   9.639
  978POPC   GL115457  40.074  12.143   9.197
  978POPC   GL215458  39.776  12.404   9.092
  978POPC   C1A15459  40.220  11.864   8.835
  978POPC   D2A15460  40.009  11.657   8.477
  978POPC   C3A15461  40.010  11.935   8.132
  978POPC   C4A15462  39.883  11.949   7.735
  978POPC   C1B15463  40.005  12.321   8.729
  978POPC   C2B15464  40.104  12.398   8.330
  978POPC   C3B15465  39.859  12.441   7.952
  978POPC   C4B15466  39.924  12.445   7.524
  979POPC   NC315467  31.891  41.455   9.621
  979POPC   PO415468  31.299  41.633   9.648
  979POPC   GL115469  31.269  41.665   9.227
  979POPC   GL215470  31.624  41.639   9.202
  979POPC   C1A15471  31.281  41.501   8.834
  979POPC   D2A15472  31.446  41.707   8.491
  979POPC   C3A15473  31.325  41.499   8.152
  979POPC   C4A15474  31.110  41.556   7.752
  979POPC   C1B15475  31.811  41.565   8.837
  979POPC   C2B15476  31.871  41.404   8.436
  979POPC   C3B15477  31.839  41.582   8.033
  979POPC   C4B15478  31.579  41.382   7.719
  980POPC   NC315479  26.460  20.120   9.569
  980POPC   PO415480  25.756  19.823   9.636
  980POPC   GL115481  26.059  19.865   9.275
  980POPC   GL215482  26.156  19.551   9.157
  980POPC   C1A15483  26.181  19.917   8.810
  980POPC   D2A15484  26.096  20.153   8.431
  980POPC   C3A15485  26.014  19.905   8.068
  980POPC   C4A15486  25.631  19.882   7.789
  980POPC   C1B15487  25.911  19.459   8.819
  980POPC   C2B15488  26.073  19.455   8.426
  980POPC   C3B15489  26.213  19.444   8.014
  980POPC   C4B15490  25.943  19.496   7.681
  981POPC   NC315491   4.738   5.785   9.542
  981POPC   PO415492   4.137   5.614   9.517
  981POPC   GL115493   4.480   5.559   9.181
  981POPC   GL215494   4.629   5.917   9.052
  981POPC   C1A15495   4.621   5.475   8.782
  981POPC   D2A15496   4.578   5.778   8.486
  981POPC   C3A15497   4.668   5.627   8.083
  981POPC   C4A15498   4.505   5.723   7.673
  981POPC   C1B15499   4.223   5.920   8.879
  981POPC   C2B15500   4.038   5.893   8.479
  981POPC   C3B15501   4.231   5.921   8.087
  981POPC   C4B15502   4.030   5.887   7.708
  982POPC   NC315503  34.266   4.173   9.478
  982POPC   PO415504  34.737   4.641   9.529
  982POPC   GL115505  34.636   4.435   9.168
  982POPC   GL215506  34.925   4.634   9.033
  982POPC   C1A15507  34.703   4.192   8.756
  982POPC   D2A15508  34.568   4.010   8.345
  982POPC   C3A15509  34.529   4.226   7.932
  982POPC   C4A15510  34.634   4.110   7.498
  982POPC   C1B15511  34.561   4.677   8.748
  982POPC   C2B15512  34.665   4.767   8.353
  982POPC   C3B15513  34.470   4.719   8.015
  982POPC   C4B15514  34.092   4.613   7.867
  983POPC   NC315515  33.982  14.800   9.589
  983POPC   PO415516  33.690  15.403   9.443
  983POPC   GL115517  33.893  15.162   9.185
  983POPC   GL215518  33.685  14.881   9.169
  983POPC   C1A15519  33.873  15.263   8.770
  983POPC   D2A15520  34.099  15.429   8.454
  983POPC   C3A15521  34.053  15.201   8.100
  983POPC   C4A15522  34.074  15.360   7.698
  983POPC   C1B15523  33.964  14.780   8.848
  983POPC   C2B15524  33.825  14.879   8.437
  983POPC   C3B15525  33.780  14.775   8.031
  983POPC   C4B15526  34.033  14.832   7.710
  984POPC   NC315527  27.981  38.011   9.218
  984POPC   PO415528  27.499  37.574   9.540
  984POPC   GL115529  27.613  37.631   9.158
  984POPC   GL215530  27.933  37.470   9.239
  984POPC   C1A15531  27.338  37.712   8.802
  984POPC   D2A15532  27.171  37.628   8.400
  984POPC   C3A15533  27.359  37.883   8.071
  984POPC   C4A15534  27.787  38.067   7.871
  984POPC   C1B15535  27.862  37.418   8.778
  984POPC   C2B15536  27.702  37.675   8.417
  984POPC   C3B15537  27.742  37.569   7.977
  984POPC   C4B15538  27.941  37.648   7.585
  985POPC   NC315539  35.162  13.850   9.497
  985POPC   PO415540  35.739  13.464   9.512
  985POPC   GL115541  35.548  13.706   9.195
  985POPC   GL215542  35.309  13.468   9.171
  985POPC   C1A15543  35.338  13.828   8.803
  985POPC   D2A15544  35.505  13.755   8.385
  985POPC   C3A15545  35.405  13.929   8.011
  985POPC   C4A15546  35.681  13.935   7.671
  985POPC   C1B15547  35.066  13.366   8.851
  985POPC   C2B15548  35.112  13.463   8.468
  985POPC   C3B15549  35.145  13.338   8.083
  985POPC   C4B15550  35.487  13.453   7.836
  986POPC   NC315551  17.163  15.185   9.506
  986POPC   PO415552  17.832  15.021   9.428
  986POPC   GL115553  17.513  15.093   9.144
  986POPC   GL215554  17.314  15.365   9.038
  986POPC   C1A15555  17.289  14.927   8.791
  986POPC   D2A15556  17.159  15.195   8.460
  986POPC   C3A15557  17.272  15.062   8.037
  986POPC   C4A15558  17.354  14.789   7.701
  986POPC   C1B15559  17.634  15.310   8.700
  986POPC   C2B15560  17.610  15.407   8.275
  986POPC   C3B15561  17.743  15.224   7.898
  986POPC   C4B15562  17.970  15.409   7.545
  987POPC   NC315563   2.600   8.203   9.512
  987POPC   PO415564   2.569   7.565   9.591
  987POPC   GL115565   2.397   7.820   9.192
  987POPC   GL215566   2.620   8.107   9.036
  987POPC   C1A15567   2.536   7.735   8.735
  987POPC   D2A15568   2.818   7.754   8.336
  987POPC   C3A15569   2.587   7.759   7.931
  987POPC   C4A15570   2.667   8.190   7.868
  987POPC   C1B15571   2.936   8.092   8.723
  987POPC   C2B15572   2.933   8.286   8.308
  987POPC   C3B15573   3.188   8.439   7.991
  987POPC   C4B15574   3.047   8.506   7.584
  988POPC   NC315575  37.209  25.463   9.749
  988POPC   PO415576  37.812  25.330   9.384
  988POPC   GL115577  37.675  25.142   9.022
  988POPC   GL215578  37.749  25.461   8.903
  988POPC   C1A15579  37.449  25.156   8.604
  988POPC   D2A15580  37.429  25.089   8.150
  988POPC   C3A15581  37.427  25.415   7.835
  988POPC   C4A15582  37.610  25.286   7.457
  988POPC   C1B15583  38.049  25.548   8.600
  988POPC   C2B15584  37.761  25.474   8.261
  988POPC   C3B15585  37.888  25.250   7.882
  988POPC   C4B15586  38.031  25.564   7.597
  989POPC   NC315587  12.265   4.527   9.523
  989POPC   PO415588  11.565   4.594   9.444
  989POPC   GL115589  11.817   4.343   9.138
  989POPC   GL215590  12.198   4.290   9.084
  989POPC   C1A15591  11.938   4.592   8.771
  989POPC   D2A15592  12.154   4.735   8.442
  989POPC   C3A15593  12.301   4.433   8.178
  989POPC   C4A15594  12.059   4.198   7.949
  989POPC   C1B15595  12.164   4.155   8.655
  989POPC   C2B15596  12.310   3.914   8.334
  989POPC   C3B15597  12.584   3.987   8.012
  989POPC   C4B15598  12.468   4.179   7.638
  990POPC   NC315599  37.965  36.703   9.461
  990POPC   PO415600  37.281  36.884   9.541
  990POPC   GL115601  37.528  37.122   9.254
  990POPC   GL215602  37.901  37.176   9.240
  990POPC   C1A15603  37.530  37.232   8.834
  990POPC   D2A15604  37.629  37.237   8.405
  990POPC   C3A15605  37.472  36.856   8.227
  990POPC   C4A15606  37.456  36.741   7.793
  990POPC   C1B15607  38.016  36.981   8.846
  990POPC   C2B15608  38.107  36.993   8.420
  990POPC   C3B15609  37.905  37.008   8.020
  990POPC   C4B15610  37.874  37.359   7.812
  991POPC   NC315611  44.931   4.121   9.753
  991POPC   PO415612  44.490   4.563   9.586
  991POPC   GL115613  44.768   4.556   9.236
  991POPC   GL215614  44.701   4.234   9.139
  991POPC   C1A15615  44.717   4.597   8.780
  991POPC   D2A15616  44.448   4.520   8.422
  991POPC   C3A15617  44.668   4.577   8.060
  991POPC   C4A15618  44.816   4.444   7.723
  991POPC   C1B15619  44.669   4.098   8.687
  991POPC   C2B15620  44.825   4.140   8.265
  991POPC   C3B15621  44.761   3.967   7.826
  991POPC   C4B15622  44.545   3.796   7.442
  992POPC   NC315623  27.052  37.466   9.484
  992POPC   PO415624  26.574  37.950   9.493
  992POPC   GL115625  26.812  37.781   9.166
  992POPC   GL215626  26.513  37.841   8.987
  992POPC   C1A15627  26.831  37.490   8.803
  992POPC   D2A15628  26.496  37.607   8.523
  992POPC   C3A15629  26.559  37.523   8.108
  992POPC   C4A15630  26.964  37.530   7.931
  992POPC   C1B15631  26.863  37.987   8.704
  992POPC   C2B15632  26.863  38.003   8.276
  992POPC   C3B15633  26.882  38.048   7.878
  992POPC   C4B15634  26.608  37.805   7.685
  993POPC   NC315635  27.109  43.584   9.372
  993POPC   PO415636  27.664  43.185   9.483
  993POPC   GL115637  27.552  43.228   9.072
  993POPC   GL215638  27.514  42.883   9.007
  993POPC   C1A15639  27.628  43.211   8.624
  993POPC   D2A15640  27.545  42.992   8.247
  993POPC   C3A15641  27.424  43.315   7.981
  993POPC   C4A15642  27.748  43.379   7.677
  993POPC   C1B15643  27.201  42.903   8.662
  993POPC   C2B15644  27.028  42.973   8.255
  993POPC   C3B15645  27.141  42.883   7.855
  993POPC   C4B15646  27.555  42.907   7.686
  994POPC   NC315647  25.032  11.479   9.496
  994POPC   PO415648  25.078  10.827   9.267
  994POPC   GL115649  25.228  11.235   9.077
  994POPC   GL215650  25.592  11.319   9.153
  994POPC   C1A15651  25.275  11.373   8.633
  994POPC   D2A15652  24.928  11.273   8.319
  994POPC   C3A15653  25.031  11.280   7.891
  994POPC   C4A15654  25.413  11.427   7.810
  994POPC   C1B15655  25.577  10.965   8.840
  994POPC   C2B15656  25.275  10.862   8.531
  994POPC   C3B15657  25.430  11.025   8.152
  994POPC   C4B15658  25.421  10.877   7.751
  995POPC   NC315659  39.424   8.358   9.564
  995POPC   PO415660  38.770   8.441   9.535
  995POPC   GL115661  39.013   8.288   9.155
  995POPC   GL215662  39.379   8.194   9.095
  995POPC   C1A15663  38.948   8.174   8.722
  995POPC   D2A15664  39.020   8.418   8.348
  995POPC   C3A15665  39.195   8.222   7.988
  995POPC   C4A15666  39.497   8.391   7.678
  995POPC   C1B15667  39.446   7.979   8.732
  995POPC   C2B15668  39.318   7.867   8.315
  995POPC   C3B15669  39.576   7.917   7.893
  995POPC   C4B15670  39.455   7.954   7.403
  996POPC   NC315671  23.988  34.157   9.342
  996POPC   PO415672  23.451  33.894   9.675
  996POPC   GL115673  23.678  33.758   9.243
  996POPC   GL215674  23.594  33.400   9.249
  996POPC   C1A15675  23.894  33.899   8.795
  996POPC   D2A15676  24.035  34.105   8.401
  996POPC   C3A15677  23.887  33.931   8.017
  996POPC   C4A15678  23.674  33.855   7.628
  996POPC   C1B15679  23.761  33.410   8.829
  996POPC   C2B15680  23.817  33.576   8.417
  996POPC   C3B15681  23.539  33.578   8.076
  996POPC   C4B15682  23.609  33.365   7.705
  997POPC   NC315683  38.514  22.719   9.543
  997POPC   PO415684  37.982  23.258   9.507
  997POPC   GL115685  38.273  23.151   9.162
  997POPC   GL215686  38.247  22.779   9.110
  997POPC   C1A15687  38.217  23.070   8.692
  997POPC   D2A15688  38.169  22.879   8.273
  997POPC   C3A15689  38.423  23.009   7.926
  997POPC   C4A15690  38.386  22.933   7.457
  997POPC   C1B15691  38.551  22.699   8.790
  997POPC   C2B15692  38.592  22.591   8.379
  997POPC   C3B15693  38.438  22.493   7.991
  997POPC   C4B15694  38.731  22.676   7.714
  998POPC   NC315695  20.379  10.914   9.650
  998POPC   PO415696  20.794  11.397   9.624
  998POPC   GL115697  20.740  11.299   9.216
  998POPC   GL215698  20.437  11.161   9.211
  998POPC   C1A15699  20.534  11.543   8.883
  998POPC   D2A15700  20.327  11.556   8.500
  998POPC   C3A15701  20.540  11.304   8.199
  998POPC   C4A15702  20.635  11.398   7.794
  998POPC   C1B15703  20.598  11.029   8.785
  998POPC   C2B15704  20.549  10.806   8.390
  998POPC   C3B15705  20.413  10.772   7.972
  998POPC   C4B15706  20.559  10.940   7.565
  999POPC   NC315707  35.279   8.503   9.522
  999POPC   PO415708  35.110   7.874   9.449
  999POPC   GL115709  35.347   8.087   9.106
  999POPC   GL215710  35.359   8.450   9.040
  999POPC   C1A15711  35.336   8.109   8.641
  999POPC   D2A15712  35.048   8.125   8.271
  999POPC   C3A15713  35.295   8.224   7.900
  999POPC   C4A15714  35.436   8.042   7.485
  999POPC   C1B15715  35.311   8.699   8.711
  999POPC   C2B15716  35.323   8.566   8.319
  999POPC   C3B15717  35.123   8.733   7.978
  999POPC   C4B15718  35.070   8.610   7.591
 1000POPC   NC315719  30.737  21.159   9.353
 1000POPC   PO415720  31.455  21.231   9.574
 1000POPC   GL115721  31.382  21.450   9.224
 1000POPC   GL215722  31.193  21.205   9.090
 1000POPC   C1A15723  31.574  21.462   8.821
 1000POPC   D2A15724  31.417  21.557   8.434
 1000POPC   C3A15725  31.614  21.455   8.093
 1000POPC   C4A15726  31.391  21.402   7.795
 1000POPC   C1B15727  31.094  21.179   8.676
 1000POPC   C2B15728  31.021  21.290   8.263
 1000POPC   C3B15729  31.071  21.032   7.941
 1000POPC   C4B15730  31.176  21.017   7.517
 1001POPC   NC315731  14.236   0.997   9.300
 1001POPC   PO415732  14.697   1.496   9.543
 1001POPC   GL115733  14.540   1.438   9.112
 1001POPC   GL215734  14.160   1.411   9.026
 1001POPC   C1A15735  14.492   1.453   8.665
 1001POPC   D2A15736  14.421   1.212   8.341
 1001POPC   C3A15737  14.096   1.361   8.120
 1001POPC   C4A15738  14.319   1.472   7.779
 1001POPC   C1B15739  13.994   1.148   8.655
 1001POPC   C2B15740  14.084   0.836   8.314
 1001POPC   C3B15741  14.272   0.918   7.926
 1001POPC   C4B15742  14.082   1.034   7.574
 1002POPC   NC315743  35.951  28.495   9.368
 1002POPC   PO415744  36.568  28.259   9.480
 1002POPC   GL115745  36.298  28.153   9.123
 1002POPC   GL215746  35.942  28.052   9.132
 1002POPC   C1A15747  36.216  28.381   8.715
 1002POPC   D2A15748  36.196  28.747   8.397
 1002POPC   C3A15749  36.005  28.725   8.002
 1002POPC   C4A15750  36.110  28.650   7.565
 1002POPC   C1B15751  35.791  28.064   8.696
 1002POPC   C2B15752  35.979  28.206   8.292
 1002POPC   C3B15753  35.917  28.247   7.851
 1002POPC   C4B15754  36.076  28.160   7.440
 1003POPC   NC315755  25.574  26.925   9.628
 1003POPC   PO415756  24.963  27.079   9.440
 1003POPC   GL115757  25.202  26.792   9.175
 1003POPC   GL215758  24.949  26.600   8.981
 1003POPC   C1A15759  25.338  26.792   8.731
 1003POPC   D2A15760  25.111  26.984   8.373
 1003POPC   C3A15761  25.270  26.891   7.938
 1003POPC   C4A15762  25.538  26.799   7.554
 1003POPC   C1B15763  24.975  26.480   8.531
 1003POPC   C2B15764  24.960  26.459   8.083
 1003POPC   C3B15765  25.106  26.513   7.654
 1003POPC   C4B15766  25.048  26.747   7.306
 1004POPC   NC315767   6.446  44.896   9.438
 1004POPC   PO415768   6.624  44.266   9.434
 1004POPC   GL115769   6.493  44.547   9.048
 1004POPC   GL215770   6.247  44.891   8.986
 1004POPC   C1A15771   6.803  44.496   8.702
 1004POPC   D2A15772   7.100  44.661   8.412
 1004POPC   C3A15773   6.947  44.472   8.036
 1004POPC   C4A15774   6.521  44.537   7.854
 1004POPC   C1B15775   6.620  44.970   8.739
 1004POPC   C2B15776   6.651  44.834   8.300
 1004POPC   C3B15777   6.448   0.039   8.001
 1004POPC   C4B15778   6.434   0.118   7.570
 1005POPC   NC315779   1.274  36.311   9.464
 1005POPC   PO415780   1.589  35.696   9.482
 1005POPC   GL115781   1.604  36.023   9.165
 1005POPC   GL215782   1.271  35.930   9.074
 1005POPC   C1A15783   1.421  36.338   8.822
 1005POPC   D2A15784   1.128  36.271   8.487
 1005POPC   C3A15785   1.257  36.247   8.080
 1005POPC   C4A15786   1.521  36.428   7.765
 1005POPC   C1B15787   0.953  35.863   8.759
 1005POPC   C2B15788   0.717  35.985   8.384
 1005POPC   C3B15789   0.826  35.970   7.956
 1005POPC   C4B15790   1.143  35.989   7.654
 1006POPC   NC315791  38.404  24.139   9.523
 1006POPC   PO415792  38.659  24.802   9.450
 1006POPC   GL115793  38.484  24.478   9.154
 1006POPC   GL215794  38.138  24.223   9.099
 1006POPC   C1A15795  38.660  24.462   8.750
 1006POPC   D2A15796  38.823  24.723   8.403
 1006POPC   C3A15797  38.659  24.629   7.992
 1006POPC   C4A15798  38.506  24.364   7.656
 1006POPC   C1B15799  38.127  24.541   8.803
 1006POPC   C2B15800  38.308  24.675   8.438
 1006POPC   C3B15801  38.160  24.704   8.036
 1006POPC   C4B15802  38.291  24.971   7.737
 1007POPC   NC315803  19.580  10.672   9.862
 1007POPC   PO415804  19.955  10.161   9.585
 1007POPC   GL115805  19.822  10.380   9.197
 1007POPC   GL215806  19.629  10.636   9.345
 1007POPC   C1A15807  19.866  10.404   8.714
 1007POPC   D2A15808  20.091  10.568   8.363
 1007POPC   C3A15809  19.990  10.385   7.948
 1007POPC   C4A15810  20.126  10.578   7.556
 1007POPC   C1B15811  19.755  10.840   8.961
 1007POPC   C2B15812  19.627  10.909   8.545
 1007POPC   C3B15813  19.764  10.873   8.127
 1007POPC   C4B15814  19.684  10.746   7.751
 1008POPC   NC315815  40.936  28.974   9.572
 1008POPC   PO415816  40.407  28.857   9.224
 1008POPC   GL115817  40.622  29.252   9.118
 1008POPC   GL215818  40.996  29.267   9.132
 1008POPC   C1A15819  40.764  29.395   8.719
 1008POPC   D2A15820  40.769  29.618   8.395
 1008POPC   C3A15821  40.844  29.352   8.087
 1008POPC   C4A15822  40.747  29.402   7.686
 1008POPC   C1B15823  41.042  28.965   8.790
 1008POPC   C2B15824  41.176  29.025   8.371
 1008POPC   C3B15825  40.969  28.839   8.050
 1008POPC   C4B15826  40.662  28.912   7.748
 1009POPC   NC315827  28.023  15.114   9.816
 1009POPC   PO415828  28.515  15.385   9.477
 1009POPC   GL115829  28.252  15.191   9.155
 1009POPC   GL215830  28.551  15.124   8.963
 1009POPC   C1A15831  28.138  14.948   8.761
 1009POPC   D2A15832  28.393  14.978   8.397
 1009POPC   C3A15833  28.188  14.898   8.018
 1009POPC   C4A15834  28.474  14.935   7.677
 1009POPC   C1B15835  28.343  15.413   8.674
 1009POPC   C2B15836  28.140  15.412   8.267
 1009POPC   C3B15837  28.248  15.349   7.818
 1009POPC   C4B15838  28.250  15.269   7.347
 1010POPC   NC315839  40.207  27.505   9.558
 1010POPC   PO415840  39.536  27.443   9.781
 1010POPC   GL115841  39.742  27.570   9.321
 1010POPC   GL215842  39.530  27.438   9.071
 1010POPC   C1A15843  39.939  27.659   8.878
 1010POPC   D2A15844  40.035  27.973   8.545
 1010POPC   C3A15845  40.133  27.773   8.163
 1010POPC   C4A15846  40.055  27.769   7.724
 1010POPC   C1B15847  39.593  27.218   8.678
 1010POPC   C2B15848  39.923  27.352   8.430
 1010POPC   C3B15849  39.894  27.309   8.018
 1010POPC   C4B15850  39.560  27.352   7.743
 1011POPC   NC315851   0.366   3.673   9.619
 1011POPC   PO415852   0.470   3.115   9.651
 1011POPC   GL115853   0.485   3.265   9.204
 1011POPC   GL215854   0.217   3.439   9.157
 1011POPC   C1A15855   0.536   3.441   8.731
 1011POPC   D2A15856   0.566   3.245   8.294
 1011POPC   C3A15857   0.503   3.511   7.922
 1011POPC   C4A15858   0.811   3.484   7.560
 1011POPC   C1B15859   0.106   3.155   8.784
 1011POPC   C2B15860   0.080   2.962   8.352
 1011POPC   C3B15861   0.153   3.059   7.905
 1011POPC   C4B15862   0.370   3.229   7.537
 1012POPC   NC315863  36.392  19.975   9.279
 1012POPC   PO415864  35.773  19.706   9.433
 1012POPC   GL115865  35.948  19.876   9.064
 1012POPC   GL215866  36.149  19.589   9.057
 1012POPC   C1A15867  36.174  19.888   8.626
 1012POPC   D2A15868  36.028  19.788   8.201
 1012POPC   C3A15869  36.271  19.766   7.798
 1012POPC   C4A15870  36.182  19.973   7.396
 1012POPC   C1B15871  35.898  19.481   8.697
 1012POPC   C2B15872  35.797  19.299   8.330
 1012POPC   C3B15873  35.695  19.498   7.956
 1012POPC   C4B15874  35.895  19.480   7.541
 1013POPC   NC315875  29.541  10.631   9.506
 1013POPC   PO415876  30.070  10.190   9.553
 1013POPC   GL115877  29.847  10.374   9.192
 1013POPC   GL215878  29.525  10.194   9.160
 1013POPC   C1A15879  29.897  10.607   8.812
 1013POPC   D2A15880  30.125  10.479   8.419
 1013POPC   C3A15881  29.981  10.536   8.008
 1013POPC   C4A15882  29.829  10.719   7.634
 1013POPC   C1B15883  29.469  10.327   8.711
 1013POPC   C2B15884  29.600  10.632   8.385
 1013POPC   C3B15885  29.479  10.535   7.966
 1013POPC   C4B15886  29.444  10.254   7.642
 1014POPC   NC315887   4.664  31.210   9.399
 1014POPC   PO415888   4.485  30.495   9.531
 1014POPC   GL115889   4.423  30.793   9.155
 1014POPC   GL215890   4.101  30.980   9.066
 1014POPC   C1A15891   4.403  30.759   8.720
 1014POPC   D2A15892   4.482  30.432   8.441
 1014POPC   C3A15893   4.302  30.527   8.095
 1014POPC   C4A15894   4.430  30.802   7.791
 1014POPC   C1B15895   3.878  31.164   8.728
 1014POPC   C2B15896   3.970  31.202   8.319
 1014POPC   C3B15897   3.990  30.907   8.010
 1014POPC   C4B15898   4.003  30.954   7.572
 1015POPC   NC315899   4.092   0.346   9.581
 1015POPC   PO415900   4.481   0.749   9.772
 1015POPC   GL115901   4.359   0.636   9.286
 1015POPC   GL215902   4.533   0.352   9.175
 1015POPC   C1A15903   4.136   0.554   8.888
 1015POPC   D2A15904   4.118   0.804   8.494
 1015POPC   C3A15905   4.143   0.669   8.036
 1015POPC   C4A15906   4.118   0.805   7.584
 1015POPC   C1B15907   4.720   0.313   8.758
 1015POPC   C2B15908   4.526   0.404   8.372
 1015POPC   C3B15909   4.624   0.518   7.963
 1015POPC   C4B15910   4.457   0.446   7.589
 1016POPC   NC315911  32.852  27.326   9.545
 1016POPC   PO415912  33.300  27.811   9.477
 1016POPC   GL115913  33.029  27.668   9.198
 1016POPC   GL215914  33.159  27.339   9.113
 1016POPC   C1A15915  32.849  27.636   8.827
 1016POPC   D2A15916  33.017  27.574   8.458
 1016POPC   C3A15917  32.779  27.747   8.114
 1016POPC   C4A15918  32.891  27.846   7.695
 1016POPC   C1B15919  33.456  27.290   8.736
 1016POPC   C2B15920  33.527  27.479   8.318
 1016POPC   C3B15921  33.256  27.628   8.011
 1016POPC   C4B15922  33.003  27.354   7.763
 1017POPC   NC315923  31.581  43.545   9.515
 1017POPC   PO415924  31.033  43.920   9.629
 1017POPC   GL115925  31.321  43.915   9.256
 1017POPC   GL215926  31.658  43.887   9.149
 1017POPC   C1A15927  31.273  43.994   8.809
 1017POPC   D2A15928  31.294  43.780   8.413
 1017POPC   C3A15929  31.082  43.912   8.057
 1017POPC   C4A15930  31.313  44.035   7.692
 1017POPC   C1B15931  31.599  43.592   8.802
 1017POPC   C2B15932  31.825  43.695   8.424
 1017POPC   C3B15933  31.691  43.883   8.046
 1017POPC   C4B15934  31.814  43.734   7.662
 1018POPC   NC315935   6.535   7.072   9.752
 1018POPC   PO415936   7.069   7.395   9.765
 1018POPC   GL115937   6.794   7.426   9.382
 1018POPC   GL215938   6.567   7.225   9.219
 1018POPC   C1A15939   6.798   7.527   8.889
 1018POPC   D2A15940   6.981   7.538   8.449
 1018POPC   C3A15941   6.890   7.722   8.033
 1018POPC   C4A15942   6.802   7.460   7.693
 1018POPC   C1B15943   6.383   7.205   8.826
 1018POPC   C2B15944   6.460   7.470   8.485
 1018POPC   C3B15945   6.437   7.458   8.053
 1018POPC   C4B15946   6.265   7.359   7.656
 1019POPC   NC315947   8.558  31.265   9.505
 1019POPC   PO415948   7.948  31.380   9.589
 1019POPC   GL115949   7.908  31.231   9.220
 1019POPC   GL215950   7.656  31.444   9.159
 1019POPC   C1A15951   8.019  31.178   8.805
 1019POPC   D2A15952   8.203  31.345   8.421
 1019POPC   C3A15953   8.270  31.077   8.058
 1019POPC   C4A15954   8.450  31.142   7.661
 1019POPC   C1B15955   7.594  31.611   8.744
 1019POPC   C2B15956   7.762  31.629   8.330
 1019POPC   C3B15957   7.990  31.507   7.975
 1019POPC   C4B15958   8.322  31.681   7.752
 1020POPC   NC315959  36.506   0.506   9.495
 1020POPC   PO415960  35.824   0.713   9.446
 1020POPC   GL115961  36.128   0.549   9.107
 1020POPC   GL215962  36.415   0.286   9.058
 1020POPC   C1A15963  36.132   0.469   8.666
 1020POPC   D2A15964  35.807   0.297   8.403
 1020POPC   C3A15965  35.923   0.453   8.041
 1020POPC   C4A15966  35.943   0.190   7.709
 1020POPC   C1B15967  36.652   0.357   8.660
 1020POPC   C2B15968  36.502   0.552   8.271
 1020POPC   C3B15969  36.411   0.408   7.841
 1020POPC   C4B15970  36.388   0.097   7.476
 1021POPC   NC315971  18.029  14.576   9.397
 1021POPC   PO415972  18.607  14.309   9.508
 1021POPC   GL115973  18.489  14.477   9.144
 1021POPC   GL215974  18.230  14.228   9.095
 1021POPC   C1A15975  18.341  14.636   8.755
 1021POPC   D2A15976  18.064  14.609   8.397
 1021POPC   C3A15977  18.217  14.464   7.976
 1021POPC   C4A15978  18.536  14.685   7.690
 1021POPC   C1B15979  17.953  14.250   8.755
 1021POPC   C2B15980  18.027  14.079   8.357
 1021POPC   C3B15981  17.872  14.062   7.950
 1021POPC   C4B15982  18.148  14.121   7.589
 1022POPC   NC315983  13.045  14.473   9.523
 1022POPC   PO415984  12.365  14.558   9.516
 1022POPC   GL115985  12.643  14.555   9.197
 1022POPC   GL215986  12.942  14.399   9.038
 1022POPC   C1A15987  12.532  14.574   8.800
 1022POPC   D2A15988  12.806  14.427   8.494
 1022POPC   C3A15989  12.560  14.526   8.136
 1022POPC   C4A15990  12.375  14.648   7.739
 1022POPC   C1B15991  13.274  14.488   8.727
 1022POPC   C2B15992  13.324  14.420   8.316
 1022POPC   C3B15993  13.009  14.262   8.061
 1022POPC   C4B15994  12.880  14.484   7.751
 1023POPC   NC315995  20.558  13.855   9.591
 1023POPC   PO415996  20.198  13.333   9.524
 1023POPC   GL115997  20.433  13.504   9.205
 1023POPC   GL215998  20.255  13.807   9.135
 1023POPC   C1A15999  20.557  13.519   8.762
 1023POPC   D2A16000  20.437  13.395   8.330
 1023POPC   C3A16001  20.788  13.364   8.055
 1023POPC   C4A16002  20.801  13.236   7.629
 1023POPC   C1B16003  20.378  14.026   8.773
 1023POPC   C2B16004  20.600  13.903   8.378
 1023POPC   C3B16005  20.466  13.797   7.958
 1023POPC   C4B16006  20.608  13.722   7.539
 1024POPC   NC316007  24.422   8.608   9.435
 1024POPC   PO416008  24.727   8.021   9.345
 1024POPC   GL116009  24.410   8.138   9.072
 1024POPC   GL216010  24.239   7.845   8.944
 1024POPC   C1A16011  24.334   8.252   8.646
 1024POPC   D2A16012  24.664   8.309   8.349
 1024POPC   C3A16013  24.525   8.339   7.942
 1024POPC   C4A16014  24.104   8.230   7.801
 1024POPC   C1B16015  24.661   7.852   8.679
 1024POPC   C2B16016  24.821   7.750   8.257
 1024POPC   C3B16017  24.790   7.894   7.814
 1024POPC   C4B16018  24.779   7.741   7.353
 1025POPC   NC316019  30.452  33.936   9.859
 1025POPC   PO416020  30.831  33.688   9.333
 1025POPC   GL116021  30.753  34.001   8.994
 1025POPC   GL216022  30.453  33.770   8.852
 1025POPC   C1A16023  30.675  34.089   8.542
 1025POPC   D2A16024  30.311  33.857   8.373
 1025POPC   C3A16025  30.420  33.710   7.982
 1025POPC   C4A16026  30.704  34.018   7.781
 1025POPC   C1B16027  30.831  33.592   8.662
 1025POPC   C2B16028  30.867  33.597   8.232
 1025POPC   C3B16029  30.934  33.362   7.861
 1025POPC   C4B16030  30.975  33.235   7.396
 1026POPC   NC316031   8.773  23.180   9.965
 1026POPC   PO416032   9.199  22.648   9.653
 1026POPC   GL116033   9.092  22.908   9.240
 1026POPC   GL216034   9.166  23.298   9.289
 1026POPC   C1A16035   8.972  22.802   8.829
 1026POPC   D2A16036   9.029  22.589   8.424
 1026POPC   C3A16037   8.814  22.799   8.075
 1026POPC   C4A16038   9.046  22.817   7.689
 1026POPC   C1B16039   9.160  23.315   8.838
 1026POPC   C2B16040   9.051  23.160   8.421
 1026POPC   C3B16041   9.102  23.256   7.963
 1026POPC   C4B16042   8.714  23.219   7.721
 1027POPC   NC316043  34.128  25.364   9.489
 1027POPC   PO416044  33.611  25.732   9.595
 1027POPC   GL116045  33.623  25.390   9.271
 1027POPC   GL216046  33.919  25.198   9.072
 1027POPC   C1A16047  33.504  25.349   8.855
 1027POPC   D2A16048  33.786  25.235   8.526
 1027POPC   C3A16049  33.661  25.405   8.163
 1027POPC   C4A16050  33.528  25.341   7.763
 1027POPC   C1B16051  33.983  24.848   8.791
 1027POPC   C2B16052  34.106  24.600   8.435
 1027POPC   C3B16053  34.142  24.794   8.012
 1027POPC   C4B16054  34.009  25.199   7.841
 1028POPC   NC316055  43.115  28.858   9.410
 1028POPC   PO416056  42.902  28.174   9.534
 1028POPC   GL116057  42.946  28.414   9.182
 1028POPC   GL216058  43.309  28.391   9.242
 1028POPC   C1A16059  42.805  28.350   8.767
 1028POPC   D2A16060  43.070  28.244   8.451
 1028POPC   C3A16061  42.931  28.465   8.108
 1028POPC   C4A16062  43.005  28.330   7.696
 1028POPC   C1B16063  43.436  28.245   8.847
 1028POPC   C2B16064  43.614  28.266   8.441
 1028POPC   C3B16065  43.429  28.307   8.034
 1028POPC   C4B16066  43.466  28.550   7.633
 1029POPC   NC316067   5.449  24.779   9.726
 1029POPC   PO416068   6.043  24.550   9.376
 1029POPC   GL116069   5.858  24.459   9.003
 1029POPC   GL216070   5.638  24.227   9.017
 1029POPC   C1A16071   5.832  24.645   8.616
 1029POPC   D2A16072   5.670  24.534   8.271
 1029POPC   C3A16073   5.858  24.375   7.934
 1029POPC   C4A16074   5.806  24.456   7.481
 1029POPC   C1B16075   5.906  24.122   8.647
 1029POPC   C2B16076   6.186  24.290   8.382
 1029POPC   C3B16077   6.265  24.073   8.025
 1029POPC   C4B16078   6.200  24.188   7.612
 1030POPC   NC316079  42.553  34.405   9.760
 1030POPC   PO416080  42.077  34.760   9.442
 1030POPC   GL116081  42.213  34.414   9.206
 1030POPC   GL216082  42.483  34.505   9.018
 1030POPC   C1A16083  42.045  34.313   8.767
 1030POPC   D2A16084  41.898  34.566   8.380
 1030POPC   C3A16085  42.160  34.596   7.989
 1030POPC   C4A16086  41.994  34.674   7.582
 1030POPC   C1B16087  42.637  34.774   8.698
 1030POPC   C2B16088  42.589  34.876   8.269
 1030POPC   C3B16089  42.679  34.755   7.862
 1030POPC   C4B16090  42.600  34.446   7.607
 1031POPC   NC316091   7.329  35.273   9.595
 1031POPC   PO416092   7.993  35.430   9.656
 1031POPC   GL116093   7.629  35.402   9.207
 1031POPC   GL216094   7.364  35.180   9.112
 1031POPC   C1A16095   7.642  35.579   8.808
 1031POPC   D2A16096   7.276  35.563   8.610
 1031POPC   C3A16097   7.317  35.566   8.216
 1031POPC   C4A16098   7.292  35.483   7.786
 1031POPC   C1B16099   7.503  35.083   8.741
 1031POPC   C2B16100   7.339  35.067   8.385
 1031POPC   C3B16101   7.594  35.168   8.057
 1031POPC   C4B16102   7.609  35.076   7.640
 1032POPC   NC316103  18.375  24.104   9.785
 1032POPC   PO416104  18.038  24.650   9.475
 1032POPC   GL116105  18.349  24.683   9.137
 1032POPC   GL216106  18.115  24.558   8.934
 1032POPC   C1A16107  18.584  24.621   8.762
 1032POPC   D2A16108  18.477  24.303   8.535
 1032POPC   C3A16109  18.543  24.432   8.136
 1032POPC   C4A16110  18.397  24.258   7.771
 1032POPC   C1B16111  17.964  24.259   8.638
 1032POPC   C2B16112  18.078  24.223   8.213
 1032POPC   C3B16113  17.975  24.513   7.929
 1032POPC   C4B16114  18.144  24.669   7.547
 1033POPC   NC316115  22.222   6.327   9.569
 1033POPC   PO416116  21.849   6.814   9.585
 1033POPC   GL116117  22.047   6.639   9.204
 1033POPC   GL216118  22.273   6.897   9.149
 1033POPC   C1A16119  22.040   6.529   8.748
 1033POPC   D2A16120  22.270   6.373   8.341
 1033POPC   C3A16121  22.196   6.506   7.903
 1033POPC   C4A16122  22.068   6.853   7.606
 1033POPC   C1B16123  22.288   7.012   8.749
 1033POPC   C2B16124  22.174   6.864   8.341
 1033POPC   C3B16125  22.400   6.965   7.986
 1033POPC   C4B16126  22.415   7.210   7.608
 1034POPC   NC316127  15.628  16.276   9.477
 1034POPC   PO416128  16.329  15.940   9.475
 1034POPC   GL116129  16.005  16.058   9.195
 1034POPC   GL216130  15.657  15.897   9.126
 1034POPC   C1A16131  16.015  16.137   8.779
 1034POPC   D2A16132  15.908  16.071   8.373
 1034POPC   C3A16133  15.906  16.426   8.159
 1034POPC   C4A16134  16.232  16.466   7.884
 1034POPC   C1B16135  15.815  15.629   8.797
 1034POPC   C2B16136  15.828  15.472   8.364
 1034POPC   C3B16137  15.918  15.730   7.994
 1034POPC   C4B16138  15.865  16.107   7.765
 1035POPC   NC316139  11.155   5.627   9.594
 1035POPC   PO416140  11.728   5.680   9.272
 1035POPC   GL116141  11.328   5.817   9.136
 1035POPC   GL216142  11.388   6.145   9.059
 1035POPC   C1A16143  11.153   5.889   8.722
 1035POPC   D2A16144  11.416   5.835   8.408
 1035POPC   C3A16145  11.231   5.857   8.020
 1035POPC   C4A16146  11.092   5.810   7.606
 1035POPC   C1B16147  11.572   6.294   8.700
 1035POPC   C2B16148  11.770   6.198   8.335
 1035POPC   C3B16149  11.727   5.941   8.004
 1035POPC   C4B16150  11.599   5.735   7.655
 1036POPC   NC316151  10.531  42.835   9.527
 1036POPC   PO416152  10.222  43.364   9.665
 1036POPC   GL116153  10.300  43.221   9.239
 1036POPC   GL216154  10.250  42.876   9.105
 1036POPC   C1A16155  10.452  43.228   8.803
 1036POPC   D2A16156  10.416  43.066   8.390
 1036POPC   C3A16157  10.603  43.304   8.050
 1036POPC   C4A16158  10.357  43.105   7.753
 1036POPC   C1B16159  10.694  42.791   8.849
 1036POPC   C2B16160  10.914  42.712   8.446
 1036POPC   C3B16161  10.744  42.807   8.026
 1036POPC   C4B16162  10.743  42.830   7.566
 1037POPC   NC316163  33.464  10.095   9.488
 1037POPC   PO416164  34.071  10.317   9.349
 1037POPC   GL116165  33.819  10.352   9.064
 1037POPC   GL216166  33.509  10.460   9.107
 1037POPC   C1A16167  33.880  10.339   8.670
 1037POPC   D2A16168  33.721  10.349   8.299
 1037POPC   C3A16169  33.975  10.304   7.987
 1037POPC   C4A16170  33.726  10.325   7.664
 1037POPC   C1B16171  33.642  10.772   8.741
 1037POPC   C2B16172  33.523  10.836   8.314
 1037POPC   C3B16173  33.738  10.772   7.940
 1037POPC   C4B16174  33.642  10.804   7.513
 1038POPC   NC316175  10.096  31.085   9.509
 1038POPC   PO416176  10.037  31.762   9.578
 1038POPC   GL116177   9.891  31.506   9.228
 1038POPC   GL216178  10.142  31.341   9.054
 1038POPC   C1A16179   9.732  31.490   8.802
 1038POPC   D2A16180   9.459  31.702   8.551
 1038POPC   C3A16181   9.643  31.662   8.140
 1038POPC   C4A16182   9.628  31.855   7.723
 1038POPC   C1B16183  10.041  31.087   8.708
 1038POPC   C2B16184   9.797  31.172   8.361
 1038POPC   C3B16185  10.044  31.330   8.038
 1038POPC   C4B16186   9.929  31.453   7.657
 1039POPC   NC316187  37.970  42.901   9.322
 1039POPC   PO416188  38.618  43.068   9.713
 1039POPC   GL116189  38.583  43.201   9.254
 1039POPC   GL216190  38.252  43.372   9.240
 1039POPC   C1A16191  38.726  43.092   8.835
 1039POPC   D2A16192  38.820  43.299   8.423
 1039POPC   C3A16193  38.697  43.129   8.012
 1039POPC   C4A16194  38.514  42.787   7.784
 1039POPC   C1B16195  38.259  43.277   8.787
 1039POPC   C2B16196  38.322  43.267   8.349
 1039POPC   C3B16197  38.162  43.088   8.013
 1039POPC   C4B16198  38.296  43.263   7.676
 1040POPC   NC316199  31.880  13.043   9.579
 1040POPC   PO416200  31.332  12.660   9.681
 1040POPC   GL116201  31.369  12.692   9.214
 1040POPC   GL216202  31.708  12.756   9.188
 1040POPC   C1A16203  31.485  12.638   8.762
 1040POPC   D2A16204  31.597  12.670   8.343
 1040POPC   C3A16205  31.366  12.792   7.986
 1040POPC   C4A16206  31.513  12.678   7.619
 1040POPC   C1B16207  31.668  13.134   8.911
 1040POPC   C2B16208  31.802  13.145   8.471
 1040POPC   C3B16209  31.797  13.067   8.041
 1040POPC   C4B16210  32.014  12.972   7.677
 1041POPC   NC316211  37.205  43.317   9.531
 1041POPC   PO416212  36.693  42.947   9.425
 1041POPC   GL116213  36.956  43.107   9.113
 1041POPC   GL216214  36.650  43.244   9.009
 1041POPC   C1A16215  37.102  43.116   8.672
 1041POPC   D2A16216  36.798  43.103   8.299
 1041POPC   C3A16217  36.927  43.212   7.900
 1041POPC   C4A16218  37.326  43.129   7.787
 1041POPC   C1B16219  36.654  42.860   8.739
 1041POPC   C2B16220  36.500  42.664   8.324
 1041POPC   C3B16221  36.530  42.695   7.844
 1041POPC   C4B16222  36.501  42.778   7.327
 1042POPC   NC316223  36.739   6.876   9.565
 1042POPC   PO416224  36.909   6.204   9.489
 1042POPC   GL116225  36.993   6.492   9.168
 1042POPC   GL216226  36.998   6.853   9.131
 1042POPC   C1A16227  37.059   6.364   8.773
 1042POPC   D2A16228  37.196   6.448   8.380
 1042POPC   C3A16229  36.844   6.342   8.126
 1042POPC   C4A16230  36.519   6.459   7.861
 1042POPC   C1B16231  36.861   6.836   8.753
 1042POPC   C2B16232  36.748   6.815   8.337
 1042POPC   C3B16233  37.070   6.838   8.082
 1042POPC   C4B16234  37.006   6.639   7.742
 1043POPC   NC316235  42.835  33.727   9.556
 1043POPC   PO416236  43.445  33.950   9.458
 1043POPC   GL116237  43.205  33.772   9.158
 1043POPC   GL216238  42.941  34.029   9.145
 1043POPC   C1A16239  43.040  33.746   8.738
 1043POPC   D2A16240  43.059  33.574   8.347
 1043POPC   C3A16241  43.103  33.798   8.011
 1043POPC   C4A16242  43.334  33.700   7.648
 1043POPC   C1B16243  43.254  34.219   8.851
 1043POPC   C2B16244  43.318  34.194   8.373
 1043POPC   C3B16245  43.435  34.169   7.903
 1043POPC   C4B16246  43.379  34.142   7.418
 1044POPC   NC316247   1.517  41.991   9.534
 1044POPC   PO416248   1.204  41.361   9.690
 1044POPC   GL116249   1.148  41.392   9.234
 1044POPC   GL216250   0.998  41.724   9.153
 1044POPC   C1A16251   1.018  41.379   8.783
 1044POPC   D2A16252   0.943  41.183   8.418
 1044POPC   C3A16253   1.056  41.479   8.129
 1044POPC   C4A16254   1.031  41.416   7.713
 1044POPC   C1B16255   1.400  41.696   8.932
 1044POPC   C2B16256   1.458  41.751   8.500
 1044POPC   C3B16257   1.615  41.678   8.114
 1044POPC   C4B16258   1.497  41.610   7.716
 1045POPC   NC316259  43.585  17.123   9.591
 1045POPC   PO416260  43.951  16.563   9.561
 1045POPC   GL116261  43.714  16.762   9.238
 1045POPC   GL216262  43.922  17.017   9.213
 1045POPC   C1A16263  43.629  16.913   8.823
 1045POPC   D2A16264  43.885  16.931   8.457
 1045POPC   C3A16265  43.769  16.838   8.048
 1045POPC   C4A16266  43.505  16.589   7.811
 1045POPC   C1B16267  44.195  16.922   8.887
 1045POPC   C2B16268  44.362  17.075   8.510
 1045POPC   C3B16269  44.275  16.961   8.112
 1045POPC   C4B16270  44.124  17.041   7.714
 1046POPC   NC316271  34.906  25.892   9.341
 1046POPC   PO416272  34.766  26.561   9.288
 1046POPC   GL116273  34.666  26.253   9.008
 1046POPC   GL216274  34.450  26.008   9.114
 1046POPC   C1A16275  34.754  26.008   8.628
 1046POPC   D2A16276  34.620  25.975   8.196
 1046POPC   C3A16277  34.620  26.355   7.936
 1046POPC   C4A16278  34.815  26.141   7.632
 1046POPC   C1B16279  34.253  26.062   8.751
 1046POPC   C2B16280  34.305  26.322   8.406
 1046POPC   C3B16281  34.142  26.201   8.015
 1046POPC   C4B16282  34.277  26.035   7.605
 1047POPC   NC316283  17.104  31.887   9.386
 1047POPC   PO416284  16.635  31.321   9.565
 1047POPC   GL116285  16.714  31.580   9.225
 1047POPC   GL216286  16.402  31.728   9.221
 1047POPC   C1A16287  16.846  31.395   8.880
 1047POPC   D2A16288  16.689  31.216   8.527
 1047POPC   C3A16289  16.944  31.370   8.185
 1047POPC   C4A16290  16.785  31.406   7.787
 1047POPC   C1B16291  16.420  31.642   8.775
 1047POPC   C2B16292  16.603  31.701   8.375
 1047POPC   C3B16293  16.424  31.734   7.974
 1047POPC   C4B16294  16.543  31.790   7.551
 1048POPC   NC316295   2.265  28.866   9.393
 1048POPC   PO416296   2.156  29.514   9.398
 1048POPC   GL116297   2.073  29.292   9.053
 1048POPC   GL216298   1.756  29.186   9.030
 1048POPC   C1A16299   2.023  29.390   8.600
 1048POPC   D2A16300   2.259  29.139   8.299
 1048POPC   C3A16301   2.081  29.143   7.929
 1048POPC   C4A16302   1.677  29.125   8.032
 1048POPC   C1B16303   2.025  28.907   8.736
 1048POPC   C2B16304   1.983  28.661   8.389
 1048POPC   C3B16305   1.863  28.634   7.988
 1048POPC   C4B16306   2.012  28.743   7.641
 1049POPC   NC316307  40.291  10.851   9.465
 1049POPC   PO416308  40.780  10.785   9.961
 1049POPC   GL116309  40.818  10.736   9.404
 1049POPC   GL216310  40.593  10.768   9.063
 1049POPC   C1A16311  41.012  10.530   8.987
 1049POPC   D2A16312  41.081  10.627   8.524
 1049POPC   C3A16313  41.001  10.436   8.127
 1049POPC   C4A16314  40.758  10.616   7.816
 1049POPC   C1B16315  40.606  10.434   8.699
 1049POPC   C2B16316  40.493  10.436   8.235
 1049POPC   C3B16317  40.461  10.211   7.794
 1049POPC   C4B16318  40.549  10.296   7.344
 1050POPC   NC316319  19.682  29.403   9.414
 1050POPC   PO416320  20.143  28.938   9.661
 1050POPC   GL116321  20.055  29.037   9.200
 1050POPC   GL216322  19.721  29.097   9.027
 1050POPC   C1A16323  20.108  29.206   8.751
 1050POPC   D2A16324  19.734  29.096   8.474
 1050POPC   C3A16325  19.637  29.261   8.063
 1050POPC   C4A16326  19.773  29.157   7.662
 1050POPC   C1B16327  19.438  28.836   8.791
 1050POPC   C2B16328  19.454  28.602   8.403
 1050POPC   C3B16329  19.419  28.655   7.940
 1050POPC   C4B16330  19.566  28.726   7.493
 1051POPC   NC316331   7.548  11.816   9.585
 1051POPC   PO416332   7.692  11.122   9.608
 1051POPC   GL116333   7.525  11.119   9.190
 1051POPC   GL216334   7.449  11.468   9.174
 1051POPC   C1A16335   7.446  11.180   8.764
 1051POPC   D2A16336   7.629  11.045   8.431
 1051POPC   C3A16337   7.431  11.161   8.126
 1051POPC   C4A16338   7.612  11.109   7.788
 1051POPC   C1B16339   7.198  11.623   8.792
 1051POPC   C2B16340   7.158  11.561   8.341
 1051POPC   C3B16341   7.565  11.654   8.141
 1051POPC   C4B16342   7.701  11.846   7.780
 1052POPC   NC316343  41.721  14.298   9.647
 1052POPC   PO416344  41.068  14.164   9.418
 1052POPC   GL116345  41.434  14.203   9.162
 1052POPC   GL216346  41.606  14.523   9.204
 1052POPC   C1A16347  41.422  14.403   8.746
 1052POPC   D2A16348  41.657  14.526   8.430
 1052POPC   C3A16349  41.400  14.442   8.085
 1052POPC   C4A16350  41.283  14.372   7.659
 1052POPC   C1B16351  41.897  14.738   8.959
 1052POPC   C2B16352  41.918  14.949   8.594
 1052POPC   C3B16353  41.958  14.894   8.167
 1052POPC   C4B16354  41.795  14.657   7.849
 1053POPC   NC316355  17.964  29.743   9.506
 1053POPC   PO416356  18.275  30.347   9.544
 1053POPC   GL116357  18.325  30.048   9.156
 1053POPC   GL216358  18.149  29.765   9.034
 1053POPC   C1A16359  18.355  30.068   8.684
 1053POPC   D2A16360  18.341  30.225   8.244
 1053POPC   C3A16361  18.372  29.983   7.892
 1053POPC   C4A16362  18.350  29.581   7.748
 1053POPC   C1B16363  17.897  29.814   8.645
 1053POPC   C2B16364  17.947  29.896   8.190
 1053POPC   C3B16365  17.805  30.027   7.777
 1053POPC   C4B16366  17.690  29.853   7.382
 1054POPC   NC316367  14.543  28.335   9.583
 1054POPC   PO416368  14.019  28.082   9.275
 1054POPC   GL116369  14.318  28.321   9.052
 1054POPC   GL216370  14.391  28.649   9.190
 1054POPC   C1A16371  14.409  28.287   8.608
 1054POPC   D2A16372  14.471  27.991   8.299
 1054POPC   C3A16373  14.456  28.257   8.005
 1054POPC   C4A16374  14.212  28.173   7.654
 1054POPC   C1B16375  14.467  28.745   8.796
 1054POPC   C2B16376  14.221  28.724   8.432
 1054POPC   C3B16377  14.309  28.772   8.034
 1054POPC   C4B16378  14.438  28.626   7.655
 1055POPC   NC316379   1.252   5.122   9.594
 1055POPC   PO416380   1.133   4.514   9.311
 1055POPC   GL116381   1.268   4.933   9.101
 1055POPC   GL216382   1.155   5.295   9.113
 1055POPC   C1A16383   1.276   5.065   8.659
 1055POPC   D2A16384   1.065   4.846   8.321
 1055POPC   C3A16385   1.290   4.861   7.935
 1055POPC   C4A16386   1.054   4.808   7.563
 1055POPC   C1B16387   0.942   5.474   8.744
 1055POPC   C2B16388   0.957   5.341   8.338
 1055POPC   C3B16389   1.131   5.381   7.927
 1055POPC   C4B16390   1.439   5.421   7.576
 1056POPC   NC316391  44.983  16.741   9.883
 1056POPC   PO416392   0.538  16.773   9.489
 1056POPC   GL116393   0.460  16.655   9.092
 1056POPC   GL216394   0.129  16.681   9.165
 1056POPC   C1A16395   0.632  16.767   8.696
 1056POPC   D2A16396   0.661  16.718   8.253
 1056POPC   C3A16397   0.598  16.968   7.900
 1056POPC   C4A16398   0.540  16.607   7.620
 1056POPC   C1B16399   0.035  16.431   8.836
 1056POPC   C2B16400   0.157  16.384   8.407
 1056POPC   C3B16401   0.223  16.587   8.018
 1056POPC   C4B16402   0.102  16.875   7.680
 1057POPC   NC316403   7.014   6.236   9.485
 1057POPC   PO416404   6.806   6.853   9.452
 1057POPC   GL116405   6.774   6.533   9.139
 1057POPC   GL216406   6.658   6.796   8.945
 1057POPC   C1A16407   6.625   6.331   8.771
 1057POPC   D2A16408   6.734   6.192   8.345
 1057POPC   C3A16409   6.661   6.500   8.033
 1057POPC   C4A16410   6.459   6.584   7.659
 1057POPC   C1B16411   6.826   7.053   8.616
 1057POPC   C2B16412   6.614   7.018   8.244
 1057POPC   C3B16413   6.621   7.016   7.818
 1057POPC   C4B16414   6.823   6.959   7.409
 1058POPC   NC316415   7.588  38.559   9.379
 1058POPC   PO416416   7.157  38.202   9.663
 1058POPC   GL116417   7.417  38.136   9.184
 1058POPC   GL216418   7.351  38.446   8.947
 1058POPC   C1A16419   7.573  38.038   8.764
 1058POPC   D2A16420   7.323  38.049   8.386
 1058POPC   C3A16421   7.470  38.178   7.964
 1058POPC   C4A16422   7.400  38.520   7.677
 1058POPC   C1B16423   7.660  38.612   8.648
 1058POPC   C2B16424   7.681  38.587   8.185
 1058POPC   C3B16425   7.760  38.827   7.836
 1058POPC   C4B16426   7.812  38.716   7.389
 1059POPC   NC316427  43.953  41.126   9.479
 1059POPC   PO416428  43.462  40.712   9.373
 1059POPC   GL116429  43.814  40.839   9.076
 1059POPC   GL216430  44.160  40.706   9.148
 1059POPC   C1A16431  43.975  40.762   8.656
 1059POPC   D2A16432  44.233  40.772   8.288
 1059POPC   C3A16433  43.991  40.882   7.912
 1059POPC   C4A16434  43.912  40.788   7.475
 1059POPC   C1B16435  44.322  40.422   8.810
 1059POPC   C2B16436  44.268  40.261   8.384
 1059POPC   C3B16437  44.136  40.369   7.940
 1059POPC   C4B16438  44.085  40.315   7.467
 1060POPC   NC316439  18.685  33.944   9.799
 1060POPC   PO416440  19.152  33.652   9.444
 1060POPC   GL116441  18.942  33.821   9.149
 1060POPC   GL216442  19.137  34.119   9.180
 1060POPC   C1A16443  19.001  33.756   8.722
 1060POPC   D2A16444  19.056  33.984   8.359
 1060POPC   C3A16445  19.246  33.755   8.081
 1060POPC   C4A16446  18.960  33.607   7.787
 1060POPC   C1B16447  19.310  34.143   8.768
 1060POPC   C2B16448  19.330  34.422   8.448
 1060POPC   C3B16449  19.335  34.304   8.040
 1060POPC   C4B16450  19.316  34.056   7.680
 1061POPC   NC316451  18.429   1.860   9.434
 1061POPC   PO416452  18.157   2.487   9.364
 1061POPC   GL116453  18.399   2.269   9.075
 1061POPC   GL216454  18.264   1.942   8.967
 1061POPC   C1A16455  18.487   2.331   8.656
 1061POPC   D2A16456  18.515   2.052   8.316
 1061POPC   C3A16457  18.366   2.159   7.907
 1061POPC   C4A16458  18.489   2.166   7.477
 1061POPC   C1B16459  18.121   1.687   8.615
 1061POPC   C2B16460  18.058   1.426   8.292
 1061POPC   C3B16461  18.157   1.727   8.045
 1061POPC   C4B16462  18.337   1.714   7.644
 1062POPC   NC316463  36.222  38.757   9.451
 1062POPC   PO416464  36.433  38.159   9.547
 1062POPC   GL116465  36.165  38.151   9.163
 1062POPC   GL216466  35.913  38.417   9.171
 1062POPC   C1A16467  36.103  38.261   8.696
 1062POPC   D2A16468  36.236  38.622   8.409
 1062POPC   C3A16469  36.266  38.500   7.969
 1062POPC   C4A16470  36.292  38.054   7.865
 1062POPC   C1B16471  35.861  38.700   8.794
 1062POPC   C2B16472  35.698  38.674   8.356
 1062POPC   C3B16473  35.754  38.581   7.906
 1062POPC   C4B16474  35.627  38.721   7.491
 1063POPC   NC316475  32.470  39.609   9.498
 1063POPC   PO416476  32.046  39.103   9.449
 1063POPC   GL116477  32.275  39.262   9.162
 1063POPC   GL216478  32.488  38.990   9.196
 1063POPC   C1A16479  32.156  39.443   8.786
 1063POPC   D2A16480  32.195  39.231   8.408
 1063POPC   C3A16481  32.101  39.456   8.046
 1063POPC   C4A16482  32.051  39.351   7.610
 1063POPC   C1B16483  32.619  39.232   8.761
 1063POPC   C2B16484  32.670  39.348   8.280
 1063POPC   C3B16485  32.451  39.139   7.872
 1063POPC   C4B16486  32.519  39.305   7.424
 1064POPC   NC316487  20.944  37.243   9.468
 1064POPC   PO416488  21.119  36.664   9.505
 1064POPC   GL116489  20.702  36.768   9.263
 1064POPC   GL216490  20.474  37.073   9.262
 1064POPC   C1A16491  20.456  36.721   8.863
 1064POPC   D2A16492  20.344  36.914   8.470
 1064POPC   C3A16493  20.480  36.759   8.066
 1064POPC   C4A16494  20.887  36.786   7.862
 1064POPC   C1B16495  20.592  37.232   8.840
 1064POPC   C2B16496  20.421  37.407   8.448
 1064POPC   C3B16497  20.594  37.252   8.089
 1064POPC   C4B16498  20.515  37.120   7.691
 1065POPC   NC316499  36.901  29.529   9.722
 1065POPC   PO416500  36.823  29.953   9.220
 1065POPC   GL116501  37.131  29.825   8.992
 1065POPC   GL216502  37.072  29.526   9.154
 1065POPC   C1A16503  37.123  29.923   8.567
 1065POPC   D2A16504  36.779  30.036   8.306
 1065POPC   C3A16505  37.000  30.268   8.014
 1065POPC   C4A16506  37.193  30.083   7.650
 1065POPC   C1B16507  36.791  29.543   8.714
 1065POPC   C2B16508  36.957  29.510   8.311
 1065POPC   C3B16509  36.989  29.712   7.945
 1065POPC   C4B16510  36.643  29.942   7.781
 1066POPC   NC316511  25.653  27.862   9.631
 1066POPC   PO416512  25.815  28.470   9.489
 1066POPC   GL116513  25.802  28.504   9.069
 1066POPC   GL216514  25.807  28.842   9.008
 1066POPC   C1A16515  25.913  28.285   8.705
 1066POPC   D2A16516  26.169  28.413   8.360
 1066POPC   C3A16517  26.167  28.197   7.999
 1066POPC   C4A16518  25.831  28.041   7.753
 1066POPC   C1B16519  26.224  28.682   8.820
 1066POPC   C2B16520  26.484  28.797   8.442
 1066POPC   C3B16521  26.398  28.704   7.987
 1066POPC   C4B16522  26.632  28.424   7.693
 1067POPC   NC316523  26.376  33.266   9.607
 1067POPC   PO416524  25.904  32.856   9.453
 1067POPC   GL116525  26.038  33.210   9.230
 1067POPC   GL216526  26.288  33.000   9.101
 1067POPC   C1A16527  25.967  33.261   8.813
 1067POPC   D2A16528  26.031  33.042   8.435
 1067POPC   C3A16529  25.850  33.163   8.055
 1067POPC   C4A16530  25.943  33.082   7.649
 1067POPC   C1B16531  26.487  33.140   8.710
 1067POPC   C2B16532  26.519  33.061   8.263
 1067POPC   C3B16533  26.368  32.918   7.871
 1067POPC   C4B16534  26.463  33.052   7.424
 1068POPC   NC316535  14.726  29.672   9.541
 1068POPC   PO416536  14.271  30.158   9.506
 1068POPC   GL116537  14.596  30.044   9.180
 1068POPC   GL216538  14.515  29.668   9.085
 1068POPC   C1A16539  14.475  30.036   8.740
 1068POPC   D2A16540  14.148  30.115   8.478
 1068POPC   C3A16541  14.408  30.207   8.142
 1068POPC   C4A16542  14.271  30.147   7.734
 1068POPC   C1B16543  14.727  29.585   8.703
 1068POPC   C2B16544  14.700  29.763   8.298
 1068POPC   C3B16545  14.727  29.548   7.916
 1068POPC   C4B16546  14.438  29.657   7.610
 1069POPC   NC316547  36.570  26.287   9.421
 1069POPC   PO416548  36.090  25.790   9.512
 1069POPC   GL116549  35.988  25.953   9.114
 1069POPC   GL216550  36.091  26.282   9.141
 1069POPC   C1A16551  36.295  25.883   8.792
 1069POPC   D2A16552  36.519  25.774   8.413
 1069POPC   C3A16553  36.298  26.029   8.134
 1069POPC   C4A16554  36.180  26.009   7.761
 1069POPC   C1B16555  36.065  26.354   8.706
 1069POPC   C2B16556  35.857  26.100   8.396
 1069POPC   C3B16557  35.765  26.231   7.976
 1069POPC   C4B16558  35.837  26.325   7.565
 1070POPC   NC316559  27.049  21.557   9.932
 1070POPC   PO416560  26.672  21.359   9.366
 1070POPC   GL116561  26.843  21.520   9.017
 1070POPC   GL216562  27.022  21.208   8.993
 1070POPC   C1A16563  26.744  21.629   8.622
 1070POPC   D2A16564  26.851  21.372   8.317
 1070POPC   C3A16565  27.123  21.569   8.077
 1070POPC   C4A16566  26.820  21.598   7.779
 1070POPC   C1B16567  27.234  21.380   8.671
 1070POPC   C2B16568  27.279  21.112   8.321
 1070POPC   C3B16569  27.057  21.090   7.916
 1070POPC   C4B16570  27.156  21.297   7.513
 1071POPC   NC316571  44.271  28.423   9.505
 1071POPC   PO416572  44.897  28.181   9.454
 1071POPC   GL116573  44.634  28.306   9.120
 1071POPC   GL216574  44.519  28.639   9.111
 1071POPC   C1A16575  44.751  28.347   8.680
 1071POPC   D2A16576   0.103  28.255   8.415
 1071POPC   C3A16577  44.922  28.067   8.066
 1071POPC   C4A16578  44.660  28.180   7.723
 1071POPC   C1B16579  44.262  28.445   8.747
 1071POPC   C2B16580  44.372  28.471   8.310
 1071POPC   C3B16581  44.722  28.567   8.061
 1071POPC   C4B16582  44.642  28.822   7.715
 1072POPC   NC316583  28.612  13.326   9.544
 1072POPC   PO416584  29.295  13.673   9.586
 1072POPC   GL116585  29.284  13.513   9.193
 1072POPC   GL216586  28.957  13.563   9.196
 1072POPC   C1A16587  29.507  13.462   8.802
 1072POPC   D2A16588  29.512  13.690   8.431
 1072POPC   C3A16589  29.357  13.518   8.068
 1072POPC   C4A16590  29.627  13.430   7.715
 1072POPC   C1B16591  29.065  13.713   8.781
 1072POPC   C2B16592  28.949  13.671   8.382
 1072POPC   C3B16593  28.911  13.885   8.023
 1072POPC   C4B16594  28.887  13.643   7.679
 1073POPC   NC316595  25.928  44.188   9.277
 1073POPC   PO416596  25.810  43.470   9.479
 1073POPC   GL116597  25.777  43.703   9.145
 1073POPC   GL216598  26.088  43.588   9.048
 1073POPC   C1A16599  25.631  43.809   8.743
 1073POPC   D2A16600  25.825  43.843   8.333
 1073POPC   C3A16601  25.851  44.057   7.946
 1073POPC   C4A16602  25.609  44.060   7.558
 1073POPC   C1B16603  26.209  43.810   8.686
 1073POPC   C2B16604  26.311  43.668   8.274
 1073POPC   C3B16605  26.413  43.468   7.899
 1073POPC   C4B16606  26.248  43.816   7.675
 1074POPC   NC316607   1.898  44.430   9.595
 1074POPC   PO416608   2.340  44.973   9.302
 1074POPC   GL116609   1.991  44.818   9.039
 1074POPC   GL216610   1.924  44.482   9.094
 1074POPC   C1A16611   1.728  44.772   8.659
 1074POPC   D2A16612   1.546  44.760   8.229
 1074POPC   C3A16613   1.811  44.907   7.910
 1074POPC   C4A16614   2.259  44.882   7.816
 1074POPC   C1B16615   1.658  44.278   8.811
 1074POPC   C2B16616   1.819  44.308   8.393
 1074POPC   C3B16617   1.801  44.386   7.959
 1074POPC   C4B16618   2.000  44.529   7.599
 1075POPC   NC316619  33.258  37.774   9.776
 1075POPC   PO416620  32.633  37.501   9.699
 1075POPC   GL116621  32.927  37.587   9.340
 1075POPC   GL216622  33.245  37.457   9.306
 1075POPC   C1A16623  33.060  37.748   8.916
 1075POPC   D2A16624  32.841  37.762   8.534
 1075POPC   C3A16625  33.023  37.816   8.106
 1075POPC   C4A16626  32.749  37.782   7.739
 1075POPC   C1B16627  33.320  37.296   8.869
 1075POPC   C2B16628  33.238  37.480   8.462
 1075POPC   C3B16629  33.015  37.318   8.087
 1075POPC   C4B16630  33.121  37.430   7.696
 1076POPC   NC316631  32.808   8.813   9.556
 1076POPC   PO416632  33.449   8.937   9.579
 1076POPC   GL116633  33.157   8.886   9.206
 1076POPC   GL216634  32.883   9.156   9.159
 1076POPC   C1A16635  33.211   8.936   8.777
 1076POPC   D2A16636  33.224   9.215   8.441
 1076POPC   C3A16637  33.272   8.970   8.072
 1076POPC   C4A16638  33.124   9.076   7.691
 1076POPC   C1B16639  32.678   8.907   8.822
 1076POPC   C2B16640  32.807   8.905   8.373
 1076POPC   C3B16641  32.817   9.238   8.071
 1076POPC   C4B16642  32.696   9.430   7.667
 1077POPC   NC316643   6.056  15.839   9.446
 1077POPC   PO416644   5.474  16.142   9.452
 1077POPC   GL116645   5.684  16.040   9.121
 1077POPC   GL216646   5.591  15.717   9.108
 1077POPC   C1A16647   5.811  16.117   8.715
 1077POPC   D2A16648   5.641  16.027   8.325
 1077POPC   C3A16649   5.822  15.855   7.974
 1077POPC   C4A16650   6.034  15.965   7.603
 1077POPC   C1B16651   5.763  15.595   8.731
 1077POPC   C2B16652   6.058  15.667   8.397
 1077POPC   C3B16653   6.101  15.431   8.010
 1077POPC   C4B16654   5.724  15.425   7.729
 1078POPC   NC316655  11.131   3.376   9.409
 1078POPC   PO416656  11.825   3.168   9.343
 1078POPC   GL116657  11.573   3.439   9.109
 1078POPC   GL216658  11.421   3.753   9.195
 1078POPC   C1A16659  11.401   3.400   8.693
 1078POPC   D2A16660  11.403   3.265   8.262
 1078POPC   C3A16661  11.346   3.568   7.951
 1078POPC   C4A16662  11.332   3.475   7.519
 1078POPC   C1B16663  11.231   3.858   8.850
 1078POPC   C2B16664  11.297   3.896   8.416
 1078POPC   C3B16665  11.120   4.045   8.048
 1078POPC   C4B16666  11.208   3.993   7.643
 1079POPC   NC316667  31.898   4.725   9.563
 1079POPC   PO416668  32.332   5.193   9.670
 1079POPC   GL116669  32.294   5.078   9.222
 1079POPC   GL216670  32.037   4.903   9.120
 1079POPC   C1A16671  32.231   5.250   8.789
 1079POPC   D2A16672  31.955   5.274   8.446
 1079POPC   C3A16673  32.076   5.145   8.051
 1079POPC   C4A16674  32.224   5.415   7.757
 1079POPC   C1B16675  32.338   4.760   8.803
 1079POPC   C2B16676  32.393   4.897   8.395
 1079POPC   C3B16677  32.445   4.780   7.968
 1079POPC   C4B16678  32.230   4.934   7.593
 1080POPC   NC316679   0.463  13.276   9.415
 1080POPC   PO416680   0.649  12.572   9.488
 1080POPC   GL116681   0.403  12.827   9.164
 1080POPC   GL216682   0.622  13.076   8.967
 1080POPC   C1A16683   0.149  12.923   8.778
 1080POPC   D2A16684   0.145  12.703   8.377
 1080POPC   C3A16685   0.330  12.853   7.999
 1080POPC   C4A16686   0.149  12.721   7.642
 1080POPC   C1B16687   0.571  12.686   8.696
 1080POPC   C2B16688   0.704  12.685   8.301
 1080POPC   C3B16689   0.805  12.575   7.913
 1080POPC   C4B16690   0.554  12.398   7.613
 1081POPC   NC316691  23.939  28.369   9.496
 1081POPC   PO416692  23.233  28.248   9.506
 1081POPC   GL116693  23.553  28.136   9.206
 1081POPC   GL216694  23.607  28.491   9.133
 1081POPC   C1A16695  23.706  28.175   8.765
 1081POPC   D2A16696  23.547  28.436   8.427
 1081POPC   C3A16697  23.677  28.151   8.134
 1081POPC   C4A16698  23.880  28.123   7.774
 1081POPC   C1B16699  23.795  28.700   8.800
 1081POPC   C2B16700  24.079  28.523   8.494
 1081POPC   C3B16701  23.958  28.582   8.072
 1081POPC   C4B16702  23.677  28.618   7.737
 1082POPC   NC316703  16.490  38.282   9.759
 1082POPC   PO416704  16.825  38.792   9.468
 1082POPC   GL116705  16.596  38.467   9.194
 1082POPC   GL216706  16.704  38.093   9.163
 1082POPC   C1A16707  16.676  38.385   8.745
 1082POPC   D2A16708  16.981  38.499   8.422
 1082POPC   C3A16709  16.855  38.687   8.026
 1082POPC   C4A16710  16.615  38.711   7.615
 1082POPC   C1B16711  16.482  37.885   8.799
 1082POPC   C2B16712  16.281  38.079   8.458
 1082POPC   C3B16713  16.481  38.351   8.157
 1082POPC   C4B16714  16.721  38.253   7.790
 1083POPC   NC316715  17.718  25.728   9.961
 1083POPC   PO416716  17.656  26.150   9.472
 1083POPC   GL116717  17.764  26.146   9.057
 1083POPC   GL216718  17.566  26.410   9.019
 1083POPC   C1A16719  17.655  25.848   8.740
 1083POPC   D2A16720  17.418  25.868   8.362
 1083POPC   C3A16721  17.665  25.880   8.003
 1083POPC   C4A16722  17.465  25.828   7.634
 1083POPC   C1B16723  17.613  26.326   8.580
 1083POPC   C2B16724  17.584  26.347   8.158
 1083POPC   C3B16725  17.546  26.360   7.732
 1083POPC   C4B16726  17.793  26.171   7.431
 1084POPC   NC316727   0.923   8.618   9.530
 1084POPC   PO416728   1.246   8.054   9.595
 1084POPC   GL116729   1.193   8.069   9.173
 1084POPC   GL216730   0.929   8.279   9.146
 1084POPC   C1A16731   1.318   8.046   8.748
 1084POPC   D2A16732   1.372   8.207   8.342
 1084POPC   C3A16733   1.143   7.984   8.006
 1084POPC   C4A16734   1.060   8.062   7.543
 1084POPC   C1B16735   0.815   8.013   8.803
 1084POPC   C2B16736   0.844   8.151   8.385
 1084POPC   C3B16737   1.031   8.492   8.104
 1084POPC   C4B16738   0.850   8.636   7.743
 1085POPC   NC316739  33.452  19.024   9.571
 1085POPC   PO416740  34.079  18.944   9.550
 1085POPC   GL116741  33.824  19.086   9.218
 1085POPC   GL216742  33.695  19.432   9.331
 1085POPC   C1A16743  33.942  18.970   8.798
 1085POPC   D2A16744  33.785  18.788   8.431
 1085POPC   C3A16745  33.889  18.949   8.039
 1085POPC   C4A16746  33.714  18.924   7.651
 1085POPC   C1B16747  33.745  19.443   8.865
 1085POPC   C2B16748  33.765  19.299   8.412
 1085POPC   C3B16749  33.547  19.368   7.981
 1085POPC   C4B16750  33.390  19.298   7.545
 1086POPC   NC316751  30.975  11.255   9.625
 1086POPC   PO416752  30.489  11.602   9.341
 1086POPC   GL116753  30.778  11.335   9.151
 1086POPC   GL216754  30.530  11.126   9.037
 1086POPC   C1A16755  30.956  11.238   8.746
 1086POPC   D2A16756  30.841  11.395   8.326
 1086POPC   C3A16757  30.905  11.066   8.044
 1086POPC   C4A16758  31.061  10.989   7.629
 1086POPC   C1B16759  30.492  11.448   8.723
 1086POPC   C2B16760  30.322  11.400   8.379
 1086POPC   C3B16761  30.426  11.299   8.003
 1086POPC   C4B16762  30.743  11.477   7.776
 1087POPC   NC316763  23.711   0.735   9.398
 1087POPC   PO416764  23.771   0.200   9.756
 1087POPC   GL116765  23.759   0.257   9.253
 1087POPC   GL216766  23.497   0.154   9.040
 1087POPC   C1A16767  23.938   0.283   8.814
 1087POPC   D2A16768  23.978   0.547   8.440
 1087POPC   C3A16769  24.196   0.392   8.111
 1087POPC   C4A16770  23.872   0.251   7.845
 1087POPC   C1B16771  23.476   0.259   8.598
 1087POPC   C2B16772  23.501   0.103   8.185
 1087POPC   C3B16773  23.375   0.272   7.775
 1087POPC   C4B16774  23.306   0.286   7.297
 1088POPC   NC316775  34.048  37.854   9.912
 1088POPC   PO416776  33.585  37.827   9.460
 1088POPC   GL116777  33.695  37.656   9.156
 1088POPC   GL216778  34.000  37.558   9.294
 1088POPC   C1A16779  33.562  37.741   8.775
 1088POPC   D2A16780  33.482  37.967   8.437
 1088POPC   C3A16781  33.535  37.711   8.110
 1088POPC   C4A16782  33.463  37.810   7.728
 1088POPC   C1B16783  34.100  37.772   8.859
 1088POPC   C2B16784  33.939  37.667   8.443
 1088POPC   C3B16785  33.993  37.483   8.027
 1088POPC   C4B16786  34.101  37.772   7.714
 1089POPC   NC316787  21.494   5.652   9.447
 1089POPC   PO416788  21.065   6.156   9.547
 1089POPC   GL116789  21.311   6.048   9.196
 1089POPC   GL216790  21.111   5.732   9.119
 1089POPC   C1A16791  21.562   5.957   8.804
 1089POPC   D2A16792  21.439   6.118   8.394
 1089POPC   C3A16793  21.675   6.130   8.004
 1089POPC   C4A16794  21.791   5.734   7.810
 1089POPC   C1B16795  21.046   5.964   8.750
 1089POPC   C2B16796  20.923   6.057   8.361
 1089POPC   C3B16797  21.132   5.762   8.142
 1089POPC   C4B16798  21.270   5.844   7.783
 1090POPC   NC316799  36.174   8.511   9.515
 1090POPC   PO416800  36.320   7.887   9.417
 1090POPC   GL116801  36.142   8.174   9.127
 1090POPC   GL216802  35.847   8.326   9.100
 1090POPC   C1A16803  36.265   8.388   8.755
 1090POPC   D2A16804  36.108   8.207   8.375
 1090POPC   C3A16805  36.331   8.245   8.013
 1090POPC   C4A16806  36.585   8.381   7.690
 1090POPC   C1B16807  35.830   7.949   8.775
 1090POPC   C2B16808  35.740   7.847   8.309
 1090POPC   C3B16809  35.824   8.082   7.882
 1090POPC   C4B16810  35.932   7.919   7.448
 1091POPC   NC316811  28.853  42.927   9.405
 1091POPC   PO416812  29.337  43.413   9.569
 1091POPC   GL116813  29.205  43.217   9.163
 1091POPC   GL216814  28.854  43.174   8.965
 1091POPC   C1A16815  29.310  43.067   8.761
 1091POPC   D2A16816  29.075  43.155   8.398
 1091POPC   C3A16817  29.331  43.410   8.183
 1091POPC   C4A16818  29.491  43.397   7.792
 1091POPC   C1B16819  28.871  42.784   8.723
 1091POPC   C2B16820  28.757  42.760   8.283
 1091POPC   C3B16821  28.887  43.001   7.898
 1091POPC   C4B16822  28.851  42.860   7.457
 1092POPC   NC316823   5.237  21.864   9.335
 1092POPC   PO416824   5.191  21.213   9.512
 1092POPC   GL116825   5.175  21.403   9.120
 1092POPC   GL216826   4.928  21.623   9.008
 1092POPC   C1A16827   5.069  21.221   8.707
 1092POPC   D2A16828   5.136  21.060   8.278
 1092POPC   C3A16829   4.944  21.269   7.964
 1092POPC   C4A16830   5.205  21.103   7.669
 1092POPC   C1B16831   5.352  21.676   8.736
 1092POPC   C2B16832   5.482  21.747   8.326
 1092POPC   C3B16833   5.418  21.480   7.978
 1092POPC   C4B16834   5.476  21.543   7.545
 1093POPC   NC316835  41.714   3.299   9.630
 1093POPC   PO416836  41.151   3.637   9.544
 1093POPC   GL116837  41.468   3.598   9.229
 1093POPC   GL216838  41.860   3.664   9.282
 1093POPC   C1A16839  41.344   3.542   8.795
 1093POPC   D2A16840  41.377   3.815   8.448
 1093POPC   C3A16841  41.347   3.571   8.082
 1093POPC   C4A16842  41.169   3.623   7.700
 1093POPC   C1B16843  41.800   3.362   8.917
 1093POPC   C2B16844  41.743   3.425   8.504
 1093POPC   C3B16845  41.829   3.362   8.114
 1093POPC   C4B16846  41.651   3.201   7.740
 1094POPC   NC316847  42.548  27.122   9.402
 1094POPC   PO416848  42.271  26.482   9.422
 1094POPC   GL116849  42.099  26.569   9.078
 1094POPC   GL216850  42.308  26.840   9.043
 1094POPC   C1A16851  41.970  26.546   8.708
 1094POPC   D2A16852  42.120  26.732   8.371
 1094POPC   C3A16853  41.942  26.553   8.017
 1094POPC   C4A16854  42.172  26.715   7.685
 1094POPC   C1B16855  42.432  27.083   8.716
 1094POPC   C2B16856  42.307  27.200   8.320
 1094POPC   C3B16857  42.490  26.915   8.036
 1094POPC   C4B16858  42.634  26.961   7.628
 1095POPC   NC316859  21.800  32.848   9.522
 1095POPC   PO416860  21.166  33.172   9.571
 1095POPC   GL116861  21.165  33.155   9.152
 1095POPC   GL216862  21.529  33.176   9.166
 1095POPC   C1A16863  21.234  32.899   8.774
 1095POPC   D2A16864  21.445  32.721   8.411
 1095POPC   C3A16865  21.212  32.847   8.033
 1095POPC   C4A16866  21.034  33.228   7.848
 1095POPC   C1B16867  21.402  33.381   8.772
 1095POPC   C2B16868  21.421  33.248   8.358
 1095POPC   C3B16869  21.538  33.221   7.945
 1095POPC   C4B16870  21.713  32.796   7.824
 1096POPC   NC316871  17.728  37.019   9.676
 1096POPC   PO416872  17.329  37.279   9.207
 1096POPC   GL116873  17.429  36.875   9.199
 1096POPC   GL216874  17.775  36.859   9.189
 1096POPC   C1A16875  17.440  36.760   8.768
 1096POPC   D2A16876  17.490  37.068   8.428
 1096POPC   C3A16877  17.226  37.056   8.073
 1096POPC   C4A16878  17.335  36.826   7.729
 1096POPC   C1B16879  17.885  37.047   8.791
 1096POPC   C2B16880  18.028  36.928   8.390
 1096POPC   C3B16881  17.822  36.844   8.003
 1096POPC   C4B16882  17.820  37.182   7.725
 1097POPC   NC316883   6.827  15.990   9.473
 1097POPC   PO416884   6.177  16.316   9.490
 1097POPC   GL116885   6.494  16.293   9.108
 1097POPC   GL216886   6.881  16.261   9.019
 1097POPC   C1A16887   6.535  16.127   8.670
 1097POPC   D2A16888   6.575  15.755   8.395
 1097POPC   C3A16889   6.377  15.850   8.007
 1097POPC   C4A16890   6.475  16.226   7.859
 1097POPC   C1B16891   6.926  15.846   8.818
 1097POPC   C2B16892   7.113  15.840   8.388
 1097POPC   C3B16893   6.908  15.948   8.023
 1097POPC   C4B16894   6.755  15.686   7.714
 1098POPC   NC316895   2.397  41.586   9.287
 1098POPC   PO416896   3.095  41.743   9.412
 1098POPC   GL116897   2.889  41.628   9.085
 1098POPC   GL216898   2.675  41.921   9.027
 1098POPC   C1A16899   2.764  41.537   8.701
 1098POPC   D2A16900   2.769  41.728   8.333
 1098POPC   C3A16901   2.420  41.539   8.190
 1098POPC   C4A16902   2.466  41.430   7.816
 1098POPC   C1B16903   2.992  42.012   8.726
 1098POPC   C2B16904   3.225  42.000   8.328
 1098POPC   C3B16905   3.002  42.013   7.965
 1098POPC   C4B16906   2.555  41.929   7.868
 1099POPC   NC316907  22.073  14.887   9.363
 1099POPC   PO416908  21.698  15.368   9.428
 1099POPC   GL116909  21.776  15.185   9.047
 1099POPC   GL216910  22.120  15.232   8.963
 1099POPC   C1A16911  21.853  14.908   8.690
 1099POPC   D2A16912  21.940  14.852   8.246
 1099POPC   C3A16913  22.222  15.073   7.945
 1099POPC   C4A16914  22.321  15.122   7.499
 1099POPC   C1B16915  22.181  15.281   8.490
 1099POPC   C2B16916  22.303  15.547   8.126
 1099POPC   C3B16917  22.592  15.456   7.792
 1099POPC   C4B16918  22.834  15.136   7.509
 1100POPC   NC316919  37.828  44.026   9.617
 1100POPC   PO416920  37.202  44.124   9.491
 1100POPC   GL116921  37.554  43.965   9.185
 1100POPC   GL216922  37.818  43.688   9.225
 1100POPC   C1A16923  37.700  44.002   8.766
 1100POPC   D2A16924  37.713  44.138   8.356
 1100POPC   C3A16925  37.560  43.850   8.100
 1100POPC   C4A16926  37.395  44.019   7.754
 1100POPC   C1B16927  38.101  43.743   8.872
 1100POPC   C2B16928  37.983  43.665   8.426
 1100POPC   C3B16929  38.145  43.631   8.003
 1100POPC   C4B16930  38.120  43.693   7.520
 1101POPC   NC316931  40.572  43.927   9.317
 1101POPC   PO416932  41.272  43.663   9.426
 1101POPC   GL116933  41.074  43.970   9.149
 1101POPC   GL216934  40.888  43.717   8.987
 1101POPC   C1A16935  40.886  44.207   8.824
 1101POPC   D2A16936  40.811  43.960   8.496
 1101POPC   C3A16937  40.677  44.207   8.163
 1101POPC   C4A16938  40.708  44.119   7.710
 1101POPC   C1B16939  40.533  43.563   8.754
 1101POPC   C2B16940  40.415  43.661   8.339
 1101POPC   C3B16941  40.743  43.711   8.053
 1101POPC   C4B16942  40.852  43.591   7.679
 1102POPC   NC316943  44.419  34.481   9.832
 1102POPC   PO416944  44.779  34.847   9.288
 1102POPC   GL116945  44.730  34.611   8.985
 1102POPC   GL216946  44.386  34.717   8.886
 1102POPC   C1A16947  44.660  34.385   8.658
 1102POPC   D2A16948  44.563  34.662   8.331
 1102POPC   C3A16949  44.829  34.713   7.960
 1102POPC   C4A16950  44.772  34.513   7.572
 1102POPC   C1B16951  44.514  35.040   8.689
 1102POPC   C2B16952  44.280  35.190   8.368
 1102POPC   C3B16953  44.451  35.048   8.018
 1102POPC   C4B16954  44.398  34.835   7.648
 1103POPC   NC316955   6.095  39.730   9.379
 1103POPC   PO416956   5.714  40.276   9.542
 1103POPC   GL116957   5.648  40.123   9.169
 1103POPC   GL216958   5.651  39.779   9.176
 1103POPC   C1A16959   5.922  40.202   8.834
 1103POPC   D2A16960   5.767  40.077   8.433
 1103POPC   C3A16961   6.022  40.054   8.070
 1103POPC   C4A16962   5.870  40.081   7.652
 1103POPC   C1B16963   5.889  39.690   8.786
 1103POPC   C2B16964   5.960  39.581   8.394
 1103POPC   C3B16965   5.781  39.566   8.017
 1103POPC   C4B16966   5.885  39.570   7.622
 1104POPC   NC316967  22.528  11.949   9.464
 1104POPC   PO416968  23.205  12.216   9.493
 1104POPC   GL116969  22.941  12.043   9.132
 1104POPC   GL216970  22.595  12.135   9.001
 1104POPC   C1A16971  23.041  12.191   8.708
 1104POPC   D2A16972  23.348  12.156   8.352
 1104POPC   C3A16973  23.157  12.319   7.989
 1104POPC   C4A16974  22.911  12.025   7.805
 1104POPC   C1B16975  22.640  11.855   8.695
 1104POPC   C2B16976  22.792  11.969   8.311
 1104POPC   C3B16977  22.482  11.965   8.030
 1104POPC   C4B16978  22.529  11.659   7.754
 1105POPC   NC316979  28.121   5.103   9.403
 1105POPC   PO416980  28.766   4.890   9.320
 1105POPC   GL116981  28.520   5.285   9.126
 1105POPC   GL216982  28.175   5.378   8.961
 1105POPC   C1A16983  28.619   5.422   8.705
 1105POPC   D2A16984  28.496   5.211   8.321
 1105POPC   C3A16985  28.720   5.066   7.949
 1105POPC   C4A16986  28.490   5.283   7.656
 1105POPC   C1B16987  28.257   5.015   8.749
 1105POPC   C2B16988  28.115   4.826   8.393
 1105POPC   C3B16989  28.195   4.959   7.992
 1105POPC   C4B16990  28.348   4.795   7.657
 1106POPC   NC316991  43.500   8.088   9.538
 1106POPC   PO416992  44.010   8.537   9.620
 1106POPC   GL116993  43.822   8.394   9.262
 1106POPC   GL216994  43.595   8.647   9.315
 1106POPC   C1A16995  43.862   8.099   8.915
 1106POPC   D2A16996  44.134   8.021   8.559
 1106POPC   C3A16997  43.971   7.863   8.185
 1106POPC   C4A16998  44.054   7.967   7.780
 1106POPC   C1B16999  43.675   8.616   8.835
 1106POPC   C2B17000  43.753   8.366   8.467
 1106POPC   C3B17001  43.880   8.407   8.038
 1106POPC   C4B17002  43.896   8.728   7.731
 1107POPC   NC317003  35.425  39.863   9.358
 1107POPC   PO417004  35.695  40.456   9.418
 1107POPC   GL117005  35.437  40.301   9.091
 1107POPC   GL217006  35.093  40.215   9.209
 1107POPC   C1A17007  35.455  40.029   8.706
 1107POPC   D2A17008  35.186  39.867   8.369
 1107POPC   C3A17009  35.357  39.933   7.970
 1107POPC   C4A17010  35.157  39.791   7.603
 1107POPC   C1B17011  34.958  40.152   8.793
 1107POPC   C2B17012  34.949  40.326   8.383
 1107POPC   C3B17013  34.903  40.149   8.007
 1107POPC   C4B17014  35.011  40.279   7.627
 1108POPC   NC317015   2.528  15.283   9.775
 1108POPC   PO417016   1.998  14.922   9.850
 1108POPC   GL117017   2.106  15.036   9.373
 1108POPC   GL217018   1.947  15.338   9.191
 1108POPC   C1A17019   2.105  15.000   8.874
 1108POPC   D2A17020   2.275  15.006   8.440
 1108POPC   C3A17021   2.113  15.081   8.088
 1108POPC   C4A17022   2.162  15.016   7.677
 1108POPC   C1B17023   1.608  15.237   8.849
 1108POPC   C2B17024   1.450  15.104   8.416
 1108POPC   C3B17025   1.626  15.051   8.000
 1108POPC   C4B17026   1.787  15.388   7.720
 1109POPC   NC317027   0.137  28.606   9.394
 1109POPC   PO417028   0.480  28.057   9.604
 1109POPC   GL117029   0.435  28.251   9.196
 1109POPC   GL217030   0.141  28.203   8.982
 1109POPC   C1A17031   0.598  28.368   8.790
 1109POPC   D2A17032   0.667  28.298   8.365
 1109POPC   C3A17033   0.408  28.308   8.003
 1109POPC   C4A17034   0.611  28.316   7.615
 1109POPC   C1B17035   0.166  28.639   8.746
 1109POPC   C2B17036   0.233  28.782   8.307
 1109POPC   C3B17037   0.150  28.761   7.846
 1109POPC   C4B17038   0.092  28.389   7.576
 1110POPC   NC317039  41.281  22.715   9.340
 1110POPC   PO417040  41.997  22.792   9.368
 1110POPC   GL117041  41.668  22.998   9.111
 1110POPC   GL217042  41.530  23.303   9.238
 1110POPC   C1A17043  41.682  22.998   8.653
 1110POPC   D2A17044  41.385  22.918   8.335
 1110POPC   C3A17045  41.539  22.758   7.968
 1110POPC   C4A17046  41.657  22.927   7.571
 1110POPC   C1B17047  41.332  23.319   8.841
 1110POPC   C2B17048  41.448  23.435   8.435
 1110POPC   C3B17049  41.454  23.302   8.003
 1110POPC   C4B17050  41.390  23.502   7.613
 1111POPC   NC317051  13.983   0.310   9.981
 1111POPC   PO417052  14.509   0.457   9.574
 1111POPC   GL117053  14.217   0.452   9.204
 1111POPC   GL217054  14.497   0.471   9.022
 1111POPC   C1A17055  14.092   0.505   8.723
 1111POPC   D2A17056  14.214   0.307   8.294
 1111POPC   C3A17057  14.074   0.445   7.905
 1111POPC   C4A17058  14.166   0.557   7.459
 1111POPC   C1B17059  14.591   0.287   8.636
 1111POPC   C2B17060  14.712   0.527   8.271
 1111POPC   C3B17061  14.578   0.520   7.855
 1111POPC   C4B17062  14.416   0.152   7.657
 1112POPC   NC317063  40.613  40.448   9.426
 1112POPC   PO417064  40.946  40.942   9.582
 1112POPC   GL117065  40.912  40.995   9.150
 1112POPC   GL217066  40.920  40.645   9.061
 1112POPC   C1A17067  40.918  40.967   8.683
 1112POPC   D2A17068  41.079  40.862   8.270
 1112POPC   C3A17069  40.852  40.993   7.915
 1112POPC   C4A17070  40.452  41.038   7.806
 1112POPC   C1B17071  41.072  40.479   8.671
 1112POPC   C2B17072  40.940  40.343   8.258
 1112POPC   C3B17073  41.059  40.533   7.881
 1112POPC   C4B17074  41.153  40.357   7.477
 1113POPC   NC317075  39.579  41.206   9.327
 1113POPC   PO417076  39.470  40.513   9.627
 1113POPC   GL117077  39.429  40.633   9.193
 1113POPC   GL217078  39.133  40.445   9.120
 1113POPC   C1A17079  39.269  40.770   8.761
 1113POPC   D2A17080  39.441  40.944   8.385
 1113POPC   C3A17081  39.157  40.867   8.070
 1113POPC   C4A17082  39.027  41.028   7.699
 1113POPC   C1B17083  39.049  40.278   8.736
 1113POPC   C2B17084  38.954  40.453   8.324
 1113POPC   C3B17085  39.062  40.409   7.866
 1113POPC   C4B17086  39.355  40.617   7.616
 1114POPC   NC317087  10.305   0.313   9.525
 1114POPC   PO417088  10.805   0.716   9.609
 1114POPC   GL117089  10.641   0.561   9.222
 1114POPC   GL217090  10.298   0.733   9.242
 1114POPC   C1A17091  10.464   0.289   8.875
 1114POPC   D2A17092  10.241   0.118   8.519
 1114POPC   C3A17093  10.408   0.296   8.147
 1114POPC   C4A17094  10.610   0.101   7.789
 1114POPC   C1B17095  10.024   0.566   8.925
 1114POPC   C2B17096  10.072   0.611   8.502
 1114POPC   C3B17097  10.068   0.680   8.062
 1114POPC   C4B17098  10.277   0.494   7.699
 1115POPC   NC317099  19.665  31.060   9.216
 1115POPC   PO417100  19.921  30.488   9.471
 1115POPC   GL117101  20.028  30.626   9.048
 1115POPC   GL217102  20.187  30.901   9.137
 1115POPC   C1A17103  19.781  30.685   8.634
 1115POPC   D2A17104  19.680  30.894   8.215
 1115POPC   C3A17105  19.835  30.660   7.843
 1115POPC   C4A17106  19.910  30.454   7.441
 1115POPC   C1B17107  20.090  31.134   8.752
 1115POPC   C2B17108  20.176  30.943   8.388
 1115POPC   C3B17109  20.174  31.021   7.978
 1115POPC   C4B17110  20.193  30.878   7.549
 1116POPC   NC317111  40.540  22.745   9.461
 1116POPC   PO417112  41.109  23.152   9.486
 1116POPC   GL117113  40.864  22.995   9.127
 1116POPC   GL217114  40.840  22.600   9.082
 1116POPC   C1A17115  41.037  22.895   8.715
 1116POPC   D2A17116  40.997  22.579   8.379
 1116POPC   C3A17117  40.959  22.744   7.959
 1116POPC   C4A17118  41.174  23.021   7.689
 1116POPC   C1B17119  40.571  22.703   8.718
 1116POPC   C2B17120  40.546  22.875   8.283
 1116POPC   C3B17121  40.434  22.670   7.879
 1116POPC   C4B17122  40.477  22.640   7.381
 1117POPC   NC317123   7.778  32.795   9.599
 1117POPC   PO417124   7.214  33.127   9.535
 1117POPC   GL117125   7.515  33.083   9.213
 1117POPC   GL217126   7.411  32.755   9.205
 1117POPC   C1A17127   7.663  33.009   8.781
 1117POPC   D2A17128   7.420  33.124   8.403
 1117POPC   C3A17129   7.620  33.168   7.994
 1117POPC   C4A17130   7.449  33.278   7.579
 1117POPC   C1B17131   7.171  32.883   8.845
 1117POPC   C2B17132   7.109  32.713   8.457
 1117POPC   C3B17133   7.064  32.825   8.078
 1117POPC   C4B17134   7.292  32.825   7.750
 1118POPC   NC317135  35.451  13.116   9.504
 1118POPC   PO417136  35.116  12.633   9.460
 1118POPC   GL117137  35.090  12.961   9.152
 1118POPC   GL217138  34.719  13.079   9.129
 1118POPC   C1A17139  35.301  12.955   8.714
 1118POPC   D2A17140  35.360  12.748   8.320
 1118POPC   C3A17141  35.395  12.894   7.914
 1118POPC   C4A17142  35.307  12.625   7.502
 1118POPC   C1B17143  34.785  12.918   8.749
 1118POPC   C2B17144  34.903  12.963   8.368
 1118POPC   C3B17145  34.885  12.819   7.992
 1118POPC   C4B17146  34.951  13.111   7.686
 1119POPC   NC317147  39.425  27.860   9.605
 1119POPC   PO417148  39.693  28.478   9.562
 1119POPC   GL117149  39.338  28.307   9.271
 1119POPC   GL217150  39.096  28.538   9.108
 1119POPC   C1A17151  39.252  28.148   8.838
 1119POPC   D2A17152  39.075  28.223   8.439
 1119POPC   C3A17153  39.358  28.331   8.167
 1119POPC   C4A17154  39.371  28.382   7.758
 1119POPC   C1B17155  39.181  28.690   8.737
 1119POPC   C2B17156  39.120  28.798   8.350
 1119POPC   C3B17157  38.944  28.615   8.037
 1119POPC   C4B17158  38.927  28.578   7.624
 1120POPC   NC317159  17.284  34.155   9.449
 1120POPC   PO417160  17.770  33.634   9.476
 1120POPC   GL117161  17.580  33.748   9.115
 1120POPC   GL217162  17.548  34.078   9.014
 1120POPC   C1A17163  17.677  33.626   8.713
 1120POPC   D2A17164  17.873  33.652   8.316
 1120POPC   C3A17165  17.566  33.710   8.016
 1120POPC   C4A17166  17.237  33.458   7.836
 1120POPC   C1B17167  17.228  33.851   8.749
 1120POPC   C2B17168  17.151  33.896   8.346
 1120POPC   C3B17169  17.158  33.985   7.917
 1120POPC   C4B17170  17.236  33.907   7.479
 1121POPC   NC317171  35.690  20.780   9.890
 1121POPC   PO417172  35.961  20.324   9.371
 1121POPC   GL117173  36.263  20.631   9.162
 1121POPC   GL217174  36.497  20.429   8.951
 1121POPC   C1A17175  36.170  20.841   8.754
 1121POPC   D2A17176  36.155  20.641   8.328
 1121POPC   C3A17177  35.999  20.831   7.902
 1121POPC   C4A17178  36.265  20.827   7.498
 1121POPC   C1B17179  36.056  20.352   8.750
 1121POPC   C2B17180  35.819  20.228   8.392
 1121POPC   C3B17181  35.984  20.318   7.984
 1121POPC   C4B17182  35.969  20.410   7.535
 1122POPC   NC317183  40.438   8.112   9.358
 1122POPC   PO417184  39.817   8.127   9.453
 1122POPC   GL117185  39.925   8.121   9.068
 1122POPC   GL217186  40.171   8.373   9.022
 1122POPC   C1A17187  39.948   7.844   8.743
 1122POPC   D2A17188  39.817   7.946   8.355
 1122POPC   C3A17189  40.100   8.000   8.075
 1122POPC   C4A17190  39.996   8.176   7.734
 1122POPC   C1B17191  40.121   8.311   8.595
 1122POPC   C2B17192  40.414   8.339   8.281
 1122POPC   C3B17193  40.338   8.589   7.943
 1122POPC   C4B17194  40.114   8.639   7.577
 1123POPC   NC317195  16.426  17.946   9.437
 1123POPC   PO417196  16.997  18.215   9.553
 1123POPC   GL117197  16.674  18.320   9.200
 1123POPC   GL217198  16.788  18.084   9.051
 1123POPC   C1A17199  16.667  18.468   8.765
 1123POPC   D2A17200  16.848  18.248   8.386
 1123POPC   C3A17201  16.678  18.363   7.982
 1123POPC   C4A17202  16.900  18.560   7.628
 1123POPC   C1B17203  16.629  17.918   8.706
 1123POPC   C2B17204  16.778  17.746   8.324
 1123POPC   C3B17205  16.861  17.877   7.914
 1123POPC   C4B17206  16.565  17.906   7.568
 1124POPC   NC317207  10.489  15.748   9.615
 1124POPC   PO417208  10.914  16.233   9.743
 1124POPC   GL117209  10.646  16.119   9.309
 1124POPC   GL217210  10.704  15.742   9.166
 1124POPC   C1A17211  10.514  16.088   8.843
 1124POPC   D2A17212  10.446  16.250   8.409
 1124POPC   C3A17213  10.456  16.012   8.009
 1124POPC   C4A17214  10.333  15.848   7.560
 1124POPC   C1B17215  10.520  15.581   8.755
 1124POPC   C2B17216  10.407  15.542   8.276
 1124POPC   C3B17217  10.686  15.583   7.871
 1124POPC   C4B17218  10.651  15.452   7.442
 1125POPC   NC317219   3.024  26.695   9.396
 1125POPC   PO417220   2.818  27.275   9.613
 1125POPC   GL117221   2.769  27.106   9.192
 1125POPC   GL217222   2.549  26.776   9.125
 1125POPC   C1A17223   2.849  27.176   8.764
 1125POPC   D2A17224   2.995  26.934   8.434
 1125POPC   C3A17225   2.732  26.768   8.142
 1125POPC   C4A17226   2.939  26.882   7.753
 1125POPC   C1B17227   2.439  26.850   8.657
 1125POPC   C2B17228   2.478  27.192   8.314
 1125POPC   C3B17229   2.506  27.118   7.854
 1125POPC   C4B17230   2.495  26.756   7.528
 1126POPC   NC317231  27.562  23.006   9.527
 1126POPC   PO417232  27.751  22.455   9.339
 1126POPC   GL117233  27.679  22.773   9.046
 1126POPC   GL217234  27.323  22.738   9.117
 1126POPC   C1A17235  27.798  23.111   8.719
 1126POPC   D2A17236  27.758  23.401   8.343
 1126POPC   C3A17237  27.807  23.118   8.006
 1126POPC   C4A17238  27.755  23.102   7.568
 1126POPC   C1B17239  27.293  23.010   8.767
 1126POPC   C2B17240  27.326  23.119   8.335
 1126POPC   C3B17241  27.280  22.849   7.977
 1126POPC   C4B17242  27.404  22.735   7.585
 1127POPC   NC317243  40.355   5.211   9.483
 1127POPC   PO417244  39.700   5.338   9.427
 1127POPC   GL117245  39.935   5.056   9.196
 1127POPC   GL217246  39.662   4.976   9.006
 1127POPC   C1A17247  40.156   4.956   8.821
 1127POPC   D2A17248  40.000   4.815   8.445
 1127POPC   C3A17249  40.261   5.013   8.156
 1127POPC   C4A17250  40.330   4.893   7.748
 1127POPC   C1B17251  39.701   5.235   8.662
 1127POPC   C2B17252  39.412   5.134   8.317
 1127POPC   C3B17253  39.609   4.951   7.979
 1127POPC   C4B17254  39.916   5.193   7.793
 1128POPC   NC317255  37.365   6.359   9.491
 1128POPC   PO417256  37.784   5.847   9.281
 1128POPC   GL117257  37.626   6.174   9.051
 1128POPC   GL217258  37.272   6.043   9.104
 1128POPC   C1A17259  37.923   6.208   8.671
 1128POPC   D2A17260  38.166   5.865   8.449
 1128POPC   C3A17261  38.030   5.796   8.001
 1128POPC   C4A17262  37.695   6.062   7.843
 1128POPC   C1B17263  37.347   5.679   8.829
 1128POPC   C2B17264  37.311   5.452   8.449
 1128POPC   C3B17265  37.383   5.628   8.039
 1128POPC   C4B17266  37.662   5.560   7.739
 1129POPC   NC317267   1.930  30.647   9.593
 1129POPC   PO417268   2.086  31.099   9.145
 1129POPC   GL117269   2.122  30.623   9.053
 1129POPC   GL217270   1.803  30.457   9.127
 1129POPC   C1A17271   2.019  30.399   8.628
 1129POPC   D2A17272   1.825  30.456   8.201
 1129POPC   C3A17273   1.995  30.819   7.912
 1129POPC   C4A17274   2.240  30.880   7.531
 1129POPC   C1B17275   1.632  30.148   8.833
 1129POPC   C2B17276   1.522  30.033   8.397
 1129POPC   C3B17277   1.650  30.033   7.933
 1129POPC   C4B17278   1.835  30.393   7.684
 1130POPC   NC317279  19.912  18.041   9.771
 1130POPC   PO417280  19.754  17.556   9.365
 1130POPC   GL117281  19.850  17.628   8.991
 1130POPC   GL217282  20.130  17.838   9.046
 1130POPC   C1A17283  19.683  17.679   8.593
 1130POPC   D2A17284  19.564  17.642   8.153
 1130POPC   C3A17285  19.825  17.307   7.982
 1130POPC   C4A17286  20.153  17.049   7.780
 1130POPC   C1B17287  20.229  17.853   8.620
 1130POPC   C2B17288  20.099  17.694   8.233
 1130POPC   C3B17289  19.986  17.888   7.853
 1130POPC   C4B17290  20.213  18.188   7.572
 1131POPC   NC317291  36.868  38.002   9.562
 1131POPC   PO417292  37.301  38.496   9.764
 1131POPC   GL117293  37.060  38.489   9.299
 1131POPC   GL217294  36.763  38.289   9.144
 1131POPC   C1A17295  36.814  38.786   8.980
 1131POPC   D2A17296  36.718  38.892   8.525
 1131POPC   C3A17297  36.967  38.658   8.187
 1131POPC   C4A17298  37.239  38.466   7.844
 1131POPC   C1B17299  36.611  38.381   8.718
 1131POPC   C2B17300  36.682  38.209   8.291
 1131POPC   C3B17301  36.736  38.317   7.850
 1131POPC   C4B17302  36.528  38.239   7.445
 1132POPC   NC317303  36.476  25.433   9.543
 1132POPC   PO417304  35.877  25.029   9.537
 1132POPC   GL117305  36.162  25.140   9.197
 1132POPC   GL217306  36.193  25.480   9.112
 1132POPC   C1A17307  36.222  25.102   8.741
 1132POPC   D2A17308  36.435  24.960   8.366
 1132POPC   C3A17309  36.227  25.062   7.981
 1132POPC   C4A17310  36.447  25.215   7.649
 1132POPC   C1B17311  35.914  25.518   8.765
 1132POPC   C2B17312  35.930  25.327   8.359
 1132POPC   C3B17313  36.173  25.539   8.062
 1132POPC   C4B17314  36.101  25.555   7.626
 1133POPC   NC317315  42.166  15.766   9.714
 1133POPC   PO417316  42.641  16.203   9.449
 1133POPC   GL117317  42.396  16.173   9.093
 1133POPC   GL217318  42.189  15.872   9.197
 1133POPC   C1A17319  42.409  15.955   8.714
 1133POPC   D2A17320  42.335  15.800   8.306
 1133POPC   C3A17321  42.557  15.961   7.951
 1133POPC   C4A17322  42.865  15.865   7.629
 1133POPC   C1B17323  41.946  15.704   8.844
 1133POPC   C2B17324  41.778  15.842   8.450
 1133POPC   C3B17325  41.909  15.748   8.042
 1133POPC   C4B17326  42.120  15.861   7.697
 1134POPC   NC317327  27.683   2.387   9.558
 1134POPC   PO417328  27.683   3.046   9.549
 1134POPC   GL117329  27.636   2.733   9.183
 1134POPC   GL217330  27.973   2.521   9.170
 1134POPC   C1A17331  27.471   2.585   8.762
 1134POPC   D2A17332  27.344   2.473   8.375
 1134POPC   C3A17333  27.477   2.762   8.096
 1134POPC   C4A17334  27.573   2.745   7.674
 1134POPC   C1B17335  27.958   2.720   8.788
 1134POPC   C2B17336  27.850   2.624   8.387
 1134POPC   C3B17337  27.986   2.773   7.982
 1134POPC   C4B17338  28.045   2.758   7.499
 1135POPC   NC317339   0.141  44.526   9.498
 1135POPC   PO417340   0.598  44.958   9.460
 1135POPC   GL117341   0.476  44.850   9.067
 1135POPC   GL217342   0.146  44.982   9.086
 1135POPC   C1A17343   0.639  44.718   8.644
 1135POPC   D2A17344   0.613  44.354   8.370
 1135POPC   C3A17345   0.544  44.458   7.934
 1135POPC   C4A17346   0.877  44.624   7.704
 1135POPC   C1B17347   0.201  44.965   8.649
 1135POPC   C2B17348   0.301  44.817   8.252
 1135POPC   C3B17349   0.184  44.849   7.839
 1135POPC   C4B17350   0.038  44.976   7.456
 1136POPC   NC317351  27.511   7.560   9.569
 1136POPC   PO417352  27.685   6.911   9.744
 1136POPC   GL117353  27.654   7.154   9.257
 1136POPC   GL217354  27.378   7.338   9.145
 1136POPC   C1A17355  27.579   7.132   8.758
 1136POPC   D2A17356  27.495   7.380   8.371
 1136POPC   C3A17357  27.447   7.326   7.870
 1136POPC   C4A17358  27.465   7.541   7.406
 1136POPC   C1B17359  27.550   7.655   8.847
 1136POPC   C2B17360  27.626   7.873   8.471
 1136POPC   C3B17361  27.513   7.786   8.077
 1136POPC   C4B17362  27.767   7.750   7.763
 1137POPC   NC317363  33.320   1.969   9.506
 1137POPC   PO417364  32.642   2.117   9.475
 1137POPC   GL117365  32.868   1.917   9.114
 1137POPC   GL217366  33.215   1.892   9.019
 1137POPC   C1A17367  32.880   2.095   8.674
 1137POPC   D2A17368  33.169   2.289   8.375
 1137POPC   C3A17369  33.234   2.140   7.956
 1137POPC   C4A17370  33.091   2.310   7.542
 1137POPC   C1B17371  33.304   1.830   8.583
 1137POPC   C2B17372  32.959   1.814   8.260
 1137POPC   C3B17373  32.837   1.868   7.844
 1137POPC   C4B17374  33.160   1.799   7.570
 1138POPC   NC317375  44.274   9.988   9.519
 1138POPC   PO417376  44.995   9.886   9.430
 1138POPC   GL117377  44.800   9.995   9.087
 1138POPC   GL217378  44.485   9.845   9.089
 1138POPC   C1A17379  44.775   9.853   8.667
 1138POPC   D2A17380  44.567   9.905   8.302
 1138POPC   C3A17381  44.812   9.632   8.067
 1138POPC   C4A17382  44.980   9.683   7.686
 1138POPC   C1B17383  44.278   9.719   8.699
 1138POPC   C2B17384  44.105   9.498   8.370
 1138POPC   C3B17385  44.260   9.617   7.981
 1138POPC   C4B17386  44.542   9.942   7.762
 1139POPC   NC317387   3.184  25.898   9.466
 1139POPC   PO417388   2.700  26.315   9.360
 1139POPC   GL117389   2.901  26.090   9.060
 1139POPC   GL217390   3.174  26.299   9.056
 1139POPC   C1A17391   2.723  26.056   8.657
 1139POPC   D2A17392   2.506  26.354   8.393
 1139POPC   C3A17393   2.455  26.146   8.016
 1139POPC   C4A17394   2.847  25.908   7.907
 1139POPC   C1B17395   2.865  26.536   8.773
 1139POPC   C2B17396   3.036  26.414   8.418
 1139POPC   C3B17397   3.096  26.441   8.029
 1139POPC   C4B17398   2.792  26.403   7.759
 1140POPC   NC317399   7.536  37.864   9.577
 1140POPC   PO417400   6.938  37.588   9.652
 1140POPC   GL117401   7.128  37.710   9.237
 1140POPC   GL217402   7.458  37.572   9.161
 1140POPC   C1A17403   7.180  37.678   8.759
 1140POPC   D2A17404   7.391  37.522   8.375
 1140POPC   C3A17405   7.223  37.727   8.013
 1140POPC   C4A17406   7.337  37.850   7.596
 1140POPC   C1B17407   7.705  37.551   8.793
 1140POPC   C2B17408   7.861  37.766   8.418
 1140POPC   C3B17409   7.738  37.726   7.999
 1140POPC   C4B17410   7.629  37.364   7.783
 1141POPC   NC317411   9.884   1.411   9.391
 1141POPC   PO417412   9.448   1.017   9.556
 1141POPC   GL117413   9.796   0.926   9.242
 1141POPC   GL217414   9.584   1.152   9.065
 1141POPC   C1A17415  10.046   1.071   8.847
 1141POPC   D2A17416   9.847   1.318   8.520
 1141POPC   C3A17417   9.950   1.213   8.096
 1141POPC   C4A17418   9.967   1.527   7.790
 1141POPC   C1B17419   9.407   1.463   8.829
 1141POPC   C2B17420   9.350   1.513   8.390
 1141POPC   C3B17421   9.476   1.449   7.964
 1141POPC   C4B17422   9.211   1.543   7.558
 1142POPC   NC317423  35.638  22.295   9.541
 1142POPC   PO417424  35.068  22.042   9.650
 1142POPC   GL117425  35.152  22.239   9.239
 1142POPC   GL217426  35.455  22.397   9.093
 1142POPC   C1A17427  35.148  22.096   8.809
 1142POPC   D2A17428  35.272  21.871   8.449
 1142POPC   C3A17429  35.095  22.030   8.076
 1142POPC   C4A17430  35.236  21.956   7.652
 1142POPC   C1B17431  35.343  22.565   8.719
 1142POPC   C2B17432  35.407  22.404   8.312
 1142POPC   C3B17433  35.562  22.242   7.920
 1142POPC   C4B17434  35.449  22.366   7.476
 1143POPC   NC317435   5.343  42.772   9.539
 1143POPC   PO417436   4.721  42.665   9.271
 1143POPC   GL117437   5.054  43.040   9.178
 1143POPC   GL217438   5.373  42.936   9.076
 1143POPC   C1A17439   5.253  43.338   8.838
 1143POPC   D2A17440   5.360  43.253   8.422
 1143POPC   C3A17441   5.103  43.416   8.115
 1143POPC   C4A17442   5.174  43.273   7.712
 1143POPC   C1B17443   5.162  42.699   8.792
 1143POPC   C2B17444   5.011  42.835   8.438
 1143POPC   C3B17445   5.137  42.899   8.050
 1143POPC   C4B17446   4.880  42.826   7.724
 1144POPC   NC317447  34.838  43.451   9.414
 1144POPC   PO417448  34.459  42.836   9.460
 1144POPC   GL117449  34.573  42.779   9.043
 1144POPC   GL217450  34.933  42.781   8.973
 1144POPC   C1A17451  34.339  42.893   8.697
 1144POPC   D2A17452  34.352  43.300   8.497
 1144POPC   C3A17453  34.515  43.167   8.110
 1144POPC   C4A17454  34.490  42.787   7.876
 1144POPC   C1B17455  34.770  43.191   8.811
 1144POPC   C2B17456  34.863  43.380   8.419
 1144POPC   C3B17457  34.945  43.386   7.964
 1144POPC   C4B17458  34.745  43.169   7.638
 1145POPC   NC317459  44.630  33.621   9.391
 1145POPC   PO417460  44.729  34.260   9.556
 1145POPC   GL117461  44.588  34.144   9.155
 1145POPC   GL217462  44.920  34.103   9.024
 1145POPC   C1A17463  44.527  33.872   8.789
 1145POPC   D2A17464  44.488  33.537   8.485
 1145POPC   C3A17465  44.602  33.709   8.087
 1145POPC   C4A17466  44.369  33.911   7.740
 1145POPC   C1B17467  44.990  34.002   8.594
 1145POPC   C2B17468  44.912  34.275   8.241
 1145POPC   C3B17469  44.835  34.121   7.869
 1145POPC   C4B17470  44.876  33.745   7.655
 1146POPC   NC317471  19.623  21.720   9.437
 1146POPC   PO417472  20.004  21.260   9.746
 1146POPC   GL117473  20.039  21.308   9.265
 1146POPC   GL217474  19.679  21.270   9.143
 1146POPC   C1A17475  19.990  21.579   8.860
 1146POPC   D2A17476  19.802  21.482   8.449
 1146POPC   C3A17477  20.029  21.578   8.101
 1146POPC   C4A17478  20.030  21.629   7.673
 1146POPC   C1B17479  19.787  21.064   8.756
 1146POPC   C2B17480  19.941  20.988   8.347
 1146POPC   C3B17481  19.860  21.127   7.959
 1146POPC   C4B17482  19.607  21.353   7.694
 1147POPC   NC317483  21.782  26.707   9.364
 1147POPC   PO417484  21.153  26.834   9.532
 1147POPC   GL117485  21.321  26.968   9.153
 1147POPC   GL217486  21.103  27.228   9.052
 1147POPC   C1A17487  21.528  26.846   8.765
 1147POPC   D2A17488  21.378  26.721   8.377
 1147POPC   C3A17489  21.463  26.915   7.987
 1147POPC   C4A17490  21.658  26.702   7.662
 1147POPC   C1B17491  21.029  27.012   8.665
 1147POPC   C2B17492  21.007  27.058   8.212
 1147POPC   C3B17493  20.913  26.946   7.801
 1147POPC   C4B17494  21.243  26.933   7.490
 1148POPC   NC317495  25.419   9.738   9.411
 1148POPC   PO417496  24.820  10.008   9.434
 1148POPC   GL117497  25.050   9.824   9.080
 1148POPC   GL217498  25.090   9.465   9.011
 1148POPC   C1A17499  25.255   9.829   8.670
 1148POPC   D2A17500  25.311   9.649   8.267
 1148POPC   C3A17501  25.277   9.971   7.973
 1148POPC   C4A17502  25.205   9.897   7.551
 1148POPC   C1B17503  25.546   9.465   8.866
 1148POPC   C2B17504  25.781   9.485   8.525
 1148POPC   C3B17505  25.794   9.505   8.104
 1148POPC   C4B17506  25.540   9.548   7.728
 1149POPC   NC317507   0.062  31.112   9.492
 1149POPC   PO417508   0.312  31.733   9.654
 1149POPC   GL117509   0.508  31.681   9.221
 1149POPC   GL217510   0.733  31.968   9.176
 1149POPC   C1A17511   0.453  31.393   8.855
 1149POPC   D2A17512   0.218  31.383   8.478
 1149POPC   C3A17513   0.301  31.264   8.060
 1149POPC   C4A17514   0.051  31.130   7.709
 1149POPC   C1B17515   0.584  31.888   8.759
 1149POPC   C2B17516   0.355  31.882   8.401
 1149POPC   C3B17517   0.316  31.754   8.019
 1149POPC   C4B17518   0.526  31.768   7.647
 1150POPC   NC317519  31.035  34.699   9.580
 1150POPC   PO417520  31.606  34.262   9.473
 1150POPC   GL117521  31.481  34.582   9.218
 1150POPC   GL217522  31.150  34.451   9.124
 1150POPC   C1A17523  31.537  34.482   8.792
 1150POPC   D2A17524  31.590  34.217   8.447
 1150POPC   C3A17525  31.759  34.541   8.180
 1150POPC   C4A17526  31.719  34.677   7.776
 1150POPC   C1B17527  31.050  34.452   8.666
 1150POPC   C2B17528  31.272  34.592   8.308
 1150POPC   C3B17529  31.307  34.383   7.888
 1150POPC   C4B17530  31.093  34.254   7.487
 1151POPC   NC317531   9.709  20.040   9.517
 1151POPC   PO417532   9.473  19.418   9.353
 1151POPC   GL117533   9.706  19.702   9.135
 1151POPC   GL217534  10.066  19.690   9.099
 1151POPC   C1A17535   9.699  19.990   8.832
 1151POPC   D2A17536   9.520  19.829   8.487
 1151POPC   C3A17537   9.607  19.971   8.087
 1151POPC   C4A17538   9.530  19.739   7.726
 1151POPC   C1B17539  10.000  19.584   8.681
 1151POPC   C2B17540  10.061  19.897   8.406
 1151POPC   C3B17541  10.081  20.156   8.089
 1151POPC   C4B17542   9.976  20.022   7.691
 1152POPC   NC317543  25.267  24.148   9.364
 1152POPC   PO417544  25.660  24.667   9.579
 1152POPC   GL117545  25.480  24.593   9.185
 1152POPC   GL217546  25.187  24.732   9.049
 1152POPC   C1A17547  25.551  24.530   8.751
 1152POPC   D2A17548  25.378  24.322   8.422
 1152POPC   C3A17549  25.370  24.595   8.096
 1152POPC   C4A17550  25.453  24.440   7.692
 1152POPC   C1B17551  24.997  24.483   8.746
 1152POPC   C2B17552  24.866  24.358   8.336
 1152POPC   C3B17553  25.007  24.295   7.928
 1152POPC   C4B17554  24.901  24.646   7.679
 1153POPC   NC317555  34.057  15.662   9.335
 1153POPC   PO417556  34.038  16.340   9.462
 1153POPC   GL117557  33.729  16.143   9.177
 1153POPC   GL217558  33.557  15.826   9.199
 1153POPC   C1A17559  33.511  16.187   8.786
 1153POPC   D2A17560  33.739  16.074   8.405
 1153POPC   C3A17561  33.809  16.212   7.983
 1153POPC   C4A17562  33.801  16.140   7.509
 1153POPC   C1B17563  33.672  15.716   8.793
 1153POPC   C2B17564  33.612  15.567   8.391
 1153POPC   C3B17565  33.802  15.683   8.017
 1153POPC   C4B17566  33.657  15.658   7.608
 1154POPC   NC317567  28.540  16.459   9.499
 1154POPC   PO417568  28.146  17.061   9.567
 1154POPC   GL117569  28.262  16.895   9.206
 1154POPC   GL217570  28.601  17.060   9.231
 1154POPC   C1A17571  28.111  16.610   8.852
 1154POPC   D2A17572  28.204  16.304   8.516
 1154POPC   C3A17573  28.228  16.459   8.096
 1154POPC   C4A17574  27.904  16.578   7.788
 1154POPC   C1B17575  28.616  16.847   8.849
 1154POPC   C2B17576  28.454  16.791   8.465
 1154POPC   C3B17577  28.592  16.856   8.090
 1154POPC   C4B17578  28.360  16.828   7.756
 1155POPC   NC317579   5.094  37.609   9.655
 1155POPC   PO417580   5.392  38.262   9.781
 1155POPC   GL117581   5.209  38.065   9.338
 1155POPC   GL217582   5.117  37.704   9.166
 1155POPC   C1A17583   5.315  38.045   8.865
 1155POPC   D2A17584   5.140  37.772   8.556
 1155POPC   C3A17585   5.248  37.813   8.143
 1155POPC   C4A17586   5.133  37.877   7.742
 1155POPC   C1B17587   5.014  37.380   8.846
 1155POPC   C2B17588   4.895  37.292   8.406
 1155POPC   C3B17589   4.957  37.412   7.975
 1155POPC   C4B17590   5.260  37.324   7.660
 1156POPC   NC317591  43.145   4.575   9.575
 1156POPC   PO417592  42.697   4.063   9.487
 1156POPC   GL117593  43.067   4.158   9.199
 1156POPC   GL217594  43.134   4.490   9.089
 1156POPC   C1A17595  43.236   4.124   8.755
 1156POPC   D2A17596  43.302   4.289   8.319
 1156POPC   C3A17597  43.128   4.132   7.933
 1156POPC   C4A17598  42.877   4.303   7.593
 1156POPC   C1B17599  43.226   4.653   8.716
 1156POPC   C2B17600  43.012   4.715   8.341
 1156POPC   C3B17601  43.043   4.675   7.937
 1156POPC   C4B17602  43.397   4.529   7.704
 1157POPC   NC317603  37.447  37.223   9.801
 1157POPC   PO417604  37.202  37.713   9.434
 1157POPC   GL117605  36.866  37.764   9.120
 1157POPC   GL217606  36.738  37.458   9.019
 1157POPC   C1A17607  36.929  37.972   8.722
 1157POPC   D2A17608  37.114  37.792   8.356
 1157POPC   C3A17609  37.090  37.967   7.961
 1157POPC   C4A17610  36.727  37.813   7.726
 1157POPC   C1B17611  37.084  37.473   8.747
 1157POPC   C2B17612  37.119  37.270   8.373
 1157POPC   C3B17613  36.963  37.448   7.999
 1157POPC   C4B17614  37.198  37.598   7.617
 1158POPC   NC317615  11.231  16.527   9.531
 1158POPC   PO417616  11.431  17.081   9.789
 1158POPC   GL117617  11.469  16.860   9.255
 1158POPC   GL217618  11.289  16.548   9.052
 1158POPC   C1A17619  11.666  16.731   8.816
 1158POPC   D2A17620  11.253  16.706   8.568
 1158POPC   C3A17621  11.241  16.679   8.133
 1158POPC   C4A17622  11.451  16.799   7.764
 1158POPC   C1B17623  10.930  16.387   8.821
 1158POPC   C2B17624  10.954  16.313   8.402
 1158POPC   C3B17625  10.797  16.426   8.008
 1158POPC   C4B17626  11.134  16.374   7.716
 1159POPC   NC317627  37.397  18.142   9.392
 1159POPC   PO417628  38.082  18.360   9.525
 1159POPC   GL117629  37.888  18.224   9.163
 1159POPC   GL217630  37.673  18.543   9.164
 1159POPC   C1A17631  37.919  18.012   8.733
 1159POPC   D2A17632  38.041  18.204   8.329
 1159POPC   C3A17633  37.790  18.250   7.918
 1159POPC   C4A17634  37.806  18.114   7.442
 1159POPC   C1B17635  37.793  18.496   8.723
 1159POPC   C2B17636  37.594  18.509   8.333
 1159POPC   C3B17637  37.553  18.699   7.953
 1159POPC   C4B17638  37.395  18.513   7.628
 1160POPC   NC317639  30.096  44.245   9.861
 1160POPC   PO417640  30.127  43.682   9.490
 1160POPC   GL117641  30.063  43.903   9.111
 1160POPC   GL217642  30.171  44.263   9.032
 1160POPC   C1A17643  29.960  43.700   8.724
 1160POPC   D2A17644  29.615  43.742   8.445
 1160POPC   C3A17645  29.817  43.714   8.045
 1160POPC   C4A17646  29.766  43.884   7.630
 1160POPC   C1B17647  29.830  44.201   8.714
 1160POPC   C2B17648  29.816  44.181   8.282
 1160POPC   C3B17649  30.115  44.151   7.996
 1160POPC   C4B17650  30.343  44.290   7.687
 1161POPC   NC317651  26.739  44.195   9.623
 1161POPC   PO417652  26.779  43.527   9.714
 1161POPC   GL117653  26.729  43.863   9.244
 1161POPC   GL217654  26.423  43.982   9.138
 1161POPC   C1A17655  27.037  43.891   8.821
 1161POPC   D2A17656  27.197  44.051   8.415
 1161POPC   C3A17657  27.126  43.801   8.059
 1161POPC   C4A17658  27.029  43.996   7.630
 1161POPC   C1B17659  26.614  44.144   8.773
 1161POPC   C2B17660  26.715  43.945   8.386
 1161POPC   C3B17661  26.660  43.892   7.939
 1161POPC   C4B17662  26.695  43.646   7.482
 1162POPC   NC317663  24.169  40.106   9.479
 1162POPC   PO417664  24.703  39.658   9.550
 1162POPC   GL117665  24.585  39.946   9.220
 1162POPC   GL217666  24.862  39.861   9.053
 1162POPC   C1A17667  24.539  40.228   8.887
 1162POPC   D2A17668  24.489  40.308   8.425
 1162POPC   C3A17669  24.505  40.152   7.981
 1162POPC   C4A17670  24.233  40.067   7.615
 1162POPC   C1B17671  24.634  39.788   8.649
 1162POPC   C2B17672  24.758  39.760   8.216
 1162POPC   C3B17673  24.645  39.694   7.767
 1162POPC   C4B17674  24.530  39.747   7.317
 1163POPC   NC317675   1.824  34.229   9.321
 1163POPC   PO417676   2.331  34.604   9.601
 1163POPC   GL117677   2.141  34.626   9.229
 1163POPC   GL217678   1.838  34.804   9.109
 1163POPC   C1A17679   2.250  34.583   8.836
 1163POPC   D2A17680   2.121  34.795   8.518
 1163POPC   C3A17681   2.126  34.639   8.125
 1163POPC   C4A17682   2.442  34.456   7.876
 1163POPC   C1B17683   1.749  34.520   8.757
 1163POPC   C2B17684   1.654  34.613   8.351
 1163POPC   C3B17685   1.657  34.526   7.915
 1163POPC   C4B17686   1.871  34.839   7.723
 1164POPC   NC317687   2.078  14.529   9.619
 1164POPC   PO417688   2.615  14.931   9.487
 1164POPC   GL117689   2.312  14.608   9.173
 1164POPC   GL217690   2.152  14.239   9.195
 1164POPC   C1A17691   2.025  14.518   8.773
 1164POPC   D2A17692   1.831  14.751   8.413
 1164POPC   C3A17693   1.918  14.613   7.992
 1164POPC   C4A17694   2.188  14.282   7.881
 1164POPC   C1B17695   1.799  14.078   8.897
 1164POPC   C2B17696   1.718  14.177   8.475
 1164POPC   C3B17697   1.564  14.230   8.074
 1164POPC   C4B17698   1.737  14.209   7.682
 1165POPC   NC317699  35.865   9.961   9.474
 1165POPC   PO417700  36.442  10.121   9.363
 1165POPC   GL117701  36.149   9.904   9.032
 1165POPC   GL217702  35.956   9.593   9.068
 1165POPC   C1A17703  36.037   9.897   8.582
 1165POPC   D2A17704  36.206  10.098   8.213
 1165POPC   C3A17705  36.071  10.040   7.784
 1165POPC   C4A17706  36.037  10.080   7.324
 1165POPC   C1B17707  35.963   9.406   8.655
 1165POPC   C2B17708  36.032   9.562   8.188
 1165POPC   C3B17709  36.384   9.644   7.896
 1165POPC   C4B17710  36.431   9.754   7.451
 1166POPC   NC317711  31.873   1.722   9.596
 1166POPC   PO417712  32.368   1.192   9.471
 1166POPC   GL117713  32.075   1.248   9.154
 1166POPC   GL217714  32.265   1.453   8.975
 1166POPC   C1A17715  32.038   1.089   8.720
 1166POPC   D2A17716  32.128   1.395   8.376
 1166POPC   C3A17717  32.046   1.200   7.971
 1166POPC   C4A17718  31.941   0.972   7.607
 1166POPC   C1B17719  32.519   1.245   8.677
 1166POPC   C2B17720  32.667   1.320   8.288
 1166POPC   C3B17721  32.465   1.491   7.949
 1166POPC   C4B17722  32.356   1.251   7.547
 1167POPC   NC317723  32.119  18.212   9.345
 1167POPC   PO417724  31.406  18.342   9.489
 1167POPC   GL117725  31.442  18.223   9.098
 1167POPC   GL217726  31.227  18.477   9.004
 1167POPC   C1A17727  31.264  18.074   8.710
 1167POPC   D2A17728  31.504  18.093   8.357
 1167POPC   C3A17729  31.355  18.097   7.948
 1167POPC   C4A17730  31.686  18.315   7.756
 1167POPC   C1B17731  31.523  18.521   8.663
 1167POPC   C2B17732  31.505  18.616   8.239
 1167POPC   C3B17733  31.365  18.690   7.852
 1167POPC   C4B17734  31.303  18.478   7.432
 1168POPC   NC317735   3.780  40.616   9.609
 1168POPC   PO417736   3.566  41.254   9.614
 1168POPC   GL117737   3.529  40.842   9.239
 1168POPC   GL217738   3.845  40.648   9.106
 1168POPC   C1A17739   3.468  40.746   8.748
 1168POPC   D2A17740   3.220  40.752   8.329
 1168POPC   C3A17741   3.406  40.944   7.960
 1168POPC   C4A17742   3.653  41.310   7.918
 1168POPC   C1B17743   3.980  40.839   8.706
 1168POPC   C2B17744   3.817  41.011   8.317
 1168POPC   C3B17745   3.946  40.846   7.906
 1168POPC   C4B17746   3.877  40.572   7.525
 1169POPC   NC317747  24.019  33.270   9.552
 1169POPC   PO417748  24.627  33.314   9.658
 1169POPC   GL117749  24.481  33.283   9.216
 1169POPC   GL217750  24.176  33.398   9.102
 1169POPC   C1A17751  24.596  33.191   8.788
 1169POPC   D2A17752  24.537  32.957   8.417
 1169POPC   C3A17753  24.513  33.118   8.000
 1169POPC   C4A17754  24.387  32.866   7.659
 1169POPC   C1B17755  24.259  33.557   8.730
 1169POPC   C2B17756  24.316  33.431   8.359
 1169POPC   C3B17757  24.035  33.349   8.010
 1169POPC   C4B17758  24.205  33.361   7.640
 1170POPC   NC317759  22.109  30.254   9.547
 1170POPC   PO417760  21.710  30.876   9.508
 1170POPC   GL117761  22.136  30.734   9.339
 1170POPC   GL217762  22.431  30.922   9.369
 1170POPC   C1A17763  22.277  30.508   8.962
 1170POPC   D2A17764  21.964  30.459   8.641
 1170POPC   C3A17765  22.045  30.499   8.178
 1170POPC   C4A17766  21.873  30.373   7.770
 1170POPC   C1B17767  22.488  30.962   8.910
 1170POPC   C2B17768  22.436  30.755   8.512
 1170POPC   C3B17769  22.475  30.869   8.074
 1170POPC   C4B17770  22.134  30.852   7.771
 1171POPC   NC317771   7.721  25.687   9.457
 1171POPC   PO417772   7.392  26.320   9.447
 1171POPC   GL117773   7.318  26.176   9.044
 1171POPC   GL217774   7.295  25.872   9.124
 1171POPC   C1A17775   7.574  26.114   8.688
 1171POPC   D2A17776   7.955  25.951   8.504
 1171POPC   C3A17777   7.852  26.061   8.090
 1171POPC   C4A17778   7.785  25.990   7.661
 1171POPC   C1B17779   7.096  25.821   8.729
 1171POPC   C2B17780   7.146  26.048   8.369
 1171POPC   C3B17781   7.352  26.000   7.995
 1171POPC   C4B17782   7.340  26.267   7.668
 1172POPC   NC317783  30.954  12.864   9.491
 1172POPC   PO417784  30.359  12.586   9.462
 1172POPC   GL117785  30.452  12.939   9.110
 1172POPC   GL217786  30.791  13.061   9.065
 1172POPC   C1A17787  30.488  13.077   8.669
 1172POPC   D2A17788  30.643  12.734   8.443
 1172POPC   C3A17789  30.552  12.609   8.050
 1172POPC   C4A17790  30.670  12.670   7.660
 1172POPC   C1B17791  31.008  12.811   8.816
 1172POPC   C2B17792  31.156  12.952   8.437
 1172POPC   C3B17793  30.915  13.024   8.074
 1172POPC   C4B17794  30.997  13.071   7.639
 1173POPC   NC317795  24.067  11.222   9.535
 1173POPC   PO417796  24.686  11.371   9.830
 1173POPC   GL117797  24.593  11.388   9.280
 1173POPC   GL217798  24.531  11.725   9.105
 1173POPC   C1A17799  24.789  11.449   8.797
 1173POPC   D2A17800  24.544  11.641   8.412
 1173POPC   C3A17801  24.540  11.423   7.987
 1173POPC   C4A17802  24.678  11.448   7.538
 1173POPC   C1B17803  24.281  11.421   8.811
 1173POPC   C2B17804  24.238  11.229   8.407
 1173POPC   C3B17805  24.041  11.392   8.034
 1173POPC   C4B17806  24.087  11.191   7.650
 1174POPC   NC317807   4.674   0.990   9.406
 1174POPC   PO417808   5.084   1.373   9.787
 1174POPC   GL117809   5.128   1.324   9.308
 1174POPC   GL217810   5.184   1.010   9.139
 1174POPC   C1A17811   5.263   1.416   8.852
 1174POPC   D2A17812   5.458   1.173   8.491
 1174POPC   C3A17813   5.271   1.238   8.071
 1174POPC   C4A17814   5.085   1.574   7.855
 1174POPC   C1B17815   5.032   0.984   8.697
 1174POPC   C2B17816   4.944   1.334   8.432
 1174POPC   C3B17817   4.700   1.353   8.074
 1174POPC   C4B17818   4.655   1.011   7.818
 1175POPC   NC317819  17.342  21.802   9.568
 1175POPC   PO417820  17.466  22.451   9.487
 1175POPC   GL117821  17.241  22.159   9.163
 1175POPC   GL217822  17.257  21.782   9.077
 1175POPC   C1A17823  17.241  22.186   8.695
 1175POPC   D2A17824  17.204  22.493   8.327
 1175POPC   C3A17825  17.425  22.433   7.909
 1175POPC   C4A17826  17.717  22.245   7.559
 1175POPC   C1B17827  17.638  21.828   8.840
 1175POPC   C2B17828  17.735  22.089   8.467
 1175POPC   C3B17829  17.692  22.002   8.025
 1175POPC   C4B17830  17.765  21.752   7.672
 1176POPC   NC317831  23.634  25.013   9.572
 1176POPC   PO417832  23.946  25.551   9.508
 1176POPC   GL117833  23.817  25.294   9.172
 1176POPC   GL217834  23.463  25.263   9.153
 1176POPC   C1A17835  23.735  25.074   8.762
 1176POPC   D2A17836  23.392  24.939   8.433
 1176POPC   C3A17837  23.546  25.049   8.036
 1176POPC   C4A17838  23.910  25.034   7.798
 1176POPC   C1B17839  23.558  25.538   8.776
 1176POPC   C2B17840  23.415  25.447   8.359
 1176POPC   C3B17841  23.642  25.534   7.967
 1176POPC   C4B17842  23.777  25.637   7.574
 1177POPC   NC317843  21.484  41.356   9.668
 1177POPC   PO417844  21.316  41.881   9.677
 1177POPC   GL117845  21.385  41.659   9.235
 1177POPC   GL217846  21.625  41.358   9.163
 1177POPC   C1A17847  21.308  41.488   8.801
 1177POPC   D2A17848  21.383  41.723   8.418
 1177POPC   C3A17849  21.219  41.531   8.058
 1177POPC   C4A17850  21.340  41.723   7.686
 1177POPC   C1B17851  21.830  41.177   8.779
 1177POPC   C2B17852  21.758  41.013   8.344
 1177POPC   C3B17853  21.832  41.089   7.921
 1177POPC   C4B17854  21.485  41.235   7.685
 1178POPC   NC317855  34.333  21.673   9.521
 1178POPC   PO417856  34.896  21.397   9.399
 1178POPC   GL117857  34.567  21.311   9.133
 1178POPC   GL217858  34.490  21.652   9.040
 1178POPC   C1A17859  34.551  21.189   8.704
 1178POPC   D2A17860  34.501  20.948   8.325
 1178POPC   C3A17861  34.606  21.164   7.954
 1178POPC   C4A17862  34.992  21.184   7.825
 1178POPC   C1B17863  34.355  21.678   8.623
 1178POPC   C2B17864  34.429  21.589   8.205
 1178POPC   C3B17865  34.288  21.532   7.793
 1178POPC   C4B17866  34.337  21.798   7.454
 1179POPC   NC317867  30.159  37.250   9.531
 1179POPC   PO417868  29.975  36.569   9.504
 1179POPC   GL117869  29.888  36.661   9.116
 1179POPC   GL217870  29.924  36.993   9.154
 1179POPC   C1A17871  29.670  36.767   8.729
 1179POPC   D2A17872  29.892  36.798   8.343
 1179POPC   C3A17873  29.709  36.884   7.978
 1179POPC   C4A17874  29.754  36.675   7.612
 1179POPC   C1B17875  30.159  36.932   8.768
 1179POPC   C2B17876  30.187  37.207   8.439
 1179POPC   C3B17877  30.305  37.071   8.072
 1179POPC   C4B17878  30.139  37.019   7.669
 1180POPC   NC317879   7.974   3.372   9.527
 1180POPC   PO417880   8.579   3.672   9.656
 1180POPC   GL117881   8.445   3.614   9.232
 1180POPC   GL217882   8.266   3.869   9.091
 1180POPC   C1A17883   8.363   3.394   8.840
 1180POPC   D2A17884   8.120   3.457   8.460
 1180POPC   C3A17885   8.394   3.397   8.115
 1180POPC   C4A17886   8.370   3.189   7.742
 1180POPC   C1B17887   7.928   3.658   8.916
 1180POPC   C2B17888   7.692   3.760   8.564
 1180POPC   C3B17889   7.726   3.667   8.149
 1180POPC   C4B17890   8.073   3.710   7.866
 1181POPC   NC317891  19.016  32.565   9.455
 1181POPC   PO417892  19.093  31.937   9.370
 1181POPC   GL117893  18.878  32.181   9.123
 1181POPC   GL217894  19.206  32.333   9.001
 1181POPC   C1A17895  18.769  32.301   8.730
 1181POPC   D2A17896  18.914  32.337   8.344
 1181POPC   C3A17897  18.592  32.394   8.042
 1181POPC   C4A17898  18.787  32.569   7.741
 1181POPC   C1B17899  19.147  31.970   8.702
 1181POPC   C2B17900  19.178  31.875   8.261
 1181POPC   C3B17901  18.921  32.039   7.931
 1181POPC   C4B17902  19.082  32.181   7.519
 1182POPC   NC317903   8.466  41.286   9.184
 1182POPC   PO417904   8.241  41.554   9.745
 1182POPC   GL117905   8.095  41.628   9.230
 1182POPC   GL217906   7.950  41.913   9.073
 1182POPC   C1A17907   7.924  41.472   8.745
 1182POPC   D2A17908   8.128  41.186   8.413
 1182POPC   C3A17909   8.262  41.350   7.991
 1182POPC   C4A17910   8.001  41.326   7.639
 1182POPC   C1B17911   8.277  41.817   8.767
 1182POPC   C2B17912   8.303  41.687   8.384
 1182POPC   C3B17913   8.326  41.875   8.001
 1182POPC   C4B17914   8.225  42.032   7.621
 1183POPC   NC317915  23.937   3.211   9.315
 1183POPC   PO417916  23.442   2.873   9.602
 1183POPC   GL117917  23.540   2.754   9.198
 1183POPC   GL217918  23.439   3.061   9.055
 1183POPC   C1A17919  23.547   2.635   8.751
 1183POPC   D2A17920  23.835   2.701   8.374
 1183POPC   C3A17921  23.717   2.578   7.953
 1183POPC   C4A17922  23.365   2.416   7.717
 1183POPC   C1B17923  23.754   3.107   8.703
 1183POPC   C2B17924  23.939   3.187   8.299
 1183POPC   C3B17925  23.645   3.113   7.976
 1183POPC   C4B17926  23.664   3.145   7.535
 1184POPC   NC317927  19.278  37.223   9.530
 1184POPC   PO417928  18.820  37.618   9.575
 1184POPC   GL117929  19.052  37.595   9.216
 1184POPC   GL217930  19.143  37.955   9.193
 1184POPC   C1A17931  19.108  37.431   8.809
 1184POPC   D2A17932  19.017  37.656   8.427
 1184POPC   C3A17933  18.916  37.390   8.113
 1184POPC   C4A17934  19.073  37.377   7.730
 1184POPC   C1B17935  19.307  37.932   8.779
 1184POPC   C2B17936  19.550  37.945   8.383
 1184POPC   C3B17937  19.459  38.054   7.966
 1184POPC   C4B17938  19.045  37.863   7.948
 1185POPC   NC317939   1.334  42.730   9.605
 1185POPC   PO417940   1.046  42.126   9.479
 1185POPC   GL117941   1.239  42.191   9.126
 1185POPC   GL217942   1.237  42.540   9.141
 1185POPC   C1A17943   1.107  42.070   8.725
 1185POPC   D2A17944   1.267  42.216   8.354
 1185POPC   C3A17945   1.216  41.958   8.010
 1185POPC   C4A17946   1.104  41.943   7.588
 1185POPC   C1B17947   1.470  42.488   8.775
 1185POPC   C2B17948   1.541  42.674   8.387
 1185POPC   C3B17949   1.176  42.654   8.113
 1185POPC   C4B17950   1.258  42.443   7.756
 1186POPC   NC317951  10.236  20.528   9.495
 1186POPC   PO417952  10.765  20.867   9.581
 1186POPC   GL117953  10.731  20.643   9.186
 1186POPC   GL217954  10.412  20.704   9.060
 1186POPC   C1A17955  10.802  20.517   8.742
 1186POPC   D2A17956  10.653  20.656   8.333
 1186POPC   C3A17957  10.750  20.473   7.942
 1186POPC   C4A17958  10.727  20.552   7.499
 1186POPC   C1B17959  10.534  20.979   8.735
 1186POPC   C2B17960  10.416  21.133   8.313
 1186POPC   C3B17961  10.449  20.952   7.887
 1186POPC   C4B17962  10.308  20.882   7.428
 1187POPC   NC317963  44.238  10.883   9.493
 1187POPC   PO417964  44.677  11.384   9.754
 1187POPC   GL117965  44.692  11.482   9.268
 1187POPC   GL217966  44.595  11.182   9.231
 1187POPC   C1A17967  44.845  11.553   8.791
 1187POPC   D2A17968  44.659  11.309   8.417
 1187POPC   C3A17969  44.692  11.345   7.942
 1187POPC   C4A17970  44.907  11.636   7.653
 1187POPC   C1B17971  44.470  11.035   8.855
 1187POPC   C2B17972  44.383  10.888   8.449
 1187POPC   C3B17973  44.630  10.848   8.116
 1187POPC   C4B17974  44.552  10.857   7.720
 1188POPC   NC317975   8.986   3.762   9.829
 1188POPC   PO417976   9.356   3.290   9.573
 1188POPC   GL117977   9.258   3.541   9.227
 1188POPC   GL217978   8.963   3.756   9.284
 1188POPC   C1A17979   9.113   3.454   8.794
 1188POPC   D2A17980   9.137   3.675   8.405
 1188POPC   C3A17981   9.221   3.471   8.023
 1188POPC   C4A17982   8.855   3.347   7.844
 1188POPC   C1B17983   8.757   3.834   8.886
 1188POPC   C2B17984   8.644   3.649   8.495
 1188POPC   C3B17985   8.749   3.787   8.069
 1188POPC   C4B17986   8.538   3.717   7.684
 1189POPC   NC317987  37.687  17.357   9.687
 1189POPC   PO417988  37.481  16.853   9.362
 1189POPC   GL117989  37.595  16.701   9.024
 1189POPC   GL217990  37.902  16.585   9.092
 1189POPC   C1A17991  37.653  16.671   8.633
 1189POPC   D2A17992  37.834  16.655   8.304
 1189POPC   C3A17993  37.589  16.786   7.993
 1189POPC   C4A17994  37.982  16.973   7.853
 1189POPC   C1B17995  37.659  16.221   8.837
 1189POPC   C2B17996  37.796  16.159   8.452
 1189POPC   C3B17997  37.709  16.226   8.045
 1189POPC   C4B17998  37.908  16.452   7.746
 1190POPC   NC317999  29.717   8.575   9.499
 1190POPC   PO418000  29.732   9.180   9.838
 1190POPC   GL118001  29.681   9.059   9.300
 1190POPC   GL218002  29.551   8.827   9.085
 1190POPC   C1A18003  29.894   9.043   8.806
 1190POPC   D2A18004  29.972   8.823   8.376
 1190POPC   C3A18005  29.949   9.051   7.953
 1190POPC   C4A18006  30.001   9.058   7.464
 1190POPC   C1B18007  29.496   8.786   8.611
 1190POPC   C2B18008  29.488   8.893   8.147
 1190POPC   C3B18009  29.587   8.812   7.685
 1190POPC   C4B18010  29.614   8.762   7.235
 1191POPC   NC318011  31.395  10.804   9.415
 1191POPC   PO418012  31.675  10.261   9.541
 1191POPC   GL118013  31.504  10.362   9.123
 1191POPC   GL218014  31.654  10.687   8.992
 1191POPC   C1A18015  31.391  10.328   8.674
 1191POPC   D2A18016  31.220  10.453   8.273
 1191POPC   C3A18017  31.372  10.397   7.835
 1191POPC   C4A18018  31.332  10.618   7.431
 1191POPC   C1B18019  32.050  10.776   8.801
 1191POPC   C2B18020  32.072  10.896   8.363
 1191POPC   C3B18021  31.882  10.699   8.022
 1191POPC   C4B18022  31.804  10.573   7.611
 1192POPC   NC318023  42.684  16.628   9.286
 1192POPC   PO418024  43.178  16.870   9.580
 1192POPC   GL118025  43.179  16.703   9.172
 1192POPC   GL218026  43.029  16.373   9.087
 1192POPC   C1A18027  43.124  16.859   8.772
 1192POPC   D2A18028  43.370  16.775   8.400
 1192POPC   C3A18029  43.238  16.962   8.047
 1192POPC   C4A18030  42.938  16.821   7.793
 1192POPC   C1B18031  42.844  16.432   8.694
 1192POPC   C2B18032  42.620  16.295   8.373
 1192POPC   C3B18033  42.581  16.488   8.040
 1192POPC   C4B18034  42.767  16.363   7.681
 1193POPC   NC318035  40.109  44.859   9.283
 1193POPC   PO418036  39.863  44.371   9.546
 1193POPC   GL118037  39.913  44.409   9.128
 1193POPC   GL218038  40.276  44.405   9.117
 1193POPC   C1A18039  39.874  44.277   8.714
 1193POPC   D2A18040  39.677  44.244   8.307
 1193POPC   C3A18041  39.912  44.437   7.993
 1193POPC   C4A18042  39.925  44.862   7.897
 1193POPC   C1B18043  40.358  44.585   8.724
 1193POPC   C2B18044  40.286  44.632   8.293
 1193POPC   C3B18045  40.410  44.554   7.879
 1193POPC   C4B18046  40.398  44.934   7.666
 1194POPC   NC318047  37.213   2.516   9.898
 1194POPC   PO418048  37.076   1.879   9.558
 1194POPC   GL118049  36.964   2.066   9.178
 1194POPC   GL218050  36.684   2.261   9.238
 1194POPC   C1A18051  37.079   2.133   8.730
 1194POPC   D2A18052  36.970   1.903   8.337
 1194POPC   C3A18053  37.015   2.077   7.923
 1194POPC   C4A18054  37.236   2.094   7.545
 1194POPC   C1B18055  36.593   1.967   8.871
 1194POPC   C2B18056  36.407   2.072   8.502
 1194POPC   C3B18057  36.540   2.123   8.103
 1194POPC   C4B18058  36.534   2.036   7.728
 1195POPC   NC318059  42.067  10.250   9.524
 1195POPC   PO418060  42.125  10.922   9.310
 1195POPC   GL118061  42.242  10.561   9.141
 1195POPC   GL218062  42.552  10.441   9.241
 1195POPC   C1A18063  42.263  10.448   8.733
 1195POPC   D2A18064  42.294  10.649   8.353
 1195POPC   C3A18065  42.007  10.472   8.098
 1195POPC   C4A18066  41.974  10.674   7.750
 1195POPC   C1B18067  42.740  10.579   8.872
 1195POPC   C2B18068  42.710  10.363   8.487
 1195POPC   C3B18069  42.699  10.487   8.077
 1195POPC   C4B18070  42.410  10.427   7.809
 1196POPC   NC318071  27.248   0.808   9.335
 1196POPC   PO418072  27.025   0.174   9.453
 1196POPC   GL118073  26.804   0.142   9.123
 1196POPC   GL218074  26.855   0.514   9.115
 1196POPC   C1A18075  26.788   0.195   8.707
 1196POPC   D2A18076  26.905  44.961   8.381
 1196POPC   C3A18077  26.769   0.188   8.054
 1196POPC   C4A18078  26.528   0.100   7.720
 1196POPC   C1B18079  26.827   0.756   8.769
 1196POPC   C2B18080  26.712   0.908   8.373
 1196POPC   C3B18081  26.940   0.857   8.000
 1196POPC   C4B18082  26.714   0.611   7.704
 1197POPC   NC318083   3.028   6.606   9.594
 1197POPC   PO418084   2.508   6.115   9.588
 1197POPC   GL118085   2.632   6.527   9.284
 1197POPC   GL218086   2.954   6.753   9.121
 1197POPC   C1A18087   2.477   6.836   8.966
 1197POPC   D2A18088   2.308   6.717   8.577
 1197POPC   C3A18089   2.484   6.911   8.258
 1197POPC   C4A18090   2.455   6.790   7.844
 1197POPC   C1B18091   2.840   6.615   8.699
 1197POPC   C2B18092   2.746   6.500   8.263
 1197POPC   C3B18093   2.977   6.558   7.891
 1197POPC   C4B18094   3.155   6.351   7.502
 1198POPC   NC318095  12.825   3.930   9.488
 1198POPC   PO418096  12.490   3.322   9.547
 1198POPC   GL118097  12.705   3.504   9.200
 1198POPC   GL218098  13.081   3.523   9.212
 1198POPC   C1A18099  12.772   3.368   8.796
 1198POPC   D2A18100  12.954   3.246   8.415
 1198POPC   C3A18101  12.716   3.061   8.085
 1198POPC   C4A18102  12.834   3.166   7.676
 1198POPC   C1B18103  13.082   3.759   8.805
 1198POPC   C2B18104  12.811   3.733   8.433
 1198POPC   C3B18105  12.926   3.581   8.019
 1198POPC   C4B18106  12.725   3.665   7.645
 1199POPC   NC318107   6.221  40.519   9.528
 1199POPC   PO418108   6.902  40.817   9.424
 1199POPC   GL118109   6.699  40.911   9.077
 1199POPC   GL218110   6.347  40.880   9.125
 1199POPC   C1A18111   6.572  41.070   8.696
 1199POPC   D2A18112   6.595  40.753   8.417
 1199POPC   C3A18113   6.708  40.874   8.020
 1199POPC   C4A18114   6.623  40.899   7.581
 1199POPC   C1B18115   6.347  40.537   8.850
 1199POPC   C2B18116   6.185  40.428   8.437
 1199POPC   C3B18117   6.337  40.496   8.038
 1199POPC   C4B18118   6.336  40.440   7.630
 1200POPC   NC318119  37.238   2.419   9.400
 1200POPC   PO418120  37.595   2.984   9.645
 1200POPC   GL118121  37.711   2.896   9.210
 1200POPC   GL218122  37.524   3.156   9.065
 1200POPC   C1A18123  38.019   2.703   8.908
 1200POPC   D2A18124  38.080   2.682   8.457
 1200POPC   C3A18125  37.764   2.839   8.157
 1200POPC   C4A18126  37.847   2.696   7.746
 1200POPC   C1B18127  37.681   2.989   8.664
 1200POPC   C2B18128  37.551   2.568   8.539
 1200POPC   C3B18129  37.312   2.400   8.203
 1200POPC   C4B18130  37.309   2.538   7.775
 1201POPC   NC318131  44.371  26.536   9.444
 1201POPC   PO418132  44.551  25.851   9.449
 1201POPC   GL118133  44.606  26.162   9.149
 1201POPC   GL218134  44.938  26.351   9.173
 1201POPC   C1A18135  44.482  25.970   8.770
 1201POPC   D2A18136  44.685  25.830   8.409
 1201POPC   C3A18137  44.491  25.960   8.039
 1201POPC   C4A18138  44.722  25.843   7.704
 1201POPC   C1B18139  44.893  26.261   8.728
 1201POPC   C2B18140  44.721  26.337   8.309
 1201POPC   C3B18141  44.902  26.317   7.874
 1201POPC   C4B18142  44.909  26.226   7.408
 1202POPC   NC318143  18.496  26.726   9.330
 1202POPC   PO418144  17.939  27.042   9.450
 1202POPC   GL118145  18.092  26.914   9.081
 1202POPC   GL218146  18.107  26.536   9.030
 1202POPC   C1A18147  18.252  26.876   8.673
 1202POPC   D2A18148  18.427  26.992   8.319
 1202POPC   C3A18149  18.212  26.970   7.983
 1202POPC   C4A18150  18.341  26.735   7.679
 1202POPC   C1B18151  18.503  26.452   8.736
 1202POPC   C2B18152  18.737  26.551   8.347
 1202POPC   C3B18153  18.379  26.481   8.107
 1202POPC   C4B18154  18.030  26.370   7.854
 1203POPC   NC318155   0.082  24.733   9.519
 1203POPC   PO418156   0.742  24.407   9.533
 1203POPC   GL118157   0.568  24.465   9.104
 1203POPC   GL218158   0.207  24.493   9.083
 1203POPC   C1A18159   0.446  24.565   8.658
 1203POPC   D2A18160   0.314  24.852   8.354
 1203POPC   C3A18161   0.434  24.608   8.028
 1203POPC   C4A18162   0.518  24.180   8.157
 1203POPC   C1B18163   0.042  24.239   8.714
 1203POPC   C2B18164   0.057  24.400   8.304
 1203POPC   C3B18165   0.064  24.257   7.870
 1203POPC   C4B18166   0.076  24.203   7.444
 1204POPC   NC318167  23.633  10.795   9.561
 1204POPC   PO418168  23.689  11.376   9.737
 1204POPC   GL118169  23.647  11.238   9.255
 1204POPC   GL218170  23.501  10.918   9.092
 1204POPC   C1A18171  23.752  11.349   8.821
 1204POPC   D2A18172  23.444  11.527   8.486
 1204POPC   C3A18173  23.509  11.449   8.047
 1204POPC   C4A18174  23.734  11.579   7.665
 1204POPC   C1B18175  23.410  11.006   8.665
 1204POPC   C2B18176  23.744  11.117   8.362
 1204POPC   C3B18177  23.712  10.995   7.949
 1204POPC   C4B18178  23.269  11.009   7.838
 1205POPC   NC318179  40.204  14.990   9.482
 1205POPC   PO418180  39.925  15.599   9.566
 1205POPC   GL118181  40.162  15.421   9.168
 1205POPC   GL218182  40.212  15.072   8.995
 1205POPC   C1A18183  40.084  15.473   8.739
 1205POPC   D2A18184  40.163  15.180   8.425
 1205POPC   C3A18185  40.096  15.412   8.063
 1205POPC   C4A18186  40.060  15.345   7.659
 1205POPC   C1B18187  39.883  14.847   8.732
 1205POPC   C2B18188  39.735  14.834   8.320
 1205POPC   C3B18189  39.984  14.909   7.997
 1205POPC   C4B18190  39.890  14.833   7.614
 1206POPC   NC318191  26.339  43.294   9.456
 1206POPC   PO418192  25.949  42.726   9.671
 1206POPC   GL118193  25.878  42.712   9.209
 1206POPC   GL218194  25.960  43.078   9.144
 1206POPC   C1A18195  25.795  42.761   8.754
 1206POPC   D2A18196  25.571  42.824   8.368
 1206POPC   C3A18197  25.800  42.908   7.999
 1206POPC   C4A18198  26.136  43.074   7.785
 1206POPC   C1B18199  26.184  43.165   8.739
 1206POPC   C2B18200  26.105  43.208   8.280
 1206POPC   C3B18201  25.912  43.510   7.947
 1206POPC   C4B18202  25.836  43.624   7.513
 1207POPC   NC318203  14.271  17.380   9.705
 1207POPC   PO418204  14.532  17.963   9.529
 1207POPC   GL118205  14.236  17.661   9.284
 1207POPC   GL218206  14.323  17.305   9.178
 1207POPC   C1A18207  14.133  17.619   8.842
 1207POPC   D2A18208  14.050  17.687   8.412
 1207POPC   C3A18209  14.173  17.379   8.111
 1207POPC   C4A18210  14.225  17.212   7.694
 1207POPC   C1B18211  14.576  17.334   8.783
 1207POPC   C2B18212  14.660  17.504   8.365
 1207POPC   C3B18213  14.661  17.273   7.988
 1207POPC   C4B18214  14.727  17.131   7.579
 1208POPC   NC318215  29.767  38.759   9.603
 1208POPC   PO418216  30.045  38.169   9.502
 1208POPC   GL118217  29.793  38.432   9.218
 1208POPC   GL218218  29.832  38.185   9.024
 1208POPC   C1A18219  29.630  38.621   8.843
 1208POPC   D2A18220  29.894  38.792   8.505
 1208POPC   C3A18221  29.708  38.757   8.093
 1208POPC   C4A18222  29.768  38.596   7.677
 1208POPC   C1B18223  30.139  38.452   8.826
 1208POPC   C2B18224  30.270  38.459   8.405
 1208POPC   C3B18225  30.106  38.386   8.005
 1208POPC   C4B18226  30.010  38.170   7.581
 1209POPC   NC318227  31.527  27.113   9.598
 1209POPC   PO418228  31.062  26.698   9.464
 1209POPC   GL118229  31.492  26.675   9.292
 1209POPC   GL218230  31.666  26.982   9.143
 1209POPC   C1A18231  31.613  26.535   8.893
 1209POPC   D2A18232  31.452  26.677   8.505
 1209POPC   C3A18233  31.572  26.610   8.072
 1209POPC   C4A18234  31.165  26.646   7.906
 1209POPC   C1B18235  31.601  27.170   8.786
 1209POPC   C2B18236  31.700  27.102   8.378
 1209POPC   C3B18237  31.399  27.100   8.107
 1209POPC   C4B18238  31.485  27.019   7.720
 1210POPC   NC318239  41.100  12.940   9.525
 1210POPC   PO418240  40.412  12.728   9.519
 1210POPC   GL118241  40.724  12.889   9.190
 1210POPC   GL218242  40.894  12.598   9.097
 1210POPC   C1A18243  40.814  13.196   8.814
 1210POPC   D2A18244  40.909  13.196   8.385
 1210POPC   C3A18245  40.735  13.019   8.030
 1210POPC   C4A18246  40.751  13.065   7.623
 1210POPC   C1B18247  40.914  12.730   8.662
 1210POPC   C2B18248  41.180  12.778   8.318
 1210POPC   C3B18249  41.062  12.645   7.953
 1210POPC   C4B18250  40.741  12.571   7.721
 1211POPC   NC318251  37.215   3.397   9.607
 1211POPC   PO418252  37.647   3.967   9.468
 1211POPC   GL118253  37.770   3.658   9.168
 1211POPC   GL218254  37.891   3.386   9.352
 1211POPC   C1A18255  37.670   3.526   8.724
 1211POPC   D2A18256  37.698   3.381   8.324
 1211POPC   C3A18257  37.497   3.612   8.012
 1211POPC   C4A18258  37.281   3.433   7.721
 1211POPC   C1B18259  38.028   3.242   8.951
 1211POPC   C2B18260  38.163   3.169   8.553
 1211POPC   C3B18261  38.126   3.194   8.133
 1211POPC   C4B18262  37.769   3.243   7.818
 1212POPC   NC318263  31.916  15.514   9.513
 1212POPC   PO418264  32.309  16.145   9.572
 1212POPC   GL118265  32.212  15.867   9.285
 1212POPC   GL218266  31.935  16.029   9.239
 1212POPC   C1A18267  32.186  15.814   8.857
 1212POPC   D2A18268  32.270  15.718   8.452
 1212POPC   C3A18269  32.426  16.014   8.197
 1212POPC   C4A18270  32.267  16.009   7.788
 1212POPC   C1B18271  31.902  16.276   8.906
 1212POPC   C2B18272  32.085  16.243   8.518
 1212POPC   C3B18273  31.898  16.074   8.150
 1212POPC   C4B18274  31.800  16.297   7.777
 1213POPC   NC318275  39.363  14.631   9.168
 1213POPC   PO418276  38.988  14.152   9.468
 1213POPC   GL118277  39.145  14.121   9.060
 1213POPC   GL218278  39.505  14.005   9.085
 1213POPC   C1A18279  39.088  14.315   8.639
 1213POPC   D2A18280  38.999  14.177   8.210
 1213POPC   C3A18281  39.208  14.360   7.856
 1213POPC   C4A18282  39.105  14.505   7.440
 1213POPC   C1B18283  39.466  13.981   8.626
 1213POPC   C2B18284  39.529  14.304   8.310
 1213POPC   C3B18285  39.711  14.463   7.937
 1213POPC   C4B18286  39.623  14.415   7.482
 1214POPC   NC318287  42.914  21.167   9.591
 1214POPC   PO418288  43.333  21.625   9.579
 1214POPC   GL118289  43.341  21.591   9.168
 1214POPC   GL218290  43.046  21.431   9.149
 1214POPC   C1A18291  43.378  21.772   8.772
 1214POPC   D2A18292  43.380  21.617   8.321
 1214POPC   C3A18293  43.155  21.812   8.010
 1214POPC   C4A18294  43.187  21.618   7.600
 1214POPC   C1B18295  43.159  21.332   8.713
 1214POPC   C2B18296  42.918  21.440   8.362
 1214POPC   C3B18297  43.012  21.323   7.973
 1214POPC   C4B18298  42.936  21.151   7.597
 1215POPC   NC318299   0.215  34.023   9.438
 1215POPC   PO418300   0.494  34.647   9.526
 1215POPC   GL118301   0.198  34.490   9.216
 1215POPC   GL218302   0.470  34.283   9.092
 1215POPC   C1A18303   0.153  34.491   8.734
 1215POPC   D2A18304   0.263  34.670   8.307
 1215POPC   C3A18305   0.264  34.458   7.885
 1215POPC   C4A18306   0.223  34.648   7.445
 1215POPC   C1B18307   0.666  34.503   8.767
 1215POPC   C2B18308   0.776  34.542   8.367
 1215POPC   C3B18309   0.775  34.441   7.958
 1215POPC   C4B18310   0.689  34.784   7.661
 1216POPC   NC318311  26.744   5.917   9.523
 1216POPC   PO418312  26.069   5.610   9.600
 1216POPC   GL118313  25.801   5.717   9.232
 1216POPC   GL218314  25.990   6.024   9.185
 1216POPC   C1A18315  25.948   5.700   8.791
 1216POPC   D2A18316  25.826   5.751   8.349
 1216POPC   C3A18317  26.117   5.690   7.995
 1216POPC   C4A18318  26.043   5.439   7.629
 1216POPC   C1B18319  25.828   6.207   8.806
 1216POPC   C2B18320  25.946   6.266   8.380
 1216POPC   C3B18321  25.840   6.128   7.966
 1216POPC   C4B18322  25.698   6.274   7.546
 1217POPC   NC318323   8.723  24.348   9.649
 1217POPC   PO418324   9.290  24.783   9.811
 1217POPC   GL118325   8.999  24.739   9.364
 1217POPC   GL218326   8.645  24.648   9.241
 1217POPC   C1A18327   9.026  24.578   8.908
 1217POPC   D2A18328   8.896  24.590   8.445
 1217POPC   C3A18329   9.186  24.659   8.102
 1217POPC   C4A18330   9.296  24.447   7.740
 1217POPC   C1B18331   8.502  24.665   8.802
 1217POPC   C2B18332   8.399  24.444   8.423
 1217POPC   C3B18333   8.506  24.399   7.987
 1217POPC   C4B18334   8.787  24.619   7.750
 1218POPC   NC318335  32.585  22.956   9.383
 1218POPC   PO418336  31.946  22.848   9.509
 1218POPC   GL118337  32.074  22.783   9.114
 1218POPC   GL218338  32.141  23.145   9.101
 1218POPC   C1A18339  32.360  22.782   8.748
 1218POPC   D2A18340  32.572  22.820   8.352
 1218POPC   C3A18341  32.445  22.893   7.927
 1218POPC   C4A18342  32.176  22.568   7.731
 1218POPC   C1B18343  31.930  23.061   8.714
 1218POPC   C2B18344  32.098  23.051   8.290
 1218POPC   C3B18345  31.941  22.982   7.862
 1218POPC   C4B18346  31.865  23.285   7.531
 1219POPC   NC318347   3.673  43.349   9.797
 1219POPC   PO418348   3.361  42.847   9.427
 1219POPC   GL118349   3.495  43.242   9.267
 1219POPC   GL218350   3.851  43.305   9.190
 1219POPC   C1A18351   3.458  43.337   8.825
 1219POPC   D2A18352   3.662  43.448   8.430
 1219POPC   C3A18353   3.348  43.413   8.125
 1219POPC   C4A18354   3.233  43.191   7.775
 1219POPC   C1B18355   3.790  42.932   8.925
 1219POPC   C2B18356   3.601  42.816   8.551
 1219POPC   C3B18357   3.613  42.978   8.137
 1219POPC   C4B18358   3.603  42.798   7.753
 1220POPC   NC318359  39.878  24.777   9.424
 1220POPC   PO418360  39.667  24.048   9.408
 1220POPC   GL118361  39.837  24.207   9.032
 1220POPC   GL218362  40.011  24.486   9.052
 1220POPC   C1A18363  39.842  24.386   8.586
 1220POPC   D2A18364  39.886  24.504   8.172
 1220POPC   C3A18365  39.768  24.196   7.876
 1220POPC   C4A18366  39.968  24.209   7.487
 1220POPC   C1B18367  40.047  24.820   8.771
 1220POPC   C2B18368  40.186  24.871   8.393
 1220POPC   C3B18369  40.354  24.755   8.018
 1220POPC   C4B18370  40.094  24.647   7.703
 1221POPC   NC318371  27.804   6.499   9.922
 1221POPC   PO418372  27.570   6.635   9.286
 1221POPC   GL118373  27.553   6.586   8.908
 1221POPC   GL218374  27.211   6.451   8.910
 1221POPC   C1A18375  27.878   6.741   8.650
 1221POPC   D2A18376  27.858   7.013   8.340
 1221POPC   C3A18377  27.844   6.748   8.054
 1221POPC   C4A18378  27.564   6.822   7.748
 1221POPC   C1B18379  27.431   6.131   8.710
 1221POPC   C2B18380  27.621   6.376   8.410
 1221POPC   C3B18381  27.358   6.576   8.134
 1221POPC   C4B18382  27.314   6.385   7.735
 1222POPC   NC318383  35.800   4.472   9.517
 1222POPC   PO418384  36.388   4.124   9.673
 1222POPC   GL118385  36.174   4.160   9.274
 1222POPC   GL218386  36.201   4.512   9.208
 1222POPC   C1A18387  36.235   4.221   8.797
 1222POPC   D2A18388  36.092   4.265   8.355
 1222POPC   C3A18389  36.247   4.349   7.949
 1222POPC   C4A18390  36.085   4.127   7.610
 1222POPC   C1B18391  35.920   4.704   8.897
 1222POPC   C2B18392  35.984   4.757   8.473
 1222POPC   C3B18393  35.802   4.630   8.125
 1222POPC   C4B18394  35.766   4.598   7.690
 1223POPC   NC318395  20.096  35.752   9.465
 1223POPC   PO418396  19.547  36.183   9.403
 1223POPC   GL118397  19.732  36.266   9.028
 1223POPC   GL218398  20.018  36.129   9.106
 1223POPC   C1A18399  19.591  36.349   8.618
 1223POPC   D2A18400  19.459  36.575   8.259
 1223POPC   C3A18401  19.645  36.256   7.953
 1223POPC   C4A18402  19.578  36.083   7.525
 1223POPC   C1B18403  20.193  36.268   8.739
 1223POPC   C2B18404  20.064  36.156   8.352
 1223POPC   C3B18405  20.273  36.051   8.028
 1223POPC   C4B18406  20.245  36.163   7.638
 1224POPC   NC318407  22.615  35.452   9.827
 1224POPC   PO418408  22.884  36.023   9.579
 1224POPC   GL118409  22.971  35.959   9.161
 1224POPC   GL218410  22.635  36.017   9.044
 1224POPC   C1A18411  23.100  36.098   8.725
 1224POPC   D2A18412  23.326  35.997   8.326
 1224POPC   C3A18413  23.094  36.109   7.941
 1224POPC   C4A18414  22.662  36.222   7.755
 1224POPC   C1B18415  22.800  35.694   8.774
 1224POPC   C2B18416  22.918  35.711   8.412
 1224POPC   C3B18417  23.038  35.606   8.060
 1224POPC   C4B18418  22.822  35.718   7.724
 1225POPC   NC318419  10.188  43.772   9.462
 1225POPC   PO418420  10.731  44.188   9.414
 1225POPC   GL118421  10.638  44.134   9.055
 1225POPC   GL218422  10.301  44.164   9.016
 1225POPC   C1A18423  10.847  44.107   8.671
 1225POPC   D2A18424  10.779  43.841   8.296
 1225POPC   C3A18425  10.847  44.011   7.892
 1225POPC   C4A18426  10.470  44.140   7.663
 1225POPC   C1B18427  10.461  43.736   8.834
 1225POPC   C2B18428  10.364  43.577   8.438
 1225POPC   C3B18429  10.307  43.797   8.045
 1225POPC   C4B18430  10.034  43.857   7.677
 1226POPC   NC318431  38.717  15.047   9.405
 1226POPC   PO418432  38.428  15.606   9.629
 1226POPC   GL118433  38.460  15.453   9.206
 1226POPC   GL218434  38.212  15.185   9.250
 1226POPC   C1A18435  38.594  15.299   8.810
 1226POPC   D2A18436  38.609  15.097   8.423
 1226POPC   C3A18437  38.712  15.326   8.056
 1226POPC   C4A18438  38.555  15.328   7.676
 1226POPC   C1B18439  38.161  15.031   8.829
 1226POPC   C2B18440  38.124  15.258   8.423
 1226POPC   C3B18441  38.243  15.097   8.008
 1226POPC   C4B18442  38.254  14.927   7.570
 1227POPC   NC318443  37.805  19.484   9.662
 1227POPC   PO418444  37.523  20.077   9.629
 1227POPC   GL118445  37.702  19.896   9.250
 1227POPC   GL218446  37.389  19.943   9.087
 1227POPC   C1A18447  37.849  19.937   8.786
 1227POPC   D2A18448  37.850  20.138   8.351
 1227POPC   C3A18449  37.838  19.876   7.962
 1227POPC   C4A18450  37.578  19.569   7.717
 1227POPC   C1B18451  37.333  19.719   8.721
 1227POPC   C2B18452  37.529  19.717   8.332
 1227POPC   C3B18453  37.324  19.909   7.992
 1227POPC   C4B18454  36.914  19.935   7.870
 1228POPC   NC318455   6.769  37.999   9.504
 1228POPC   PO418456   6.126  38.092   9.575
 1228POPC   GL118457   6.381  37.710   9.325
 1228POPC   GL218458   6.159  37.441   9.208
 1228POPC   C1A18459   6.695  37.627   8.961
 1228POPC   D2A18460   6.743  37.917   8.584
 1228POPC   C3A18461   6.713  37.798   8.134
 1228POPC   C4A18462   6.831  37.916   7.720
 1228POPC   C1B18463   6.318  37.339   8.826
 1228POPC   C2B18464   6.527  37.440   8.472
 1228POPC   C3B18465   6.537  37.286   8.073
 1228POPC   C4B18466   6.663  37.450   7.720
 1229POPC   NC318467  43.485  26.183   9.585
 1229POPC   PO418468  42.827  25.845   9.546
 1229POPC   GL118469  42.936  25.837   9.162
 1229POPC   GL218470  43.258  25.915   9.208
 1229POPC   C1A18471  42.858  26.023   8.774
 1229POPC   D2A18472  42.632  25.911   8.403
 1229POPC   C3A18473  42.769  26.041   8.024
 1229POPC   C4A18474  42.965  26.000   7.636
 1229POPC   C1B18475  43.376  26.135   8.838
 1229POPC   C2B18476  43.155  26.318   8.476
 1229POPC   C3B18477  43.267  26.194   8.057
 1229POPC   C4B18478  43.310  26.376   7.675
 1230POPC   NC318479  34.024   6.329   9.819
 1230POPC   PO418480  33.557   6.810   9.594
 1230POPC   GL118481  33.612   6.780   9.163
 1230POPC   GL218482  33.900   6.574   9.215
 1230POPC   C1A18483  33.534   6.462   8.851
 1230POPC   D2A18484  33.615   6.371   8.437
 1230POPC   C3A18485  33.871   6.567   8.134
 1230POPC   C4A18486  33.787   6.397   7.764
 1230POPC   C1B18487  34.004   6.618   8.768
 1230POPC   C2B18488  34.182   6.876   8.425
 1230POPC   C3B18489  34.058   7.061   8.027
 1230POPC   C4B18490  33.739   6.901   7.733
 1231POPC   NC318491  15.351   7.775   9.458
 1231POPC   PO418492  15.579   7.143   9.473
 1231POPC   GL118493  15.178   7.340   9.214
 1231POPC   GL218494  15.219   7.593   9.016
 1231POPC   C1A18495  15.031   7.187   8.780
 1231POPC   D2A18496  15.203   6.937   8.408
 1231POPC   C3A18497  15.218   7.100   7.938
 1231POPC   C4A18498  15.018   7.473   7.694
 1231POPC   C1B18499  15.402   7.545   8.635
 1231POPC   C2B18500  15.485   7.418   8.234
 1231POPC   C3B18501  15.480   7.620   7.848
 1231POPC   C4B18502  15.463   7.477   7.422
 1232POPC   NC318503  38.826  31.960   9.390
 1232POPC   PO418504  39.444  32.211   9.430
 1232POPC   GL118505  39.152  32.303   9.112
 1232POPC   GL218506  38.826  32.475   9.197
 1232POPC   C1A18507  39.327  32.420   8.711
 1232POPC   D2A18508  39.434  32.200   8.342
 1232POPC   C3A18509  39.422  32.342   7.905
 1232POPC   C4A18510  39.379  31.956   7.730
 1232POPC   C1B18511  38.761  32.336   8.776
 1232POPC   C2B18512  38.942  32.437   8.385
 1232POPC   C3B18513  38.962  32.207   8.060
 1232POPC   C4B18514  38.893  32.104   7.703
 1233POPC   NC318515  13.804   2.509   9.514
 1233POPC   PO418516  13.364   3.019   9.505
 1233POPC   GL118517  13.450   2.716   9.203
 1233POPC   GL218518  13.794   2.876   9.178
 1233POPC   C1A18519  13.531   2.556   8.794
 1233POPC   D2A18520  13.762   2.548   8.410
 1233POPC   C3A18521  13.620   2.732   8.103
 1233POPC   C4A18522  13.438   2.605   7.722
 1233POPC   C1B18523  13.628   3.059   8.847
 1233POPC   C2B18524  13.771   3.102   8.475
 1233POPC   C3B18525  13.657   3.273   8.122
 1233POPC   C4B18526  13.687   3.087   7.749
 1234POPC   NC318527   7.963   8.230   9.638
 1234POPC   PO418528   7.307   8.354   9.609
 1234POPC   GL118529   7.435   8.128   9.223
 1234POPC   GL218530   7.706   7.907   9.270
 1234POPC   C1A18531   7.379   8.252   8.786
 1234POPC   D2A18532   7.096   8.432   8.473
 1234POPC   C3A18533   7.260   8.239   8.106
 1234POPC   C4A18534   7.420   8.321   7.711
 1234POPC   C1B18535   7.792   7.938   8.803
 1234POPC   C2B18536   7.672   8.069   8.359
 1234POPC   C3B18537   7.692   7.927   7.896
 1234POPC   C4B18538   7.577   7.940   7.419
 1235POPC   NC318539  32.727  22.159   9.594
 1235POPC   PO418540  32.073  21.989   9.514
 1235POPC   GL118541  32.162  22.252   9.181
 1235POPC   GL218542  32.448  22.452   9.256
 1235POPC   C1A18543  32.198  22.130   8.751
 1235POPC   D2A18544  32.238  22.404   8.403
 1235POPC   C3A18545  32.194  22.131   8.083
 1235POPC   C4A18546  31.962  22.055   7.731
 1235POPC   C1B18547  32.634  22.355   8.867
 1235POPC   C2B18548  32.732  22.338   8.410
 1235POPC   C3B18549  32.598  22.415   7.984
 1235POPC   C4B18550  32.440  22.146   7.607
 1236POPC   NC318551  37.458  23.626   9.698
 1236POPC   PO418552  38.048  23.835   9.491
 1236POPC   GL118553  37.916  23.588   9.127
 1236POPC   GL218554  37.569  23.541   9.182
 1236POPC   C1A18555  37.898  23.481   8.674
 1236POPC   D2A18556  37.938  23.857   8.396
 1236POPC   C3A18557  38.074  23.768   8.000
 1236POPC   C4A18558  37.980  23.321   7.990
 1236POPC   C1B18559  37.564  23.818   8.798
 1236POPC   C2B18560  37.426  23.919   8.424
 1236POPC   C3B18561  37.570  24.018   8.033
 1236POPC   C4B18562  37.626  23.687   7.782
 1237POPC   NC318563  38.047  15.671   9.390
 1237POPC   PO418564  38.325  16.327   9.463
 1237POPC   GL118565  38.369  16.004   9.178
 1237POPC   GL218566  38.035  16.092   9.125
 1237POPC   C1A18567  38.562  15.826   8.815
 1237POPC   D2A18568  38.499  15.626   8.419
 1237POPC   C3A18569  38.696  15.856   8.104
 1237POPC   C4A18570  38.687  15.826   7.684
 1237POPC   C1B18571  38.185  16.284   8.769
 1237POPC   C2B18572  38.336  16.121   8.403
 1237POPC   C3B18573  38.248  16.120   7.980
 1237POPC   C4B18574  38.280  16.149   7.553
 1238POPC   NC318575  35.838  23.850   9.416
 1238POPC   PO418576  36.361  23.460   9.504
 1238POPC   GL118577  36.216  23.621   9.133
 1238POPC   GL218578  36.377  23.909   9.133
 1238POPC   C1A18579  36.134  23.548   8.678
 1238POPC   D2A18580  36.052  23.754   8.340
 1238POPC   C3A18581  36.165  23.574   7.992
 1238POPC   C4A18582  35.985  23.733   7.614
 1238POPC   C1B18583  36.230  24.051   8.723
 1238POPC   C2B18584  36.389  24.236   8.341
 1238POPC   C3B18585  36.195  24.090   7.927
 1238POPC   C4B18586  36.216  24.193   7.482
 1239POPC   NC318587   8.268   9.179   9.713
 1239POPC   PO418588   8.070   8.640   9.451
 1239POPC   GL118589   8.274   8.940   9.151
 1239POPC   GL218590   8.244   9.291   9.185
 1239POPC   C1A18591   8.489   8.954   8.758
 1239POPC   D2A18592   8.545   8.693   8.400
 1239POPC   C3A18593   8.401   8.878   8.029
 1239POPC   C4A18594   8.250   8.691   7.639
 1239POPC   C1B18595   8.042   9.226   8.775
 1239POPC   C2B18596   8.019   8.944   8.440
 1239POPC   C3B18597   7.887   8.878   8.047
 1239POPC   C4B18598   7.994   9.127   7.710
 1240POPC   NC318599   6.167   1.562   9.408
 1240POPC   PO418600   6.076   0.870   9.626
 1240POPC   GL118601   5.968   1.096   9.214
 1240POPC   GL218602   5.650   1.282   9.192
 1240POPC   C1A18603   5.932   1.092   8.743
 1240POPC   D2A18604   6.212   1.158   8.402
 1240POPC   C3A18605   6.204   0.990   7.990
 1240POPC   C4A18606   6.107   1.143   7.592
 1240POPC   C1B18607   5.750   1.565   8.823
 1240POPC   C2B18608   5.835   1.514   8.410
 1240POPC   C3B18609   5.941   1.436   8.012
 1240POPC   C4B18610   5.586   1.575   7.866
 1241POPC   NC318611  29.583  21.926   9.415
 1241POPC   PO418612  30.008  22.314   9.373
 1241POPC   GL118613  29.887  22.073   9.007
 1241POPC   GL218614  29.539  21.947   8.921
 1241POPC   C1A18615  29.999  22.157   8.583
 1241POPC   D2A18616  30.281  22.393   8.304
 1241POPC   C3A18617  30.167  22.275   7.900
 1241POPC   C4A18618  29.761  22.385   7.748
 1241POPC   C1B18619  29.629  21.588   8.697
 1241POPC   C2B18620  29.822  21.713   8.385
 1241POPC   C3B18621  29.744  22.041   8.137
 1241POPC   C4B18622  29.770  21.887   7.765
 1242POPC   NC318623   6.391  33.965   9.452
 1242POPC   PO418624   6.623  33.360   9.515
 1242POPC   GL118625   6.697  33.646   9.164
 1242POPC   GL218626   6.874  33.987   9.254
 1242POPC   C1A18627   6.421  33.751   8.832
 1242POPC   D2A18628   6.244  33.750   8.454
 1242POPC   C3A18629   6.442  33.452   8.184
 1242POPC   C4A18630   6.687  33.529   7.779
 1242POPC   C1B18631   6.909  33.947   8.802
 1242POPC   C2B18632   6.785  33.769   8.424
 1242POPC   C3B18633   6.553  33.928   8.080
 1242POPC   C4B18634   6.492  34.019   7.695
 1243POPC   NC318635  10.991   1.879   9.424
 1243POPC   PO418636  11.539   2.308   9.330
 1243POPC   GL118637  11.443   1.892   9.144
 1243POPC   GL218638  11.665   1.627   9.242
 1243POPC   C1A18639  11.225   1.858   8.751
 1243POPC   D2A18640  11.118   2.208   8.450
 1243POPC   C3A18641  11.318   2.142   8.055
 1243POPC   C4A18642  11.160   2.194   7.657
 1243POPC   C1B18643  11.785   1.684   8.811
 1243POPC   C2B18644  11.585   1.655   8.421
 1243POPC   C3B18645  11.667   1.757   8.012
 1243POPC   C4B18646  11.440   1.754   7.695
 1244POPC   NC318647   8.477  38.372   9.683
 1244POPC   PO418648   7.860  38.196   9.501
 1244POPC   GL118649   8.081  38.475   9.209
 1244POPC   GL218650   8.472  38.484   9.199
 1244POPC   C1A18651   8.038  38.265   8.818
 1244POPC   D2A18652   8.096  38.426   8.435
 1244POPC   C3A18653   8.006  38.164   8.096
 1244POPC   C4A18654   7.893  38.334   7.706
 1244POPC   C1B18655   8.389  38.641   8.812
 1244POPC   C2B18656   8.566  38.640   8.425
 1244POPC   C3B18657   8.423  38.484   8.049
 1244POPC   C4B18658   8.740  38.463   7.791
 1245POPC   NC318659  35.095  26.865   9.471
 1245POPC   PO418660  35.760  26.607   9.396
 1245POPC   GL118661  35.521  26.887   9.153
 1245POPC   GL218662  35.273  26.656   9.040
 1245POPC   C1A18663  35.341  27.087   8.774
 1245POPC   D2A18664  35.289  26.846   8.407
 1245POPC   C3A18665  35.341  27.077   8.051
 1245POPC   C4A18666  35.420  27.043   7.639
 1245POPC   C1B18667  35.046  26.456   8.718
 1245POPC   C2B18668  34.964  26.440   8.300
 1245POPC   C3B18669  35.200  26.579   7.945
 1245POPC   C4B18670  34.956  26.621   7.586
 1246POPC   NC318671   8.045  21.013   9.548
 1246POPC   PO418672   8.310  20.406   9.439
 1246POPC   GL118673   8.382  20.745   9.144
 1246POPC   GL218674   8.027  20.754   9.117
 1246POPC   C1A18675   8.381  20.734   8.678
 1246POPC   D2A18676   8.350  20.308   8.462
 1246POPC   C3A18677   8.428  20.367   8.019
 1246POPC   C4A18678   8.275  20.672   7.780
 1246POPC   C1B18679   7.913  20.532   8.746
 1246POPC   C2B18680   7.999  20.690   8.332
 1246POPC   C3B18681   7.793  20.711   7.951
 1246POPC   C4B18682   7.833  20.816   7.542
 1247POPC   NC318683   6.006  17.998   9.560
 1247POPC   PO418684   5.860  18.609   9.489
 1247POPC   GL118685   6.129  18.360   9.191
 1247POPC   GL218686   5.831  18.218   9.098
 1247POPC   C1A18687   6.252  18.108   8.808
 1247POPC   D2A18688   6.156  17.959   8.386
 1247POPC   C3A18689   5.945  18.203   8.089
 1247POPC   C4A18690   5.807  18.200   7.646
 1247POPC   C1B18691   5.574  18.402   8.762
 1247POPC   C2B18692   5.683  18.609   8.378
 1247POPC   C3B18693   5.583  18.527   7.968
 1247POPC   C4B18694   5.358  18.447   7.619
 1248POPC   NC318695  38.756   7.973   9.461
 1248POPC   PO418696  38.095   8.149   9.531
 1248POPC   GL118697  38.368   8.214   9.217
 1248POPC   GL218698  38.333   7.876   9.118
 1248POPC   C1A18699  38.416   8.246   8.780
 1248POPC   D2A18700  38.507   8.429   8.417
 1248POPC   C3A18701  38.643   8.153   8.086
 1248POPC   C4A18702  38.810   8.172   7.646
 1248POPC   C1B18703  38.033   7.913   8.764
 1248POPC   C2B18704  38.113   8.092   8.355
 1248POPC   C3B18705  38.066   8.003   7.938
 1248POPC   C4B18706  38.312   8.246   7.689
 1249POPC   NC318707   9.529  28.958   9.524
 1249POPC   PO418708   9.949  29.428   9.563
 1249POPC   GL118709   9.852  29.279   9.205
 1249POPC   GL218710   9.543  29.368   9.121
 1249POPC   C1A18711   9.958  29.103   8.835
 1249POPC   D2A18712   9.734  29.065   8.449
 1249POPC   C3A18713   9.679  28.981   8.022
 1249POPC   C4A18714   9.973  28.881   7.712
 1249POPC   C1B18715   9.651  29.503   8.731
 1249POPC   C2B18716   9.479  29.494   8.315
 1249POPC   C3B18717   9.355  29.368   7.906
 1249POPC   C4B18718   9.515  29.523   7.482
 1250POPC   NC318719   5.025  33.333   9.644
 1250POPC   PO418720   4.888  32.676   9.641
 1250POPC   GL118721   5.060  32.745   9.219
 1250POPC   GL218722   4.740  32.634   9.104
 1250POPC   C1A18723   5.331  32.855   8.827
 1250POPC   D2A18724   5.532  32.785   8.387
 1250POPC   C3A18725   5.295  32.994   8.009
 1250POPC   C4A18726   4.943  33.297   7.880
 1250POPC   C1B18727   4.814  32.843   8.750
 1250POPC   C2B18728   4.980  32.704   8.382
 1250POPC   C3B18729   4.806  32.835   8.017
 1250POPC   C4B18730   4.983  32.792   7.637
 1251POPC   NC318731  11.377  41.361   9.486
 1251POPC   PO418732  11.210  41.995   9.331
 1251POPC   GL118733  11.207  41.629   9.084
 1251POPC   GL218734  11.543  41.648   9.117
 1251POPC   C1A18735  11.031  41.439   8.728
 1251POPC   D2A18736  10.921  41.667   8.359
 1251POPC   C3A18737  11.127  41.558   7.986
 1251POPC   C4A18738  11.217  41.692   7.589
 1251POPC   C1B18739  11.587  41.813   8.755
 1251POPC   C2B18740  11.475  41.709   8.361
 1251POPC   C3B18741  11.743  41.636   8.025
 1251POPC   C4B18742  11.729  41.627   7.602
 1252POPC   NC318743  14.455  40.522   9.693
 1252POPC   PO418744  14.537  41.100   9.404
 1252POPC   GL118745  14.591  40.723   9.206
 1252POPC   GL218746  14.249  40.672   9.105
 1252POPC   C1A18747  14.653  40.737   8.761
 1252POPC   D2A18748  14.412  40.899   8.398
 1252POPC   C3A18749  14.469  40.757   8.002
 1252POPC   C4A18750  14.703  40.895   7.684
 1252POPC   C1B18751  14.193  40.532   8.678
 1252POPC   C2B18752  13.971  40.663   8.296
 1252POPC   C3B18753  14.041  40.459   7.909
 1252POPC   C4B18754  14.448  40.255   7.892
 1253POPC   NC318755  10.948  35.920   9.625
 1253POPC   PO418756  10.498  35.462   9.484
 1253POPC   GL118757  10.478  35.521   9.034
 1253POPC   GL218758  10.106  35.563   8.996
 1253POPC   C1A18759  10.725  35.485   8.606
 1253POPC   D2A18760  10.604  35.144   8.284
 1253POPC   C3A18761  10.462  35.286   7.881
 1253POPC   C4A18762  10.545  35.726   7.678
 1253POPC   C1B18763  10.232  35.429   8.588
 1253POPC   C2B18764  10.389  35.645   8.223
 1253POPC   C3B18765  10.085  35.647   7.866
 1253POPC   C4B18766  10.080  35.348   7.542
 1254POPC   NC318767  24.815  30.554   9.654
 1254POPC   PO418768  24.331  31.083   9.554
 1254POPC   GL118769  24.521  30.823   9.186
 1254POPC   GL218770  24.682  30.528   9.182
 1254POPC   C1A18771  24.358  30.568   8.798
 1254POPC   D2A18772  24.429  30.394   8.391
 1254POPC   C3A18773  24.213  30.646   8.091
 1254POPC   C4A18774  24.344  30.793   7.691
 1254POPC   C1B18775  24.822  30.314   8.848
 1254POPC   C2B18776  24.966  30.362   8.453
 1254POPC   C3B18777  24.802  30.549   8.086
 1254POPC   C4B18778  24.846  30.537   7.656
 1255POPC   NC318779  41.045  44.755   9.619
 1255POPC   PO418780  40.575  44.331   9.520
 1255POPC   GL118781  40.787  44.584   9.171
 1255POPC   GL218782  41.146  44.537   9.166
 1255POPC   C1A18783  40.869  44.733   8.727
 1255POPC   D2A18784  40.551   0.041   8.528
 1255POPC   C3A18785  40.578   0.069   8.114
 1255POPC   C4A18786  40.918  44.993   7.849
 1255POPC   C1B18787  41.358  44.403   8.800
 1255POPC   C2B18788  41.161  44.333   8.373
 1255POPC   C3B18789  41.050  44.456   7.917
 1255POPC   C4B18790  41.134  44.319   7.460
 1256POPC   NC318791  42.599  14.699   9.601
 1256POPC   PO418792  42.241  15.315   9.669
 1256POPC   GL118793  42.261  15.151   9.226
 1256POPC   GL218794  42.604  14.985   9.172
 1256POPC   C1A18795  42.255  15.310   8.785
 1256POPC   D2A18796  42.026  15.398   8.405
 1256POPC   C3A18797  42.252  15.340   8.041
 1256POPC   C4A18798  42.232  15.021   7.751
 1256POPC   C1B18799  42.405  14.835   8.811
 1256POPC   C2B18800  42.412  14.933   8.379
 1256POPC   C3B18801  42.656  14.882   8.011
 1256POPC   C4B18802  42.592  14.551   7.699
 1257POPC   NC318803   1.908   0.071   9.471
 1257POPC   PO418804   2.336   0.680   9.674
 1257POPC   GL118805   2.091   0.506   9.291
 1257POPC   GL218806   2.368   0.503   9.159
 1257POPC   C1A18807   2.047   0.302   8.825
 1257POPC   D2A18808   2.232   0.075   8.458
 1257POPC   C3A18809   2.141   0.296   8.081
 1257POPC   C4A18810   1.996   0.353   7.712
 1257POPC   C1B18811   2.252   0.768   8.774
 1257POPC   C2B18812   2.004   0.695   8.380
 1257POPC   C3B18813   2.022   0.818   7.926
 1257POPC   C4B18814   2.234   0.763   7.511
 1258POPC   NC318815  31.279   4.329   9.835
 1258POPC   PO418816  31.660   4.453   9.280
 1258POPC   GL118817  31.671   4.125   8.998
 1258POPC   GL218818  31.408   4.216   8.831
 1258POPC   C1A18819  31.835   3.925   8.666
 1258POPC   D2A18820  31.732   4.177   8.322
 1258POPC   C3A18821  31.955   3.978   8.045
 1258POPC   C4A18822  31.949   4.015   7.640
 1258POPC   C1B18823  31.425   4.543   8.552
 1258POPC   C2B18824  31.287   4.791   8.231
 1258POPC   C3B18825  31.244   4.506   7.934
 1258POPC   C4B18826  31.578   4.307   7.809
 1259POPC   NC318827   8.617  15.946   9.351
 1259POPC   PO418828   9.169  16.345   9.517
 1259POPC   GL118829   9.047  16.102   9.141
 1259POPC   GL218830   9.200  15.813   9.246
 1259POPC   C1A18831   8.794  16.111   8.734
 1259POPC   D2A18832   8.874  16.246   8.313
 1259POPC   C3A18833   8.774  15.950   8.014
 1259POPC   C4A18834   9.108  15.816   7.827
 1259POPC   C1B18835   9.364  15.760   8.825
 1259POPC   C2B18836   9.216  15.532   8.446
 1259POPC   C3B18837   9.357  15.394   8.038
 1259POPC   C4B18838   9.570  15.606   7.740
 1260POPC   NC318839  31.776   3.276   9.452
 1260POPC   PO418840  32.292   3.726   9.375
 1260POPC   GL118841  32.438   3.605   9.030
 1260POPC   GL218842  32.365   3.235   9.026
 1260POPC   C1A18843  32.292   3.584   8.664
 1260POPC   D2A18844  32.068   3.572   8.356
 1260POPC   C3A18845  32.344   3.475   8.077
 1260POPC   C4A18846  32.319   3.682   7.771
 1260POPC   C1B18847  31.949   3.213   8.796
 1260POPC   C2B18848  31.765   3.168   8.365
 1260POPC   C3B18849  31.893   3.325   7.929
 1260POPC   C4B18850  32.272   3.181   7.644
 1261POPC   NC318851   8.560  44.056   9.456
 1261POPC   PO418852   8.085  43.596   9.495
 1261POPC   GL118853   8.253  43.803   9.136
 1261POPC   GL218854   8.018  44.034   9.198
 1261POPC   C1A18855   8.232  44.032   8.712
 1261POPC   D2A18856   8.472  44.183   8.347
 1261POPC   C3A18857   8.298  44.068   7.969
 1261POPC   C4A18858   8.516  43.724   7.813
 1261POPC   C1B18859   7.787  43.831   8.832
 1261POPC   C2B18860   7.911  43.629   8.473
 1261POPC   C3B18861   7.853  43.494   8.070
 1261POPC   C4B18862   8.005  43.711   7.723
 1262POPC   NC318863  26.037  41.410   9.632
 1262POPC   PO418864  26.268  41.957   9.837
 1262POPC   GL118865  26.136  41.716   9.261
 1262POPC   GL218866  25.892  41.452   9.149
 1262POPC   C1A18867  26.242  41.680   8.816
 1262POPC   D2A18868  26.161  41.933   8.439
 1262POPC   C3A18869  26.280  41.724   8.015
 1262POPC   C4A18870  26.152  41.487   7.642
 1262POPC   C1B18871  25.770  41.546   8.713
 1262POPC   C2B18872  25.912  41.503   8.307
 1262POPC   C3B18873  25.725  41.479   7.924
 1262POPC   C4B18874  25.666  41.565   7.502
 1263POPC   NC318875  33.503   1.329   9.499
 1263POPC   PO418876  34.125   1.220   9.451
 1263POPC   GL118877  33.927   1.395   9.102
 1263POPC   GL218878  33.610   1.603   9.112
 1263POPC   C1A18879  34.034   1.230   8.692
 1263POPC   D2A18880  33.946   0.979   8.334
 1263POPC   C3A18881  33.786   1.245   8.011
 1263POPC   C4A18882  34.000   1.381   7.617
 1263POPC   C1B18883  33.498   1.363   8.793
 1263POPC   C2B18884  33.671   1.499   8.429
 1263POPC   C3B18885  33.468   1.690   8.079
 1263POPC   C4B18886  33.499   1.469   7.681
 1264POPC   NC318887  18.579  25.016   9.439
 1264POPC   PO418888  19.285  24.935   9.436
 1264POPC   GL118889  19.080  25.202   9.153
 1264POPC   GL218890  18.872  25.485   9.251
 1264POPC   C1A18891  18.772  25.152   8.824
 1264POPC   D2A18892  18.608  25.158   8.407
 1264POPC   C3A18893  18.863  25.163   8.022
 1264POPC   C4A18894  18.972  24.908   7.649
 1264POPC   C1B18895  19.039  25.597   8.829
 1264POPC   C2B18896  18.856  25.634   8.398
 1264POPC   C3B18897  18.943  25.672   7.963
 1264POPC   C4B18898  19.190  25.423   7.717
 1265POPC   NC318899  41.819  26.515   9.490
 1265POPC   PO418900  41.399  26.990   9.545
 1265POPC   GL118901  41.562  26.867   9.162
 1265POPC   GL218902  41.851  27.017   9.207
 1265POPC   C1A18903  41.438  26.810   8.740
 1265POPC   D2A18904  41.599  26.673   8.373
 1265POPC   C3A18905  41.472  26.861   8.009
 1265POPC   C4A18906  41.674  26.705   7.617
 1265POPC   C1B18907  41.927  27.047   8.785
 1265POPC   C2B18908  41.803  27.153   8.392
 1265POPC   C3B18909  41.921  27.071   7.998
 1265POPC   C4B18910  41.790  27.185   7.592
 1266POPC   NC318911  15.567  38.576   9.513
 1266POPC   PO418912  14.896  38.574   9.573
 1266POPC   GL118913  15.042  38.454   9.185
 1266POPC   GL218914  15.265  38.181   9.158
 1266POPC   C1A18915  15.054  38.459   8.747
 1266POPC   D2A18916  15.122  38.163   8.484
 1266POPC   C3A18917  15.009  38.381   8.145
 1266POPC   C4A18918  15.073  38.567   7.739
 1266POPC   C1B18919  14.840  38.040   8.943
 1266POPC   C2B18920  14.699  37.916   8.525
 1266POPC   C3B18921  14.912  37.829   8.132
 1266POPC   C4B18922  14.997  38.070   7.749
 1267POPC   NC318923  16.616  35.687   9.465
 1267POPC   PO418924  16.675  34.988   9.422
 1267POPC   GL118925  16.620  35.254   9.040
 1267POPC   GL218926  16.809  35.530   9.026
 1267POPC   C1A18927  16.734  35.310   8.594
 1267POPC   D2A18928  16.908  35.386   8.202
 1267POPC   C3A18929  16.800  35.117   7.900
 1267POPC   C4A18930  16.639  35.132   7.470
 1267POPC   C1B18931  16.451  35.706   8.829
 1267POPC   C2B18932  16.323  35.625   8.420
 1267POPC   C3B18933  16.518  35.731   8.078
 1267POPC   C4B18934  16.687  35.599   7.715
 1268POPC   NC318935   7.949  34.178   9.447
 1268POPC   PO418936   7.601  34.839   9.436
 1268POPC   GL118937   7.549  34.679   9.035
 1268POPC   GL218938   7.625  34.351   9.067
 1268POPC   C1A18939   7.350  34.558   8.641
 1268POPC   D2A18940   7.090  34.606   8.272
 1268POPC   C3A18941   7.329  34.750   7.943
 1268POPC   C4A18942   7.296  34.658   7.514
 1268POPC   C1B18943   7.818  34.349   8.704
 1268POPC   C2B18944   7.696  34.237   8.299
 1268POPC   C3B18945   7.486  34.248   7.891
 1268POPC   C4B18946   7.507  34.212   7.437
 1269POPC   NC318947   9.842   2.057  10.080
 1269POPC   PO418948   9.655   1.817   9.441
 1269POPC   GL118949   9.793   1.777   9.038
 1269POPC   GL218950   9.848   2.115   9.007
 1269POPC   C1A18951   9.698   1.832   8.598
 1269POPC   D2A18952   9.730   1.839   8.146
 1269POPC   C3A18953   9.487   1.930   7.798
 1269POPC   C4A18954   9.647   1.752   7.457
 1269POPC   C1B18955   9.683   2.343   8.661
 1269POPC   C2B18956   9.896   2.293   8.287
 1269POPC   C3B18957   9.860   2.263   7.846
 1269POPC   C4B18958   9.637   2.258   7.419
 1270POPC   NC318959  43.068  41.001   9.491
 1270POPC   PO418960  43.140  40.371   9.792
 1270POPC   GL118961  43.052  40.437   9.314
 1270POPC   GL218962  42.912  40.696   9.122
 1270POPC   C1A18963  43.209  40.373   8.855
 1270POPC   D2A18964  43.073  40.257   8.407
 1270POPC   C3A18965  43.268  40.441   8.033
 1270POPC   C4A18966  43.642  40.423   7.746
 1270POPC   C1B18967  42.923  41.090   8.818
 1270POPC   C2B18968  42.801  41.242   8.381
 1270POPC   C3B18969  42.721  41.112   7.957
 1270POPC   C4B18970  42.864  40.833   7.593
 1271POPC   NC318971  19.102  28.590   9.474
 1271POPC   PO418972  18.641  28.102   9.324
 1271POPC   GL118973  18.874  28.284   9.002
 1271POPC   GL218974  19.209  28.439   9.002
 1271POPC   C1A18975  18.925  28.159   8.576
 1271POPC   D2A18976  19.277  28.036   8.314
 1271POPC   C3A18977  19.210  28.176   7.903
 1271POPC   C4A18978  19.140  27.992   7.518
 1271POPC   C1B18979  18.961  28.671   8.670
 1271POPC   C2B18980  18.970  28.557   8.236
 1271POPC   C3B18981  18.869  28.684   7.842
 1271POPC   C4B18982  19.109  28.523   7.522
 1272POPC   NC318983   1.720  16.882   9.559
 1272POPC   PO418984   2.385  17.118   9.569
 1272POPC   GL118985   2.232  16.947   9.166
 1272POPC   GL218986   1.882  16.782   9.084
 1272POPC   C1A18987   2.162  16.966   8.714
 1272POPC   D2A18988   1.819  17.144   8.482
 1272POPC   C3A18989   1.794  16.936   8.064
 1272POPC   C4A18990   2.206  16.765   7.917
 1272POPC   C1B18991   1.940  16.491   8.766
 1272POPC   C2B18992   2.029  16.574   8.361
 1272POPC   C3B18993   1.918  16.361   8.035
 1272POPC   C4B18994   1.831  16.398   7.664
 1273POPC   NC318995  44.821  37.163   9.636
 1273POPC   PO418996  44.451  36.623   9.500
 1273POPC   GL118997  44.696  36.797   9.184
 1273POPC   GL218998  44.634  37.146   9.161
 1273POPC   C1A18999  44.957  36.757   8.806
 1273POPC   D2A19000  44.851  36.594   8.386
 1273POPC   C3A19001   0.010  36.710   7.953
 1273POPC   C4A19002   0.043  36.961   7.523
 1273POPC   C1B19003  44.573  37.082   8.721
 1273POPC   C2B19004  44.744  37.100   8.311
 1273POPC   C3B19005  44.648  37.066   7.868
 1273POPC   C4B19006  44.532  37.046   7.446
 1274POPC   NC319007  44.036  36.815   9.512
 1274POPC   PO419008  43.583  37.192   9.285
 1274POPC   GL119009  43.829  36.885   9.006
 1274POPC   GL219010  44.197  36.893   9.040
 1274POPC   C1A19011  43.685  36.645   8.605
 1274POPC   D2A19012  43.908  36.647   8.181
 1274POPC   C3A19013  43.718  36.736   7.803
 1274POPC   C4A19014  43.468  36.422   7.655
 1274POPC   C1B19015  44.149  36.838   8.607
 1274POPC   C2B19016  44.258  37.001   8.206
 1274POPC   C3B19017  44.069  37.144   7.821
 1274POPC   C4B19018  44.029  36.993   7.366
 1275POPC   NC319019  40.037  23.779   9.497
 1275POPC   PO419020  39.501  23.261   9.503
 1275POPC   GL119021  39.715  23.493   9.152
 1275POPC   GL219022  40.065  23.437   9.091
 1275POPC   C1A19023  39.791  23.767   8.767
 1275POPC   D2A19024  40.008  23.937   8.400
 1275POPC   C3A19025  40.007  23.708   8.076
 1275POPC   C4A19026  40.010  23.737   7.677
 1275POPC   C1B19027  40.283  23.591   8.705
 1275POPC   C2B19028  40.526  23.453   8.326
 1275POPC   C3B19029  40.485  23.663   7.919
 1275POPC   C4B19030  40.404  23.478   7.506
 1276POPC   NC319031  14.691   2.668   9.529
 1276POPC   PO419032  14.114   3.129   9.505
 1276POPC   GL119033  14.327   2.867   9.222
 1276POPC   GL219034  14.205   2.524   9.192
 1276POPC   C1A19035  14.569   2.776   8.849
 1276POPC   D2A19036  14.739   2.704   8.423
 1276POPC   C3A19037  14.650   2.961   8.088
 1276POPC   C4A19038  14.462   2.711   7.815
 1276POPC   C1B19039  14.063   2.652   8.807
 1276POPC   C2B19040  14.266   2.511   8.455
 1276POPC   C3B19041  14.155   2.381   8.059
 1276POPC   C4B19042  13.951   2.639   7.746
 1277POPC   NC319043  34.740  40.428   9.516
 1277POPC   PO419044  34.375  39.864   9.481
 1277POPC   GL119045  34.680  39.873   9.170
 1277POPC   GL219046  34.562  40.188   9.115
 1277POPC   C1A19047  34.781  39.681   8.775
 1277POPC   D2A19048  34.685  39.891   8.412
 1277POPC   C3A19049  34.429  39.953   8.018
 1277POPC   C4A19050  34.655  39.919   7.618
 1277POPC   C1B19051  34.351  40.106   8.763
 1277POPC   C2B19052  34.437  40.315   8.393
 1277POPC   C3B19053  34.585  40.540   8.085
 1277POPC   C4B19054  34.519  40.408   7.686
 1278POPC   NC319055  13.501  22.406   9.371
 1278POPC   PO419056  13.609  21.862   9.746
 1278POPC   GL119057  13.914  22.056   9.295
 1278POPC   GL219058  13.818  22.306   8.991
 1278POPC   C1A19059  14.038  21.886   8.860
 1278POPC   D2A19060  14.106  22.081   8.402
 1278POPC   C3A19061  13.841  21.953   8.004
 1278POPC   C4A19062  13.705  22.130   7.593
 1278POPC   C1B19063  13.621  22.061   8.621
 1278POPC   C2B19064  13.412  21.903   8.274
 1278POPC   C3B19065  13.339  22.194   7.940
 1278POPC   C4B19066  13.150  21.919   7.720
 1279POPC   NC319067  42.015  21.305   9.465
 1279POPC   PO419068  41.686  21.550   9.939
 1279POPC   GL119069  41.611  21.604   9.403
 1279POPC   GL219070  41.616  21.260   9.169
 1279POPC   C1A19071  41.534  21.679   8.914
 1279POPC   D2A19072  41.509  21.440   8.515
 1279POPC   C3A19073  41.435  21.533   8.128
 1279POPC   C4A19074  41.416  21.487   7.741
 1279POPC   C1B19075  41.641  20.996   8.804
 1279POPC   C2B19076  41.728  20.978   8.397
 1279POPC   C3B19077  41.443  21.009   8.086
 1279POPC   C4B19078  41.694  21.067   7.760
 1280POPC   NC319079  27.138  41.186   9.589
 1280POPC   PO419080  26.463  41.256   9.464
 1280POPC   GL119081  26.814  41.066   9.200
 1280POPC   GL219082  26.826  40.707   9.094
 1280POPC   C1A19083  27.033  41.058   8.816
 1280POPC   D2A19084  27.052  40.775   8.468
 1280POPC   C3A19085  26.849  40.954   8.135
 1280POPC   C4A19086  26.657  40.750   7.799
 1280POPC   C1B19087  26.597  40.743   8.725
 1280POPC   C2B19088  26.568  40.551   8.330
 1280POPC   C3B19089  26.318  40.398   8.003
 1280POPC   C4B19090  26.432  40.312   7.580
 1281POPC   NC319091   3.122  44.013   9.575
 1281POPC   PO419092   2.721  43.518   9.393
 1281POPC   GL119093   2.706  43.689   9.042
 1281POPC   GL219094   2.950  43.904   9.091
 1281POPC   C1A19095   2.526  43.645   8.660
 1281POPC   D2A19096   2.715  43.915   8.388
 1281POPC   C3A19097   2.729  43.811   8.023
 1281POPC   C4A19098   2.621  44.002   7.719
 1281POPC   C1B19099   3.111  43.804   8.695
 1281POPC   C2B19100   3.233  43.894   8.262
 1281POPC   C3B19101   3.180  43.924   7.819
 1281POPC   C4B19102   2.954  43.607   7.576
 1282POPC   NC319103   0.381   9.611   9.385
 1282POPC   PO419104   0.037   9.321   8.963
 1282POPC   GL119105   0.220   9.742   8.902
 1282POPC   GL219106   0.331  10.052   9.089
 1282POPC   C1A19107   0.519   9.918   8.596
 1282POPC   D2A19108   0.665   9.970   8.147
 1282POPC   C3A19109   0.521   9.689   7.807
 1282POPC   C4A19110   0.371   9.733   7.380
 1282POPC   C1B19111   0.114  10.223   8.724
 1282POPC   C2B19112   0.107  10.017   8.291
 1282POPC   C3B19113   0.207  10.103   7.863
 1282POPC   C4B19114   0.057  10.156   7.415
 1283POPC   NC319115  30.281  24.653   9.562
 1283POPC   PO419116  29.788  24.131   9.570
 1283POPC   GL119117  29.858  24.154   9.142
 1283POPC   GL219118  30.164  24.375   9.143
 1283POPC   C1A19119  29.850  24.402   8.748
 1283POPC   D2A19120  30.092  24.533   8.407
 1283POPC   C3A19121  30.078  24.217   8.139
 1283POPC   C4A19122  29.734  24.193   7.863
 1283POPC   C1B19123  30.290  24.735   8.838
 1283POPC   C2B19124  30.460  24.883   8.417
 1283POPC   C3B19125  30.371  24.738   8.017
 1283POPC   C4B19126  29.967  24.680   7.879
 1284POPC   NC319127  25.446  43.715   9.615
 1284POPC   PO419128  25.572  44.358   9.510
 1284POPC   GL119129  25.397  44.055   9.178
 1284POPC   GL219130  25.209  43.722   9.170
 1284POPC   C1A19131  25.142  44.037   8.798
 1284POPC   D2A19132  24.972  44.235   8.445
 1284POPC   C3A19133  24.956  44.004   8.083
 1284POPC   C4A19134  25.112  44.133   7.681
 1284POPC   C1B19135  25.195  43.514   8.773
 1284POPC   C2B19136  25.260  43.723   8.377
 1284POPC   C3B19137  25.416  43.788   7.957
 1284POPC   C4B19138  25.332  43.588   7.550
 1285POPC   NC319139   5.499   8.204   9.526
 1285POPC   PO419140   4.861   8.414   9.399
 1285POPC   GL119141   5.053   8.169   9.108
 1285POPC   GL219142   5.343   7.969   9.112
 1285POPC   C1A19143   4.958   8.067   8.704
 1285POPC   D2A19144   4.818   8.266   8.356
 1285POPC   C3A19145   5.023   8.134   8.000
 1285POPC   C4A19146   4.854   8.078   7.551
 1285POPC   C1B19147   5.471   8.207   8.757
 1285POPC   C2B19148   5.325   8.358   8.389
 1285POPC   C3B19149   5.406   8.503   7.996
 1285POPC   C4B19150   5.092   8.519   7.707
 1286POPC   NC319151   6.808  10.376   9.758
 1286POPC   PO419152   6.171  10.422   9.655
 1286POPC   GL119153   6.395  10.556   9.245
 1286POPC   GL219154   6.788  10.524   9.186
 1286POPC   C1A19155   6.448  10.460   8.786
 1286POPC   D2A19156   6.581  10.259   8.383
 1286POPC   C3A19157   6.518  10.423   7.963
 1286POPC   C4A19158   6.157  10.535   7.752
 1286POPC   C1B19159   6.939  10.340   8.744
 1286POPC   C2B19160   7.075  10.482   8.368
 1286POPC   C3B19161   7.021  10.343   7.968
 1286POPC   C4B19162   6.883  10.443   7.552
 1287POPC   NC319163  32.770  29.959   9.610
 1287POPC   PO419164  33.308  29.531   9.420
 1287POPC   GL119165  32.989  29.644   9.065
 1287POPC   GL219166  32.944  30.026   8.975
 1287POPC   C1A19167  32.963  29.697   8.592
 1287POPC   D2A19168  32.998  30.025   8.270
 1287POPC   C3A19169  32.982  29.830   7.844
 1287POPC   C4A19170  32.885  29.700   7.379
 1287POPC   C1B19171  33.314  30.091   8.677
 1287POPC   C2B19172  33.509  29.743   8.500
 1287POPC   C3B19173  33.364  29.599   8.145
 1287POPC   C4B19174  33.516  29.703   7.751
 1288POPC   NC319175  17.000  21.159   9.712
 1288POPC   PO419176  17.673  21.475   9.548
 1288POPC   GL119177  17.566  21.326   9.168
 1288POPC   GL219178  17.238  21.310   9.271
 1288POPC   C1A19179  17.690  21.229   8.749
 1288POPC   D2A19180  17.795  21.056   8.331
 1288POPC   C3A19181  17.679  21.325   7.967
 1288POPC   C4A19182  17.320  21.639   8.007
 1288POPC   C1B19183  17.203  21.355   8.793
 1288POPC   C2B19184  17.303  21.246   8.341
 1288POPC   C3B19185  17.209  21.112   7.886
 1288POPC   C4B19186  17.132  21.082   7.426
 1289POPC   NC319187   7.124  36.230   9.439
 1289POPC   PO419188   7.637  35.838   9.412
 1289POPC   GL119189   7.410  36.003   9.087
 1289POPC   GL219190   7.498  36.378   9.101
 1289POPC   C1A19191   7.244  36.070   8.703
 1289POPC   D2A19192   7.530  36.069   8.360
 1289POPC   C3A19193   7.459  35.950   7.926
 1289POPC   C4A19194   7.468  35.879   7.493
 1289POPC   C1B19195   7.206  36.597   8.809
 1289POPC   C2B19196   7.117  36.469   8.405
 1289POPC   C3B19197   7.280  36.423   8.012
 1289POPC   C4B19198   7.056  36.497   7.640
 1290POPC   NC319199  14.664  12.929   9.316
 1290POPC   PO419200  14.153  12.472   9.503
 1290POPC   GL119201  14.171  12.784   9.214
 1290POPC   GL219202  14.420  12.565   9.034
 1290POPC   C1A19203  14.090  12.887   8.783
 1290POPC   D2A19204  14.282  12.706   8.408
 1290POPC   C3A19205  14.297  12.912   7.988
 1290POPC   C4A19206  14.297  13.051   7.530
 1290POPC   C1B19207  14.858  12.456   8.883
 1290POPC   C2B19208  14.893  12.524   8.466
 1290POPC   C3B19209  14.642  12.500   8.116
 1290POPC   C4B19210  14.676  12.681   7.753
 1291POPC   NC319211  16.427  29.910   9.658
 1291POPC   PO419212  15.751  30.008   9.541
 1291POPC   GL119213  15.865  30.013   9.126
 1291POPC   GL219214  16.224  29.971   9.152
 1291POPC   C1A19215  15.969  29.823   8.716
 1291POPC   D2A19216  15.869  29.692   8.303
 1291POPC   C3A19217  15.651  30.006   8.016
 1291POPC   C4A19218  15.658  29.807   7.678
 1291POPC   C1B19219  16.159  30.288   8.768
 1291POPC   C2B19220  16.109  30.157   8.313
 1291POPC   C3B19221  16.116  29.901   7.902
 1291POPC   C4B19222  16.140  29.969   7.479
 1292POPC   NC319223  31.114  24.667   9.514
 1292POPC   PO419224  30.518  24.233   9.563
 1292POPC   GL119225  30.681  24.239   9.160
 1292POPC   GL219226  30.653  24.576   9.166
 1292POPC   C1A19227  30.480  24.271   8.748
 1292POPC   D2A19228  30.629  24.420   8.387
 1292POPC   C3A19229  30.580  24.265   8.023
 1292POPC   C4A19230  30.679  24.461   7.683
 1292POPC   C1B19231  30.800  24.718   8.780
 1292POPC   C2B19232  31.086  24.652   8.436
 1292POPC   C3B19233  30.882  24.772   8.072
 1292POPC   C4B19234  30.740  24.968   7.693
 1293POPC   NC319235  16.191  17.094   9.432
 1293POPC   PO419236  16.134  17.739   9.726
 1293POPC   GL119237  15.887  17.510   9.348
 1293POPC   GL219238  16.002  17.798   9.146
 1293POPC   C1A19239  15.688  17.463   8.926
 1293POPC   D2A19240  15.828  17.301   8.520
 1293POPC   C3A19241  15.876  17.546   8.135
 1293POPC   C4A19242  15.851  17.263   7.778
 1293POPC   C1B19243  16.118  17.678   8.721
 1293POPC   C2B19244  16.252  17.870   8.377
 1293POPC   C3B19245  16.366  17.802   8.024
 1293POPC   C4B19246  16.245  17.544   7.706
 1294POPC   NC319247  44.653  29.618   9.493
 1294POPC   PO419248  44.854  30.318   9.496
 1294POPC   GL119249  44.821  30.014   9.211
 1294POPC   GL219250  44.444  29.988   9.219
 1294POPC   C1A19251  44.775  29.787   8.832
 1294POPC   D2A19252  44.622  29.774   8.417
 1294POPC   C3A19253  44.793  29.708   8.017
 1294POPC   C4A19254   0.013  30.050   7.825
 1294POPC   C1B19255  44.317  30.140   8.838
 1294POPC   C2B19256  44.287  30.164   8.406
 1294POPC   C3B19257  44.309  29.932   8.044
 1294POPC   C4B19258  44.475  30.020   7.648
 1295POPC   NC319259   6.597   8.618   9.368
 1295POPC   PO419260   6.720   7.923   9.445
 1295POPC   GL119261   6.608   7.976   9.076
 1295POPC   GL219262   6.331   8.190   9.119
 1295POPC   C1A19263   6.890   8.013   8.752
 1295POPC   D2A19264   6.665   7.966   8.421
 1295POPC   C3A19265   6.747   8.247   8.128
 1295POPC   C4A19266   6.915   8.190   7.734
 1295POPC   C1B19267   6.507   8.377   8.734
 1295POPC   C2B19268   6.361   8.539   8.349
 1295POPC   C3B19269   6.323   8.407   7.924
 1295POPC   C4B19270   6.495   8.339   7.483
 1296POPC   NC319271  39.472  31.763   9.582
 1296POPC   PO419272  38.821  31.520   9.209
 1296POPC   GL119273  39.239  31.481   9.197
 1296POPC   GL219274  39.276  31.817   9.126
 1296POPC   C1A19275  39.396  31.474   8.783
 1296POPC   D2A19276  39.395  31.667   8.380
 1296POPC   C3A19277  39.343  31.329   8.085
 1296POPC   C4A19278  39.472  31.461   7.689
 1296POPC   C1B19279  39.097  31.943   8.719
 1296POPC   C2B19280  38.875  31.790   8.342
 1296POPC   C3B19281  39.004  31.655   7.909
 1296POPC   C4B19282  39.018  31.706   7.426
 1297POPC   NC319283  18.075  33.247   9.553
 1297POPC   PO419284  18.610  32.812   9.405
 1297POPC   GL119285  18.260  32.938   9.186
 1297POPC   GL219286  18.348  33.280   9.115
 1297POPC   C1A19287  18.195  32.919   8.770
 1297POPC   D2A19288  18.555  33.089   8.513
 1297POPC   C3A19289  18.516  32.938   8.065
 1297POPC   C4A19290  18.483  33.134   7.655
 1297POPC   C1B19291  18.151  33.412   8.712
 1297POPC   C2B19292  18.109  33.206   8.315
 1297POPC   C3B19293  18.188  33.437   7.944
 1297POPC   C4B19294  17.895  33.557   7.651
 1298POPC   NC319295   3.832   1.007   9.606
 1298POPC   PO419296   3.198   1.215   9.671
 1298POPC   GL119297   3.443   0.951   9.286
 1298POPC   GL219298   3.160   0.932   9.137
 1298POPC   C1A19299   3.731   0.913   8.830
 1298POPC   D2A19300   3.722   1.066   8.319
 1298POPC   C3A19301   3.761   1.094   7.830
 1298POPC   C4A19302   3.697   1.514   7.587
 1298POPC   C1B19303   3.255   1.041   8.759
 1298POPC   C2B19304   3.259   0.873   8.387
 1298POPC   C3B19305   3.372   0.817   7.984
 1298POPC   C4B19306   3.274   1.101   7.630
 1299POPC   NC319307  36.054  41.183   9.548
 1299POPC   PO419308  36.329  41.798   9.629
 1299POPC   GL119309  36.285  41.584   9.241
 1299POPC   GL219310  35.943  41.504   9.158
 1299POPC   C1A19311  36.328  41.526   8.802
 1299POPC   D2A19312  36.174  41.692   8.399
 1299POPC   C3A19313  36.326  41.580   8.055
 1299POPC   C4A19314  36.408  41.357   7.711
 1299POPC   C1B19315  35.785  41.599   8.746
 1299POPC   C2B19316  35.652  41.580   8.323
 1299POPC   C3B19317  35.834  41.466   7.935
 1299POPC   C4B19318  35.942  41.242   7.559
 1300POPC   NC319319  13.010   6.051   9.430
 1300POPC   PO419320  12.473   5.612   9.484
 1300POPC   GL119321  12.696   5.838   9.084
 1300POPC   GL219322  12.990   5.694   8.984
 1300POPC   C1A19323  12.907   6.057   8.688
 1300POPC   D2A19324  12.736   6.205   8.315
 1300POPC   C3A19325  12.879   6.137   7.932
 1300POPC   C4A19326  12.508   6.189   7.694
 1300POPC   C1B19327  13.046   5.537   8.604
 1300POPC   C2B19328  13.064   5.759   8.220
 1300POPC   C3B19329  13.285   5.815   7.811
 1300POPC   C4B19330  13.274   5.763   7.339
 1301POPC   NC319331  30.527  12.131   9.450
 1301POPC   PO419332  30.971  11.729   9.748
 1301POPC   GL119333  30.895  11.843   9.195
 1301POPC   GL219334  30.547  11.934   8.983
 1301POPC   C1A19335  30.953  11.799   8.739
 1301POPC   D2A19336  30.627  11.863   8.431
 1301POPC   C3A19337  30.827  11.923   8.023
 1301POPC   C4A19338  31.083  11.875   7.646
 1301POPC   C1B19339  30.180  12.160   8.818
 1301POPC   C2B19340  30.290  12.303   8.411
 1301POPC   C3B19341  30.159  12.284   7.992
 1301POPC   C4B19342  30.487  12.162   7.725
 1302POPC   NC319343  19.368  12.136   9.373
 1302POPC   PO419344  20.002  11.974   9.541
 1302POPC   GL119345  20.021  12.115   9.176
 1302POPC   GL219346  19.802  12.391   9.201
 1302POPC   C1A19347  19.884  11.933   8.828
 1302POPC   D2A19348  19.766  12.076   8.458
 1302POPC   C3A19349  19.850  11.812   8.126
 1302POPC   C4A19350  19.943  12.018   7.793
 1302POPC   C1B19351  19.555  12.399   8.798
 1302POPC   C2B19352  19.320  12.323   8.412
 1302POPC   C3B19353  19.527  12.258   8.030
 1302POPC   C4B19354  19.685  12.561   7.779
 1303POPC   NC319355  12.770  39.605   9.802
 1303POPC   PO419356  13.122  40.102   9.475
 1303POPC   GL119357  12.951  40.088   9.116
 1303POPC   GL219358  12.767  40.371   9.143
 1303POPC   C1A19359  13.109  39.943   8.749
 1303POPC   D2A19360  12.892  39.888   8.380
 1303POPC   C3A19361  13.097  39.956   8.016
 1303POPC   C4A19362  12.840  39.756   7.724
 1303POPC   C1B19363  12.717  40.285   8.697
 1303POPC   C2B19364  12.679  40.369   8.290
 1303POPC   C3B19365  12.639  40.173   7.916
 1303POPC   C4B19366  12.893  40.241   7.520
 1304POPC   NC319367   8.135   5.861   9.867
 1304POPC   PO419368   7.812   5.441   9.454
 1304POPC   GL119369   7.984   5.634   9.056
 1304POPC   GL219370   8.216   5.922   9.084
 1304POPC   C1A19371   8.095   5.742   8.613
 1304POPC   D2A19372   8.238   6.035   8.306
 1304POPC   C3A19373   8.167   5.799   7.972
 1304POPC   C4A19374   8.400   5.740   7.608
 1304POPC   C1B19375   8.020   6.227   8.747
 1304POPC   C2B19376   7.771   6.224   8.344
 1304POPC   C3B19377   7.703   6.022   7.944
 1304POPC   C4B19378   7.911   5.905   7.534
 1305POPC   NC319379  13.163  21.937   9.596
 1305POPC   PO419380  12.787  22.451   9.484
 1305POPC   GL119381  12.875  22.154   9.197
 1305POPC   GL219382  12.715  21.857   9.323
 1305POPC   C1A19383  13.004  22.178   8.777
 1305POPC   D2A19384  13.169  22.327   8.402
 1305POPC   C3A19385  12.853  22.346   8.052
 1305POPC   C4A19386  12.780  22.224   7.614
 1305POPC   C1B19387  12.684  21.777   8.877
 1305POPC   C2B19388  12.886  21.812   8.435
 1305POPC   C3B19389  12.728  21.824   8.002
 1305POPC   C4B19390  12.534  21.593   7.662
 1306POPC   NC319391  15.163   1.311   9.507
 1306POPC   PO419392  14.669   0.935   9.174
 1306POPC   GL119393  15.106   0.982   9.100
 1306POPC   GL219394  15.208   1.316   9.000
 1306POPC   C1A19395  15.314   0.895   8.708
 1306POPC   D2A19396  15.408   1.195   8.368
 1306POPC   C3A19397  15.248   1.171   7.939
 1306POPC   C4A19398  15.142   1.158   7.488
 1306POPC   C1B19399  14.986   1.325   8.638
 1306POPC   C2B19400  14.901   1.039   8.296
 1306POPC   C3B19401  14.734   1.178   7.899
 1306POPC   C4B19402  14.749   1.465   7.522
 1307POPC   NC319403   4.020  12.723   9.465
 1307POPC   PO419404   4.593  12.695   9.530
 1307POPC   GL119405   4.372  12.863   9.125
 1307POPC   GL219406   4.043  13.053   9.070
 1307POPC   C1A19407   4.437  12.734   8.698
 1307POPC   D2A19408   4.690  12.875   8.354
 1307POPC   C3A19409   4.424  13.033   8.077
 1307POPC   C4A19410   4.231  12.776   7.772
 1307POPC   C1B19411   4.220  13.213   8.691
 1307POPC   C2B19412   4.030  13.303   8.302
 1307POPC   C3B19413   3.967  13.233   7.881
 1307POPC   C4B19414   4.313  13.256   7.612
 1308POPC   NC319415  31.637  28.837   9.498
 1308POPC   PO419416  31.040  29.111   9.455
 1308POPC   GL119417  31.267  29.255   9.054
 1308POPC   GL219418  31.524  29.065   9.070
 1308POPC   C1A19419  31.554  29.439   8.720
 1308POPC   D2A19420  31.686  29.282   8.297
 1308POPC   C3A19421  31.353  29.220   7.975
 1308POPC   C4A19422  31.289  29.361   7.529
 1308POPC   C1B19423  31.633  28.892   8.693
 1308POPC   C2B19424  31.558  28.710   8.294
 1308POPC   C3B19425  31.493  28.760   7.872
 1308POPC   C4B19426  31.674  29.034   7.532
 1309POPC   NC319427  10.010  23.701   9.367
 1309POPC   PO419428  10.679  23.609   9.495
 1309POPC   GL119429  10.517  23.536   9.119
 1309POPC   GL219430  10.782  23.296   9.020
 1309POPC   C1A19431  10.399  23.781   8.763
 1309POPC   D2A19432  10.509  23.949   8.343
 1309POPC   C3A19433  10.400  23.765   7.946
 1309POPC   C4A19434  10.489  23.831   7.509
 1309POPC   C1B19435  10.900  23.668   8.801
 1309POPC   C2B19436  10.993  23.798   8.410
 1309POPC   C3B19437  10.926  24.019   8.039
 1309POPC   C4B19438  10.930  24.093   7.589
 1310POPC   NC319439  41.132  35.848   9.462
 1310POPC   PO419440  41.743  36.332   9.453
 1310POPC   GL119441  41.480  36.346   9.105
 1310POPC   GL219442  41.178  36.163   9.079
 1310POPC   C1A19443  41.587  36.165   8.723
 1310POPC   D2A19444  41.813  35.967   8.412
 1310POPC   C3A19445  41.734  36.213   8.096
 1310POPC   C4A19446  41.801  36.285   7.728
 1310POPC   C1B19447  41.098  35.959   8.700
 1310POPC   C2B19448  41.297  36.046   8.301
 1310POPC   C3B19449  41.369  35.956   7.866
 1310POPC   C4B19450  41.140  35.725   7.537
 1311POPC   NC319451  22.874  10.964   9.517
 1311POPC   PO419452  22.571  11.444   9.540
 1311POPC   GL119453  22.739  11.304   9.123
 1311POPC   GL219454  23.008  11.042   9.042
 1311POPC   C1A19455  22.927  11.412   8.710
 1311POPC   D2A19456  23.043  11.249   8.329
 1311POPC   C3A19457  23.010  11.571   8.018
 1311POPC   C4A19458  23.209  11.478   7.635
 1311POPC   C1B19459  22.651  10.940   8.768
 1311POPC   C2B19460  22.569  11.019   8.330
 1311POPC   C3B19461  22.776  11.131   7.915
 1311POPC   C4B19462  22.616  10.916   7.585
 1312POPC   NC319463  23.066  30.899   9.470
 1312POPC   PO419464  22.575  30.381   9.589
 1312POPC   GL119465  22.778  30.552   9.195
 1312POPC   GL219466  23.112  30.417   9.192
 1312POPC   C1A19467  22.956  30.752   8.794
 1312POPC   D2A19468  22.911  30.634   8.351
 1312POPC   C3A19469  23.065  30.826   7.953
 1312POPC   C4A19470  22.776  31.036   7.681
 1312POPC   C1B19471  22.955  30.233   8.782
 1312POPC   C2B19472  23.079  30.127   8.350
 1312POPC   C3B19473  22.947  30.325   7.944
 1312POPC   C4B19474  23.078  30.480   7.509
 1313POPC   NC319475  25.559  30.305   9.529
 1313POPC   PO419476  25.191  30.843   9.665
 1313POPC   GL119477  25.165  30.657   9.274
 1313POPC   GL219478  25.008  30.962   9.142
 1313POPC   C1A19479  25.264  30.581   8.845
 1313POPC   D2A19480  25.505  30.553   8.470
 1313POPC   C3A19481  25.299  30.518   8.092
 1313POPC   C4A19482  25.355  30.589   7.687
 1313POPC   C1B19483  24.817  30.830   8.754
 1313POPC   C2B19484  25.081  30.864   8.399
 1313POPC   C3B19485  25.307  31.015   8.019
 1313POPC   C4B19486  25.085  31.010   7.641
 1314POPC   NC319487  28.329  35.648   9.545
 1314POPC   PO419488  28.786  35.113   9.512
 1314POPC   GL119489  28.607  35.386   9.178
 1314POPC   GL219490  28.247  35.486   9.080
 1314POPC   C1A19491  28.748  35.512   8.770
 1314POPC   D2A19492  28.737  35.265   8.437
 1314POPC   C3A19493  28.529  35.399   8.068
 1314POPC   C4A19494  28.625  35.180   7.691
 1314POPC   C1B19495  28.077  35.426   8.674
 1314POPC   C2B19496  28.094  35.652   8.290
 1314POPC   C3B19497  28.040  35.634   7.852
 1314POPC   C4B19498  28.094  35.460   7.448
 1315POPC   NC319499  18.727  10.587   9.520
 1315POPC   PO419500  18.127  10.292   9.593
 1315POPC   GL119501  18.031  10.488   9.192
 1315POPC   GL219502  18.342  10.670   9.154
 1315POPC   C1A19503  17.859  10.568   8.771
 1315POPC   D2A19504  18.073  10.691   8.375
 1315POPC   C3A19505  17.998  10.415   8.016
 1315POPC   C4A19506  17.933  10.541   7.576
 1315POPC   C1B19507  18.364  10.451   8.771
 1315POPC   C2B19508  18.541  10.355   8.381
 1315POPC   C3B19509  18.492  10.421   7.936
 1315POPC   C4B19510  18.396  10.353   7.503
 1316POPC   NC319511   8.970   7.120   9.435
 1316POPC   PO419512   9.241   7.710   9.522
 1316POPC   GL119513   9.092   7.629   9.108
 1316POPC   GL219514   8.959   7.320   8.959
 1316POPC   C1A19515   9.251   7.621   8.681
 1316POPC   D2A19516   9.077   7.301   8.394
 1316POPC   C3A19517   8.955   7.487   8.015
 1316POPC   C4A19518   9.233   7.773   7.765
 1316POPC   C1B19519   8.693   7.092   8.650
 1316POPC   C2B19520   8.733   6.806   8.305
 1316POPC   C3B19521   8.822   6.909   7.888
 1316POPC   C4B19522   9.184   7.062   7.839
 1317POPC   NC319523  29.712   6.919   9.498
 1317POPC   PO419524  29.688   7.549   9.740
 1317POPC   GL119525  29.849   7.395   9.311
 1317POPC   GL219526  30.210   7.305   9.223
 1317POPC   C1A19527  29.756   7.284   8.879
 1317POPC   D2A19528  29.713   7.413   8.459
 1317POPC   C3A19529  29.768   7.065   8.189
 1317POPC   C4A19530  30.032   7.118   7.850
 1317POPC   C1B19531  30.252   7.440   8.777
 1317POPC   C2B19532  30.237   7.320   8.335
 1317POPC   C3B19533  30.092   7.601   8.025
 1317POPC   C4B19534  29.995   7.571   7.596
 1318POPC   NC319535  21.578  36.527   9.584
 1318POPC   PO419536  21.255  35.997   9.736
 1318POPC   GL119537  21.317  36.028   9.280
 1318POPC   GL219538  21.620  35.852   9.225
 1318POPC   C1A19539  21.320  36.061   8.810
 1318POPC   D2A19540  21.074  36.021   8.397
 1318POPC   C3A19541  21.153  36.042   7.929
 1318POPC   C4A19542  21.192  36.375   7.602
 1318POPC   C1B19543  21.734  35.714   8.792
 1318POPC   C2B19544  21.596  35.867   8.383
 1318POPC   C3B19545  21.610  36.226   8.113
 1318POPC   C4B19546  21.672  36.129   7.711
 1319POPC   NC319547  23.288  21.321   9.597
 1319POPC   PO419548  22.785  21.671   9.724
 1319POPC   GL119549  22.878  21.610   9.251
 1319POPC   GL219550  23.016  21.270   9.136
 1319POPC   C1A19551  23.047  21.707   8.804
 1319POPC   D2A19552  23.066  21.429   8.445
 1319POPC   C3A19553  23.123  21.487   8.006
 1319POPC   C4A19554  23.046  21.414   7.573
 1319POPC   C1B19555  23.119  21.031   8.753
 1319POPC   C2B19556  23.163  20.944   8.294
 1319POPC   C3B19557  22.983  21.004   7.897
 1319POPC   C4B19558  22.930  20.928   7.431
 1320POPC   NC319559  43.496  27.014   9.463
 1320POPC   PO419560  44.181  26.975   9.421
 1320POPC   GL119561  43.976  26.660   9.136
 1320POPC   GL219562  43.639  26.475   9.178
 1320POPC   C1A19563  43.960  26.711   8.708
 1320POPC   D2A19564  43.941  27.010   8.391
 1320POPC   C3A19565  44.055  26.829   7.996
 1320POPC   C4A19566  44.080  27.047   7.589
 1320POPC   C1B19567  43.436  26.660   8.835
 1320POPC   C2B19568  43.555  26.625   8.418
 1320POPC   C3B19569  43.443  26.743   8.035
 1320POPC   C4B19570  43.679  26.736   7.663
 1321POPC   NC319571  31.167   9.013   9.600
 1321POPC   PO419572  31.804   8.843   9.497
 1321POPC   GL119573  31.474   8.928   9.211
 1321POPC   GL219574  31.228   8.722   9.057
 1321POPC   C1A19575  31.434   9.168   8.860
 1321POPC   D2A19576  31.545   9.042   8.462
 1321POPC   C3A19577  31.410   9.269   8.106
 1321POPC   C4A19578  31.297   9.175   7.720
 1321POPC   C1B19579  31.611   8.632   8.795
 1321POPC   C2B19580  31.594   8.545   8.354
 1321POPC   C3B19581  31.376   8.764   8.029
 1321POPC   C4B19582  31.449   8.701   7.612
 1322POPC   NC319583  14.757  31.912   9.575
 1322POPC   PO419584  15.343  32.186   9.813
 1322POPC   GL119585  15.299  32.162   9.320
 1322POPC   GL219586  15.042  32.371   9.178
 1322POPC   C1A19587  15.420  32.002   8.900
 1322POPC   D2A19588  15.239  31.920   8.500
 1322POPC   C3A19589  15.450  32.126   8.169
 1322POPC   C4A19590  15.544  32.074   7.776
 1322POPC   C1B19591  14.957  32.215   8.808
 1322POPC   C2B19592  15.100  32.393   8.434
 1322POPC   C3B19593  14.994  32.287   8.035
 1322POPC   C4B19594  14.908  32.450   7.680
 1323POPC   NC319595  22.261  41.976   9.556
 1323POPC   PO419596  22.059  42.531   9.832
 1323POPC   GL119597  22.400  42.399   9.362
 1323POPC   GL219598  22.172  42.220   9.117
 1323POPC   C1A19599  22.513  42.509   8.901
 1323POPC   D2A19600  22.467  42.280   8.504
 1323POPC   C3A19601  22.508  42.452   8.088
 1323POPC   C4A19602  22.283  42.536   7.701
 1323POPC   C1B19603  21.981  42.172   8.709
 1323POPC   C2B19604  21.872  42.019   8.296
 1323POPC   C3B19605  22.082  42.129   7.896
 1323POPC   C4B19606  22.162  42.133   7.384
 1324POPC   NC319607  40.215   2.533   9.489
 1324POPC   PO419608  39.660   2.878   9.673
 1324POPC   GL119609  39.829   2.800   9.253
 1324POPC   GL219610  40.128   3.006   9.221
 1324POPC   C1A19611  39.930   2.622   8.849
 1324POPC   D2A19612  39.781   2.768   8.457
 1324POPC   C3A19613  40.004   2.875   8.106
 1324POPC   C4A19614  39.873   2.710   7.726
 1324POPC   C1B19615  40.364   2.924   8.827
 1324POPC   C2B19616  40.309   2.650   8.478
 1324POPC   C3B19617  40.457   2.638   8.089
 1324POPC   C4B19618  40.363   2.810   7.709
 1325POPC   NC319619  18.675  17.389   9.465
 1325POPC   PO419620  17.980  17.622   9.501
 1325POPC   GL119621  18.209  17.411   9.184
 1325POPC   GL219622  18.468  17.632   9.070
 1325POPC   C1A19623  18.084  17.570   8.777
 1325POPC   D2A19624  17.968  17.441   8.428
 1325POPC   C3A19625  17.896  17.722   8.100
 1325POPC   C4A19626  18.081  17.498   7.774
 1325POPC   C1B19627  18.593  17.585   8.661
 1325POPC   C2B19628  18.436  17.641   8.249
 1325POPC   C3B19629  18.643  17.871   7.939
 1325POPC   C4B19630  18.580  17.593   7.672
 1326POPC   NC319631   4.752  29.068   9.628
 1326POPC   PO419632   4.356  28.732   9.178
 1326POPC   GL119633   4.327  29.100   9.005
 1326POPC   GL219634   4.231  29.383   9.197
 1326POPC   C1A19635   4.397  29.297   8.659
 1326POPC   D2A19636   4.293  29.259   8.273
 1326POPC   C3A19637   4.253  28.851   8.103
 1326POPC   C4A19638   4.199  28.717   7.668
 1326POPC   C1B19639   3.943  29.487   8.852
 1326POPC   C2B19640   3.964  29.651   8.436
 1326POPC   C3B19641   3.960  29.540   8.018
 1326POPC   C4B19642   4.167  29.236   7.775
 1327POPC   NC319643  40.689   0.558   9.248
 1327POPC   PO419644  41.068   0.200   9.727
 1327POPC   GL119645  41.055   0.102   9.222
 1327POPC   GL219646  40.741   0.137   8.985
 1327POPC   C1A19647  41.141   0.315   8.784
 1327POPC   D2A19648  41.052   0.151   8.384
 1327POPC   C3A19649  40.913   0.476   8.112
 1327POPC   C4A19650  41.050   0.480   7.699
 1327POPC   C1B19651  40.727   0.532   8.613
 1327POPC   C2B19652  40.695   0.935   8.313
 1327POPC   C3B19653  40.567   0.851   7.879
 1327POPC   C4B19654  40.532   0.437   7.732
 1328POPC   NC319655  19.541  25.403   9.487
 1328POPC   PO419656  20.260  25.153   9.478
 1328POPC   GL119657  19.956  25.263   9.183
 1328POPC   GL219658  19.707  25.008   9.133
 1328POPC   C1A19659  19.958  25.290   8.763
 1328POPC   D2A19660  19.778  25.156   8.410
 1328POPC   C3A19661  19.852  25.450   8.090
 1328POPC   C4A19662  20.096  25.443   7.732
 1328POPC   C1B19663  19.435  25.121   8.799
 1328POPC   C2B19664  19.166  25.234   8.484
 1328POPC   C3B19665  19.377  25.227   8.116
 1328POPC   C4B19666  19.634  25.147   7.727
 1329POPC   NC319667  14.293   7.583   9.449
 1329POPC   PO419668  14.908   7.879   9.382
 1329POPC   GL119669  14.696   7.564   9.108
 1329POPC   GL219670  14.624   7.197   9.105
 1329POPC   C1A19671  14.487   7.507   8.717
 1329POPC   D2A19672  14.738   7.677   8.407
 1329POPC   C3A19673  14.543   7.897   8.111
 1329POPC   C4A19674  14.541   7.588   7.816
 1329POPC   C1B19675  14.162   7.148   8.968
 1329POPC   C2B19676  14.004   7.151   8.552
 1329POPC   C3B19677  14.221   7.337   8.205
 1329POPC   C4B19678  14.213   7.210   7.779
 1330POPC   NC319679  26.572  23.110   9.624
 1330POPC   PO419680  26.976  22.629   9.479
 1330POPC   GL119681  26.820  22.934   9.176
 1330POPC   GL219682  26.461  23.050   9.141
 1330POPC   C1A19683  26.791  23.053   8.746
 1330POPC   D2A19684  26.836  23.283   8.400
 1330POPC   C3A19685  26.820  23.125   8.008
 1330POPC   C4A19686  26.850  23.320   7.621
 1330POPC   C1B19687  26.437  22.700   8.854
 1330POPC   C2B19688  26.497  22.788   8.420
 1330POPC   C3B19689  26.330  22.757   8.019
 1330POPC   C4B19690  26.477  22.579   7.617
 1331POPC   NC319691  13.141  29.444   9.452
 1331POPC   PO419692  13.701  29.216   9.196
 1331POPC   GL119693  13.681  28.912   8.944
 1331POPC   GL219694  14.019  28.907   8.905
 1331POPC   C1A19695  13.479  28.892   8.595
 1331POPC   D2A19696  13.327  29.175   8.324
 1331POPC   C3A19697  13.374  29.083   7.907
 1331POPC   C4A19698  13.186  29.231   7.538
 1331POPC   C1B19699  13.938  29.130   8.536
 1331POPC   C2B19700  13.801  28.955   8.190
 1331POPC   C3B19701  13.871  28.915   7.794
 1331POPC   C4B19702  13.962  28.911   7.331
 1332POPC   NC319703  31.091  23.061   9.495
 1332POPC   PO419704  30.614  22.617   9.580
 1332POPC   GL119705  30.647  22.595   9.150
 1332POPC   GL219706  30.800  22.918   9.090
 1332POPC   C1A19707  30.533  22.646   8.708
 1332POPC   D2A19708  30.724  22.734   8.282
 1332POPC   C3A19709  30.425  22.812   7.932
 1332POPC   C4A19710  30.347  22.689   7.517
 1332POPC   C1B19711  31.004  22.866   8.699
 1332POPC   C2B19712  31.187  23.103   8.387
 1332POPC   C3B19713  31.062  23.206   8.013
 1332POPC   C4B19714  30.870  23.004   7.677
 1333POPC   NC319715   8.356  11.801   9.436
 1333POPC   PO419716   7.870  12.349   9.482
 1333POPC   GL119717   8.079  12.115   9.133
 1333POPC   GL219718   8.441  12.215   9.140
 1333POPC   C1A19719   8.286  11.814   8.794
 1333POPC   D2A19720   8.452  11.834   8.364
 1333POPC   C3A19721   8.144  11.858   8.057
 1333POPC   C4A19722   8.166  11.978   7.627
 1333POPC   C1B19723   8.226  12.338   8.707
 1333POPC   C2B19724   8.295  12.335   8.263
 1333POPC   C3B19725   8.408  12.369   7.845
 1333POPC   C4B19726   8.405  12.366   7.395
 1334POPC   NC319727  20.254   0.065   9.459
 1334POPC   PO419728  20.663   0.581   9.536
 1334POPC   GL119729  20.829   0.356   9.181
 1334POPC   GL219730  20.540   0.279   9.097
 1334POPC   C1A19731  21.047   0.398   8.794
 1334POPC   D2A19732  20.890   0.600   8.415
 1334POPC   C3A19733  21.008   0.581   8.014
 1334POPC   C4A19734  20.884   0.482   7.593
 1334POPC   C1B19735  20.534   0.530   8.774
 1334POPC   C2B19736  20.465   0.308   8.401
 1334POPC   C3B19737  20.526   0.398   8.003
 1334POPC   C4B19738  20.475   0.116   7.687
 1335POPC   NC319739  36.501  36.916   9.524
 1335POPC   PO419740  35.892  36.712   9.704
 1335POPC   GL119741  36.071  36.825   9.237
 1335POPC   GL219742  36.213  37.162   9.191
 1335POPC   C1A19743  36.255  36.842   8.771
 1335POPC   D2A19744  36.154  36.762   8.306
 1335POPC   C3A19745  36.382  36.811   7.904
 1335POPC   C4A19746  36.486  36.538   7.516
 1335POPC   C1B19747  36.254  37.375   8.816
 1335POPC   C2B19748  36.222  37.255   8.413
 1335POPC   C3B19749  36.042  37.215   8.020
 1335POPC   C4B19750  35.947  37.139   7.614
 1336POPC   NC319751  42.948   9.832   9.521
 1336POPC   PO419752  42.790   9.163   9.485
 1336POPC   GL119753  42.943   9.223   9.108
 1336POPC   GL219754  43.131   9.527   9.143
 1336POPC   C1A19755  42.856   9.414   8.720
 1336POPC   D2A19756  42.857   9.648   8.330
 1336POPC   C3A19757  43.175   9.590   8.044
 1336POPC   C4A19758  43.049   9.428   7.656
 1336POPC   C1B19759  43.238   9.736   8.780
 1336POPC   C2B19760  43.095  10.050   8.526
 1336POPC   C3B19761  43.110  10.183   8.120
 1336POPC   C4B19762  43.213  10.000   7.750
 1337POPC   NC319763  33.836  13.217   9.614
 1337POPC   PO419764  33.746  12.579   9.497
 1337POPC   GL119765  33.683  12.904   9.207
 1337POPC   GL219766  33.883  12.709   9.020
 1337POPC   C1A19767  33.497  12.973   8.787
 1337POPC   D2A19768  33.307  12.808   8.390
 1337POPC   C3A19769  33.572  13.009   8.074
 1337POPC   C4A19770  34.058  13.050   8.078
 1337POPC   C1B19771  33.663  12.492   8.727
 1337POPC   C2B19772  33.822  12.693   8.374
 1337POPC   C3B19773  33.839  12.564   7.943
 1337POPC   C4B19774  33.693  12.519   7.529
 1338POPC   NC319775  29.354  20.455   9.951
 1338POPC   PO419776  29.535  20.620   9.380
 1338POPC   GL119777  29.217  20.630   9.134
 1338POPC   GL219778  29.088  20.321   9.202
 1338POPC   C1A19779  29.072  20.748   8.770
 1338POPC   D2A19780  29.241  20.744   8.376
 1338POPC   C3A19781  28.972  20.780   8.015
 1338POPC   C4A19782  29.218  20.923   7.671
 1338POPC   C1B19783  28.816  20.283   8.839
 1338POPC   C2B19784  28.848  20.425   8.420
 1338POPC   C3B19785  28.675  20.322   8.036
 1338POPC   C4B19786  28.649  20.400   7.631
 1339POPC   NC319787  35.905   9.125   9.393
 1339POPC   PO419788  36.439   8.890   9.499
 1339POPC   GL119789  36.212   8.809   9.104
 1339POPC   GL219790  36.272   9.159   9.044
 1339POPC   C1A19791  36.046   8.877   8.667
 1339POPC   D2A19792  36.234   8.713   8.280
 1339POPC   C3A19793  36.074   8.676   7.864
 1339POPC   C4A19794  36.370   8.826   7.563
 1339POPC   C1B19795  36.484   9.359   8.728
 1339POPC   C2B19796  36.361   9.215   8.357
 1339POPC   C3B19797  36.216   9.157   7.939
 1339POPC   C4B19798  35.853   9.203   7.751
 1340POPC   NC319799  31.200  33.998   9.427
 1340POPC   PO419800  31.456  33.334   9.551
 1340POPC   GL119801  31.572  33.609   9.216
 1340POPC   GL219802  31.247  33.605   9.045
 1340POPC   C1A19803  31.689  33.755   8.790
 1340POPC   D2A19804  31.416  33.637   8.426
 1340POPC   C3A19805  31.589  33.613   8.034
 1340POPC   C4A19806  31.858  33.947   7.914
 1340POPC   C1B19807  31.208  33.972   8.757
 1340POPC   C2B19808  31.131  34.055   8.316
 1340POPC   C3B19809  31.169  33.876   7.919
 1340POPC   C4B19810  31.070  33.720   7.508
 1341POPC   NC319811  41.531  12.220   9.610
 1341POPC   PO419812  41.566  12.938   9.607
 1341POPC   GL119813  41.586  12.788   9.205
 1341POPC   GL219814  41.308  12.990   9.056
 1341POPC   C1A19815  41.845  12.741   8.847
 1341POPC   D2A19816  41.806  12.990   8.491
 1341POPC   C3A19817  41.760  12.842   8.094
 1341POPC   C4A19818  41.617  12.731   7.648
 1341POPC   C1B19819  41.342  13.161   8.643
 1341POPC   C2B19820  41.416  13.225   8.195
 1341POPC   C3B19821  41.255  13.084   7.793
 1341POPC   C4B19822  41.142  12.776   7.442
 1342POPC   NC319823  19.549  27.905   9.627
 1342POPC   PO419824  19.793  27.305   9.519
 1342POPC   GL119825  19.680  27.593   9.209
 1342POPC   GL219826  19.950  27.802   9.100
 1342POPC   C1A19827  19.671  27.574   8.754
 1342POPC   D2A19828  19.770  27.832   8.424
 1342POPC   C3A19829  19.689  27.615   8.057
 1342POPC   C4A19830  19.575  27.832   7.702
 1342POPC   C1B19831  20.172  27.542   8.766
 1342POPC   C2B19832  20.246  27.645   8.335
 1342POPC   C3B19833  20.106  27.878   7.993
 1342POPC   C4B19834  20.069  27.649   7.665
 1343POPC   NC319835  18.431  40.642   9.870
 1343POPC   PO419836  18.036  41.128   9.501
 1343POPC   GL119837  18.240  40.831   9.239
 1343POPC   GL219838  18.150  40.496   9.240
 1343POPC   C1A19839  18.434  40.841   8.843
 1343POPC   D2A19840  18.352  41.056   8.485
 1343POPC   C3A19841  18.481  40.916   8.084
 1343POPC   C4A19842  18.314  40.994   7.676
 1343POPC   C1B19843  17.996  40.576   8.796
 1343POPC   C2B19844  18.028  40.500   8.336
 1343POPC   C3B19845  18.136  40.555   7.894
 1343POPC   C4B19846  18.042  40.443   7.458
 1344POPC   NC319847   0.795  42.522   9.438
 1344POPC   PO419848   0.122  42.493   9.373
 1344POPC   GL119849   0.433  42.433   9.071
 1344POPC   GL219850   0.715  42.163   9.095
 1344POPC   C1A19851   0.428  42.210   8.704
 1344POPC   D2A19852   0.223  42.014   8.448
 1344POPC   C3A19853   0.322  42.280   8.129
 1344POPC   C4A19854   0.377  42.190   7.715
 1344POPC   C1B19855   0.858  42.504   8.786
 1344POPC   C2B19856   0.788  42.405   8.367
 1344POPC   C3B19857   0.819  42.253   7.950
 1344POPC   C4B19858   0.782  42.361   7.495
 1345POPC   NC319859  18.836  36.576   9.628
 1345POPC   PO419860  18.160  36.848   9.558
 1345POPC   GL119861  18.271  36.983   9.130
 1345POPC   GL219862  18.200  37.350   9.064
 1345POPC   C1A19863  18.390  36.790   8.749
 1345POPC   D2A19864  18.302  36.489   8.438
 1345POPC   C3A19865  18.326  36.650   8.039
 1345POPC   C4A19866  18.223  36.837   7.649
 1345POPC   C1B19867  18.553  37.316   8.751
 1345POPC   C2B19868  18.551  37.089   8.340
 1345POPC   C3B19869  18.264  37.191   8.011
 1345POPC   C4B19870  18.295  37.339   7.578
 1346POPC   NC319871   5.707  38.217   9.441
 1346POPC   PO419872   6.230  38.560   9.778
 1346POPC   GL119873   6.049  38.555   9.285
 1346POPC   GL219874   6.178  38.308   9.090
 1346POPC   C1A19875   5.808  38.723   8.876
 1346POPC   D2A19876   5.808  38.563   8.447
 1346POPC   C3A19877   5.649  38.713   8.087
 1346POPC   C4A19878   5.568  38.620   7.691
 1346POPC   C1B19879   5.816  38.191   8.792
 1346POPC   C2B19880   5.652  38.064   8.384
 1346POPC   C3B19881   5.788  38.174   7.955
 1346POPC   C4B19882   5.546  38.139   7.544
 1347POPC   NC319883   2.439  17.551   9.368
 1347POPC   PO419884   2.902  17.264   9.763
 1347POPC   GL119885   2.950  17.389   9.307
 1347POPC   GL219886   2.921  17.748   9.212
 1347POPC   C1A19887   2.923  17.396   8.825
 1347POPC   D2A19888   2.985  17.218   8.395
 1347POPC   C3A19889   2.737  17.466   8.100
 1347POPC   C4A19890   2.836  17.650   7.715
 1347POPC   C1B19891   2.625  17.841   8.822
 1347POPC   C2B19892   2.451  17.817   8.391
 1347POPC   C3B19893   2.248  17.759   7.967
 1347POPC   C4B19894   2.285  17.696   7.510
 1348POPC   NC319895  38.361  44.463   9.682
 1348POPC   PO419896  38.617   0.160   9.679
 1348POPC   GL119897  38.456  44.923   9.268
 1348POPC   GL219898  38.463  44.559   9.170
 1348POPC   C1A19899  38.595  44.946   8.818
 1348POPC   D2A19900  38.448  44.595   8.574
 1348POPC   C3A19901  38.378  44.647   8.141
 1348POPC   C4A19902  38.331  44.414   7.751
 1348POPC   C1B19903  38.583  44.189   8.898
 1348POPC   C2B19904  38.710  44.160   8.454
 1348POPC   C3B19905  38.762  44.329   8.041
 1348POPC   C4B19906  38.845  44.288   7.618
 1349POPC   NC319907   5.469  36.046   9.360
 1349POPC   PO419908   4.872  36.236   9.620
 1349POPC   GL119909   5.065  36.384   9.266
 1349POPC   GL219910   4.873  36.146   9.069
 1349POPC   C1A19911   5.226  36.476   8.850
 1349POPC   D2A19912   5.106  36.166   8.530
 1349POPC   C3A19913   5.269  36.239   8.119
 1349POPC   C4A19914   5.283  36.378   7.677
 1349POPC   C1B19915   4.622  35.988   8.726
 1349POPC   C2B19916   4.631  36.132   8.307
 1349POPC   C3B19917   4.775  36.305   7.930
 1349POPC   C4B19918   5.012  35.962   7.768
 1350POPC   NC319919  18.497  30.757   9.537
 1350POPC   PO419920  17.874  31.034   9.515
 1350POPC   GL119921  18.141  30.788   9.180
 1350POPC   GL219922  18.383  30.546   9.080
 1350POPC   C1A19923  18.055  30.807   8.717
 1350POPC   D2A19924  18.116  31.039   8.321
 1350POPC   C3A19925  18.140  30.799   7.910
 1350POPC   C4A19926  18.142  30.399   7.703
 1350POPC   C1B19927  18.570  30.639   8.697
 1350POPC   C2B19928  18.516  30.683   8.262
 1350POPC   C3B19929  18.601  30.530   7.848
 1350POPC   C4B19930  18.912  30.634   7.524
 1351POPC   NC319931  40.702  30.863   9.673
 1351POPC   PO419932  40.728  30.105   9.507
 1351POPC   GL119933  40.670  30.494   9.249
 1351POPC   GL219934  40.940  30.761   9.216
 1351POPC   C1A19935  40.580  30.668   8.834
 1351POPC   D2A19936  40.562  30.916   8.465
 1351POPC   C3A19937  40.709  30.755   8.111
 1351POPC   C4A19938  40.789  30.427   7.830
 1351POPC   C1B19939  41.105  30.716   8.780
 1351POPC   C2B19940  41.090  30.976   8.390
 1351POPC   C3B19941  41.012  31.148   7.924
 1351POPC   C4B19942  41.004  31.026   7.382
 1352POPC   NC319943   6.354   6.685   9.366
 1352POPC   PO419944   5.769   6.357   9.510
 1352POPC   GL119945   5.913   6.499   9.134
 1352POPC   GL219946   5.642   6.712   9.069
 1352POPC   C1A19947   6.113   6.736   8.769
 1352POPC   D2A19948   6.357   6.605   8.427
 1352POPC   C3A19949   6.134   6.503   8.047
 1352POPC   C4A19950   6.082   6.898   7.813
 1352POPC   C1B19951   5.685   6.473   8.675
 1352POPC   C2B19952   5.732   6.713   8.289
 1352POPC   C3B19953   5.646   6.624   7.863
 1352POPC   C4B19954   5.592   6.302   7.560
 1353POPC   NC319955   8.114  28.829   9.858
 1353POPC   PO419956   8.365  29.316   9.542
 1353POPC   GL119957   8.203  28.982   9.353
 1353POPC   GL219958   8.521  28.862   9.230
 1353POPC   C1A19959   8.040  29.023   8.963
 1353POPC   D2A19960   8.068  28.875   8.566
 1353POPC   C3A19961   8.179  29.136   8.247
 1353POPC   C4A19962   8.109  29.071   7.850
 1353POPC   C1B19963   8.523  29.166   8.881
 1353POPC   C2B19964   8.672  29.065   8.445
 1353POPC   C3B19965   8.714  29.139   8.013
 1353POPC   C4B19966   8.512  29.283   7.638
 1354POPC   NC319967  33.325  29.981   9.293
 1354POPC   PO419968  33.958  30.087   9.492
 1354POPC   GL119969  33.791  29.928   9.115
 1354POPC   GL219970  33.719  30.256   8.993
 1354POPC   C1A19971  33.950  29.834   8.732
 1354POPC   D2A19972  33.929  30.125   8.412
 1354POPC   C3A19973  33.877  29.870   8.075
 1354POPC   C4A19974  34.038  29.707   7.706
 1354POPC   C1B19975  33.613  30.524   8.631
 1354POPC   C2B19976  33.317  30.474   8.289
 1354POPC   C3B19977  33.422  30.140   7.995
 1354POPC   C4B19978  33.747  30.162   7.657
 1355POPC   NC319979  27.421  39.538   9.558
 1355POPC   PO419980  27.686  40.171   9.617
 1355POPC   GL119981  27.712  40.079   9.231
 1355POPC   GL219982  27.778  39.749   9.239
 1355POPC   C1A19983  27.476  40.169   8.875
 1355POPC   D2A19984  27.426  39.961   8.496
 1355POPC   C3A19985  27.710  40.126   8.167
 1355POPC   C4A19986  27.506  40.165   7.761
 1355POPC   C1B19987  27.611  39.603   8.875
 1355POPC   C2B19988  27.737  39.570   8.468
 1355POPC   C3B19989  27.536  39.673   8.075
 1355POPC   C4B19990  27.667  39.671   7.677
 1356POPC   NC319991  31.620  35.920   9.524
 1356POPC   PO419992  31.375  35.233   9.530
 1356POPC   GL119993  31.343  35.239   9.101
 1356POPC   GL219994  31.265  35.603   9.078
 1356POPC   C1A19995  31.567  35.045   8.741
 1356POPC   D2A19996  31.457  35.065   8.290
 1356POPC   C3A19997  31.733  35.154   7.927
 1356POPC   C4A19998  31.669  35.155   7.442
 1356POPC   C1B19999  31.033  35.464   8.736
 1356POPC   C2B20000  30.958  35.482   8.294
 1356POPC   C3B20001  31.326  35.489   8.027
 1356POPC   C4B20002  31.370  35.582   7.606
 1357POPC   NC320003  11.854   9.644   9.397
 1357POPC   PO420004  12.512   9.832   9.495
 1357POPC   GL120005  12.349   9.650   9.114
 1357POPC   GL220006  12.143   9.929   9.108
 1357POPC   C1A20007  12.125   9.581   8.690
 1357POPC   D2A20008  11.857   9.591   8.264
 1357POPC   C3A20009  12.037   9.595   7.823
 1357POPC   C4A20010  12.456   9.592   7.627
 1357POPC   C1B20011  11.878  10.020   8.761
 1357POPC   C2B20012  12.040  10.056   8.363
 1357POPC   C3B20013  11.914  10.115   7.953
 1357POPC   C4B20014  11.740   9.976   7.579
 1358POPC   NC320015  13.140  12.754   9.508
 1358POPC   PO420016  12.667  13.323   9.408
 1358POPC   GL120017  12.943  13.070   9.086
 1358POPC   GL220018  13.103  12.702   9.023
 1358POPC   C1A20019  13.093  13.068   8.664
 1358POPC   D2A20020  13.056  13.276   8.286
 1358POPC   C3A20021  12.983  13.072   7.945
 1358POPC   C4A20022  13.064  13.091   7.534
 1358POPC   C1B20023  12.780  12.674   8.722
 1358POPC   C2B20024  12.827  12.717   8.293
 1358POPC   C3B20025  12.691  12.647   7.916
 1358POPC   C4B20026  12.866  12.646   7.516
 1359POPC   NC320027  19.347  15.223   9.515
 1359POPC   PO420028  20.035  14.956   9.490
 1359POPC   GL120029  19.902  15.185   9.161
 1359POPC   GL220030  19.614  14.997   9.134
 1359POPC   C1A20031  19.793  15.413   8.786
 1359POPC   D2A20032  19.562  15.448   8.388
 1359POPC   C3A20033  19.809  15.401   7.996
 1359POPC   C4A20034  20.006  15.026   7.836
 1359POPC   C1B20035  19.494  15.008   8.727
 1359POPC   C2B20036  19.476  14.710   8.405
 1359POPC   C3B20037  19.288  14.790   8.016
 1359POPC   C4B20038  19.361  15.208   7.845
 1360POPC   NC320039  15.163  27.951   9.589
 1360POPC   PO420040  15.216  28.552   9.631
 1360POPC   GL120041  15.149  28.335   9.242
 1360POPC   GL220042  14.830  28.374   9.168
 1360POPC   C1A20043  15.279  28.141   8.844
 1360POPC   D2A20044  15.391  28.383   8.469
 1360POPC   C3A20045  15.313  28.222   8.017
 1360POPC   C4A20046  15.447  28.107   7.572
 1360POPC   C1B20047  14.953  28.553   8.774
 1360POPC   C2B20048  14.757  28.647   8.372
 1360POPC   C3B20049  14.895  28.540   7.976
 1360POPC   C4B20050  14.923  28.226   7.680
 1361POPC   NC320051  18.909   8.663   9.792
 1361POPC   PO420052  18.986   8.042   9.469
 1361POPC   GL120053  19.300   8.071   9.144
 1361POPC   GL220054  19.015   8.093   8.944
 1361POPC   C1A20055  19.465   8.000   8.727
 1361POPC   D2A20056  19.109   8.000   8.444
 1361POPC   C3A20057  19.127   8.215   8.074
 1361POPC   C4A20058  18.826   8.186   7.786
 1361POPC   C1B20059  18.829   8.396   8.684
 1361POPC   C2B20060  18.681   8.421   8.297
 1361POPC   C3B20061  18.794   8.679   8.003
 1361POPC   C4B20062  18.847   8.637   7.562
 1362POPC   NC320063  42.022  23.337   9.346
 1362POPC   PO420064  42.402  22.974   9.753
 1362POPC   GL120065  42.423  23.015   9.241
 1362POPC   GL220066  42.142  23.067   8.951
 1362POPC   C1A20067  42.568  22.908   8.795
 1362POPC   D2A20068  42.439  23.148   8.425
 1362POPC   C3A20069  42.422  22.852   8.074
 1362POPC   C4A20070  42.052  22.765   7.862
 1362POPC   C1B20071  41.995  23.388   8.660
 1362POPC   C2B20072  41.918  23.294   8.244
 1362POPC   C3B20073  42.200  23.275   7.920
 1362POPC   C4B20074  42.314  23.090   7.521
 1363POPC   NC320075  35.624   2.954   9.510
 1363POPC   PO420076  35.257   2.358   9.502
 1363POPC   GL120077  35.431   2.597   9.189
 1363POPC   GL220078  35.795   2.599   9.174
 1363POPC   C1A20079  35.303   2.857   8.869
 1363POPC   D2A20080  35.326   3.224   8.604
 1363POPC   C3A20081  35.383   3.028   8.217
 1363POPC   C4A20082  35.322   2.836   7.825
 1363POPC   C1B20083  35.791   2.810   8.755
 1363POPC   C2B20084  35.871   2.824   8.302
 1363POPC   C3B20085  35.870   2.863   7.852
 1363POPC   C4B20086  35.659   2.825   7.433
 1364POPC   NC320087  42.624   8.689   9.453
 1364POPC   PO420088  42.067   9.036   9.640
 1364POPC   GL120089  42.295   9.012   9.240
 1364POPC   GL220090  42.016   9.216   9.145
 1364POPC   C1A20091  42.436   9.126   8.797
 1364POPC   D2A20092  42.641   9.164   8.344
 1364POPC   C3A20093  42.603   9.254   7.925
 1364POPC   C4A20094  42.582   8.878   7.738
 1364POPC   C1B20095  42.007   8.847   8.873
 1364POPC   C2B20096  42.011   9.014   8.474
 1364POPC   C3B20097  42.200   8.964   8.082
 1364POPC   C4B20098  42.064   8.929   7.677
 1365POPC   NC320099   1.115   0.767   9.509
 1365POPC   PO420100   1.473   0.192   9.541
 1365POPC   GL120101   1.282   0.381   9.222
 1365POPC   GL220102   1.571   0.542   9.125
 1365POPC   C1A20103   1.068   0.454   8.867
 1365POPC   D2A20104   1.177   0.344   8.444
 1365POPC   C3A20105   0.966   0.518   8.135
 1365POPC   C4A20106   1.075   0.432   7.740
 1365POPC   C1B20107   1.548   0.250   8.786
 1365POPC   C2B20108   1.723   0.223   8.391
 1365POPC   C3B20109   1.544   0.356   8.038
 1365POPC   C4B20110   1.540   0.670   7.735
 1366POPC   NC320111  19.688  26.152   9.652
 1366POPC   PO420112  20.019  25.603   9.557
 1366POPC   GL120113  19.992  25.837   9.166
 1366POPC   GL220114  19.682  25.851   9.213
 1366POPC   C1A20115  19.863  25.997   8.730
 1366POPC   D2A20116  19.644  26.197   8.351
 1366POPC   C3A20117  19.756  26.121   7.910
 1366POPC   C4A20118  19.549  26.165   7.476
 1366POPC   C1B20119  19.567  25.598   8.885
 1366POPC   C2B20120  19.510  25.608   8.460
 1366POPC   C3B20121  19.435  25.751   8.054
 1366POPC   C4B20122  19.644  25.674   7.653
 1367POPC   NC320123   8.153  26.504   9.470
 1367POPC   PO420124   8.172  25.853   9.438
 1367POPC   GL120125   7.996  25.869   9.049
 1367POPC   GL220126   7.808  26.156   9.168
 1367POPC   C1A20127   8.347  25.787   8.796
 1367POPC   D2A20128   8.578  25.895   8.487
 1367POPC   C3A20129   8.366  25.989   8.140
 1367POPC   C4A20130   8.166  25.736   7.860
 1367POPC   C1B20131   8.018  26.377   8.831
 1367POPC   C2B20132   7.968  26.468   8.400
 1367POPC   C3B20133   8.168  26.453   8.006
 1367POPC   C4B20134   8.242  26.209   7.670
 1368POPC   NC320135  19.418   1.723   9.481
 1368POPC   PO420136  18.830   2.147   9.388
 1368POPC   GL120137  19.074   1.928   9.095
 1368POPC   GL220138  18.822   2.018   8.880
 1368POPC   C1A20139  19.281   1.954   8.690
 1368POPC   D2A20140  19.058   2.119   8.326
 1368POPC   C3A20141  19.227   1.930   7.962
 1368POPC   C4A20142  19.310   2.002   7.549
 1368POPC   C1B20143  18.630   1.718   8.694
 1368POPC   C2B20144  18.571   1.547   8.328
 1368POPC   C3B20145  18.728   1.746   7.968
 1368POPC   C4B20146  18.850   1.747   7.557
 1369POPC   NC320147  40.745  42.223   9.478
 1369POPC   PO420148  40.675  42.888   9.578
 1369POPC   GL120149  40.827  42.695   9.193
 1369POPC   GL220150  41.107  42.464   9.185
 1369POPC   C1A20151  40.764  42.422   8.811
 1369POPC   D2A20152  40.623  42.341   8.403
 1369POPC   C3A20153  40.662  42.575   8.015
 1369POPC   C4A20154  40.412  42.307   7.770
 1369POPC   C1B20155  41.282  42.286   8.800
 1369POPC   C2B20156  41.114  42.215   8.419
 1369POPC   C3B20157  41.256  42.234   8.031
 1369POPC   C4B20158  41.091  42.489   7.711
 1370POPC   NC320159  35.651  42.669   9.619
 1370POPC   PO420160  35.280  43.235   9.410
 1370POPC   GL120161  35.355  43.033   9.091
 1370POPC   GL220162  35.693  42.925   9.176
 1370POPC   C1A20163  35.238  43.090   8.645
 1370POPC   D2A20164  35.342  43.226   8.208
 1370POPC   C3A20165  35.212  42.953   7.774
 1370POPC   C4A20166  35.187  42.927   7.262
 1370POPC   C1B20167  35.722  43.165   8.796
 1370POPC   C2B20168  35.672  42.908   8.443
 1370POPC   C3B20169  35.662  42.910   8.006
 1370POPC   C4B20170  35.797  43.317   7.869
 1371POPC   NC320171   0.472   5.437   9.335
 1371POPC   PO420172   0.840   4.991   9.837
 1371POPC   GL120173   0.792   4.976   9.345
 1371POPC   GL220174   0.434   4.936   9.237
 1371POPC   C1A20175   0.799   4.983   8.867
 1371POPC   D2A20176   0.549   4.894   8.497
 1371POPC   C3A20177   0.624   5.018   8.078
 1371POPC   C4A20178   0.286   5.279   7.877
 1371POPC   C1B20179   0.200   4.726   8.895
 1371POPC   C2B20180   0.154   4.541   8.465
 1371POPC   C3B20181   0.191   4.702   8.041
 1371POPC   C4B20182  44.934   4.945   7.751
 1372POPC   NC320183  35.552  40.796   9.696
 1372POPC   PO420184  36.299  40.800   9.575
 1372POPC   GL120185  36.122  40.796   9.179
 1372POPC   GL220186  36.314  41.092   9.107
 1372POPC   C1A20187  36.101  40.623   8.748
 1372POPC   D2A20188  36.334  40.667   8.368
 1372POPC   C3A20189  36.157  40.471   8.018
 1372POPC   C4A20190  36.380  40.329   7.676
 1372POPC   C1B20191  36.018  41.130   8.786
 1372POPC   C2B20192  36.010  41.229   8.380
 1372POPC   C3B20193  36.181  41.054   8.040
 1372POPC   C4B20194  36.219  40.831   7.669
 1373POPC   NC320195  35.342  28.827   9.745
 1373POPC   PO420196  35.585  28.221   9.458
 1373POPC   GL120197  35.503  28.388   9.051
 1373POPC   GL220198  35.151  28.506   8.926
 1373POPC   C1A20199  35.564  28.522   8.617
 1373POPC   D2A20200  35.487  28.329   8.222
 1373POPC   C3A20201  35.532  28.599   7.870
 1373POPC   C4A20202  35.212  28.922   7.862
 1373POPC   C1B20203  35.244  28.072   8.732
 1373POPC   C2B20204  35.067  27.838   8.385
 1373POPC   C3B20205  34.962  28.002   7.989
 1373POPC   C4B20206  35.069  28.419   7.879
 1374POPC   NC320207  35.155   1.092   9.507
 1374POPC   PO420208  35.732   1.485   9.510
 1374POPC   GL120209  35.539   1.215   9.192
 1374POPC   GL220210  35.436   0.860   9.128
 1374POPC   C1A20211  35.318   1.253   8.817
 1374POPC   D2A20212  35.580   1.289   8.484
 1374POPC   C3A20213  35.395   1.490   8.175
 1374POPC   C4A20214  35.681   1.464   7.875
 1374POPC   C1B20215  35.235   0.753   8.692
 1374POPC   C2B20216  35.150   1.036   8.338
 1374POPC   C3B20217  35.273   1.081   7.868
 1374POPC   C4B20218  35.232   1.013   7.400
 1375POPC   NC320219  35.508   7.626   9.378
 1375POPC   PO420220  35.096   7.055   9.196
 1375POPC   GL120221  35.406   7.295   9.029
 1375POPC   GL220222  35.174   7.594   8.992
 1375POPC   C1A20223  35.718   7.361   8.726
 1375POPC   D2A20224  35.486   7.199   8.404
 1375POPC   C3A20225  35.462   7.443   8.060
 1375POPC   C4A20226  35.627   7.627   7.714
 1375POPC   C1B20227  35.171   7.604   8.549
 1375POPC   C2B20228  34.959   7.587   8.156
 1375POPC   C3B20229  35.135   7.740   7.774
 1375POPC   C4B20230  35.067   7.666   7.317
 1376POPC   NC320231  32.617   3.388   9.454
 1376POPC   PO420232  33.361   3.191   9.413
 1376POPC   GL120233  33.023   3.504   9.170
 1376POPC   GL220234  32.843   3.820   9.285
 1376POPC   C1A20235  32.862   3.530   8.780
 1376POPC   D2A20236  32.711   3.437   8.413
 1376POPC   C3A20237  32.869   3.566   8.043
 1376POPC   C4A20238  32.727   3.399   7.692
 1376POPC   C1B20239  32.858   4.021   8.892
 1376POPC   C2B20240  32.952   3.932   8.453
 1376POPC   C3B20241  32.884   4.084   8.054
 1376POPC   C4B20242  32.845   3.921   7.665
 1377POPC   NC320243  32.051  13.865   9.812
 1377POPC   PO420244  32.421  14.392   9.548
 1377POPC   GL120245  32.182  14.428   9.189
 1377POPC   GL220246  32.520  14.360   9.035
 1377POPC   C1A20247  32.119  14.513   8.751
 1377POPC   D2A20248  32.492  14.541   8.482
 1377POPC   C3A20249  32.393  14.668   8.057
 1377POPC   C4A20250  32.112  14.396   7.820
 1377POPC   C1B20251  32.712  14.102   8.735
 1377POPC   C2B20252  32.555  14.020   8.319
 1377POPC   C3B20253  32.664  13.959   7.877
 1377POPC   C4B20254  32.545  14.283   7.573
 1378POPC   NC320255  40.447  25.212   9.333
 1378POPC   PO420256  41.012  25.579   9.442
 1378POPC   GL120257  40.884  25.337   9.074
 1378POPC   GL220258  40.853  24.965   9.062
 1378POPC   C1A20259  40.711  25.373   8.659
 1378POPC   D2A20260  40.514  25.229   8.274
 1378POPC   C3A20261  40.597  25.427   7.893
 1378POPC   C4A20262  40.330  25.566   7.556
 1378POPC   C1B20263  41.075  24.995   8.644
 1378POPC   C2B20264  41.024  25.236   8.243
 1378POPC   C3B20265  41.011  25.124   7.805
 1378POPC   C4B20266  41.113  24.895   7.426
 1379POPC   NC320267   6.605  31.204   9.474
 1379POPC   PO420268   6.350  31.811   9.580
 1379POPC   GL120269   6.649  31.756   9.196
 1379POPC   GL220270   6.688  31.411   9.026
 1379POPC   C1A20271   6.559  31.790   8.721
 1379POPC   D2A20272   6.493  31.502   8.356
 1379POPC   C3A20273   6.886  31.459   8.124
 1379POPC   C4A20274   7.008  31.730   7.778
 1379POPC   C1B20275   6.701  31.144   8.674
 1379POPC   C2B20276   6.489  30.880   8.383
 1379POPC   C3B20277   6.539  31.044   7.989
 1379POPC   C4B20278   6.310  31.054   7.620
 1380POPC   NC320279  29.870  30.306   9.397
 1380POPC   PO420280  29.948  29.615   9.518
 1380POPC   GL120281  30.054  29.864   9.177
 1380POPC   GL220282  29.703  29.894   9.130
 1380POPC   C1A20283  30.062  30.094   8.778
 1380POPC   D2A20284  30.051  29.963   8.325
 1380POPC   C3A20285  30.181  29.950   7.862
 1380POPC   C4A20286  29.998  29.886   7.435
 1380POPC   C1B20287  29.552  30.174   8.789
 1380POPC   C2B20288  29.414  30.169   8.360
 1380POPC   C3B20289  29.634  30.063   8.021
 1380POPC   C4B20290  29.562  29.906   7.659
 1381POPC   NC320291  43.362  36.817   9.168
 1381POPC   PO420292  42.820  37.153   9.471
 1381POPC   GL120293  42.899  37.001   9.082
 1381POPC   GL220294  42.875  36.631   9.101
 1381POPC   C1A20295  43.122  37.207   8.712
 1381POPC   D2A20296  43.269  37.004   8.351
 1381POPC   C3A20297  43.080  37.125   7.978
 1381POPC   C4A20298  43.198  37.043   7.609
 1381POPC   C1B20299  42.931  36.707   8.663
 1381POPC   C2B20300  42.744  36.868   8.311
 1381POPC   C3B20301  42.767  36.732   7.917
 1381POPC   C4B20302  42.997  36.566   7.619
 1382POPC   NC320303  27.859  10.381   9.612
 1382POPC   PO420304  28.519  10.380   9.643
 1382POPC   GL120305  28.477  10.507   9.231
 1382POPC   GL220306  28.138  10.575   9.227
 1382POPC   C1A20307  28.600  10.682   8.842
 1382POPC   D2A20308  28.731  10.696   8.429
 1382POPC   C3A20309  28.631  10.456   8.093
 1382POPC   C4A20310  28.565  10.603   7.673
 1382POPC   C1B20311  28.085  10.660   8.799
 1382POPC   C2B20312  28.203  10.487   8.397
 1382POPC   C3B20313  28.137  10.499   7.946
 1382POPC   C4B20314  28.179  10.288   7.544
 1383POPC   NC320315  26.289  34.384   9.849
 1383POPC   PO420316  25.761  34.637   9.588
 1383POPC   GL120317  26.001  34.505   9.252
 1383POPC   GL220318  25.808  34.198   9.236
 1383POPC   C1A20319  26.218  34.602   8.843
 1383POPC   D2A20320  26.030  34.570   8.418
 1383POPC   C3A20321  26.258  34.637   8.024
 1383POPC   C4A20322  26.204  34.392   7.663
 1383POPC   C1B20323  25.768  34.308   8.817
 1383POPC   C2B20324  25.790  34.095   8.436
 1383POPC   C3B20325  25.860  34.242   8.038
 1383POPC   C4B20326  25.769  34.062   7.656
 1384POPC   NC320327  30.448  29.709   9.499
 1384POPC   PO420328  31.101  30.017   9.542
 1384POPC   GL120329  30.876  30.107   9.155
 1384POPC   GL220330  30.541  30.035   9.054
 1384POPC   C1A20331  30.990  30.158   8.739
 1384POPC   D2A20332  30.958  30.025   8.297
 1384POPC   C3A20333  30.569  30.188   8.075
 1384POPC   C4A20334  30.581  30.398   7.684
 1384POPC   C1B20335  30.522  30.047   8.583
 1384POPC   C2B20336  30.534  29.718   8.268
 1384POPC   C3B20337  30.629  29.641   7.834
 1384POPC   C4B20338  30.518  29.900   7.465
 1385POPC   NC320339  30.014   2.392   9.551
 1385POPC   PO420340  30.228   3.043   9.441
 1385POPC   GL120341  29.937   2.890   9.167
 1385POPC   GL220342  30.005   2.558   9.094
 1385POPC   C1A20343  29.777   2.906   8.750
 1385POPC   D2A20344  29.849   3.101   8.368
 1385POPC   C3A20345  29.949   2.931   7.987
 1385POPC   C4A20346  30.182   2.881   7.581
 1385POPC   C1B20347  30.160   2.573   8.727
 1385POPC   C2B20348  29.964   2.541   8.373
 1385POPC   C3B20349  30.212   2.520   7.999
 1385POPC   C4B20350  30.235   2.359   7.662
 1386POPC   NC320351  39.607  42.387   9.499
 1386POPC   PO420352  40.278  42.193   9.339
 1386POPC   GL120353  39.886  42.171   9.113
 1386POPC   GL220354  39.788  42.498   9.018
 1386POPC   C1A20355  39.901  42.116   8.676
 1386POPC   D2A20356  40.126  42.214   8.313
 1386POPC   C3A20357  39.994  42.029   7.961
 1386POPC   C4A20358  39.925  42.254   7.627
 1386POPC   C1B20359  40.181  42.536   8.746
 1386POPC   C2B20360  40.258  42.701   8.334
 1386POPC   C3B20361  40.088  42.659   7.933
 1386POPC   C4B20362  39.687  42.671   7.769
 1387POPC   NC320363  18.264   0.203   9.468
 1387POPC   PO420364  18.168   0.868   9.627
 1387POPC   GL120365  18.259   0.755   9.176
 1387POPC   GL220366  18.316   0.390   9.016
 1387POPC   C1A20367  18.267   0.774   8.725
 1387POPC   D2A20368  18.147   0.418   8.488
 1387POPC   C3A20369  18.130   0.464   8.049
 1387POPC   C4A20370  18.161   0.561   7.602
 1387POPC   C1B20371  18.628   0.410   8.684
 1387POPC   C2B20372  18.690   0.580   8.264
 1387POPC   C3B20373  18.619   0.449   7.828
 1387POPC   C4B20374  18.480   0.214   7.418
 1388POPC   NC320375  22.224   1.804   9.503
 1388POPC   PO420376  22.449   2.223   9.136
 1388POPC   GL120377  22.346   1.825   8.993
 1388POPC   GL220378  22.008   1.825   9.054
 1388POPC   C1A20379  22.275   1.907   8.579
 1388POPC   D2A20380  22.206   2.194   8.276
 1388POPC   C3A20381  22.203   1.929   7.938
 1388POPC   C4A20382  22.193   2.144   7.590
 1388POPC   C1B20383  21.875   2.156   8.763
 1388POPC   C2B20384  21.707   2.130   8.344
 1388POPC   C3B20385  21.755   2.207   7.890
 1388POPC   C4B20386  21.517   2.239   7.519
 1389POPC   NC320387  24.306  25.089   9.500
 1389POPC   PO420388  24.903  25.313   9.483
 1389POPC   GL120389  24.563  25.391   9.156
 1389POPC   GL220390  24.290  25.137   9.009
 1389POPC   C1A20391  24.640  25.357   8.731
 1389POPC   D2A20392  24.720  25.571   8.420
 1389POPC   C3A20393  24.763  25.372   8.096
 1389POPC   C4A20394  24.703  25.278   7.713
 1389POPC   C1B20395  24.094  25.451   8.772
 1389POPC   C2B20396  23.934  25.354   8.354
 1389POPC   C3B20397  24.238  25.373   7.999
 1389POPC   C4B20398  24.233  25.343   7.556
 1390POPC   NC320399  32.882  38.762   9.555
 1390POPC   PO420400  33.021  38.075   9.500
 1390POPC   GL120401  32.930  38.384   9.190
 1390POPC   GL220402  33.204  38.629   9.169
 1390POPC   C1A20403  32.812  38.225   8.818
 1390POPC   D2A20404  33.019  38.211   8.435
 1390POPC   C3A20405  32.837  38.281   8.029
 1390POPC   C4A20406  33.113  38.160   7.712
 1390POPC   C1B20407  33.262  38.783   8.768
 1390POPC   C2B20408  33.191  38.660   8.357
 1390POPC   C3B20409  33.405  38.345   8.101
 1390POPC   C4B20410  33.572  38.493   7.686
 1391POPC   NC320411  41.337  16.974   9.535
 1391POPC   PO420412  41.668  16.400   9.563
 1391POPC   GL120413  41.527  16.601   9.210
 1391POPC   GL220414  41.714  16.901   9.177
 1391POPC   C1A20415  41.669  16.589   8.787
 1391POPC   D2A20416  41.778  16.760   8.418
 1391POPC   C3A20417  41.489  16.675   8.107
 1391POPC   C4A20418  41.608  16.670   7.714
 1391POPC   C1B20419  41.602  17.115   8.790
 1391POPC   C2B20420  41.408  17.116   8.388
 1391POPC   C3B20421  41.560  17.162   7.952
 1391POPC   C4B20422  41.307  17.069   7.593
 1392POPC   NC320423  34.344  30.906   9.777
 1392POPC   PO420424  34.795  30.523   9.566
 1392POPC   GL120425  34.515  30.662   9.222
 1392POPC   GL220426  34.368  30.972   9.258
 1392POPC   C1A20427  34.602  30.600   8.799
 1392POPC   D2A20428  34.349  30.709   8.413
 1392POPC   C3A20429  34.630  30.806   8.074
 1392POPC   C4A20430  34.730  30.509   7.769
 1392POPC   C1B20431  34.402  31.053   8.822
 1392POPC   C2B20432  34.391  31.200   8.381
 1392POPC   C3B20433  34.262  31.167   7.969
 1392POPC   C4B20434  34.461  30.973   7.599
 1393POPC   NC320435  38.848  34.611   9.513
 1393POPC   PO420436  39.493  34.548   9.559
 1393POPC   GL120437  39.278  34.615   9.191
 1393POPC   GL220438  39.075  34.327   9.138
 1393POPC   C1A20439  39.388  34.839   8.807
 1393POPC   D2A20440  39.442  34.692   8.367
 1393POPC   C3A20441  39.139  34.841   8.083
 1393POPC   C4A20442  39.310  34.945   7.720
 1393POPC   C1B20443  39.224  34.351   8.741
 1393POPC   C2B20444  38.984  34.465   8.404
 1393POPC   C3B20445  38.982  34.358   8.008
 1393POPC   C4B20446  39.320  34.450   7.797
 1394POPC   NC320447  18.646  13.106   9.579
 1394POPC   PO420448  18.137  12.651   9.569
 1394POPC   GL120449  18.119  12.892   9.193
 1394POPC   GL220450  18.432  12.773   9.082
 1394POPC   C1A20451  18.159  13.052   8.750
 1394POPC   D2A20452  17.994  12.851   8.392
 1394POPC   C3A20453  17.983  13.074   8.000
 1394POPC   C4A20454  18.004  12.865   7.607
 1394POPC   C1B20455  18.657  12.892   8.711
 1394POPC   C2B20456  18.479  12.951   8.319
 1394POPC   C3B20457  18.433  12.806   7.903
 1394POPC   C4B20458  18.547  13.195   7.785
 1395POPC   NC320459  10.490  23.163   9.467
 1395POPC   PO420460  10.764  22.578   9.526
 1395POPC   GL120461  10.756  22.795   9.107
 1395POPC   GL220462  10.405  22.887   9.035
 1395POPC   C1A20463  10.700  22.907   8.644
 1395POPC   D2A20464  10.360  22.898   8.353
 1395POPC   C3A20465  10.481  22.709   7.969
 1395POPC   C4A20466  10.885  22.857   7.881
 1395POPC   C1B20467  10.333  23.258   8.750
 1395POPC   C2B20468  10.602  23.422   8.428
 1395POPC   C3B20469  10.569  23.261   8.015
 1395POPC   C4B20470  10.157  23.286   7.833
 1396POPC   NC320471  37.979  31.574   9.435
 1396POPC   PO420472  38.700  31.598   9.695
 1396POPC   GL120473  38.395  31.778   9.278
 1396POPC   GL220474  38.295  31.516   9.055
 1396POPC   C1A20475  38.495  31.884   8.787
 1396POPC   D2A20476  38.325  31.682   8.405
 1396POPC   C3A20477  38.513  31.492   8.050
 1396POPC   C4A20478  38.555  31.733   7.694
 1396POPC   C1B20479  38.308  31.247   8.706
 1396POPC   C2B20480  38.406  30.963   8.367
 1396POPC   C3B20481  38.367  30.994   7.941
 1396POPC   C4B20482  38.014  31.266   7.888
 1397POPC   NC320483  21.661  25.077   9.809
 1397POPC   PO420484  22.221  25.310   9.559
 1397POPC   GL120485  22.344  25.380   9.177
 1397POPC   GL220486  22.464  25.025   9.184
 1397POPC   C1A20487  22.132  25.508   8.788
 1397POPC   D2A20488  21.901  25.351   8.384
 1397POPC   C3A20489  21.883  25.555   7.987
 1397POPC   C4A20490  21.972  25.396   7.560
 1397POPC   C1B20491  22.344  25.062   8.769
 1397POPC   C2B20492  22.408  25.266   8.399
 1397POPC   C3B20493  22.542  25.014   8.068
 1397POPC   C4B20494  22.386  25.026   7.643
 1398POPC   NC320495   2.544  28.431   9.669
 1398POPC   PO420496   2.864  27.900   9.656
 1398POPC   GL120497   2.817  28.266   9.283
 1398POPC   GL220498   2.557  28.505   9.154
 1398POPC   C1A20499   2.868  28.291   8.796
 1398POPC   D2A20500   2.671  28.167   8.384
 1398POPC   C3A20501   2.845  28.365   7.994
 1398POPC   C4A20502   2.892  28.317   7.501
 1398POPC   C1B20503   2.536  28.785   8.783
 1398POPC   C2B20504   2.508  28.683   8.369
 1398POPC   C3B20505   2.425  28.758   7.961
 1398POPC   C4B20506   2.441  28.448   7.672
 1399POPC   NC320507  38.864  31.107   9.434
 1399POPC   PO420508  38.548  30.464   9.443
 1399POPC   GL120509  38.505  30.822   9.201
 1399POPC   GL220510  38.213  31.025   9.184
 1399POPC   C1A20511  38.611  30.811   8.803
 1399POPC   D2A20512  38.540  30.441   8.569
 1399POPC   C3A20513  38.429  30.505   8.158
 1399POPC   C4A20514  38.347  30.476   7.755
 1399POPC   C1B20515  38.111  30.775   8.816
 1399POPC   C2B20516  37.997  30.618   8.426
 1399POPC   C3B20517  37.901  30.760   8.018
 1399POPC   C4B20518  38.022  30.834   7.600
 1400POPC   NC320519  44.199  31.613   9.431
 1400POPC   PO420520  43.749  31.122   9.684
 1400POPC   GL120521  43.708  31.407   9.297
 1400POPC   GL220522  43.977  31.325   9.055
 1400POPC   C1A20523  43.638  31.652   8.881
 1400POPC   D2A20524  43.715  31.419   8.470
 1400POPC   C3A20525  43.631  31.539   8.035
 1400POPC   C4A20526  43.725  31.269   7.698
 1400POPC   C1B20527  44.192  31.653   8.778
 1400POPC   C2B20528  44.392  31.565   8.389
 1400POPC   C3B20529  44.238  31.403   8.009
 1400POPC   C4B20530  44.051  31.635   7.693
 1401POPC   NC320531  17.912  38.210   9.500
 1401POPC   PO420532  18.500  38.537   9.471
 1401POPC   GL120533  18.226  38.437   9.166
 1401POPC   GL220534  18.493  38.248   9.030
 1401POPC   C1A20535  17.989  38.341   8.815
 1401POPC   D2A20536  17.986  38.534   8.428
 1401POPC   C3A20537  18.153  38.320   8.078
 1401POPC   C4A20538  18.102  38.411   7.643
 1401POPC   C1B20539  18.466  38.497   8.656
 1401POPC   C2B20540  18.628  38.476   8.238
 1401POPC   C3B20541  18.634  38.170   7.902
 1401POPC   C4B20542  18.614  38.111   7.450
 1402POPC   NC320543  18.744  21.910   9.489
 1402POPC   PO420544  19.257  22.356   9.543
 1402POPC   GL120545  19.121  22.151   9.169
 1402POPC   GL220546  18.812  22.274   9.127
 1402POPC   C1A20547  19.134  22.191   8.715
 1402POPC   D2A20548  19.003  22.411   8.322
 1402POPC   C3A20549  19.155  22.123   8.039
 1402POPC   C4A20550  19.341  22.236   7.679
 1402POPC   C1B20551  18.644  21.985   8.836
 1402POPC   C2B20552  18.766  21.969   8.408
 1402POPC   C3B20553  18.635  22.021   7.997
 1402POPC   C4B20554  18.589  21.723   7.685
 1403POPC   NC320555  28.170  39.090   9.932
 1403POPC   PO420556  28.680  39.014   9.490
 1403POPC   GL120557  28.521  39.289   9.144
 1403POPC   GL220558  28.230  39.476   9.307
 1403POPC   C1A20559  28.391  39.064   8.760
 1403POPC   D2A20560  28.568  38.968   8.365
 1403POPC   C3A20561  28.492  39.179   7.952
 1403POPC   C4A20562  28.752  39.239   7.577
 1403POPC   C1B20563  28.174  39.540   8.848
 1403POPC   C2B20564  28.174  39.352   8.412
 1403POPC   C3B20565  28.054  39.545   8.031
 1403POPC   C4B20566  28.399  39.660   7.793
 1404POPC   NC320567  13.166  13.486   9.411
 1404POPC   PO420568  12.791  14.079   9.462
 1404POPC   GL120569  13.002  13.896   9.140
 1404POPC   GL220570  12.863  13.587   8.986
 1404POPC   C1A20571  13.061  14.007   8.730
 1404POPC   D2A20572  12.937  13.724   8.474
 1404POPC   C3A20573  12.995  13.752   8.064
 1404POPC   C4A20574  13.217  13.527   7.771
 1404POPC   C1B20575  12.506  13.565   8.668
 1404POPC   C2B20576  12.521  13.532   8.170
 1404POPC   C3B20577  12.670  13.556   7.737
 1404POPC   C4B20578  12.520  13.803   7.361
 1405POPC   NC320579  26.552  13.855   9.282
 1405POPC   PO420580  27.134  13.628   9.396
 1405POPC   GL120581  26.908  13.458   9.066
 1405POPC   GL220582  26.561  13.399   9.079
 1405POPC   C1A20583  26.955  13.466   8.645
 1405POPC   D2A20584  26.947  13.773   8.327
 1405POPC   C3A20585  26.923  13.520   7.995
 1405POPC   C4A20586  27.088  13.144   7.871
 1405POPC   C1B20587  26.518  13.689   8.684
 1405POPC   C2B20588  26.342  13.797   8.341
 1405POPC   C3B20589  26.546  13.858   7.968
 1405POPC   C4B20590  26.844  13.903   7.640
 1406POPC   NC320591   9.753   7.617   9.573
 1406POPC   PO420592   9.902   7.014   9.340
 1406POPC   GL120593   9.547   7.334   9.187
 1406POPC   GL220594   9.598   7.741   9.121
 1406POPC   C1A20595   9.458   7.188   8.798
 1406POPC   D2A20596   9.682   7.234   8.435
 1406POPC   C3A20597   9.484   7.379   8.090
 1406POPC   C4A20598   9.536   7.362   7.635
 1406POPC   C1B20599   9.759   7.650   8.738
 1406POPC   C2B20600   9.880   7.681   8.315
 1406POPC   C3B20601   9.731   7.763   7.898
 1406POPC   C4B20602   9.659   7.835   7.450
 1407POPC   NC320603  21.427  29.101   9.568
 1407POPC   PO420604  21.113  28.628   9.518
 1407POPC   GL120605  21.265  28.883   9.128
 1407POPC   GL220606  21.359  29.278   9.113
 1407POPC   C1A20607  21.369  28.993   8.693
 1407POPC   D2A20608  21.481  29.161   8.304
 1407POPC   C3A20609  21.304  28.856   8.028
 1407POPC   C4A20610  21.424  28.802   7.607
 1407POPC   C1B20611  21.577  29.461   8.747
 1407POPC   C2B20612  21.737  29.632   8.341
 1407POPC   C3B20613  21.614  29.506   7.927
 1407POPC   C4B20614  21.270  29.288   7.765
 1408POPC   NC320615   6.176  36.543   9.392
 1408POPC   PO420616   6.334  37.128   9.550
 1408POPC   GL120617   6.554  37.051   9.167
 1408POPC   GL220618   6.564  36.690   9.066
 1408POPC   C1A20619   6.806  37.103   8.795
 1408POPC   D2A20620   6.698  36.925   8.415
 1408POPC   C3A20621   6.878  36.760   8.065
 1408POPC   C4A20622   6.864  36.958   7.710
 1408POPC   C1B20623   6.282  36.838   8.730
 1408POPC   C2B20624   6.211  36.849   8.298
 1408POPC   C3B20625   6.376  36.832   7.905
 1408POPC   C4B20626   6.365  36.559   7.600
 1409POPC   NC320627  39.238  27.281   9.450
 1409POPC   PO420628  38.974  27.963   9.561
 1409POPC   GL120629  39.088  27.798   9.158
 1409POPC   GL220630  39.024  27.477   9.033
 1409POPC   C1A20631  38.830  27.836   8.742
 1409POPC   D2A20632  38.872  27.601   8.342
 1409POPC   C3A20633  39.103  27.872   8.077
 1409POPC   C4A20634  39.427  27.851   7.798
 1409POPC   C1B20635  39.295  27.640   8.668
 1409POPC   C2B20636  39.405  27.505   8.244
 1409POPC   C3B20637  39.092  27.385   7.897
 1409POPC   C4B20638  39.100  27.152   7.481
 1410POPC   NC320639   9.933  14.601   9.503
 1410POPC   PO420640   9.400  14.210   9.402
 1410POPC   GL120641   9.701  14.352   9.139
 1410POPC   GL220642   9.540  14.679   9.196
 1410POPC   C1A20643   9.745  14.255   8.727
 1410POPC   D2A20644   9.460  14.071   8.435
 1410POPC   C3A20645   9.620  14.231   8.062
 1410POPC   C4A20646  10.062  14.294   8.007
 1410POPC   C1B20647   9.402  14.861   8.837
 1410POPC   C2B20648   9.505  14.652   8.457
 1410POPC   C3B20649   9.622  14.803   8.061
 1410POPC   C4B20650   9.777  14.615   7.687
 1411POPC   NC320651   5.568  35.117   9.355
 1411POPC   PO420652   5.981  35.530   9.758
 1411POPC   GL120653   6.043  35.420   9.289
 1411POPC   GL220654   6.029  35.125   9.139
 1411POPC   C1A20655   5.939  35.488   8.800
 1411POPC   D2A20656   5.778  35.301   8.428
 1411POPC   C3A20657   5.901  35.500   8.047
 1411POPC   C4A20658   5.811  35.523   7.626
 1411POPC   C1B20659   6.066  34.992   8.750
 1411POPC   C2B20660   6.149  34.820   8.383
 1411POPC   C3B20661   5.944  34.995   8.029
 1411POPC   C4B20662   5.905  35.005   7.616
 1412POPC   NC320663  24.662  13.581   9.713
 1412POPC   PO420664  24.095  13.689   9.547
 1412POPC   GL120665  24.507  13.619   9.229
 1412POPC   GL220666  24.569  13.306   9.039
 1412POPC   C1A20667  24.769  13.709   8.813
 1412POPC   D2A20668  24.609  13.601   8.365
 1412POPC   C3A20669  24.702  13.727   7.931
 1412POPC   C4A20670  24.483  13.929   7.578
 1412POPC   C1B20671  24.918  13.231   8.733
 1412POPC   C2B20672  24.987  13.237   8.298
 1412POPC   C3B20673  24.687  13.209   7.972
 1412POPC   C4B20674  24.525  13.363   7.568
 1413POPC   NC320675   4.363  39.108   9.579
 1413POPC   PO420676   4.113  39.681   9.389
 1413POPC   GL120677   4.343  39.380   9.124
 1413POPC   GL220678   4.296  39.000   9.093
 1413POPC   C1A20679   4.542  39.425   8.732
 1413POPC   D2A20680   4.250  39.514   8.402
 1413POPC   C3A20681   4.365  39.403   8.020
 1413POPC   C4A20682   4.125  39.369   7.671
 1413POPC   C1B20683   4.226  39.023   8.668
 1413POPC   C2B20684   4.004  39.052   8.309
 1413POPC   C3B20685   4.160  38.927   7.947
 1413POPC   C4B20686   4.253  38.874   7.533
 1414POPC   NC320687  22.782  28.134   9.517
 1414POPC   PO420688  22.744  28.799   9.470
 1414POPC   GL120689  22.863  28.513   9.169
 1414POPC   GL220690  23.137  28.607   9.031
 1414POPC   C1A20691  22.758  28.387   8.750
 1414POPC   D2A20692  22.487  28.238   8.492
 1414POPC   C3A20693  22.680  28.350   8.182
 1414POPC   C4A20694  22.733  28.334   7.796
 1414POPC   C1B20695  23.225  28.258   8.816
 1414POPC   C2B20696  23.105  28.119   8.425
 1414POPC   C3B20697  23.194  28.293   8.034
 1414POPC   C4B20698  23.179  28.552   7.702
 1415POPC   NC320699  18.862  44.402   9.451
 1415POPC   PO420700  19.430  44.789   9.621
 1415POPC   GL120701  19.181  44.760   9.216
 1415POPC   GL220702  19.467  44.617   9.115
 1415POPC   C1A20703  18.964  44.551   8.831
 1415POPC   D2A20704  18.711  44.682   8.501
 1415POPC   C3A20705  18.769  44.567   8.079
 1415POPC   C4A20706  18.884  44.378   7.712
 1415POPC   C1B20707  19.440  44.581   8.714
 1415POPC   C2B20708  19.225  44.678   8.366
 1415POPC   C3B20709  19.287  44.461   8.013
 1415POPC   C4B20710  19.224  44.750   7.722
 1416POPC   NC320711   4.766   1.062   9.942
 1416POPC   PO420712   4.235   1.155   9.451
 1416POPC   GL120713   4.357   1.090   9.024
 1416POPC   GL220714   4.710   1.267   8.974
 1416POPC   C1A20715   4.560   0.812   8.749
 1416POPC   D2A20716   4.605   0.909   8.323
 1416POPC   C3A20717   4.245   1.152   8.147
 1416POPC   C4A20718   4.230   1.276   7.733
 1416POPC   C1B20719   4.467   1.334   8.590
 1416POPC   C2B20720   4.330   1.654   8.303
 1416POPC   C3B20721   4.398   1.725   7.879
 1416POPC   C4B20722   4.654   1.526   7.543
 1417POPC   NC320723   7.508  21.820   9.303
 1417POPC   PO420724   7.040  22.239   9.542
 1417POPC   GL120725   7.357  22.324   9.192
 1417POPC   GL220726   7.750  22.253   9.109
 1417POPC   C1A20727   7.381  22.263   8.736
 1417POPC   D2A20728   7.183  22.011   8.412
 1417POPC   C3A20729   7.206  22.232   8.021
 1417POPC   C4A20730   7.515  22.358   7.714
 1417POPC   C1B20731   7.812  22.011   8.679
 1417POPC   C2B20732   7.655  21.929   8.226
 1417POPC   C3B20733   7.522  21.861   7.777
 1417POPC   C4B20734   7.515  22.008   7.293
 1418POPC   NC320735  18.737  39.751   9.535
 1418POPC   PO420736  19.448  39.904   9.427
 1418POPC   GL120737  19.059  39.880   9.139
 1418POPC   GL220738  19.177  40.168   8.991
 1418POPC   C1A20739  18.863  39.949   8.665
 1418POPC   D2A20740  18.985  40.242   8.316
 1418POPC   C3A20741  19.057  40.085   7.913
 1418POPC   C4A20742  18.916  39.800   7.608
 1418POPC   C1B20743  19.341  39.775   8.740
 1418POPC   C2B20744  19.236  39.668   8.322
 1418POPC   C3B20745  19.460  39.759   7.934
 1418POPC   C4B20746  19.374  39.607   7.527
 1419POPC   NC320747   0.078  27.921   9.815
 1419POPC   PO420748   0.459  27.481   9.385
 1419POPC   GL120749   0.518  27.786   9.040
 1419POPC   GL220750   0.255  27.546   8.903
 1419POPC   C1A20751   0.433  27.909   8.634
 1419POPC   D2A20752   0.383  27.571   8.367
 1419POPC   C3A20753   0.348  27.782   8.016
 1419POPC   C4A20754   0.522  27.824   7.623
 1419POPC   C1B20755   0.192  27.199   8.673
 1419POPC   C2B20756   0.202  27.016   8.328
 1419POPC   C3B20757   0.220  27.087   7.939
 1419POPC   C4B20758   0.321  27.381   7.675
 1420POPC   NC320759  39.422  21.980   9.633
 1420POPC   PO420760  38.931  22.443   9.427
 1420POPC   GL120761  39.122  22.149   9.151
 1420POPC   GL220762  39.472  22.144   9.159
 1420POPC   C1A20763  39.202  21.955   8.748
 1420POPC   D2A20764  39.323  21.971   8.291
 1420POPC   C3A20765  39.001  21.827   7.958
 1420POPC   C4A20766  39.072  21.852   7.501
 1420POPC   C1B20767  39.449  22.406   8.829
 1420POPC   C2B20768  39.518  22.556   8.452
 1420POPC   C3B20769  39.606  22.394   8.109
 1420POPC   C4B20770  39.364  22.145   7.809
 1421POPC   NC320771  22.007  27.629   9.307
 1421POPC   PO420772  22.405  27.084   9.614
 1421POPC   GL120773  22.461  27.387   9.249
 1421POPC   GL220774  22.489  27.783   9.196
 1421POPC   C1A20775  22.332  27.326   8.815
 1421POPC   D2A20776  22.455  27.271   8.384
 1421POPC   C3A20777  22.166  27.402   8.079
 1421POPC   C4A20778  21.993  27.647   7.755
 1421POPC   C1B20779  22.299  27.860   8.789
 1421POPC   C2B20780  22.145  27.857   8.381
 1421POPC   C3B20781  22.366  27.967   8.011
 1421POPC   C4B20782  22.513  27.637   7.793
 1422POPC   NC320783  13.106  41.112   9.526
 1422POPC   PO420784  12.805  41.665   9.590
 1422POPC   GL120785  12.768  41.678   9.172
 1422POPC   GL220786  12.761  41.332   9.190
 1422POPC   C1A20787  12.625  41.690   8.755
 1422POPC   D2A20788  12.920  41.657   8.396
 1422POPC   C3A20789  12.767  41.681   7.980
 1422POPC   C4A20790  12.968  41.712   7.589
 1422POPC   C1B20791  12.863  41.250   8.797
 1422POPC   C2B20792  12.698  41.215   8.422
 1422POPC   C3B20793  12.518  41.233   8.044
 1422POPC   C4B20794  12.712  41.231   7.668
 1423POPC   NC320795  40.701   4.660   9.627
 1423POPC   PO420796  41.270   4.571   9.276
 1423POPC   GL120797  40.906   4.390   9.113
 1423POPC   GL220798  40.561   4.369   9.196
 1423POPC   C1A20799  40.844   4.335   8.693
 1423POPC   D2A20800  41.060   4.605   8.394
 1423POPC   C3A20801  40.980   4.428   8.013
 1423POPC   C4A20802  40.634   4.484   7.733
 1423POPC   C1B20803  40.447   3.997   8.927
 1423POPC   C2B20804  40.520   3.925   8.495
 1423POPC   C3B20805  40.581   4.139   8.154
 1423POPC   C4B20806  40.367   4.046   7.807
 1424POPC   NC320807  32.103  24.130   9.851
 1424POPC   PO420808  31.588  24.443   9.614
 1424POPC   GL120809  31.468  24.455   9.181
 1424POPC   GL220810  31.156  24.503   9.045
 1424POPC   C1A20811  31.512  24.254   8.760
 1424POPC   D2A20812  31.504  24.335   8.313
 1424POPC   C3A20813  31.464  24.660   8.030
 1424POPC   C4A20814  31.216  24.798   7.698
 1424POPC   C1B20815  30.991  24.235   8.730
 1424POPC   C2B20816  31.052  24.109   8.341
 1424POPC   C3B20817  31.099  24.307   7.942
 1424POPC   C4B20818  31.124  24.311   7.477
 1425POPC   NC320819   9.151  26.439   9.454
 1425POPC   PO420820   9.064  25.688   9.452
 1425POPC   GL120821   9.120  25.885   9.087
 1425POPC   GL220822   8.754  25.965   9.072
 1425POPC   C1A20823   9.056  25.988   8.659
 1425POPC   D2A20824   8.956  26.121   8.275
 1425POPC   C3A20825   9.016  25.877   7.980
 1425POPC   C4A20826   9.065  26.096   7.648
 1425POPC   C1B20827   8.559  26.302   8.805
 1425POPC   C2B20828   8.540  26.428   8.354
 1425POPC   C3B20829   8.670  26.337   7.910
 1425POPC   C4B20830   8.675  26.383   7.443
 1426POPC   NC320831  20.987   2.809   9.472
 1426POPC   PO420832  20.380   2.972   9.468
 1426POPC   GL120833  20.624   2.821   9.108
 1426POPC   GL220834  20.866   2.526   9.066
 1426POPC   C1A20835  20.759   2.909   8.688
 1426POPC   D2A20836  20.551   2.883   8.331
 1426POPC   C3A20837  20.786   2.968   7.977
 1426POPC   C4A20838  20.777   2.804   7.591
 1426POPC   C1B20839  20.506   2.473   8.765
 1426POPC   C2B20840  20.491   2.367   8.354
 1426POPC   C3B20841  20.489   2.554   7.940
 1426POPC   C4B20842  20.265   2.508   7.559
 1427POPC   NC320843  38.171  41.247   9.522
 1427POPC   PO420844  38.563  41.790   9.624
 1427POPC   GL120845  38.390  41.653   9.262
 1427POPC   GL220846  38.733  41.564   9.157
 1427POPC   C1A20847  38.279  41.468   8.858
 1427POPC   D2A20848  38.399  41.306   8.455
 1427POPC   C3A20849  38.323  41.524   8.075
 1427POPC   C4A20850  38.215  41.861   7.808
 1427POPC   C1B20851  38.758  41.246   8.838
 1427POPC   C2B20852  38.968  41.155   8.468
 1427POPC   C3B20853  38.764  41.225   8.089
 1427POPC   C4B20854  38.759  41.522   7.791
 1428POPC   NC320855  17.116   8.495   9.585
 1428POPC   PO420856  16.436   8.253   9.628
 1428POPC   GL120857  16.712   8.268   9.262
 1428POPC   GL220858  16.843   8.605   9.183
 1428POPC   C1A20859  16.618   8.004   8.867
 1428POPC   D2A20860  16.492   7.955   8.439
 1428POPC   C3A20861  16.747   7.958   8.081
 1428POPC   C4A20862  16.462   8.227   7.794
 1428POPC   C1B20863  17.020   8.301   8.879
 1428POPC   C2B20864  16.961   8.235   8.472
 1428POPC   C3B20865  16.805   8.465   8.119
 1428POPC   C4B20866  16.958   8.301   7.735
 1429POPC   NC320867   9.513  22.953   9.503
 1429POPC   PO420868  10.168  22.826   9.480
 1429POPC   GL120869   9.923  23.018   9.129
 1429POPC   GL220870   9.565  23.045   9.017
 1429POPC   C1A20871   9.951  22.931   8.691
 1429POPC   D2A20872   9.915  23.162   8.295
 1429POPC   C3A20873   9.981  22.841   7.992
 1429POPC   C4A20874  10.028  22.760   7.545
 1429POPC   C1B20875   9.444  22.843   8.630
 1429POPC   C2B20876   9.459  22.930   8.187
 1429POPC   C3B20877   9.544  22.902   7.757
 1429POPC   C4B20878   9.349  23.164   7.473
 1430POPC   NC320879  34.953   7.414   9.428
 1430POPC   PO420880  34.246   7.411   9.423
 1430POPC   GL120881  34.558   7.505   9.115
 1430POPC   GL220882  34.593   7.153   9.104
 1430POPC   C1A20883  34.652   7.503   8.670
 1430POPC   D2A20884  34.331   7.400   8.349
 1430POPC   C3A20885  34.452   7.521   7.949
 1430POPC   C4A20886  34.783   7.412   7.673
 1430POPC   C1B20887  34.617   6.992   8.703
 1430POPC   C2B20888  34.799   7.102   8.301
 1430POPC   C3B20889  34.612   6.988   7.926
 1430POPC   C4B20890  34.367   7.147   7.621
 1431POPC   NC320891  24.322   6.517   9.384
 1431POPC   PO420892  24.865   6.819   9.554
 1431POPC   GL120893  24.798   6.608   9.164
 1431POPC   GL220894  24.700   6.960   9.093
 1431POPC   C1A20895  24.609   6.361   8.794
 1431POPC   D2A20896  24.192   6.318   8.585
 1431POPC   C3A20897  24.207   6.350   8.117
 1431POPC   C4A20898  24.520   6.475   7.827
 1431POPC   C1B20899  24.579   6.854   8.729
 1431POPC   C2B20900  24.553   6.663   8.354
 1431POPC   C3B20901  24.437   6.921   8.039
 1431POPC   C4B20902  24.619   6.947   7.678
 1432POPC   NC320903  16.256  41.971   9.526
 1432POPC   PO420904  16.016  42.622   9.534
 1432POPC   GL120905  16.012  42.376   9.133
 1432POPC   GL220906  15.798  42.077   9.044
 1432POPC   C1A20907  15.925  42.386   8.679
 1432POPC   D2A20908  15.807  42.038   8.433
 1432POPC   C3A20909  15.787  42.269   8.085
 1432POPC   C4A20910  16.011  42.325   7.756
 1432POPC   C1B20911  16.219  41.984   8.837
 1432POPC   C2B20912  16.393  41.956   8.419
 1432POPC   C3B20913  16.163  41.856   8.052
 1432POPC   C4B20914  16.214  41.887   7.618
 1433POPC   NC320915  26.601  33.960   9.482
 1433POPC   PO420916  27.149  33.589   9.598
 1433POPC   GL120917  27.025  33.754   9.190
 1433POPC   GL220918  26.723  33.848   9.019
 1433POPC   C1A20919  27.128  33.962   8.775
 1433POPC   D2A20920  26.829  33.969   8.440
 1433POPC   C3A20921  27.016  33.923   8.044
 1433POPC   C4A20922  26.692  33.769   7.836
 1433POPC   C1B20923  26.466  33.670   8.732
 1433POPC   C2B20924  26.563  33.552   8.324
 1433POPC   C3B20925  26.277  33.440   8.021
 1433POPC   C4B20926  26.281  33.469   7.615
 1434POPC   NC320927   1.315   5.960   9.461
 1434POPC   PO420928   0.888   5.451   9.521
 1434POPC   GL120929   0.944   5.776   9.154
 1434POPC   GL220930   0.941   6.141   9.101
 1434POPC   C1A20931   1.276   5.865   8.785
 1434POPC   D2A20932   1.422   5.594   8.408
 1434POPC   C3A20933   1.447   5.802   7.983
 1434POPC   C4A20934   1.394   6.270   7.834
 1434POPC   C1B20935   0.798   6.017   8.708
 1434POPC   C2B20936   0.973   5.865   8.318
 1434POPC   C3B20937   0.982   5.943   7.872
 1434POPC   C4B20938   0.880   6.137   7.489
 1435POPC   NC320939  16.737  18.634   9.577
 1435POPC   PO420940  16.770  19.226   9.334
 1435POPC   GL120941  16.700  18.851   9.109
 1435POPC   GL220942  17.036  18.673   9.170
 1435POPC   C1A20943  16.579  18.966   8.674
 1435POPC   D2A20944  16.884  19.258   8.476
 1435POPC   C3A20945  16.725  19.382   8.105
 1435POPC   C4A20946  16.486  19.230   7.806
 1435POPC   C1B20947  17.059  18.847   8.768
 1435POPC   C2B20948  16.968  18.741   8.358
 1435POPC   C3B20949  16.803  18.884   7.998
 1435POPC   C4B20950  16.943  19.106   7.620
 1436POPC   NC320951  30.222  26.430   9.627
 1436POPC   PO420952  30.627  25.907   9.530
 1436POPC   GL120953  30.702  25.990   9.095
 1436POPC   GL220954  30.929  26.263   9.012
 1436POPC   C1A20955  30.795  25.952   8.655
 1436POPC   D2A20956  30.671  26.059   8.257
 1436POPC   C3A20957  30.839  25.803   7.943
 1436POPC   C4A20958  30.752  26.151   7.710
 1436POPC   C1B20959  30.521  26.372   8.788
 1436POPC   C2B20960  30.293  26.416   8.379
 1436POPC   C3B20961  30.311  26.339   7.901
 1436POPC   C4B20962  30.410  26.420   7.434
 1437POPC   NC320963  20.201   2.227   9.266
 1437POPC   PO420964  19.648   2.131   9.619
 1437POPC   GL120965  19.879   1.810   9.271
 1437POPC   GL220966  20.254   1.720   9.157
 1437POPC   C1A20967  19.718   1.654   8.842
 1437POPC   D2A20968  19.600   1.693   8.369
 1437POPC   C3A20969  19.690   2.088   8.142
 1437POPC   C4A20970  19.758   2.414   7.837
 1437POPC   C1B20971  20.312   1.955   8.722
 1437POPC   C2B20972  20.180   1.958   8.318
 1437POPC   C3B20973  20.184   2.155   7.947
 1437POPC   C4B20974  20.195   1.989   7.556
 1438POPC   NC320975  28.301  20.771   9.534
 1438POPC   PO420976  28.982  20.516   9.680
 1438POPC   GL120977  28.754  20.691   9.332
 1438POPC   GL220978  28.540  20.429   9.237
 1438POPC   C1A20979  28.592  20.811   8.911
 1438POPC   D2A20980  28.671  20.898   8.469
 1438POPC   C3A20981  28.291  20.938   8.262
 1438POPC   C4A20982  28.335  20.718   7.893
 1438POPC   C1B20983  28.227  20.391   8.923
 1438POPC   C2B20984  28.119  20.512   8.509
 1438POPC   C3B20985  28.108  20.268   8.133
 1438POPC   C4B20986  28.169  20.283   7.710
 1439POPC   NC320987   3.727  15.361   9.508
 1439POPC   PO420988   3.198  15.561   9.527
 1439POPC   GL120989   3.376  15.389   9.130
 1439POPC   GL220990   3.376  15.045   9.163
 1439POPC   C1A20991   3.493  15.354   8.699
 1439POPC   D2A20992   3.245  15.310   8.339
 1439POPC   C3A20993   3.448  15.388   7.945
 1439POPC   C4A20994   3.349  15.626   7.575
 1439POPC   C1B20995   3.530  14.827   8.759
 1439POPC   C2B20996   3.657  14.973   8.320
 1439POPC   C3B20997   3.538  14.739   7.936
 1439POPC   C4B20998   3.528  14.796   7.472
 1440POPC   NC320999  12.897  10.077   9.569
 1440POPC   PO421000  13.197   9.496   9.425
 1440POPC   GL121001  12.933   9.777   9.143
 1440POPC   GL221002  12.673  10.071   9.096
 1440POPC   C1A21003  12.786   9.652   8.760
 1440POPC   D2A21004  12.715   9.315   8.478
 1440POPC   C3A21005  12.750   9.463   8.026
 1440POPC   C4A21006  12.851   9.886   7.797
 1440POPC   C1B21007  12.426  10.001   8.728
 1440POPC   C2B21008  12.467   9.758   8.359
 1440POPC   C3B21009  12.385   9.923   7.997
 1440POPC   C4B21010  12.427  10.149   7.643
 1441POPC   NC321011   3.919  25.879   9.568
 1441POPC   PO421012   3.425  26.359   9.509
 1441POPC   GL121013   3.682  26.185   9.196
 1441POPC   GL221014   3.703  25.851   9.127
 1441POPC   C1A21015   3.647  26.301   8.764
 1441POPC   D2A21016   3.823  26.288   8.358
 1441POPC   C3A21017   3.564  26.272   7.977
 1441POPC   C4A21018   3.236  26.175   7.627
 1441POPC   C1B21019   3.437  25.817   8.799
 1441POPC   C2B21020   3.548  25.857   8.366
 1441POPC   C3B21021   3.402  25.802   7.948
 1441POPC   C4B21022   3.660  25.890   7.604
 1442POPC   NC321023  20.936  20.379   9.296
 1442POPC   PO421024  21.426  20.464   9.773
 1442POPC   GL121025  21.473  20.493   9.271
 1442POPC   GL221026  21.775  20.285   9.184
 1442POPC   C1A21027  21.306  20.542   8.786
 1442POPC   D2A21028  21.058  20.663   8.410
 1442POPC   C3A21029  21.301  20.755   8.054
 1442POPC   C4A21030  21.144  20.765   7.650
 1442POPC   C1B21031  21.819  20.596   8.837
 1442POPC   C2B21032  21.868  20.579   8.386
 1442POPC   C3B21033  21.810  20.375   8.006
 1442POPC   C4B21034  21.690  20.665   7.722
 1443POPC   NC321035  36.260   2.669   9.637
 1443POPC   PO421036  36.117   3.195   9.288
 1443POPC   GL121037  36.233   2.859   9.051
 1443POPC   GL221038  36.530   2.746   9.189
 1443POPC   C1A21039  36.282   2.797   8.611
 1443POPC   D2A21040  36.324   2.538   8.273
 1443POPC   C3A21041  36.337   2.560   7.808
 1443POPC   C4A21042  36.179   2.793   7.444
 1443POPC   C1B21043  36.700   2.970   8.826
 1443POPC   C2B21044  36.746   2.979   8.402
 1443POPC   C3B21045  36.539   2.972   8.046
 1443POPC   C4B21046  36.611   2.981   7.629
 1444POPC   NC321047   8.938  38.772   9.336
 1444POPC   PO421048   8.736  38.097   9.427
 1444POPC   GL121049   8.993  38.284   9.144
 1444POPC   GL221050   8.890  38.536   8.898
 1444POPC   C1A21051   9.199  38.160   8.777
 1444POPC   D2A21052   8.914  38.233   8.452
 1444POPC   C3A21053   9.084  38.084   8.115
 1444POPC   C4A21054   9.212  38.272   7.764
 1444POPC   C1B21055   9.199  38.849   8.768
 1444POPC   C2B21056   9.019  38.888   8.434
 1444POPC   C3B21057   9.065  38.635   8.118
 1444POPC   C4B21058   9.184  38.788   7.726
 1445POPC   NC321059   4.737  28.079   9.584
 1445POPC   PO421060   5.292  28.554   9.481
 1445POPC   GL121061   5.325  28.443   9.118
 1445POPC   GL221062   5.297  28.769   9.022
 1445POPC   C1A21063   5.109  28.123   8.919
 1445POPC   D2A21064   5.057  28.091   8.497
 1445POPC   C3A21065   4.738  28.150   8.238
 1445POPC   C4A21066   4.934  28.331   7.870
 1445POPC   C1B21067   5.124  28.583   8.659
 1445POPC   C2B21068   5.247  28.574   8.253
 1445POPC   C3B21069   5.090  28.811   7.916
 1445POPC   C4B21070   5.080  28.678   7.497
 1446POPC   NC321071  17.864   1.116   9.385
 1446POPC   PO421072  18.458   1.404   9.602
 1446POPC   GL121073  18.315   1.277   9.188
 1446POPC   GL221074  18.033   1.431   9.029
 1446POPC   C1A21075  18.413   1.265   8.734
 1446POPC   D2A21076  18.409   1.051   8.321
 1446POPC   C3A21077  18.475   1.268   7.925
 1446POPC   C4A21078  18.503   0.921   7.683
 1446POPC   C1B21079  17.913   1.130   8.700
 1446POPC   C2B21080  17.926   0.869   8.333
 1446POPC   C3B21081  18.051   0.982   7.931
 1446POPC   C4B21082  17.957   1.388   7.739
 1447POPC   NC321083   1.724  38.611   9.465
 1447POPC   PO421084   2.184  38.121   9.435
 1447POPC   GL121085   2.277  38.398   9.105
 1447POPC   GL221086   1.994  38.615   9.045
 1447POPC   C1A21087   2.297  38.472   8.667
 1447POPC   D2A21088   2.037  38.393   8.312
 1447POPC   C3A21089   2.181  38.699   8.037
 1447POPC   C4A21090   2.431  38.712   7.679
 1447POPC   C1B21091   1.726  38.403   8.759
 1447POPC   C2B21092   1.605  38.121   8.432
 1447POPC   C3B21093   1.546  38.232   8.015
 1447POPC   C4B21094   1.787  38.495   7.771
 1448POPC   NC321095  30.950  22.266   9.577
 1448POPC   PO421096  30.597  21.633   9.756
 1448POPC   GL121097  30.541  21.992   9.352
 1448POPC   GL221098  30.842  22.103   9.125
 1448POPC   C1A21099  30.432  22.111   8.865
 1448POPC   D2A21100  30.726  22.231   8.513
 1448POPC   C3A21101  30.680  22.130   8.093
 1448POPC   C4A21102  30.606  21.789   7.863
 1448POPC   C1B21103  31.047  22.397   8.869
 1448POPC   C2B21104  31.230  22.388   8.454
 1448POPC   C3B21105  31.196  22.282   8.024
 1448POPC   C4B21106  30.883  22.526   7.825
 1449POPC   NC321107   9.234  32.875   9.417
 1449POPC   PO421108   8.531  32.938   9.338
 1449POPC   GL121109   8.821  33.136   9.173
 1449POPC   GL221110   8.934  32.832   9.012
 1449POPC   C1A21111   8.788  33.243   8.754
 1449POPC   D2A21112   8.937  32.914   8.472
 1449POPC   C3A21113   8.980  33.127   8.094
 1449POPC   C4A21114   8.595  33.152   7.892
 1449POPC   C1B21115   9.292  32.712   8.785
 1449POPC   C2B21116   9.423  32.744   8.362
 1449POPC   C3B21117   9.306  32.754   7.941
 1449POPC   C4B21118   9.170  32.981   7.590
 1450POPC   NC321119  14.129   4.298   9.425
 1450POPC   PO421120  14.657   4.727   9.591
 1450POPC   GL121121  14.434   4.668   9.203
 1450POPC   GL221122  14.512   4.319   9.080
 1450POPC   C1A21123  14.168   4.608   8.829
 1450POPC   D2A21124  14.216   4.297   8.506
 1450POPC   C3A21125  14.370   4.413   8.082
 1450POPC   C4A21126  14.216   4.545   7.705
 1450POPC   C1B21127  14.586   4.029   8.723
 1450POPC   C2B21128  14.436   3.883   8.284
 1450POPC   C3B21129  14.382   3.971   7.821
 1450POPC   C4B21130  14.631   4.082   7.430
 1451POPC   NC321131  42.067  13.089   9.666
 1451POPC   PO421132  42.601  12.599   9.538
 1451POPC   GL121133  42.327  12.716   9.174
 1451POPC   GL221134  42.129  13.034   9.160
 1451POPC   C1A21135  42.357  12.651   8.726
 1451POPC   D2A21136  42.679  12.705   8.417
 1451POPC   C3A21137  42.472  12.587   8.046
 1451POPC   C4A21138  42.090  12.623   7.785
 1451POPC   C1B21139  42.227  13.153   8.730
 1451POPC   C2B21140  42.299  13.025   8.272
 1451POPC   C3B21141  42.290  13.078   7.784
 1451POPC   C4B21142  42.065  13.005   7.377
 1452POPC   NC321143  11.678  38.767   9.492
 1452POPC   PO421144  11.223  38.294   9.480
 1452POPC   GL121145  11.202  38.489   9.090
 1452POPC   GL221146  11.298  38.828   9.174
 1452POPC   C1A21147  11.087  38.337   8.708
 1452POPC   D2A21148  11.029  38.150   8.308
 1452POPC   C3A21149  10.976  38.370   7.912
 1452POPC   C4A21150  11.289  38.249   7.604
 1452POPC   C1B21151  11.580  38.726   8.824
 1452POPC   C2B21152  11.404  38.612   8.435
 1452POPC   C3B21153  11.445  38.372   8.091
 1452POPC   C4B21154  11.731  38.473   7.803
 1453POPC   NC321155  16.412  13.701   9.488
 1453POPC   PO421156  15.779  13.450   9.503
 1453POPC   GL121157  16.017  13.611   9.152
 1453POPC   GL221158  16.127  13.976   9.125
 1453POPC   C1A21159  16.028  13.565   8.715
 1453POPC   D2A21160  15.991  13.643   8.293
 1453POPC   C3A21161  16.070  13.259   8.134
 1453POPC   C4A21162  16.042  13.353   7.743
 1453POPC   C1B21163  15.757  13.974   8.857
 1453POPC   C2B21164  15.667  14.063   8.430
 1453POPC   C3B21165  15.598  13.882   8.029
 1453POPC   C4B21166  15.929  13.855   7.749
 1454POPC   NC321167  30.431   9.504   9.587
 1454POPC   PO421168  30.834  10.047   9.449
 1454POPC   GL121169  30.434   9.928   9.270
 1454POPC   GL221170  30.325  10.207   9.061
 1454POPC   C1A21171  30.366   9.716   8.881
 1454POPC   D2A21172  30.679   9.620   8.569
 1454POPC   C3A21173  30.574   9.847   8.184
 1454POPC   C4A21174  30.620   9.643   7.779
 1454POPC   C1B21175  30.695  10.115   8.792
 1454POPC   C2B21176  31.009  10.008   8.470
 1454POPC   C3B21177  31.007  10.071   8.010
 1454POPC   C4B21178  30.668  10.136   7.702
 1455POPC   NC321179  20.896  36.216   9.527
 1455POPC   PO421180  20.210  36.225   9.578
 1455POPC   GL121181  20.473  36.024   9.272
 1455POPC   GL221182  20.527  36.300   9.143
 1455POPC   C1A21183  20.470  35.853   8.844
 1455POPC   D2A21184  20.554  35.990   8.447
 1455POPC   C3A21185  20.725  35.731   8.135
 1455POPC   C4A21186  20.652  35.863   7.731
 1455POPC   C1B21187  20.793  36.286   8.799
 1455POPC   C2B21188  20.762  36.454   8.371
 1455POPC   C3B21189  20.709  36.314   7.935
 1455POPC   C4B21190  20.702  36.316   7.464
 1456POPC   NC321191  40.344  30.326   9.621
 1456POPC   PO421192  40.261  30.952   9.479
 1456POPC   GL121193  40.170  30.856   9.076
 1456POPC   GL221194  40.163  30.508   9.116
 1456POPC   C1A21195  40.083  30.834   8.617
 1456POPC   D2A21196  40.133  31.013   8.173
 1456POPC   C3A21197  39.735  30.998   7.956
 1456POPC   C4A21198  39.654  30.636   7.724
 1456POPC   C1B21199  40.242  30.260   8.725
 1456POPC   C2B21200  40.063  30.039   8.345
 1456POPC   C3B21201  39.904  30.274   7.988
 1456POPC   C4B21202  40.268  30.556   7.877
 1457POPC   NC321203  44.540   5.016   9.537
 1457POPC   PO421204   0.025   5.416   9.442
 1457POPC   GL121205  44.898   5.061   9.149
 1457POPC   GL221206  44.521   4.985   9.049
 1457POPC   C1A21207  44.909   5.110   8.703
 1457POPC   D2A21208  44.671   5.427   8.482
 1457POPC   C3A21209  44.798   5.386   8.031
 1457POPC   C4A21210  44.624   5.338   7.635
 1457POPC   C1B21211  44.422   5.001   8.648
 1457POPC   C2B21212  44.507   5.017   8.238
 1457POPC   C3B21213  44.377   4.944   7.835
 1457POPC   C4B21214  44.570   4.789   7.446
 1458POPC   NC321215  33.756  36.927   9.675
 1458POPC   PO421216  34.254  37.097   9.481
 1458POPC   GL121217  33.926  36.965   9.172
 1458POPC   GL221218  33.656  37.153   9.218
 1458POPC   C1A21219  33.622  36.865   8.773
 1458POPC   D2A21220  33.617  36.745   8.282
 1458POPC   C3A21221  33.920  36.935   7.971
 1458POPC   C4A21222  34.069  36.804   7.557
 1458POPC   C1B21223  33.855  37.317   8.819
 1458POPC   C2B21224  33.683  37.240   8.411
 1458POPC   C3B21225  33.497  37.207   8.026
 1458POPC   C4B21226  33.632  37.329   7.648
 1459POPC   NC321227  27.843  12.581   9.550
 1459POPC   PO421228  27.888  13.162   9.296
 1459POPC   GL121229  27.695  12.837   9.106
 1459POPC   GL221230  27.999  12.809   8.930
 1459POPC   C1A21231  27.569  12.540   8.767
 1459POPC   D2A21232  27.654  12.315   8.366
 1459POPC   C3A21233  27.510  12.481   7.978
 1459POPC   C4A21234  27.432  12.811   7.673
 1459POPC   C1B21235  27.736  13.049   8.629
 1459POPC   C2B21236  27.615  12.928   8.226
 1459POPC   C3B21237  27.883  12.850   7.879
 1459POPC   C4B21238  27.843  13.072   7.452
 1460POPC   NC321239  16.901   5.268   9.457
 1460POPC   PO421240  16.802   4.670   9.652
 1460POPC   GL121241  16.620   4.888   9.218
 1460POPC   GL221242  16.471   5.244   9.139
 1460POPC   C1A21243  16.818   5.009   8.781
 1460POPC   D2A21244  17.000   4.792   8.413
 1460POPC   C3A21245  16.816   4.812   7.988
 1460POPC   C4A21246  16.871   4.955   7.539
 1460POPC   C1B21247  16.324   5.041   8.724
 1460POPC   C2B21248  16.398   4.987   8.252
 1460POPC   C3B21249  16.442   5.120   7.778
 1460POPC   C4B21250  16.563   5.362   7.372
 1461POPC   NC321251   6.308  18.687   9.541
 1461POPC   PO421252   6.924  19.066   9.497
 1461POPC   GL121253   6.683  18.977   9.147
 1461POPC   GL221254   6.629  18.643   9.130
 1461POPC   C1A21255   6.609  19.151   8.742
 1461POPC   D2A21256   6.566  18.937   8.331
 1461POPC   C3A21257   6.521  19.017   7.898
 1461POPC   C4A21258   6.385  19.315   7.611
 1461POPC   C1B21259   6.931  18.742   8.752
 1461POPC   C2B21260   6.910  18.547   8.337
 1461POPC   C3B21261   6.819  18.577   7.878
 1461POPC   C4B21262   6.982  18.831   7.536
 1462POPC   NC321263  16.774   6.990   9.622
 1462POPC   PO421264  16.895   6.323   9.561
 1462POPC   GL121265  16.683   6.578   9.279
 1462POPC   GL221266  16.929   6.832   9.175
 1462POPC   C1A21267  16.455   6.737   8.934
 1462POPC   D2A21268  16.538   7.001   8.575
 1462POPC   C3A21269  16.546   6.822   8.160
 1462POPC   C4A21270  16.503   6.644   7.741
 1462POPC   C1B21271  16.957   6.724   8.785
 1462POPC   C2B21272  17.016   6.901   8.400
 1462POPC   C3B21273  17.036   6.800   7.998
 1462POPC   C4B21274  16.936   6.852   7.577
 1463POPC   NC321275  25.796  38.989   9.482
 1463POPC   PO421276  26.230  38.465   9.640
 1463POPC   GL121277  26.251  38.461   9.207
 1463POPC   GL221278  25.914  38.311   9.109
 1463POPC   C1A21279  26.397  38.799   8.898
 1463POPC   D2A21280  26.466  38.845   8.448
 1463POPC   C3A21281  26.163  38.727   8.161
 1463POPC   C4A21282  26.002  38.523   7.787
 1463POPC   C1B21283  25.981  38.301   8.661
 1463POPC   C2B21284  25.851  38.319   8.235
 1463POPC   C3B21285  25.764  38.096   7.852
 1463POPC   C4B21286  25.725  38.264   7.418
 1464POPC   NC321287   5.169  18.039   9.718
 1464POPC   PO421288   4.908  18.614   9.795
 1464POPC   GL121289   4.969  18.280   9.343
 1464POPC   GL221290   5.317  18.210   9.223
 1464POPC   C1A21291   4.979  18.263   8.837
 1464POPC   D2A21292   5.157  18.209   8.435
 1464POPC   C3A21293   5.081  18.419   8.067
 1464POPC   C4A21294   4.869  18.379   7.664
 1464POPC   C1B21295   5.365  17.942   8.830
 1464POPC   C2B21296   5.581  17.972   8.380
 1464POPC   C3B21297   5.429  18.012   7.932
 1464POPC   C4B21298   5.417  17.899   7.457
 1465POPC   NC321299  33.230   6.448   9.534
 1465POPC   PO421300  32.625   6.758   9.542
 1465POPC   GL121301  32.912   6.764   9.238
 1465POPC   GL221302  32.759   7.055   9.141
 1465POPC   C1A21303  33.041   6.541   8.872
 1465POPC   D2A21304  33.197   6.683   8.453
 1465POPC   C3A21305  33.321   6.515   8.035
 1465POPC   C4A21306  33.128   6.646   7.660
 1465POPC   C1B21307  32.760   7.210   8.774
 1465POPC   C2B21308  32.741   6.952   8.432
 1465POPC   C3B21309  32.586   6.933   8.048
 1465POPC   C4B21310  32.702   7.065   7.633
 1466POPC   NC321311   6.007   5.030   9.430
 1466POPC   PO421312   5.378   4.751   9.454
 1466POPC   GL121313   5.624   4.921   9.100
 1466POPC   GL221314   5.692   5.294   9.098
 1466POPC   C1A21315   5.769   4.932   8.681
 1466POPC   D2A21316   5.639   5.025   8.282
 1466POPC   C3A21317   5.872   4.919   7.913
 1466POPC   C4A21318   5.842   5.147   7.526
 1466POPC   C1B21319   6.001   5.424   8.797
 1466POPC   C2B21320   6.056   5.287   8.385
 1466POPC   C3B21321   6.194   5.336   7.984
 1466POPC   C4B21322   6.316   5.556   7.635
 1467POPC   NC321323  16.158  25.828   9.423
 1467POPC   PO421324  15.684  26.318   9.582
 1467POPC   GL121325  15.763  26.145   9.175
 1467POPC   GL221326  15.823  25.791   9.063
 1467POPC   C1A21327  15.836  26.173   8.741
 1467POPC   D2A21328  15.838  25.889   8.377
 1467POPC   C3A21329  15.799  26.091   7.972
 1467POPC   C4A21330  15.946  26.206   7.526
 1467POPC   C1B21331  16.210  25.838   8.747
 1467POPC   C2B21332  16.331  25.907   8.300
 1467POPC   C3B21333  16.210  25.837   7.836
 1467POPC   C4B21334  16.197  25.792   7.352
 1468POPC   NC321335  25.322  19.514   9.587
 1468POPC   PO421336  24.787  19.850   9.392
 1468POPC   GL121337  25.152  19.665   9.118
 1468POPC   GL221338  25.546  19.618   9.157
 1468POPC   C1A21339  25.238  19.687   8.675
 1468POPC   D2A21340  25.013  19.680   8.279
 1468POPC   C3A21341  25.161  19.975   8.019
 1468POPC   C4A21342  25.305  20.273   7.781
 1468POPC   C1B21343  25.671  19.922   8.874
 1468POPC   C2B21344  25.698  19.805   8.448
 1468POPC   C3B21345  25.660  19.493   8.113
 1468POPC   C4B21346  25.302  19.500   7.818
 1469POPC   NC321347  15.413  30.347   9.456
 1469POPC   PO421348  14.998  30.839   9.420
 1469POPC   GL121349  15.240  30.708   9.095
 1469POPC   GL221350  15.057  30.404   9.093
 1469POPC   C1A21351  15.232  30.684   8.649
 1469POPC   D2A21352  15.439  30.954   8.379
 1469POPC   C3A21353  15.345  30.911   8.000
 1469POPC   C4A21354  15.489  30.637   7.718
 1469POPC   C1B21355  14.751  30.473   8.775
 1469POPC   C2B21356  14.791  30.629   8.321
 1469POPC   C3B21357  15.032  30.515   7.944
 1469POPC   C4B21358  14.951  30.503   7.491
 1470POPC   NC321359  16.933   4.237   9.505
 1470POPC   PO421360  17.629   4.239   9.536
 1470POPC   GL121361  17.530   4.328   9.142
 1470POPC   GL221362  17.826   4.460   9.085
 1470POPC   C1A21363  17.468   4.313   8.728
 1470POPC   D2A21364  17.271   4.256   8.361
 1470POPC   C3A21365  17.367   4.596   8.114
 1470POPC   C4A21366  17.617   4.575   7.774
 1470POPC   C1B21367  17.918   4.562   8.691
 1470POPC   C2B21368  17.779   4.322   8.302
 1470POPC   C3B21369  17.997   4.260   7.913
 1470POPC   C4B21370  17.941   4.188   7.471
 1471POPC   NC321371  34.800   6.730   9.333
 1471POPC   PO421372  34.372   6.235   9.529
 1471POPC   GL121373  34.615   6.309   9.131
 1471POPC   GL221374  34.393   6.628   9.075
 1471POPC   C1A21375  34.966   6.445   8.777
 1471POPC   D2A21376  35.040   6.299   8.331
 1471POPC   C3A21377  34.949   6.590   7.960
 1471POPC   C4A21378  34.873   6.677   7.509
 1471POPC   C1B21379  34.482   6.491   8.684
 1471POPC   C2B21380  34.633   6.614   8.352
 1471POPC   C3B21381  34.396   6.535   8.037
 1471POPC   C4B21382  34.201   6.685   7.691
 1472POPC   NC321383  17.211  10.983   9.453
 1472POPC   PO421384  17.436  11.624   9.554
 1472POPC   GL121385  17.327  11.416   9.203
 1472POPC   GL221386  17.617  11.225   9.209
 1472POPC   C1A21387  17.260  11.256   8.794
 1472POPC   D2A21388  17.336  11.493   8.430
 1472POPC   C3A21389  17.121  11.332   8.122
 1472POPC   C4A21390  17.244  11.048   7.847
 1472POPC   C1B21391  17.731  11.441   8.842
 1472POPC   C2B21392  17.711  11.123   8.513
 1472POPC   C3B21393  17.679  11.233   8.096
 1472POPC   C4B21394  17.493  11.526   7.841
 1473POPC   NC321395  11.550  11.751   9.499
 1473POPC   PO421396  11.179  12.286   9.444
 1473POPC   GL121397  11.488  12.137   9.139
 1473POPC   GL221398  11.388  11.810   9.037
 1473POPC   C1A21399  11.476  12.280   8.746
 1473POPC   D2A21400  11.206  12.252   8.433
 1473POPC   C3A21401  11.425  12.152   8.098
 1473POPC   C4A21402  11.214  12.257   7.747
 1473POPC   C1B21403  11.068  11.911   8.798
 1473POPC   C2B21404  11.133  11.758   8.404
 1473POPC   C3B21405  11.055  11.844   8.014
 1473POPC   C4B21406  11.292  11.744   7.696
 1474POPC   NC321407  33.539  27.124   9.402
 1474POPC   PO421408  32.969  26.881   9.640
 1474POPC   GL121409  32.881  26.910   9.170
 1474POPC   GL221410  32.660  27.207   9.080
 1474POPC   C1A21411  32.888  26.628   8.794
 1474POPC   D2A21412  33.157  26.620   8.427
 1474POPC   C3A21413  33.031  26.668   8.010
 1474POPC   C4A21414  32.806  26.486   7.671
 1474POPC   C1B21415  32.958  27.125   8.699
 1474POPC   C2B21416  33.110  27.134   8.254
 1474POPC   C3B21417  33.405  27.094   7.929
 1474POPC   C4B21418  33.266  26.835   7.594
 1475POPC   NC321419  34.119  22.626   9.447
 1475POPC   PO421420  34.645  22.992   9.664
 1475POPC   GL121421  34.709  22.898   9.253
 1475POPC   GL221422  34.359  22.990   9.180
 1475POPC   C1A21423  34.712  23.002   8.798
 1475POPC   D2A21424  34.533  22.844   8.403
 1475POPC   C3A21425  34.668  22.999   7.989
 1475POPC   C4A21426  34.550  22.679   7.700
 1475POPC   C1B21427  34.226  23.238   8.839
 1475POPC   C2B21428  34.071  23.112   8.449
 1475POPC   C3B21429  34.221  23.245   8.074
 1475POPC   C4B21430  34.111  22.972   7.743
 1476POPC   NC321431  36.474  42.237   9.719
 1476POPC   PO421432  35.889  42.357   9.344
 1476POPC   GL121433  36.111  42.332   9.009
 1476POPC   GL221434  36.373  42.092   9.174
 1476POPC   C1A21435  36.064  42.558   8.615
 1476POPC   D2A21436  35.803  42.473   8.254
 1476POPC   C3A21437  36.053  42.462   7.940
 1476POPC   C4A21438  36.186  42.437   7.543
 1476POPC   C1B21439  36.360  42.020   8.723
 1476POPC   C2B21440  36.331  42.187   8.311
 1476POPC   C3B21441  36.383  42.075   7.899
 1476POPC   C4B21442  36.105  41.837   7.668
 1477POPC   NC321443  15.493  10.471   9.437
 1477POPC   PO421444  14.730  10.417   9.627
 1477POPC   GL121445  15.059  10.304   9.236
 1477POPC   GL221446  15.124  10.655   9.117
 1477POPC   C1A21447  15.143  10.299   8.753
 1477POPC   D2A21448  15.178  10.625   8.431
 1477POPC   C3A21449  14.982  10.629   8.033
 1477POPC   C4A21450  14.986  10.438   7.666
 1477POPC   C1B21451  15.498  10.757   8.830
 1477POPC   C2B21452  15.687  10.647   8.417
 1477POPC   C3B21453  15.505  10.473   8.050
 1477POPC   C4B21454  15.437  10.667   7.697
 1478POPC   NC321455   8.701  44.860   9.519
 1478POPC   PO421456   9.258  44.479   9.455
 1478POPC   GL121457   8.882  44.427   9.260
 1478POPC   GL221458   8.907  44.714   9.088
 1478POPC   C1A21459   8.895  44.186   8.893
 1478POPC   D2A21460   8.972  44.190   8.453
 1478POPC   C3A21461   9.119  44.475   8.163
 1478POPC   C4A21462   9.218  44.541   7.758
 1478POPC   C1B21463   9.102  44.656   8.707
 1478POPC   C2B21464   8.986  44.902   8.383
 1478POPC   C3B21465   8.907  44.937   7.952
 1478POPC   C4B21466   9.119  44.987   7.530
 1479POPC   NC321467  24.719  32.218   9.559
 1479POPC   PO421468  24.109  32.036   9.556
 1479POPC   GL121469  24.355  32.209   9.198
 1479POPC   GL221470  24.578  32.536   9.192
 1479POPC   C1A21471  24.476  32.125   8.788
 1479POPC   D2A21472  24.376  31.930   8.372
 1479POPC   C3A21473  24.472  32.137   7.961
 1479POPC   C4A21474  24.509  32.375   7.573
 1479POPC   C1B21475  24.782  32.534   8.797
 1479POPC   C2B21476  24.575  32.440   8.396
 1479POPC   C3B21477  24.663  32.614   8.026
 1479POPC   C4B21478  24.883  32.694   7.687
 1480POPC   NC321479  28.434  12.646   9.355
 1480POPC   PO421480  28.225  13.106   9.702
 1480POPC   GL121481  28.358  13.090   9.181
 1480POPC   GL221482  28.607  13.247   9.032
 1480POPC   C1A21483  28.485  12.853   8.754
 1480POPC   D2A21484  28.640  13.086   8.401
 1480POPC   C3A21485  28.499  12.860   7.983
 1480POPC   C4A21486  28.302  12.829   7.545
 1480POPC   C1B21487  28.223  13.274   8.726
 1480POPC   C2B21488  28.144  13.107   8.299
 1480POPC   C3B21489  28.191  13.230   7.838
 1480POPC   C4B21490  28.582  13.249   7.596
 1481POPC   NC321491  14.248   1.613   9.496
 1481POPC   PO421492  14.451   2.252   9.545
 1481POPC   GL121493  14.572   2.150   9.142
 1481POPC   GL221494  14.286   1.930   9.066
 1481POPC   C1A21495  14.747   2.296   8.732
 1481POPC   D2A21496  14.646   2.217   8.285
 1481POPC   C3A21497  14.844   2.374   7.950
 1481POPC   C4A21498  14.655   2.351   7.526
 1481POPC   C1B21499  14.380   1.953   8.630
 1481POPC   C2B21500  14.485   1.724   8.227
 1481POPC   C3B21501  14.441   1.967   7.869
 1481POPC   C4B21502  14.428   1.849   7.436
 1482POPC   NC321503  28.551  31.313   9.535
 1482POPC   PO421504  27.969  31.192   9.516
 1482POPC   GL121505  28.144  31.517   9.200
 1482POPC   GL221506  28.506  31.571   9.122
 1482POPC   C1A21507  28.240  31.448   8.734
 1482POPC   D2A21508  28.340  31.264   8.348
 1482POPC   C3A21509  28.229  31.429   7.979
 1482POPC   C4A21510  28.302  31.519   7.587
 1482POPC   C1B21511  28.729  31.709   8.798
 1482POPC   C2B21512  28.811  31.457   8.465
 1482POPC   C3B21513  28.732  31.424   8.027
 1482POPC   C4B21514  28.988  31.193   7.783
 1483POPC   NC321515   4.497  27.364   9.604
 1483POPC   PO421516   4.292  27.921   9.632
 1483POPC   GL121517   4.293  27.676   9.236
 1483POPC   GL221518   4.590  27.782   9.165
 1483POPC   C1A21519   4.294  27.509   8.763
 1483POPC   D2A21520   4.160  27.339   8.321
 1483POPC   C3A21521   4.138  27.455   7.863
 1483POPC   C4A21522   4.502  27.456   7.611
 1483POPC   C1B21523   4.672  27.869   8.770
 1483POPC   C2B21524   4.674  27.617   8.430
 1483POPC   C3B21525   4.534  27.721   8.045
 1483POPC   C4B21526   4.729  27.911   7.700
 1484POPC   NC321527  16.729  28.350  10.084
 1484POPC   PO421528  16.716  28.465   9.458
 1484POPC   GL121529  16.690  28.322   9.084
 1484POPC   GL221530  16.449  28.069   9.023
 1484POPC   C1A21531  16.867  28.493   8.778
 1484POPC   D2A21532  16.814  28.721   8.442
 1484POPC   C3A21533  16.744  28.472   8.128
 1484POPC   C4A21534  17.004  28.375   7.792
 1484POPC   C1B21535  16.517  28.122   8.618
 1484POPC   C2B21536  16.311  28.220   8.273
 1484POPC   C3B21537  16.438  28.130   7.893
 1484POPC   C4B21538  16.361  28.239   7.500
 1485POPC   NC321539   0.523   6.932   9.531
 1485POPC   PO421540   0.315   7.554   9.501
 1485POPC   GL121541   0.670   7.413   9.263
 1485POPC   GL221542   0.433   7.219   9.096
 1485POPC   C1A21543   0.773   7.491   8.833
 1485POPC   D2A21544   0.565   7.269   8.493
 1485POPC   C3A21545   0.476   7.434   8.090
 1485POPC   C4A21546   0.118   7.528   7.835
 1485POPC   C1B21547   0.155   7.084   8.764
 1485POPC   C2B21548   0.200   6.960   8.323
 1485POPC   C3B21549   0.054   7.020   7.920
 1485POPC   C4B21550   0.054   7.090   7.454
 1486POPC   NC321551  13.572  38.174   9.603
 1486POPC   PO421552  12.931  38.157   9.664
 1486POPC   GL121553  13.230  38.326   9.268
 1486POPC   GL221554  13.558  38.169   9.094
 1486POPC   C1A21555  13.301  38.504   8.826
 1486POPC   D2A21556  13.485  38.259   8.470
 1486POPC   C3A21557  13.341  38.323   8.031
 1486POPC   C4A21558  13.517  38.701   7.852
 1486POPC   C1B21559  13.827  38.488   8.829
 1486POPC   C2B21560  13.833  38.741   8.418
 1486POPC   C3B21561  13.962  38.922   7.986
 1486POPC   C4B21562  13.945  38.748   7.555
 1487POPC   NC321563  41.429  25.344   9.468
 1487POPC   PO421564  41.698  24.714   9.399
 1487POPC   GL121565  41.732  25.122   9.092
 1487POPC   GL221566  41.375  25.203   8.999
 1487POPC   C1A21567  41.699  25.285   8.632
 1487POPC   D2A21568  41.495  25.050   8.291
 1487POPC   C3A21569  41.702  25.108   7.920
 1487POPC   C4A21570  41.857  25.463   8.110
 1487POPC   C1B21571  41.211  25.487   8.689
 1487POPC   C2B21572  41.384  25.629   8.311
 1487POPC   C3B21573  41.377  25.493   7.906
 1487POPC   C4B21574  41.397  25.312   7.503
 1488POPC   NC321575  35.162  44.393   9.496
 1488POPC   PO421576  35.700  44.722   9.487
 1488POPC   GL121577  35.479  44.524   9.110
 1488POPC   GL221578  35.124  44.672   9.054
 1488POPC   C1A21579  35.421  44.495   8.651
 1488POPC   D2A21580  35.171  44.665   8.373
 1488POPC   C3A21581  35.312  44.728   7.995
 1488POPC   C4A21582  35.561  44.772   7.668
 1488POPC   C1B21583  35.035  44.252   8.879
 1488POPC   C2B21584  35.019  44.178   8.443
 1488POPC   C3B21585  35.018  44.313   8.016
 1488POPC   C4B21586  35.256  44.369   7.641
 1489POPC   NC321587  21.726  24.207   9.565
 1489POPC   PO421588  21.221  24.610   9.641
 1489POPC   GL121589  21.190  24.564   9.169
 1489POPC   GL221590  21.483  24.414   9.164
 1489POPC   C1A21591  21.399  24.723   8.757
 1489POPC   D2A21592  21.477  24.829   8.315
 1489POPC   C3A21593  21.286  24.529   8.088
 1489POPC   C4A21594  21.375  24.437   7.716
 1489POPC   C1B21595  21.759  24.352   8.851
 1489POPC   C2B21596  21.789  24.454   8.451
 1489POPC   C3B21597  21.815  24.527   8.040
 1489POPC   C4B21598  21.861  24.297   7.691
 1490POPC   NC321599  12.224  16.474   9.639
 1490POPC   PO421600  11.916  17.014   9.389
 1490POPC   GL121601  12.014  16.603   9.176
 1490POPC   GL221602  12.392  16.559   9.162
 1490POPC   C1A21603  12.133  16.450   8.753
 1490POPC   D2A21604  12.292  16.540   8.367
 1490POPC   C3A21605  11.937  16.659   8.124
 1490POPC   C4A21606  11.912  16.598   7.722
 1490POPC   C1B21607  12.308  16.921   8.839
 1490POPC   C2B21608  12.160  17.044   8.414
 1490POPC   C3B21609  12.326  16.938   8.004
 1490POPC   C4B21610  12.675  17.023   7.800
 1491POPC   NC321611   0.983  26.528   9.522
 1491POPC   PO421612   1.288  27.074   9.417
 1491POPC   GL121613   1.071  26.842   9.131
 1491POPC   GL221614   1.031  27.163   9.009
 1491POPC   C1A21615   1.027  26.616   8.750
 1491POPC   D2A21616   1.174  26.706   8.351
 1491POPC   C3A21617   0.931  26.518   8.017
 1491POPC   C4A21618   0.989  26.725   7.640
 1491POPC   C1B21619   1.357  27.048   8.734
 1491POPC   C2B21620   1.372  27.247   8.356
 1491POPC   C3B21621   1.219  27.097   7.968
 1491POPC   C4B21622   1.340  27.072   7.521
 1492POPC   NC321623  37.696  21.264   9.645
 1492POPC   PO421624  38.320  21.622   9.530
 1492POPC   GL121625  37.950  21.669   9.188
 1492POPC   GL221626  37.699  21.369   9.137
 1492POPC   C1A21627  37.655  21.719   8.782
 1492POPC   D2A21628  37.522  21.451   8.441
 1492POPC   C3A21629  37.673  21.646   8.048
 1492POPC   C4A21630  37.798  21.572   7.604
 1492POPC   C1B21631  37.437  21.040   8.882
 1492POPC   C2B21632  37.533  20.795   8.492
 1492POPC   C3B21633  37.704  21.038   8.161
 1492POPC   C4B21634  37.488  21.228   7.828
 1493POPC   NC321635  22.877  20.412   9.536
 1493POPC   PO421636  23.325  20.879   9.491
 1493POPC   GL121637  23.085  20.722   9.169
 1493POPC   GL221638  23.102  20.374   9.094
 1493POPC   C1A21639  22.736  20.668   8.894
 1493POPC   D2A21640  22.722  20.786   8.470
 1493POPC   C3A21641  22.511  20.533   8.164
 1493POPC   C4A21642  22.694  20.609   7.792
 1493POPC   C1B21643  23.194  20.537   8.692
 1493POPC   C2B21644  23.203  20.413   8.284
 1493POPC   C3B21645  23.223  20.549   7.888
 1493POPC   C4B21646  23.514  20.284   7.710
 1494POPC   NC321647  27.845  34.095   9.480
 1494POPC   PO421648  28.446  33.816   9.645
 1494POPC   GL121649  28.312  33.907   9.256
 1494POPC   GL221650  28.643  33.811   9.137
 1494POPC   C1A21651  28.153  33.827   8.853
 1494POPC   D2A21652  28.368  33.647   8.506
 1494POPC   C3A21653  28.288  33.851   8.144
 1494POPC   C4A21654  28.119  33.748   7.760
 1494POPC   C1B21655  28.835  33.700   8.740
 1494POPC   C2B21656  28.873  33.441   8.355
 1494POPC   C3B21657  28.586  33.437   8.003
 1494POPC   C4B21658  28.612  33.794   7.727
 1495POPC   NC321659   6.336   7.666   9.427
 1495POPC   PO421660   5.970   8.220   9.487
 1495POPC   GL121661   5.803   8.279   9.123
 1495POPC   GL221662   5.860   7.955   9.014
 1495POPC   C1A21663   5.991   8.385   8.743
 1495POPC   D2A21664   5.827   8.501   8.368
 1495POPC   C3A21665   5.834   8.207   8.055
 1495POPC   C4A21666   5.874   8.554   7.796
 1495POPC   C1B21667   6.206   7.893   8.715
 1495POPC   C2B21668   6.203   7.871   8.259
 1495POPC   C3B21669   6.396   7.919   7.829
 1495POPC   C4B21670   6.055   8.133   7.578
 1496POPC   NC321671   0.126  27.799   9.323
 1496POPC   PO421672  44.577  27.656   9.756
 1496POPC   GL121673  44.608  27.735   9.318
 1496POPC   GL221674  44.488  27.406   9.259
 1496POPC   C1A21675  44.651  27.858   8.884
 1496POPC   D2A21676  44.913  27.777   8.549
 1496POPC   C3A21677  44.566  27.742   8.292
 1496POPC   C4A21678  44.493  27.750   7.883
 1496POPC   C1B21679  44.755  27.349   8.909
 1496POPC   C2B21680  44.731  27.271   8.462
 1496POPC   C3B21681  44.938  27.461   8.114
 1496POPC   C4B21682  44.799  27.374   7.733
 1497POPC   NC321683  29.402  13.193   9.584
 1497POPC   PO421684  28.828  12.898   9.417
 1497POPC   GL121685  29.139  13.015   9.158
 1497POPC   GL221686  29.279  12.722   9.000
 1497POPC   C1A21687  29.059  13.199   8.772
 1497POPC   D2A21688  29.189  13.114   8.367
 1497POPC   C3A21689  28.942  13.187   8.007
 1497POPC   C4A21690  29.180  13.217   7.679
 1497POPC   C1B21691  28.974  12.692   8.679
 1497POPC   C2B21692  28.913  12.690   8.231
 1497POPC   C3B21693  29.222  12.734   7.942
 1497POPC   C4B21694  29.237  12.515   7.571
 1498POPC   NC321695  38.207  17.752   9.251
 1498POPC   PO421696  38.744  17.616   9.611
 1498POPC   GL121697  38.645  17.473   9.197
 1498POPC   GL221698  38.703  17.801   9.106
 1498POPC   C1A21699  38.698  17.239   8.794
 1498POPC   D2A21700  38.703  17.368   8.349
 1498POPC   C3A21701  38.453  17.161   8.044
 1498POPC   C4A21702  38.659  17.059   7.684
 1498POPC   C1B21703  38.556  17.759   8.685
 1498POPC   C2B21704  38.330  17.723   8.303
 1498POPC   C3B21705  38.457  17.661   7.879
 1498POPC   C4B21706  38.257  17.881   7.532
 1499POPC   NC321707   6.820  17.829   9.570
 1499POPC   PO421708   6.775  17.195   9.544
 1499POPC   GL121709   6.646  17.307   9.135
 1499POPC   GL221710   6.297  17.278   9.152
 1499POPC   C1A21711   6.738  17.281   8.685
 1499POPC   D2A21712   6.908  17.476   8.286
 1499POPC   C3A21713   6.924  17.253   7.891
 1499POPC   C4A21714   6.637  17.416   7.517
 1499POPC   C1B21715   6.255  17.510   8.772
 1499POPC   C2B21716   6.375  17.483   8.349
 1499POPC   C3B21717   6.485  17.669   7.966
 1499POPC   C4B21718   6.205  17.890   7.672
 1500POPC   NC321719  28.765   8.446   9.741
 1500POPC   PO421720  28.584   7.961   9.328
 1500POPC   GL121721  28.462   7.991   8.959
 1500POPC   GL221722  28.319   8.313   8.968
 1500POPC   C1A21723  28.175   7.963   8.639
 1500POPC   D2A21724  28.210   8.281   8.369
 1500POPC   C3A21725  28.096   8.081   7.992
 1500POPC   C4A21726  28.171   7.950   7.533
 1500POPC   C1B21727  28.558   8.623   8.678
 1500POPC   C2B21728  28.540   8.681   8.256
 1500POPC   C3B21729  28.504   8.383   7.952
 1500POPC   C4B21730  28.345   8.403   7.537
 1501POPC   NC321731  18.774  22.530   9.562
 1501POPC   PO421732  19.144  23.120   9.440
 1501POPC   GL121733  19.124  22.752   9.188
 1501POPC   GL221734  18.781  22.786   9.127
 1501POPC   C1A21735  19.102  22.699   8.734
 1501POPC   D2A21736  19.340  22.854   8.355
 1501POPC   C3A21737  19.235  22.746   7.940
 1501POPC   C4A21738  19.102  22.915   7.537
 1501POPC   C1B21739  18.661  22.979   8.762
 1501POPC   C2B21740  18.801  22.912   8.363
 1501POPC   C3B21741  18.738  22.907   7.947
 1501POPC   C4B21742  18.658  23.167   7.633
 1502POPC   NC321743   2.634  27.616   9.383
 1502POPC   PO421744   2.309  28.142   9.403
 1502POPC   GL121745   2.558  27.942   8.996
 1502POPC   GL221746   2.947  27.842   9.062
 1502POPC   C1A21747   2.761  27.695   8.628
 1502POPC   D2A21748   2.987  27.459   8.315
 1502POPC   C3A21749   2.743  27.556   7.961
 1502POPC   C4A21750   2.554  27.969   7.863
 1502POPC   C1B21751   3.239  27.874   8.683
 1502POPC   C2B21752   3.160  28.032   8.272
 1502POPC   C3B21753   3.169  27.805   7.888
 1502POPC   C4B21754   3.213  27.326   7.851
 1503POPC   NC321755   7.902  24.092   9.414
 1503POPC   PO421756   8.300  23.530   9.679
 1503POPC   GL121757   8.180  23.678   9.236
 1503POPC   GL221758   7.836  23.660   9.162
 1503POPC   C1A21759   8.317  23.811   8.808
 1503POPC   D2A21760   8.446  23.924   8.381
 1503POPC   C3A21761   8.344  23.610   8.070
 1503POPC   C4A21762   8.290  23.620   7.662
 1503POPC   C1B21763   7.797  23.743   8.748
 1503POPC   C2B21764   7.897  23.697   8.311
 1503POPC   C3B21765   7.826  23.718   7.857
 1503POPC   C4B21766   7.780  23.998   7.536
 1504POPC   NC321767  21.306   3.805   9.854
 1504POPC   PO421768  21.272   3.218   9.480
 1504POPC   GL121769  21.390   3.230   9.104
 1504POPC   GL221770  21.054   3.117   9.034
 1504POPC   C1A21771  21.597   3.471   8.779
 1504POPC   D2A21772  21.420   3.562   8.377
 1504POPC   C3A21773  21.681   3.566   8.034
 1504POPC   C4A21774  21.565   3.538   7.657
 1504POPC   C1B21775  21.197   3.182   8.644
 1504POPC   C2B21776  21.166   3.075   8.277
 1504POPC   C3B21777  21.122   3.379   7.977
 1504POPC   C4B21778  21.085   3.229   7.611
 1505POPC   NC321779   9.321  28.041   9.840
 1505POPC   PO421780   8.738  28.286   9.503
 1505POPC   GL121781   8.840  28.387   9.066
 1505POPC   GL221782   9.152  28.433   9.007
 1505POPC   C1A21783   8.672  28.466   8.615
 1505POPC   D2A21784   8.704  28.623   8.200
 1505POPC   C3A21785   8.971  28.438   7.908
 1505POPC   C4A21786   8.884  28.492   7.463
 1505POPC   C1B21787   8.997  28.072   8.718
 1505POPC   C2B21788   9.048  28.111   8.305
 1505POPC   C3B21789   8.901  27.912   7.951
 1505POPC   C4B21790   9.017  28.005   7.566
 1506POPC   NC321791  33.900   7.715   9.379
 1506POPC   PO421792  33.494   8.249   9.375
 1506POPC   GL121793  33.812   8.174   9.113
 1506POPC   GL221794  33.619   7.861   8.985
 1506POPC   C1A21795  34.108   8.410   8.832
 1506POPC   D2A21796  34.357   8.394   8.429
 1506POPC   C3A21797  34.172   8.387   8.004
 1506POPC   C4A21798  34.196   7.989   7.755
 1506POPC   C1B21799  33.917   7.968   8.661
 1506POPC   C2B21800  34.067   7.957   8.262
 1506POPC   C3B21801  33.744   8.056   7.970
 1506POPC   C4B21802  33.432   8.203   7.688
 1507POPC   NC321803  29.294  43.825   9.384
 1507POPC   PO421804  28.616  43.485   9.431
 1507POPC   GL121805  28.936  43.646   9.105
 1507POPC   GL221806  28.999  44.023   9.009
 1507POPC   C1A21807  29.129  43.602   8.686
 1507POPC   D2A21808  28.990  43.787   8.285
 1507POPC   C3A21809  29.323  43.873   7.965
 1507POPC   C4A21810  29.258  43.761   7.512
 1507POPC   C1B21811  29.276  44.282   8.781
 1507POPC   C2B21812  29.318  44.193   8.372
 1507POPC   C3B21813  29.378  44.405   7.998
 1507POPC   C4B21814  29.376  44.231   7.601
 1508POPC   NC321815  37.804  39.549   9.940
 1508POPC   PO421816  38.327  39.194   9.586
 1508POPC   GL121817  38.344  39.102   9.153
 1508POPC   GL221818  38.443  38.766   9.041
 1508POPC   C1A21819  38.529  39.200   8.745
 1508POPC   D2A21820  38.703  39.440   8.410
 1508POPC   C3A21821  38.406  39.437   8.065
 1508POPC   C4A21822  38.326  39.267   7.677
 1508POPC   C1B21823  38.865  38.817   8.828
 1508POPC   C2B21824  38.901  38.952   8.374
 1508POPC   C3B21825  38.827  39.142   7.934
 1508POPC   C4B21826  38.823  39.385   7.522
 1509POPC   NC321827  12.126   6.366   9.345
 1509POPC   PO421828  12.401   7.008   9.412
 1509POPC   GL121829  12.128   6.822   9.058
 1509POPC   GL221830  11.820   6.609   9.033
 1509POPC   C1A21831  11.973   6.960   8.622
 1509POPC   D2A21832  11.720   7.178   8.330
 1509POPC   C3A21833  11.615   6.945   8.002
 1509POPC   C4A21834  11.912   6.765   7.757
 1509POPC   C1B21835  12.057   6.454   8.680
 1509POPC   C2B21836  12.040   6.610   8.241
 1509POPC   C3B21837  12.047   6.312   7.901
 1509POPC   C4B21838  11.740   6.214   7.552
 1510POPC   NC321839  33.130   7.923   9.349
 1510POPC   PO421840  32.602   8.397   9.511
 1510POPC   GL121841  32.889   8.407   9.133
 1510POPC   GL221842  32.883   8.063   8.936
 1510POPC   C1A21843  32.962   8.489   8.672
 1510POPC   D2A21844  32.852   8.109   8.419
 1510POPC   C3A21845  32.880   8.243   8.006
 1510POPC   C4A21846  32.916   8.648   7.872
 1510POPC   C1B21847  33.299   8.123   8.709
 1510POPC   C2B21848  33.348   8.204   8.274
 1510POPC   C3B21849  33.231   7.856   8.017
 1510POPC   C4B21850  33.315   7.689   7.622
 1511POPC   NC321851  10.307  11.355   9.458
 1511POPC   PO421852  10.754  11.057   9.795
 1511POPC   GL121853  10.753  11.210   9.282
 1511POPC   GL221854  10.751  11.573   9.220
 1511POPC   C1A21855  10.618  11.189   8.824
 1511POPC   D2A21856  10.221  11.328   8.564
 1511POPC   C3A21857  10.203  11.322   8.089
 1511POPC   C4A21858  10.564  11.183   7.813
 1511POPC   C1B21859  10.589  11.693   8.810
 1511POPC   C2B21860  10.703  11.488   8.427
 1511POPC   C3B21861  10.636  11.604   8.050
 1511POPC   C4B21862  10.788  11.627   7.616
 1512POPC   NC321863  12.668  38.808   9.389
 1512POPC   PO421864  12.552  38.098   9.260
 1512POPC   GL121865  12.777  38.357   9.059
 1512POPC   GL221866  12.988  38.113   8.841
 1512POPC   C1A21867  12.799  38.608   8.723
 1512POPC   D2A21868  12.971  38.423   8.379
 1512POPC   C3A21869  12.805  38.633   8.023
 1512POPC   C4A21870  13.064  38.901   7.788
 1512POPC   C1B21871  12.590  38.110   8.626
 1512POPC   C2B21872  12.518  38.229   8.262
 1512POPC   C3B21873  12.785  38.134   7.961
 1512POPC   C4B21874  12.679  37.953   7.592
 1513POPC   NC321875  26.696  31.645   9.462
 1513POPC   PO421876  27.038  31.167   9.745
 1513POPC   GL121877  26.849  31.160   9.283
 1513POPC   GL221878  27.036  31.421   9.157
 1513POPC   C1A21879  26.900  31.113   8.788
 1513POPC   D2A21880  26.863  31.331   8.400
 1513POPC   C3A21881  26.874  31.198   7.965
 1513POPC   C4A21882  27.125  31.369   7.632
 1513POPC   C1B21883  26.850  31.672   8.827
 1513POPC   C2B21884  26.909  31.825   8.445
 1513POPC   C3B21885  26.996  31.698   8.043
 1513POPC   C4B21886  27.105  31.881   7.686
 1514POPC   NC321887   5.987  30.151   9.512
 1514POPC   PO421888   5.781  29.454   9.566
 1514POPC   GL121889   5.632  29.747   9.177
 1514POPC   GL221890   5.721  30.109   9.108
 1514POPC   C1A21891   5.642  29.880   8.693
 1514POPC   D2A21892   5.812  29.701   8.356
 1514POPC   C3A21893   5.686  29.833   7.989
 1514POPC   C4A21894   5.354  29.930   7.766
 1514POPC   C1B21895   5.971  30.259   8.776
 1514POPC   C2B21896   5.849  30.214   8.349
 1514POPC   C3B21897   5.817  30.329   7.940
 1514POPC   C4B21898   6.087  30.091   7.782
 1515POPC   NC321899   9.211  12.407  10.009
 1515POPC   PO421900   8.736  12.820   9.603
 1515POPC   GL121901   8.746  12.711   9.164
 1515POPC   GL221902   9.066  12.885   9.080
 1515POPC   C1A21903   8.851  12.587   8.733
 1515POPC   D2A21904   8.616  12.718   8.397
 1515POPC   C3A21905   8.816  12.636   8.010
 1515POPC   C4A21906   8.863  12.499   7.580
 1515POPC   C1B21907   8.947  13.069   8.657
 1515POPC   C2B21908   9.166  12.816   8.356
 1515POPC   C3B21909   9.329  12.686   7.974
 1515POPC   C4B21910   9.065  12.996   7.744
 1516POPC   NC321911  24.689  20.286   9.535
 1516POPC   PO421912  24.155  20.626   9.403
 1516POPC   GL121913  24.355  20.606   9.073
 1516POPC   GL221914  24.721  20.702   9.157
 1516POPC   C1A21915  24.181  20.483   8.690
 1516POPC   D2A21916  24.352  20.373   8.324
 1516POPC   C3A21917  24.283  20.632   7.983
 1516POPC   C4A21918  24.515  20.697   7.611
 1516POPC   C1B21919  24.686  20.632   8.701
 1516POPC   C2B21920  24.617  20.824   8.319
 1516POPC   C3B21921  24.794  20.520   8.024
 1516POPC   C4B21922  24.803  20.231   7.692
 1517POPC   NC321923   8.750  39.730   9.551
 1517POPC   PO421924   8.743  40.418   9.480
 1517POPC   GL121925   8.774  40.062   9.155
 1517POPC   GL221926   8.600  39.749   9.080
 1517POPC   C1A21927   9.073  39.881   8.845
 1517POPC   D2A21928   9.055  40.164   8.504
 1517POPC   C3A21929   9.061  40.115   8.073
 1517POPC   C4A21930   9.199  40.192   7.662
 1517POPC   C1B21931   8.593  39.902   8.687
 1517POPC   C2B21932   8.779  39.681   8.453
 1517POPC   C3B21933   8.899  39.630   8.126
 1517POPC   C4B21934   8.824  39.813   7.724
 1518POPC   NC321935  42.320   9.413   9.538
 1518POPC   PO421936  42.552  10.061   9.589
 1518POPC   GL121937  42.531   9.922   9.177
 1518POPC   GL221938  42.351   9.610   9.064
 1518POPC   C1A21939  42.638   9.886   8.749
 1518POPC   D2A21940  42.377   9.574   8.535
 1518POPC   C3A21941  42.376   9.673   8.116
 1518POPC   C4A21942  42.670   9.965   7.903
 1518POPC   C1B21943  42.120   9.970   8.836
 1518POPC   C2B21944  41.771  10.106   8.555
 1518POPC   C3B21945  41.803  10.000   8.129
 1518POPC   C4B21946  42.095   9.985   7.824
 1519POPC   NC321947  31.263   0.246   9.356
 1519POPC   PO421948  31.655  44.704   9.633
 1519POPC   GL121949  31.602  44.714   9.178
 1519POPC   GL221950  31.441  44.404   9.100
 1519POPC   C1A21951  31.412  44.914   8.787
 1519POPC   D2A21952  31.226  44.868   8.359
 1519POPC   C3A21953  31.527  44.719   8.010
 1519POPC   C4A21954  31.631  44.757   7.555
 1519POPC   C1B21955  31.166  44.472   8.722
 1519POPC   C2B21956  31.185  44.366   8.279
 1519POPC   C3B21957  31.130  44.465   7.848
 1519POPC   C4B21958  31.164  44.505   7.382
 1520POPC   NC321959  40.271  29.531   9.411
 1520POPC   PO421960  39.915  30.217   9.473
 1520POPC   GL121961  40.068  29.978   9.169
 1520POPC   GL221962  40.383  30.034   9.158
 1520POPC   C1A21963  39.931  29.831   8.790
 1520POPC   D2A21964  39.695  29.631   8.464
 1520POPC   C3A21965  39.708  29.795   8.068
 1520POPC   C4A21966  39.952  29.770   7.735
 1520POPC   C1B21967  40.431  29.765   8.797
 1520POPC   C2B21968  40.271  29.553   8.434
 1520POPC   C3B21969  40.404  29.665   8.035
 1520POPC   C4B21970  40.344  30.054   7.891
 1521POPC   NC321971  34.105  26.901   9.606
 1521POPC   PO421972  33.422  26.684   9.474
 1521POPC   GL121973  33.695  26.611   9.178
 1521POPC   GL221974  33.889  26.905   9.134
 1521POPC   C1A21975  33.568  26.679   8.761
 1521POPC   D2A21976  33.552  26.921   8.403
 1521POPC   C3A21977  33.602  26.640   8.059
 1521POPC   C4A21978  33.815  26.759   7.709
 1521POPC   C1B21979  34.090  27.108   8.838
 1521POPC   C2B21980  33.976  27.320   8.498
 1521POPC   C3B21981  33.892  27.138   8.107
 1521POPC   C4B21982  34.055  27.188   7.741
 1522POPC   NC321983   3.682  35.529   9.540
 1522POPC   PO421984   3.254  35.082   9.800
 1522POPC   GL121985   3.497  35.126   9.278
 1522POPC   GL221986   3.769  35.302   9.086
 1522POPC   C1A21987   3.343  35.186   8.779
 1522POPC   D2A21988   3.439  35.356   8.358
 1522POPC   C3A21989   3.231  35.256   7.950
 1522POPC   C4A21990   3.185  35.079   7.541
 1522POPC   C1B21991   4.052  35.199   8.764
 1522POPC   C2B21992   3.961  35.182   8.326
 1522POPC   C3B21993   3.748  35.296   7.941
 1522POPC   C4B21994   3.703  35.187   7.576
 1523POPC   NC321995   1.054   0.001   9.484
 1523POPC   PO421996   1.467  44.504   9.438
 1523POPC   GL121997   1.186  44.625   9.158
 1523POPC   GL221998   1.420  44.891   9.097
 1523POPC   C1A21999   1.023  44.423   8.803
 1523POPC   D2A22000   1.277  44.418   8.487
 1523POPC   C3A22001   1.100  44.346   8.093
 1523POPC   C4A22002   1.356  44.506   7.775
 1523POPC   C1B22003   1.103  44.940   8.758
 1523POPC   C2B22004   1.041  44.839   8.315
 1523POPC   C3B22005   1.205  44.974   7.906
 1523POPC   C4B22006   1.103   0.002   7.440
 1524POPC   NC322007  28.041  39.892   9.651
 1524POPC   PO422008  28.677  40.014   9.499
 1524POPC   GL122009  28.548  39.824   9.142
 1524POPC   GL222010  28.229  39.975   9.159
 1524POPC   C1A22011  28.523  39.988   8.733
 1524POPC   D2A22012  28.478  40.375   8.506
 1524POPC   C3A22013  28.720  40.381   8.136
 1524POPC   C4A22014  28.656  40.107   7.764
 1524POPC   C1B22015  27.964  39.996   8.798
 1524POPC   C2B22016  28.115  39.902   8.429
 1524POPC   C3B22017  28.260  40.074   8.102
 1524POPC   C4B22018  28.020  40.020   7.766
 1525POPC   NC322019  19.576  30.085   9.421
 1525POPC   PO422020  20.135  29.668   9.337
 1525POPC   GL122021  19.819  29.785   9.084
 1525POPC   GL222022  19.974  30.111   9.054
 1525POPC   C1A22023  19.734  29.583   8.731
 1525POPC   D2A22024  19.967  29.540   8.386
 1525POPC   C3A22025  19.822  29.752   8.087
 1525POPC   C4A22026  19.967  29.648   7.709
 1525POPC   C1B22027  19.788  30.114   8.640
 1525POPC   C2B22028  19.804  30.305   8.232
 1525POPC   C3B22029  20.019  30.168   7.857
 1525POPC   C4B22030  20.217  30.047   7.499
 1526POPC   NC322031  31.136   5.079   9.525
 1526POPC   PO422032  30.439   5.193   9.550
 1526POPC   GL122033  30.675   5.033   9.211
 1526POPC   GL222034  30.544   4.748   9.096
 1526POPC   C1A22035  30.701   5.120   8.761
 1526POPC   D2A22036  30.839   5.012   8.336
 1526POPC   C3A22037  30.704   5.226   7.955
 1526POPC   C4A22038  30.871   5.565   7.715
 1526POPC   C1B22039  30.317   4.773   8.729
 1526POPC   C2B22040  30.426   4.683   8.326
 1526POPC   C3B22041  30.276   4.679   7.922
 1526POPC   C4B22042  30.445   4.970   7.595
 1527POPC   NC322043   5.909  19.489   9.619
 1527POPC   PO422044   5.558  19.932   9.625
 1527POPC   GL122045   5.776  19.724   9.188
 1527POPC   GL222046   5.838  19.336   9.111
 1527POPC   C1A22047   5.926  19.827   8.733
 1527POPC   D2A22048   6.085  19.770   8.278
 1527POPC   C3A22049   5.888  19.981   7.937
 1527POPC   C4A22050   6.017  20.243   7.559
 1527POPC   C1B22051   5.519  19.497   8.810
 1527POPC   C2B22052   5.499  19.678   8.391
 1527POPC   C3B22053   5.643  19.492   8.030
 1527POPC   C4B22054   5.900  19.441   7.689
 1528POPC   NC322055  29.454   2.026   9.681
 1528POPC   PO422056  28.946   1.666   9.493
 1528POPC   GL122057  29.047   1.860   9.158
 1528POPC   GL222058  29.165   2.202   9.218
 1528POPC   C1A22059  29.074   1.617   8.798
 1528POPC   D2A22060  29.108   1.827   8.426
 1528POPC   C3A22061  29.116   1.652   8.055
 1528POPC   C4A22062  29.024   1.989   7.799
 1528POPC   C1B22063  29.199   2.393   8.782
 1528POPC   C2B22064  29.024   2.348   8.365
 1528POPC   C3B22065  29.236   2.443   8.003
 1528POPC   C4B22066  29.686   2.465   7.960
 1529POPC   NC322067   0.085  10.378   9.424
 1529POPC   PO422068  44.389  10.451   9.537
 1529POPC   GL122069  44.517  10.419   9.151
 1529POPC   GL222070  44.759  10.690   9.163
 1529POPC   C1A22071  44.441  10.213   8.764
 1529POPC   D2A22072  44.364  10.391   8.407
 1529POPC   C3A22073  44.482  10.350   8.029
 1529POPC   C4A22074  44.809  10.409   7.781
 1529POPC   C1B22075  44.737  10.617   8.722
 1529POPC   C2B22076  44.875  10.463   8.334
 1529POPC   C3B22077   0.199  10.589   8.054
 1529POPC   C4B22078   0.258  10.613   7.609
 1530POPC   NC322079  32.628   5.415   9.385
 1530POPC   PO422080  32.948   6.057   9.492
 1530POPC   GL122081  33.133   5.991   9.126
 1530POPC   GL222082  33.056   5.645   9.067
 1530POPC   C1A22083  32.956   6.019   8.732
 1530POPC   D2A22084  33.139   6.164   8.381
 1530POPC   C3A22085  32.998   5.969   8.032
 1530POPC   C4A22086  33.213   5.989   7.679
 1530POPC   C1B22087  33.169   5.389   8.737
 1530POPC   C2B22088  33.391   5.547   8.392
 1530POPC   C3B22089  33.425   5.489   7.980
 1530POPC   C4B22090  33.056   5.499   7.774
 1531POPC   NC322091   0.959  28.077   9.602
 1531POPC   PO422092   1.458  28.500   9.440
 1531POPC   GL122093   1.299  28.344   9.078
 1531POPC   GL222094   0.963  28.210   9.118
 1531POPC   C1A22095   1.131  28.476   8.690
 1531POPC   D2A22096   1.180  28.224   8.337
 1531POPC   C3A22097   1.034  28.449   8.010
 1531POPC   C4A22098   1.116  28.377   7.602
 1531POPC   C1B22099   0.956  27.979   8.753
 1531POPC   C2B22100   0.859  27.815   8.369
 1531POPC   C3B22101   0.842  27.987   7.976
 1531POPC   C4B22102   1.016  27.868   7.589
 1532POPC   NC322103  27.701   4.375   9.774
 1532POPC   PO422104  27.677   5.082   9.562
 1532POPC   GL122105  27.674   5.271   9.129
 1532POPC   GL222106  27.439   5.014   9.077
 1532POPC   C1A22107  27.550   5.274   8.640
 1532POPC   D2A22108  27.270   5.187   8.250
 1532POPC   C3A22109  27.503   5.047   7.893
 1532POPC   C4A22110  27.877   5.296   7.770
 1532POPC   C1B22111  27.752   4.828   8.797
 1532POPC   C2B22112  27.606   4.800   8.362
 1532POPC   C3B22113  27.806   4.635   7.980
 1532POPC   C4B22114  27.852   4.741   7.525
 1533POPC   NC322115  33.590   4.254   9.668
 1533POPC   PO422116  33.125   4.757   9.577
 1533POPC   GL122117  33.519   4.594   9.295
 1533POPC   GL222118  33.767   4.237   9.195
 1533POPC   C1A22119  33.596   4.527   8.853
 1533POPC   D2A22120  33.742   4.299   8.509
 1533POPC   C3A22121  33.699   4.585   8.210
 1533POPC   C4A22122  33.570   4.620   7.806
 1533POPC   C1B22123  34.119   4.360   8.859
 1533POPC   C2B22124  34.231   4.413   8.404
 1533POPC   C3B22125  34.019   4.173   8.071
 1533POPC   C4B22126  34.126   4.141   7.621
 1534POPC   NC322127  12.688   9.379   9.416
 1534POPC   PO422128  12.942   8.841   9.825
 1534POPC   GL122129  12.906   8.865   9.341
 1534POPC   GL222130  13.057   9.126   9.125
 1534POPC   C1A22131  12.752   8.783   8.914
 1534POPC   D2A22132  12.861   8.713   8.473
 1534POPC   C3A22133  12.648   8.914   8.152
 1534POPC   C4A22134  12.885   9.019   7.802
 1534POPC   C1B22135  13.184   9.046   8.704
 1534POPC   C2B22136  13.118   9.124   8.256
 1534POPC   C3B22137  13.277   9.310   7.904
 1534POPC   C4B22138  13.274   9.102   7.472
 1535POPC   NC322139   0.413  18.872   9.563
 1535POPC   PO422140   0.402  19.531   9.376
 1535POPC   GL122141   0.295  19.343   9.013
 1535POPC   GL222142   0.234  18.986   9.089
 1535POPC   C1A22143   0.665  19.238   8.758
 1535POPC   D2A22144   0.794  18.997   8.388
 1535POPC   C3A22145   0.681  19.257   8.020
 1535POPC   C4A22146   0.721  19.531   7.651
 1535POPC   C1B22147   0.480  18.750   8.784
 1535POPC   C2B22148   0.317  18.651   8.357
 1535POPC   C3B22149   0.322  18.856   7.941
 1535POPC   C4B22150   0.629  18.966   7.621
 1536POPC   NC322151   2.250  26.253   9.415
 1536POPC   PO422152   1.994  25.569   9.471
 1536POPC   GL122153   1.846  25.799   9.113
 1536POPC   GL222154   1.795  26.176   9.141
 1536POPC   C1A22155   1.922  25.799   8.693
 1536POPC   D2A22156   2.087  26.016   8.375
 1536POPC   C3A22157   2.017  25.885   8.012
 1536POPC   C4A22158   2.084  26.070   7.650
 1536POPC   C1B22159   2.086  26.285   8.806
 1536POPC   C2B22160   2.038  26.519   8.462
 1536POPC   C3B22161   1.939  26.395   8.054
 1536POPC   C4B22162   2.078  26.573   7.719
 1537POPC   NC322163  28.498  44.280   9.417
 1537POPC   PO422164  28.382  44.928   9.473
 1537POPC   GL122165  28.404  44.685   9.110
 1537POPC   GL222166  28.659  44.437   8.958
 1537POPC   C1A22167  28.177  44.545   8.780
 1537POPC   D2A22168  28.349  44.377   8.410
 1537POPC   C3A22169  28.166  44.524   8.045
 1537POPC   C4A22170  28.005  44.814   7.754
 1537POPC   C1B22171  28.603  44.790   8.644
 1537POPC   C2B22172  28.561  44.804   8.213
 1537POPC   C3B22173  28.520  44.766   7.757
 1537POPC   C4B22174  28.720  44.812   7.316
 1538POPC   NC322175  16.433  20.347   9.575
 1538POPC   PO422176  16.491  21.029   9.549
 1538POPC   GL122177  16.360  20.801   9.136
 1538POPC   GL222178  16.473  20.453   9.084
 1538POPC   C1A22179  16.513  20.780   8.680
 1538POPC   D2A22180  16.914  20.692   8.446
 1538POPC   C3A22181  16.768  20.866   8.068
 1538POPC   C4A22182  16.806  20.786   7.661
 1538POPC   C1B22183  16.705  20.311   8.726
 1538POPC   C2B22184  16.573  20.333   8.294
 1538POPC   C3B22185  16.756  20.349   7.896
 1538POPC   C4B22186  16.591  20.355   7.474
 1539POPC   NC322187  27.392  38.893   9.617
 1539POPC   PO422188  27.877  39.446   9.692
 1539POPC   GL122189  27.781  39.248   9.266
 1539POPC   GL222190  27.465  39.168   9.187
 1539POPC   C1A22191  27.857  39.145   8.832
 1539POPC   D2A22192  27.754  39.021   8.434
 1539POPC   C3A22193  28.002  39.019   8.045
 1539POPC   C4A22194  27.881  39.208   7.675
 1539POPC   C1B22195  27.328  39.161   8.776
 1539POPC   C2B22196  27.330  39.312   8.377
 1539POPC   C3B22197  27.500  39.182   8.000
 1539POPC   C4B22198  27.325  39.292   7.594
 1540POPC   NC322199  38.228  32.668   9.563
 1540POPC   PO422200  38.362  33.349   9.522
 1540POPC   GL122201  38.513  33.213   9.136
 1540POPC   GL222202  38.804  33.027   9.171
 1540POPC   C1A22203  38.444  33.184   8.701
 1540POPC   D2A22204  38.529  33.256   8.266
 1540POPC   C3A22205  38.221  33.136   7.935
 1540POPC   C4A22206  38.276  32.852   7.557
 1540POPC   C1B22207  38.942  33.339   8.837
 1540POPC   C2B22208  39.030  33.447   8.397
 1540POPC   C3B22209  38.932  33.356   7.959
 1540POPC   C4B22210  38.692  33.048   7.763
 1541POPC   NC322211  24.049  44.845   9.703
 1541POPC   PO422212  23.431  44.589   9.420
 1541POPC   GL122213  23.587  44.628   9.056
 1541POPC   GL222214  23.863  44.777   9.117
 1541POPC   C1A22215  23.594  44.746   8.636
 1541POPC   D2A22216  23.731  44.528   8.275
 1541POPC   C3A22217  23.537  44.661   7.914
 1541POPC   C4A22218  23.510  44.500   7.538
 1541POPC   C1B22219  24.083  44.743   8.716
 1541POPC   C2B22220  24.019  44.962   8.333
 1541POPC   C3B22221  24.044  44.780   7.931
 1541POPC   C4B22222  24.000  44.590   7.518
 1542POPC   NC322223  31.272  11.951   9.485
 1542POPC   PO422224  31.423  11.260   9.450
 1542POPC   GL122225  31.668  11.222   9.077
 1542POPC   GL222226  31.778  11.571   9.019
 1542POPC   C1A22227  31.739  11.157   8.666
 1542POPC   D2A22228  31.570  10.793   8.444
 1542POPC   C3A22229  31.390  10.874   8.020
 1542POPC   C4A22230  31.577  11.033   7.632
 1542POPC   C1B22231  31.393  11.551   8.793
 1542POPC   C2B22232  31.345  11.318   8.401
 1542POPC   C3B22233  31.583  11.337   8.049
 1542POPC   C4B22234  31.265  11.414   7.789
 1543POPC   NC322235  20.377  22.133   9.498
 1543POPC   PO422236  20.974  21.927   9.251
 1543POPC   GL122237  20.769  22.208   9.037
 1543POPC   GL222238  20.430  22.330   9.039
 1543POPC   C1A22239  20.611  22.087   8.638
 1543POPC   D2A22240  20.348  21.878   8.374
 1543POPC   C3A22241  20.521  22.067   8.026
 1543POPC   C4A22242  20.837  22.049   7.711
 1543POPC   C1B22243  20.436  22.556   8.646
 1543POPC   C2B22244  20.151  22.449   8.318
 1543POPC   C3B22245  20.168  22.564   7.919
 1543POPC   C4B22246  20.537  22.466   7.713
 1544POPC   NC322247   1.588  17.827   9.520
 1544POPC   PO422248   1.399  17.215   9.432
 1544POPC   GL122249   1.369  17.503   9.085
 1544POPC   GL222250   1.402  17.879   9.060
 1544POPC   C1A22251   1.312  17.368   8.677
 1544POPC   D2A22252   0.975  17.265   8.366
 1544POPC   C3A22253   1.081  17.323   7.899
 1544POPC   C4A22254   0.977  17.204   7.454
 1544POPC   C1B22255   1.162  17.844   8.697
 1544POPC   C2B22256   1.273  17.693   8.284
 1544POPC   C3B22257   1.310  17.810   7.873
 1544POPC   C4B22258   0.999  18.021   7.675
 1545POPC   NC322259   9.614   6.647   9.376
 1545POPC   PO422260   9.999   6.431   9.933
 1545POPC   GL122261  10.108   6.515   9.392
 1545POPC   GL222262   9.911   6.283   9.180
 1545POPC   C1A22263  10.030   6.647   8.851
 1545POPC   D2A22264   9.665   6.740   8.535
 1545POPC   C3A22265   9.752   6.853   8.086
 1545POPC   C4A22266  10.145   6.795   7.872
 1545POPC   C1B22267   9.654   6.287   8.786
 1545POPC   C2B22268   9.717   6.265   8.341
 1545POPC   C3B22269   9.791   6.366   7.885
 1545POPC   C4B22270   9.526   6.337   7.503
 1546POPC   NC322271  25.659  35.109   9.572
 1546POPC   PO422272  26.184  35.543   9.592
 1546POPC   GL122273  25.922  35.416   9.211
 1546POPC   GL222274  25.949  35.036   9.162
 1546POPC   C1A22275  25.947  35.354   8.739
 1546POPC   D2A22276  26.233  35.511   8.417
 1546POPC   C3A22277  26.135  35.515   7.940
 1546POPC   C4A22278  25.823  35.501   7.558
 1546POPC   C1B22279  26.355  35.101   8.954
 1546POPC   C2B22280  26.358  35.001   8.514
 1546POPC   C3B22281  26.038  35.065   8.229
 1546POPC   C4B22282  25.997  35.042   7.812
 1547POPC   NC322283  11.655  32.829   9.475
 1547POPC   PO422284  11.094  33.112   9.671
 1547POPC   GL122285  11.148  32.982   9.235
 1547POPC   GL222286  11.406  33.114   9.155
 1547POPC   C1A22287  10.976  32.828   8.827
 1547POPC   D2A22288  10.885  33.130   8.481
 1547POPC   C3A22289  11.000  32.962   8.103
 1547POPC   C4A22290  11.202  33.180   7.801
 1547POPC   C1B22291  11.321  33.179   8.758
 1547POPC   C2B22292  11.396  32.927   8.419
 1547POPC   C3B22293  11.602  32.990   8.041
 1547POPC   C4B22294  11.761  32.766   7.707
 1548POPC   NC322295  21.950  29.544   9.553
 1548POPC   PO422296  21.648  30.160   9.457
 1548POPC   GL122297  21.996  29.904   9.187
 1548POPC   GL222298  22.211  29.571   9.123
 1548POPC   C1A22299  22.243  30.003   8.821
 1548POPC   D2A22300  22.070  30.027   8.410
 1548POPC   C3A22301  22.272  30.040   8.035
 1548POPC   C4A22302  21.984  29.844   7.833
 1548POPC   C1B22303  22.077  29.530   8.724
 1548POPC   C2B22304  22.321  29.585   8.387
 1548POPC   C3B22305  22.382  29.509   7.993
 1548POPC   C4B22306  22.439  29.716   7.615
 1549POPC   NC322307   2.969  29.330   9.474
 1549POPC   PO422308   2.707  28.832   9.541
 1549POPC   GL122309   2.810  28.962   9.161
 1549POPC   GL222310   2.574  29.227   9.158
 1549POPC   C1A22311   2.963  29.201   8.806
 1549POPC   D2A22312   2.742  29.190   8.431
 1549POPC   C3A22313   2.797  29.142   8.024
 1549POPC   C4A22314   2.888  28.802   7.725
 1549POPC   C1B22315   2.490  29.441   8.782
 1549POPC   C2B22316   2.430  29.619   8.336
 1549POPC   C3B22317   2.417  29.525   7.889
 1549POPC   C4B22318   2.534  29.180   7.602
 1550POPC   NC322319  14.155  10.451   9.586
 1550POPC   PO422320  14.615  10.488   9.121
 1550POPC   GL122321  14.348  10.677   8.891
 1550POPC   GL222322  14.108  10.731   9.166
 1550POPC   C1A22323  14.354  10.414   8.523
 1550POPC   D2A22324  14.726  10.196   8.380
 1550POPC   C3A22325  14.652  10.174   7.953
 1550POPC   C4A22326  14.489  10.545   7.734
 1550POPC   C1B22327  13.874  10.761   8.794
 1550POPC   C2B22328  14.017  10.772   8.377
 1550POPC   C3B22329  14.089  10.460   8.070
 1550POPC   C4B22330  13.955  10.562   7.670
 1551POPC   NC322331  17.720   8.331   9.546
 1551POPC   PO422332  17.091   8.030   9.522
 1551POPC   GL122333  17.375   8.140   9.221
 1551POPC   GL222334  17.398   8.482   9.167
 1551POPC   C1A22335  17.485   8.105   8.792
 1551POPC   D2A22336  17.638   8.216   8.407
 1551POPC   C3A22337  17.408   8.234   8.027
 1551POPC   C4A22338  17.570   8.078   7.630
 1551POPC   C1B22339  17.251   8.738   8.823
 1551POPC   C2B22340  17.299   8.639   8.390
 1551POPC   C3B22341  17.217   8.712   7.951
 1551POPC   C4B22342  17.366   8.539   7.540
 1552POPC   NC322343  33.313  23.190   9.363
 1552POPC   PO422344  32.912  22.594   9.461
 1552POPC   GL122345  33.007  22.848   9.098
 1552POPC   GL222346  33.152  23.165   8.892
 1552POPC   C1A22347  32.931  22.738   8.710
 1552POPC   D2A22348  33.052  22.985   8.389
 1552POPC   C3A22349  32.973  22.776   8.042
 1552POPC   C4A22350  33.038  22.750   7.652
 1552POPC   C1B22351  32.703  23.196   8.752
 1552POPC   C2B22352  32.565  23.327   8.343
 1552POPC   C3B22353  32.799  23.275   7.974
 1552POPC   C4B22354  32.704  23.264   7.548
 1553POPC   NC322355   5.827  10.176   9.860
 1553POPC   PO422356   5.751  10.747   9.429
 1553POPC   GL122357   5.956  10.777   9.055
 1553POPC   GL222358   5.673  10.684   8.903
 1553POPC   C1A22359   6.138  10.821   8.649
 1553POPC   D2A22360   6.155  10.556   8.308
 1553POPC   C3A22361   5.810  10.701   8.126
 1553POPC   C4A22362   5.756  10.946   7.773
 1553POPC   C1B22363   5.919  10.349   8.728
 1553POPC   C2B22364   5.760  10.167   8.392
 1553POPC   C3B22365   5.881  10.167   7.990
 1553POPC   C4B22366   5.655  10.448   7.720
 1554POPC   NC322367  36.234  32.420   9.626
 1554POPC   PO422368  35.684  32.014   9.490
 1554POPC   GL122369  36.119  32.059   9.203
 1554POPC   GL222370  36.439  31.819   9.264
 1554POPC   C1A22371  36.130  32.184   8.723
 1554POPC   D2A22372  35.887  32.124   8.281
 1554POPC   C3A22373  35.890  32.340   7.839
 1554POPC   C4A22374  35.687  32.695   7.590
 1554POPC   C1B22375  36.457  31.807   8.818
 1554POPC   C2B22376  36.567  32.094   8.453
 1554POPC   C3B22377  36.372  32.198   8.044
 1554POPC   C4B22378  36.312  32.162   7.586
 1555POPC   NC322379  29.284  18.482   9.428
 1555POPC   PO422380  28.830  17.924   9.517
 1555POPC   GL122381  28.823  18.176   9.149
 1555POPC   GL222382  29.186  18.144   9.076
 1555POPC   C1A22383  28.918  18.548   8.857
 1555POPC   D2A22384  29.137  18.600   8.449
 1555POPC   C3A22385  28.952  18.528   8.002
 1555POPC   C4A22386  28.957  18.451   7.540
 1555POPC   C1B22387  29.082  18.107   8.653
 1555POPC   C2B22388  29.105  18.088   8.222
 1555POPC   C3B22389  28.904  18.022   7.843
 1555POPC   C4B22390  28.912  17.706   7.561
 1556POPC   NC322391  41.218   1.032   9.357
 1556POPC   PO422392  41.843   1.301   9.451
 1556POPC   GL122393  41.654   1.256   9.097
 1556POPC   GL222394  41.397   1.513   9.144
 1556POPC   C1A22395  41.420   1.227   8.715
 1556POPC   D2A22396  41.247   1.068   8.357
 1556POPC   C3A22397  41.423   1.342   8.072
 1556POPC   C4A22398  41.419   1.241   7.648
 1556POPC   C1B22399  41.676   1.664   8.799
 1556POPC   C2B22400  41.516   1.687   8.437
 1556POPC   C3B22401  41.631   1.849   8.103
 1556POPC   C4B22402  41.746   1.619   7.770
 1557POPC   NC322403  15.214  32.577   9.616
 1557POPC   PO422404  14.886  33.176   9.667
 1557POPC   GL122405  15.002  33.010   9.247
 1557POPC   GL222406  15.295  32.820   9.162
 1557POPC   C1A22407  15.125  33.164   8.808
 1557POPC   D2A22408  15.197  32.975   8.380
 1557POPC   C3A22409  15.078  33.227   7.999
 1557POPC   C4A22410  14.728  33.346   7.709
 1557POPC   C1B22411  15.421  32.557   8.808
 1557POPC   C2B22412  15.546  32.603   8.347
 1557POPC   C3B22413  15.356  32.630   7.908
 1557POPC   C4B22414  15.529  32.841   7.522
 1558POPC   NC322415  30.591  40.363   9.584
 1558POPC   PO422416  30.287  39.753   9.432
 1558POPC   GL122417  30.492  40.085   9.110
 1558POPC   GL222418  30.770  40.252   9.114
 1558POPC   C1A22419  30.488  40.246   8.682
 1558POPC   D2A22420  30.536  39.903   8.390
 1558POPC   C3A22421  30.513  39.949   7.938
 1558POPC   C4A22422  30.910  39.894   7.709
 1558POPC   C1B22423  31.008  40.185   8.744
 1558POPC   C2B22424  30.953  40.143   8.300
 1558POPC   C3B22425  30.858  40.338   7.929
 1558POPC   C4B22426  31.057  40.364   7.537
 1559POPC   NC322427  15.993  22.488   9.569
 1559POPC   PO422428  15.979  21.869   9.369
 1559POPC   GL122429  16.034  22.265   9.112
 1559POPC   GL222430  15.731  22.542   9.139
 1559POPC   C1A22431  16.172  22.234   8.677
 1559POPC   D2A22432  15.981  21.897   8.427
 1559POPC   C3A22433  16.056  22.032   8.026
 1559POPC   C4A22434  16.188  22.456   7.902
 1559POPC   C1B22435  15.672  22.327   8.747
 1559POPC   C2B22436  15.831  22.382   8.324
 1559POPC   C3B22437  15.679  22.349   7.921
 1559POPC   C4B22438  15.515  21.909   7.846
 1560POPC   NC322439  43.208  13.995   9.591
 1560POPC   PO422440  43.219  13.360   9.341
 1560POPC   GL122441  43.108  13.704   9.115
 1560POPC   GL222442  42.807  13.867   9.210
 1560POPC   C1A22443  43.120  13.577   8.707
 1560POPC   D2A22444  43.402  13.614   8.405
 1560POPC   C3A22445  43.263  13.389   8.068
 1560POPC   C4A22446  42.900  13.543   7.858
 1560POPC   C1B22447  42.824  13.987   8.773
 1560POPC   C2B22448  42.822  13.760   8.343
 1560POPC   C3B22449  42.804  14.041   8.003
 1560POPC   C4B22450  42.917  14.176   7.583
 1561POPC   NC322451  38.701  39.749   9.545
 1561POPC   PO422452  38.119  39.993   9.273
 1561POPC   GL122453  38.491  39.976   9.109
 1561POPC   GL222454  38.507  39.601   9.104
 1561POPC   C1A22455  38.552  40.183   8.717
 1561POPC   D2A22456  38.433  40.374   8.329
 1561POPC   C3A22457  38.619  40.197   7.974
 1561POPC   C4A22458  38.553  40.209   7.531
 1561POPC   C1B22459  38.324  39.681   8.704
 1561POPC   C2B22460  38.388  39.871   8.327
 1561POPC   C3B22461  38.207  39.907   7.937
 1561POPC   C4B22462  38.434  39.746   7.614
 1562POPC   NC322463  23.105   8.798   9.418
 1562POPC   PO422464  22.562   9.201   9.581
 1562POPC   GL122465  22.676   9.086   9.146
 1562POPC   GL222466  23.036   9.105   9.018
 1562POPC   C1A22467  22.651   9.157   8.689
 1562POPC   D2A22468  22.745   8.904   8.325
 1562POPC   C3A22469  22.933   9.206   8.049
 1562POPC   C4A22470  23.085   9.090   7.672
 1562POPC   C1B22471  22.971   8.715   8.756
 1562POPC   C2B22472  23.140   8.501   8.367
 1562POPC   C3B22473  23.204   8.664   7.928
 1562POPC   C4B22474  23.324   8.585   7.454
 1563POPC   NC322475  34.740  20.134   9.526
 1563POPC   PO422476  34.366  19.620   9.785
 1563POPC   GL122477  34.542  19.613   9.317
 1563POPC   GL222478  34.677  19.890   9.109
 1563POPC   C1A22479  34.670  19.445   8.865
 1563POPC   D2A22480  34.426  19.395   8.452
 1563POPC   C3A22481  34.606  19.565   8.064
 1563POPC   C4A22482  34.690  19.741   7.644
 1563POPC   C1B22483  34.776  20.142   8.761
 1563POPC   C2B22484  34.731  19.969   8.373
 1563POPC   C3B22485  34.620  20.088   7.996
 1563POPC   C4B22486  34.703  20.292   7.615
 1564POPC   NC322487  44.111  37.792   9.531
 1564POPC   PO422488  43.481  37.836   9.660
 1564POPC   GL122489  43.693  37.917   9.236
 1564POPC   GL222490  43.939  37.639   9.076
 1564POPC   C1A22491  43.783  38.027   8.796
 1564POPC   D2A22492  43.974  37.760   8.464
 1564POPC   C3A22493  43.788  37.633   8.119
 1564POPC   C4A22494  43.811  37.675   7.714
 1564POPC   C1B22495  44.039  37.325   8.739
 1564POPC   C2B22496  43.783  37.146   8.383
 1564POPC   C3B22497  43.584  37.191   7.971
 1564POPC   C4B22498  43.642  37.245   7.517
 1565POPC   NC322499  32.045  27.380   9.596
 1565POPC   PO422500  32.598  27.715   9.502
 1565POPC   GL122501  32.336  27.637   9.120
 1565POPC   GL222502  31.997  27.434   9.106
 1565POPC   C1A22503  32.375  27.719   8.666
 1565POPC   D2A22504  32.556  27.352   8.456
 1565POPC   C3A22505  32.533  27.313   8.027
 1565POPC   C4A22506  32.389  27.667   7.750
 1565POPC   C1B22507  32.091  27.305   8.700
 1565POPC   C2B22508  32.062  27.464   8.271
 1565POPC   C3B22509  31.804  27.392   7.901
 1565POPC   C4B22510  31.785  27.311   7.447
 1566POPC   NC322511  11.311  36.566   9.522
 1566POPC   PO422512  11.396  35.890   9.587
 1566POPC   GL122513  11.215  36.137   9.235
 1566POPC   GL222514  11.106  35.844   9.074
 1566POPC   C1A22515  11.089  36.322   8.809
 1566POPC   D2A22516  11.056  36.585   8.434
 1566POPC   C3A22517  11.108  36.357   8.050
 1566POPC   C4A22518  11.238  35.945   7.825
 1566POPC   C1B22519  11.121  35.846   8.585
 1566POPC   C2B22520  11.408  36.027   8.297
 1566POPC   C3B22521  11.719  35.822   7.979
 1566POPC   C4B22522  11.609  35.622   7.558
 1567POPC   NC322523   9.526  25.736   9.506
 1567POPC   PO422524   9.582  26.364   9.602
 1567POPC   GL122525   9.517  26.196   9.205
 1567POPC   GL222526   9.715  25.944   9.091
 1567POPC   C1A22527   9.471  26.273   8.782
 1567POPC   D2A22528   9.478  26.092   8.382
 1567POPC   C3A22529   9.353  26.280   8.020
 1567POPC   C4A22530   9.560  26.239   7.641
 1567POPC   C1B22531   9.828  25.855   8.685
 1567POPC   C2B22532   9.844  25.753   8.257
 1567POPC   C3B22533   9.990  25.906   7.884
 1567POPC   C4B22534  10.349  25.924   7.620
 1568POPC   NC322535  21.110   4.832   9.480
 1568POPC   PO422536  21.771   4.832   9.470
 1568POPC   GL122537  21.513   4.851   9.144
 1568POPC   GL222538  21.352   5.191   9.148
 1568POPC   C1A22539  21.502   4.918   8.723
 1568POPC   D2A22540  21.664   5.082   8.367
 1568POPC   C3A22541  21.551   4.885   7.972
 1568POPC   C4A22542  21.421   4.967   7.548
 1568POPC   C1B22543  21.384   5.449   8.758
 1568POPC   C2B22544  21.593   5.602   8.373
 1568POPC   C3B22545  21.486   5.394   8.000
 1568POPC   C4B22546  21.128   5.295   7.817
 1569POPC   NC322547  24.891   7.167   9.872
 1569POPC   PO422548  25.350   7.564   9.424
 1569POPC   GL122549  25.409   7.551   9.050
 1569POPC   GL222550  25.328   7.227   8.994
 1569POPC   C1A22551  25.213   7.645   8.686
 1569POPC   D2A22552  25.213   7.435   8.348
 1569POPC   C3A22553  25.327   7.685   8.054
 1569POPC   C4A22554  25.134   7.531   7.713
 1569POPC   C1B22555  25.472   7.093   8.604
 1569POPC   C2B22556  25.476   7.044   8.146
 1569POPC   C3B22557  25.239   7.039   7.756
 1569POPC   C4B22558  25.411   7.158   7.348
 1570POPC   NC322559   8.695  27.190   9.584
 1570POPC   PO422560   9.312  26.892   9.575
 1570POPC   GL122561   9.079  27.009   9.249
 1570POPC   GL222562   9.395  27.035   9.065
 1570POPC   C1A22563   8.913  26.791   8.893
 1570POPC   D2A22564   9.002  26.501   8.596
 1570POPC   C3A22565   8.990  26.659   8.180
 1570POPC   C4A22566   9.062  26.607   7.742
 1570POPC   C1B22567   9.154  27.225   8.786
 1570POPC   C2B22568   9.232  27.113   8.391
 1570POPC   C3B22569   9.099  27.149   8.014
 1570POPC   C4B22570   9.187  27.091   7.634
 1571POPC   NC322571  38.543   5.374   9.595
 1571POPC   PO422572  38.156   4.921   9.345
 1571POPC   GL122573  38.546   4.959   9.146
 1571POPC   GL222574  38.596   5.292   9.089
 1571POPC   C1A22575  38.791   4.940   8.762
 1571POPC   D2A22576  38.764   5.104   8.360
 1571POPC   C3A22577  38.614   4.822   8.047
 1571POPC   C4A22578  38.266   4.901   7.794
 1571POPC   C1B22579  38.332   5.218   8.707
 1571POPC   C2B22580  38.352   5.420   8.292
 1571POPC   C3B22581  38.546   5.321   7.908
 1571POPC   C4B22582  38.792   5.364   7.531
 1572POPC   NC322583  32.333  28.887   9.504
 1572POPC   PO422584  31.748  29.319   9.487
 1572POPC   GL122585  32.022  29.165   9.179
 1572POPC   GL222586  32.005  28.852   9.119
 1572POPC   C1A22587  32.135  29.237   8.769
 1572POPC   D2A22588  32.199  29.432   8.383
 1572POPC   C3A22589  32.347  29.224   8.032
 1572POPC   C4A22590  32.642  29.401   7.734
 1572POPC   C1B22591  32.113  28.724   8.732
 1572POPC   C2B22592  32.041  28.918   8.351
 1572POPC   C3B22593  31.989  28.808   7.935
 1572POPC   C4B22594  32.140  28.842   7.512
 1573POPC   NC322595  41.373  21.198   9.920
 1573POPC   PO422596  40.780  21.349   9.568
 1573POPC   GL122597  40.822  21.475   9.165
 1573POPC   GL222598  41.155  21.468   9.195
 1573POPC   C1A22599  40.666  21.289   8.783
 1573POPC   D2A22600  40.440  21.146   8.437
 1573POPC   C3A22601  40.529  21.390   8.094
 1573POPC   C4A22602  40.430  21.365   7.680
 1573POPC   C1B22603  41.167  21.235   8.800
 1573POPC   C2B22604  41.006  21.338   8.368
 1573POPC   C3B22605  41.000  21.237   7.930
 1573POPC   C4B22606  40.948  21.443   7.500
 1574POPC   NC322607  36.843   4.102   9.807
 1574POPC   PO422608  36.876   3.604   9.330
 1574POPC   GL122609  37.029   3.367   9.058
 1574POPC   GL222610  37.286   3.599   9.036
 1574POPC   C1A22611  36.928   3.412   8.644
 1574POPC   D2A22612  36.668   3.528   8.327
 1574POPC   C3A22613  36.810   3.429   7.943
 1574POPC   C4A22614  36.682   3.520   7.530
 1574POPC   C1B22615  37.183   3.850   8.699
 1574POPC   C2B22616  37.121   3.798   8.306
 1574POPC   C3B22617  37.254   4.064   8.011
 1574POPC   C4B22618  37.015   3.875   7.744
 1575POPC   NC322619  13.821  42.545   9.448
 1575POPC   PO422620  13.449  41.935   9.390
 1575POPC   GL122621  13.568  42.264   9.125
 1575POPC   GL222622  13.262  42.315   9.018
 1575POPC   C1A22623  13.714  42.588   8.780
 1575POPC   D2A22624  14.047  42.459   8.473
 1575POPC   C3A22625  14.155  42.642   8.078
 1575POPC   C4A22626  13.897  42.729   7.746
 1575POPC   C1B22627  13.470  42.169   8.652
 1575POPC   C2B22628  13.562  42.397   8.302
 1575POPC   C3B22629  13.624  42.224   7.942
 1575POPC   C4B22630  13.414  41.983   7.624
 1576POPC   NC322631   2.310  37.680   9.400
 1576POPC   PO422632   1.662  37.482   9.465
 1576POPC   GL122633   1.824  37.706   9.147
 1576POPC   GL222634   1.770  38.067   9.141
 1576POPC   C1A22635   1.861  37.560   8.750
 1576POPC   D2A22636   1.657  37.614   8.390
 1576POPC   C3A22637   1.893  37.453   8.059
 1576POPC   C4A22638   1.709  37.547   7.687
 1576POPC   C1B22639   2.090  38.015   8.796
 1576POPC   C2B22640   2.139  37.833   8.395
 1576POPC   C3B22641   1.976  37.962   8.030
 1576POPC   C4B22642   2.238  38.235   7.795
 1577POPC   NC322643   5.440  33.573   9.310
 1577POPC   PO422644   5.951  33.903   9.538
 1577POPC   GL122645   5.903  33.897   9.141
 1577POPC   GL222646   5.611  34.106   9.176
 1577POPC   C1A22647   5.807  33.742   8.761
 1577POPC   D2A22648   5.738  33.875   8.368
 1577POPC   C3A22649   5.915  33.568   8.120
 1577POPC   C4A22650   6.164  33.597   7.764
 1577POPC   C1B22651   5.714  34.245   8.767
 1577POPC   C2B22652   5.450  34.297   8.409
 1577POPC   C3B22653   5.489  34.127   7.989
 1577POPC   C4B22654   5.706  33.857   7.756
 1578POPC   NC322655  37.463  41.953   9.549
 1578POPC   PO422656  37.919  42.486   9.575
 1578POPC   GL122657  37.759  42.247   9.239
 1578POPC   GL222658  37.389  42.316   9.202
 1578POPC   C1A22659  37.733  42.257   8.799
 1578POPC   D2A22660  37.739  42.027   8.416
 1578POPC   C3A22661  37.824  42.281   8.095
 1578POPC   C4A22662  37.767  42.093   7.737
 1578POPC   C1B22663  37.241  42.128   8.832
 1578POPC   C2B22664  37.334  42.304   8.460
 1578POPC   C3B22665  37.334  42.187   8.059
 1578POPC   C4B22666  37.354  42.395   7.701
 1579POPC   NC322667  26.520   7.615   9.563
 1579POPC   PO422668  27.094   7.336   9.563
 1579POPC   GL122669  26.892   7.472   9.175
 1579POPC   GL222670  26.555   7.516   9.078
 1579POPC   C1A22671  27.072   7.458   8.755
 1579POPC   D2A22672  27.107   7.717   8.418
 1579POPC   C3A22673  26.957   7.513   8.062
 1579POPC   C4A22674  27.031   7.571   7.648
 1579POPC   C1B22675  26.641   7.177   8.835
 1579POPC   C2B22676  26.572   7.040   8.459
 1579POPC   C3B22677  26.633   7.081   8.049
 1579POPC   C4B22678  26.492   6.816   7.770
 1580POPC   NC322679  25.366  31.908   9.377
 1580POPC   PO422680  25.046  32.531   9.478
 1580POPC   GL122681  25.209  32.346   9.161
 1580POPC   GL222682  24.941  32.120   9.088
 1580POPC   C1A22683  25.287  32.419   8.738
 1580POPC   D2A22684  25.065  32.311   8.379
 1580POPC   C3A22685  25.242  32.451   8.029
 1580POPC   C4A22686  25.623  32.286   7.840
 1580POPC   C1B22687  25.009  31.875   8.705
 1580POPC   C2B22688  25.309  31.845   8.354
 1580POPC   C3B22689  25.253  31.939   7.932
 1580POPC   C4B22690  24.931  32.171   7.737
 1581POPC   NC322691  11.823  18.124   9.565
 1581POPC   PO422692  12.455  18.098   9.287
 1581POPC   GL122693  12.196  18.410   9.155
 1581POPC   GL222694  11.926  18.230   9.086
 1581POPC   C1A22695  11.928  18.672   8.856
 1581POPC   D2A22696  11.966  18.483   8.479
 1581POPC   C3A22697  11.961  18.654   8.067
 1581POPC   C4A22698  11.933  18.440   7.685
 1581POPC   C1B22699  12.095  17.988   8.757
 1581POPC   C2B22700  12.214  18.072   8.311
 1581POPC   C3B22701  12.129  17.964   7.879
 1581POPC   C4B22702  12.140  18.031   7.445
 1582POPC   NC322703  16.374  10.317   9.700
 1582POPC   PO422704  16.818  10.814   9.637
 1582POPC   GL122705  16.903  10.571   9.273
 1582POPC   GL222706  16.565  10.472   9.236
 1582POPC   C1A22707  16.892  10.401   8.840
 1582POPC   D2A22708  17.079  10.226   8.465
 1582POPC   C3A22709  16.873  10.423   8.117
 1582POPC   C4A22710  16.938  10.624   7.721
 1582POPC   C1B22711  16.414  10.180   8.921
 1582POPC   C2B22712  16.567  10.105   8.505
 1582POPC   C3B22713  16.432  10.124   8.088
 1582POPC   C4B22714  16.457  10.437   7.788
 1583POPC   NC322715  29.917   5.320   9.532
 1583POPC   PO422716  29.636   4.695   9.480
 1583POPC   GL122717  29.771   4.990   9.150
 1583POPC   GL222718  30.133   5.059   9.154
 1583POPC   C1A22719  29.839   4.936   8.712
 1583POPC   D2A22720  29.949   4.824   8.330
 1583POPC   C3A22721  29.715   4.930   7.992
 1583POPC   C4A22722  29.942   4.904   7.600
 1583POPC   C1B22723  30.182   5.285   8.791
 1583POPC   C2B22724  30.357   5.202   8.376
 1583POPC   C3B22725  30.163   5.180   7.977
 1583POPC   C4B22726  29.776   5.378   7.753
 1584POPC   NC322727   0.950  34.702   9.433
 1584POPC   PO422728   1.406  34.241   9.474
 1584POPC   GL122729   1.383  34.533   9.115
 1584POPC   GL222730   1.076  34.399   9.026
 1584POPC   C1A22731   1.406  34.879   8.761
 1584POPC   D2A22732   1.103  34.933   8.444
 1584POPC   C3A22733   1.199  34.662   8.126
 1584POPC   C4A22734   1.186  34.720   7.722
 1584POPC   C1B22735   1.234  34.426   8.596
 1584POPC   C2B22736   1.397  34.191   8.224
 1584POPC   C3B22737   1.237  34.227   7.788
 1584POPC   C4B22738   1.397  34.151   7.384
 1585POPC   NC322739  42.158  18.746   9.417
 1585POPC   PO422740  42.215  19.421   9.668
 1585POPC   GL122741  42.500  19.323   9.312
 1585POPC   GL222742  42.180  19.287   9.159
 1585POPC   C1A22743  42.594  19.179   8.856
 1585POPC   D2A22744  42.482  18.971   8.432
 1585POPC   C3A22745  42.465  19.253   8.024
 1585POPC   C4A22746  42.611  19.401   7.615
 1585POPC   C1B22747  42.081  19.013   8.825
 1585POPC   C2B22748  41.972  19.065   8.439
 1585POPC   C3B22749  42.095  18.917   8.084
 1585POPC   C4B22750  41.975  19.007   7.711
 1586POPC   NC322751   8.048  39.262   9.534
 1586POPC   PO422752   8.609  38.841   9.651
 1586POPC   GL122753   8.342  38.975   9.229
 1586POPC   GL222754   8.292  39.343   9.115
 1586POPC   C1A22755   8.023  39.005   8.857
 1586POPC   D2A22756   8.158  38.971   8.438
 1586POPC   C3A22757   8.122  39.140   8.027
 1586POPC   C4A22758   8.243  38.823   7.709
 1586POPC   C1B22759   8.366  39.440   8.705
 1586POPC   C2B22760   8.263  39.590   8.318
 1586POPC   C3B22761   8.447  39.525   7.926
 1586POPC   C4B22762   8.414  39.295   7.546
 1587POPC   NC322763   8.468  21.710   9.237
 1587POPC   PO422764   8.298  22.328   9.466
 1587POPC   GL122765   8.353  22.439   9.047
 1587POPC   GL222766   8.246  22.112   8.996
 1587POPC   C1A22767   8.143  22.432   8.630
 1587POPC   D2A22768   8.112  22.159   8.259
 1587POPC   C3A22769   8.065  22.405   7.899
 1587POPC   C4A22770   8.490  22.461   7.791
 1587POPC   C1B22771   8.298  21.867   8.649
 1587POPC   C2B22772   8.617  21.778   8.417
 1587POPC   C3B22773   8.455  21.738   8.025
 1587POPC   C4B22774   8.278  21.988   7.727
 1588POPC   NC322775  30.281  30.777   9.521
 1588POPC   PO422776  29.612  30.686   9.469
 1588POPC   GL122777  29.919  30.778   9.156
 1588POPC   GL222778  30.143  31.076   9.144
 1588POPC   C1A22779  30.057  30.631   8.776
 1588POPC   D2A22780  29.843  30.443   8.434
 1588POPC   C3A22781  30.048  30.411   8.054
 1588POPC   C4A22782  29.888  30.329   7.663
 1588POPC   C1B22783  29.896  31.133   8.776
 1588POPC   C2B22784  29.784  30.960   8.388
 1588POPC   C3B22785  29.957  30.909   7.980
 1588POPC   C4B22786  30.143  30.761   7.562
 1589POPC   NC322787  16.072   7.971   9.461
 1589POPC   PO422788  16.303   8.528   9.158
 1589POPC   GL122789  15.969   8.243   9.037
 1589POPC   GL222790  16.127   8.217   8.723
 1589POPC   C1A22791  15.675   7.966   8.795
 1589POPC   D2A22792  15.731   7.847   8.356
 1589POPC   C3A22793  15.942   8.054   8.025
 1589POPC   C4A22794  15.655   8.085   7.704
 1589POPC   C1B22795  15.731   8.423   8.596
 1589POPC   C2B22796  15.478   8.302   8.248
 1589POPC   C3B22797  15.573   8.538   7.894
 1589POPC   C4B22798  15.927   8.533   7.668
 1590POPC   NC322799  37.353  25.555   9.254
 1590POPC   PO422800  36.864  25.165   9.623
 1590POPC   GL122801  36.861  25.287   9.185
 1590POPC   GL222802  36.689  25.577   9.041
 1590POPC   C1A22803  36.738  25.098   8.791
 1590POPC   D2A22804  36.960  25.057   8.407
 1590POPC   C3A22805  36.790  25.120   8.023
 1590POPC   C4A22806  36.963  25.299   7.688
 1590POPC   C1B22807  37.001  25.540   8.689
 1590POPC   C2B22808  37.215  25.545   8.288
 1590POPC   C3B22809  37.062  25.776   7.914
 1590POPC   C4B22810  36.626  25.660   7.888
 1591POPC   NC322811   5.491  41.178   9.718
 1591POPC   PO422812   6.062  40.944   9.532
 1591POPC   GL122813   5.813  40.645   9.210
 1591POPC   GL222814   5.871  40.793   8.932
 1591POPC   C1A22815   5.509  40.490   8.814
 1591POPC   D2A22816   5.703  40.598   8.461
 1591POPC   C3A22817   5.563  40.494   8.071
 1591POPC   C4A22818   5.849  40.554   7.785
 1591POPC   C1B22819   6.097  40.924   8.624
 1591POPC   C2B22820   6.160  40.933   8.221
 1591POPC   C3B22821   6.171  40.939   7.809
 1591POPC   C4B22822   5.771  41.014   7.592
 1592POPC   NC322823  12.376  41.794   9.553
 1592POPC   PO422824  11.856  41.450   9.481
 1592POPC   GL122825  11.973  41.400   9.053
 1592POPC   GL222826  12.288  41.520   9.107
 1592POPC   C1A22827  11.955  41.434   8.585
 1592POPC   D2A22828  12.306  41.546   8.380
 1592POPC   C3A22829  12.269  41.793   8.039
 1592POPC   C4A22830  12.158  41.891   7.657
 1592POPC   C1B22831  12.366  41.211   8.809
 1592POPC   C2B22832  12.229  41.012   8.442
 1592POPC   C3B22833  11.996  41.188   8.099
 1592POPC   C4B22834  12.158  41.384   7.721
 1593POPC   NC322835  39.852   0.708   9.480
 1593POPC   PO422836  40.335   0.255   9.251
 1593POPC   GL122837  40.084   0.527   9.046
 1593POPC   GL222838  39.783   0.316   9.102
 1593POPC   C1A22839  40.148   0.622   8.614
 1593POPC   D2A22840  40.379   0.537   8.250
 1593POPC   C3A22841  40.119   0.326   8.014
 1593POPC   C4A22842  40.025   0.267   7.614
 1593POPC   C1B22843  39.622   0.622   8.787
 1593POPC   C2B22844  39.678   0.755   8.331
 1593POPC   C3B22845  39.637   0.513   7.902
 1593POPC   C4B22846  39.542   0.128   7.598
 1594POPC   NC322847  43.343  18.778   9.478
 1594POPC   PO422848  44.023  18.977   9.652
 1594POPC   GL122849  44.006  18.958   9.212
 1594POPC   GL222850  44.238  19.230   9.186
 1594POPC   C1A22851  43.907  18.785   8.773
 1594POPC   D2A22852  43.867  18.982   8.346
 1594POPC   C3A22853  43.826  18.840   7.870
 1594POPC   C4A22854  43.651  18.727   7.464
 1594POPC   C1B22855  44.008  19.312   8.816
 1594POPC   C2B22856  44.018  19.477   8.385
 1594POPC   C3B22857  44.027  19.310   7.981
 1594POPC   C4B22858  44.314  19.291   7.662
 1595POPC   NC322859  27.347  20.577   9.501
 1595POPC   PO422860  27.967  20.969   9.278
 1595POPC   GL122861  27.654  20.775   9.148
 1595POPC   GL222862  27.804  20.447   9.267
 1595POPC   C1A22863  27.363  20.845   8.798
 1595POPC   D2A22864  27.279  20.594   8.425
 1595POPC   C3A22865  27.430  20.719   8.007
 1595POPC   C4A22866  27.272  20.484   7.672
 1595POPC   C1B22867  27.667  20.385   8.834
 1595POPC   C2B22868  27.448  20.068   8.610
 1595POPC   C3B22869  27.581  20.069   8.190
 1595POPC   C4B22870  27.691  20.275   7.824
 1596POPC   NC322871   5.706  34.282   9.653
 1596POPC   PO422872   5.969  34.939   9.595
 1596POPC   GL122873   5.839  34.645   9.255
 1596POPC   GL222874   6.069  34.356   9.299
 1596POPC   C1A22875   5.649  34.741   8.847
 1596POPC   D2A22876   5.600  34.812   8.417
 1596POPC   C3A22877   5.811  34.519   8.148
 1596POPC   C4A22878   5.702  34.559   7.764
 1596POPC   C1B22879   6.245  34.254   8.875
 1596POPC   C2B22880   6.152  34.262   8.438
 1596POPC   C3B22881   6.073  34.082   8.036
 1596POPC   C4B22882   6.049  34.221   7.617
 1597POPC   NC322883   8.265   3.999   9.577
 1597POPC   PO422884   8.435   4.654   9.529
 1597POPC   GL122885   8.329   4.402   9.195
 1597POPC   GL222886   7.994   4.314   9.265
 1597POPC   C1A22887   8.407   4.239   8.782
 1597POPC   D2A22888   8.250   3.961   8.450
 1597POPC   C3A22889   8.352   4.130   8.037
 1597POPC   C4A22890   8.473   4.516   7.809
 1597POPC   C1B22891   7.906   4.164   8.852
 1597POPC   C2B22892   7.856   4.274   8.435
 1597POPC   C3B22893   7.809   4.150   8.022
 1597POPC   C4B22894   8.027   4.285   7.656
 1598POPC   NC322895  14.817  42.466   9.415
 1598POPC   PO422896  14.134  42.119   9.511
 1598POPC   GL122897  14.366  42.308   9.197
 1598POPC   GL222898  14.078  42.315   9.000
 1598POPC   C1A22899  14.534  42.569   8.847
 1598POPC   D2A22900  14.519  42.686   8.453
 1598POPC   C3A22901  14.697  42.616   8.086
 1598POPC   C4A22902  14.511  42.410   7.783
 1598POPC   C1B22903  14.348  42.120   8.697
 1598POPC   C2B22904  14.426  42.146   8.264
 1598POPC   C3B22905  14.133  42.149   7.952
 1598POPC   C4B22906  14.178  42.068   7.570
 1599POPC   NC322907  19.320   7.705   9.497
 1599POPC   PO422908  19.130   7.052   9.493
 1599POPC   GL122909  18.922   7.241   9.141
 1599POPC   GL222910  18.886   7.624   9.143
 1599POPC   C1A22911  18.815   7.189   8.713
 1599POPC   D2A22912  18.854   7.494   8.393
 1599POPC   C3A22913  18.951   7.301   8.015
 1599POPC   C4A22914  19.165   7.364   7.616
 1599POPC   C1B22915  19.198   7.550   8.803
 1599POPC   C2B22916  19.355   7.564   8.366
 1599POPC   C3B22917  19.230   7.742   7.929
 1599POPC   C4B22918  19.414   7.749   7.452
 1600POPC   NC322919  16.586  44.360   9.591
 1600POPC   PO422920  16.945  44.940   9.534
 1600POPC   GL122921  16.939  44.750   9.169
 1600POPC   GL222922  17.026  44.401   9.263
 1600POPC   C1A22923  16.600  44.874   8.873
 1600POPC   D2A22924  16.479  44.989   8.456
 1600POPC   C3A22925  16.699  44.707   8.142
 1600POPC   C4A22926  16.515  44.532   7.780
 1600POPC   C1B22927  16.692  44.363   8.925
 1600POPC   C2B22928  16.758  44.288   8.480
 1600POPC   C3B22929  16.926  44.125   8.107
 1600POPC   C4B22930  16.998  44.392   7.751
 1601POPC   NC322931  38.874  36.498   9.484
 1601POPC   PO422932  38.788  35.788   9.506
 1601POPC   GL122933  38.817  36.062   9.154
 1601POPC   GL222934  38.482  36.244   9.175
 1601POPC   C1A22935  38.710  36.233   8.736
 1601POPC   D2A22936  38.487  36.098   8.375
 1601POPC   C3A22937  38.711  36.132   7.976
 1601POPC   C4A22938  38.585  36.114   7.558
 1601POPC   C1B22939  38.282  36.502   8.803
 1601POPC   C2B22940  38.124  36.465   8.376
 1601POPC   C3B22941  38.220  36.285   7.942
 1601POPC   C4B22942  38.300  36.543   7.560
 1602POPC   NC322943  18.731  16.771   9.666
 1602POPC   PO422944  19.182  17.246   9.528
 1602POPC   GL122945  19.234  16.871   9.233
 1602POPC   GL222946  18.910  16.742   9.201
 1602POPC   C1A22947  19.177  16.591   8.826
 1602POPC   D2A22948  19.045  16.751   8.403
 1602POPC   C3A22949  19.224  16.655   7.985
 1602POPC   C4A22950  19.195  16.869   7.606
 1602POPC   C1B22951  18.673  16.603   8.826
 1602POPC   C2B22952  18.528  16.636   8.418
 1602POPC   C3B22953  18.705  16.677   7.999
 1602POPC   C4B22954  18.882  16.485   7.623
 1603POPC   NC322955  29.593  17.384   9.474
 1603POPC   PO422956  30.094  17.712   9.769
 1603POPC   GL122957  30.097  17.580   9.282
 1603POPC   GL222958  30.021  17.830   9.014
 1603POPC   C1A22959  30.266  17.393   8.852
 1603POPC   D2A22960  30.241  17.528   8.405
 1603POPC   C3A22961  30.076  17.230   8.073
 1603POPC   C4A22962  29.768  17.349   7.768
 1603POPC   C1B22963  29.782  17.507   8.776
 1603POPC   C2B22964  29.695  17.462   8.348
 1603POPC   C3B22965  29.550  17.824   8.130
 1603POPC   C4B22966  29.611  17.850   7.699
 1604POPC   NC322967  31.013  37.271   9.826
 1604POPC   PO422968  30.812  36.733   9.384
 1604POPC   GL122969  30.509  36.772   9.101
 1604POPC   GL222970  30.441  37.118   9.133
 1604POPC   C1A22971  30.690  36.728   8.687
 1604POPC   D2A22972  30.948  36.500   8.375
 1604POPC   C3A22973  30.945  36.733   8.019
 1604POPC   C4A22974  30.599  36.811   7.778
 1604POPC   C1B22975  30.600  37.231   8.724
 1604POPC   C2B22976  30.773  37.134   8.309
 1604POPC   C3B22977  30.910  37.205   7.878
 1604POPC   C4B22978  30.586  37.291   7.575
 1605POPC   NC322979  18.765   5.765   9.361
 1605POPC   PO422980  19.360   5.963   9.634
 1605POPC   GL122981  19.270   5.944   9.177
 1605POPC   GL222982  19.207   5.597   9.006
 1605POPC   C1A22983  19.109   6.012   8.739
 1605POPC   D2A22984  19.065   5.774   8.347
 1605POPC   C3A22985  18.975   5.986   7.983
 1605POPC   C4A22986  19.237   6.057   7.663
 1605POPC   C1B22987  18.783   5.581   8.735
 1605POPC   C2B22988  18.552   5.652   8.320
 1605POPC   C3B22989  18.688   5.571   7.878
 1605POPC   C4B22990  18.939   5.663   7.465
 1606POPC   NC322991   1.702  28.046   9.290
 1606POPC   PO422992   2.077  28.552   9.673
 1606POPC   GL122993   1.971  28.479   9.230
 1606POPC   GL222994   1.735  28.666   9.063
 1606POPC   C1A22995   2.156  28.418   8.832
 1606POPC   D2A22996   2.168  28.135   8.527
 1606POPC   C3A22997   2.228  28.282   8.119
 1606POPC   C4A22998   2.003  28.202   7.742
 1606POPC   C1B22999   1.655  28.399   8.693
 1606POPC   C2B23000   1.713  28.207   8.286
 1606POPC   C3B23001   1.508  28.259   7.901
 1606POPC   C4B23002   1.610  28.429   7.480
 1607POPC   NC323003  44.844  25.500   9.536
 1607POPC   PO423004  44.236  25.291   9.571
 1607POPC   GL123005  44.539  25.169   9.242
 1607POPC   GL223006  44.904  25.105   9.192
 1607POPC   C1A23007  44.551  25.135   8.796
 1607POPC   D2A23008  44.423  25.393   8.438
 1607POPC   C3A23009  44.622  25.415   8.002
 1607POPC   C4A23010  44.730  25.135   7.629
 1607POPC   C1B23011   0.094  25.156   8.791
 1607POPC   C2B23012  44.899  25.151   8.390
 1607POPC   C3B23013   0.136  25.240   8.039
 1607POPC   C4B23014   0.084  25.476   7.700
 1608POPC   NC323015  25.588  43.010   9.519
 1608POPC   PO423016  25.034  43.473   9.573
 1608POPC   GL123017  25.180  43.167   9.240
 1608POPC   GL223018  25.480  43.291   9.127
 1608POPC   C1A23019  25.261  42.968   8.806
 1608POPC   D2A23020  25.182  43.149   8.411
 1608POPC   C3A23021  25.148  42.906   8.052
 1608POPC   C4A23022  25.129  43.130   7.638
 1608POPC   C1B23023  25.685  43.288   8.758
 1608POPC   C2B23024  25.631  43.371   8.358
 1608POPC   C3B23025  25.461  43.290   7.979
 1608POPC   C4B23026  25.661  43.175   7.595
 1609POPC   NC323027  21.368  16.851   9.590
 1609POPC   PO423028  20.801  16.486   9.644
 1609POPC   GL123029  21.037  16.649   9.212
 1609POPC   GL223030  20.817  16.681   8.899
 1609POPC   C1A23031  21.297  16.660   8.775
 1609POPC   D2A23032  21.305  16.804   8.297
 1609POPC   C3A23033  21.571  16.661   7.931
 1609POPC   C4A23034  21.926  16.495   7.659
 1609POPC   C1B23035  20.914  16.978   8.580
 1609POPC   C2B23036  20.933  17.123   8.148
 1609POPC   C3B23037  21.054  16.911   7.766
 1609POPC   C4B23038  20.960  16.984   7.306
 1610POPC   NC323039   5.295  15.726   9.559
 1610POPC   PO423040   4.704  16.031   9.753
 1610POPC   GL123041   4.948  16.110   9.285
 1610POPC   GL223042   5.118  15.852   9.102
 1610POPC   C1A23043   5.251  16.278   8.868
 1610POPC   D2A23044   5.247  16.371   8.407
 1610POPC   C3A23045   4.963  16.254   8.056
 1610POPC   C4A23046   5.099  16.075   7.667
 1610POPC   C1B23047   5.312  15.830   8.677
 1610POPC   C2B23048   5.182  15.808   8.273
 1610POPC   C3B23049   5.340  15.714   7.899
 1610POPC   C4B23050   5.311  15.622   7.453
 1611POPC   NC323051  39.902  40.647   9.530
 1611POPC   PO423052  40.043  41.224   9.259
 1611POPC   GL123053  39.903  40.850   9.069
 1611POPC   GL223054  40.210  40.628   9.106
 1611POPC   C1A23055  39.778  40.683   8.693
 1611POPC   D2A23056  40.100  40.651   8.370
 1611POPC   C3A23057  40.031  40.985   8.122
 1611POPC   C4A23058  39.642  40.919   7.904
 1611POPC   C1B23059  40.392  40.899   8.763
 1611POPC   C2B23060  40.557  40.897   8.324
 1611POPC   C3B23061  40.515  40.568   8.002
 1611POPC   C4B23062  40.120  40.614   7.782
 1612POPC   NC323063  21.104  27.422   9.537
 1612POPC   PO423064  21.751  27.681   9.686
 1612POPC   GL123065  21.537  27.454   9.301
 1612POPC   GL223066  21.317  27.689   9.107
 1612POPC   C1A23067  21.567  27.351   8.844
 1612POPC   D2A23068  21.664  27.631   8.498
 1612POPC   C3A23069  21.633  27.452   8.094
 1612POPC   C4A23070  21.493  27.704   7.774
 1612POPC   C1B23071  21.123  27.604   8.667
 1612POPC   C2B23072  21.209  27.746   8.219
 1612POPC   C3B23073  21.040  27.884   7.795
 1612POPC   C4B23074  21.015  27.437   7.785
 1613POPC   NC323075  44.142   8.997   9.569
 1613POPC   PO423076  43.431   9.233   9.426
 1613POPC   GL123077  43.721   9.125   9.104
 1613POPC   GL223078  43.999   8.889   9.113
 1613POPC   C1A23079  43.844   9.093   8.676
 1613POPC   D2A23080  43.739   8.876   8.314
 1613POPC   C3A23081  44.045   9.074   8.078
 1613POPC   C4A23082  44.077   9.202   7.670
 1613POPC   C1B23083  44.204   8.654   8.804
 1613POPC   C2B23084  44.197   8.649   8.372
 1613POPC   C3B23085  44.396   8.716   7.977
 1613POPC   C4B23086  44.384   8.781   7.551
 1614POPC   NC323087  43.902  24.981   9.573
 1614POPC   PO423088  43.592  25.657   9.540
 1614POPC   GL123089  43.735  25.380   9.216
 1614POPC   GL223090  43.602  25.024   9.153
 1614POPC   C1A23091  43.622  25.351   8.775
 1614POPC   D2A23092  43.695  25.581   8.434
 1614POPC   C3A23093  43.560  25.419   8.071
 1614POPC   C4A23094  43.776  25.388   7.709
 1614POPC   C1B23095  44.008  25.049   8.913
 1614POPC   C2B23096  44.016  25.057   8.448
 1614POPC   C3B23097  44.106  25.296   8.060
 1614POPC   C4B23098  44.240  25.203   7.606
 1615POPC   NC323099  36.738  41.658   9.502
 1615POPC   PO423100  37.328  41.512   9.502
 1615POPC   GL123101  37.123  41.764   9.193
 1615POPC   GL223102  36.962  41.425   9.110
 1615POPC   C1A23103  36.827  41.835   8.838
 1615POPC   D2A23104  36.692  41.640   8.465
 1615POPC   C3A23105  36.806  41.752   8.062
 1615POPC   C4A23106  36.908  41.489   7.738
 1615POPC   C1B23107  36.950  41.240   8.719
 1615POPC   C2B23108  37.156  41.306   8.335
 1615POPC   C3B23109  37.175  41.113   7.960
 1615POPC   C4B23110  37.018  41.049   7.540
 1616POPC   NC323111  31.637  12.353   9.522
 1616POPC   PO423112  31.002  12.339   9.335
 1616POPC   GL123113  31.200  12.242   8.964
 1616POPC   GL223114  31.485  12.072   9.041
 1616POPC   C1A23115  31.376  12.173   8.534
 1616POPC   D2A23116  31.751  12.179   8.248
 1616POPC   C3A23117  31.496  12.266   7.915
 1616POPC   C4A23118  31.067  12.389   7.825
 1616POPC   C1B23119  31.798  11.985   8.736
 1616POPC   C2B23120  31.728  11.686   8.424
 1616POPC   C3B23121  31.395  11.796   8.133
 1616POPC   C4B23122  31.583  11.804   7.731
 1617POPC   NC323123  44.894   7.375   9.379
 1617POPC   PO423124  44.390   7.822   9.518
 1617POPC   GL123125  44.489   7.583   9.135
 1617POPC   GL223126  44.219   7.701   8.968
 1617POPC   C1A23127  44.684   7.328   8.760
 1617POPC   D2A23128  44.952   7.426   8.385
 1617POPC   C3A23129  44.683   7.339   8.032
 1617POPC   C4A23130  44.588   7.175   7.620
 1617POPC   C1B23131  44.573   7.806   8.685
 1617POPC   C2B23132  44.561   7.789   8.252
 1617POPC   C3B23133  44.553   7.788   7.824
 1617POPC   C4B23134  44.333   7.593   7.534
 1618POPC   NC323135   6.414  34.804   9.610
 1618POPC   PO423136   6.869  35.321   9.629
 1618POPC   GL123137   6.850  35.261   9.209
 1618POPC   GL223138   6.531  35.153   9.241
 1618POPC   C1A23139   6.968  35.182   8.783
 1618POPC   D2A23140   6.840  35.361   8.413
 1618POPC   C3A23141   6.975  35.182   8.062
 1618POPC   C4A23142   6.783  35.307   7.748
 1618POPC   C1B23143   6.438  35.368   8.871
 1618POPC   C2B23144   6.322  35.315   8.435
 1618POPC   C3B23145   6.422  35.518   8.055
 1618POPC   C4B23146   6.279  35.359   7.673
 1619POPC   NC323147  36.507  29.466   9.278
 1619POPC   PO423148  36.882  29.057   9.606
 1619POPC   GL123149  37.079  29.029   9.205
 1619POPC   GL223150  36.760  29.100   9.036
 1619POPC   C1A23151  37.168  29.228   8.777
 1619POPC   D2A23152  37.254  29.083   8.389
 1619POPC   C3A23153  36.946  29.068   8.062
 1619POPC   C4A23154  36.948  29.192   7.639
 1619POPC   C1B23155  36.604  28.788   8.740
 1619POPC   C2B23156  36.682  28.678   8.307
 1619POPC   C3B23157  36.490  28.877   7.931
 1619POPC   C4B23158  36.606  28.855   7.509
 1620POPC   NC323159   1.112  35.511   9.420
 1620POPC   PO423160   1.461  34.891   9.471
 1620POPC   GL123161   1.254  35.098   9.162
 1620POPC   GL223162   1.492  35.341   9.110
 1620POPC   C1A23163   1.139  35.341   8.756
 1620POPC   D2A23164   1.446  35.323   8.399
 1620POPC   C3A23165   1.281  35.150   7.997
 1620POPC   C4A23166   1.432  35.113   7.554
 1620POPC   C1B23167   1.568  35.658   8.782
 1620POPC   C2B23168   1.400  35.846   8.420
 1620POPC   C3B23169   1.344  35.675   8.005
 1620POPC   C4B23170   0.959  35.502   7.827
 1621POPC   NC323171  36.696  27.015   9.372
 1621POPC   PO423172  37.106  27.440   9.677
 1621POPC   GL123173  36.891  27.498   9.280
 1621POPC   GL223174  36.564  27.647   9.244
 1621POPC   C1A23175  37.037  27.628   8.881
 1621POPC   D2A23176  37.098  27.500   8.476
 1621POPC   C3A23177  36.998  27.754   8.146
 1621POPC   C4A23178  36.926  27.644   7.688
 1621POPC   C1B23179  36.587  27.407   8.845
 1621POPC   C2B23180  36.558  27.625   8.455
 1621POPC   C3B23181  36.528  27.588   8.028
 1621POPC   C4B23182  36.378  27.871   7.729
 1622POPC   NC323183  39.715   9.314   9.520
 1622POPC   PO423184  39.811  10.041   9.560
 1622POPC   GL123185  39.966   9.906   9.122
 1622POPC   GL223186  40.307  10.023   9.013
 1622POPC   C1A23187  40.005   9.690   8.715
 1622POPC   D2A23188  40.232   9.512   8.359
 1622POPC   C3A23189  40.221   9.625   7.920
 1622POPC   C4A23190  39.866   9.617   7.680
 1622POPC   C1B23191  40.171  10.159   8.642
 1622POPC   C2B23192  40.216  10.023   8.224
 1622POPC   C3B23193  39.971  10.088   7.867
 1622POPC   C4B23194  39.726  10.055   7.502
 1623POPC   NC323195   1.702  25.072   9.550
 1623POPC   PO423196   2.254  24.861   9.525
 1623POPC   GL123197   2.069  25.138   9.163
 1623POPC   GL223198   1.750  25.055   9.020
 1623POPC   C1A23199   2.098  25.310   8.731
 1623POPC   D2A23200   1.976  25.462   8.295
 1623POPC   C3A23201   2.184  25.221   7.946
 1623POPC   C4A23202   2.401  24.916   7.654
 1623POPC   C1B23203   1.583  25.394   8.727
 1623POPC   C2B23204   1.481  25.256   8.307
 1623POPC   C3B23205   1.676  25.135   7.932
 1623POPC   C4B23206   1.805  25.516   7.754
 1624POPC   NC323207  37.004   1.404   9.530
 1624POPC   PO423208  36.818   0.827   9.446
 1624POPC   GL123209  36.946   1.133   9.111
 1624POPC   GL223210  36.878   1.538   9.067
 1624POPC   C1A23211  36.925   1.174   8.681
 1624POPC   D2A23212  36.642   1.063   8.408
 1624POPC   C3A23213  36.847   1.185   8.075
 1624POPC   C4A23214  36.615   1.170   7.728
 1624POPC   C1B23215  37.172   1.619   8.735
 1624POPC   C2B23216  37.301   1.459   8.330
 1624POPC   C3B23217  37.139   1.576   7.932
 1624POPC   C4B23218  36.820   1.642   7.648
 1625POPC   NC323219  11.050   9.171   9.534
 1625POPC   PO423220  11.500   8.564   9.599
 1625POPC   GL123221  11.239   8.732   9.232
 1625POPC   GL223222  11.282   9.052   9.101
 1625POPC   C1A23223  10.975   8.699   8.849
 1625POPC   D2A23224  10.908   8.667   8.368
 1625POPC   C3A23225  11.150   8.850   7.983
 1625POPC   C4A23226  10.960   8.865   7.566
 1625POPC   C1B23227  11.442   8.875   8.712
 1625POPC   C2B23228  11.484   9.078   8.320
 1625POPC   C3B23229  11.469   9.271   7.936
 1625POPC   C4B23230  11.388   9.107   7.522
 1626POPC   NC323231  28.922   6.626   9.541
 1626POPC   PO423232  29.364   7.206   9.413
 1626POPC   GL123233  29.406   6.914   9.059
 1626POPC   GL223234  29.243   6.594   9.140
 1626POPC   C1A23235  29.420   6.957   8.597
 1626POPC   D2A23236  29.268   7.220   8.245
 1626POPC   C3A23237  29.080   7.002   7.907
 1626POPC   C4A23238  29.346   6.672   7.802
 1626POPC   C1B23239  28.994   6.683   8.763
 1626POPC   C2B23240  29.032   6.651   8.308
 1626POPC   C3B23241  28.851   6.523   7.908
 1626POPC   C4B23242  28.895   6.691   7.492
 1627POPC   NC323243  29.034  35.852   9.607
 1627POPC   PO423244  29.277  36.453   9.525
 1627POPC   GL123245  29.050  36.199   9.228
 1627POPC   GL223246  29.368  36.028   9.197
 1627POPC   C1A23247  28.787  36.277   8.852
 1627POPC   D2A23248  28.749  36.471   8.437
 1627POPC   C3A23249  28.904  36.173   8.115
 1627POPC   C4A23250  28.818  36.115   7.667
 1627POPC   C1B23251  29.296  36.185   8.778
 1627POPC   C2B23252  29.516  36.011   8.430
 1627POPC   C3B23253  29.501  35.766   8.046
 1627POPC   C4B23254  29.315  36.048   7.806
 1628POPC   NC323255  31.646  28.094   9.449
 1628POPC   PO423256  31.225  28.483   9.586
 1628POPC   GL123257  31.317  28.379   9.152
 1628POPC   GL223258  31.617  28.525   9.090
 1628POPC   C1A23259  31.349  28.435   8.691
 1628POPC   D2A23260  31.474  28.196   8.375
 1628POPC   C3A23261  31.255  28.348   8.052
 1628POPC   C4A23262  31.293  28.378   7.590
 1628POPC   C1B23263  31.839  28.299   8.764
 1628POPC   C2B23264  31.971  28.379   8.328
 1628POPC   C3B23265  31.752  28.303   7.928
 1628POPC   C4B23266  31.770  28.517   7.531
 1629POPC   NC323267  35.048   4.271   9.432
 1629POPC   PO423268  35.664   4.018   9.630
 1629POPC   GL123269  35.497   4.058   9.201
 1629POPC   GL223270  35.722   4.265   9.069
 1629POPC   C1A23271  35.236   4.192   8.807
 1629POPC   D2A23272  35.123   4.560   8.537
 1629POPC   C3A23273  34.951   4.336   8.191
 1629POPC   C4A23274  35.066   4.062   7.821
 1629POPC   C1B23275  35.718   4.269   8.679
 1629POPC   C2B23276  35.497   4.246   8.322
 1629POPC   C3B23277  35.712   4.156   7.981
 1629POPC   C4B23278  35.560   4.123   7.632
 1630POPC   NC323279  19.585  41.801   9.380
 1630POPC   PO423280  20.147  41.514   9.632
 1630POPC   GL123281  19.998  41.553   9.161
 1630POPC   GL223282  19.628  41.577   8.925
 1630POPC   C1A23283  20.058  41.395   8.733
 1630POPC   D2A23284  19.769  41.407   8.369
 1630POPC   C3A23285  19.992  41.630   8.041
 1630POPC   C4A23286  20.148  41.807   7.650
 1630POPC   C1B23287  19.295  41.318   8.656
 1630POPC   C2B23288  19.245  41.268   8.198
 1630POPC   C3B23289  19.503  41.420   7.899
 1630POPC   C4B23290  19.838  41.345   7.646
 1631POPC   NC323291  19.920  43.397   9.591
 1631POPC   PO423292  19.825  42.746   9.796
 1631POPC   GL123293  19.878  42.783   9.275
 1631POPC   GL223294  19.889  43.119   9.136
 1631POPC   C1A23295  19.682  42.728   8.876
 1631POPC   D2A23296  19.532  42.751   8.472
 1631POPC   C3A23297  19.724  43.026   8.129
 1631POPC   C4A23298  20.052  43.032   7.759
 1631POPC   C1B23299  19.657  43.242   8.741
 1631POPC   C2B23300  19.714  43.493   8.359
 1631POPC   C3B23301  19.876  43.474   7.913
 1631POPC   C4B23302  19.902  43.503   7.440
 1632POPC   NC323303  43.416   3.855   9.452
 1632POPC   PO423304  44.052   3.639   9.460
 1632POPC   GL123305  43.735   3.498   9.174
 1632POPC   GL223306  43.584   3.137   9.230
 1632POPC   C1A23307  43.838   3.691   8.765
 1632POPC   D2A23308  44.119   3.681   8.397
 1632POPC   C3A23309  43.950   3.674   7.970
 1632POPC   C4A23310  44.106   3.527   7.566
 1632POPC   C1B23311  43.640   3.203   8.775
 1632POPC   C2B23312  43.723   3.355   8.366
 1632POPC   C3B23313  43.690   3.205   7.953
 1632POPC   C4B23314  43.596   3.254   7.505
 1633POPC   NC323315  17.421  19.321   9.822
 1633POPC   PO423316  17.485  19.821   9.461
 1633POPC   GL123317  17.398  19.899   9.068
 1633POPC   GL223318  17.723  20.080   9.091
 1633POPC   C1A23319  17.313  19.686   8.646
 1633POPC   D2A23320  17.604  19.520   8.319
 1633POPC   C3A23321  17.519  19.668   7.903
 1633POPC   C4A23322  17.136  19.610   7.660
 1633POPC   C1B23323  17.768  19.889   8.711
 1633POPC   C2B23324  17.597  20.048   8.334
 1633POPC   C3B23325  17.745  20.148   7.938
 1633POPC   C4B23326  17.871  19.885   7.585
 1634POPC   NC323327   3.530  36.919   9.562
 1634POPC   PO423328   4.151  36.678   9.502
 1634POPC   GL123329   3.837  36.752   9.147
 1634POPC   GL223330   3.627  37.086   9.093
 1634POPC   C1A23331   3.538  36.711   8.762
 1634POPC   D2A23332   3.211  36.790   8.433
 1634POPC   C3A23333   3.420  36.714   8.045
 1634POPC   C4A23334   3.702  36.905   7.774
 1634POPC   C1B23335   3.238  37.193   8.816
 1634POPC   C2B23336   3.091  37.294   8.345
 1634POPC   C3B23337   3.251  37.169   7.889
 1634POPC   C4B23338   3.296  36.965   7.462
 1635POPC   NC323339  22.524  22.633   9.422
 1635POPC   PO423340  21.963  22.935   9.648
 1635POPC   GL123341  21.933  22.996   9.203
 1635POPC   GL223342  22.271  23.035   9.158
 1635POPC   C1A23343  21.952  22.985   8.745
 1635POPC   D2A23344  22.144  22.955   8.327
 1635POPC   C3A23345  21.836  22.796   8.040
 1635POPC   C4A23346  21.814  22.977   7.637
 1635POPC   C1B23347  22.452  22.837   8.788
 1635POPC   C2B23348  22.668  22.750   8.407
 1635POPC   C3B23349  22.615  22.913   7.998
 1635POPC   C4B23350  22.273  22.824   7.781
 1636POPC   NC323351   1.762  15.300   9.647
 1636POPC   PO423352   1.084  15.058   9.489
 1636POPC   GL123353   1.141  15.222   9.095
 1636POPC   GL223354   1.129  15.556   9.175
 1636POPC   C1A23355   0.996  15.191   8.658
 1636POPC   D2A23356   0.961  15.349   8.220
 1636POPC   C3A23357   1.124  15.053   7.879
 1636POPC   C4A23358   1.435  15.093   7.522
 1636POPC   C1B23359   1.268  15.643   8.786
 1636POPC   C2B23360   1.543  15.622   8.456
 1636POPC   C3B23361   1.444  15.517   8.066
 1636POPC   C4B23362   1.158  15.560   7.770
 1637POPC   NC323363   7.918  17.143   9.467
 1637POPC   PO423364   7.994  17.858   9.578
 1637POPC   GL123365   7.967  17.610   9.180
 1637POPC   GL223366   8.153  17.326   9.057
 1637POPC   C1A23367   8.112  17.665   8.718
 1637POPC   D2A23368   8.438  17.683   8.454
 1637POPC   C3A23369   8.300  17.792   8.066
 1637POPC   C4A23370   7.946  17.635   7.878
 1637POPC   C1B23371   7.952  17.150   8.718
 1637POPC   C2B23372   7.952  17.354   8.316
 1637POPC   C3B23373   7.884  17.132   7.940
 1637POPC   C4B23374   7.831  17.159   7.515
 1638POPC   NC323375  30.939  20.365   9.490
 1638POPC   PO423376  30.512  20.919   9.682
 1638POPC   GL123377  30.560  20.677   9.247
 1638POPC   GL223378  30.452  20.321   9.251
 1638POPC   C1A23379  30.743  20.779   8.800
 1638POPC   D2A23380  30.964  20.764   8.383
 1638POPC   C3A23381  30.633  20.787   8.037
 1638POPC   C4A23382  30.796  20.712   7.633
 1638POPC   C1B23383  30.674  20.284   8.869
 1638POPC   C2B23384  30.649  20.367   8.453
 1638POPC   C3B23385  30.849  20.339   8.062
 1638POPC   C4B23386  30.510  20.336   7.809
 1639POPC   NC323387  33.467  26.147   9.449
 1639POPC   PO423388  34.005  26.455   9.578
 1639POPC   GL123389  33.962  26.161   9.219
 1639POPC   GL223390  33.994  25.790   9.232
 1639POPC   C1A23391  33.739  26.105   8.824
 1639POPC   D2A23392  33.768  26.295   8.417
 1639POPC   C3A23393  33.634  26.074   8.029
 1639POPC   C4A23394  33.804  26.245   7.633
 1639POPC   C1B23395  33.964  25.635   8.808
 1639POPC   C2B23396  33.976  25.798   8.382
 1639POPC   C3B23397  34.015  25.710   7.945
 1639POPC   C4B23398  33.782  25.753   7.570
 1640POPC   NC323399   6.160  27.745   9.672
 1640POPC   PO423400   5.484  27.659   9.656
 1640POPC   GL123401   5.780  27.686   9.270
 1640POPC   GL223402   6.132  27.811   9.180
 1640POPC   C1A23403   5.768  27.533   8.829
 1640POPC   D2A23404   5.668  27.329   8.419
 1640POPC   C3A23405   5.557  27.597   8.064
 1640POPC   C4A23406   5.747  27.919   7.849
 1640POPC   C1B23407   6.288  27.624   8.808
 1640POPC   C2B23408   6.104  27.620   8.416
 1640POPC   C3B23409   6.050  27.501   8.012
 1640POPC   C4B23410   6.176  27.435   7.604
 1641POPC   NC323411  41.574  17.935   9.392
 1641POPC   PO423412  41.722  17.265   9.522
 1641POPC   GL123413  41.570  17.446   9.172
 1641POPC   GL223414  41.242  17.446   9.316
 1641POPC   C1A23415  41.610  17.671   8.747
 1641POPC   D2A23416  41.510  17.612   8.300
 1641POPC   C3A23417  41.815  17.684   8.007
 1641POPC   C4A23418  41.898  17.496   7.629
 1641POPC   C1B23419  41.165  17.442   8.860
 1641POPC   C2B23420  41.027  17.470   8.443
 1641POPC   C3B23421  41.116  17.386   8.016
 1641POPC   C4B23422  41.369  17.595   7.712
 1642POPC   NC323423  11.847  44.008   9.575
 1642POPC   PO423424  12.214  43.529   9.322
 1642POPC   GL123425  12.128  43.894   9.147
 1642POPC   GL223426  12.363  44.115   9.287
 1642POPC   C1A23427  11.944  43.991   8.765
 1642POPC   D2A23428  12.003  44.149   8.361
 1642POPC   C3A23429  12.315  43.942   8.120
 1642POPC   C4A23430  12.211  43.763   7.756
 1642POPC   C1B23431  12.349  44.332   8.902
 1642POPC   C2B23432  12.504  44.329   8.505
 1642POPC   C3B23433  12.447  44.434   8.105
 1642POPC   C4B23434  12.572  44.230   7.741
 1643POPC   NC323435  12.667  17.790   9.553
 1643POPC   PO423436  13.144  17.278   9.474
 1643POPC   GL123437  12.900  17.344   9.094
 1643POPC   GL223438  12.730  17.679   9.064
 1643POPC   C1A23439  12.944  17.460   8.654
 1643POPC   D2A23440  13.139  17.629   8.298
 1643POPC   C3A23441  12.904  17.477   7.955
 1643POPC   C4A23442  13.018  17.318   7.585
 1643POPC   C1B23443  12.577  17.831   8.666
 1643POPC   C2B23444  12.628  17.774   8.264
 1643POPC   C3B23445  12.643  17.940   7.879
 1643POPC   C4B23446  12.485  17.696   7.605
 1644POPC   NC323447  37.384   4.785   9.660
 1644POPC   PO423448  37.298   5.424   9.446
 1644POPC   GL123449  36.959   5.178   9.252
 1644POPC   GL223450  36.652   5.410   9.163
 1644POPC   C1A23451  36.918   4.881   8.879
 1644POPC   D2A23452  37.170   4.780   8.487
 1644POPC   C3A23453  36.958   4.802   8.099
 1644POPC   C4A23454  36.859   4.952   7.674
 1644POPC   C1B23455  36.920   5.393   8.800
 1644POPC   C2B23456  36.866   5.195   8.436
 1644POPC   C3B23457  36.975   5.312   8.052
 1644POPC   C4B23458  36.737   5.492   7.760
 1645POPC   NC323459  19.535  31.797   9.417
 1645POPC   PO423460  20.038  31.276   9.416
 1645POPC   GL123461  19.987  31.570   9.108
 1645POPC   GL223462  19.636  31.526   9.006
 1645POPC   C1A23463  19.994  31.668   8.674
 1645POPC   D2A23464  19.842  31.370   8.343
 1645POPC   C3A23465  19.976  31.482   7.958
 1645POPC   C4A23466  19.739  31.206   7.779
 1645POPC   C1B23467  19.481  31.600   8.600
 1645POPC   C2B23468  19.681  31.852   8.271
 1645POPC   C3B23469  19.641  31.838   7.870
 1645POPC   C4B23470  19.644  31.658   7.526
 1646POPC   NC323471   4.940  10.570   9.620
 1646POPC   PO423472   5.445  10.120   9.585
 1646POPC   GL123473   5.331  10.451   9.264
 1646POPC   GL223474   5.017  10.321   9.181
 1646POPC   C1A23475   5.160  10.728   8.896
 1646POPC   D2A23476   5.117  10.902   8.444
 1646POPC   C3A23477   5.285  10.637   8.080
 1646POPC   C4A23478   5.140  10.425   7.706
 1646POPC   C1B23479   4.867  10.131   8.802
 1646POPC   C2B23480   4.673  10.268   8.417
 1646POPC   C3B23481   4.767  10.544   8.101
 1646POPC   C4B23482   4.644  10.535   7.665
 1647POPC   NC323483  40.960  30.070   9.896
 1647POPC   PO423484  40.875  29.466   9.569
 1647POPC   GL123485  40.824  29.766   9.150
 1647POPC   GL223486  41.107  30.059   9.147
 1647POPC   C1A23487  40.758  30.171   8.827
 1647POPC   D2A23488  40.902  30.381   8.443
 1647POPC   C3A23489  40.777  30.062   8.173
 1647POPC   C4A23490  40.810  29.903   7.764
 1647POPC   C1B23491  41.114  29.783   8.746
 1647POPC   C2B23492  41.263  29.552   8.372
 1647POPC   C3B23493  41.222  29.666   7.950
 1647POPC   C4B23494  41.163  29.629   7.500
 1648POPC   NC323495  36.266  21.517   9.529
 1648POPC   PO423496  36.071  20.932   9.711
 1648POPC   GL123497  36.077  21.145   9.211
 1648POPC   GL223498  36.254  21.416   9.053
 1648POPC   C1A23499  35.835  21.224   8.800
 1648POPC   D2A23500  35.960  21.115   8.358
 1648POPC   C3A23501  35.938  21.348   7.958
 1648POPC   C4A23502  36.345  21.246   7.808
 1648POPC   C1B23503  36.341  21.331   8.674
 1648POPC   C2B23504  36.223  21.572   8.327
 1648POPC   C3B23505  36.475  21.774   8.039
 1648POPC   C4B23506  36.623  21.643   7.654
 1649POPC   NC323507  11.554   4.103   9.538
 1649POPC   PO423508  10.936   4.423   9.594
 1649POPC   GL123509  11.182   4.287   9.188
 1649POPC   GL223510  11.339   4.555   8.994
 1649POPC   C1A23511  11.016   4.293   8.711
 1649POPC   D2A23512  11.235   4.436   8.360
 1649POPC   C3A23513  11.034   4.559   7.999
 1649POPC   C4A23514  11.036   4.445   7.593
 1649POPC   C1B23515  11.555   4.248   8.727
 1649POPC   C2B23516  11.759   4.331   8.352
 1649POPC   C3B23517  11.562   4.295   7.955
 1649POPC   C4B23518  11.682   3.906   7.760
 1650POPC   NC323519  36.019  31.712   9.571
 1650POPC   PO423520  36.556  31.375   9.554
 1650POPC   GL123521  36.293  31.323   9.163
 1650POPC   GL223522  36.018  31.562   9.079
 1650POPC   C1A23523  36.277  31.357   8.698
 1650POPC   D2A23524  35.945  31.247   8.446
 1650POPC   C3A23525  36.074  31.319   8.042
 1650POPC   C4A23526  35.982  31.186   7.674
 1650POPC   C1B23527  35.936  31.724   8.658
 1650POPC   C2B23528  36.216  31.733   8.308
 1650POPC   C3B23529  36.047  31.813   7.889
 1650POPC   C4B23530  35.859  31.923   7.489
 1651POPC   NC323531   2.372   0.228   9.686
 1651POPC   PO423532   3.032   0.235   9.569
 1651POPC   GL123533   2.805   0.243   9.197
 1651POPC   GL223534   2.866   0.538   9.056
 1651POPC   C1A23535   2.974   0.121   8.798
 1651POPC   D2A23536   2.993   0.370   8.402
 1651POPC   C3A23537   2.800   0.258   8.009
 1651POPC   C4A23538   2.509   0.293   7.679
 1651POPC   C1B23539   2.567   0.380   8.721
 1651POPC   C2B23540   2.499   0.538   8.326
 1651POPC   C3B23541   2.533   0.730   7.913
 1651POPC   C4B23542   2.695   1.038   7.548
 1652POPC   NC323543  17.998  41.535   9.749
 1652POPC   PO423544  17.345  41.770   9.797
 1652POPC   GL123545  17.327  41.657   9.338
 1652POPC   GL223546  17.499  41.940   9.261
 1652POPC   C1A23547  17.234  41.578   8.862
 1652POPC   D2A23548  17.565  41.385   8.606
 1652POPC   C3A23549  17.552  41.279   8.150
 1652POPC   C4A23550  17.480  41.412   7.718
 1652POPC   C1B23551  17.682  41.800   8.902
 1652POPC   C2B23552  17.513  41.870   8.469
 1652POPC   C3B23553  17.371  41.780   8.072
 1652POPC   C4B23554  17.662  41.890   7.758
 1653POPC   NC323555  25.007   7.245   9.381
 1653POPC   PO423556  24.382   7.388   9.607
 1653POPC   GL123557  24.555   7.475   9.195
 1653POPC   GL223558  24.880   7.606   9.068
 1653POPC   C1A23559  24.432   7.398   8.800
 1653POPC   D2A23560  24.321   7.574   8.417
 1653POPC   C3A23561  24.338   7.886   8.132
 1653POPC   C4A23562  24.181   7.707   7.771
 1653POPC   C1B23563  24.905   7.258   8.740
 1653POPC   C2B23564  24.690   7.223   8.385
 1653POPC   C3B23565  24.845   7.249   8.021
 1653POPC   C4B23566  24.594   7.438   7.722
 1654POPC   NC323567  44.387  43.685   9.785
 1654POPC   PO423568  44.748  44.238   9.577
 1654POPC   GL123569  44.637  44.004   9.174
 1654POPC   GL223570  44.836  43.699   9.002
 1654POPC   C1A23571  44.758  44.152   8.788
 1654POPC   D2A23572  44.540  44.341   8.466
 1654POPC   C3A23573  44.656  44.046   8.190
 1654POPC   C4A23574  44.781  43.999   7.777
 1654POPC   C1B23575  44.491  43.630   8.720
 1654POPC   C2B23576  44.524  43.543   8.292
 1654POPC   C3B23577  44.895  43.580   8.075
 1654POPC   C4B23578  44.909  43.499   7.668
 1655POPC   NC323579  31.873   0.056   9.841
 1655POPC   PO423580  31.624   0.523   9.462
 1655POPC   GL123581  31.644   0.551   9.046
 1655POPC   GL223582  31.691   0.911   9.077
 1655POPC   C1A23583  31.341   0.435   8.696
 1655POPC   D2A23584  31.293   0.567   8.260
 1655POPC   C3A23585  31.353   0.194   7.987
 1655POPC   C4A23586  31.160  44.948   7.649
 1655POPC   C1B23587  31.576   0.886   8.655
 1655POPC   C2B23588  31.828   0.743   8.282
 1655POPC   C3B23589  31.661   0.635   7.877
 1655POPC   C4B23590  31.234   0.595   7.722
 1656POPC   NC323591  26.976  44.716   9.475
 1656POPC   PO423592  26.319  44.351   9.453
 1656POPC   GL123593  26.616  44.497   9.176
 1656POPC   GL223594  26.921  44.330   9.143
 1656POPC   C1A23595  26.720  44.675   8.783
 1656POPC   D2A23596  26.778  44.451   8.380
 1656POPC   C3A23597  26.716  44.667   7.979
 1656POPC   C4A23598  26.489  44.615   7.601
 1656POPC   C1B23599  27.158  44.411   8.788
 1656POPC   C2B23600  27.279  44.561   8.387
 1656POPC   C3B23601  27.135  44.360   7.994
 1656POPC   C4B23602  27.002  44.482   7.572
 1657POPC   NC323603  31.855   5.924   9.442
 1657POPC   PO423604  31.455   5.409   9.485
 1657POPC   GL123605  31.535   5.715   9.100
 1657POPC   GL223606  31.471   6.112   9.146
 1657POPC   C1A23607  31.543   5.679   8.623
 1657POPC   D2A23608  31.198   5.633   8.298
 1657POPC   C3A23609  31.338   5.734   7.884
 1657POPC   C4A23610  31.788   5.704   7.780
 1657POPC   C1B23611  31.253   6.085   8.741
 1657POPC   C2B23612  31.440   6.100   8.329
 1657POPC   C3B23613  31.628   6.153   7.951
 1657POPC   C4B23614  31.277   6.257   7.739
 1658POPC   NC323615  38.615  21.550   9.882
 1658POPC   PO423616  38.848  21.456   9.290
 1658POPC   GL123617  38.482  21.540   9.044
 1658POPC   GL223618  38.228  21.269   9.033
 1658POPC   C1A23619  38.525  21.440   8.606
 1658POPC   D2A23620  38.721  21.159   8.300
 1658POPC   C3A23621  38.664  21.387   7.921
 1658POPC   C4A23622  38.599  21.422   7.482
 1658POPC   C1B23623  38.029  21.416   8.698
 1658POPC   C2B23624  38.106  21.630   8.323
 1658POPC   C3B23625  38.157  21.420   7.916
 1658POPC   C4B23626  38.135  21.231   7.474
 1659POPC   NC323627   7.799  12.807   9.429
 1659POPC   PO423628   7.203  12.994   9.515
 1659POPC   GL123629   7.240  12.739   9.145
 1659POPC   GL223630   7.544  12.856   8.993
 1659POPC   C1A23631   7.135  12.697   8.703
 1659POPC   D2A23632   7.175  12.995   8.345
 1659POPC   C3A23633   7.135  12.901   7.889
 1659POPC   C4A23634   7.296  13.155   7.514
 1659POPC   C1B23635   7.608  12.470   8.735
 1659POPC   C2B23636   7.457  12.541   8.310
 1659POPC   C3B23637   7.617  12.802   7.970
 1659POPC   C4B23638   7.584  12.752   7.525
 1660POPC   NC323639  38.954  42.769   9.441
 1660POPC   PO423640  39.202  42.165   9.565
 1660POPC   GL123641  39.228  42.300   9.127
 1660POPC   GL223642  38.966  42.497   9.003
 1660POPC   C1A23643  39.408  42.431   8.694
 1660POPC   D2A23644  39.727  42.513   8.375
 1660POPC   C3A23645  39.555  42.282   8.040
 1660POPC   C4A23646  39.239  42.417   7.770
 1660POPC   C1B23647  38.987  42.135   8.702
 1660POPC   C2B23648  39.074  42.154   8.243
 1660POPC   C3B23649  39.100  41.934   7.832
 1660POPC   C4B23650  39.117  41.991   7.366
 1661POPC   NC323651  27.128   5.020   9.498
 1661POPC   PO423652  26.408   4.737   9.552
 1661POPC   GL123653  26.630   5.017   9.239
 1661POPC   GL223654  26.933   4.882   9.070
 1661POPC   C1A23655  26.667   5.283   8.845
 1661POPC   D2A23656  26.855   5.496   8.470
 1661POPC   C3A23657  26.836   5.392   8.009
 1661POPC   C4A23658  27.094   5.300   7.658
 1661POPC   C1B23659  27.070   5.010   8.687
 1661POPC   C2B23660  26.828   4.944   8.298
 1661POPC   C3B23661  26.984   4.863   7.880
 1661POPC   C4B23662  26.998   4.843   7.418
 1662POPC   NC323663   6.301  13.619   9.496
 1662POPC   PO423664   6.972  13.784   9.455
 1662POPC   GL123665   6.740  13.615   9.143
 1662POPC   GL223666   6.437  13.401   9.055
 1662POPC   C1A23667   6.891  13.706   8.754
 1662POPC   D2A23668   6.936  13.941   8.396
 1662POPC   C3A23669   6.748  13.795   8.037
 1662POPC   C4A23670   6.796  13.971   7.653
 1662POPC   C1B23671   6.364  13.785   8.853
 1662POPC   C2B23672   6.451  13.766   8.452
 1662POPC   C3B23673   6.320  13.512   8.108
 1662POPC   C4B23674   6.464  13.520   7.674
 1663POPC   NC323675   6.608  38.649   9.549
 1663POPC   PO423676   6.929  38.242   9.138
 1663POPC   GL123677   6.760  38.567   8.906
 1663POPC   GL223678   6.476  38.740   9.071
 1663POPC   C1A23679   6.688  38.443   8.482
 1663POPC   D2A23680   6.370  38.180   8.289
 1663POPC   C3A23681   6.516  38.288   7.909
 1663POPC   C4A23682   6.961  38.382   7.899
 1663POPC   C1B23683   6.266  38.622   8.695
 1663POPC   C2B23684   6.281  38.682   8.264
 1663POPC   C3B23685   6.581  38.800   7.952
 1663POPC   C4B23686   6.467  38.674   7.545
 1664POPC   NC323687   0.941  17.065   9.543
 1664POPC   PO423688   1.367  16.621   9.743
 1664POPC   GL123689   1.265  16.698   9.299
 1664POPC   GL223690   1.518  16.453   9.235
 1664POPC   C1A23691   1.118  16.920   8.878
 1664POPC   D2A23692   1.361  16.927   8.458
 1664POPC   C3A23693   1.130  16.854   8.108
 1664POPC   C4A23694   1.017  16.755   7.718
 1664POPC   C1B23695   1.457  16.567   8.814
 1664POPC   C2B23696   1.538  16.463   8.361
 1664POPC   C3B23697   1.421  16.500   7.906
 1664POPC   C4B23698   1.366  16.453   7.428
 1665POPC   NC323699  23.536   9.611   9.680
 1665POPC   PO423700  23.474   9.094   9.317
 1665POPC   GL123701  23.659   9.473   9.116
 1665POPC   GL223702  23.596   9.833   9.187
 1665POPC   C1A23703  23.690   9.500   8.693
 1665POPC   D2A23704  23.549   9.794   8.422
 1665POPC   C3A23705  23.604   9.645   8.023
 1665POPC   C4A23706  23.857   9.675   7.683
 1665POPC   C1B23707  23.825   9.987   8.833
 1665POPC   C2B23708  23.877  10.201   8.422
 1665POPC   C3B23709  23.926  10.077   8.027
 1665POPC   C4B23710  24.047  10.139   7.604
 1666POPC   NC323711  37.006  44.226   9.898
 1666POPC   PO423712  36.831  43.596   9.598
 1666POPC   GL123713  37.028  43.634   9.171
 1666POPC   GL223714  37.072  43.980   9.013
 1666POPC   C1A23715  36.890  43.594   8.745
 1666POPC   D2A23716  36.724  43.886   8.475
 1666POPC   C3A23717  36.827  43.690   8.086
 1666POPC   C4A23718  36.633  43.697   7.713
 1666POPC   C1B23719  37.222  44.011   8.581
 1666POPC   C2B23720  37.064  44.133   8.174
 1666POPC   C3B23721  36.903  44.144   7.758
 1666POPC   C4B23722  37.100  44.073   7.327
 1667POPC   NC323723   5.081   0.222   9.499
 1667POPC   PO423724   5.025  44.537   9.499
 1667POPC   GL123725   5.125  44.679   9.108
 1667POPC   GL223726   4.885  44.962   9.115
 1667POPC   C1A23727   5.176  44.415   8.736
 1667POPC   D2A23728   5.307  44.336   8.303
 1667POPC   C3A23729   5.118  44.646   8.032
 1667POPC   C4A23730   5.227  44.810   7.604
 1667POPC   C1B23731   4.713  44.792   8.773
 1667POPC   C2B23732   4.741  44.536   8.456
 1667POPC   C3B23733   4.635  44.468   8.070
 1667POPC   C4B23734   4.686  44.797   7.782
 1668POPC   NC323735   6.450  39.617   9.891
 1668POPC   PO423736   6.665  39.124   9.518
 1668POPC   GL123737   6.576  39.249   9.132
 1668POPC   GL223738   6.569  39.605   9.190
 1668POPC   C1A23739   6.624  39.067   8.724
 1668POPC   D2A23740   6.446  39.155   8.353
 1668POPC   C3A23741   6.761  39.280   8.089
 1668POPC   C4A23742   6.864  39.156   7.684
 1668POPC   C1B23743   6.407  39.547   8.751
 1668POPC   C2B23744   6.459  39.675   8.315
 1668POPC   C3B23745   6.281  39.452   7.971
 1668POPC   C4B23746   6.372  39.283   7.565
 1669POPC   NC323747  20.402  10.246   9.485
 1669POPC   PO423748  20.800  10.710   9.595
 1669POPC   GL123749  20.596  10.674   9.188
 1669POPC   GL223750  20.235  10.685   9.137
 1669POPC   C1A23751  20.777  10.547   8.792
 1669POPC   D2A23752  20.733  10.328   8.460
 1669POPC   C3A23753  20.944  10.510   8.130
 1669POPC   C4A23754  20.803  10.511   7.718
 1669POPC   C1B23755  20.336  10.306   8.833
 1669POPC   C2B23756  20.279  10.105   8.404
 1669POPC   C3B23757  20.465  10.241   8.044
 1669POPC   C4B23758  20.410  10.154   7.650
 1670POPC   NC323759  44.476  12.817   9.543
 1670POPC   PO423760   0.009  13.157   9.368
 1670POPC   GL123761  44.818  12.812   9.155
 1670POPC   GL223762  44.490  13.015   9.080
 1670POPC   C1A23763  44.687  12.713   8.733
 1670POPC   D2A23764  44.433  12.947   8.432
 1670POPC   C3A23765  44.399  12.764   8.027
 1670POPC   C4A23766  44.696  12.522   7.814
 1670POPC   C1B23767  44.734  13.241   8.766
 1670POPC   C2B23768  44.927  13.160   8.365
 1670POPC   C3B23769  44.854  13.062   7.919
 1670POPC   C4B23770   0.059  13.203   7.538
 1671POPC   NC323771  11.117   8.318   9.498
 1671POPC   PO423772  11.648   8.315   9.136
 1671POPC   GL123773  11.246   8.266   8.996
 1671POPC   GL223774  11.018   7.970   9.122
 1671POPC   C1A23775  11.276   8.361   8.562
 1671POPC   D2A23776  11.057   8.183   8.253
 1671POPC   C3A23777  11.062   8.354   7.860
 1671POPC   C4A23778  11.501   8.472   7.880
 1671POPC   C1B23779  11.113   7.891   8.682
 1671POPC   C2B23780  10.995   7.673   8.305
 1671POPC   C3B23781  10.912   7.846   7.918
 1671POPC   C4B23782  11.045   7.996   7.462
 1672POPC   NC323783  13.429  31.046   9.593
 1672POPC   PO423784  14.037  31.088   9.297
 1672POPC   GL123785  13.704  30.752   9.230
 1672POPC   GL223786  13.351  30.882   9.128
 1672POPC   C1A23787  13.731  30.454   8.869
 1672POPC   D2A23788  13.807  30.570   8.433
 1672POPC   C3A23789  13.417  30.634   8.180
 1672POPC   C4A23790  13.558  30.570   7.768
 1672POPC   C1B23791  13.521  30.890   8.728
 1672POPC   C2B23792  13.660  31.080   8.368
 1672POPC   C3B23793  13.651  31.037   7.934
 1672POPC   C4B23794  13.294  31.017   7.684
 1673POPC   NC323795  36.650  18.040   9.328
 1673POPC   PO423796  37.104  18.526   9.419
 1673POPC   GL123797  37.028  18.340   9.075
 1673POPC   GL223798  36.694  18.442   8.981
 1673POPC   C1A23799  37.207  18.467   8.697
 1673POPC   D2A23800  37.040  18.460   8.283
 1673POPC   C3A23801  37.258  18.201   7.997
 1673POPC   C4A23802  37.104  18.098   7.562
 1673POPC   C1B23803  36.801  18.138   8.667
 1673POPC   C2B23804  36.940  17.898   8.327
 1673POPC   C3B23805  36.779  18.032   7.959
 1673POPC   C4B23806  36.491  17.888   7.699
 1674POPC   NC323807  23.347  19.703   9.422
 1674POPC   PO423808  22.737  19.976   9.489
 1674POPC   GL123809  22.953  19.876   9.134
 1674POPC   GL223810  22.909  19.523   9.166
 1674POPC   C1A23811  23.054  20.041   8.727
 1674POPC   D2A23812  22.759  20.254   8.496
 1674POPC   C3A23813  22.763  20.047   8.119
 1674POPC   C4A23814  23.101  20.043   7.877
 1674POPC   C1B23815  22.916  19.557   8.720
 1674POPC   C2B23816  23.154  19.666   8.348
 1674POPC   C3B23817  22.979  19.540   7.971
 1674POPC   C4B23818  22.813  19.718   7.612
 1675POPC   NC323819   1.467  32.893   9.941
 1675POPC   PO423820   1.023  33.325   9.592
 1675POPC   GL123821   1.128  33.082   9.176
 1675POPC   GL223822   1.378  32.815   9.155
 1675POPC   C1A23823   0.921  32.853   8.827
 1675POPC   D2A23824   1.002  32.640   8.432
 1675POPC   C3A23825   1.070  32.849   8.071
 1675POPC   C4A23826   0.853  32.975   7.701
 1675POPC   C1B23827   1.401  32.995   8.698
 1675POPC   C2B23828   1.216  33.252   8.352
 1675POPC   C3B23829   1.197  33.292   7.886
 1675POPC   C4B23830   1.241  33.163   7.421
 1676POPC   NC323831  39.718  13.646   9.478
 1676POPC   PO423832  39.084  13.532   9.757
 1676POPC   GL123833  39.213  13.643   9.322
 1676POPC   GL223834  38.984  13.516   9.137
 1676POPC   C1A23835  39.426  13.533   8.883
 1676POPC   D2A23836  39.303  13.531   8.434
 1676POPC   C3A23837  39.425  13.798   8.095
 1676POPC   C4A23838  39.540  13.542   7.732
 1676POPC   C1B23839  38.969  13.761   8.743
 1676POPC   C2B23840  38.850  13.698   8.298
 1676POPC   C3B23841  38.981  13.532   7.886
 1676POPC   C4B23842  38.811  13.220   7.588
 1677POPC   NC323843  32.671  21.421   9.465
 1677POPC   PO423844  33.278  21.012   9.540
 1677POPC   GL123845  33.128  21.307   9.226
 1677POPC   GL223846  32.872  21.111   9.107
 1677POPC   C1A23847  33.037  21.520   8.805
 1677POPC   D2A23848  32.922  21.349   8.372
 1677POPC   C3A23849  33.021  21.512   7.991
 1677POPC   C4A23850  33.245  21.841   7.809
 1677POPC   C1B23851  33.066  21.012   8.763
 1677POPC   C2B23852  32.957  20.847   8.419
 1677POPC   C3B23853  33.209  20.879   8.099
 1677POPC   C4B23854  33.082  20.993   7.718
 1678POPC   NC323855  10.607  19.600   9.537
 1678POPC   PO423856  10.185  20.067   9.426
 1678POPC   GL123857  10.479  20.172   9.122
 1678POPC   GL223858  10.780  19.956   9.191
 1678POPC   C1A23859  10.362  20.240   8.690
 1678POPC   D2A23860  10.565  20.147   8.319
 1678POPC   C3A23861  10.475  19.850   8.020
 1678POPC   C4A23862  10.487  20.106   7.697
 1678POPC   C1B23863  10.830  19.980   8.744
 1678POPC   C2B23864  10.791  19.684   8.397
 1678POPC   C3B23865  10.842  19.483   7.989
 1678POPC   C4B23866  10.674  19.639   7.573
 1679POPC   NC323867   4.837   7.454   9.548
 1679POPC   PO423868   5.433   7.670   9.516
 1679POPC   GL123869   5.175   7.432   9.175
 1679POPC   GL223870   4.918   7.659   9.038
 1679POPC   C1A23871   4.996   7.206   8.794
 1679POPC   D2A23872   5.086   6.996   8.386
 1679POPC   C3A23873   4.971   7.167   7.977
 1679POPC   C4A23874   4.735   7.079   7.620
 1679POPC   C1B23875   5.313   7.653   8.728
 1679POPC   C2B23876   5.583   7.831   8.369
 1679POPC   C3B23877   5.423   7.802   7.931
 1679POPC   C4B23878   4.989   7.657   7.837
 1680POPC   NC323879  31.371   7.673   9.633
 1680POPC   PO423880  31.888   7.266   9.399
 1680POPC   GL123881  31.578   7.420   9.139
 1680POPC   GL223882  31.206   7.512   9.147
 1680POPC   C1A23883  31.528   7.360   8.709
 1680POPC   D2A23884  31.380   7.571   8.352
 1680POPC   C3A23885  31.209   7.311   8.041
 1680POPC   C4A23886  31.453   7.391   7.700
 1680POPC   C1B23887  31.075   7.754   8.744
 1680POPC   C2B23888  30.961   7.862   8.266
 1680POPC   C3B23889  31.251   7.805   7.883
 1680POPC   C4B23890  31.248   7.764   7.376
 1681POPC   NC323891  31.937  38.658   9.568
 1681POPC   PO423892  32.580  38.408   9.560
 1681POPC   GL123893  32.272  38.485   9.205
 1681POPC   GL223894  32.046  38.771   9.083
 1681POPC   C1A23895  32.281  38.318   8.796
 1681POPC   D2A23896  32.514  38.345   8.428
 1681POPC   C3A23897  32.364  38.517   8.050
 1681POPC   C4A23898  32.611  38.621   7.706
 1681POPC   C1B23899  32.256  38.846   8.764
 1681POPC   C2B23900  32.097  38.719   8.421
 1681POPC   C3B23901  32.004  38.924   8.046
 1681POPC   C4B23902  32.065  38.731   7.682
 1682POPC   NC323903   3.826  42.631   9.503
 1682POPC   PO423904   3.458  42.118   9.818
 1682POPC   GL123905   3.446  42.129   9.269
 1682POPC   GL223906   3.522  42.437   9.131
 1682POPC   C1A23907   3.504  42.063   8.765
 1682POPC   D2A23908   3.632  42.312   8.346
 1682POPC   C3A23909   3.612  42.195   7.885
 1682POPC   C4A23910   3.490  42.391   7.483
 1682POPC   C1B23911   3.839  42.429   8.810
 1682POPC   C2B23912   4.068  42.570   8.478
 1682POPC   C3B23913   3.992  42.639   8.063
 1682POPC   C4B23914   3.970  42.471   7.628
 1683POPC   NC323915  43.703  35.890   9.327
 1683POPC   PO423916  43.610  36.570   9.469
 1683POPC   GL123917  43.719  36.384   9.105
 1683POPC   GL223918  44.084  36.394   9.101
 1683POPC   C1A23919  43.730  36.138   8.741
 1683POPC   D2A23920  43.928  36.197   8.408
 1683POPC   C3A23921  43.701  36.163   8.057
 1683POPC   C4A23922  43.912  36.128   7.710
 1683POPC   C1B23923  44.231  36.032   8.832
 1683POPC   C2B23924  44.259  35.814   8.440
 1683POPC   C3B23925  44.317  36.045   8.047
 1683POPC   C4B23926  44.408  36.195   7.640
 1684POPC   NC323927  39.829  36.731   9.410
 1684POPC   PO423928  39.182  36.960   9.596
 1684POPC   GL123929  39.303  37.128   9.169
 1684POPC   GL223930  39.421  36.808   9.126
 1684POPC   C1A23931  39.305  37.026   8.680
 1684POPC   D2A23932  39.102  36.777   8.364
 1684POPC   C3A23933  39.230  36.918   7.973
 1684POPC   C4A23934  39.172  37.234   7.655
 1684POPC   C1B23935  39.634  36.653   8.783
 1684POPC   C2B23936  39.511  36.473   8.408
 1684POPC   C3B23937  39.623  36.606   8.059
 1684POPC   C4B23938  39.652  36.795   7.681
 1685POPC   NC323939  17.206   5.955   9.499
 1685POPC   PO423940  16.571   5.633   9.515
 1685POPC   GL123941  16.823   5.701   9.200
 1685POPC   GL223942  16.781   6.020   9.158
 1685POPC   C1A23943  16.771   5.513   8.815
 1685POPC   D2A23944  16.547   5.429   8.464
 1685POPC   C3A23945  16.775   5.344   8.102
 1685POPC   C4A23946  16.609   5.623   7.804
 1685POPC   C1B23947  16.711   6.281   8.825
 1685POPC   C2B23948  16.789   6.421   8.413
 1685POPC   C3B23949  16.838   6.326   8.014
 1685POPC   C4B23950  16.608   6.123   7.752
 1686POPC   NC323951  40.026  11.635   9.780
 1686POPC   PO423952  39.823  11.012   9.492
 1686POPC   GL123953  39.905  10.990   9.063
 1686POPC   GL223954  40.214  11.132   9.057
 1686POPC   C1A23955  39.987  11.150   8.611
 1686POPC   D2A23956  40.041  10.968   8.217
 1686POPC   C3A23957  40.341  11.017   7.877
 1686POPC   C4A23958  40.027  10.975   7.526
 1686POPC   C1B23959  40.457  11.344   8.753
 1686POPC   C2B23960  40.384  11.350   8.299
 1686POPC   C3B23961  40.158  11.490   7.937
 1686POPC   C4B23962  40.361  11.803   7.648
 1687POPC   NC323963  34.790   2.401   9.527
 1687POPC   PO423964  34.348   3.034   9.450
 1687POPC   GL123965  34.567   2.744   9.185
 1687POPC   GL223966  34.929   2.819   9.241
 1687POPC   C1A23967  34.490   2.726   8.728
 1687POPC   D2A23968  34.462   3.084   8.408
 1687POPC   C3A23969  34.363   2.921   7.988
 1687POPC   C4A23970  34.455   2.521   7.731
 1687POPC   C1B23971  34.844   3.065   8.867
 1687POPC   C2B23972  34.941   2.904   8.479
 1687POPC   C3B23973  34.875   3.037   8.086
 1687POPC   C4B23974  34.827   2.898   7.704
 1688POPC   NC323975  30.462   3.829   9.653
 1688POPC   PO423976  31.141   3.735   9.511
 1688POPC   GL123977  30.805   3.618   9.213
 1688POPC   GL223978  30.605   3.895   9.089
 1688POPC   C1A23979  30.734   3.572   8.732
 1688POPC   D2A23980  30.948   3.647   8.337
 1688POPC   C3A23981  30.739   3.480   7.987
 1688POPC   C4A23982  30.406   3.765   7.889
 1688POPC   C1B23983  30.951   4.037   8.747
 1688POPC   C2B23984  31.204   4.112   8.345
 1688POPC   C3B23985  31.044   4.004   7.952
 1688POPC   C4B23986  30.904   3.776   7.580
 1689POPC   NC323987  42.136  29.539   9.521
 1689POPC   PO423988  42.567  28.964   9.470
 1689POPC   GL123989  42.394  29.173   9.149
 1689POPC   GL223990  42.041  29.146   9.192
 1689POPC   C1A23991  42.517  29.107   8.749
 1689POPC   D2A23992  42.566  28.748   8.490
 1689POPC   C3A23993  42.655  28.949   8.127
 1689POPC   C4A23994  42.450  29.060   7.737
 1689POPC   C1B23995  42.032  29.351   8.804
 1689POPC   C2B23996  42.176  29.271   8.386
 1689POPC   C3B23997  42.088  29.443   7.984
 1689POPC   C4B23998  42.433  29.573   7.757
 1690POPC   NC323999  36.470  14.565   9.306
 1690POPC   PO424000  36.055  14.165   9.662
 1690POPC   GL124001  35.985  14.345   9.173
 1690POPC   GL224002  35.976  14.675   9.053
 1690POPC   C1A24003  36.068  14.310   8.704
 1690POPC   D2A24004  36.167  14.035   8.358
 1690POPC   C3A24005  36.084  14.194   7.950
 1690POPC   C4A24006  36.119  14.140   7.505
 1690POPC   C1B24007  36.293  14.763   8.697
 1690POPC   C2B24008  36.302  14.607   8.260
 1690POPC   C3B24009  36.160  14.763   7.846
 1690POPC   C4B24010  36.416  14.873   7.467
 1691POPC   NC324011  17.169  25.322   9.333
 1691POPC   PO424012  17.845  25.452   9.594
 1691POPC   GL124013  17.647  25.382   9.166
 1691POPC   GL224014  17.528  25.009   9.121
 1691POPC   C1A24015  17.508  25.329   8.710
 1691POPC   D2A24016  17.198  25.386   8.365
 1691POPC   C3A24017  17.436  25.410   7.979
 1691POPC   C4A24018  17.654  25.359   7.580
 1691POPC   C1B24019  17.263  24.870   8.753
 1691POPC   C2B24020  17.049  24.878   8.357
 1691POPC   C3B24021  16.995  25.089   7.984
 1691POPC   C4B24022  17.279  25.029   7.675
 1692POPC   NC324023   0.653  31.415   9.628
 1692POPC   PO424024   1.292  31.515   9.602
 1692POPC   GL124025   1.254  31.386   9.198
 1692POPC   GL224026   0.921  31.333   9.202
 1692POPC   C1A24027   1.354  31.241   8.791
 1692POPC   D2A24028   1.196  31.424   8.410
 1692POPC   C3A24029   1.267  31.315   8.010
 1692POPC   C4A24030   1.602  31.544   7.844
 1692POPC   C1B24031   0.939  31.557   8.828
 1692POPC   C2B24032   0.713  31.536   8.413
 1692POPC   C3B24033   0.781  31.511   7.995
 1692POPC   C4B24034   1.002  31.624   7.621
 1693POPC   NC324035  42.073  24.975   9.458
 1693POPC   PO424036  42.667  25.279   9.493
 1693POPC   GL124037  42.529  25.454   9.143
 1693POPC   GL224038  42.185  25.483   9.122
 1693POPC   C1A24039  42.623  25.549   8.767
 1693POPC   D2A24040  42.596  25.242   8.442
 1693POPC   C3A24041  42.630  25.452   8.054
 1693POPC   C4A24042  42.666  25.285   7.619
 1693POPC   C1B24043  42.192  25.211   8.798
 1693POPC   C2B24044  42.096  25.066   8.396
 1693POPC   C3B24045  42.345  24.994   8.039
 1693POPC   C4B24046  42.195  25.287   7.783
 1694POPC   NC324047  36.025   1.119   9.469
 1694POPC   PO424048  36.553   1.399   9.457
 1694POPC   GL124049  36.411   0.986   9.186
 1694POPC   GL224050  36.569   0.830   8.906
 1694POPC   C1A24051  36.091   0.982   8.814
 1694POPC   D2A24052  36.158   1.218   8.402
 1694POPC   C3A24053  36.256   0.951   8.045
 1694POPC   C4A24054  35.830   0.976   7.998
 1694POPC   C1B24055  36.466   1.321   8.821
 1694POPC   C2B24056  36.586   1.588   8.502
 1694POPC   C3B24057  36.543   1.595   8.069
 1694POPC   C4B24058  36.182   1.429   7.849
 1695POPC   NC324059  31.791   6.812   9.469
 1695POPC   PO424060  31.119   6.892   9.494
 1695POPC   GL124061  31.380   6.686   9.147
 1695POPC   GL224062  31.643   6.927   9.017
 1695POPC   C1A24063  31.585   6.480   8.765
 1695POPC   D2A24064  31.772   6.522   8.324
 1695POPC   C3A24065  31.476   6.627   8.048
 1695POPC   C4A24066  31.403   6.726   7.631
 1695POPC   C1B24067  31.820   6.935   8.642
 1695POPC   C2B24068  31.609   7.066   8.276
 1695POPC   C3B24069  31.739   7.009   7.855
 1695POPC   C4B24070  31.807   6.942   7.372
 1696POPC   NC324071  29.250  34.995   9.585
 1696POPC   PO424072  29.505  35.695   9.628
 1696POPC   GL124073  29.227  35.446   9.318
 1696POPC   GL224074  29.036  35.658   9.147
 1696POPC   C1A24075  29.139  35.204   8.910
 1696POPC   D2A24076  29.271  35.293   8.449
 1696POPC   C3A24077  29.044  35.188   8.044
 1696POPC   C4A24078  29.076  34.936   7.697
 1696POPC   C1B24079  29.289  35.681   8.790
 1696POPC   C2B24080  29.082  35.756   8.389
 1696POPC   C3B24081  28.951  35.686   7.960
 1696POPC   C4B24082  29.077  35.709   7.527
 1697POPC   NC324083   3.062   4.970   9.581
 1697POPC   PO424084   3.658   5.174   9.565
 1697POPC   GL124085   3.592   5.256   9.103
 1697POPC   GL224086   3.677   5.607   8.966
 1697POPC   C1A24087   3.669   5.198   8.637
 1697POPC   D2A24088   3.624   5.251   8.186
 1697POPC   C3A24089   3.417   4.943   7.897
 1697POPC   C4A24090   3.571   4.763   7.467
 1697POPC   C1B24091   3.259   5.456   8.786
 1697POPC   C2B24092   3.151   5.288   8.368
 1697POPC   C3B24093   3.192   5.409   7.927
 1697POPC   C4B24094   3.239   5.220   7.504
 1698POPC   NC324095  20.909  22.220   9.610
 1698POPC   PO424096  21.473  22.541   9.589
 1698POPC   GL124097  21.214  22.461   9.221
 1698POPC   GL224098  21.418  22.170   9.199
 1698POPC   C1A24099  21.267  22.393   8.749
 1698POPC   D2A24100  21.624  22.465   8.446
 1698POPC   C3A24101  21.505  22.372   8.042
 1698POPC   C4A24102  21.060  22.411   7.979
 1698POPC   C1B24103  21.591  22.008   8.820
 1698POPC   C2B24104  21.403  21.969   8.413
 1698POPC   C3B24105  21.240  21.893   8.012
 1698POPC   C4B24106  21.151  21.666   7.650
 1699POPC   NC324107  42.303  39.400   9.794
 1699POPC   PO424108  42.204  38.899   9.337
 1699POPC   GL124109  42.447  39.070   9.057
 1699POPC   GL224110  42.120  39.126   8.867
 1699POPC   C1A24111  42.581  39.200   8.686
 1699POPC   D2A24112  42.493  39.389   8.352
 1699POPC   C3A24113  42.367  39.099   8.091
 1699POPC   C4A24114  42.537  38.952   7.718
 1699POPC   C1B24115  42.160  39.555   8.704
 1699POPC   C2B24116  42.208  39.838   8.376
 1699POPC   C3B24117  42.133  39.598   8.029
 1699POPC   C4B24118  42.223  39.364   7.696
 1700POPC   NC324119  39.066   1.311   9.342
 1700POPC   PO424120  39.761   1.263   9.471
 1700POPC   GL124121  39.510   1.175   9.093
 1700POPC   GL224122  39.240   0.900   9.119
 1700POPC   C1A24123  39.394   1.080   8.654
 1700POPC   D2A24124  39.151   1.288   8.295
 1700POPC   C3A24125  39.347   1.338   7.884
 1700POPC   C4A24126  39.635   1.012   7.732
 1700POPC   C1B24127  38.910   1.071   8.775
 1700POPC   C2B24128  38.723   1.018   8.367
 1700POPC   C3B24129  38.763   1.121   7.919
 1700POPC   C4B24130  38.858   1.377   7.559
 1701POPC   NC324131  11.771  42.280   9.467
 1701POPC   PO424132  12.494  42.220   9.462
 1701POPC   GL124133  12.190  42.202   9.160
 1701POPC   GL224134  11.977  41.907   9.201
 1701POPC   C1A24135  12.200  42.387   8.747
 1701POPC   D2A24136  12.244  42.331   8.300
 1701POPC   C3A24137  12.050  42.630   8.010
 1701POPC   C4A24138  12.393  42.831   7.842
 1701POPC   C1B24139  12.122  41.872   8.781
 1701POPC   C2B24140  11.937  41.935   8.401
 1701POPC   C3B24141  11.853  42.141   8.025
 1701POPC   C4B24142  11.733  42.139   7.630
 1702POPC   NC324143  32.368  20.195   9.642
 1702POPC   PO424144  31.753  20.277   9.559
 1702POPC   GL124145  32.062  20.480   9.266
 1702POPC   GL224146  32.029  20.861   9.163
 1702POPC   C1A24147  32.066  20.508   8.805
 1702POPC   D2A24148  31.849  20.653   8.419
 1702POPC   C3A24149  32.123  20.689   8.068
 1702POPC   C4A24150  32.358  20.480   7.735
 1702POPC   C1B24151  32.074  21.031   8.730
 1702POPC   C2B24152  31.975  21.187   8.324
 1702POPC   C3B24153  32.063  21.170   7.872
 1702POPC   C4B24154  32.013  20.833   7.586
 1703POPC   NC324155  38.892  17.195   9.560
 1703POPC   PO424156  39.436  17.523   9.586
 1703POPC   GL124157  39.160  17.573   9.230
 1703POPC   GL224158  39.458  17.517   9.059
 1703POPC   C1A24159  39.052  17.620   8.769
 1703POPC   D2A24160  39.200  17.344   8.448
 1703POPC   C3A24161  39.236  17.374   8.046
 1703POPC   C4A24162  38.930  17.482   7.744
 1703POPC   C1B24163  39.518  17.855   8.789
 1703POPC   C2B24164  39.566  17.785   8.356
 1703POPC   C3B24165  39.703  17.892   7.968
 1703POPC   C4B24166  39.331  17.835   7.769
 1704POPC   NC324167  38.010  14.585   9.582
 1704POPC   PO424168  38.330  14.045   9.589
 1704POPC   GL124169  38.063  14.257   9.177
 1704POPC   GL224170  37.865  14.616   9.114
 1704POPC   C1A24171  37.794  14.276   8.744
 1704POPC   D2A24172  37.845  14.398   8.285
 1704POPC   C3A24173  37.570  14.163   7.957
 1704POPC   C4A24174  37.401  13.829   7.661
 1704POPC   C1B24175  37.701  14.785   8.760
 1704POPC   C2B24176  37.730  14.933   8.379
 1704POPC   C3B24177  37.787  14.826   7.979
 1704POPC   C4B24178  37.708  14.548   7.652
 1705POPC   NC324179  30.745  39.723   9.362
 1705POPC   PO424180  30.262  39.147   9.389
 1705POPC   GL124181  30.494  39.361   9.092
 1705POPC   GL224182  30.807  39.138   8.949
 1705POPC   C1A24183  30.619  39.538   8.726
 1705POPC   D2A24184  30.740  39.286   8.392
 1705POPC   C3A24185  30.765  39.511   8.024
 1705POPC   C4A24186  30.859  39.370   7.610
 1705POPC   C1B24187  30.422  38.992   8.714
 1705POPC   C2B24188  30.289  39.059   8.280
 1705POPC   C3B24189  30.591  39.043   7.922
 1705POPC   C4B24190  30.536  39.012   7.483
 1706POPC   NC324191  34.676   8.159   9.532
 1706POPC   PO424192  34.944   8.817   9.569
 1706POPC   GL124193  34.871   8.484   9.190
 1706POPC   GL224194  34.548   8.290   9.066
 1706POPC   C1A24195  34.902   8.381   8.736
 1706POPC   D2A24196  34.826   8.635   8.397
 1706POPC   C3A24197  34.693   8.462   8.002
 1706POPC   C4A24198  34.492   8.374   7.596
 1706POPC   C1B24199  34.437   7.987   8.753
 1706POPC   C2B24200  34.572   7.899   8.331
 1706POPC   C3B24201  34.685   7.964   7.909
 1706POPC   C4B24202  34.577   7.825   7.480
 1707POPC   NC324203  40.246  38.266   9.408
 1707POPC   PO424204  39.616  38.717   9.447
 1707POPC   GL124205  39.857  38.538   9.182
 1707POPC   GL224206  40.157  38.670   9.101
 1707POPC   C1A24207  39.818  38.321   8.805
 1707POPC   D2A24208  39.641  38.451   8.429
 1707POPC   C3A24209  39.714  38.280   7.991
 1707POPC   C4A24210  39.805  38.376   7.554
 1707POPC   C1B24211  40.296  38.501   8.707
 1707POPC   C2B24212  40.127  38.374   8.305
 1707POPC   C3B24213  40.209  38.528   7.894
 1707POPC   C4B24214  40.598  38.384   7.741
 1708POPC   NC324215   7.142  10.152   9.284
 1708POPC   PO424216   7.126  10.712   9.628
 1708POPC   GL124217   7.332  10.636   9.198
 1708POPC   GL224218   7.625  10.393   9.052
 1708POPC   C1A24219   7.358  10.681   8.753
 1708POPC   D2A24220   7.631  10.521   8.432
 1708POPC   C3A24221   7.441  10.657   8.052
 1708POPC   C4A24222   7.220  10.776   7.728
 1708POPC   C1B24223   7.501  10.102   8.718
 1708POPC   C2B24224   7.711   9.988   8.333
 1708POPC   C3B24225   7.670  10.223   7.949
 1708POPC   C4B24226   7.351  10.116   7.662
 1709POPC   NC324227  24.060  31.154   9.916
 1709POPC   PO424228  23.759  31.522   9.518
 1709POPC   GL124229  23.567  31.293   9.211
 1709POPC   GL224230  23.861  31.179   9.087
 1709POPC   C1A24231  23.482  31.243   8.763
 1709POPC   D2A24232  23.634  31.484   8.455
 1709POPC   C3A24233  23.522  31.640   8.111
 1709POPC   C4A24234  23.650  31.597   7.729
 1709POPC   C1B24235  23.955  31.529   8.848
 1709POPC   C2B24236  24.138  31.472   8.473
 1709POPC   C3B24237  24.036  31.555   8.091
 1709POPC   C4B24238  24.050  31.882   7.834
 1710POPC   NC324239  19.761  42.025  10.156
 1710POPC   PO424240  19.726  42.238   9.494
 1710POPC   GL124241  20.019  42.258   9.187
 1710POPC   GL224242  20.269  41.997   9.240
 1710POPC   C1A24243  20.047  42.380   8.766
 1710POPC   D2A24244  19.866  42.200   8.412
 1710POPC   C3A24245  19.781  42.505   8.109
 1710POPC   C4A24246  19.684  42.704   7.727
 1710POPC   C1B24247  20.125  41.894   8.810
 1710POPC   C2B24248  20.313  41.957   8.392
 1710POPC   C3B24249  20.167  42.154   8.016
 1710POPC   C4B24250  19.882  42.246   7.698
 1711POPC   NC324251  26.592   0.314   9.558
 1711POPC   PO424252  25.971   0.636   9.493
 1711POPC   GL124253  26.047   0.371   9.155
 1711POPC   GL224254  26.356   0.426   9.128
 1711POPC   C1A24255  25.898   0.324   8.750
 1711POPC   D2A24256  25.674   0.296   8.386
 1711POPC   C3A24257  25.916   0.183   8.065
 1711POPC   C4A24258  25.824   0.362   7.700
 1711POPC   C1B24259  26.380   0.530   8.733
 1711POPC   C2B24260  26.361   0.343   8.345
 1711POPC   C3B24261  26.277   0.522   7.945
 1711POPC   C4B24262  26.267   0.452   7.495
 1712POPC   NC324263  35.249  29.801   9.540
 1712POPC   PO424264  35.897  29.771   9.548
 1712POPC   GL124265  35.593  29.802   9.183
 1712POPC   GL224266  35.488  30.126   9.117
 1712POPC   C1A24267  35.341  29.755   8.808
 1712POPC   D2A24268  35.393  30.043   8.482
 1712POPC   C3A24269  35.376  29.869   8.082
 1712POPC   C4A24270  35.526  29.865   7.671
 1712POPC   C1B24271  35.054  30.164   8.901
 1712POPC   C2B24272  34.887  30.037   8.483
 1712POPC   C3B24273  34.979  30.173   8.059
 1712POPC   C4B24274  35.014  29.944   7.668
 1713POPC   NC324275  41.757  28.783   9.427
 1713POPC   PO424276  41.692  29.446   9.428
 1713POPC   GL124277  41.519  29.290   9.109
 1713POPC   GL224278  41.397  28.965   9.144
 1713POPC   C1A24279  41.484  29.273   8.723
 1713POPC   D2A24280  41.698  29.099   8.408
 1713POPC   C3A24281  41.589  29.292   8.073
 1713POPC   C4A24282  41.620  29.466   7.706
 1713POPC   C1B24283  41.550  28.768   8.768
 1713POPC   C2B24284  41.515  28.628   8.346
 1713POPC   C3B24285  41.464  28.815   7.947
 1713POPC   C4B24286  41.204  29.174   7.761
 1714POPC   NC324287  22.928  31.865   9.689
 1714POPC   PO424288  22.803  31.276   9.362
 1714POPC   GL124289  23.101  31.468   9.055
 1714POPC   GL224290  23.284  31.751   9.224
 1714POPC   C1A24291  23.090  31.502   8.586
 1714POPC   D2A24292  23.233  31.205   8.266
 1714POPC   C3A24293  23.199  31.323   7.821
 1714POPC   C4A24294  22.832  31.530   7.594
 1714POPC   C1B24295  23.427  31.844   8.771
 1714POPC   C2B24296  23.198  31.943   8.330
 1714POPC   C3B24297  23.169  31.849   7.810
 1714POPC   C4B24298  23.292  31.610   7.390
 1715POPC   NC324299  25.911   4.481   9.605
 1715POPC   PO424300  26.200   3.875   9.558
 1715POPC   GL124301  25.976   4.065   9.250
 1715POPC   GL224302  26.113   4.355   9.169
 1715POPC   C1A24303  25.896   4.070   8.784
 1715POPC   D2A24304  26.098   4.221   8.372
 1715POPC   C3A24305  25.885   4.042   8.020
 1715POPC   C4A24306  25.536   3.868   7.785
 1715POPC   C1B24307  26.068   4.548   8.776
 1715POPC   C2B24308  26.010   4.751   8.368
 1715POPC   C3B24309  25.993   4.555   7.953
 1715POPC   C4B24310  26.032   4.620   7.506
 1716POPC   NC324311  33.473  33.106   9.516
 1716POPC   PO424312  32.787  32.949   9.489
 1716POPC   GL124313  32.844  32.785   9.073
 1716POPC   GL224314  33.158  32.662   9.054
 1716POPC   C1A24315  32.600  32.756   8.724
 1716POPC   D2A24316  32.655  32.959   8.348
 1716POPC   C3A24317  32.999  33.049   8.095
 1716POPC   C4A24318  32.884  32.729   7.868
 1716POPC   C1B24319  33.102  32.787   8.601
 1716POPC   C2B24320  33.239  32.618   8.216
 1716POPC   C3B24321  33.470  32.832   7.882
 1716POPC   C4B24322  33.658  33.209   7.639
 1717POPC   NC324323   4.018  33.781   9.461
 1717POPC   PO424324   4.650  33.455   9.376
 1717POPC   GL124325   4.376  33.682   9.108
 1717POPC   GL224326   4.408  34.050   9.146
 1717POPC   C1A24327   4.301  33.648   8.670
 1717POPC   D2A24328   4.087  33.604   8.275
 1717POPC   C3A24329   4.310  33.819   7.956
 1717POPC   C4A24330   4.541  33.551   7.688
 1717POPC   C1B24331   4.133  34.112   8.797
 1717POPC   C2B24332   4.108  34.115   8.343
 1717POPC   C3B24333   4.008  34.278   7.924
 1717POPC   C4B24334   4.290  34.220   7.563
 1718POPC   NC324335   7.036  39.393   9.364
 1718POPC   PO424336   7.656  39.034   9.420
 1718POPC   GL124337   7.543  39.315   9.102
 1718POPC   GL224338   7.645  39.643   9.173
 1718POPC   C1A24339   7.445  39.221   8.673
 1718POPC   D2A24340   7.630  39.083   8.290
 1718POPC   C3A24341   7.296  38.984   7.969
 1718POPC   C4A24342   7.380  39.014   7.530
 1718POPC   C1B24343   7.372  39.730   8.788
 1718POPC   C2B24344   7.095  39.588   8.419
 1718POPC   C3B24345   7.218  39.514   7.983
 1718POPC   C4B24346   7.616  39.388   7.863
 1719POPC   NC324347  10.722  10.732   9.473
 1719POPC   PO424348  11.366  10.603   9.682
 1719POPC   GL124349  11.455  10.566   9.252
 1719POPC   GL224350  11.581  10.862   9.138
 1719POPC   C1A24351  11.436  10.463   8.829
 1719POPC   D2A24352  11.096  10.486   8.544
 1719POPC   C3A24353  11.199  10.448   8.103
 1719POPC   C4A24354  11.193  10.655   7.691
 1719POPC   C1B24355  11.496  11.019   8.811
 1719POPC   C2B24356  11.498  10.817   8.445
 1719POPC   C3B24357  11.498  10.891   8.045
 1719POPC   C4B24358  11.699  10.769   7.680
 1720POPC   NC324359  10.720  41.116   9.569
 1720POPC   PO424360  10.186  40.701   9.544
 1720POPC   GL124361  10.550  40.643   9.274
 1720POPC   GL224362  10.437  40.911   9.126
 1720POPC   C1A24363  10.776  40.593   8.846
 1720POPC   D2A24364  10.848  40.412   8.387
 1720POPC   C3A24365  10.685  40.601   8.007
 1720POPC   C4A24366  10.612  41.024   7.820
 1720POPC   C1B24367  10.271  40.591   8.831
 1720POPC   C2B24368  10.364  40.673   8.409
 1720POPC   C3B24369  10.187  40.776   7.977
 1720POPC   C4B24370  10.417  40.630   7.564
 1721POPC   NC324371  23.560   4.044   9.607
 1721POPC   PO424372  24.074   4.495   9.524
 1721POPC   GL124373  23.835   4.302   9.168
 1721POPC   GL224374  23.580   4.031   9.117
 1721POPC   C1A24375  23.628   4.425   8.797
 1721POPC   D2A24376  23.408   4.561   8.472
 1721POPC   C3A24377  23.712   4.541   8.204
 1721POPC   C4A24378  23.718   4.570   7.796
 1721POPC   C1B24379  23.806   3.955   8.741
 1721POPC   C2B24380  23.566   4.040   8.386
 1721POPC   C3B24381  23.676   4.082   7.987
 1721POPC   C4B24382  23.997   3.945   7.758
 1722POPC   NC324383  34.525  23.373   9.915
 1722POPC   PO424384  34.493  23.950   9.474
 1722POPC   GL124385  34.699  23.868   9.105
 1722POPC   GL224386  34.923  24.112   9.049
 1722POPC   C1A24387  34.512  23.680   8.739
 1722POPC   D2A24388  34.584  23.355   8.435
 1722POPC   C3A24389  34.680  23.534   8.048
 1722POPC   C4A24390  34.422  23.823   7.826
 1722POPC   C1B24391  34.811  24.079   8.599
 1722POPC   C2B24392  34.792  24.063   8.137
 1722POPC   C3B24393  34.924  24.032   7.695
 1722POPC   C4B24394  34.853  24.280   7.309
 1723POPC   NC324395  10.295  41.875   9.679
 1723POPC   PO424396  10.861  41.546   9.467
 1723POPC   GL124397  10.649  41.395   9.102
 1723POPC   GL224398  10.288  41.398   9.174
 1723POPC   C1A24399  10.554  41.161   8.707
 1723POPC   D2A24400  10.378  41.184   8.294
 1723POPC   C3A24401  10.586  41.483   8.012
 1723POPC   C4A24402  10.742  41.480   7.557
 1723POPC   C1B24403  10.145  41.514   8.757
 1723POPC   C2B24404  10.218  41.689   8.351
 1723POPC   C3B24405  10.230  41.827   7.926
 1723POPC   C4B24406  10.229  41.501   7.622
 1724POPC   NC324407  10.644  37.157   9.740
 1724POPC   PO424408  10.734  36.642   9.234
 1724POPC   GL124409  10.375  36.816   9.001
 1724POPC   GL224410  10.391  37.148   8.853
 1724POPC   C1A24411  10.290  36.744   8.561
 1724POPC   D2A24412  10.576  36.614   8.221
 1724POPC   C3A24413  10.394  36.642   7.814
 1724POPC   C4A24414  10.386  36.538   7.379
 1724POPC   C1B24415  10.751  36.975   8.633
 1724POPC   C2B24416  10.919  37.067   8.285
 1724POPC   C3B24417  10.767  37.018   7.907
 1724POPC   C4B24418  10.377  37.151   7.684
 1725POPC   NC324419  34.104  28.670   9.558
 1725POPC   PO424420  33.687  28.279   9.749
 1725POPC   GL124421  33.592  28.448   9.305
 1725POPC   GL224422  33.906  28.463   9.127
 1725POPC   C1A24423  33.507  28.316   8.848
 1725POPC   D2A24424  33.430  28.432   8.399
 1725POPC   C3A24425  33.615  28.541   8.034
 1725POPC   C4A24426  33.748  28.389   7.647
 1725POPC   C1B24427  34.018  28.269   8.729
 1725POPC   C2B24428  33.999  28.356   8.306
 1725POPC   C3B24429  34.136  28.235   7.925
 1725POPC   C4B24430  33.997  27.933   7.666
 1726POPC   NC324431  17.505  10.161   9.735
 1726POPC   PO424432  17.612  10.728   9.406
 1726POPC   GL124433  17.424  10.463   9.102
 1726POPC   GL224434  17.390  10.084   9.188
 1726POPC   C1A24435  17.322  10.654   8.702
 1726POPC   D2A24436  17.272  10.751   8.274
 1726POPC   C3A24437  17.609  10.730   7.994
 1726POPC   C4A24438  17.430  10.629   7.601
 1726POPC   C1B24439  17.575  10.097   8.751
 1726POPC   C2B24440  17.586  10.331   8.373
 1726POPC   C3B24441  17.363  10.282   8.004
 1726POPC   C4B24442  17.660  10.157   7.718
 1727POPC   NC324443  19.432  13.132   9.433
 1727POPC   PO424444  18.993  13.066   9.877
 1727POPC   GL124445  18.997  13.315   9.328
 1727POPC   GL224446  18.716  13.234   9.090
 1727POPC   C1A24447  19.168  13.368   8.870
 1727POPC   D2A24448  19.102  13.635   8.508
 1727POPC   C3A24449  19.231  13.400   8.139
 1727POPC   C4A24450  19.368  13.542   7.763
 1727POPC   C1B24451  18.659  13.406   8.681
 1727POPC   C2B24452  18.722  13.407   8.229
 1727POPC   C3B24453  18.849  13.630   7.863
 1727POPC   C4B24454  18.683  13.997   7.685
 1728POPC   NC324455  41.222   5.641   9.804
 1728POPC   PO424456  41.707   6.131   9.566
 1728POPC   GL124457  41.503   6.032   9.142
 1728POPC   GL224458  41.396   5.693   9.021
 1728POPC   C1A24459  41.597   6.039   8.695
 1728POPC   D2A24460  41.566   6.275   8.300
 1728POPC   C3A24461  41.548   5.945   7.991
 1728POPC   C4A24462  41.856   5.979   7.709
 1728POPC   C1B24463  41.418   5.458   8.634
 1728POPC   C2B24464  41.734   5.388   8.310
 1728POPC   C3B24465  41.756   5.459   7.852
 1728POPC   C4B24466  41.463   5.557   7.494
 1729POPC   NC324467   5.607   0.821   9.513
 1729POPC   PO424468   4.937   0.619   9.332
 1729POPC   GL124469   5.263   0.503   9.111
 1729POPC   GL224470   5.344   0.150   9.048
 1729POPC   C1A24471   5.237   0.505   8.698
 1729POPC   D2A24472   5.240   0.384   8.317
 1729POPC   C3A24473   5.059   0.724   8.142
 1729POPC   C4A24474   5.290   0.807   7.827
 1729POPC   C1B24475   5.168  44.980   8.659
 1729POPC   C2B24476   4.873   0.018   8.310
 1729POPC   C3B24477   4.994   0.182   7.909
 1729POPC   C4B24478   4.889   0.211   7.473
 1730POPC   NC324479  38.108  25.701   9.439
 1730POPC   PO424480  38.422  26.328   9.666
 1730POPC   GL124481  38.404  26.184   9.236
 1730POPC   GL224482  38.402  25.826   9.050
 1730POPC   C1A24483  38.650  26.272   8.896
 1730POPC   D2A24484  38.692  26.028   8.541
 1730POPC   C3A24485  38.582  26.173   8.134
 1730POPC   C4A24486  38.618  26.247   7.710
 1730POPC   C1B24487  38.166  26.037   8.768
 1730POPC   C2B24488  38.055  26.024   8.332
 1730POPC   C3B24489  38.101  26.260   7.973
 1730POPC   C4B24490  38.116  26.067   7.616
 1731POPC   NC324491  15.886  39.152   9.945
 1731POPC   PO424492  16.145  39.540   9.495
 1731POPC   GL124493  16.033  39.266   9.176
 1731POPC   GL224494  15.719  39.064   9.240
 1731POPC   C1A24495  16.158  39.356   8.731
 1731POPC   D2A24496  16.062  39.564   8.337
 1731POPC   C3A24497  15.990  39.351   7.945
 1731POPC   C4A24498  15.742  39.396   7.581
 1731POPC   C1B24499  15.842  38.970   8.812
 1731POPC   C2B24500  15.918  39.040   8.381
 1731POPC   C3B24501  15.890  38.822   8.000
 1731POPC   C4B24502  16.027  38.964   7.586
 1732POPC   NC324503  14.082  18.285   9.520
 1732POPC   PO424504  14.665  18.604   9.643
 1732POPC   GL124505  14.506  18.416   9.229
 1732POPC   GL224506  14.353  18.106   9.082
 1732POPC   C1A24507  14.238  18.535   8.854
 1732POPC   D2A24508  14.286  18.648   8.429
 1732POPC   C3A24509  14.286  18.363   8.066
 1732POPC   C4A24510  14.488  18.245   7.732
 1732POPC   C1B24511  14.562  17.858   8.761
 1732POPC   C2B24512  14.475  17.988   8.354
 1732POPC   C3B24513  14.275  17.859   7.975
 1732POPC   C4B24514  14.501  17.648   7.681
 1733POPC   NC324515  44.731   9.454   9.275
 1733POPC   PO424516  44.566   8.806   9.547
 1733POPC   GL124517  44.511   8.962   9.165
 1733POPC   GL224518  44.853   8.883   9.113
 1733POPC   C1A24519  44.360   9.168   8.792
 1733POPC   D2A24520  44.614   9.378   8.487
 1733POPC   C3A24521  44.550   9.195   8.094
 1733POPC   C4A24522  44.721   9.140   7.695
 1733POPC   C1B24523  44.750   8.649   8.806
 1733POPC   C2B24524  44.682   8.808   8.418
 1733POPC   C3B24525  44.904   8.802   8.036
 1733POPC   C4B24526  44.840   8.595   7.690
 1734POPC   NC324527  18.093   1.273   9.845
 1734POPC   PO424528  17.425   1.109   9.575
 1734POPC   GL124529  17.479   1.393   9.195
 1734POPC   GL224530  17.512   1.110   9.017
 1734POPC   C1A24531  17.625   1.550   8.736
 1734POPC   D2A24532  17.667   1.806   8.341
 1734POPC   C3A24533  17.534   1.633   7.941
 1734POPC   C4A24534  17.552   1.590   7.469
 1734POPC   C1B24535  17.406   1.036   8.611
 1734POPC   C2B24536  17.586   1.251   8.295
 1734POPC   C3B24537  17.568   1.126   7.916
 1734POPC   C4B24538  17.241   0.872   7.740
 1735POPC   NC324539  10.347  33.987   9.639
 1735POPC   PO424540  10.833  33.844   9.182
 1735POPC   GL124541  10.475  33.931   8.931
 1735POPC   GL224542  10.167  33.973   9.146
 1735POPC   C1A24543  10.625  33.922   8.510
 1735POPC   D2A24544  10.810  33.619   8.238
 1735POPC   C3A24545  10.524  33.765   7.958
 1735POPC   C4A24546  10.604  34.145   7.717
 1735POPC   C1B24547   9.972  33.978   8.724
 1735POPC   C2B24548  10.084  33.956   8.278
 1735POPC   C3B24549  10.097  34.010   7.819
 1735POPC   C4B24550  10.089  33.959   7.323
 1736POPC   NC324551  27.184  42.163   9.737
 1736POPC   PO424552  26.905  42.721   9.939
 1736POPC   GL124553  26.925  42.526   9.461
 1736POPC   GL224554  27.266  42.450   9.304
 1736POPC   C1A24555  26.875  42.444   8.968
 1736POPC   D2A24556  26.867  42.534   8.511
 1736POPC   C3A24557  26.630  42.397   8.166
 1736POPC   C4A24558  26.796  42.499   7.773
 1736POPC   C1B24559  27.177  42.048   9.037
 1736POPC   C2B24560  27.112  42.067   8.561
 1736POPC   C3B24561  27.089  42.144   8.103
 1736POPC   C4B24562  26.940  42.021   7.686
 1737POPC   NC324563  44.397  34.593   9.365
 1737POPC   PO424564  43.746  34.817   9.384
 1737POPC   GL124565  43.685  34.569   9.015
 1737POPC   GL224566  43.998  34.466   9.079
 1737POPC   C1A24567  43.725  34.456   8.628
 1737POPC   D2A24568  44.062  34.725   8.459
 1737POPC   C3A24569  44.036  34.746   8.021
 1737POPC   C4A24570  43.896  34.381   7.804
 1737POPC   C1B24571  44.176  34.238   8.736
 1737POPC   C2B24572  44.377  34.142   8.313
 1737POPC   C3B24573  44.407  34.390   7.927
 1737POPC   C4B24574  44.286  34.377   7.486
 1738POPC   NC324575  42.562  20.681   9.723
 1738POPC   PO424576  42.792  20.072   9.555
 1738POPC   GL124577  42.763  20.493   9.273
 1738POPC   GL224578  42.526  20.811   9.236
 1738POPC   C1A24579  42.610  20.544   8.827
 1738POPC   D2A24580  42.425  20.531   8.435
 1738POPC   C3A24581  42.596  20.289   8.114
 1738POPC   C4A24582  42.417  20.356   7.723
 1738POPC   C1B24583  42.370  21.031   8.838
 1738POPC   C2B24584  42.239  21.006   8.411
 1738POPC   C3B24585  42.393  20.829   8.019
 1738POPC   C4B24586  42.134  20.842   7.681
 1739POPC   NC324587  42.715   5.495   9.804
 1739POPC   PO424588  43.086   5.047   9.522
 1739POPC   GL124589  43.206   5.013   9.153
 1739POPC   GL224590  43.510   4.842   9.222
 1739POPC   C1A24591  43.100   5.259   8.809
 1739POPC   D2A24592  42.835   5.178   8.486
 1739POPC   C3A24593  42.884   5.418   8.144
 1739POPC   C4A24594  42.926   5.335   7.715
 1739POPC   C1B24595  43.567   5.033   8.800
 1739POPC   C2B24596  43.362   5.059   8.426
 1739POPC   C3B24597  43.323   5.185   8.046
 1739POPC   C4B24598  43.362   5.038   7.671
 1740POPC   NC324599  15.369   3.000   9.393
 1740POPC   PO424600  15.121   2.399   9.607
 1740POPC   GL124601  15.058   2.541   9.182
 1740POPC   GL224602  15.091   2.206   9.096
 1740POPC   C1A24603  15.096   2.790   8.784
 1740POPC   D2A24604  15.056   3.086   8.422
 1740POPC   C3A24605  15.164   2.968   8.003
 1740POPC   C4A24606  14.972   2.764   7.640
 1740POPC   C1B24607  15.276   2.297   8.695
 1740POPC   C2B24608  15.216   2.518   8.313
 1740POPC   C3B24609  15.424   2.544   7.921
 1740POPC   C4B24610  15.617   2.526   7.515
 1741POPC   NC324611   7.197  24.263   9.342
 1741POPC   PO424612   7.738  24.568   9.468
 1741POPC   GL124613   7.607  24.507   9.071
 1741POPC   GL224614   7.556  24.156   8.983
 1741POPC   C1A24615   7.581  24.627   8.648
 1741POPC   D2A24616   7.370  24.541   8.275
 1741POPC   C3A24617   7.629  24.685   7.978
 1741POPC   C4A24618   7.895  24.454   7.769
 1741POPC   C1B24619   7.177  24.305   8.706
 1741POPC   C2B24620   7.056  24.104   8.302
 1741POPC   C3B24621   7.087  24.289   7.914
 1741POPC   C4B24622   7.149  24.722   7.824
 1742POPC   NC324623  34.792  12.926   9.600
 1742POPC   PO424624  34.283  13.340   9.585
 1742POPC   GL124625  34.197  13.098   9.212
 1742POPC   GL224626  34.312  12.758   9.301
 1742POPC   C1A24627  34.326  13.162   8.779
 1742POPC   D2A24628  34.634  13.374   8.521
 1742POPC   C3A24629  34.607  13.328   8.049
 1742POPC   C4A24630  34.454  12.999   7.760
 1742POPC   C1B24631  34.339  12.661   8.844
 1742POPC   C2B24632  34.411  12.758   8.405
 1742POPC   C3B24633  34.341  12.575   8.009
 1742POPC   C4B24634  34.207  12.569   7.562
 1743POPC   NC324635  33.033  19.807   9.428
 1743POPC   PO424636  32.746  19.197   9.245
 1743POPC   GL124637  32.962  19.502   9.009
 1743POPC   GL224638  33.316  19.630   9.055
 1743POPC   C1A24639  33.034  19.712   8.636
 1743POPC   D2A24640  32.791  20.050   8.477
 1743POPC   C3A24641  32.568  20.012   8.103
 1743POPC   C4A24642  32.757  20.150   7.756
 1743POPC   C1B24643  33.354  20.056   8.852
 1743POPC   C2B24644  33.373  20.080   8.458
 1743POPC   C3B24645  33.223  19.814   8.147
 1743POPC   C4B24646  33.215  19.881   7.725
 1744POPC   NC324647  31.120  40.818   9.622
 1744POPC   PO424648  31.851  40.808   9.523
 1744POPC   GL124649  31.562  40.794   9.199
 1744POPC   GL224650  31.453  41.154   9.203
 1744POPC   C1A24651  31.238  40.837   8.869
 1744POPC   D2A24652  31.156  41.124   8.481
 1744POPC   C3A24653  31.324  41.014   8.022
 1744POPC   C4A24654  31.315  40.974   7.551
 1744POPC   C1B24655  31.663  41.078   8.773
 1744POPC   C2B24656  31.559  40.795   8.433
 1744POPC   C3B24657  31.771  40.554   8.103
 1744POPC   C4B24658  31.398  40.530   7.864
 1745POPC   NC324659  12.672  28.568   9.562
 1745POPC   PO424660  13.127  28.082   9.576
 1745POPC   GL124661  12.970  28.328   9.213
 1745POPC   GL224662  13.063  28.679   9.227
 1745POPC   C1A24663  12.658  28.399   8.853
 1745POPC   D2A24664  12.623  28.406   8.377
 1745POPC   C3A24665  12.659  28.233   7.933
 1745POPC   C4A24666  12.539  28.493   7.581
 1745POPC   C1B24667  13.135  28.593   8.812
 1745POPC   C2B24668  13.095  28.602   8.398
 1745POPC   C3B24669  13.146  28.356   8.069
 1745POPC   C4B24670  13.168  28.586   7.749
 1746POPC   NC324671  33.623  32.143   9.519
 1746POPC   PO424672  33.771  32.783   9.439
 1746POPC   GL124673  33.607  32.425   9.089
 1746POPC   GL224674  33.462  32.053   9.063
 1746POPC   C1A24675  33.501  32.402   8.629
 1746POPC   D2A24676  33.740  32.514   8.220
 1746POPC   C3A24677  33.931  32.233   7.859
 1746POPC   C4A24678  34.166  32.388   7.470
 1746POPC   C1B24679  33.722  31.923   8.719
 1746POPC   C2B24680  33.744  32.000   8.287
 1746POPC   C3B24681  33.642  31.795   7.915
 1746POPC   C4B24682  33.723  31.807   7.479
 1747POPC   NC324683  29.787  39.758   9.647
 1747POPC   PO424684  30.153  40.303   9.410
 1747POPC   GL124685  30.010  39.975   9.069
 1747POPC   GL224686  29.700  39.876   9.007
 1747POPC   C1A24687  30.073  39.942   8.632
 1747POPC   D2A24688  30.157  40.208   8.264
 1747POPC   C3A24689  30.016  40.069   7.870
 1747POPC   C4A24690  29.957  39.726   7.589
 1747POPC   C1B24691  29.661  39.634   8.641
 1747POPC   C2B24692  29.760  39.806   8.248
 1747POPC   C3B24693  29.527  39.924   7.927
 1747POPC   C4B24694  29.433  39.679   7.606
 1748POPC   NC324695  22.300  24.502   9.365
 1748POPC   PO424696  21.726  24.685   9.529
 1748POPC   GL124697  21.929  24.750   9.131
 1748POPC   GL224698  21.901  25.108   9.137
 1748POPC   C1A24699  22.212  24.572   8.740
 1748POPC   D2A24700  22.299  24.372   8.333
 1748POPC   C3A24701  22.303  24.560   7.901
 1748POPC   C4A24702  22.321  24.330   7.483
 1748POPC   C1B24703  21.849  24.946   8.687
 1748POPC   C2B24704  22.099  24.864   8.325
 1748POPC   C3B24705  21.980  25.030   7.953
 1748POPC   C4B24706  21.590  24.908   7.778
 1749POPC   NC324707  25.377  40.659   9.605
 1749POPC   PO424708  24.929  41.160   9.568
 1749POPC   GL124709  25.151  40.914   9.219
 1749POPC   GL224710  25.529  40.954   9.237
 1749POPC   C1A24711  25.282  40.721   8.833
 1749POPC   D2A24712  25.193  40.959   8.480
 1749POPC   C3A24713  25.114  40.739   8.136
 1749POPC   C4A24714  25.340  40.604   7.810
 1749POPC   C1B24715  25.541  41.142   8.880
 1749POPC   C2B24716  25.680  41.091   8.469
 1749POPC   C3B24717  25.519  41.032   8.061
 1749POPC   C4B24718  25.684  40.983   7.662
 1750POPC   NC324719   9.131  40.701   9.505
 1750POPC   PO424720   8.648  41.120   9.576
 1750POPC   GL124721   8.852  40.967   9.189
 1750POPC   GL224722   8.586  40.757   9.125
 1750POPC   C1A24723   9.019  40.988   8.767
 1750POPC   D2A24724   9.209  40.752   8.415
 1750POPC   C3A24725   9.158  40.949   8.001
 1750POPC   C4A24726   9.034  40.722   7.653
 1750POPC   C1B24727   8.778  40.493   8.820
 1750POPC   C2B24728   8.627  40.423   8.421
 1750POPC   C3B24729   8.758  40.544   8.045
 1750POPC   C4B24730   8.695  40.331   7.691
 1751POPC   NC324731  17.481  20.304   9.482
 1751POPC   PO424732  17.048  20.746   9.490
 1751POPC   GL124733  17.322  20.822   9.133
 1751POPC   GL224734  17.499  20.534   9.038
 1751POPC   C1A24735  17.366  20.846   8.674
 1751POPC   D2A24736  17.457  20.560   8.356
 1751POPC   C3A24737  17.212  20.603   8.014
 1751POPC   C4A24738  17.271  20.536   7.601
 1751POPC   C1B24739  17.793  20.406   8.710
 1751POPC   C2B24740  17.991  20.574   8.349
 1751POPC   C3B24741  17.781  20.688   7.949
 1751POPC   C4B24742  17.844  20.468   7.562
 1752POPC   NC324743  36.363   3.663   9.683
 1752POPC   PO424744  35.947   3.181   9.772
 1752POPC   GL124745  35.987   3.656   9.356
 1752POPC   GL224746  36.333   3.659   9.156
 1752POPC   C1A24747  35.911   3.816   8.931
 1752POPC   D2A24748  36.150   3.759   8.558
 1752POPC   C3A24749  36.034   3.805   8.150
 1752POPC   C4A24750  35.871   3.688   7.773
 1752POPC   C1B24751  36.414   3.388   8.759
 1752POPC   C2B24752  36.252   3.249   8.377
 1752POPC   C3B24753  36.281   3.401   7.964
 1752POPC   C4B24754  36.140   3.278   7.589
 1753POPC   NC324755  32.848  20.828   9.520
 1753POPC   PO424756  32.735  20.187   9.379
 1753POPC   GL124757  32.838  20.530   9.107
 1753POPC   GL224758  32.521  20.717   9.149
 1753POPC   C1A24759  33.269  20.585   8.946
 1753POPC   D2A24760  33.398  20.606   8.522
 1753POPC   C3A24761  33.089  20.398   8.210
 1753POPC   C4A24762  33.181  20.431   7.794
 1753POPC   C1B24763  32.537  20.764   8.727
 1753POPC   C2B24764  32.555  20.542   8.324
 1753POPC   C3B24765  32.746  20.691   7.957
 1753POPC   C4B24766  32.801  20.610   7.503
 1754POPC   NC324767  44.207  14.605   9.799
 1754POPC   PO424768  43.666  14.244   9.480
 1754POPC   GL124769  43.692  14.382   9.042
 1754POPC   GL224770  43.649  14.710   9.028
 1754POPC   C1A24771  44.005  14.523   8.714
 1754POPC   D2A24772  44.351  14.329   8.486
 1754POPC   C3A24773  44.168  14.309   8.093
 1754POPC   C4A24774  43.998  14.404   7.726
 1754POPC   C1B24775  43.433  14.665   8.682
 1754POPC   C2B24776  43.664  14.618   8.319
 1754POPC   C3B24777  43.548  14.710   7.924
 1754POPC   C4B24778  43.464  14.331   7.734
 1755POPC   NC324779  14.844   2.007   9.580
 1755POPC   PO424780  15.474   1.671   9.623
 1755POPC   GL124781  15.353   1.777   9.236
 1755POPC   GL224782  15.010   1.717   9.216
 1755POPC   C1A24783  15.310   1.777   8.784
 1755POPC   D2A24784  15.398   1.707   8.348
 1755POPC   C3A24785  15.304   2.039   8.054
 1755POPC   C4A24786  15.598   2.064   7.712
 1755POPC   C1B24787  14.810   1.797   8.869
 1755POPC   C2B24788  14.915   1.822   8.463
 1755POPC   C3B24789  14.965   1.621   8.062
 1755POPC   C4B24790  14.914   1.894   7.721
 1756POPC   NC324791  15.616  34.242   9.576
 1756POPC   PO424792  15.796  33.584   9.594
 1756POPC   GL124793  16.020  33.634   9.222
 1756POPC   GL224794  15.765  33.868   9.134
 1756POPC   C1A24795  16.006  33.446   8.802
 1756POPC   D2A24796  16.194  33.379   8.394
 1756POPC   C3A24797  15.912  33.490   8.073
 1756POPC   C4A24798  15.835  33.799   7.768
 1756POPC   C1B24799  15.786  34.069   8.729
 1756POPC   C2B24800  15.735  33.971   8.269
 1756POPC   C3B24801  15.706  34.258   7.917
 1756POPC   C4B24802  15.755  34.224   7.452
 1757POPC   NC324803  33.539  31.286   9.468
 1757POPC   PO424804  33.912  31.793   9.416
 1757POPC   GL124805  33.781  31.529   9.102
 1757POPC   GL224806  33.922  31.180   9.064
 1757POPC   C1A24807  33.604  31.427   8.727
 1757POPC   D2A24808  33.474  31.552   8.356
 1757POPC   C3A24809  33.713  31.310   8.052
 1757POPC   C4A24810  33.558  31.357   7.670
 1757POPC   C1B24811  34.124  31.464   8.747
 1757POPC   C2B24812  33.999  31.570   8.365
 1757POPC   C3B24813  34.139  31.681   7.952
 1757POPC   C4B24814  34.044  31.440   7.583
 1758POPC   NC324815  20.809  26.531   9.513
 1758POPC   PO424816  20.385  27.086   9.614
 1758POPC   GL124817  20.408  26.834   9.208
 1758POPC   GL224818  20.773  26.814   9.099
 1758POPC   C1A24819  20.326  26.709   8.755
 1758POPC   D2A24820  20.583  26.832   8.391
 1758POPC   C3A24821  20.412  26.860   7.984
 1758POPC   C4A24822  20.464  26.771   7.537
 1758POPC   C1B24823  20.806  26.548   8.763
 1758POPC   C2B24824  20.941  26.470   8.350
 1758POPC   C3B24825  20.763  26.477   7.943
 1758POPC   C4B24826  20.927  26.513   7.522
 1759POPC   NC324827  29.682  36.188   9.570
 1759POPC   PO424828  30.253  35.883   9.481
 1759POPC   GL124829  30.004  36.095   9.188
 1759POPC   GL224830  30.260  36.034   8.972
 1759POPC   C1A24831  29.792  36.268   8.828
 1759POPC   D2A24832  29.933  36.295   8.413
 1759POPC   C3A24833  29.673  36.369   8.070
 1759POPC   C4A24834  29.804  36.160   7.710
 1759POPC   C1B24835  30.276  36.433   8.757
 1759POPC   C2B24836  30.367  36.602   8.318
 1759POPC   C3B24837  30.162  36.553   7.904
 1759POPC   C4B24838  30.183  36.461   7.438
 1760POPC   NC324839  14.572   6.283   9.589
 1760POPC   PO424840  14.602   6.939   9.530
 1760POPC   GL124841  14.308   6.695   9.234
 1760POPC   GL224842  14.374   6.344   9.121
 1760POPC   C1A24843  14.304   6.700   8.769
 1760POPC   D2A24844  14.436   6.894   8.369
 1760POPC   C3A24845  14.339   6.711   7.946
 1760POPC   C4A24846  14.062   6.377   7.827
 1760POPC   C1B24847  14.516   6.219   8.743
 1760POPC   C2B24848  14.385   6.369   8.370
 1760POPC   C3B24849  14.502   6.228   8.028
 1760POPC   C4B24850  14.718   6.407   7.749
 1761POPC   NC324851   1.648  41.226   9.724
 1761POPC   PO424852   1.981  41.771   9.447
 1761POPC   GL124853   1.872  41.392   9.206
 1761POPC   GL224854   1.952  41.638   8.952
 1761POPC   C1A24855   1.866  41.198   8.767
 1761POPC   D2A24856   1.962  41.497   8.445
 1761POPC   C3A24857   1.923  41.269   8.092
 1761POPC   C4A24858   1.892  41.152   7.695
 1761POPC   C1B24859   2.246  41.892   8.716
 1761POPC   C2B24860   2.340  42.050   8.330
 1761POPC   C3B24861   2.065  41.899   8.058
 1761POPC   C4B24862   2.017  41.646   7.751
 1762POPC   NC324863  39.929  12.604   9.556
 1762POPC   PO424864  39.917  13.255   9.324
 1762POPC   GL124865  39.976  12.869   9.088
 1762POPC   GL224866  40.244  12.610   9.075
 1762POPC   C1A24867  39.963  12.822   8.622
 1762POPC   D2A24868  40.037  13.174   8.370
 1762POPC   C3A24869  39.788  13.216   8.047
 1762POPC   C4A24870  39.791  12.916   7.726
 1762POPC   C1B24871  40.411  12.901   8.816
 1762POPC   C2B24872  40.467  12.918   8.437
 1762POPC   C3B24873  40.240  12.804   8.074
 1762POPC   C4B24874  40.290  12.782   7.664
 1763POPC   NC324875  14.959  24.453   9.550
 1763POPC   PO424876  15.509  24.139   9.453
 1763POPC   GL124877  15.293  24.346   9.138
 1763POPC   GL224878  15.456  24.625   9.138
 1763POPC   C1A24879  15.227  24.407   8.694
 1763POPC   D2A24880  15.417  24.297   8.320
 1763POPC   C3A24881  15.230  24.245   7.880
 1763POPC   C4A24882  14.863  24.431   7.735
 1763POPC   C1B24883  15.120  24.851   8.925
 1763POPC   C2B24884  15.150  24.955   8.485
 1763POPC   C3B24885  15.156  24.717   8.112
 1763POPC   C4B24886  15.259  24.778   7.706
 1764POPC   NC324887  25.235   2.190   9.469
 1764POPC   PO424888  24.788   1.692   9.434
 1764POPC   GL124889  25.030   1.890   9.118
 1764POPC   GL224890  25.391   1.784   9.212
 1764POPC   C1A24891  25.127   2.214   8.785
 1764POPC   D2A24892  25.275   2.008   8.419
 1764POPC   C3A24893  25.037   2.006   8.053
 1764POPC   C4A24894  25.000   2.009   7.607
 1764POPC   C1B24895  25.593   2.071   8.917
 1764POPC   C2B24896  25.668   2.316   8.549
 1764POPC   C3B24897  25.686   2.145   8.143
 1764POPC   C4B24898  25.479   1.969   7.776
 1765POPC   NC324899  21.272  25.912   9.618
 1765POPC   PO424900  21.844  26.236   9.448
 1765POPC   GL124901  21.423  26.319   9.235
 1765POPC   GL224902  21.284  25.998   9.124
 1765POPC   C1A24903  21.291  26.383   8.789
 1765POPC   D2A24904  21.376  26.199   8.379
 1765POPC   C3A24905  21.296  26.397   7.974
 1765POPC   C4A24906  21.415  26.267   7.579
 1765POPC   C1B24907  21.297  25.761   8.766
 1765POPC   C2B24908  21.231  25.713   8.335
 1765POPC   C3B24909  21.334  25.855   7.929
 1765POPC   C4B24910  21.231  25.814   7.461
 1766POPC   NC324911  30.012  21.042   9.557
 1766POPC   PO424912  29.793  20.377   9.796
 1766POPC   GL124913  29.978  20.475   9.268
 1766POPC   GL224914  30.073  20.793   9.125
 1766POPC   C1A24915  29.726  20.626   8.792
 1766POPC   D2A24916  29.811  20.813   8.401
 1766POPC   C3A24917  29.593  20.736   8.009
 1766POPC   C4A24918  29.790  20.837   7.628
 1766POPC   C1B24919  30.217  20.497   8.795
 1766POPC   C2B24920  30.104  20.384   8.361
 1766POPC   C3B24921  30.082  20.577   7.955
 1766POPC   C4B24922  30.105  20.419   7.499
 1767POPC   NC324923  13.805  14.211   9.468
 1767POPC   PO424924  13.394  14.811   9.495
 1767POPC   GL124925  13.557  14.539   9.148
 1767POPC   GL224926  13.425  14.197   9.116
 1767POPC   C1A24927  13.806  14.447   8.737
 1767POPC   D2A24928  13.819  14.238   8.296
 1767POPC   C3A24929  13.883  14.569   7.967
 1767POPC   C4A24930  13.810  14.617   7.527
 1767POPC   C1B24931  13.561  14.008   8.716
 1767POPC   C2B24932  13.403  13.909   8.330
 1767POPC   C3B24933  13.421  14.015   7.912
 1767POPC   C4B24934  13.577  14.139   7.495
 1768POPC   NC324935  37.053  37.276   9.383
 1768POPC   PO424936  36.791  36.612   9.331
 1768POPC   GL124937  37.130  36.728   9.046
 1768POPC   GL224938  37.064  37.028   8.958
 1768POPC   C1A24939  37.096  36.723   8.561
 1768POPC   D2A24940  36.733  36.523   8.374
 1768POPC   C3A24941  36.740  36.444   7.948
 1768POPC   C4A24942  37.010  36.556   7.601
 1768POPC   C1B24943  36.703  37.084   8.694
 1768POPC   C2B24944  36.664  37.034   8.286
 1768POPC   C3B24945  36.983  36.884   8.055
 1768POPC   C4B24946  36.894  37.037   7.717
 1769POPC   NC324947  25.855  40.405   9.933
 1769POPC   PO424948  26.370  40.262   9.523
 1769POPC   GL124949  26.246  40.111   9.118
 1769POPC   GL224950  25.933  40.252   9.020
 1769POPC   C1A24951  26.366  40.265   8.728
 1769POPC   D2A24952  26.055  40.401   8.459
 1769POPC   C3A24953  25.919  40.089   8.192
 1769POPC   C4A24954  26.007  40.054   7.771
 1769POPC   C1B24955  25.929  39.957   8.695
 1769POPC   C2B24956  26.140  39.679   8.427
 1769POPC   C3B24957  26.262  39.654   7.992
 1769POPC   C4B24958  26.412  39.802   7.592
 1770POPC   NC324959  16.440   4.434   9.438
 1770POPC   PO424960  17.033   4.546   9.170
 1770POPC   GL124961  16.779   4.159   9.037
 1770POPC   GL224962  17.080   3.946   9.089
 1770POPC   C1A24963  16.472   4.179   8.699
 1770POPC   D2A24964  16.540   4.525   8.411
 1770POPC   C3A24965  16.446   4.404   7.986
 1770POPC   C4A24966  16.603   4.496   7.600
 1770POPC   C1B24967  17.001   3.882   8.640
 1770POPC   C2B24968  16.804   4.101   8.285
 1770POPC   C3B24969  16.869   4.101   7.830
 1770POPC   C4B24970  17.074   3.994   7.411
 1771POPC   NC324971  16.984  34.790   9.712
 1771POPC   PO424972  16.577  34.207   9.542
 1771POPC   GL124973  16.777  34.385   9.172
 1771POPC   GL224974  16.991  34.158   9.056
 1771POPC   C1A24975  16.810  34.613   8.772
 1771POPC   D2A24976  16.792  34.824   8.384
 1771POPC   C3A24977  16.742  34.626   8.000
 1771POPC   C4A24978  16.392  34.802   7.794
 1771POPC   C1B24979  16.771  34.104   8.688
 1771POPC   C2B24980  16.694  34.168   8.265
 1771POPC   C3B24981  16.674  34.145   7.847
 1771POPC   C4B24982  16.985  34.333   7.610
 1772POPC   NC324983  41.096  32.202   9.601
 1772POPC   PO424984  40.605  31.885   9.379
 1772POPC   GL124985  40.724  32.072   9.003
 1772POPC   GL224986  41.076  32.068   9.075
 1772POPC   C1A24987  40.524  32.363   8.681
 1772POPC   D2A24988  40.716  32.556   8.328
 1772POPC   C3A24989  40.810  32.231   8.042
 1772POPC   C4A24990  40.698  32.080   7.664
 1772POPC   C1B24991  41.187  32.391   8.793
 1772POPC   C2B24992  41.270  32.368   8.367
 1772POPC   C3B24993  41.160  32.605   8.049
 1772POPC   C4B24994  40.851  32.609   7.718
 1773POPC   NC324995  27.226  10.199   9.367
 1773POPC   PO424996  27.663  10.795   9.508
 1773POPC   GL124997  27.627  10.515   9.161
 1773POPC   GL224998  27.312  10.666   9.131
 1773POPC   C1A24999  27.783  10.230   8.809
 1773POPC   D2A25000  27.698  10.220   8.333
 1773POPC   C3A25001  27.633  10.504   7.969
 1773POPC   C4A25002  27.798  10.637   7.554
 1773POPC   C1B25003  27.325  10.450   8.735
 1773POPC   C2B25004  27.327  10.654   8.361
 1773POPC   C3B25005  27.276  10.864   8.007
 1773POPC   C4B25006  27.285  10.658   7.611
 1774POPC   NC325007  40.411  16.551   9.506
 1774POPC   PO425008  40.892  17.060   9.581
 1774POPC   GL125009  40.912  16.792   9.216
 1774POPC   GL225010  41.185  16.960   9.046
 1774POPC   C1A25011  40.660  16.586   8.852
 1774POPC   D2A25012  40.472  16.733   8.450
 1774POPC   C3A25013  40.397  16.553   8.053
 1774POPC   C4A25014  40.591  16.734   7.701
 1774POPC   C1B25015  41.168  16.536   8.846
 1774POPC   C2B25016  40.980  16.451   8.455
 1774POPC   C3B25017  40.903  16.748   8.139
 1774POPC   C4B25018  41.086  16.652   7.767
 1775POPC   NC325019  29.623   4.165   9.470
 1775POPC   PO425020  28.915   4.050   9.344
 1775POPC   GL125021  29.174   4.394   9.195
 1775POPC   GL225022  29.358   4.151   9.019
 1775POPC   C1A25023  29.111   4.533   8.761
 1775POPC   D2A25024  29.001   4.319   8.352
 1775POPC   C3A25025  29.224   4.408   7.961
 1775POPC   C4A25026  29.161   4.664   7.605
 1775POPC   C1B25027  29.109   3.894   8.717
 1775POPC   C2B25028  28.970   3.778   8.283
 1775POPC   C3B25029  28.885   4.023   7.912
 1775POPC   C4B25030  29.060   4.173   7.485
 1776POPC   NC325031  41.314  39.736   9.373
 1776POPC   PO425032  41.960  39.691   9.644
 1776POPC   GL125033  41.903  39.929   9.233
 1776POPC   GL225034  41.632  40.198   9.234
 1776POPC   C1A25035  41.817  39.905   8.775
 1776POPC   D2A25036  41.684  39.734   8.375
 1776POPC   C3A25037  41.805  39.977   8.007
 1776POPC   C4A25038  41.904  39.757   7.604
 1776POPC   C1B25039  41.377  40.109   8.838
 1776POPC   C2B25040  41.416  40.185   8.397
 1776POPC   C3B25041  41.320  40.106   7.946
 1776POPC   C4B25042  41.434  39.694   7.819
 1777POPC   NC325043  13.842  20.827   9.483
 1777POPC   PO425044  13.409  20.322   9.470
 1777POPC   GL125045  13.481  20.628   9.167
 1777POPC   GL225046  13.817  20.527   9.040
 1777POPC   C1A25047  13.505  20.790   8.760
 1777POPC   D2A25048  13.679  20.685   8.358
 1777POPC   C3A25049  13.401  20.973   8.148
 1777POPC   C4A25050  13.344  21.079   7.737
 1777POPC   C1B25051  14.056  20.335   8.701
 1777POPC   C2B25052  14.001  20.281   8.253
 1777POPC   C3B25053  13.928  20.493   7.920
 1777POPC   C4B25054  13.528  20.593   7.819
 1778POPC   NC325055   1.469  18.779   9.368
 1778POPC   PO425056   0.862  19.027   9.619
 1778POPC   GL125057   1.008  19.004   9.194
 1778POPC   GL225058   1.100  19.349   9.119
 1778POPC   C1A25059   1.026  18.763   8.801
 1778POPC   D2A25060   1.268  18.749   8.419
 1778POPC   C3A25061   1.106  18.830   7.982
 1778POPC   C4A25062   1.367  18.806   7.557
 1778POPC   C1B25063   1.214  19.220   8.717
 1778POPC   C2B25064   1.480  19.227   8.372
 1778POPC   C3B25065   1.416  19.216   7.957
 1778POPC   C4B25066   1.097  19.209   7.639
 1779POPC   NC325067   2.414  40.721   9.331
 1779POPC   PO425068   1.675  40.819   9.506
 1779POPC   GL125069   1.960  40.861   9.140
 1779POPC   GL225070   2.011  40.512   9.059
 1779POPC   C1A25071   2.229  40.835   8.713
 1779POPC   D2A25072   2.305  40.993   8.286
 1779POPC   C3A25073   2.056  40.758   7.967
 1779POPC   C4A25074   2.138  40.716   7.507
 1779POPC   C1B25075   1.728  40.674   8.728
 1779POPC   C2B25076   1.659  40.785   8.310
 1779POPC   C3B25077   1.582  40.559   7.942
 1779POPC   C4B25078   1.657  40.718   7.583
 1780POPC   NC325079  21.260  18.513   9.391
 1780POPC   PO425080  21.783  18.122   9.339
 1780POPC   GL125081  21.498  18.207   9.013
 1780POPC   GL225082  21.491  18.558   8.947
 1780POPC   C1A25083  21.351  18.231   8.572
 1780POPC   D2A25084  21.003  18.140   8.321
 1780POPC   C3A25085  21.210  18.005   7.953
 1780POPC   C4A25086  21.620  18.180   7.804
 1780POPC   C1B25087  21.042  18.578   8.778
 1780POPC   C2B25088  21.009  18.673   8.345
 1780POPC   C3B25089  21.311  18.511   8.068
 1780POPC   C4B25090  21.477  18.675   7.691
 1781POPC   NC325091   8.749  15.898   9.807
 1781POPC   PO425092   8.209  16.160   9.313
 1781POPC   GL125093   8.046  15.950   9.089
 1781POPC   GL225094   7.774  16.169   9.038
 1781POPC   C1A25095   8.269  15.769   8.752
 1781POPC   D2A25096   8.385  15.996   8.387
 1781POPC   C3A25097   8.269  15.810   7.999
 1781POPC   C4A25098   8.307  15.931   7.588
 1781POPC   C1B25099   7.993  16.204   8.664
 1781POPC   C2B25100   7.998  16.415   8.326
 1781POPC   C3B25101   7.929  16.188   8.001
 1781POPC   C4B25102   7.935  16.289   7.612
 1782POPC   NC325103  39.485  21.211   9.523
 1782POPC   PO425104  39.051  21.697   9.762
 1782POPC   GL125105  39.305  21.648   9.270
 1782POPC   GL225106  39.628  21.674   9.074
 1782POPC   C1A25107  39.261  21.453   8.806
 1782POPC   D2A25108  39.027  21.567   8.432
 1782POPC   C3A25109  39.146  21.352   8.075
 1782POPC   C4A25110  39.094  21.369   7.647
 1782POPC   C1B25111  39.662  21.742   8.643
 1782POPC   C2B25112  39.578  21.526   8.298
 1782POPC   C3B25113  39.505  21.650   7.883
 1782POPC   C4B25114  39.603  21.359   7.610
 1783POPC   NC325115  35.648  43.541   9.401
 1783POPC   PO425116  35.080  43.932   9.501
 1783POPC   GL125117  35.261  43.785   9.163
 1783POPC   GL225118  35.529  44.035   9.298
 1783POPC   C1A25119  35.349  43.597   8.740
 1783POPC   D2A25120  35.203  43.724   8.322
 1783POPC   C3A25121  35.393  43.679   7.939
 1783POPC   C4A25122  35.204  43.865   7.605
 1783POPC   C1B25123  35.548  44.069   8.873
 1783POPC   C2B25124  35.585  44.028   8.452
 1783POPC   C3B25125  35.516  44.194   8.059
 1783POPC   C4B25126  35.665  44.074   7.663
 1784POPC   NC325127   4.935   8.953   9.454
 1784POPC   PO425128   5.542   8.651   9.674
 1784POPC   GL125129   5.399   8.613   9.224
 1784POPC   GL225130   5.362   8.968   9.139
 1784POPC   C1A25131   5.155   8.611   8.827
 1784POPC   D2A25132   4.929   8.865   8.551
 1784POPC   C3A25133   4.979   8.737   8.153
 1784POPC   C4A25134   5.206   8.976   7.861
 1784POPC   C1B25135   5.364   9.208   8.742
 1784POPC   C2B25136   5.287   9.349   8.315
 1784POPC   C3B25137   5.329   9.468   7.897
 1784POPC   C4B25138   5.089   9.333   7.528
 1785POPC   NC325139  43.880  32.978   9.570
 1785POPC   PO425140  44.230  33.419   9.351
 1785POPC   GL125141  43.946  33.221   9.074
 1785POPC   GL225142  43.731  32.912   9.097
 1785POPC   C1A25143  43.567  33.332   8.864
 1785POPC   D2A25144  43.433  33.265   8.478
 1785POPC   C3A25145  43.702  33.178   8.144
 1785POPC   C4A25146  43.613  33.272   7.720
 1785POPC   C1B25147  43.810  32.916   8.660
 1785POPC   C2B25148  43.922  32.586   8.390
 1785POPC   C3B25149  44.071  32.635   8.022
 1785POPC   C4B25150  44.074  33.015   7.795
 1786POPC   NC325151   9.495  29.674   9.525
 1786POPC   PO425152  10.137  29.971   9.517
 1786POPC   GL125153   9.926  29.799   9.127
 1786POPC   GL225154   9.582  29.895   9.076
 1786POPC   C1A25155   9.901  29.953   8.670
 1786POPC   D2A25156  10.268  30.006   8.407
 1786POPC   C3A25157  10.244  30.279   8.063
 1786POPC   C4A25158   9.966  30.296   7.705
 1786POPC   C1B25159   9.411  30.244   8.824
 1786POPC   C2B25160   9.479  30.335   8.419
 1786POPC   C3B25161   9.748  30.080   8.146
 1786POPC   C4B25162   9.734  29.703   7.902
 1787POPC   NC325163  20.686   6.466   9.553
 1787POPC   PO425164  20.430   7.072   9.391
 1787POPC   GL125165  20.664   6.806   9.156
 1787POPC   GL225166  20.412   6.552   9.087
 1787POPC   C1A25167  20.812   6.660   8.803
 1787POPC   D2A25168  20.508   6.617   8.503
 1787POPC   C3A25169  20.714   6.512   8.161
 1787POPC   C4A25170  20.786   6.542   7.744
 1787POPC   C1B25171  20.199   6.902   8.805
 1787POPC   C2B25172  20.213   7.025   8.378
 1787POPC   C3B25173  20.390   6.882   8.008
 1787POPC   C4B25174  20.376   6.847   7.554
 1788POPC   NC325175   4.737  43.037   9.575
 1788POPC   PO425176   4.058  43.148   9.644
 1788POPC   GL125177   4.310  43.045   9.270
 1788POPC   GL225178   4.582  43.273   9.158
 1788POPC   C1A25179   4.264  43.087   8.826
 1788POPC   D2A25180   4.026  43.079   8.472
 1788POPC   C3A25181   4.078  43.264   8.099
 1788POPC   C4A25182   4.090  43.017   7.732
 1788POPC   C1B25183   4.772  43.164   8.766
 1788POPC   C2B25184   4.555  43.134   8.376
 1788POPC   C3B25185   4.554  43.132   7.940
 1788POPC   C4B25186   4.698  43.279   7.540
 1789POPC   NC325187  19.772  38.470   9.618
 1789POPC   PO425188  19.567  38.930   9.237
 1789POPC   GL125189  19.777  38.541   9.118
 1789POPC   GL225190  19.613  38.197   9.209
 1789POPC   C1A25191  19.987  38.588   8.751
 1789POPC   D2A25192  19.821  38.778   8.359
 1789POPC   C3A25193  19.989  38.636   7.995
 1789POPC   C4A25194  19.777  38.456   7.653
 1789POPC   C1B25195  19.801  38.099   8.802
 1789POPC   C2B25196  19.925  38.268   8.368
 1789POPC   C3B25197  20.009  38.104   7.960
 1789POPC   C4B25198  20.163  38.105   7.518
 1790POPC   NC325199  17.987  22.564   9.488
 1790POPC   PO425200  17.532  23.178   9.609
 1790POPC   GL125201  17.531  22.917   9.189
 1790POPC   GL225202  17.826  22.885   9.136
 1790POPC   C1A25203  17.595  22.763   8.713
 1790POPC   D2A25204  17.774  22.955   8.328
 1790POPC   C3A25205  17.569  22.931   7.921
 1790POPC   C4A25206  17.701  22.744   7.499
 1790POPC   C1B25207  17.762  23.252   8.856
 1790POPC   C2B25208  17.908  23.428   8.473
 1790POPC   C3B25209  17.779  23.420   8.015
 1790POPC   C4B25210  17.765  23.241   7.571
 1791POPC   NC325211   0.890  27.318   9.520
 1791POPC   PO425212   1.368  27.854   9.571
 1791POPC   GL125213   1.328  27.575   9.224
 1791POPC   GL225214   0.987  27.668   9.164
 1791POPC   C1A25215   1.280  27.569   8.768
 1791POPC   D2A25216   1.438  27.776   8.411
 1791POPC   C3A25217   1.239  27.666   8.062
 1791POPC   C4A25218   1.353  27.525   7.720
 1791POPC   C1B25219   0.769  27.486   8.755
 1791POPC   C2B25220   0.844  27.291   8.378
 1791POPC   C3B25221   0.757  27.476   7.988
 1791POPC   C4B25222   0.887  27.340   7.631
 1792POPC   NC325223  37.238  14.890   9.508
 1792POPC   PO425224  36.834  15.363   9.576
 1792POPC   GL125225  36.840  15.302   9.168
 1792POPC   GL225226  36.767  14.985   9.216
 1792POPC   C1A25227  36.945  15.427   8.744
 1792POPC   D2A25228  37.062  15.498   8.338
 1792POPC   C3A25229  36.862  15.311   7.998
 1792POPC   C4A25230  37.129  15.424   7.651
 1792POPC   C1B25231  36.782  14.947   8.796
 1792POPC   C2B25232  36.679  14.996   8.387
 1792POPC   C3B25233  36.767  14.782   8.007
 1792POPC   C4B25234  36.948  14.918   7.633
 1793POPC   NC325235  33.005  11.721   9.377
 1793POPC   PO425236  32.813  12.332   9.481
 1793POPC   GL125237  32.959  12.175   9.117
 1793POPC   GL225238  32.646  12.025   9.073
 1793POPC   C1A25239  33.179  12.159   8.721
 1793POPC   D2A25240  33.035  12.343   8.343
 1793POPC   C3A25241  33.023  12.153   7.952
 1793POPC   C4A25242  33.118  11.854   7.660
 1793POPC   C1B25243  32.746  11.881   8.695
 1793POPC   C2B25244  32.713  11.898   8.293
 1793POPC   C3B25245  32.706  11.713   7.938
 1793POPC   C4B25246  32.570  12.061   7.715
 1794POPC   NC325247  40.750  24.276   9.512
 1794POPC   PO425248  40.359  24.767   9.347
 1794POPC   GL125249  40.534  24.432   9.085
 1794POPC   GL225250  40.348  24.116   9.179
 1794POPC   C1A25251  40.742  24.381   8.685
 1794POPC   D2A25252  40.706  24.737   8.401
 1794POPC   C3A25253  40.877  24.671   8.013
 1794POPC   C4A25254  41.060  24.415   7.714
 1794POPC   C1B25255  40.266  24.154   8.767
 1794POPC   C2B25256  40.316  24.374   8.389
 1794POPC   C3B25257  40.275  24.181   7.991
 1794POPC   C4B25258  40.549  24.353   7.737
 1795POPC   NC325259  14.016  32.210   9.576
 1795POPC   PO425260  14.700  32.437   9.536
 1795POPC   GL125261  14.509  32.211   9.188
 1795POPC   GL225262  14.184  32.347   9.125
 1795POPC   C1A25263  14.483  32.376   8.732
 1795POPC   D2A25264  14.637  32.180   8.379
 1795POPC   C3A25265  14.486  32.399   8.019
 1795POPC   C4A25266  14.425  32.359   7.599
 1795POPC   C1B25267  14.028  32.136   8.746
 1795POPC   C2B25268  14.101  32.216   8.303
 1795POPC   C3B25269  14.032  32.090   7.863
 1795POPC   C4B25270  13.991  32.216   7.406
 1796POPC   NC325271   5.727  16.515   9.526
 1796POPC   PO425272   5.853  17.168   9.526
 1796POPC   GL125273   5.862  16.863   9.171
 1796POPC   GL225274   5.971  16.500   9.076
 1796POPC   C1A25275   5.608  16.694   8.810
 1796POPC   D2A25276   5.736  16.536   8.401
 1796POPC   C3A25277   6.114  16.725   8.223
 1796POPC   C4A25278   6.067  16.789   7.804
 1796POPC   C1B25279   6.180  16.489   8.683
 1796POPC   C2B25280   6.154  16.205   8.315
 1796POPC   C3B25281   5.954  16.326   7.951
 1796POPC   C4B25282   5.509  16.323   7.933
 1797POPC   NC325283  38.391   7.049   9.575
 1797POPC   PO425284  37.857   6.517   9.556
 1797POPC   GL125285  38.266   6.630   9.314
 1797POPC   GL225286  38.557   6.410   9.226
 1797POPC   C1A25287  38.232   6.619   8.852
 1797POPC   D2A25288  38.407   6.851   8.528
 1797POPC   C3A25289  38.295   6.754   8.121
 1797POPC   C4A25290  38.487   6.723   7.758
 1797POPC   C1B25291  38.750   6.585   8.845
 1797POPC   C2B25292  38.887   6.396   8.473
 1797POPC   C3B25293  38.778   6.409   8.061
 1797POPC   C4B25294  38.661   6.232   7.657
 1798POPC   NC325295  23.510  25.689   9.419
 1798POPC   PO425296  23.708  26.293   9.577
 1798POPC   GL125297  23.695  26.130   9.171
 1798POPC   GL225298  23.886  25.837   9.102
 1798POPC   C1A25299  23.536  26.061   8.763
 1798POPC   D2A25300  23.705  25.866   8.391
 1798POPC   C3A25301  23.554  26.040   8.027
 1798POPC   C4A25302  23.800  26.161   7.717
 1798POPC   C1B25303  24.039  25.968   8.752
 1798POPC   C2B25304  24.226  25.762   8.390
 1798POPC   C3B25305  24.053  25.834   8.010
 1798POPC   C4B25306  24.234  25.863   7.625
 1799POPC   NC325307  36.038  29.401   9.781
 1799POPC   PO425308  35.783  28.895   9.493
 1799POPC   GL125309  36.007  29.089   9.154
 1799POPC   GL225310  36.035  29.487   9.076
 1799POPC   C1A25311  35.890  28.894   8.770
 1799POPC   D2A25312  35.783  29.079   8.380
 1799POPC   C3A25313  36.120  29.215   8.103
 1799POPC   C4A25314  36.118  29.147   7.643
 1799POPC   C1B25315  36.274  29.215   8.730
 1799POPC   C2B25316  36.550  29.194   8.373
 1799POPC   C3B25317  36.571  29.403   7.945
 1799POPC   C4B25318  36.519  29.401   7.499
 1800POPC   NC325319  15.737  32.108   9.576
 1800POPC   PO425320  16.440  32.084   9.618
 1800POPC   GL125321  16.136  32.165   9.232
 1800POPC   GL225322  15.787  32.302   9.106
 1800POPC   C1A25323  15.996  31.916   8.852
 1800POPC   D2A25324  16.188  31.982   8.433
 1800POPC   C3A25325  15.964  32.137   8.092
 1800POPC   C4A25326  16.086  32.033   7.684
 1800POPC   C1B25327  16.011  32.425   8.732
 1800POPC   C2B25328  16.053  32.598   8.324
 1800POPC   C3B25329  15.869  32.619   7.914
 1800POPC   C4B25330  15.806  32.426   7.507
 1801POPC   NC325331  24.885  35.429   9.672
 1801POPC   PO425332  25.499  35.597   9.482
 1801POPC   GL125333  25.375  35.413   9.121
 1801POPC   GL225334  25.028  35.332   9.169
 1801POPC   C1A25335  25.207  35.633   8.744
 1801POPC   D2A25336  24.882  35.626   8.406
 1801POPC   C3A25337  25.036  35.492   7.996
 1801POPC   C4A25338  25.485  35.585   7.916
 1801POPC   C1B25339  24.997  35.167   8.722
 1801POPC   C2B25340  25.177  35.078   8.273
 1801POPC   C3B25341  25.105  34.897   7.825
 1801POPC   C4B25342  25.096  34.965   7.320
 1802POPC   NC325343  19.119  26.350   9.495
 1802POPC   PO425344  18.885  26.972   9.373
 1802POPC   GL125345  19.133  26.747   9.123
 1802POPC   GL225346  18.876  26.492   9.074
 1802POPC   C1A25347  19.167  26.946   8.717
 1802POPC   D2A25348  18.844  27.194   8.508
 1802POPC   C3A25349  18.882  27.160   8.051
 1802POPC   C4A25350  18.983  27.038   7.618
 1802POPC   C1B25351  19.092  26.446   8.709
 1802POPC   C2B25352  19.317  26.593   8.349
 1802POPC   C3B25353  19.168  26.728   7.976
 1802POPC   C4B25354  18.799  26.569   7.785
 1803POPC   NC325355  23.807   6.125   9.370
 1803POPC   PO425356  23.415   5.590   9.296
 1803POPC   GL125357  23.580   5.845   9.013
 1803POPC   GL225358  23.274   6.031   8.949
 1803POPC   C1A25359  23.938   5.788   8.741
 1803POPC   D2A25360  24.162   5.685   8.376
 1803POPC   C3A25361  23.964   5.889   8.055
 1803POPC   C4A25362  23.864   5.800   7.680
 1803POPC   C1B25363  23.307   5.677   8.639
 1803POPC   C2B25364  23.599   5.511   8.341
 1803POPC   C3B25365  23.512   5.494   7.923
 1803POPC   C4B25366  23.387   5.854   7.793
 1804POPC   NC325367  18.921  19.568   9.259
 1804POPC   PO425368  19.240  18.992   9.485
 1804POPC   GL125369  19.044  19.078   9.083
 1804POPC   GL225370  18.871  19.360   8.816
 1804POPC   C1A25371  19.145  18.927   8.686
 1804POPC   D2A25372  19.041  19.142   8.371
 1804POPC   C3A25373  19.113  19.023   7.982
 1804POPC   C4A25374  19.095  18.964   7.538
 1804POPC   C1B25375  19.302  19.409   8.782
 1804POPC   C2B25376  19.533  19.284   8.474
 1804POPC   C3B25377  19.393  19.452   8.084
 1804POPC   C4B25378  19.229  19.435   7.706
 1805POPC   NC325379  22.028  18.537   9.444
 1805POPC   PO425380  22.162  18.007   9.898
 1805POPC   GL125381  22.326  18.154   9.382
 1805POPC   GL225382  22.538  18.404   9.236
 1805POPC   C1A25383  22.188  18.248   8.899
 1805POPC   D2A25384  21.861  18.151   8.642
 1805POPC   C3A25385  21.932  18.219   8.212
 1805POPC   C4A25386  22.118  18.052   7.878
 1805POPC   C1B25387  22.637  18.389   8.751
 1805POPC   C2B25388  22.351  18.423   8.401
 1805POPC   C3B25389  22.290  18.545   7.951
 1805POPC   C4B25390  22.233  18.384   7.488
 1806POPC   NC325391  16.178  19.572   9.514
 1806POPC   PO425392  15.572  19.825   9.321
 1806POPC   GL125393  15.840  19.997   9.042
 1806POPC   GL225394  16.165  20.052   9.217
 1806POPC   C1A25395  15.900  19.685   8.709
 1806POPC   D2A25396  15.704  19.408   8.418
 1806POPC   C3A25397  15.803  19.647   8.084
 1806POPC   C4A25398  15.831  20.037   7.853
 1806POPC   C1B25399  16.289  20.021   8.766
 1806POPC   C2B25400  16.151  20.016   8.301
 1806POPC   C3B25401  16.343  20.030   7.865
 1806POPC   C4B25402  16.316  19.927   7.371
 1807POPC   NC325403  35.272  21.623   9.551
 1807POPC   PO425404  35.444  20.989   9.554
 1807POPC   GL125405  35.334  21.251   9.157
 1807POPC   GL225406  35.187  21.643   9.062
 1807POPC   C1A25407  35.318  21.333   8.701
 1807POPC   D2A25408  35.557  21.423   8.367
 1807POPC   C3A25409  35.503  21.079   8.102
 1807POPC   C4A25410  35.493  21.165   7.703
 1807POPC   C1B25411  34.884  21.615   8.709
 1807POPC   C2B25412  34.970  21.481   8.277
 1807POPC   C3B25413  35.293  21.561   7.946
 1807POPC   C4B25414  35.169  21.507   7.463
 1808POPC   NC325415  26.975   8.503   9.499
 1808POPC   PO425416  26.424   8.077   9.584
 1808POPC   GL125417  26.726   7.979   9.240
 1808POPC   GL225418  26.863   8.255   9.081
 1808POPC   C1A25419  26.763   7.869   8.785
 1808POPC   D2A25420  26.735   8.082   8.392
 1808POPC   C3A25421  26.580   7.924   8.021
 1808POPC   C4A25422  26.742   7.978   7.605
 1808POPC   C1B25423  26.916   8.487   8.701
 1808POPC   C2B25424  26.883   8.570   8.262
 1808POPC   C3B25425  26.863   8.444   7.832
 1808POPC   C4B25426  26.989   8.349   7.387
 1809POPC   NC325427  17.482  28.886   9.700
 1809POPC   PO425428  17.853  29.305   9.584
 1809POPC   GL125429  17.730  29.037   9.242
 1809POPC   GL225430  17.424  29.058   9.188
 1809POPC   C1A25431  17.725  28.862   8.829
 1809POPC   D2A25432  17.555  28.998   8.426
 1809POPC   C3A25433  17.775  28.926   8.035
 1809POPC   C4A25434  17.590  29.081   7.663
 1809POPC   C1B25435  17.175  28.990   8.790
 1809POPC   C2B25436  17.081  29.150   8.363
 1809POPC   C3B25437  17.142  28.973   7.951
 1809POPC   C4B25438  17.160  28.843   7.505
 1810POPC   NC325439  30.712  39.042   9.439
 1810POPC   PO425440  30.866  38.354   9.457
 1810POPC   GL125441  31.038  38.463   9.084
 1810POPC   GL225442  30.909  38.146   8.962
 1810POPC   C1A25443  30.832  38.674   8.733
 1810POPC   D2A25444  30.687  38.748   8.323
 1810POPC   C3A25445  30.601  38.537   7.934
 1810POPC   C4A25446  30.296  38.580   7.580
 1810POPC   C1B25447  31.152  38.325   8.606
 1810POPC   C2B25448  31.090  38.442   8.190
 1810POPC   C3B25449  30.941  38.145   7.876
 1810POPC   C4B25450  30.916  38.076   7.404
 1811POPC   NC325451   6.825   4.603   9.397
 1811POPC   PO425452   6.247   4.329   9.713
 1811POPC   GL125453   6.457   4.291   9.229
 1811POPC   GL225454   6.553   4.608   8.996
 1811POPC   C1A25455   6.760   4.152   8.898
 1811POPC   D2A25456   6.867   4.070   8.480
 1811POPC   C3A25457   6.590   4.263   8.216
 1811POPC   C4A25458   6.587   4.091   7.821
 1811POPC   C1B25459   6.719   4.589   8.613
 1811POPC   C2B25460   6.888   4.706   8.257
 1811POPC   C3B25461   6.817   4.559   7.844
 1811POPC   C4B25462   6.464   4.501   7.571
 1812POPC   NC325463  12.266  31.610   9.546
 1812POPC   PO425464  12.078  30.948   9.598
 1812POPC   GL125465  11.971  31.267   9.287
 1812POPC   GL225466  12.301  31.208   9.204
 1812POPC   C1A25467  12.046  31.500   8.875
 1812POPC   D2A25468  12.264  31.614   8.470
 1812POPC   C3A25469  12.076  31.544   8.058
 1812POPC   C4A25470  11.889  31.835   7.757
 1812POPC   C1B25471  12.279  31.042   8.806
 1812POPC   C2B25472  12.098  31.145   8.429
 1812POPC   C3B25473  12.405  31.154   8.127
 1812POPC   C4B25474  12.338  31.252   7.700
 1813POPC   NC325475  42.114  16.375   9.465
 1813POPC   PO425476  42.480  16.978   9.485
 1813POPC   GL125477  42.226  16.757   9.124
 1813POPC   GL225478  42.111  16.964   8.843
 1813POPC   C1A25479  42.327  16.532   8.722
 1813POPC   D2A25480  42.276  16.790   8.370
 1813POPC   C3A25481  42.089  16.658   8.002
 1813POPC   C4A25482  42.231  16.346   7.723
 1813POPC   C1B25483  42.591  16.962   8.735
 1813POPC   C2B25484  42.789  16.832   8.349
 1813POPC   C3B25485  42.540  17.012   8.011
 1813POPC   C4B25486  42.444  16.793   7.640
 1814POPC   NC325487   9.017  19.375   9.475
 1814POPC   PO425488   9.197  20.105   9.497
 1814POPC   GL125489   9.173  19.819   9.203
 1814POPC   GL225490   8.823  19.795   9.195
 1814POPC   C1A25491   9.158  19.636   8.809
 1814POPC   D2A25492   9.136  19.465   8.427
 1814POPC   C3A25493   9.152  19.734   8.102
 1814POPC   C4A25494   8.982  19.714   7.687
 1814POPC   C1B25495   8.643  19.977   8.842
 1814POPC   C2B25496   8.824  19.963   8.451
 1814POPC   C3B25497   8.682  19.935   8.045
 1814POPC   C4B25498   8.631  20.095   7.605
 1815POPC   NC325499  17.945  13.749   9.516
 1815POPC   PO425500  18.552  13.556   9.471
 1815POPC   GL125501  18.273  13.709   9.112
 1815POPC   GL225502  17.894  13.834   9.041
 1815POPC   C1A25503  18.310  13.790   8.687
 1815POPC   D2A25504  18.233  13.452   8.381
 1815POPC   C3A25505  18.290  13.715   8.074
 1815POPC   C4A25506  18.329  13.654   7.699
 1815POPC   C1B25507  17.884  13.531   8.736
 1815POPC   C2B25508  17.761  13.648   8.281
 1815POPC   C3B25509  17.836  13.566   7.827
 1815POPC   C4B25510  17.941  13.695   7.374
 1816POPC   NC325511  16.439   8.804   9.489
 1816POPC   PO425512  17.064   9.029   9.570
 1816POPC   GL125513  16.983   9.123   9.165
 1816POPC   GL225514  16.643   9.090   9.125
 1816POPC   C1A25515  16.957   9.291   8.761
 1816POPC   D2A25516  17.102   9.130   8.360
 1816POPC   C3A25517  17.047   9.408   7.988
 1816POPC   C4A25518  16.866   9.324   7.571
 1816POPC   C1B25519  16.722   8.834   8.753
 1816POPC   C2B25520  16.570   8.863   8.360
 1816POPC   C3B25521  16.684   9.063   8.013
 1816POPC   C4B25522  16.792   8.816   7.685
 1817POPC   NC325523   3.366  13.975   9.432
 1817POPC   PO425524   3.568  14.685   9.456
 1817POPC   GL125525   3.628  14.348   9.186
 1817POPC   GL225526   3.298  14.247   9.017
 1817POPC   C1A25527   3.757  14.314   8.784
 1817POPC   D2A25528   3.713  14.456   8.356
 1817POPC   C3A25529   3.828  14.247   7.957
 1817POPC   C4A25530   3.547  14.314   7.616
 1817POPC   C1B25531   3.375  13.979   8.635
 1817POPC   C2B25532   3.449  13.977   8.169
 1817POPC   C3B25533   3.236  13.930   7.763
 1817POPC   C4B25534   3.357  13.969   7.315
 1818POPC   NC325535  16.891  12.568   9.493
 1818POPC   PO425536  16.554  13.255   9.411
 1818POPC   GL125537  16.613  12.947   9.120
 1818POPC   GL225538  16.952  12.905   9.134
 1818POPC   C1A25539  16.714  12.854   8.684
 1818POPC   D2A25540  16.672  12.612   8.352
 1818POPC   C3A25541  16.611  12.913   8.051
 1818POPC   C4A25542  16.519  13.275   7.873
 1818POPC   C1B25543  17.154  13.055   8.766
 1818POPC   C2B25544  17.109  12.967   8.290
 1818POPC   C3B25545  17.041  13.046   7.821
 1818POPC   C4B25546  17.200  13.080   7.354
 1819POPC   NC325547  21.847  22.509   9.830
 1819POPC   PO425548  22.407  22.184   9.587
 1819POPC   GL125549  22.228  22.273   9.201
 1819POPC   GL225550  21.975  22.502   9.336
 1819POPC   C1A25551  22.102  22.064   8.824
 1819POPC   D2A25552  21.915  22.028   8.415
 1819POPC   C3A25553  22.174  21.880   8.104
 1819POPC   C4A25554  22.346  22.072   7.718
 1819POPC   C1B25555  21.829  22.511   8.919
 1819POPC   C2B25556  22.122  22.501   8.551
 1819POPC   C3B25557  22.168  22.411   8.103
 1819POPC   C4B25558  21.919  22.404   7.709
 1820POPC   NC325559  30.997  16.078   9.330
 1820POPC   PO425560  31.592  15.986   9.626
 1820POPC   GL125561  31.478  15.856   9.190
 1820POPC   GL225562  31.435  16.151   9.051
 1820POPC   C1A25563  31.670  15.835   8.743
 1820POPC   D2A25564  31.546  16.234   8.525
 1820POPC   C3A25565  31.393  16.243   8.115
 1820POPC   C4A25566  31.434  15.878   7.911
 1820POPC   C1B25567  31.177  15.958   8.742
 1820POPC   C2B25568  31.230  15.813   8.373
 1820POPC   C3B25569  30.948  15.822   8.029
 1820POPC   C4B25570  31.035  15.836   7.602
 1821POPC   NC325571  27.018  43.146   9.804
 1821POPC   PO425572  26.721  43.371   9.206
 1821POPC   GL125573  27.047  43.256   8.976
 1821POPC   GL225574  27.024  42.924   9.137
 1821POPC   C1A25575  27.141  43.419   8.553
 1821POPC   D2A25576  26.799  43.449   8.262
 1821POPC   C3A25577  26.918  43.362   7.862
 1821POPC   C4A25578  26.687  43.138   7.576
 1821POPC   C1B25579  26.660  42.879   8.821
 1821POPC   C2B25580  26.544  42.972   8.417
 1821POPC   C3B25581  26.565  42.899   8.003
 1821POPC   C4B25582  26.316  42.614   7.737
 1822POPC   NC325583  37.415  34.260   9.452
 1822POPC   PO425584  37.902  33.807   9.579
 1822POPC   GL125585  37.915  33.653   9.168
 1822POPC   GL225586  37.800  33.990   9.076
 1822POPC   C1A25587  37.731  33.381   8.840
 1822POPC   D2A25588  37.556  33.551   8.454
 1822POPC   C3A25589  37.684  33.371   8.053
 1822POPC   C4A25590  37.681  33.591   7.679
 1822POPC   C1B25591  37.614  34.265   8.755
 1822POPC   C2B25592  37.439  34.190   8.346
 1822POPC   C3B25593  37.453  33.910   8.013
 1822POPC   C4B25594  37.566  34.094   7.641
 1823POPC   NC325595  25.866  35.889   9.560
 1823POPC   PO425596  26.512  36.324   9.439
 1823POPC   GL125597  26.081  36.206   9.214
 1823POPC   GL225598  25.799  35.939   9.074
 1823POPC   C1A25599  25.913  36.381   8.843
 1823POPC   D2A25600  26.145  36.481   8.490
 1823POPC   C3A25601  25.912  36.406   8.101
 1823POPC   C4A25602  26.105  36.457   7.706
 1823POPC   C1B25603  25.911  35.873   8.643
 1823POPC   C2B25604  25.879  35.868   8.198
 1823POPC   C3B25605  25.962  35.971   7.766
 1823POPC   C4B25606  26.209  35.843   7.391
 1824POPC   NC325607   9.848  42.571   9.488
 1824POPC   PO425608   9.333  42.164   9.509
 1824POPC   GL125609   9.643  42.191   9.184
 1824POPC   GL225610  10.019  42.118   9.186
 1824POPC   C1A25611   9.742  42.338   8.770
 1824POPC   D2A25612   9.593  42.237   8.362
 1824POPC   C3A25613   9.446  42.454   8.012
 1824POPC   C4A25614   9.472  42.249   7.624
 1824POPC   C1B25615  10.168  42.027   8.745
 1824POPC   C2B25616  10.098  42.199   8.311
 1824POPC   C3B25617   9.904  42.256   7.893
 1824POPC   C4B25618   9.944  42.136   7.437
 1825POPC   NC325619   2.810  44.807   9.432
 1825POPC   PO425620   2.185  44.784   9.749
 1825POPC   GL125621   2.392  44.493   9.326
 1825POPC   GL225622   2.739  44.335   9.262
 1825POPC   C1A25623   2.585  44.630   8.850
 1825POPC   D2A25624   2.847  44.751   8.496
 1825POPC   C3A25625   2.628  44.791   8.154
 1825POPC   C4A25626   2.758  44.807   7.755
 1825POPC   C1B25627   3.023  44.368   8.886
 1825POPC   C2B25628   3.037  44.296   8.480
 1825POPC   C3B25629   2.852  44.317   8.085
 1825POPC   C4B25630   2.999  44.377   7.707
 1826POPC   NC325631  36.423  42.589   9.317
 1826POPC   PO425632  36.877  42.099   9.537
 1826POPC   GL125633  36.857  42.261   9.153
 1826POPC   GL225634  36.941  42.578   9.199
 1826POPC   C1A25635  36.718  42.354   8.744
 1826POPC   D2A25636  36.837  42.142   8.402
 1826POPC   C3A25637  36.844  42.275   7.984
 1826POPC   C4A25638  37.041  41.991   7.663
 1826POPC   C1B25639  37.124  42.628   8.823
 1826POPC   C2B25640  36.988  42.646   8.405
 1826POPC   C3B25641  37.084  42.724   7.997
 1826POPC   C4B25642  36.955  42.736   7.577
 1827POPC   NC325643  30.532  13.788   9.475
 1827POPC   PO425644  31.021  13.334   9.429
 1827POPC   GL125645  30.842  13.585   9.106
 1827POPC   GL225646  30.498  13.465   9.099
 1827POPC   C1A25647  30.899  13.465   8.678
 1827POPC   D2A25648  31.120  13.472   8.281
 1827POPC   C3A25649  30.881  13.525   7.916
 1827POPC   C4A25650  30.745  13.898   7.693
 1827POPC   C1B25651  30.403  13.592   8.729
 1827POPC   C2B25652  30.519  13.472   8.316
 1827POPC   C3B25653  30.395  13.720   8.001
 1827POPC   C4B25654  30.207  13.853   7.660
 1828POPC   NC325655  23.841  34.182   9.853
 1828POPC   PO425656  23.361  34.538   9.524
 1828POPC   GL125657  23.470  34.324   9.155
 1828POPC   GL225658  23.318  34.641   9.001
 1828POPC   C1A25659  23.728  34.386   8.771
 1828POPC   D2A25660  23.910  34.617   8.419
 1828POPC   C3A25661  23.797  34.433   8.046
 1828POPC   C4A25662  23.944  34.294   7.649
 1828POPC   C1B25663  23.532  34.905   8.725
 1828POPC   C2B25664  23.579  35.005   8.315
 1828POPC   C3B25665  23.671  34.916   7.914
 1828POPC   C4B25666  23.386  34.919   7.588
 1829POPC   NC325667  41.342  11.781   9.251
 1829POPC   PO425668  41.904  12.045   9.394
 1829POPC   GL125669  41.663  12.234   9.078
 1829POPC   GL225670  41.323  12.319   9.148
 1829POPC   C1A25671  41.486  12.070   8.694
 1829POPC   D2A25672  41.643  12.007   8.314
 1829POPC   C3A25673  41.388  11.927   7.994
 1829POPC   C4A25674  41.513  11.842   7.612
 1829POPC   C1B25675  41.366  12.558   8.789
 1829POPC   C2B25676  41.589  12.513   8.443
 1829POPC   C3B25677  41.499  12.425   8.038
 1829POPC   C4B25678  41.308  12.316   7.663
 1830POPC   NC325679  17.706  27.452   9.516
 1830POPC   PO425680  17.096  27.926   9.543
 1830POPC   GL125681  17.366  27.695   9.231
 1830POPC   GL225682  17.748  27.764   9.106
 1830POPC   C1A25683  17.366  27.486   8.846
 1830POPC   D2A25684  17.209  27.678   8.463
 1830POPC   C3A25685  17.434  27.666   8.099
 1830POPC   C4A25686  17.789  27.809   7.849
 1830POPC   C1B25687  17.885  27.369   8.867
 1830POPC   C2B25688  17.895  27.176   8.454
 1830POPC   C3B25689  17.907  27.362   8.072
 1830POPC   C4B25690  17.568  27.309   7.782
 1831POPC   NC325691  12.635  43.643   9.478
 1831POPC   PO425692  12.865  44.273   9.476
 1831POPC   GL125693  12.851  44.000   9.148
 1831POPC   GL225694  12.605  43.787   8.985
 1831POPC   C1A25695  12.938  44.161   8.774
 1831POPC   D2A25696  13.147  44.026   8.445
 1831POPC   C3A25697  12.841  44.004   8.141
 1831POPC   C4A25698  12.982  43.915   7.751
 1831POPC   C1B25699  12.905  43.642   8.700
 1831POPC   C2B25700  13.065  43.545   8.298
 1831POPC   C3B25701  13.221  43.414   7.921
 1831POPC   C4B25702  12.998  43.427   7.524
 1832POPC   NC325703  42.818  23.021   9.562
 1832POPC   PO425704  43.449  23.202   9.486
 1832POPC   GL125705  43.181  22.998   9.149
 1832POPC   GL225706  42.880  23.159   9.084
 1832POPC   C1A25707  43.047  22.738   8.776
 1832POPC   D2A25708  42.857  22.850   8.358
 1832POPC   C3A25709  42.905  22.691   7.933
 1832POPC   C4A25710  43.286  22.670   7.692
 1832POPC   C1B25711  43.033  23.243   8.672
 1832POPC   C2B25712  42.875  23.381   8.269
 1832POPC   C3B25713  42.748  23.214   7.896
 1832POPC   C4B25714  43.082  23.273   7.643
 1833POPC   NC325715  30.153  41.019   9.502
 1833POPC   PO425716  30.714  40.736   9.823
 1833POPC   GL125717  30.730  40.752   9.302
 1833POPC   GL225718  30.410  40.680   9.199
 1833POPC   C1A25719  30.759  40.682   8.825
 1833POPC   D2A25720  31.038  40.615   8.466
 1833POPC   C3A25721  30.890  40.785   8.144
 1833POPC   C4A25722  30.901  40.812   7.746
 1833POPC   C1B25723  30.277  40.873   8.828
 1833POPC   C2B25724  30.163  40.706   8.418
 1833POPC   C3B25725  30.392  40.627   8.037
 1833POPC   C4B25726  30.475  41.029   7.901
 1834POPC   NC325727  14.975  27.249   9.428
 1834POPC   PO425728  14.703  27.890   9.623
 1834POPC   GL125729  14.878  27.854   9.191
 1834POPC   GL225730  14.997  27.560   9.013
 1834POPC   C1A25731  14.777  28.022   8.809
 1834POPC   D2A25732  14.932  28.169   8.420
 1834POPC   C3A25733  14.942  27.865   8.127
 1834POPC   C4A25734  15.083  27.719   7.749
 1834POPC   C1B25735  15.114  27.687   8.610
 1834POPC   C2B25736  15.411  27.879   8.379
 1834POPC   C3B25737  15.504  27.750   8.003
 1834POPC   C4B25738  15.521  27.324   7.860
 1835POPC   NC325739  35.440  18.742   9.737
 1835POPC   PO425740  35.323  18.112   9.574
 1835POPC   GL125741  35.275  18.137   9.150
 1835POPC   GL225742  35.496  17.905   9.098
 1835POPC   C1A25743  35.096  18.379   8.782
 1835POPC   D2A25744  35.144  18.653   8.411
 1835POPC   C3A25745  35.154  18.439   7.997
 1835POPC   C4A25746  35.091  18.396   7.576
 1835POPC   C1B25747  35.576  18.260   8.764
 1835POPC   C2B25748  35.377  18.194   8.371
 1835POPC   C3B25749  35.501  18.066   7.950
 1835POPC   C4B25750  35.558  18.196   7.530
 1836POPC   NC325751  22.689  25.341   9.590
 1836POPC   PO425752  23.196  24.890   9.536
 1836POPC   GL125753  22.986  25.110   9.190
 1836POPC   GL225754  22.863  25.404   9.132
 1836POPC   C1A25755  23.128  25.227   8.763
 1836POPC   D2A25756  22.905  25.149   8.417
 1836POPC   C3A25757  23.069  25.207   8.024
 1836POPC   C4A25758  22.824  25.271   7.682
 1836POPC   C1B25759  22.654  25.510   8.793
 1836POPC   C2B25760  22.733  25.712   8.446
 1836POPC   C3B25761  22.702  25.549   8.095
 1836POPC   C4B25762  22.363  25.451   7.895
 1837POPC   NC325763  10.778  21.303   9.463
 1837POPC   PO425764  10.075  21.060   9.413
 1837POPC   GL125765  10.375  21.241   9.163
 1837POPC   GL225766  10.128  21.323   8.962
 1837POPC   C1A25767  10.568  21.493   8.796
 1837POPC   D2A25768  10.745  21.550   8.379
 1837POPC   C3A25769  10.670  21.400   7.935
 1837POPC   C4A25770  10.764  21.128   7.531
 1837POPC   C1B25771  10.057  21.647   8.654
 1837POPC   C2B25772   9.909  21.539   8.248
 1837POPC   C3B25773  10.168  21.409   7.902
 1837POPC   C4B25774  10.336  21.395   7.496
 1838POPC   NC325775  25.616  23.399   9.576
 1838POPC   PO425776  25.421  22.781   9.756
 1838POPC   GL125777  25.417  22.821   9.318
 1838POPC   GL225778  25.290  23.162   9.250
 1838POPC   C1A25779  25.432  22.742   8.877
 1838POPC   D2A25780  25.584  22.532   8.482
 1838POPC   C3A25781  25.359  22.678   8.136
 1838POPC   C4A25782  25.378  22.784   7.710
 1838POPC   C1B25783  25.394  23.281   8.819
 1838POPC   C2B25784  25.462  23.057   8.461
 1838POPC   C3B25785  25.492  23.155   8.027
 1838POPC   C4B25786  25.533  23.237   7.584
 1839POPC   NC325787  42.071  41.016   9.419
 1839POPC   PO425788  42.555  40.435   9.436
 1839POPC   GL125789  42.269  40.601   9.147
 1839POPC   GL225790  42.449  40.916   9.086
 1839POPC   C1A25791  42.123  40.737   8.731
 1839POPC   D2A25792  42.331  40.908   8.341
 1839POPC   C3A25793  42.059  40.811   7.979
 1839POPC   C4A25794  42.025  40.482   7.669
 1839POPC   C1B25795  42.625  40.710   8.714
 1839POPC   C2B25796  42.817  40.715   8.290
 1839POPC   C3B25797  42.529  40.654   7.934
 1839POPC   C4B25798  42.360  40.936   7.583
 1840POPC   NC325799   4.730  16.551   9.574
 1840POPC   PO425800   5.348  16.863   9.607
 1840POPC   GL125801   4.996  16.919   9.286
 1840POPC   GL225802   5.001  16.600   9.140
 1840POPC   C1A25803   4.949  16.992   8.816
 1840POPC   D2A25804   5.273  16.901   8.494
 1840POPC   C3A25805   5.267  16.784   8.062
 1840POPC   C4A25806   5.554  16.946   7.786
 1840POPC   C1B25807   4.835  16.510   8.706
 1840POPC   C2B25808   4.835  16.698   8.311
 1840POPC   C3B25809   4.770  16.717   7.863
 1840POPC   C4B25810   4.785  16.431   7.526
 1841POPC   NC325811  29.373  11.506   9.451
 1841POPC   PO425812  28.674  11.348   9.446
 1841POPC   GL125813  28.987  11.337   9.097
 1841POPC   GL225814  29.303  11.170   9.081
 1841POPC   C1A25815  29.074  11.293   8.649
 1841POPC   D2A25816  28.787  11.219   8.357
 1841POPC   C3A25817  28.957  11.284   7.962
 1841POPC   C4A25818  28.789  11.086   7.629
 1841POPC   C1B25819  29.610  11.070   8.763
 1841POPC   C2B25820  29.548  11.197   8.365
 1841POPC   C3B25821  29.552  11.045   7.947
 1841POPC   C4B25822  29.398  11.281   7.622
 1842POPC   NC325823  15.734  17.914   9.570
 1842POPC   PO425824  16.274  18.407   9.558
 1842POPC   GL125825  16.139  18.299   9.188
 1842POPC   GL225826  15.801  18.277   9.165
 1842POPC   C1A25827  16.195  18.181   8.779
 1842POPC   D2A25828  16.341  18.385   8.394
 1842POPC   C3A25829  16.124  18.269   8.056
 1842POPC   C4A25830  16.077  18.053   7.705
 1842POPC   C1B25831  15.694  18.008   8.815
 1842POPC   C2B25832  15.765  18.005   8.380
 1842POPC   C3B25833  15.634  18.083   7.976
 1842POPC   C4B25834  15.403  18.397   7.750
 1843POPC   NC325835  31.495  42.042   9.505
 1843POPC   PO425836  31.695  42.723   9.534
 1843POPC   GL125837  31.738  42.436   9.208
 1843POPC   GL225838  31.383  42.389   9.131
 1843POPC   C1A25839  31.743  42.217   8.788
 1843POPC   D2A25840  31.672  42.134   8.332
 1843POPC   C3A25841  31.465  42.418   8.038
 1843POPC   C4A25842  31.756  42.412   7.750
 1843POPC   C1B25843  31.212  42.067   8.840
 1843POPC   C2B25844  31.125  42.127   8.395
 1843POPC   C3B25845  31.246  41.972   8.017
 1843POPC   C4B25846  31.329  41.999   7.586
 1844POPC   NC325847  41.825  43.510   9.407
 1844POPC   PO425848  41.645  42.967   9.809
 1844POPC   GL125849  41.603  43.056   9.353
 1844POPC   GL225850  41.303  42.923   9.252
 1844POPC   C1A25851  41.609  43.098   8.873
 1844POPC   D2A25852  41.695  43.040   8.400
 1844POPC   C3A25853  41.759  43.105   7.983
 1844POPC   C4A25854  41.664  43.411   7.693
 1844POPC   C1B25855  41.194  42.802   8.823
 1844POPC   C2B25856  41.206  43.016   8.456
 1844POPC   C3B25857  41.151  42.849   8.075
 1844POPC   C4B25858  41.337  42.944   7.690
 1845POPC   NC325859  24.452  29.798   9.521
 1845POPC   PO425860  24.279  30.451   9.545
 1845POPC   GL125861  24.359  30.142   9.164
 1845POPC   GL225862  24.691  29.905   9.095
 1845POPC   C1A25863  24.341  30.022   8.730
 1845POPC   D2A25864  24.222  29.784   8.378
 1845POPC   C3A25865  24.260  30.002   8.033
 1845POPC   C4A25866  24.457  30.277   7.845
 1845POPC   C1B25867  24.856  29.835   8.658
 1845POPC   C2B25868  24.714  29.967   8.252
 1845POPC   C3B25869  24.664  29.747   7.859
 1845POPC   C4B25870  24.671  29.544   7.454
 1846POPC   NC325871   3.395  20.088   9.454
 1846POPC   PO425872   3.753  19.558   9.435
 1846POPC   GL125873   3.496  19.702   9.118
 1846POPC   GL225874   3.752  19.968   9.097
 1846POPC   C1A25875   3.389  19.808   8.687
 1846POPC   D2A25876   3.678  19.790   8.310
 1846POPC   C3A25877   3.492  19.833   7.869
 1846POPC   C4A25878   3.183  20.111   7.614
 1846POPC   C1B25879   3.767  20.157   8.722
 1846POPC   C2B25880   3.971  20.357   8.405
 1846POPC   C3B25881   3.941  20.141   8.039
 1846POPC   C4B25882   4.020  19.669   7.923
 1847POPC   NC325883  10.526   3.148   9.317
 1847POPC   PO425884  10.854   3.768   9.418
 1847POPC   GL125885  10.471   3.637   9.221
 1847POPC   GL225886  10.340   3.880   9.114
 1847POPC   C1A25887  10.291   3.487   8.791
 1847POPC   D2A25888  10.250   3.318   8.373
 1847POPC   C3A25889  10.604   3.335   8.092
 1847POPC   C4A25890  10.405   3.380   7.696
 1847POPC   C1B25891  10.707   3.800   8.791
 1847POPC   C2B25892  10.723   3.879   8.353
 1847POPC   C3B25893  10.407   3.790   8.041
 1847POPC   C4B25894  10.253   3.877   7.649
 1848POPC   NC325895   9.024  38.853   9.885
 1848POPC   PO425896   9.168  39.518   9.582
 1848POPC   GL125897   9.033  39.481   9.167
 1848POPC   GL225898   8.788  39.249   9.197
 1848POPC   C1A25899   9.080  39.363   8.726
 1848POPC   D2A25900   9.373  39.261   8.398
 1848POPC   C3A25901   9.162  39.179   8.047
 1848POPC   C4A25902   8.885  39.306   7.749
 1848POPC   C1B25903   8.676  39.057   8.788
 1848POPC   C2B25904   8.629  39.191   8.335
 1848POPC   C3B25905   8.658  38.938   7.979
 1848POPC   C4B25906   8.718  38.897   7.500
 1849POPC   NC325907  29.315  44.664   9.648
 1849POPC   PO425908  28.964  44.154   9.485
 1849POPC   GL125909  29.104  44.546   9.204
 1849POPC   GL225910  29.435  44.795   9.178
 1849POPC   C1A25911  29.071  44.781   8.827
 1849POPC   D2A25912  29.066  44.655   8.414
 1849POPC   C3A25913  29.018  44.871   8.036
 1849POPC   C4A25914  28.992  44.592   7.713
 1849POPC   C1B25915  29.462   0.104   8.807
 1849POPC   C2B25916  29.375   0.086   8.347
 1849POPC   C3B25917  29.484  44.982   7.878
 1849POPC   C4B25918  29.445  44.708   7.489
 1850POPC   NC325919  29.976  35.526   9.588
 1850POPC   PO425920  29.766  34.914   9.487
 1850POPC   GL125921  29.694  35.262   9.213
 1850POPC   GL225922  29.703  35.641   9.173
 1850POPC   C1A25923  29.649  35.300   8.796
 1850POPC   D2A25924  29.779  35.112   8.437
 1850POPC   C3A25925  29.802  35.252   8.024
 1850POPC   C4A25926  30.235  35.266   7.855
 1850POPC   C1B25927  29.841  35.772   8.795
 1850POPC   C2B25928  29.848  35.624   8.400
 1850POPC   C3B25929  30.035  35.720   8.040
 1850POPC   C4B25930  29.890  35.632   7.669
 1851POPC   NC325931  10.790   1.168   9.732
 1851POPC   PO425932  10.283   1.567   9.546
 1851POPC   GL125933  10.372   1.255   9.218
 1851POPC   GL225934  10.697   1.078   9.204
 1851POPC   C1A25935  10.497   1.355   8.798
 1851POPC   D2A25936  10.650   1.609   8.472
 1851POPC   C3A25937  10.478   1.447   8.091
 1851POPC   C4A25938  10.738   1.287   7.800
 1851POPC   C1B25939  10.520   0.843   8.804
 1851POPC   C2B25940  10.380   1.003   8.385
 1851POPC   C3B25941  10.535   0.862   7.961
 1851POPC   C4B25942  10.493   0.930   7.486
 1852POPC   NC325943  23.075   4.853   9.614
 1852POPC   PO425944  22.600   5.338   9.542
 1852POPC   GL125945  22.876   5.188   9.229
 1852POPC   GL225946  22.877   4.844   9.156
 1852POPC   C1A25947  23.080   5.211   8.847
 1852POPC   D2A25948  22.846   5.172   8.476
 1852POPC   C3A25949  23.096   5.157   8.104
 1852POPC   C4A25950  22.928   5.102   7.693
 1852POPC   C1B25951  22.981   4.715   8.739
 1852POPC   C2B25952  22.945   4.688   8.277
 1852POPC   C3B25953  23.160   4.685   7.881
 1852POPC   C4B25954  23.075   4.610   7.457
 1853POPC   NC325955   7.613  43.586   9.381
 1853POPC   PO425956   7.294  43.027   9.719
 1853POPC   GL125957   7.309  43.173   9.230
 1853POPC   GL225958   6.999  43.251   9.034
 1853POPC   C1A25959   7.506  43.031   8.817
 1853POPC   D2A25960   7.703  43.089   8.390
 1853POPC   C3A25961   7.612  42.796   8.040
 1853POPC   C4A25962   7.387  42.890   7.681
 1853POPC   C1B25963   7.310  43.504   8.785
 1853POPC   C2B25964   7.398  43.612   8.343
 1853POPC   C3B25965   7.372  43.297   7.994
 1853POPC   C4B25966   7.162  43.337   7.569
 1854POPC   NC325967  15.910  28.616   9.575
 1854POPC   PO425968  16.127  28.017   9.570
 1854POPC   GL125969  16.048  28.308   9.201
 1854POPC   GL225970  16.269  28.622   9.204
 1854POPC   C1A25971  15.811  28.553   8.874
 1854POPC   D2A25972  15.779  28.719   8.433
 1854POPC   C3A25973  15.815  28.360   8.156
 1854POPC   C4A25974  15.917  28.246   7.746
 1854POPC   C1B25975  16.332  28.559   8.768
 1854POPC   C2B25976  16.292  28.727   8.351
 1854POPC   C3B25977  16.272  28.606   7.901
 1854POPC   C4B25978  16.244  28.710   7.433
 1855POPC   NC325979  18.474  20.382   9.391
 1855POPC   PO425980  17.879  20.535   9.410
 1855POPC   GL125981  17.965  20.760   9.031
 1855POPC   GL225982  18.240  20.556   8.928
 1855POPC   C1A25983  18.144  21.012   8.721
 1855POPC   D2A25984  18.425  20.913   8.448
 1855POPC   C3A25985  18.234  20.971   8.072
 1855POPC   C4A25986  18.292  20.589   7.903
 1855POPC   C1B25987  18.584  20.336   8.748
 1855POPC   C2B25988  18.842  20.400   8.419
 1855POPC   C3B25989  18.756  20.298   8.000
 1855POPC   C4B25990  18.731  20.167   7.555
 1856POPC   NC325991   0.609   5.390   9.882
 1856POPC   PO425992   0.473   5.895   9.488
 1856POPC   GL125993   0.442   5.896   9.088
 1856POPC   GL225994   0.422   6.229   9.070
 1856POPC   C1A25995   0.447   5.636   8.721
 1856POPC   D2A25996   0.447   5.394   8.371
 1856POPC   C3A25997   0.649   5.585   8.023
 1856POPC   C4A25998   0.524   5.685   7.637
 1856POPC   C1B25999   0.293   6.130   8.673
 1856POPC   C2B26000   0.468   5.970   8.324
 1856POPC   C3B26001   0.509   6.093   7.967
 1856POPC   C4B26002   0.377   6.173   7.599
 1857POPC   NC326003  27.317  14.077   9.449
 1857POPC   PO426004  27.354  14.826   9.439
 1857POPC   GL126005  27.550  14.588   9.098
 1857POPC   GL226006  27.735  14.298   9.180
 1857POPC   C1A26007  27.856  14.518   8.743
 1857POPC   D2A26008  27.710  14.485   8.338
 1857POPC   C3A26009  27.953  14.394   7.986
 1857POPC   C4A26010  27.766  14.445   7.592
 1857POPC   C1B26011  27.470  14.189   8.796
 1857POPC   C2B26012  27.459  14.043   8.370
 1857POPC   C3B26013  27.499  14.153   7.924
 1857POPC   C4B26014  27.283  14.158   7.505
 1858POPC   NC326015  34.449  26.318   9.526
 1858POPC   PO426016  34.540  26.940   9.738
 1858POPC   GL126017  34.414  26.914   9.219
 1858POPC   GL226018  34.270  26.582   9.154
 1858POPC   C1A26019  34.474  26.791   8.744
 1858POPC   D2A26020  34.804  26.870   8.520
 1858POPC   C3A26021  34.843  26.932   8.066
 1858POPC   C4A26022  34.901  27.128   7.642
 1858POPC   C1B26023  34.046  26.525   8.816
 1858POPC   C2B26024  34.026  26.760   8.454
 1858POPC   C3B26025  34.180  26.710   8.064
 1858POPC   C4B26026  34.445  26.839   7.766
 1859POPC   NC326027  14.438  13.876   9.543
 1859POPC   PO426028  14.318  13.219   9.472
 1859POPC   GL126029  14.245  13.539   9.133
 1859POPC   GL226030  14.026  13.819   9.228
 1859POPC   C1A26031  14.490  13.637   8.744
 1859POPC   D2A26032  14.690  13.743   8.354
 1859POPC   C3A26033  14.485  13.445   8.213
 1859POPC   C4A26034  14.502  13.360   7.857
 1859POPC   C1B26035  14.056  13.981   8.813
 1859POPC   C2B26036  14.296  14.040   8.453
 1859POPC   C3B26037  14.306  13.924   8.026
 1859POPC   C4B26038  14.016  14.122   7.744
 1860POPC   NC326039  38.495  21.186   9.438
 1860POPC   PO426040  38.358  20.475   9.488
 1860POPC   GL126041  38.160  20.462   9.131
 1860POPC   GL226042  38.355  20.755   9.058
 1860POPC   C1A26043  38.332  20.268   8.788
 1860POPC   D2A26044  38.642  20.383   8.481
 1860POPC   C3A26045  38.434  20.422   8.110
 1860POPC   C4A26046  38.594  20.457   7.706
 1860POPC   C1B26047  38.432  20.927   8.678
 1860POPC   C2B26048  38.205  21.083   8.343
 1860POPC   C3B26049  38.372  20.952   7.980
 1860POPC   C4B26050  38.246  20.786   7.651
 1861POPC   NC326051  31.915  36.886   9.613
 1861POPC   PO426052  32.509  36.627   9.815
 1861POPC   GL126053  32.262  36.797   9.297
 1861POPC   GL226054  32.238  36.575   9.021
 1861POPC   C1A26055  32.031  37.016   8.908
 1861POPC   D2A26056  32.186  37.190   8.519
 1861POPC   C3A26057  32.037  37.109   8.105
 1861POPC   C4A26058  32.212  36.953   7.757
 1861POPC   C1B26059  32.520  36.836   8.746
 1861POPC   C2B26060  32.767  36.735   8.396
 1861POPC   C3B26061  32.642  36.830   8.007
 1861POPC   C4B26062  32.577  36.629   7.632
 1862POPC   NC326063   5.399   3.618   9.743
 1862POPC   PO426064   6.029   3.709   9.541
 1862POPC   GL126065   5.943   3.691   9.160
 1862POPC   GL226066   5.608   3.839   9.228
 1862POPC   C1A26067   6.133   3.514   8.786
 1862POPC   D2A26068   6.269   3.352   8.401
 1862POPC   C3A26069   6.034   3.408   8.038
 1862POPC   C4A26070   5.772   3.531   7.692
 1862POPC   C1B26071   5.693   3.861   8.771
 1862POPC   C2B26072   5.882   3.739   8.396
 1862POPC   C3B26073   5.856   3.927   7.992
 1862POPC   C4B26074   5.572   3.988   7.669
 1863POPC   NC326075  44.888  39.659   9.400
 1863POPC   PO426076   0.565  39.851   9.488
 1863POPC   GL126077   0.481  39.960   9.106
 1863POPC   GL226078   0.121  39.956   9.054
 1863POPC   C1A26079   0.631  39.935   8.728
 1863POPC   D2A26080   0.479  40.019   8.358
 1863POPC   C3A26081   0.734  40.030   8.025
 1863POPC   C4A26082   0.607  39.993   7.594
 1863POPC   C1B26083   0.228  40.253   8.757
 1863POPC   C2B26084   0.195  40.480   8.383
 1863POPC   C3B26085   0.266  40.288   7.976
 1863POPC   C4B26086   0.049  39.993   7.747
 1864POPC   NC326087  29.510   1.405   9.402
 1864POPC   PO426088  29.901   1.943   9.591
 1864POPC   GL126089  29.730   2.119   9.226
 1864POPC   GL226090  29.554   1.862   9.191
 1864POPC   C1A26091  29.888   2.154   8.810
 1864POPC   D2A26092  29.929   1.920   8.479
 1864POPC   C3A26093  30.008   2.084   8.142
 1864POPC   C4A26094  29.886   2.022   7.744
 1864POPC   C1B26095  29.431   1.967   8.796
 1864POPC   C2B26096  29.521   2.209   8.426
 1864POPC   C3B26097  29.492   2.001   8.074
 1864POPC   C4B26098  29.490   1.730   7.749
 1865POPC   NC326099  30.449   0.236   9.654
 1865POPC   PO426100  30.819   0.770   9.463
 1865POPC   GL126101  30.749   0.566   9.113
 1865POPC   GL226102  30.439   0.464   9.171
 1865POPC   C1A26103  30.818   0.607   8.682
 1865POPC   D2A26104  30.894   0.255   8.437
 1865POPC   C3A26105  30.893   0.325   8.039
 1865POPC   C4A26106  30.791   0.295   7.667
 1865POPC   C1B26107  30.475   0.224   8.789
 1865POPC   C2B26108  30.414   0.072   8.364
 1865POPC   C3B26109  30.413   0.397   8.067
 1865POPC   C4B26110  30.345   0.572   7.672
 1866POPC   NC326111   5.249  11.506   9.583
 1866POPC   PO426112   4.873  11.018   9.653
 1866POPC   GL126113   5.081  11.164   9.232
 1866POPC   GL226114   4.980  11.527   9.149
 1866POPC   C1A26115   5.295  11.273   8.823
 1866POPC   D2A26116   5.437  11.447   8.405
 1866POPC   C3A26117   5.384  11.144   8.058
 1866POPC   C4A26118   5.280  10.913   7.637
 1866POPC   C1B26119   4.843  11.503   8.709
 1866POPC   C2B26120   4.934  11.398   8.286
 1866POPC   C3B26121   5.082  11.520   7.886
 1866POPC   C4B26122   5.048  11.327   7.497
 1867POPC   NC326123  25.217   4.612   9.535
 1867POPC   PO426124  25.631   4.114   9.640
 1867POPC   GL126125  25.525   4.313   9.258
 1867POPC   GL226126  25.165   4.265   9.176
 1867POPC   C1A26127  25.535   4.465   8.849
 1867POPC   D2A26128  25.615   4.422   8.421
 1867POPC   C3A26129  25.352   4.174   8.162
 1867POPC   C4A26130  25.530   4.372   7.814
 1867POPC   C1B26131  25.030   4.546   8.906
 1867POPC   C2B26132  25.076   4.542   8.489
 1867POPC   C3B26133  25.129   4.629   8.085
 1867POPC   C4B26134  25.036   4.381   7.757
 1868POPC   NC326135  16.481  43.410   9.837
 1868POPC   PO426136  16.873  43.019   9.640
 1868POPC   GL126137  16.751  43.045   9.200
 1868POPC   GL226138  17.015  42.908   9.122
 1868POPC   C1A26139  16.539  42.840   8.841
 1868POPC   D2A26140  16.496  43.015   8.420
 1868POPC   C3A26141  16.857  43.155   8.178
 1868POPC   C4A26142  16.728  43.147   7.773
 1868POPC   C1B26143  16.988  43.018   8.674
 1868POPC   C2B26144  16.906  42.692   8.362
 1868POPC   C3B26145  16.805  42.651   7.922
 1868POPC   C4B26146  16.717  42.752   7.454
 1869POPC   NC326147  32.312  40.920   9.479
 1869POPC   PO426148  32.705  40.385   9.518
 1869POPC   GL126149  32.452  40.536   9.169
 1869POPC   GL226150  32.076  40.484   9.183
 1869POPC   C1A26151  32.381  40.631   8.744
 1869POPC   D2A26152  32.600  40.465   8.402
 1869POPC   C3A26153  32.350  40.531   8.033
 1869POPC   C4A26154  32.247  40.874   7.827
 1869POPC   C1B26155  31.883  40.579   8.772
 1869POPC   C2B26156  32.054  40.854   8.408
 1869POPC   C3B26157  31.844  41.062   8.059
 1869POPC   C4B26158  31.775  40.846   7.670
 1870POPC   NC326159   8.699  41.570   9.661
 1870POPC   PO426160   9.313  41.226   9.431
 1870POPC   GL126161   8.976  41.470   9.190
 1870POPC   GL226162   8.700  41.705   9.064
 1870POPC   C1A26163   9.071  41.538   8.768
 1870POPC   D2A26164   8.782  41.520   8.434
 1870POPC   C3A26165   8.942  41.486   8.027
 1870POPC   C4A26166   8.761  41.283   7.673
 1870POPC   C1B26167   8.774  41.978   8.733
 1870POPC   C2B26168   8.675  42.061   8.354
 1870POPC   C3B26169   8.828  42.070   7.978
 1870POPC   C4B26170   8.734  41.812   7.684
 1871POPC   NC326171   9.686   6.088   9.781
 1871POPC   PO426172  10.019   5.520   9.520
 1871POPC   GL126173   9.789   5.802   9.278
 1871POPC   GL226174  10.017   5.771   9.067
 1871POPC   C1A26175   9.502   5.822   8.909
 1871POPC   D2A26176   9.491   5.801   8.462
 1871POPC   C3A26177   9.381   6.010   8.066
 1871POPC   C4A26178   9.555   5.871   7.675
 1871POPC   C1B26179   9.919   5.543   8.720
 1871POPC   C2B26180  10.001   5.795   8.397
 1871POPC   C3B26181   9.911   5.895   8.037
 1871POPC   C4B26182  10.080   5.968   7.681
 1872POPC   NC326183  37.642  27.201   9.638
 1872POPC   PO426184  37.478  26.567   9.896
 1872POPC   GL126185  37.405  26.743   9.384
 1872POPC   GL226186  37.606  26.983   9.176
 1872POPC   C1A26187  37.381  26.661   8.893
 1872POPC   D2A26188  37.581  26.876   8.572
 1872POPC   C3A26189  37.370  26.937   8.189
 1872POPC   C4A26190  37.595  27.040   7.791
 1872POPC   C1B26191  37.951  27.069   8.914
 1872POPC   C2B26192  38.103  26.972   8.525
 1872POPC   C3B26193  37.999  26.991   8.102
 1872POPC   C4B26194  38.115  27.150   7.699
 1873POPC   NC326195  22.652   9.657   9.659
 1873POPC   PO426196  23.296  10.013   9.640
 1873POPC   GL126197  23.102   9.749   9.269
 1873POPC   GL226198  22.803   9.757   8.997
 1873POPC   C1A26199  23.217   9.550   8.854
 1873POPC   D2A26200  22.916   9.595   8.515
 1873POPC   C3A26201  23.104   9.723   8.161
 1873POPC   C4A26202  23.142   9.712   7.741
 1873POPC   C1B26203  22.666  10.124   8.710
 1873POPC   C2B26204  22.754  10.093   8.275
 1873POPC   C3B26205  22.680   9.883   7.894
 1873POPC   C4B26206  22.645   9.473   7.666
 1874POPC   NC326207  41.501  32.660   9.391
 1874POPC   PO426208  41.872  33.144   9.470
 1874POPC   GL126209  41.758  32.994   9.102
 1874POPC   GL226210  41.383  33.090   9.112
 1874POPC   C1A26211  41.700  33.078   8.693
 1874POPC   D2A26212  41.586  32.820   8.352
 1874POPC   C3A26213  41.725  33.081   8.072
 1874POPC   C4A26214  41.741  32.930   7.680
 1874POPC   C1B26215  41.213  32.955   8.716
 1874POPC   C2B26216  41.252  33.199   8.325
 1874POPC   C3B26217  41.255  33.070   7.902
 1874POPC   C4B26218  41.248  33.019   7.466
 1875POPC   NC326219   4.233  20.563   9.701
 1875POPC   PO426220   4.772  20.342   9.574
 1875POPC   GL126221   4.564  20.595   9.216
 1875POPC   GL226222   4.224  20.568   9.164
 1875POPC   C1A26223   4.535  20.466   8.773
 1875POPC   D2A26224   4.418  20.669   8.376
 1875POPC   C3A26225   4.283  20.533   7.969
 1875POPC   C4A26226   4.368  20.754   7.573
 1875POPC   C1B26227   4.093  20.747   8.738
 1875POPC   C2B26228   3.941  20.837   8.271
 1875POPC   C3B26229   3.958  20.995   7.830
 1875POPC   C4B26230   3.724  20.964   7.420
 1876POPC   NC326231  18.538  37.275   9.449
 1876POPC   PO426232  17.991  37.731   9.524
 1876POPC   GL126233  18.163  37.877   9.152
 1876POPC   GL226234  18.516  37.749   9.189
 1876POPC   C1A26235  18.264  37.765   8.726
 1876POPC   D2A26236  18.114  37.449   8.434
 1876POPC   C3A26237  17.990  37.620   8.010
 1876POPC   C4A26238  18.208  37.907   7.752
 1876POPC   C1B26239  18.770  37.848   8.841
 1876POPC   C2B26240  18.624  37.996   8.441
 1876POPC   C3B26241  18.501  37.704   8.133
 1876POPC   C4B26242  18.646  37.649   7.719
 1877POPC   NC326243  32.809  17.161   9.459
 1877POPC   PO426244  33.233  17.606   9.573
 1877POPC   GL126245  33.045  17.514   9.199
 1877POPC   GL226246  32.763  17.679   9.151
 1877POPC   C1A26247  33.116  17.501   8.777
 1877POPC   D2A26248  33.051  17.673   8.386
 1877POPC   C3A26249  32.869  17.501   8.024
 1877POPC   C4A26250  33.097  17.606   7.674
 1877POPC   C1B26251  32.712  17.862   8.715
 1877POPC   C2B26252  32.596  17.916   8.256
 1877POPC   C3B26253  32.860  18.043   7.890
 1877POPC   C4B26254  32.962  17.999   7.399
 1878POPC   NC326255  31.855  33.427   9.774
 1878POPC   PO426256  32.340  33.802   9.532
 1878POPC   GL126257  32.106  33.708   9.166
 1878POPC   GL226258  32.039  33.376   9.294
 1878POPC   C1A26259  32.232  33.736   8.714
 1878POPC   D2A26260  32.517  33.906   8.387
 1878POPC   C3A26261  32.372  33.900   7.956
 1878POPC   C4A26262  32.339  33.674   7.562
 1878POPC   C1B26263  32.017  33.287   8.850
 1878POPC   C2B26264  31.922  33.456   8.417
 1878POPC   C3B26265  32.077  33.482   7.961
 1878POPC   C4B26266  31.850  33.512   7.567
 1879POPC   NC326267  18.009  10.968   9.429
 1879POPC   PO426268  18.643  11.038   9.359
 1879POPC   GL126269  18.304  11.256   9.115
 1879POPC   GL226270  18.042  11.031   8.925
 1879POPC   C1A26271  18.244  11.449   8.706
 1879POPC   D2A26272  18.182  11.209   8.319
 1879POPC   C3A26273  18.189  11.460   7.960
 1879POPC   C4A26274  18.504  11.724   7.745
 1879POPC   C1B26275  18.436  10.954   8.706
 1879POPC   C2B26276  18.608  10.850   8.294
 1879POPC   C3B26277  18.338  10.899   7.934
 1879POPC   C4B26278  17.982  11.018   7.748
 1880POPC   NC326279  39.795   5.841   9.418
 1880POPC   PO426280  40.533   5.714   9.380
 1880POPC   GL126281  40.232   5.837   9.114
 1880POPC   GL226282  39.976   5.590   8.993
 1880POPC   C1A26283  40.321   5.910   8.703
 1880POPC   D2A26284  40.211   6.221   8.416
 1880POPC   C3A26285  40.229   5.921   8.098
 1880POPC   C4A26286  40.150   5.890   7.684
 1880POPC   C1B26287  39.835   6.031   8.810
 1880POPC   C2B26288  39.705   6.203   8.438
 1880POPC   C3B26289  39.714   6.046   8.044
 1880POPC   C4B26290  39.640   6.015   7.604
 1881POPC   NC326291  17.581  24.602   9.437
 1881POPC   PO426292  17.093  24.196   9.609
 1881POPC   GL126293  17.209  24.431   9.127
 1881POPC   GL226294  17.606  24.494   8.963
 1881POPC   C1A26295  17.252  24.366   8.667
 1881POPC   D2A26296  17.576  24.437   8.342
 1881POPC   C3A26297  17.420  24.521   7.919
 1881POPC   C4A26298  17.368  24.303   7.477
 1881POPC   C1B26299  17.763  24.824   8.680
 1881POPC   C2B26300  17.557  24.975   8.290
 1881POPC   C3B26301  17.738  24.958   7.886
 1881POPC   C4B26302  17.646  24.715   7.504
 1882POPC   NC326303  38.057   2.958   9.596
 1882POPC   PO426304  38.532   2.559   9.789
 1882POPC   GL126305  38.420   2.715   9.338
 1882POPC   GL226306  38.278   2.417   9.261
 1882POPC   C1A26307  38.474   2.963   8.907
 1882POPC   D2A26308  38.579   2.843   8.434
 1882POPC   C3A26309  38.540   2.961   7.960
 1882POPC   C4A26310  38.202   3.075   7.654
 1882POPC   C1B26311  38.503   2.453   8.857
 1882POPC   C2B26312  38.511   2.328   8.418
 1882POPC   C3B26313  38.313   2.484   8.029
 1882POPC   C4B26314  38.354   2.607   7.588
 1883POPC   NC326315   2.393  25.289   9.522
 1883POPC   PO426316   3.041  25.470   9.625
 1883POPC   GL126317   2.844  25.368   9.264
 1883POPC   GL226318   2.676  25.678   9.282
 1883POPC   C1A26319   2.643  25.320   8.853
 1883POPC   D2A26320   2.818  25.396   8.424
 1883POPC   C3A26321   2.702  25.226   7.987
 1883POPC   C4A26322   2.941  24.971   7.696
 1883POPC   C1B26323   2.383  25.771   8.959
 1883POPC   C2B26324   2.402  25.668   8.547
 1883POPC   C3B26325   2.452  25.644   8.146
 1883POPC   C4B26326   2.396  25.655   7.733
 1884POPC   NC326327  20.982  40.864   9.312
 1884POPC   PO426328  21.015  40.211   9.587
 1884POPC   GL126329  20.859  40.427   9.120
 1884POPC   GL226330  20.546  40.696   9.117
 1884POPC   C1A26331  20.782  40.664   8.690
 1884POPC   D2A26332  20.698  41.023   8.385
 1884POPC   C3A26333  20.806  40.881   7.967
 1884POPC   C4A26334  20.514  40.592   7.810
 1884POPC   C1B26335  20.348  40.976   8.785
 1884POPC   C2B26336  20.148  41.010   8.344
 1884POPC   C3B26337  20.357  41.116   7.914
 1884POPC   C4B26338  20.329  40.881   7.448
 1885POPC   NC326339  32.743   0.160   9.360
 1885POPC   PO426340  33.227   0.759   9.503
 1885POPC   GL126341  33.110   0.481   9.177
 1885POPC   GL226342  32.777   0.590   9.086
 1885POPC   C1A26343  33.114   0.447   8.725
 1885POPC   D2A26344  33.315   0.297   8.347
 1885POPC   C3A26345  33.165   0.495   8.052
 1885POPC   C4A26346  33.048   0.525   7.676
 1885POPC   C1B26347  32.648   0.281   8.751
 1885POPC   C2B26348  32.817   0.182   8.365
 1885POPC   C3B26349  32.898   0.059   7.962
 1885POPC   C4B26350  32.920   0.068   7.551
 1886POPC   NC326351  32.089  32.538   9.891
 1886POPC   PO426352  32.397  32.070   9.554
 1886POPC   GL126353  32.253  32.334   9.226
 1886POPC   GL226354  31.898  32.385   9.247
 1886POPC   C1A26355  32.442  32.285   8.822
 1886POPC   D2A26356  32.525  32.007   8.472
 1886POPC   C3A26357  32.414  32.247   8.091
 1886POPC   C4A26358  32.325  32.105   7.732
 1886POPC   C1B26359  31.929  32.195   8.853
 1886POPC   C2B26360  32.065  32.279   8.455
 1886POPC   C3B26361  31.902  32.231   8.058
 1886POPC   C4B26362  31.930  32.441   7.705
 1887POPC   NC326363  14.225  43.383   9.500
 1887POPC   PO426364  14.671  42.927   9.392
 1887POPC   GL126365  14.399  43.084   9.109
 1887POPC   GL226366  14.186  42.799   9.144
 1887POPC   C1A26367  14.516  43.288   8.726
 1887POPC   D2A26368  14.476  43.602   8.386
 1887POPC   C3A26369  14.191  43.505   8.065
 1887POPC   C4A26370  14.275  43.353   7.676
 1887POPC   C1B26371  14.121  42.914   8.713
 1887POPC   C2B26372  14.256  43.086   8.321
 1887POPC   C3B26373  14.581  43.120   8.008
 1887POPC   C4B26374  14.435  42.880   7.650
 1888POPC   NC326375   3.552  29.603   9.397
 1888POPC   PO426376   3.278  29.008   9.372
 1888POPC   GL126377   3.550  29.187   9.082
 1888POPC   GL226378   3.848  29.019   9.143
 1888POPC   C1A26379   3.476  29.248   8.665
 1888POPC   D2A26380   3.228  28.953   8.424
 1888POPC   C3A26381   3.292  29.041   8.017
 1888POPC   C4A26382   3.515  29.380   7.839
 1888POPC   C1B26383   3.930  28.991   8.681
 1888POPC   C2B26384   3.781  29.109   8.269
 1888POPC   C3B26385   3.771  28.916   7.884
 1888POPC   C4B26386   3.827  29.049   7.464
 1889POPC   NC326387  24.627  37.195   9.381
 1889POPC   PO426388  24.253  36.742   9.368
 1889POPC   GL126389  24.526  36.506   9.064
 1889POPC   GL226390  24.752  36.781   9.055
 1889POPC   C1A26391  24.664  36.538   8.609
 1889POPC   D2A26392  24.631  36.848   8.316
 1889POPC   C3A26393  24.445  36.815   7.925
 1889POPC   C4A26394  24.271  36.844   7.516
 1889POPC   C1B26395  24.926  37.046   8.735
 1889POPC   C2B26396  25.014  37.190   8.327
 1889POPC   C3B26397  24.970  36.966   7.924
 1889POPC   C4B26398  24.975  37.129   7.495
 1890POPC   NC326399  14.950  43.307   9.429
 1890POPC   PO426400  15.286  42.703   9.543
 1890POPC   GL126401  15.141  42.867   9.180
 1890POPC   GL226402  15.332  43.178   9.088
 1890POPC   C1A26403  15.037  42.824   8.764
 1890POPC   D2A26404  15.251  43.101   8.490
 1890POPC   C3A26405  15.199  42.990   8.068
 1890POPC   C4A26406  14.948  42.855   7.708
 1890POPC   C1B26407  15.263  43.539   8.784
 1890POPC   C2B26408  15.454  43.575   8.377
 1890POPC   C3B26409  15.473  43.422   7.952
 1890POPC   C4B26410  15.117  43.350   7.714
 1891POPC   NC326411  12.521   1.397   9.526
 1891POPC   PO426412  13.136   1.039   9.524
 1891POPC   GL126413  12.779   1.042   9.241
 1891POPC   GL226414  12.799   1.368   9.094
 1891POPC   C1A26415  12.675   0.989   8.797
 1891POPC   D2A26416  13.035   1.113   8.576
 1891POPC   C3A26417  12.996   1.178   8.168
 1891POPC   C4A26418  12.784   1.179   7.771
 1891POPC   C1B26419  13.018   1.604   8.766
 1891POPC   C2B26420  13.143   1.673   8.337
 1891POPC   C3B26421  12.963   1.638   7.925
 1891POPC   C4B26422  12.890   1.620   7.451
 1892POPC   NC326423   2.481  30.940   9.332
 1892POPC   PO426424   2.725  30.335   9.441
 1892POPC   GL126425   2.826  30.587   9.125
 1892POPC   GL226426   3.173  30.562   9.090
 1892POPC   C1A26427   2.827  30.831   8.745
 1892POPC   D2A26428   2.851  31.030   8.345
 1892POPC   C3A26429   2.474  31.014   8.133
 1892POPC   C4A26430   2.660  30.892   7.798
 1892POPC   C1B26431   3.020  30.330   8.723
 1892POPC   C2B26432   2.942  30.504   8.351
 1892POPC   C3B26433   3.108  30.697   8.020
 1892POPC   C4B26434   2.916  30.482   7.742
 1893POPC   NC326435  41.736  38.832   9.447
 1893POPC   PO426436  41.673  39.470   9.250
 1893POPC   GL126437  41.609  39.110   9.028
 1893POPC   GL226438  41.293  38.948   9.112
 1893POPC   C1A26439  41.671  39.243   8.631
 1893POPC   D2A26440  41.967  39.249   8.365
 1893POPC   C3A26441  41.686  39.307   8.072
 1893POPC   C4A26442  41.741  39.280   7.695
 1893POPC   C1B26443  41.294  38.815   8.711
 1893POPC   C2B26444  41.191  38.736   8.304
 1893POPC   C3B26445  41.348  38.913   7.940
 1893POPC   C4B26446  41.240  39.252   7.693
 1894POPC   NC326447   0.895  24.818   9.342
 1894POPC   PO426448   1.044  25.442   9.549
 1894POPC   GL126449   0.960  25.294   9.186
 1894POPC   GL226450   1.296  25.203   9.173
 1894POPC   C1A26451   0.983  25.428   8.788
 1894POPC   D2A26452   1.140  25.611   8.478
 1894POPC   C3A26453   1.017  25.448   8.133
 1894POPC   C4A26454   1.287  25.427   7.823
 1894POPC   C1B26455   1.255  25.006   8.786
 1894POPC   C2B26456   1.041  25.015   8.409
 1894POPC   C3B26457   1.160  24.935   7.960
 1894POPC   C4B26458   1.427  24.839   7.589
 1895POPC   NC326459   2.439  29.948   9.450
 1895POPC   PO426460   3.120  29.772   9.473
 1895POPC   GL126461   2.856  29.712   9.106
 1895POPC   GL226462   2.723  30.054   9.023
 1895POPC   C1A26463   2.871  29.760   8.642
 1895POPC   D2A26464   2.661  30.075   8.386
 1895POPC   C3A26465   2.673  29.976   7.969
 1895POPC   C4A26466   3.016  29.663   7.925
 1895POPC   C1B26467   2.513  30.397   8.751
 1895POPC   C2B26468   2.420  30.515   8.271
 1895POPC   C3B26469   2.399  30.428   7.784
 1895POPC   C4B26470   2.499  30.112   7.395
 1896POPC   NC326471   6.012   8.626   9.697
 1896POPC   PO426472   6.188   9.191   9.383
 1896POPC   GL126473   5.878   8.905   9.213
 1896POPC   GL226474   6.118   8.666   9.177
 1896POPC   C1A26475   5.686   8.794   8.787
 1896POPC   D2A26476   5.450   8.858   8.369
 1896POPC   C3A26477   5.698   9.002   7.984
 1896POPC   C4A26478   5.610   9.205   7.583
 1896POPC   C1B26479   6.241   8.895   8.797
 1896POPC   C2B26480   6.295   9.059   8.393
 1896POPC   C3B26481   6.234   8.915   7.994
 1896POPC   C4B26482   6.258   8.797   7.580
 1897POPC   NC326483  30.611  43.516   9.410
 1897POPC   PO426484  30.719  42.895   9.665
 1897POPC   GL126485  30.813  42.907   9.228
 1897POPC   GL226486  30.505  43.058   9.147
 1897POPC   C1A26487  30.782  42.856   8.767
 1897POPC   D2A26488  30.706  43.084   8.382
 1897POPC   C3A26489  30.833  42.912   8.019
 1897POPC   C4A26490  30.687  42.956   7.632
 1897POPC   C1B26491  30.506  43.336   8.773
 1897POPC   C2B26492  30.309  43.449   8.366
 1897POPC   C3B26493  30.420  43.298   7.927
 1897POPC   C4B26494  30.426  43.330   7.438
 1898POPC   NC326495  43.154  39.144   9.333
 1898POPC   PO426496  42.616  39.417   9.445
 1898POPC   GL126497  42.939  39.517   9.093
 1898POPC   GL226498  43.365  39.501   9.053
 1898POPC   C1A26499  43.037  39.391   8.692
 1898POPC   D2A26500  43.045  39.500   8.301
 1898POPC   C3A26501  42.870  39.223   8.033
 1898POPC   C4A26502  43.048  39.091   7.659
 1898POPC   C1B26503  43.451  39.102   8.780
 1898POPC   C2B26504  43.254  39.041   8.405
 1898POPC   C3B26505  43.376  39.218   8.037
 1898POPC   C4B26506  43.597  39.012   7.791
 1899POPC   NC326507   3.827  19.113   9.516
 1899POPC   PO426508   3.119  18.955   9.510
 1899POPC   GL126509   3.308  19.166   9.146
 1899POPC   GL226510   3.659  19.201   9.049
 1899POPC   C1A26511   3.311  18.933   8.755
 1899POPC   D2A26512   3.526  18.800   8.377
 1899POPC   C3A26513   3.376  18.868   7.959
 1899POPC   C4A26514   3.733  18.815   7.686
 1899POPC   C1B26515   3.606  19.347   8.632
 1899POPC   C2B26516   3.458  19.316   8.209
 1899POPC   C3B26517   3.632  19.320   7.784
 1899POPC   C4B26518   3.467  19.357   7.366
 1900POPC   NC326519  21.271   1.538   9.535
 1900POPC   PO426520  21.526   0.892   9.485
 1900POPC   GL126521  21.468   1.216   9.183
 1900POPC   GL226522  21.112   1.295   9.120
 1900POPC   C1A26523  21.518   1.201   8.755
 1900POPC   D2A26524  21.766   1.131   8.427
 1900POPC   C3A26525  21.554   1.236   8.066
 1900POPC   C4A26526  21.455   1.226   7.639
 1900POPC   C1B26527  21.095   1.482   8.699
 1900POPC   C2B26528  21.156   1.528   8.246
 1900POPC   C3B26529  20.995   1.666   7.852
 1900POPC   C4B26530  21.055   1.452   7.446
 1901POPC   NC326531  44.459  19.144   9.685
 1901POPC   PO426532  44.954  18.797   9.509
 1901POPC   GL126533  44.748  19.083   9.264
 1901POPC   GL226534  44.499  18.809   9.277
 1901POPC   C1A26535  44.719  19.107   8.838
 1901POPC   D2A26536  44.386  19.129   8.516
 1901POPC   C3A26537  44.559  19.271   8.118
 1901POPC   C4A26538  44.854  19.058   7.836
 1901POPC   C1B26539  44.411  18.707   8.865
 1901POPC   C2B26540  44.290  18.598   8.448
 1901POPC   C3B26541  44.285  18.833   8.095
 1901POPC   C4B26542  44.418  18.802   7.717
 1902POPC   NC326543  28.024  22.317   9.818
 1902POPC   PO426544  28.475  21.895   9.542
 1902POPC   GL126545  28.187  22.135   9.257
 1902POPC   GL226546  28.488  22.149   9.054
 1902POPC   C1A26547  28.046  22.239   8.808
 1902POPC   D2A26548  28.339  22.333   8.483
 1902POPC   C3A26549  28.326  22.339   8.016
 1902POPC   C4A26550  27.984  22.169   7.756
 1902POPC   C1B26551  28.653  21.977   8.679
 1902POPC   C2B26552  28.442  21.867   8.292
 1902POPC   C3B26553  28.518  21.674   7.899
 1902POPC   C4B26554  28.441  21.976   7.591
 1903POPC   NC326555   5.509  44.566   9.552
 1903POPC   PO426556   5.989  44.995   9.471
 1903POPC   GL126557   5.911  44.570   9.228
 1903POPC   GL226558   5.583  44.374   9.091
 1903POPC   C1A26559   6.027  44.454   8.828
 1903POPC   D2A26560   6.249  44.645   8.538
 1903POPC   C3A26561   6.102  44.569   8.156
 1903POPC   C4A26562   6.075  44.778   7.797
 1903POPC   C1B26563   5.587  44.723   8.817
 1903POPC   C2B26564   5.618  44.770   8.362
 1903POPC   C3B26565   5.605  44.633   7.930
 1903POPC   C4B26566   5.392  44.242   7.758
 1904POPC   NC326567   7.587  10.671   9.657
 1904POPC   PO426568   8.292  10.613   9.567
 1904POPC   GL126569   8.196  10.647   9.177
 1904POPC   GL226570   7.886  10.773   9.261
 1904POPC   C1A26571   8.384  10.548   8.790
 1904POPC   D2A26572   8.602  10.540   8.410
 1904POPC   C3A26573   8.398  10.628   8.069
 1904POPC   C4A26574   8.137  10.460   7.742
 1904POPC   C1B26575   7.865  10.844   8.843
 1904POPC   C2B26576   8.093  10.829   8.465
 1904POPC   C3B26577   7.921  10.787   8.084
 1904POPC   C4B26578   8.102  10.961   7.777
 1905POPC   NC326579  30.429  44.468   9.434
 1905POPC   PO426580  29.795  44.598   9.716
 1905POPC   GL126581  29.953  44.737   9.286
 1905POPC   GL226582  30.245  44.963   9.227
 1905POPC   C1A26583  29.819  44.696   8.848
 1905POPC   D2A26584  29.581  44.622   8.470
 1905POPC   C3A26585  29.815  44.643   8.077
 1905POPC   C4A26586  29.854  44.437   7.675
 1905POPC   C1B26587  30.334  44.728   8.817
 1905POPC   C2B26588  30.213  44.524   8.422
 1905POPC   C3B26589  30.314  44.675   8.010
 1905POPC   C4B26590  30.397   0.007   7.735
 1906POPC   NC326591  39.558  25.374   9.761
 1906POPC   PO426592  40.233  25.570   9.537
 1906POPC   GL126593  40.174  25.596   9.079
 1906POPC   GL226594  39.821  25.546   8.958
 1906POPC   C1A26595  40.197  25.338   8.692
 1906POPC   D2A26596  39.981  25.325   8.308
 1906POPC   C3A26597  40.131  25.216   7.900
 1906POPC   C4A26598  39.855  25.412   7.605
 1906POPC   C1B26599  39.685  25.175   8.737
 1906POPC   C2B26600  39.660  24.928   8.389
 1906POPC   C3B26601  39.662  25.065   7.987
 1906POPC   C4B26602  39.684  24.933   7.573
 1907POPC   NC326603  16.543  29.107   9.469
 1907POPC   PO426604  17.065  28.717   9.774
 1907POPC   GL126605  16.960  28.862   9.273
 1907POPC   GL226606  16.955  29.247   9.192
 1907POPC   C1A26607  16.665  28.958   8.868
 1907POPC   D2A26608  16.594  29.207   8.477
 1907POPC   C3A26609  16.603  29.009   8.069
 1907POPC   C4A26610  16.710  28.774   7.729
 1907POPC   C1B26611  16.874  29.480   8.809
 1907POPC   C2B26612  16.927  29.643   8.395
 1907POPC   C3B26613  16.773  29.484   8.042
 1907POPC   C4B26614  16.334  29.461   8.008
 1908POPC   NC326615  14.802  22.200   9.431
 1908POPC   PO426616  15.538  22.368   9.610
 1908POPC   GL126617  15.290  22.255   9.201
 1908POPC   GL226618  15.049  21.979   9.067
 1908POPC   C1A26619  15.163  22.387   8.776
 1908POPC   D2A26620  15.340  22.486   8.364
 1908POPC   C3A26621  15.181  22.375   7.979
 1908POPC   C4A26622  14.859  22.401   7.721
 1908POPC   C1B26623  14.993  21.923   8.664
 1908POPC   C2B26624  15.195  21.960   8.266
 1908POPC   C3B26625  14.992  21.911   7.854
 1908POPC   C4B26626  14.889  21.633   7.433
 1909POPC   NC326627  34.043  22.077   9.945
 1909POPC   PO426628  33.653  22.569   9.585
 1909POPC   GL126629  33.820  22.357   9.159
 1909POPC   GL226630  33.940  22.618   8.912
 1909POPC   C1A26631  34.109  22.138   8.810
 1909POPC   D2A26632  33.985  21.950   8.375
 1909POPC   C3A26633  34.092  22.002   7.909
 1909POPC   C4A26634  33.888  22.057   7.466
 1909POPC   C1B26635  33.623  22.294   8.696
 1909POPC   C2B26636  33.460  22.013   8.360
 1909POPC   C3B26637  33.609  22.158   7.972
 1909POPC   C4B26638  33.434  22.292   7.598
 1910POPC   NC326639  27.140  34.801   9.530
 1910POPC   PO426640  26.717  34.351   9.687
 1910POPC   GL126641  26.914  34.287   9.242
 1910POPC   GL226642  27.004  34.600   9.101
 1910POPC   C1A26643  26.727  34.297   8.807
 1910POPC   D2A26644  26.549  34.471   8.418
 1910POPC   C3A26645  26.624  34.258   8.013
 1910POPC   C4A26646  26.726  34.406   7.610
 1910POPC   C1B26647  26.763  34.793   8.787
 1910POPC   C2B26648  26.834  34.907   8.372
 1910POPC   C3B26649  26.801  34.730   8.018
 1910POPC   C4B26650  26.951  34.843   7.663
 1911POPC   NC326651  39.699  15.826   9.897
 1911POPC   PO426652  40.094  16.179   9.488
 1911POPC   GL126653  40.108  15.955   9.133
 1911POPC   GL226654  39.808  15.780   9.105
 1911POPC   C1A26655  40.294  15.935   8.741
 1911POPC   D2A26656  40.081  15.844   8.357
 1911POPC   C3A26657  40.197  16.032   7.994
 1911POPC   C4A26658  40.209  15.834   7.613
 1911POPC   C1B26659  39.781  16.026   8.731
 1911POPC   C2B26660  39.580  15.986   8.342
 1911POPC   C3B26661  39.699  15.787   7.958
 1911POPC   C4B26662  39.737  16.052   7.638
 1912POPC   NC326663  33.895  43.644   9.451
 1912POPC   PO426664  33.543  44.198   9.380
 1912POPC   GL126665  33.957  44.151   9.172
 1912POPC   GL226666  34.067  43.834   8.999
 1912POPC   C1A26667  33.800  44.207   8.767
 1912POPC   D2A26668  33.680  44.040   8.390
 1912POPC   C3A26669  33.899  44.139   8.024
 1912POPC   C4A26670  33.590  44.242   7.700
 1912POPC   C1B26671  33.721  43.660   8.756
 1912POPC   C2B26672  33.634  43.528   8.326
 1912POPC   C3B26673  33.816  43.640   7.933
 1912POPC   C4B26674  33.687  43.762   7.540
 1913POPC   NC326675   9.158  43.294   9.528
 1913POPC   PO426676   8.711  42.817   9.442
 1913POPC   GL126677   8.884  43.119   9.125
 1913POPC   GL226678   9.265  43.048   9.113
 1913POPC   C1A26679   8.858  43.304   8.678
 1913POPC   D2A26680   8.843  43.042   8.271
 1913POPC   C3A26681   8.858  43.077   7.784
 1913POPC   C4A26682   8.762  42.884   7.344
 1913POPC   C1B26683   9.197  42.921   8.730
 1913POPC   C2B26684   9.367  42.791   8.385
 1913POPC   C3B26685   9.291  42.965   8.007
 1913POPC   C4B26686   9.367  43.214   7.670
 1914POPC   NC326687  28.977  14.024   9.592
 1914POPC   PO426688  29.183  14.644   9.425
 1914POPC   GL126689  29.115  14.388   9.089
 1914POPC   GL226690  29.213  14.030   9.163
 1914POPC   C1A26691  29.019  14.546   8.688
 1914POPC   D2A26692  29.281  14.611   8.331
 1914POPC   C3A26693  29.010  14.552   8.004
 1914POPC   C4A26694  29.068  14.258   7.711
 1914POPC   C1B26695  29.467  14.023   8.839
 1914POPC   C2B26696  29.243  14.121   8.477
 1914POPC   C3B26697  29.384  14.102   8.065
 1914POPC   C4B26698  29.350  13.847   7.677
 1915POPC   NC326699  37.923  18.921   9.489
 1915POPC   PO426700  37.341  19.308   9.604
 1915POPC   GL126701  37.502  19.120   9.237
 1915POPC   GL226702  37.549  19.437   9.071
 1915POPC   C1A26703  37.663  18.964   8.825
 1915POPC   D2A26704  37.809  18.989   8.382
 1915POPC   C3A26705  37.539  19.188   8.058
 1915POPC   C4A26706  37.678  19.094   7.598
 1915POPC   C1B26707  37.794  19.437   8.685
 1915POPC   C2B26708  38.030  19.483   8.351
 1915POPC   C3B26709  38.003  19.352   7.947
 1915POPC   C4B26710  38.097  19.589   7.618
 1916POPC   NC326711  16.885  26.087   9.540
 1916POPC   PO426712  16.265  26.243   9.261
 1916POPC   GL126713  16.621  26.074   9.091
 1916POPC   GL226714  16.935  26.298   9.084
 1916POPC   C1A26715  16.703  25.992   8.674
 1916POPC   D2A26716  16.875  25.832   8.319
 1916POPC   C3A26717  16.669  26.005   7.950
 1916POPC   C4A26718  16.477  26.166   7.568
 1916POPC   C1B26719  17.182  26.134   8.766
 1916POPC   C2B26720  17.111  26.300   8.362
 1916POPC   C3B26721  17.157  26.125   7.954
 1916POPC   C4B26722  16.977  25.976   7.561
 1917POPC   NC326723  13.159  31.862   9.881
 1917POPC   PO426724  12.580  31.997   9.512
 1917POPC   GL126725  12.799  32.173   9.163
 1917POPC   GL226726  13.138  32.328   9.227
 1917POPC   C1A26727  12.702  32.200   8.734
 1917POPC   D2A26728  12.636  31.943   8.393
 1917POPC   C3A26729  12.751  32.145   8.037
 1917POPC   C4A26730  12.788  32.174   7.597
 1917POPC   C1B26731  13.236  32.272   8.797
 1917POPC   C2B26732  13.207  32.480   8.389
 1917POPC   C3B26733  13.075  32.562   7.941
 1917POPC   C4B26734  13.187  32.466   7.504
 1918POPC   NC326735  42.170   2.764   9.411
 1918POPC   PO426736  42.808   2.625   9.524
 1918POPC   GL126737  42.575   2.755   9.094
 1918POPC   GL226738  42.243   2.597   8.938
 1918POPC   C1A26739  42.585   2.831   8.627
 1918POPC   D2A26740  42.225   2.616   8.412
 1918POPC   C3A26741  42.254   2.482   7.984
 1918POPC   C4A26742  42.402   2.740   7.628
 1918POPC   C1B26743  42.110   2.982   8.768
 1918POPC   C2B26744  42.229   3.156   8.411
 1918POPC   C3B26745  42.445   2.993   8.073
 1918POPC   C4B26746  42.191   3.178   7.709
 1919POPC   NC326747  22.521  44.549   9.442
 1919POPC   PO426748  21.990  44.911   9.421
 1919POPC   GL126749  22.091  44.656   9.144
 1919POPC   GL226750  22.016  44.321   9.201
 1919POPC   C1A26751  22.295  44.811   8.800
 1919POPC   D2A26752  22.242   0.060   8.468
 1919POPC   C3A26753  22.144  44.844   8.110
 1919POPC   C4A26754  21.920   0.034   7.751
 1919POPC   C1B26755  22.008  44.394   8.729
 1919POPC   C2B26756  22.293  44.358   8.403
 1919POPC   C3B26757  22.103  44.307   8.039
 1919POPC   C4B26758  22.031  44.537   7.703
 1920POPC   NC326759  32.656  23.948   9.430
 1920POPC   PO426760  32.008  23.773   9.577
 1920POPC   GL126761  32.189  23.951   9.199
 1920POPC   GL226762  32.360  23.625   9.115
 1920POPC   C1A26763  32.411  23.986   8.772
 1920POPC   D2A26764  32.536  23.843   8.360
 1920POPC   C3A26765  32.348  24.056   8.056
 1920POPC   C4A26766  32.179  23.881   7.685
 1920POPC   C1B26767  32.208  23.507   8.680
 1920POPC   C2B26768  32.094  23.581   8.226
 1920POPC   C3B26769  32.272  23.396   7.832
 1920POPC   C4B26770  32.303  23.516   7.356
 1921POPC   NC326771   8.071  35.923   9.539
 1921POPC   PO426772   8.216  36.618   9.537
 1921POPC   GL126773   8.058  36.457   9.174
 1921POPC   GL226774   8.334  36.213   9.145
 1921POPC   C1A26775   7.909  36.313   8.773
 1921POPC   D2A26776   8.044  36.224   8.360
 1921POPC   C3A26777   7.810  36.307   8.002
 1921POPC   C4A26778   7.910  36.037   7.694
 1921POPC   C1B26779   8.451  36.229   8.706
 1921POPC   C2B26780   8.545  36.108   8.269
 1921POPC   C3B26781   8.346  35.861   7.931
 1921POPC   C4B26782   8.386  35.981   7.502
 1922POPC   NC326783  42.093  36.001   9.474
 1922POPC   PO426784  42.702  36.414   9.523
 1922POPC   GL126785  42.427  36.288   9.189
 1922POPC   GL226786  42.475  35.918   9.166
 1922POPC   C1A26787  42.160  36.167   8.815
 1922POPC   D2A26788  42.341  36.103   8.410
 1922POPC   C3A26789  42.201  36.051   7.973
 1922POPC   C4A26790  42.278  36.292   7.578
 1922POPC   C1B26791  42.518  35.761   8.792
 1922POPC   C2B26792  42.805  35.829   8.478
 1922POPC   C3B26793  42.629  35.800   8.100
 1922POPC   C4B26794  42.759  35.756   7.720
 1923POPC   NC326795  19.946  13.723   9.547
 1923POPC   PO426796  19.313  13.696   9.431
 1923POPC   GL126797  19.621  13.565   9.185
 1923POPC   GL226798  19.730  13.904   9.138
 1923POPC   C1A26799  19.712  13.447   8.796
 1923POPC   D2A26800  19.597  13.661   8.425
 1923POPC   C3A26801  19.760  13.435   8.107
 1923POPC   C4A26802  19.840  13.440   7.697
 1923POPC   C1B26803  19.886  13.930   8.757
 1923POPC   C2B26804  20.083  13.821   8.365
 1923POPC   C3B26805  19.936  13.945   7.961
 1923POPC   C4B26806  20.101  13.844   7.572
 1924POPC   NC326807  36.749  30.958   9.729
 1924POPC   PO426808  37.299  30.579   9.519
 1924POPC   GL126809  37.158  30.513   9.098
 1924POPC   GL226810  36.821  30.484   9.241
 1924POPC   C1A26811  37.088  30.431   8.665
 1924POPC   D2A26812  37.048  30.791   8.417
 1924POPC   C3A26813  36.818  30.836   8.030
 1924POPC   C4A26814  37.011  31.081   7.708
 1924POPC   C1B26815  36.730  30.745   8.871
 1924POPC   C2B26816  36.545  30.629   8.453
 1924POPC   C3B26817  36.393  30.350   8.125
 1924POPC   C4B26818  36.604  30.442   7.741
 1925POPC   NC326819   5.085  44.054   9.488
 1925POPC   PO426820   4.674  43.601   9.538
 1925POPC   GL126821   4.992  43.596   9.195
 1925POPC   GL226822   5.368  43.641   9.273
 1925POPC   C1A26823   4.919  43.702   8.751
 1925POPC   D2A26824   4.867  44.054   8.477
 1925POPC   C3A26825   4.982  44.023   8.045
 1925POPC   C4A26826   4.915  43.730   7.735
 1925POPC   C1B26827   5.371  43.900   8.894
 1925POPC   C2B26828   5.330  43.815   8.448
 1925POPC   C3B26829   5.471  43.774   8.031
 1925POPC   C4B26830   5.398  43.708   7.602
 1926POPC   NC326831   6.979  26.133   9.542
 1926POPC   PO426832   6.486  25.657   9.490
 1926POPC   GL126833   6.484  25.996   9.188
 1926POPC   GL226834   6.813  26.097   9.077
 1926POPC   C1A26835   6.443  26.070   8.736
 1926POPC   D2A26836   6.664  25.818   8.429
 1926POPC   C3A26837   6.434  25.770   8.064
 1926POPC   C4A26838   6.270  26.020   7.720
 1926POPC   C1B26839   6.886  26.344   8.727
 1926POPC   C2B26840   6.695  26.325   8.333
 1926POPC   C3B26841   6.829  26.103   7.962
 1926POPC   C4B26842   6.967  25.728   7.801
 1927POPC   NC326843  18.623   0.969   9.497
 1927POPC   PO426844  19.299   1.264   9.408
 1927POPC   GL126845  18.913   1.209   9.166
 1927POPC   GL226846  18.754   1.533   9.151
 1927POPC   C1A26847  18.820   0.970   8.782
 1927POPC   D2A26848  18.905   1.133   8.368
 1927POPC   C3A26849  18.923   0.958   7.961
 1927POPC   C4A26850  18.963   1.079   7.514
 1927POPC   C1B26851  19.069   1.488   8.779
 1927POPC   C2B26852  19.084   1.606   8.336
 1927POPC   C3B26853  19.142   1.424   7.900
 1927POPC   C4B26854  19.262   1.486   7.445
 1928POPC   NC326855   8.030   6.786   9.503
 1928POPC   PO426856   8.355   6.150   9.545
 1928POPC   GL126857   8.187   6.431   9.179
 1928POPC   GL226858   7.863   6.623   9.046
 1928POPC   C1A26859   8.327   6.744   8.860
 1928POPC   D2A26860   8.258   6.881   8.461
 1928POPC   C3A26861   8.183   6.552   8.189
 1928POPC   C4A26862   8.268   6.766   7.846
 1928POPC   C1B26863   7.849   6.992   8.736
 1928POPC   C2B26864   7.827   7.084   8.249
 1928POPC   C3B26865   7.804   7.005   7.772
 1928POPC   C4B26866   8.041   6.782   7.394
 1929POPC   NC326867  19.251  12.682   9.824
 1929POPC   PO426868  18.880  12.801   9.321
 1929POPC   GL126869  19.136  12.876   9.063
 1929POPC   GL226870  19.372  12.661   9.193
 1929POPC   C1A26871  19.167  12.741   8.666
 1929POPC   D2A26872  18.911  12.660   8.339
 1929POPC   C3A26873  18.923  12.950   8.040
 1929POPC   C4A26874  18.912  12.721   7.675
 1929POPC   C1B26875  19.604  12.915   8.867
 1929POPC   C2B26876  19.484  13.101   8.488
 1929POPC   C3B26877  19.399  12.821   8.159
 1929POPC   C4B26878  19.488  13.050   7.821
 1930POPC   NC326879   7.086  44.128   9.473
 1930POPC   PO426880   7.498  44.695   9.661
 1930POPC   GL126881   7.271  44.723   9.272
 1930POPC   GL226882   7.552  44.868   9.097
 1930POPC   C1A26883   7.306  44.502   8.866
 1930POPC   D2A26884   7.593  44.663   8.531
 1930POPC   C3A26885   7.489  44.516   8.112
 1930POPC   C4A26886   7.619  44.805   7.814
 1930POPC   C1B26887   7.247   0.000   8.790
 1930POPC   C2B26888   7.357   0.127   8.381
 1930POPC   C3B26889   7.201  44.995   8.007
 1930POPC   C4B26890   6.888  44.865   7.742
 1931POPC   NC326891  33.263  41.321   9.462
 1931POPC   PO426892  32.966  41.895   9.336
 1931POPC   GL126893  33.020  41.585   9.071
 1931POPC   GL226894  33.377  41.656   9.048
 1931POPC   C1A26895  32.825  41.512   8.678
 1931POPC   D2A26896  32.932  41.279   8.310
 1931POPC   C3A26897  32.911  41.501   7.936
 1931POPC   C4A26898  33.009  41.919   7.918
 1931POPC   C1B26899  33.356  41.284   8.796
 1931POPC   C2B26900  33.414  41.095   8.416
 1931POPC   C3B26901  33.349  41.196   7.999
 1931POPC   C4B26902  33.424  41.611   7.789
 1932POPC   NC326903  26.420   6.764   9.461
 1932POPC   PO426904  25.776   6.412   9.491
 1932POPC   GL126905  26.046   6.540   9.171
 1932POPC   GL226906  26.015   6.880   9.208
 1932POPC   C1A26907  26.289   6.429   8.803
 1932POPC   D2A26908  26.327   6.612   8.367
 1932POPC   C3A26909  26.284   6.394   7.967
 1932POPC   C4A26910  26.076   6.588   7.586
 1932POPC   C1B26911  26.191   6.931   8.816
 1932POPC   C2B26912  25.976   7.028   8.452
 1932POPC   C3B26913  26.096   6.997   8.045
 1932POPC   C4B26914  26.138   7.162   7.638
 1933POPC   NC326915   7.147   7.807   9.568
 1933POPC   PO426916   7.647   7.390   9.390
 1933POPC   GL126917   7.256   7.456   9.163
 1933POPC   GL226918   7.049   7.124   9.070
 1933POPC   C1A26919   7.327   7.682   8.791
 1933POPC   D2A26920   7.648   7.545   8.473
 1933POPC   C3A26921   7.517   7.459   8.043
 1933POPC   C4A26922   7.647   7.484   7.625
 1933POPC   C1B26923   7.339   7.032   8.798
 1933POPC   C2B26924   7.317   7.143   8.400
 1933POPC   C3B26925   7.068   7.199   8.046
 1933POPC   C4B26926   7.238   7.168   7.620
 1934POPC   NC326927   0.819  13.882   9.608
 1934POPC   PO426928   0.253  13.691   9.514
 1934POPC   GL126929   0.304  13.631   9.104
 1934POPC   GL226930   0.658  13.721   9.130
 1934POPC   C1A26931   0.287  13.419   8.734
 1934POPC   D2A26932   0.457  13.153   8.426
 1934POPC   C3A26933   0.328  13.361   8.070
 1934POPC   C4A26934   0.138  13.662   7.808
 1934POPC   C1B26935   0.795  13.554   8.734
 1934POPC   C2B26936   0.766  13.596   8.284
 1934POPC   C3B26937   0.785  13.612   7.884
 1934POPC   C4B26938   0.532  13.378   7.608
 1935POPC   NC326939  43.743  16.057   9.571
 1935POPC   PO426940  44.266  15.717   9.213
 1935POPC   GL126941  43.902  15.922   9.097
 1935POPC   GL226942  43.981  16.252   9.134
 1935POPC   C1A26943  43.756  16.015   8.696
 1935POPC   D2A26944  44.042  15.979   8.323
 1935POPC   C3A26945  43.813  15.722   8.034
 1935POPC   C4A26946  43.798  15.743   7.565
 1935POPC   C1B26947  43.915  16.494   8.775
 1935POPC   C2B26948  43.759  16.410   8.319
 1935POPC   C3B26949  43.817  16.191   7.868
 1935POPC   C4B26950  44.080  16.151   7.418
 1936POPC   NC326951  41.292  23.592   9.619
 1936POPC   PO426952  41.895  23.708   9.755
 1936POPC   GL126953  41.587  23.824   9.292
 1936POPC   GL226954  41.248  23.730   9.133
 1936POPC   C1A26955  41.641  23.757   8.814
 1936POPC   D2A26956  41.548  23.971   8.424
 1936POPC   C3A26957  41.695  23.747   8.108
 1936POPC   C4A26958  41.816  23.740   7.725
 1936POPC   C1B26959  41.175  23.963   8.775
 1936POPC   C2B26960  41.028  23.755   8.424
 1936POPC   C3B26961  41.194  23.749   8.042
 1936POPC   C4B26962  41.374  24.002   7.732
 1937POPC   NC326963  13.008  19.388   9.499
 1937POPC   PO426964  12.509  19.752   9.483
 1937POPC   GL126965  12.908  19.824   9.236
 1937POPC   GL226966  12.713  20.045   9.051
 1937POPC   C1A26967  13.114  19.848   8.800
 1937POPC   D2A26968  12.980  20.107   8.431
 1937POPC   C3A26969  13.083  19.936   8.027
 1937POPC   C4A26970  13.214  19.586   7.781
 1937POPC   C1B26971  12.632  19.643   8.830
 1937POPC   C2B26972  12.744  19.631   8.409
 1937POPC   C3B26973  12.587  19.793   8.044
 1937POPC   C4B26974  12.749  19.736   7.649
 1938POPC   NC326975  15.864   1.417   9.556
 1938POPC   PO426976  15.410   0.891   9.567
 1938POPC   GL126977  15.603   1.091   9.234
 1938POPC   GL226978  15.947   1.022   9.227
 1938POPC   C1A26979  15.671   1.253   8.816
 1938POPC   D2A26980  15.852   1.474   8.463
 1938POPC   C3A26981  15.850   1.174   8.113
 1938POPC   C4A26982  15.703   1.219   7.701
 1938POPC   C1B26983  16.168   1.149   8.855
 1938POPC   C2B26984  16.299   1.206   8.444
 1938POPC   C3B26985  16.371   1.006   8.077
 1938POPC   C4B26986  16.211   1.077   7.716
 1939POPC   NC326987  10.116  21.520   9.530
 1939POPC   PO426988   9.421  21.505   9.618
 1939POPC   GL126989   9.693  21.466   9.231
 1939POPC   GL226990   9.918  21.764   9.145
 1939POPC   C1A26991   9.652  21.345   8.773
 1939POPC   D2A26992   9.379  21.112   8.458
 1939POPC   C3A26993   9.591  21.074   8.052
 1939POPC   C4A26994   9.932  20.965   7.796
 1939POPC   C1B26995   9.583  21.863   8.894
 1939POPC   C2B26996   9.505  21.777   8.477
 1939POPC   C3B26997   9.534  21.899   8.046
 1939POPC   C4B26998   9.704  21.556   7.774
 1940POPC   NC326999  39.781  30.848   9.442
 1940POPC   PO427000  39.116  30.702   9.537
 1940POPC   GL127001  39.007  30.674   9.131
 1940POPC   GL227002  38.821  30.403   9.038
 1940POPC   C1A27003  39.103  30.830   8.722
 1940POPC   D2A27004  38.908  30.702   8.322
 1940POPC   C3A27005  39.242  30.651   8.027
 1940POPC   C4A27006  39.279  30.975   7.697
 1940POPC   C1B27007  39.037  30.320   8.683
 1940POPC   C2B27008  38.940  30.184   8.289
 1940POPC   C3B27009  38.848  30.333   7.898
 1940POPC   C4B27010  38.802  30.754   7.791
 1941POPC   NC327011  28.783  20.112   9.546
 1941POPC   PO427012  28.185  20.261   9.600
 1941POPC   GL127013  28.362  19.947   9.294
 1941POPC   GL227014  28.612  19.667   9.274
 1941POPC   C1A27015  28.395  19.900   8.860
 1941POPC   D2A27016  28.455  20.103   8.477
 1941POPC   C3A27017  28.454  19.861   8.097
 1941POPC   C4A27018  28.488  19.893   7.681
 1941POPC   C1B27019  28.694  19.495   8.845
 1941POPC   C2B27020  28.652  19.470   8.380
 1941POPC   C3B27021  28.595  19.385   7.907
 1941POPC   C4B27022  28.812  19.522   7.512
 1942POPC   NC327023   1.673  19.687   9.374
 1942POPC   PO427024   2.329  19.554   9.634
 1942POPC   GL127025   2.224  19.616   9.134
 1942POPC   GL227026   1.925  19.447   8.987
 1942POPC   C1A27027   2.095  19.801   8.676
 1942POPC   D2A27028   2.067  19.720   8.220
 1942POPC   C3A27029   2.111  19.993   7.893
 1942POPC   C4A27030   2.332  19.947   7.536
 1942POPC   C1B27031   1.577  19.602   8.726
 1942POPC   C2B27032   1.547  19.730   8.310
 1942POPC   C3B27033   1.688  19.665   7.896
 1942POPC   C4B27034   1.807  19.860   7.507
 1943POPC   NC327035  43.823  19.401   9.536
 1943POPC   PO427036  43.787  20.130   9.639
 1943POPC   GL127037  43.890  19.830   9.229
 1943POPC   GL227038  44.161  19.732   9.182
 1943POPC   C1A27039  43.770  19.756   8.733
 1943POPC   D2A27040  43.572  19.781   8.322
 1943POPC   C3A27041  43.640  20.132   8.081
 1943POPC   C4A27042  43.693  20.004   7.686
 1943POPC   C1B27043  44.259  19.781   8.745
 1943POPC   C2B27044  44.058  20.033   8.400
 1943POPC   C3B27045  44.041  19.821   7.986
 1943POPC   C4B27046  44.116  19.732   7.515
 1944POPC   NC327047   6.231  29.353   9.508
 1944POPC   PO427048   6.831  29.290   9.515
 1944POPC   GL127049   6.715  29.133   9.130
 1944POPC   GL227050   6.404  29.236   9.058
 1944POPC   C1A27051   6.741  29.225   8.672
 1944POPC   D2A27052   6.980  29.063   8.319
 1944POPC   C3A27053   6.748  29.035   7.938
 1944POPC   C4A27054   6.662  29.443   7.787
 1944POPC   C1B27055   6.241  29.084   8.692
 1944POPC   C2B27056   6.396  29.228   8.272
 1944POPC   C3B27057   6.231  29.170   7.850
 1944POPC   C4B27058   6.317  29.214   7.379
 1945POPC   NC327059  30.373   1.809   9.563
 1945POPC   PO427060  30.890   1.593   9.185
 1945POPC   GL127061  30.597   1.944   9.078
 1945POPC   GL227062  30.239   2.052   9.146
 1945POPC   C1A27063  30.459   2.149   8.688
 1945POPC   D2A27064  30.530   2.248   8.275
 1945POPC   C3A27065  30.959   2.225   8.125
 1945POPC   C4A27066  31.046   2.142   7.704
 1945POPC   C1B27067  30.238   1.714   8.802
 1945POPC   C2B27068  30.345   1.671   8.307
 1945POPC   C3B27069  30.413   1.923   7.882
 1945POPC   C4B27070  30.253   1.886   7.426
 1946POPC   NC327071  28.104   8.043   9.376
 1946POPC   PO427072  27.401   8.288   9.538
 1946POPC   GL127073  27.566   8.029   9.224
 1946POPC   GL227074  27.238   7.854   9.189
 1946POPC   C1A27075  27.767   8.177   8.850
 1946POPC   D2A27076  27.718   8.389   8.467
 1946POPC   C3A27077  27.629   8.268   8.052
 1946POPC   C4A27078  27.811   8.308   7.650
 1946POPC   C1B27079  27.256   8.088   8.790
 1946POPC   C2B27080  27.233   8.216   8.371
 1946POPC   C3B27081  27.093   8.035   7.992
 1946POPC   C4B27082  27.347   8.035   7.635
 1947POPC   NC327083  15.420  22.834   9.601
 1947POPC   PO427084  14.844  22.653   9.345
 1947POPC   GL127085  15.232  22.820   9.124
 1947POPC   GL227086  15.446  23.143   9.196
 1947POPC   C1A27087  15.265  22.874   8.691
 1947POPC   D2A27088  14.945  22.828   8.337
 1947POPC   C3A27089  15.030  22.847   7.877
 1947POPC   C4A27090  15.044  22.836   7.400
 1947POPC   C1B27091  15.349  23.362   8.797
 1947POPC   C2B27092  15.213  23.276   8.392
 1947POPC   C3B27093  15.051  23.323   8.011
 1947POPC   C4B27094  15.263  23.245   7.646
 1948POPC   NC327095  35.110  10.595   9.686
 1948POPC   PO427096  35.461  10.155   9.551
 1948POPC   GL127097  35.276  10.196   9.141
 1948POPC   GL227098  35.041  10.383   9.214
 1948POPC   C1A27099  35.291  10.387   8.718
 1948POPC   D2A27100  35.290  10.579   8.286
 1948POPC   C3A27101  35.375  10.289   7.937
 1948POPC   C4A27102  35.631  10.346   7.542
 1948POPC   C1B27103  34.864  10.599   8.880
 1948POPC   C2B27104  34.770  10.515   8.473
 1948POPC   C3B27105  34.824  10.787   8.155
 1948POPC   C4B27106  35.033  10.646   7.826
 1949POPC   NC327107  38.318   0.432   9.927
 1949POPC   PO427108  37.890   0.416   9.368
 1949POPC   GL127109  37.537   0.419   9.109
 1949POPC   GL227110  37.660   0.120   8.990
 1949POPC   C1A27111  37.515   0.471   8.649
 1949POPC   D2A27112  37.358   0.370   8.235
 1949POPC   C3A27113  37.407   0.681   7.905
 1949POPC   C4A27114  37.798   0.683   7.694
 1949POPC   C1B27115  37.587  44.950   8.634
 1949POPC   C2B27116  37.568  44.885   8.249
 1949POPC   C3B27117  37.337  44.948   7.938
 1949POPC   C4B27118  37.644   0.210   7.760
 1950POPC   NC327119  31.027  26.200   9.495
 1950POPC   PO427120  31.664  25.977   9.477
 1950POPC   GL127121  31.401  26.097   9.136
 1950POPC   GL227122  31.173  25.811   9.178
 1950POPC   C1A27123  31.362  26.158   8.676
 1950POPC   D2A27124  31.750  26.253   8.397
 1950POPC   C3A27125  31.696  26.102   7.961
 1950POPC   C4A27126  31.269  26.156   7.792
 1950POPC   C1B27127  31.205  25.663   8.758
 1950POPC   C2B27128  31.169  25.808   8.337
 1950POPC   C3B27129  31.362  25.696   7.965
 1950POPC   C4B27130  31.544  25.640   7.588
 1951POPC   NC327131  42.473  41.917   9.513
 1951POPC   PO427132  41.995  41.486   9.366
 1951POPC   GL127133  42.379  41.425   9.164
 1951POPC   GL227134  42.511  41.731   9.055
 1951POPC   C1A27135  42.433  41.298   8.741
 1951POPC   D2A27136  42.348  41.509   8.361
 1951POPC   C3A27137  42.220  41.299   7.993
 1951POPC   C4A27138  42.474  41.437   7.660
 1951POPC   C1B27139  42.217  41.834   8.771
 1951POPC   C2B27140  42.118  41.967   8.370
 1951POPC   C3B27141  42.174  41.816   7.943
 1951POPC   C4B27142  41.856  41.793   7.633
 1952POPC   NC327143  10.083  37.507   9.527
 1952POPC   PO427144   9.469  37.574   9.409
 1952POPC   GL127145   9.791  37.735   9.126
 1952POPC   GL227146  10.018  37.455   9.038
 1952POPC   C1A27147   9.716  38.002   8.740
 1952POPC   D2A27148   9.541  38.183   8.345
 1952POPC   C3A27149   9.577  37.920   7.994
 1952POPC   C4A27150   9.549  37.976   7.554
 1952POPC   C1B27151   9.747  37.477   8.691
 1952POPC   C2B27152   9.882  37.623   8.316
 1952POPC   C3B27153  10.033  37.431   7.962
 1952POPC   C4B27154   9.632  37.453   7.774
 1953POPC   NC327155  42.199   4.449   9.680
 1953POPC   PO427156  42.228   3.755   9.704
 1953POPC   GL127157  42.157   4.128   9.277
 1953POPC   GL227158  42.066   4.519   9.196
 1953POPC   C1A27159  42.479   4.254   8.887
 1953POPC   D2A27160  42.787   4.293   8.527
 1953POPC   C3A27161  42.639   4.332   8.083
 1953POPC   C4A27162  42.393   4.265   7.692
 1953POPC   C1B27163  41.991   4.322   8.796
 1953POPC   C2B27164  42.208   4.343   8.422
 1953POPC   C3B27165  42.116   4.501   8.033
 1953POPC   C4B27166  41.848   4.297   7.740
 1954POPC   NC327167   6.898  23.573   9.424
 1954POPC   PO427168   6.265  23.762   9.623
 1954POPC   GL127169   6.379  23.765   9.158
 1954POPC   GL227170   6.519  23.475   9.060
 1954POPC   C1A27171   6.377  23.876   8.705
 1954POPC   D2A27172   6.609  23.854   8.346
 1954POPC   C3A27173   6.447  23.589   8.049
 1954POPC   C4A27174   6.310  23.704   7.669
 1954POPC   C1B27175   6.823  23.570   8.744
 1954POPC   C2B27176   6.973  23.485   8.352
 1954POPC   C3B27177   6.946  23.585   7.963
 1954POPC   C4B27178   6.763  23.912   7.741
 1955POPC   NC327179  35.904  27.028   9.513
 1955POPC   PO427180  36.503  26.688   9.666
 1955POPC   GL127181  36.362  26.707   9.198
 1955POPC   GL227182  36.050  26.802   9.042
 1955POPC   C1A27183  36.482  26.848   8.775
 1955POPC   D2A27184  36.177  26.837   8.469
 1955POPC   C3A27185  36.203  26.543   8.148
 1955POPC   C4A27186  36.264  26.907   7.907
 1955POPC   C1B27187  35.737  26.757   8.722
 1955POPC   C2B27188  35.722  26.607   8.317
 1955POPC   C3B27189  35.748  26.736   7.886
 1955POPC   C4B27190  35.939  26.837   7.487
 1956POPC   NC327191  31.664  20.796   9.508
 1956POPC   PO427192  31.040  20.817   9.384
 1956POPC   GL127193  31.212  20.597   9.016
 1956POPC   GL227194  31.585  20.545   9.055
 1956POPC   C1A27195  31.361  20.425   8.588
 1956POPC   D2A27196  31.650  20.185   8.285
 1956POPC   C3A27197  31.661  20.438   7.907
 1956POPC   C4A27198  31.246  20.571   7.790
 1956POPC   C1B27199  31.552  20.919   8.771
 1956POPC   C2B27200  31.461  21.008   8.319
 1956POPC   C3B27201  31.597  20.952   7.874
 1956POPC   C4B27202  31.648  21.157   7.436
 1957POPC   NC327203   1.643  13.817   9.517
 1957POPC   PO427204   2.193  13.430   9.716
 1957POPC   GL127205   2.165  13.431   9.265
 1957POPC   GL227206   1.872  13.595   9.107
 1957POPC   C1A27207   2.220  13.364   8.820
 1957POPC   D2A27208   2.162  13.599   8.437
 1957POPC   C3A27209   2.071  13.441   8.025
 1957POPC   C4A27210   2.242  13.772   7.881
 1957POPC   C1B27211   1.692  13.635   8.668
 1957POPC   C2B27212   1.688  13.717   8.215
 1957POPC   C3B27213   1.715  13.710   7.764
 1957POPC   C4B27214   1.590  13.875   7.324
 1958POPC   NC327215  11.962   7.134   9.432
 1958POPC   PO427216  11.542   7.654   9.642
 1958POPC   GL127217  11.940   7.660   9.360
 1958POPC   GL227218  12.298   7.506   9.278
 1958POPC   C1A27219  11.976   7.659   8.920
 1958POPC   D2A27220  12.048   7.516   8.499
 1958POPC   C3A27221  11.882   7.622   8.092
 1958POPC   C4A27222  12.188   7.693   7.778
 1958POPC   C1B27223  12.316   7.262   8.852
 1958POPC   C2B27224  12.437   7.197   8.430
 1958POPC   C3B27225  12.200   7.094   8.099
 1958POPC   C4B27226  12.378   7.175   7.728
 1959POPC   NC327227  41.833   5.719   9.390
 1959POPC   PO427228  42.499   5.857   9.579
 1959POPC   GL127229  42.310   5.868   9.174
 1959POPC   GL227230  42.291   5.519   9.149
 1959POPC   C1A27231  42.095   5.840   8.743
 1959POPC   D2A27232  41.990   5.904   8.283
 1959POPC   C3A27233  42.323   6.050   7.989
 1959POPC   C4A27234  42.340   6.021   7.550
 1959POPC   C1B27235  42.557   5.586   8.771
 1959POPC   C2B27236  42.494   5.697   8.324
 1959POPC   C3B27237  42.516   5.616   7.837
 1959POPC   C4B27238  42.556   5.597   7.380
 1960POPC   NC327239  38.930  28.453   9.556
 1960POPC   PO427240  38.297  28.264   9.522
 1960POPC   GL127241  38.405  28.305   9.146
 1960POPC   GL227242  38.681  28.108   9.164
 1960POPC   C1A27243  38.272  28.503   8.741
 1960POPC   D2A27244  38.113  28.272   8.367
 1960POPC   C3A27245  38.236  28.419   7.941
 1960POPC   C4A27246  38.423  28.211   7.569
 1960POPC   C1B27247  38.750  28.348   8.788
 1960POPC   C2B27248  38.603  28.412   8.361
 1960POPC   C3B27249  38.698  28.181   7.997
 1960POPC   C4B27250  38.970  28.083   7.636
 1961POPC   NC327251  34.913  20.920   9.385
 1961POPC   PO427252  34.272  20.965   9.417
 1961POPC   GL127253  34.502  20.758   9.099
 1961POPC   GL227254  34.548  20.410   9.141
 1961POPC   C1A27255  34.743  20.668   8.724
 1961POPC   D2A27256  34.994  20.615   8.345
 1961POPC   C3A27257  34.710  20.606   8.010
 1961POPC   C4A27258  34.289  20.777   7.871
 1961POPC   C1B27259  34.300  20.324   8.783
 1961POPC   C2B27260  34.417  20.399   8.383
 1961POPC   C3B27261  34.177  20.317   8.028
 1961POPC   C4B27262  33.945  20.436   7.702
 1962POPC   NC327263   7.627  42.666   9.508
 1962POPC   PO427264   7.274  42.059   9.469
 1962POPC   GL127265   7.221  42.386   9.185
 1962POPC   GL227266   7.109  42.704   9.315
 1962POPC   C1A27267   7.509  42.497   8.866
 1962POPC   D2A27268   7.611  42.467   8.442
 1962POPC   C3A27269   7.451  42.164   8.149
 1962POPC   C4A27270   7.452  42.306   7.726
 1962POPC   C1B27271   7.055  42.770   8.855
 1962POPC   C2B27272   7.179  42.843   8.400
 1962POPC   C3B27273   7.124  42.579   8.015
 1962POPC   C4B27274   7.047  42.551   7.553
 1963POPC   NC327275  19.237  38.869   9.544
 1963POPC   PO427276  18.944  39.378   9.718
 1963POPC   GL127277  19.101  39.363   9.262
 1963POPC   GL227278  19.044  39.028   9.090
 1963POPC   C1A27279  18.930  39.456   8.830
 1963POPC   D2A27280  18.921  39.250   8.397
 1963POPC   C3A27281  18.830  39.501   8.043
 1963POPC   C4A27282  18.875  39.308   7.653
 1963POPC   C1B27283  19.309  39.130   8.712
 1963POPC   C2B27284  19.496  39.219   8.346
 1963POPC   C3B27285  19.308  39.267   7.948
 1963POPC   C4B27286  19.406  39.112   7.536
 1964POPC   NC327287  18.728  31.666   9.474
 1964POPC   PO427288  19.363  31.317   9.451
 1964POPC   GL127289  19.113  31.512   9.077
 1964POPC   GL227290  18.769  31.402   9.058
 1964POPC   C1A27291  18.992  31.470   8.617
 1964POPC   D2A27292  19.187  31.197   8.319
 1964POPC   C3A27293  19.371  31.437   8.032
 1964POPC   C4A27294  19.165  31.670   7.724
 1964POPC   C1B27295  18.647  31.799   8.836
 1964POPC   C2B27296  18.700  31.862   8.411
 1964POPC   C3B27297  18.810  31.555   8.096
 1964POPC   C4B27298  18.612  31.511   7.694
 1965POPC   NC327299  44.959  43.751   9.478
 1965POPC   PO427300   0.658  43.934   9.420
 1965POPC   GL127301   0.338  43.819   9.133
 1965POPC   GL227302   0.136  44.122   9.171
 1965POPC   C1A27303   0.206  43.891   8.699
 1965POPC   D2A27304   0.338  43.658   8.352
 1965POPC   C3A27305   0.665  43.874   8.140
 1965POPC   C4A27306   0.819  43.802   7.747
 1965POPC   C1B27307   0.264  44.405   8.844
 1965POPC   C2B27308   0.096  44.377   8.448
 1965POPC   C3B27309   0.174  44.100   8.115
 1965POPC   C4B27310   0.297  44.051   7.698
 1966POPC   NC327311  20.464  23.098   9.567
 1966POPC   PO427312  20.541  22.464   9.781
 1966POPC   GL127313  20.699  22.638   9.349
 1966POPC   GL227314  20.449  22.836   9.132
 1966POPC   C1A27315  20.869  22.684   8.896
 1966POPC   D2A27316  20.782  22.953   8.544
 1966POPC   C3A27317  20.674  22.720   8.164
 1966POPC   C4A27318  20.850  22.855   7.769
 1966POPC   C1B27319  20.329  23.067   8.743
 1966POPC   C2B27320  20.248  22.967   8.320
 1966POPC   C3B27321  20.353  23.054   7.877
 1966POPC   C4B27322  20.200  23.017   7.457
 1967POPC   NC327323  37.908  26.420   9.778
 1967POPC   PO427324  37.576  25.861   9.530
 1967POPC   GL127325  37.694  25.979   9.119
 1967POPC   GL227326  37.706  26.348   9.216
 1967POPC   C1A27327  37.676  25.879   8.654
 1967POPC   D2A27328  37.513  25.970   8.257
 1967POPC   C3A27329  37.724  25.851   7.897
 1967POPC   C4A27330  37.510  25.814   7.491
 1967POPC   C1B27331  37.770  26.369   8.762
 1967POPC   C2B27332  37.886  26.526   8.367
 1967POPC   C3B27333  37.693  26.573   7.987
 1967POPC   C4B27334  37.615  26.299   7.650
 1968POPC   NC327335  23.227  28.742   9.500
 1968POPC   PO427336  23.087  29.525   9.514
 1968POPC   GL127337  23.070  29.395   9.125
 1968POPC   GL227338  22.951  29.089   9.127
 1968POPC   C1A27339  23.041  29.359   8.706
 1968POPC   D2A27340  22.841  29.514   8.368
 1968POPC   C3A27341  22.963  29.314   8.017
 1968POPC   C4A27342  22.727  29.295   7.659
 1968POPC   C1B27343  22.833  28.885   8.750
 1968POPC   C2B27344  23.017  28.694   8.382
 1968POPC   C3B27345  22.848  28.809   7.985
 1968POPC   C4B27346  22.762  28.798   7.544
 1969POPC   NC327347  22.905   6.551   9.587
 1969POPC   PO427348  23.330   6.942   9.390
 1969POPC   GL127349  22.955   6.710   9.110
 1969POPC   GL227350  22.598   6.497   9.191
 1969POPC   C1A27351  22.990   6.826   8.671
 1969POPC   D2A27352  23.303   6.668   8.383
 1969POPC   C3A27353  23.206   6.748   7.965
 1969POPC   C4A27354  22.868   7.034   7.823
 1969POPC   C1B27355  22.550   6.564   8.757
 1969POPC   C2B27356  22.767   6.514   8.349
 1969POPC   C3B27357  22.722   6.527   7.925
 1969POPC   C4B27358  22.550   6.154   7.736
 1970POPC   NC327359  22.707  32.510   9.268
 1970POPC   PO427360  22.857  33.121   9.555
 1970POPC   GL127361  23.155  33.108   9.222
 1970POPC   GL227362  23.171  32.748   9.174
 1970POPC   C1A27363  23.109  33.346   8.827
 1970POPC   D2A27364  22.899  33.299   8.398
 1970POPC   C3A27365  23.129  33.294   7.988
 1970POPC   C4A27366  23.153  33.221   7.535
 1970POPC   C1B27367  23.009  32.847   8.767
 1970POPC   C2B27368  23.195  32.794   8.370
 1970POPC   C3B27369  22.954  32.825   8.046
 1970POPC   C4B27370  22.913  32.709   7.667
 1971POPC   NC327371  32.957  13.501   9.596
 1971POPC   PO427372  33.303  13.957   9.379
 1971POPC   GL127373  33.007  13.723   9.119
 1971POPC   GL227374  32.838  13.362   9.116
 1971POPC   C1A27375  33.135  13.591   8.740
 1971POPC   D2A27376  33.008  13.793   8.401
 1971POPC   C3A27377  33.294  13.707   8.108
 1971POPC   C4A27378  33.095  13.640   7.755
 1971POPC   C1B27379  32.639  13.455   8.688
 1971POPC   C2B27380  32.587  13.518   8.231
 1971POPC   C3B27381  32.655  13.415   7.803
 1971POPC   C4B27382  32.746  13.512   7.344
 1972POPC   NC327383  10.967  31.034   9.997
 1972POPC   PO427384  11.298  30.749   9.464
 1972POPC   GL127385  11.077  30.569   9.104
 1972POPC   GL227386  11.379  30.656   8.968
 1972POPC   C1A27387  10.999  30.674   8.651
 1972POPC   D2A27388  11.358  30.677   8.412
 1972POPC   C3A27389  11.197  30.641   7.994
 1972POPC   C4A27390  11.273  30.700   7.568
 1972POPC   C1B27391  11.671  30.376   8.926
 1972POPC   C2B27392  11.734  30.314   8.549
 1972POPC   C3B27393  11.605  30.286   8.131
 1972POPC   C4B27394  11.697  30.528   7.824
 1973POPC   NC327395  43.604   9.661   9.382
 1973POPC   PO427396  44.272   9.485   9.439
 1973POPC   GL127397  44.022   9.555   9.094
 1973POPC   GL227398  43.981   9.923   9.049
 1973POPC   C1A27399  43.741   9.613   8.732
 1973POPC   D2A27400  43.566   9.875   8.403
 1973POPC   C3A27401  43.704   9.706   8.044
 1973POPC   C4A27402  43.850   9.672   7.668
 1973POPC   C1B27403  43.934  10.143   8.665
 1973POPC   C2B27404  44.050  10.034   8.241
 1973POPC   C3B27405  44.062  10.121   7.801
 1973POPC   C4B27406  44.118  10.002   7.331
 1974POPC   NC327407  21.738   4.371   9.506
 1974POPC   PO427408  22.440   4.562   9.557
 1974POPC   GL127409  22.221   4.354   9.268
 1974POPC   GL227410  22.080   4.652   9.112
 1974POPC   C1A27411  22.273   4.144   8.885
 1974POPC   D2A27412  22.190   4.325   8.475
 1974POPC   C3A27413  22.088   4.159   8.075
 1974POPC   C4A27414  22.415   4.028   7.832
 1974POPC   C1B27415  21.987   4.750   8.677
 1974POPC   C2B27416  22.026   4.748   8.208
 1974POPC   C3B27417  21.971   4.639   7.777
 1974POPC   C4B27418  21.747   4.611   7.360
 1975POPC   NC327419   2.068   6.266   9.565
 1975POPC   PO427420   1.901   6.910   9.574
 1975POPC   GL127421   1.806   6.687   9.217
 1975POPC   GL227422   2.115   6.549   9.139
 1975POPC   C1A27423   1.827   6.802   8.787
 1975POPC   D2A27424   1.822   6.609   8.401
 1975POPC   C3A27425   1.751   6.852   8.056
 1975POPC   C4A27426   1.875   6.590   7.790
 1975POPC   C1B27427   2.412   6.322   8.880
 1975POPC   C2B27428   2.402   6.190   8.464
 1975POPC   C3B27429   2.278   6.352   8.075
 1975POPC   C4B27430   2.232   6.263   7.637
 1976POPC   NC327431  41.264  29.652   9.394
 1976POPC   PO427432  41.638  30.182   9.535
 1976POPC   GL127433  41.642  30.053   9.136
 1976POPC   GL227434  41.681  30.376   9.011
 1976POPC   C1A27435  41.619  29.785   8.788
 1976POPC   D2A27436  41.773  29.606   8.439
 1976POPC   C3A27437  41.708  29.804   8.078
 1976POPC   C4A27438  41.590  29.962   7.687
 1976POPC   C1B27439  41.358  30.254   8.732
 1976POPC   C2B27440  41.311  30.053   8.346
 1976POPC   C3B27441  41.226  30.176   7.959
 1976POPC   C4B27442  41.173  30.172   7.515
 1977POPC   NC327443  14.804  16.299   9.543
 1977POPC   PO427444  15.334  15.865   9.549
 1977POPC   GL127445  15.142  16.016   9.200
 1977POPC   GL227446  15.001  15.675   9.163
 1977POPC   C1A27447  15.278  16.059   8.777
 1977POPC   D2A27448  15.475  15.840   8.441
 1977POPC   C3A27449  15.438  15.976   8.040
 1977POPC   C4A27450  15.352  15.928   7.624
 1977POPC   C1B27451  14.847  15.779   8.739
 1977POPC   C2B27452  14.973  15.906   8.320
 1977POPC   C3B27453  15.014  15.653   7.937
 1977POPC   C4B27454  14.949  15.594   7.511
 1978POPC   NC327455   8.445  43.307   9.407
 1978POPC   PO427456   7.758  43.119   9.460
 1978POPC   GL127457   8.047  43.125   9.142
 1978POPC   GL227458   7.932  43.399   9.015
 1978POPC   C1A27459   8.244  42.935   8.772
 1978POPC   D2A27460   8.060  42.698   8.437
 1978POPC   C3A27461   8.128  42.823   8.049
 1978POPC   C4A27462   8.417  42.819   7.721
 1978POPC   C1B27463   8.306  43.461   8.776
 1978POPC   C2B27464   8.447  43.444   8.363
 1978POPC   C3B27465   8.412  43.255   7.999
 1978POPC   C4B27466   8.090  43.215   7.716
 1979POPC   NC327467  26.535   4.216   9.530
 1979POPC   PO427468  27.140   4.540   9.502
 1979POPC   GL127469  26.910   4.368   9.146
 1979POPC   GL227470  26.588   4.513   9.122
 1979POPC   C1A27471  27.012   4.104   8.774
 1979POPC   D2A27472  26.954   3.825   8.398
 1979POPC   C3A27473  26.980   4.108   8.055
 1979POPC   C4A27474  26.902   4.351   7.681
 1979POPC   C1B27475  26.666   4.635   8.710
 1979POPC   C2B27476  26.645   4.449   8.298
 1979POPC   C3B27477  26.535   4.635   7.908
 1979POPC   C4B27478  26.522   4.631   7.435
 1980POPC   NC327479  20.387  18.029   9.441
 1980POPC   PO427480  21.081  18.072   9.331
 1980POPC   GL127481  20.729  18.252   9.078
 1980POPC   GL227482  20.488  18.511   9.234
 1980POPC   C1A27483  20.584  18.249   8.640
 1980POPC   D2A27484  20.479  18.101   8.206
 1980POPC   C3A27485  20.790  18.274   7.872
 1980POPC   C4A27486  20.952  18.699   7.726
 1980POPC   C1B27487  20.439  18.731   8.838
 1980POPC   C2B27488  20.257  18.613   8.477
 1980POPC   C3B27489  20.535  18.616   8.144
 1980POPC   C4B27490  20.454  18.613   7.718
 1981POPC   NC327491  27.246   6.281   9.381
 1981POPC   PO427492  27.022   5.533   9.460
 1981POPC   GL127493  26.830   5.718   9.066
 1981POPC   GL227494  26.893   6.077   9.048
 1981POPC   C1A27495  26.458   5.888   8.839
 1981POPC   D2A27496  26.427   6.089   8.439
 1981POPC   C3A27497  26.640   5.870   8.133
 1981POPC   C4A27498  26.649   6.029   7.751
 1981POPC   C1B27499  26.927   6.012   8.603
 1981POPC   C2B27500  27.076   6.150   8.197
 1981POPC   C3B27501  27.129   5.915   7.809
 1981POPC   C4B27502  26.978   5.736   7.427
 1982POPC   NC327503  44.004  42.584   9.591
 1982POPC   PO427504  43.531  42.185   9.463
 1982POPC   GL127505  43.779  42.065   9.124
 1982POPC   GL227506  44.158  42.176   9.169
 1982POPC   C1A27507  43.674  42.204   8.734
 1982POPC   D2A27508  43.604  42.553   8.489
 1982POPC   C3A27509  43.685  42.363   8.100
 1982POPC   C4A27510  43.499  42.351   7.721
 1982POPC   C1B27511  44.113  42.448   8.824
 1982POPC   C2B27512  44.103  42.549   8.374
 1982POPC   C3B27513  44.187  42.432   7.962
 1982POPC   C4B27514  44.253  42.640   7.556
 1983POPC   NC327515   7.386  40.915   9.471
 1983POPC   PO427516   7.822  40.444   9.545
 1983POPC   GL127517   7.554  40.592   9.149
 1983POPC   GL227518   7.196  40.621   9.061
 1983POPC   C1A27519   7.564  40.886   8.817
 1983POPC   D2A27520   7.473  40.681   8.425
 1983POPC   C3A27521   7.730  40.798   8.100
 1983POPC   C4A27522   7.633  41.000   7.723
 1983POPC   C1B27523   7.062  40.904   8.705
 1983POPC   C2B27524   7.155  41.037   8.267
 1983POPC   C3B27525   7.213  40.798   7.892
 1983POPC   C4B27526   7.104  40.815   7.448
 1984POPC   NC327527  29.988  18.049   9.466
 1984POPC   PO427528  29.712  18.711   9.440
 1984POPC   GL127529  29.909  18.451   9.132
 1984POPC   GL227530  29.689  18.231   9.070
 1984POPC   C1A27531  30.085  18.299   8.728
 1984POPC   D2A27532  30.047  18.020   8.395
 1984POPC   C3A27533  29.885  18.209   8.020
 1984POPC   C4A27534  30.075  18.130   7.676
 1984POPC   C1B27535  29.615  17.994   8.710
 1984POPC   C2B27536  29.568  18.270   8.423
 1984POPC   C3B27537  29.449  18.452   8.084
 1984POPC   C4B27538  29.355  18.265   7.768
 1985POPC   NC327539  44.964  19.633   9.351
 1985POPC   PO427540   0.632  19.991   9.560
 1985POPC   GL127541   0.470  20.052   9.160
 1985POPC   GL227542   0.125  20.040   9.108
 1985POPC   C1A27543   0.469  19.801   8.780
 1985POPC   D2A27544   0.359  19.612   8.398
 1985POPC   C3A27545   0.589  19.799   8.075
 1985POPC   C4A27546   0.501  20.011   7.685
 1985POPC   C1B27547  44.984  19.954   8.692
 1985POPC   C2B27548  44.897  20.018   8.256
 1985POPC   C3B27549   0.077  19.814   7.884
 1985POPC   C4B27550   0.089  19.864   7.400
 1986POPC   NC327551   6.809  42.133   9.450
 1986POPC   PO427552   6.594  42.766   9.463
 1986POPC   GL127553   6.688  42.461   9.077
 1986POPC   GL227554   6.427  42.176   9.022
 1986POPC   C1A27555   6.874  42.072   8.804
 1986POPC   D2A27556   6.635  41.843   8.457
 1986POPC   C3A27557   6.575  42.071   8.046
 1986POPC   C4A27558   6.797  42.135   7.618
 1986POPC   C1B27559   6.522  42.368   8.583
 1986POPC   C2B27560   6.658  42.664   8.242
 1986POPC   C3B27561   6.580  42.548   7.813
 1986POPC   C4B27562   6.593  42.676   7.379
 1987POPC   NC327563  43.156  36.449   9.624
 1987POPC   PO427564  43.302  35.731   9.490
 1987POPC   GL127565  43.262  36.128   9.234
 1987POPC   GL227566  42.939  36.110   9.179
 1987POPC   C1A27567  43.244  36.285   8.798
 1987POPC   D2A27568  43.320  36.055   8.410
 1987POPC   C3A27569  43.176  36.167   7.994
 1987POPC   C4A27570  43.196  35.991   7.578
 1987POPC   C1B27571  42.734  36.229   8.782
 1987POPC   C2B27572  42.795  36.324   8.315
 1987POPC   C3B27573  42.687  36.239   7.863
 1987POPC   C4B27574  42.761  36.156   7.398
 1988POPC   NC327575  26.372  37.204   9.705
 1988POPC   PO427576  25.867  36.942   9.347
 1988POPC   GL127577  25.984  36.924   8.968
 1988POPC   GL227578  26.245  37.175   9.069
 1988POPC   C1A27579  25.781  36.829   8.588
 1988POPC   D2A27580  26.026  36.898   8.206
 1988POPC   C3A27581  25.851  36.892   7.810
 1988POPC   C4A27582  25.831  36.787   7.396
 1988POPC   C1B27583  26.368  37.075   8.646
 1988POPC   C2B27584  26.538  36.797   8.327
 1988POPC   C3B27585  26.459  36.788   7.895
 1988POPC   C4B27586  26.314  36.861   7.485
 1989POPC   NC327587  32.165   8.582   9.377
 1989POPC   PO427588  32.474   9.142   9.492
 1989POPC   GL127589  32.238   9.039   9.127
 1989POPC   GL227590  31.906   9.175   9.084
 1989POPC   C1A27591  32.129   8.812   8.746
 1989POPC   D2A27592  32.027   8.799   8.315
 1989POPC   C3A27593  32.346   8.871   8.028
 1989POPC   C4A27594  32.572   8.942   7.674
 1989POPC   C1B27595  31.910   9.373   8.689
 1989POPC   C2B27596  31.900   9.317   8.238
 1989POPC   C3B27597  31.810   9.025   7.875
 1989POPC   C4B27598  31.703   9.075   7.408
 1990POPC   NC327599   7.634   1.047   9.752
 1990POPC   PO427600   7.002   1.156   9.655
 1990POPC   GL127601   7.334   1.145   9.303
 1990POPC   GL227602   7.309   0.847   9.084
 1990POPC   C1A27603   7.420   1.254   8.839
 1990POPC   D2A27604   7.176   1.025   8.541
 1990POPC   C3A27605   7.259   1.122   8.107
 1990POPC   C4A27606   7.382   1.440   7.796
 1990POPC   C1B27607   7.656   0.784   8.819
 1990POPC   C2B27608   7.668   0.944   8.452
 1990POPC   C3B27609   7.680   0.815   8.076
 1990POPC   C4B27610   7.604   0.979   7.728
 1991POPC   NC327611  18.517   8.007   9.470
 1991POPC   PO427612  17.864   7.904   9.488
 1991POPC   GL127613  18.102   8.186   9.180
 1991POPC   GL227614  18.477   8.244   9.037
 1991POPC   C1A27615  18.042   8.079   8.757
 1991POPC   D2A27616  18.183   8.211   8.376
 1991POPC   C3A27617  17.959   8.183   8.005
 1991POPC   C4A27618  18.338   8.108   7.837
 1991POPC   C1B27619  18.322   8.534   8.746
 1991POPC   C2B27620  18.367   8.801   8.415
 1991POPC   C3B27621  18.237   8.629   8.077
 1991POPC   C4B27622  18.376   8.606   7.738
 1992POPC   NC327623  18.213  32.523   9.479
 1992POPC   PO427624  18.345  31.902   9.669
 1992POPC   GL127625  18.349  32.049   9.228
 1992POPC   GL227626  17.986  32.033   9.228
 1992POPC   C1A27627  18.300  32.385   8.869
 1992POPC   D2A27628  18.429  32.584   8.475
 1992POPC   C3A27629  18.108  32.525   8.158
 1992POPC   C4A27630  18.110  32.302   7.770
 1992POPC   C1B27631  17.998  31.990   8.796
 1992POPC   C2B27632  18.236  32.066   8.399
 1992POPC   C3B27633  18.385  31.916   7.983
 1992POPC   C4B27634  18.171  31.784   7.606
 1993POPC   NC327635  17.001  41.490   9.686
 1993POPC   PO427636  16.346  41.506   9.595
 1993POPC   GL127637  16.585  41.695   9.242
 1993POPC   GL227638  16.847  41.473   9.189
 1993POPC   C1A27639  16.715  41.787   8.794
 1993POPC   D2A27640  16.947  41.758   8.404
 1993POPC   C3A27641  16.687  41.718   8.023
 1993POPC   C4A27642  16.709  41.839   7.599
 1993POPC   C1B27643  16.829  41.265   8.787
 1993POPC   C2B27644  17.103  41.264   8.423
 1993POPC   C3B27645  17.038  41.305   7.985
 1993POPC   C4B27646  16.701  41.098   7.765
 1994POPC   NC327647  44.806  15.190   9.612
 1994POPC   PO427648  44.281  15.634   9.731
 1994POPC   GL127649  44.383  15.245   9.322
 1994POPC   GL227650  44.728  15.124   9.132
 1994POPC   C1A27651  44.350  15.143   8.816
 1994POPC   D2A27652  44.623  15.115   8.441
 1994POPC   C3A27653  44.487  15.083   8.020
 1994POPC   C4A27654  44.500  15.164   7.583
 1994POPC   C1B27655   0.078  15.145   8.832
 1994POPC   C2B27656   0.139  15.349   8.448
 1994POPC   C3B27657  44.990  15.210   8.090
 1994POPC   C4B27658  44.891  14.884   7.811
 1995POPC   NC327659  14.823  21.229   9.493
 1995POPC   PO427660  14.057  21.268   9.574
 1995POPC   GL127661  14.149  21.442   9.178
 1995POPC   GL227662  14.465  21.326   9.152
 1995POPC   C1A27663  14.219  21.435   8.730
 1995POPC   D2A27664  14.396  21.317   8.374
 1995POPC   C3A27665  14.157  21.434   8.032
 1995POPC   C4A27666  14.239  21.306   7.633
 1995POPC   C1B27667  14.771  21.448   8.843
 1995POPC   C2B27668  14.908  21.216   8.511
 1995POPC   C3B27669  14.812  21.217   8.092
 1995POPC   C4B27670  14.753  21.175   7.685
 1996POPC   NC327671  22.052  10.395   9.516
 1996POPC   PO427672  22.563   9.986   9.350
 1996POPC   GL127673  22.335  10.325   9.094
 1996POPC   GL227674  22.272  10.723   9.050
 1996POPC   C1A27675  22.066  10.389   8.727
 1996POPC   D2A27676  22.292  10.317   8.366
 1996POPC   C3A27677  22.090  10.259   7.999
 1996POPC   C4A27678  22.274  10.060   7.638
 1996POPC   C1B27679  22.113  10.947   8.676
 1996POPC   C2B27680  22.074  10.833   8.262
 1996POPC   C3B27681  22.376  10.688   7.981
 1996POPC   C4B27682  22.235  10.574   7.583
 1997POPC   NC327683  29.664   0.995  10.078
 1997POPC   PO427684  29.872   1.086   9.413
 1997POPC   GL127685  30.018   1.251   9.071
 1997POPC   GL227686  29.996   1.591   9.216
 1997POPC   C1A27687  30.063   1.243   8.627
 1997POPC   D2A27688  29.883   1.104   8.266
 1997POPC   C3A27689  30.131   1.097   7.890
 1997POPC   C4A27690  30.028   0.935   7.487
 1997POPC   C1B27691  29.730   1.572   8.818
 1997POPC   C2B27692  29.568   1.580   8.412
 1997POPC   C3B27693  29.860   1.588   8.076
 1997POPC   C4B27694  29.924   1.495   7.660
 1998POPC   NC327695  39.757  10.509   9.530
 1998POPC   PO427696  40.388  10.395   9.403
 1998POPC   GL127697  40.153  10.531   9.065
 1998POPC   GL227698  39.860  10.430   9.040
 1998POPC   C1A27699  40.165  10.674   8.644
 1998POPC   D2A27700  39.961  10.460   8.287
 1998POPC   C3A27701  40.096  10.578   7.882
 1998POPC   C4A27702  40.077  10.439   7.474
 1998POPC   C1B27703  39.662  10.698   8.694
 1998POPC   C2B27704  39.554  10.746   8.230
 1998POPC   C3B27705  39.581  10.456   7.863
 1998POPC   C4B27706  39.564  10.512   7.417
 1999POPC   NC327707   8.569  42.333   9.509
 1999POPC   PO427708   7.878  42.265   9.477
 1999POPC   GL127709   8.151  42.393   9.177
 1999POPC   GL227710   8.415  42.141   9.091
 1999POPC   C1A27711   8.021  42.326   8.780
 1999POPC   D2A27712   8.204  42.198   8.436
 1999POPC   C3A27713   7.958  42.222   8.135
 1999POPC   C4A27714   7.942  42.419   7.801
 1999POPC   C1B27715   8.523  42.454   8.795
 1999POPC   C2B27716   8.562  42.584   8.376
 1999POPC   C3B27717   8.432  42.392   7.998
 1999POPC   C4B27718   8.649  42.381   7.606
 2000POPC   NC327719  37.891  33.353   9.577
 2000POPC   PO427720  37.574  32.740   9.607
 2000POPC   GL127721  37.666  32.935   9.222
 2000POPC   GL227722  38.018  33.043   9.150
 2000POPC   C1A27723  37.487  32.834   8.839
 2000POPC   D2A27724  37.604  33.008   8.454
 2000POPC   C3A27725  37.484  32.795   8.114
 2000POPC   C4A27726  37.409  32.971   7.792
 2000POPC   C1B27727  37.986  32.813   8.731
 2000POPC   C2B27728  38.000  32.668   8.300
 2000POPC   C3B27729  37.912  32.723   7.866
 2000POPC   C4B27730  37.860  32.669   7.370
 2001POPC   NC327731   3.088  42.224   9.585
 2001POPC   PO427732   2.579  42.554   9.620
 2001POPC   GL127733   2.625  42.406   9.184
 2001POPC   GL227734   2.980  42.357   9.099
 2001POPC   C1A27735   2.543  42.325   8.730
 2001POPC   D2A27736   2.802  42.314   8.344
 2001POPC   C3A27737   2.595  42.421   7.963
 2001POPC   C4A27738   2.161  42.328   7.837
 2001POPC   C1B27739   3.202  42.490   8.719
 2001POPC   C2B27740   3.192  42.652   8.307
 2001POPC   C3B27741   3.208  42.483   7.920
 2001POPC   C4B27742   2.971  42.326   7.581
 2002POPC   NC327743  19.351  17.719   9.508
 2002POPC   PO427744  18.742  17.848   9.421
 2002POPC   GL127745  18.992  17.552   9.104
 2002POPC   GL227746  19.343  17.417   9.091
 2002POPC   C1A27747  19.133  17.591   8.671
 2002POPC   D2A27748  18.918  17.393   8.293
 2002POPC   C3A27749  19.082  17.602   7.930
 2002POPC   C4A27750  19.041  17.589   7.484
 2002POPC   C1B27751  19.183  17.114   8.794
 2002POPC   C2B27752  19.383  17.229   8.407
 2002POPC   C3B27753  19.329  17.157   8.013
 2002POPC   C4B27754  19.430  17.302   7.633
 2003POPC   NC327755  18.679  27.684   9.507
 2003POPC   PO427756  18.066  27.818   9.526
 2003POPC   GL127757  18.208  27.465   9.276
 2003POPC   GL227758  18.360  27.722   9.120
 2003POPC   C1A27759  18.395  27.306   8.864
 2003POPC   D2A27760  18.296  27.484   8.467
 2003POPC   C3A27761  18.466  27.446   8.062
 2003POPC   C4A27762  18.511  27.232   7.656
 2003POPC   C1B27763  18.249  27.909   8.786
 2003POPC   C2B27764  18.463  27.960   8.428
 2003POPC   C3B27765  18.223  27.908   8.099
 2003POPC   C4B27766  18.312  27.790   7.715
 2004POPC   NC327767  23.310  35.787   9.527
 2004POPC   PO427768  23.884  36.009   9.593
 2004POPC   GL127769  23.611  36.122   9.197
 2004POPC   GL227770  23.483  35.837   9.055
 2004POPC   C1A27771  23.585  36.269   8.716
 2004POPC   D2A27772  23.807  36.177   8.301
 2004POPC   C3A27773  23.610  36.116   7.888
 2004POPC   C4A27774  23.388  36.399   7.611
 2004POPC   C1B27775  23.748  35.785   8.701
 2004POPC   C2B27776  23.920  35.683   8.298
 2004POPC   C3B27777  24.034  35.823   7.896
 2004POPC   C4B27778  23.842  35.710   7.489
 2005POPC   NC327779   6.459   3.940   9.595
 2005POPC   PO427780   6.754   3.319   9.594
 2005POPC   GL127781   6.761   3.615   9.305
 2005POPC   GL227782   7.044   3.520   9.128
 2005POPC   C1A27783   6.600   3.680   8.912
 2005POPC   D2A27784   6.386   3.915   8.601
 2005POPC   C3A27785   6.341   3.799   8.157
 2005POPC   C4A27786   6.240   3.747   7.701
 2005POPC   C1B27787   7.025   3.404   8.730
 2005POPC   C2B27788   6.736   3.572   8.422
 2005POPC   C3B27789   6.806   3.657   8.005
 2005POPC   C4B27790   6.912   3.464   7.638
 2006POPC   NC327791  21.267  10.760   9.575
 2006POPC   PO427792  21.592  10.125   9.541
 2006POPC   GL127793  21.330  10.275   9.180
 2006POPC   GL227794  21.080  10.517   9.187
 2006POPC   C1A27795  21.323  10.455   8.749
 2006POPC   D2A27796  21.574  10.717   8.506
 2006POPC   C3A27797  21.511  10.551   8.110
 2006POPC   C4A27798  21.737  10.496   7.732
 2006POPC   C1B27799  21.097  10.916   8.919
 2006POPC   C2B27800  21.042  10.919   8.455
 2006POPC   C3B27801  20.908  10.980   7.997
 2006POPC   C4B27802  21.246  10.785   7.740
 2007POPC   NC327803   7.982  35.106   9.329
 2007POPC   PO427804   8.578  35.124   9.550
 2007POPC   GL127805   8.413  35.407   9.214
 2007POPC   GL227806   8.099  35.584   9.173
 2007POPC   C1A27807   8.290  35.322   8.768
 2007POPC   D2A27808   7.926  35.284   8.473
 2007POPC   C3A27809   8.092  35.255   8.061
 2007POPC   C4A27810   8.172  34.978   7.723
 2007POPC   C1B27811   8.127  35.831   8.824
 2007POPC   C2B27812   8.195  35.731   8.412
 2007POPC   C3B27813   7.871  35.722   8.120
 2007POPC   C4B27814   7.796  35.538   7.720
 2008POPC   NC327815  35.391  24.815   9.625
 2008POPC   PO427816  35.597  24.238   9.480
 2008POPC   GL127817  35.310  24.430   9.181
 2008POPC   GL227818  35.180  24.749   9.138
 2008POPC   C1A27819  35.268  24.302   8.738
 2008POPC   D2A27820  35.443  24.420   8.350
 2008POPC   C3A27821  35.261  24.269   7.992
 2008POPC   C4A27822  35.259  24.460   7.569
 2008POPC   C1B27823  35.228  24.819   8.723
 2008POPC   C2B27824  35.056  24.718   8.358
 2008POPC   C3B27825  35.195  24.792   7.961
 2008POPC   C4B27826  35.015  24.935   7.599
 2009POPC   NC327827  36.146  30.212   9.601
 2009POPC   PO427828  36.440  29.620   9.701
 2009POPC   GL127829  36.318  29.908   9.251
 2009POPC   GL227830  36.027  30.048   9.139
 2009POPC   C1A27831  36.353  29.861   8.774
 2009POPC   D2A27832  36.192  29.617   8.445
 2009POPC   C3A27833  36.263  29.789   8.081
 2009POPC   C4A27834  36.118  29.665   7.700
 2009POPC   C1B27835  35.847  29.910   8.773
 2009POPC   C2B27836  35.911  30.054   8.377
 2009POPC   C3B27837  35.861  30.071   7.968
 2009POPC   C4B27838  36.176  30.184   7.686
 2010POPC   NC327839   3.301  25.134   9.820
 2010POPC   PO427840   3.809  25.437   9.525
 2010POPC   GL127841   3.720  25.341   9.118
 2010POPC   GL227842   3.370  25.467   9.218
 2010POPC   C1A27843   3.863  25.522   8.717
 2010POPC   D2A27844   4.025  25.357   8.309
 2010POPC   C3A27845   3.715  25.406   7.970
 2010POPC   C4A27846   3.432  25.117   7.738
 2010POPC   C1B27847   3.305  25.302   8.822
 2010POPC   C2B27848   3.447  25.366   8.426
 2010POPC   C3B27849   3.195  25.362   8.092
 2010POPC   C4B27850   3.059  25.492   7.703
 2011POPC   NC327851   3.306  37.767   9.380
 2011POPC   PO427852   3.814  37.385   9.638
 2011POPC   GL127853   3.806  37.570   9.220
 2011POPC   GL227854   3.858  37.916   9.110
 2011POPC   C1A27855   3.783  37.458   8.783
 2011POPC   D2A27856   3.589  37.214   8.463
 2011POPC   C3A27857   3.543  37.472   8.135
 2011POPC   C4A27858   3.689  37.569   7.759
 2011POPC   C1B27859   3.525  37.897   8.781
 2011POPC   C2B27860   3.721  37.853   8.397
 2011POPC   C3B27861   3.744  38.028   7.990
 2011POPC   C4B27862   3.450  38.242   7.756
 2012POPC   NC327863  20.752  28.349   9.408
 2012POPC   PO427864  20.067  28.031   9.534
 2012POPC   GL127865  20.363  28.107   9.168
 2012POPC   GL227866  20.125  28.301   9.012
 2012POPC   C1A27867  20.593  28.302   8.763
 2012POPC   D2A27868  20.634  28.561   8.369
 2012POPC   C3A27869  20.738  28.327   7.984
 2012POPC   C4A27870  21.069  28.433   7.723
 2012POPC   C1B27871  20.157  28.038   8.695
 2012POPC   C2B27872  20.351  28.148   8.334
 2012POPC   C3B27873  20.223  28.372   7.979
 2012POPC   C4B27874  20.250  28.209   7.570
 2013POPC   NC327875  16.639  14.242   9.928
 2013POPC   PO427876  17.165  14.560   9.575
 2013POPC   GL127877  16.984  14.303   9.182
 2013POPC   GL227878  16.603  14.176   9.206
 2013POPC   C1A27879  16.991  14.088   8.807
 2013POPC   D2A27880  16.731  13.988   8.446
 2013POPC   C3A27881  16.895  14.082   8.065
 2013POPC   C4A27882  16.744  14.358   7.792
 2013POPC   C1B27883  16.535  14.349   8.817
 2013POPC   C2B27884  16.425  14.481   8.406
 2013POPC   C3B27885  16.605  14.758   8.101
 2013POPC   C4B27886  16.865  14.853   7.742
 2014POPC   NC327887  21.307  43.761   9.750
 2014POPC   PO427888  21.792  44.190   9.656
 2014POPC   GL127889  21.551  43.997   9.325
 2014POPC   GL227890  21.581  43.630   9.334
 2014POPC   C1A27891  21.277  43.923   8.963
 2014POPC   D2A27892  21.390  43.881   8.503
 2014POPC   C3A27893  21.210  44.080   8.144
 2014POPC   C4A27894  21.287  43.995   7.720
 2014POPC   C1B27895  21.596  43.509   8.898
 2014POPC   C2B27896  21.631  43.434   8.443
 2014POPC   C3B27897  21.393  43.522   8.045
 2014POPC   C4B27898  21.619  43.598   7.668
 2015POPC   NC327899  22.020  43.791   9.624
 2015POPC   PO427900  22.564  44.094   9.481
 2015POPC   GL127901  22.363  43.823   9.168
 2015POPC   GL227902  22.006  43.824   9.133
 2015POPC   C1A27903  22.311  43.929   8.731
 2015POPC   D2A27904  22.452  43.819   8.314
 2015POPC   C3A27905  22.246  43.842   7.907
 2015POPC   C4A27906  22.492  43.712   7.560
 2015POPC   C1B27907  21.784  43.966   8.824
 2015POPC   C2B27908  21.913  43.891   8.412
 2015POPC   C3B27909  21.727  43.918   8.045
 2015POPC   C4B27910  21.837  44.061   7.659
 2016POPC   NC327911  39.549  43.319   9.573
 2016POPC   PO427912  39.410  42.734   9.272
 2016POPC   GL127913  39.241  42.936   9.008
 2016POPC   GL227914  39.108  43.183   9.186
 2016POPC   C1A27915  39.141  42.886   8.602
 2016POPC   D2A27916  39.256  42.661   8.242
 2016POPC   C3A27917  39.267  42.914   7.896
 2016POPC   C4A27918  38.952  42.919   7.582
 2016POPC   C1B27919  39.136  43.387   8.807
 2016POPC   C2B27920  39.320  43.319   8.374
 2016POPC   C3B27921  39.134  43.387   7.978
 2016POPC   C4B27922  39.262  43.315   7.557
 2017POPC   NC327923  20.457  29.299   9.422
 2017POPC   PO427924  20.444  28.665   9.239
 2017POPC   GL127925  20.541  29.030   8.980
 2017POPC   GL227926  20.843  29.194   9.077
 2017POPC   C1A27927  20.594  29.272   8.585
 2017POPC   D2A27928  20.457  29.535   8.241
 2017POPC   C3A27929  20.203  29.243   7.997
 2017POPC   C4A27930  20.436  28.839   7.950
 2017POPC   C1B27931  21.050  29.434   8.747
 2017POPC   C2B27932  21.019  29.437   8.294
 2017POPC   C3B27933  20.780  29.221   7.957
 2017POPC   C4B27934  20.919  28.924   7.655
 2018POPC   NC327935  37.254   7.348   9.590
 2018POPC   PO427936  37.957   7.238   9.654
 2018POPC   GL127937  37.816   7.355   9.183
 2018POPC   GL227938  37.507   7.271   9.165
 2018POPC   C1A27939  37.697   7.467   8.726
 2018POPC   D2A27940  37.880   7.651   8.362
 2018POPC   C3A27941  37.835   7.526   7.952
 2018POPC   C4A27942  37.626   7.623   7.567
 2018POPC   C1B27943  37.346   7.076   8.819
 2018POPC   C2B27944  37.492   7.028   8.413
 2018POPC   C3B27945  37.440   7.200   8.019
 2018POPC   C4B27946  37.440   6.934   7.673
 2019POPC   NC327947   3.481  24.329  10.069
 2019POPC   PO427948   3.913  24.445   9.601
 2019POPC   GL127949   3.940  24.509   9.123
 2019POPC   GL227950   3.956  24.852   9.028
 2019POPC   C1A27951   3.738  24.525   8.664
 2019POPC   D2A27952   3.793  24.402   8.215
 2019POPC   C3A27953   3.458  24.233   7.921
 2019POPC   C4A27954   3.481  23.869   7.628
 2019POPC   C1B27955   3.775  25.028   8.638
 2019POPC   C2B27956   3.599  24.926   8.201
 2019POPC   C3B27957   3.692  24.698   7.794
 2019POPC   C4B27958   3.389  24.751   7.391
 2020POPC   NC327959  37.548   1.686   9.618
 2020POPC   PO427960  37.605   2.331   9.704
 2020POPC   GL127961  37.614   2.081   9.290
 2020POPC   GL227962  37.393   1.800   9.161
 2020POPC   C1A27963  37.730   2.250   8.895
 2020POPC   D2A27964  38.007   2.183   8.547
 2020POPC   C3A27965  37.828   2.325   8.154
 2020POPC   C4A27966  37.725   2.207   7.736
 2020POPC   C1B27967  37.665   1.751   8.831
 2020POPC   C2B27968  37.531   1.972   8.484
 2020POPC   C3B27969  37.480   1.927   8.088
 2020POPC   C4B27970  37.598   1.708   7.764
 2021POPC   NC327971  17.069  35.099   9.201
 2021POPC   PO427972  17.495  34.603   9.530
 2021POPC   GL127973  17.547  34.588   9.125
 2021POPC   GL227974  17.228  34.623   9.058
 2021POPC   C1A27975  17.689  34.896   8.823
 2021POPC   D2A27976  17.638  35.131   8.428
 2021POPC   C3A27977  17.740  34.912   8.068
 2021POPC   C4A27978  18.094  34.884   7.790
 2021POPC   C1B27979  17.263  34.376   8.680
 2021POPC   C2B27980  17.172  34.404   8.241
 2021POPC   C3B27981  17.410  34.514   7.858
 2021POPC   C4B27982  17.420  34.455   7.399
 2022POPC   NC327983  15.061   6.944   9.482
 2022POPC   PO427984  15.041   6.290   9.552
 2022POPC   GL127985  15.147   6.514   9.199
 2022POPC   GL227986  14.812   6.605   9.191
 2022POPC   C1A27987  15.351   6.572   8.792
 2022POPC   D2A27988  15.369   6.277   8.444
 2022POPC   C3A27989  15.305   6.530   8.105
 2022POPC   C4A27990  15.167   6.637   7.699
 2022POPC   C1B27991  14.826   6.676   8.786
 2022POPC   C2B27992  14.882   6.494   8.414
 2022POPC   C3B27993  14.843   6.747   8.086
 2022POPC   C4B27994  14.712   7.048   7.807
 2023POPC   NC327995   4.806  28.771   9.203
 2023POPC   PO427996   5.201  29.151   9.512
 2023POPC   GL127997   5.059  29.219   9.118
 2023POPC   GL227998   4.767  29.317   9.094
 2023POPC   C1A27999   5.149  29.099   8.666
 2023POPC   D2A28000   5.398  29.066   8.274
 2023POPC   C3A28001   5.225  29.308   7.923
 2023POPC   C4A28002   5.032  29.174   7.534
 2023POPC   C1B28003   4.847  29.533   8.681
 2023POPC   C2B28004   4.837  29.287   8.295
 2023POPC   C3B28005   4.672  29.170   7.897
 2023POPC   C4B28006   4.570  29.359   7.496
 2024POPC   NC328007   0.886  25.120   9.848
 2024POPC   PO428008   0.230  25.185   9.574
 2024POPC   GL128009   0.432  25.029   9.204
 2024POPC   GL228010   0.442  25.391   9.132
 2024POPC   C1A28011   0.629  25.039   8.783
 2024POPC   D2A28012   0.593  25.279   8.418
 2024POPC   C3A28013   0.671  25.075   8.044
 2024POPC   C4A28014   0.492  25.107   7.676
 2024POPC   C1B28015   0.531  25.641   8.787
 2024POPC   C2B28016   0.653  25.771   8.365
 2024POPC   C3B28017   0.536  25.596   7.977
 2024POPC   C4B28018   0.802  25.511   7.662
 2025POPC   NC328019  15.507   2.134   9.722
 2025POPC   PO428020  16.112   2.291   9.518
 2025POPC   GL128021  15.878   1.929   9.345
 2025POPC   GL228022  16.101   2.068   9.068
 2025POPC   C1A28023  15.787   1.725   8.938
 2025POPC   D2A28024  15.733   2.027   8.598
 2025POPC   C3A28025  15.826   1.961   8.166
 2025POPC   C4A28026  15.970   1.620   7.943
 2025POPC   C1B28027  16.269   1.994   8.682
 2025POPC   C2B28028  16.250   2.223   8.299
 2025POPC   C3B28029  16.404   2.301   7.900
 2025POPC   C4B28030  16.210   1.984   7.676
 2026POPC   NC328031  17.398   4.720   9.416
 2026POPC   PO428032  17.340   5.457   9.449
 2026POPC   GL128033  17.521   5.229   9.131
 2026POPC   GL228034  17.621   4.915   9.008
 2026POPC   C1A28035  17.295   5.253   8.767
 2026POPC   D2A28036  17.407   5.129   8.386
 2026POPC   C3A28037  17.299   5.360   8.073
 2026POPC   C4A28038  17.281   5.017   7.821
 2026POPC   C1B28039  17.831   5.080   8.670
 2026POPC   C2B28040  17.812   4.837   8.280
 2026POPC   C3B28041  18.014   4.837   7.914
 2026POPC   C4B28042  17.745   5.029   7.623
 2027POPC   NC328043  10.253  40.247   9.451
 2027POPC   PO428044  10.921  40.030   9.442
 2027POPC   GL128045  10.616  40.134   9.114
 2027POPC   GL228046  10.328  39.894   9.070
 2027POPC   C1A28047  10.532  40.156   8.688
 2027POPC   D2A28048  10.412  39.856   8.396
 2027POPC   C3A28049  10.670  39.929   8.079
 2027POPC   C4A28050  10.482  40.170   7.761
 2027POPC   C1B28051  10.073  39.654   8.765
 2027POPC   C2B28052   9.916  39.693   8.324
 2027POPC   C3B28053  10.136  39.824   7.927
 2027POPC   C4B28054  10.130  39.730   7.460
 2028POPC   NC328055  24.829  21.882   9.502
 2028POPC   PO428056  25.410  22.220   9.468
 2028POPC   GL128057  25.162  22.071   9.156
 2028POPC   GL228058  24.889  22.299   9.186
 2028POPC   C1A28059  25.135  21.903   8.756
 2028POPC   D2A28060  25.334  21.795   8.328
 2028POPC   C3A28061  25.177  21.971   7.977
 2028POPC   C4A28062  25.355  22.297   7.811
 2028POPC   C1B28063  25.006  22.454   8.798
 2028POPC   C2B28064  25.121  22.312   8.397
 2028POPC   C3B28065  24.916  22.437   8.022
 2028POPC   C4B28066  24.851  22.209   7.644
 2029POPC   NC328067  32.431  40.110   9.772
 2029POPC   PO428068  31.902  39.810   9.559
 2029POPC   GL128069  32.082  39.780   9.178
 2029POPC   GL228070  32.340  40.036   9.230
 2029POPC   C1A28071  32.049  39.980   8.776
 2029POPC   D2A28072  32.136  40.249   8.422
 2029POPC   C3A28073  32.117  40.066   7.991
 2029POPC   C4A28074  31.835  40.249   7.690
 2029POPC   C1B28075  32.539  40.150   8.818
 2029POPC   C2B28076  32.607  39.956   8.374
 2029POPC   C3B28077  32.642  40.127   7.942
 2029POPC   C4B28078  32.422  40.191   7.544
 2030POPC   NC328079   1.469  25.630   9.446
 2030POPC   PO428080   1.140  26.088   9.499
 2030POPC   GL128081   0.994  26.187   9.111
 2030POPC   GL228082   1.293  26.290   9.039
 2030POPC   C1A28083   0.928  26.018   8.718
 2030POPC   D2A28084   1.106  26.095   8.283
 2030POPC   C3A28085   1.026  25.900   7.888
 2030POPC   C4A28086   1.236  25.773   7.463
 2030POPC   C1B28087   1.443  25.951   8.740
 2030POPC   C2B28088   1.572  25.804   8.283
 2030POPC   C3B28089   1.551  25.978   7.834
 2030POPC   C4B28090   1.668  26.338   7.517
 2031POPC   NC328091  30.968  35.478   9.471
 2031POPC   PO428092  30.635  34.959   9.492
 2031POPC   GL128093  30.439  35.174   9.120
 2031POPC   GL228094  30.192  35.466   9.129
 2031POPC   C1A28095  30.624  35.154   8.722
 2031POPC   D2A28096  30.956  34.990   8.489
 2031POPC   C3A28097  30.747  35.001   8.098
 2031POPC   C4A28098  30.994  35.181   7.779
 2031POPC   C1B28099  30.161  35.364   8.698
 2031POPC   C2B28100  30.415  35.413   8.314
 2031POPC   C3B28101  30.549  35.652   7.937
 2031POPC   C4B28102  30.355  35.587   7.476
 2032POPC   NC328103  22.369  21.709   9.534
 2032POPC   PO428104  21.845  21.357   9.591
 2032POPC   GL128105  22.064  21.358   9.217
 2032POPC   GL228106  22.440  21.317   9.147
 2032POPC   C1A28107  21.991  21.552   8.823
 2032POPC   D2A28108  22.224  21.453   8.477
 2032POPC   C3A28109  22.152  21.368   8.069
 2032POPC   C4A28110  22.151  21.579   7.686
 2032POPC   C1B28111  22.641  21.266   8.711
 2032POPC   C2B28112  22.646  21.240   8.218
 2032POPC   C3B28113  22.568  21.254   7.747
 2032POPC   C4B28114  22.345  21.172   7.373
 2033POPC   NC328115  42.472  36.815   9.455
 2033POPC   PO428116  42.145  37.303   9.554
 2033POPC   GL128117  42.131  37.183   9.160
 2033POPC   GL228118  42.458  37.254   9.122
 2033POPC   C1A28119  42.182  36.894   8.813
 2033POPC   D2A28120  42.423  36.581   8.591
 2033POPC   C3A28121  42.343  36.536   8.129
 2033POPC   C4A28122  42.284  36.804   7.759
 2033POPC   C1B28123  42.615  37.220   8.711
 2033POPC   C2B28124  42.801  37.376   8.324
 2033POPC   C3B28125  42.585  37.225   7.943
 2033POPC   C4B28126  42.692  37.070   7.546
 2034POPC   NC328127  40.906  38.942   9.451
 2034POPC   PO428128  40.882  39.601   9.486
 2034POPC   GL128129  40.695  39.305   9.167
 2034POPC   GL228130  40.417  39.113   9.247
 2034POPC   C1A28131  40.895  39.138   8.803
 2034POPC   D2A28132  41.187  39.257   8.468
 2034POPC   C3A28133  40.960  39.282   8.109
 2034POPC   C4A28134  40.725  39.271   7.717
 2034POPC   C1B28135  40.387  39.004   8.800
 2034POPC   C2B28136  40.504  39.066   8.373
 2034POPC   C3B28137  40.311  39.107   7.967
 2034POPC   C4B28138  40.300  39.577   7.869
 2035POPC   NC328139  34.177  41.835   9.561
 2035POPC   PO428140  33.704  41.366   9.594
 2035POPC   GL128141  33.875  41.529   9.208
 2035POPC   GL228142  33.816  41.216   9.113
 2035POPC   C1A28143  33.799  41.580   8.731
 2035POPC   D2A28144  33.644  41.551   8.282
 2035POPC   C3A28145  33.946  41.664   7.939
 2035POPC   C4A28146  33.819  41.852   7.537
 2035POPC   C1B28147  34.097  41.144   8.793
 2035POPC   C2B28148  34.036  41.237   8.392
 2035POPC   C3B28149  33.867  41.130   8.020
 2035POPC   C4B28150  33.801  41.287   7.590
 2036POPC   NC328151  36.175  19.535   9.573
 2036POPC   PO428152  35.770  19.006   9.556
 2036POPC   GL128153  36.173  19.091   9.264
 2036POPC   GL228154  36.395  18.806   9.204
 2036POPC   C1A28155  36.319  19.195   8.821
 2036POPC   D2A28156  36.371  19.449   8.437
 2036POPC   C3A28157  36.203  19.312   8.046
 2036POPC   C4A28158  36.247  19.130   7.683
 2036POPC   C1B28159  36.283  18.694   8.773
 2036POPC   C2B28160  36.213  18.922   8.395
 2036POPC   C3B28161  36.063  18.785   8.024
 2036POPC   C4B28162  35.866  18.442   7.841
 2037POPC   NC328163   4.769  21.415   9.597
 2037POPC   PO428164   4.313  20.985   9.536
 2037POPC   GL128165   4.426  21.224   9.215
 2037POPC   GL228166   4.759  21.116   9.167
 2037POPC   C1A28167   4.222  21.324   8.808
 2037POPC   D2A28168   4.153  21.292   8.361
 2037POPC   C3A28169   4.440  21.502   8.085
 2037POPC   C4A28170   4.304  21.379   7.706
 2037POPC   C1B28171   4.576  20.970   8.811
 2037POPC   C2B28172   4.636  21.122   8.399
 2037POPC   C3B28173   4.501  21.010   7.988
 2037POPC   C4B28174   4.692  21.129   7.543
 2038POPC   NC328175  17.474   2.008   9.609
 2038POPC   PO428176  17.969   1.575   9.509
 2038POPC   GL128177  17.756   1.828   9.206
 2038POPC   GL228178  17.748   2.196   9.216
 2038POPC   C1A28179  17.352   1.890   8.990
 2038POPC   D2A28180  17.198   1.975   8.599
 2038POPC   C3A28181  17.206   2.009   8.155
 2038POPC   C4A28182  17.408   2.089   7.751
 2038POPC   C1B28183  17.816   2.072   8.774
 2038POPC   C2B28184  18.025   2.199   8.401
 2038POPC   C3B28185  17.854   2.221   7.999
 2038POPC   C4B28186  17.881   1.932   7.653
 2039POPC   NC328187   8.496  37.627   9.433
 2039POPC   PO428188   7.816  37.467   9.504
 2039POPC   GL128189   7.951  37.793   9.182
 2039POPC   GL228190   8.268  38.008   9.209
 2039POPC   C1A28191   8.201  37.721   8.799
 2039POPC   D2A28192   8.340  37.476   8.447
 2039POPC   C3A28193   8.242  37.660   8.076
 2039POPC   C4A28194   8.125  37.522   7.697
 2039POPC   C1B28195   8.531  38.131   8.823
 2039POPC   C2B28196   8.430  38.037   8.411
 2039POPC   C3B28197   8.593  38.009   8.004
 2039POPC   C4B28198   8.283  38.018   7.682
 2040POPC   NC328199   1.716  31.536   9.379
 2040POPC   PO428200   2.196  31.121   9.666
 2040POPC   GL128201   2.193  31.560   9.226
 2040POPC   GL228202   1.902  31.507   8.925
 2040POPC   C1A28203   2.345  31.631   8.769
 2040POPC   D2A28204   2.132  31.800   8.421
 2040POPC   C3A28205   2.100  31.556   8.030
 2040POPC   C4A28206   2.356  31.321   7.741
 2040POPC   C1B28207   1.606  31.674   8.643
 2040POPC   C2B28208   1.645  31.874   8.252
 2040POPC   C3B28209   1.859  32.002   7.876
 2040POPC   C4B28210   1.803  31.864   7.436
 2041POPC   NC328211  13.100  11.732   9.499
 2041POPC   PO428212  12.899  12.353   9.480
 2041POPC   GL128213  12.772  12.288   9.070
 2041POPC   GL228214  12.801  11.953   9.141
 2041POPC   C1A28215  12.692  12.185   8.631
 2041POPC   D2A28216  12.950  11.995   8.360
 2041POPC   C3A28217  12.925  12.218   8.037
 2041POPC   C4A28218  12.694  12.191   7.695
 2041POPC   C1B28219  12.835  11.731   8.812
 2041POPC   C2B28220  12.607  11.622   8.470
 2041POPC   C3B28221  12.765  11.592   8.055
 2041POPC   C4B28222  13.076  11.802   7.799
 2042POPC   NC328223  38.560  26.808   9.597
 2042POPC   PO428224  37.878  26.814   9.555
 2042POPC   GL128225  38.193  26.674   9.259
 2042POPC   GL228226  38.494  26.902   9.108
 2042POPC   C1A28227  38.213  26.571   8.851
 2042POPC   D2A28228  38.357  26.425   8.499
 2042POPC   C3A28229  38.415  26.705   8.204
 2042POPC   C4A28230  38.359  26.679   7.790
 2042POPC   C1B28231  38.662  26.786   8.702
 2042POPC   C2B28232  38.869  26.519   8.409
 2042POPC   C3B28233  38.870  26.593   8.002
 2042POPC   C4B28234  38.747  27.013   7.886
 2043POPC   NC328235  19.689  14.604   9.465
 2043POPC   PO428236  20.188  14.142   9.517
 2043POPC   GL128237  20.045  14.313   9.122
 2043POPC   GL228238  20.035  14.645   9.098
 2043POPC   C1A28239  19.708  14.414   8.791
 2043POPC   D2A28240  19.829  14.280   8.380
 2043POPC   C3A28241  19.650  14.431   8.014
 2043POPC   C4A28242  19.644  14.275   7.627
 2043POPC   C1B28243  19.985  14.890   8.742
 2043POPC   C2B28244  19.976  14.784   8.311
 2043POPC   C3B28245  20.155  14.483   8.020
 2043POPC   C4B28246  20.065  14.574   7.605
 2044POPC   NC328247  37.009  31.816   9.440
 2044POPC   PO428248  37.038  31.309   9.911
 2044POPC   GL128249  37.042  31.319   9.360
 2044POPC   GL228250  37.179  31.572   9.042
 2044POPC   C1A28251  36.764  31.332   8.925
 2044POPC   D2A28252  36.696  31.135   8.521
 2044POPC   C3A28253  36.576  31.340   8.162
 2044POPC   C4A28254  36.497  31.185   7.753
 2044POPC   C1B28255  37.278  31.380   8.627
 2044POPC   C2B28256  37.110  31.309   8.189
 2044POPC   C3B28257  37.147  31.554   7.791
 2044POPC   C4B28258  37.290  31.373   7.378
 2045POPC   NC328259  32.487   6.290   9.448
 2045POPC   PO428260  32.171   5.601   9.344
 2045POPC   GL128261  32.276   5.948   9.136
 2045POPC   GL228262  32.616   5.886   9.140
 2045POPC   C1A28263  32.405   6.092   8.736
 2045POPC   D2A28264  32.560   5.953   8.354
 2045POPC   C3A28265  32.243   5.933   8.029
 2045POPC   C4A28266  32.546   6.082   7.751
 2045POPC   C1B28267  32.630   5.600   8.760
 2045POPC   C2B28268  32.497   5.415   8.358
 2045POPC   C3B28269  32.623   5.605   7.972
 2045POPC   C4B28270  32.610   5.628   7.499
 2046POPC   NC328271   6.966  40.290   9.399
 2046POPC   PO428272   6.375  39.998   9.622
 2046POPC   GL128273   6.480  40.121   9.170
 2046POPC   GL228274   6.828  40.026   8.993
 2046POPC   C1A28275   6.404  40.049   8.709
 2046POPC   D2A28276   6.634  40.172   8.338
 2046POPC   C3A28277   6.537  40.044   7.948
 2046POPC   C4A28278   6.305  39.840   7.661
 2046POPC   C1B28279   6.856  40.417   8.721
 2046POPC   C2B28280   7.014  40.496   8.259
 2046POPC   C3B28281   6.873  40.438   7.782
 2046POPC   C4B28282   7.098  40.334   7.361
 2047POPC   NC328283  13.367   1.485   9.381
 2047POPC   PO428284  13.465   2.202   9.433
 2047POPC   GL128285  13.793   2.149   9.131
 2047POPC   GL228286  13.771   1.764   9.074
 2047POPC   C1A28287  13.867   2.154   8.704
 2047POPC   D2A28288  13.570   2.003   8.377
 2047POPC   C3A28289  13.668   2.226   7.990
 2047POPC   C4A28290  13.605   2.177   7.533
 2047POPC   C1B28291  13.963   1.666   8.648
 2047POPC   C2B28292  14.032   1.903   8.252
 2047POPC   C3B28293  13.939   1.826   7.845
 2047POPC   C4B28294  13.832   1.453   7.674
 2048POPC   NC328295   8.554   5.055   9.739
 2048POPC   PO428296   9.025   5.409   9.494
 2048POPC   GL128297   8.920   5.157   9.202
 2048POPC   GL228298   9.216   5.040   9.139
 2048POPC   C1A28299   8.777   5.211   8.794
 2048POPC   D2A28300   8.820   5.175   8.360
 2048POPC   C3A28301   8.597   4.965   8.024
 2048POPC   C4A28302   8.695   5.368   7.834
 2048POPC   C1B28303   9.135   4.821   8.767
 2048POPC   C2B28304   8.982   4.700   8.371
 2048POPC   C3B28305   9.093   4.931   7.989
 2048POPC   C4B28306   9.274   5.290   7.816
 2049POPC   NC328307  21.509  13.295   9.801
 2049POPC   PO428308  21.648  13.851   9.475
 2049POPC   GL128309  21.315  13.790   9.178
 2049POPC   GL228310  21.584  13.727   8.966
 2049POPC   C1A28311  21.128  13.603   8.785
 2049POPC   D2A28312  21.341  13.408   8.448
 2049POPC   C3A28313  21.283  13.615   8.095
 2049POPC   C4A28314  21.046  13.731   7.779
 2049POPC   C1B28315  21.806  13.487   8.665
 2049POPC   C2B28316  21.849  13.501   8.236
 2049POPC   C3B28317  21.697  13.462   7.846
 2049POPC   C4B28318  21.716  13.365   7.452
 2050POPC   NC328319  14.019  31.455   9.573
 2050POPC   PO428320  13.389  31.532   9.643
 2050POPC   GL128321  13.470  31.411   9.218
 2050POPC   GL228322  13.779  31.475   9.099
 2050POPC   C1A28323  13.402  31.384   8.755
 2050POPC   D2A28324  13.505  31.595   8.387
 2050POPC   C3A28325  13.331  31.421   8.020
 2050POPC   C4A28326  13.436  31.509   7.597
 2050POPC   C1B28327  13.982  31.574   8.697
 2050POPC   C2B28328  14.013  31.417   8.257
 2050POPC   C3B28329  13.999  31.371   7.812
 2050POPC   C4B28330  13.808  31.242   7.392
 2051POPC   NC328331  19.127   9.460   9.402
 2051POPC   PO428332  18.955  10.137   9.605
 2051POPC   GL128333  19.029   9.982   9.205
 2051POPC   GL228334  18.788   9.729   9.128
 2051POPC   C1A28335  19.087   9.953   8.767
 2051POPC   D2A28336  18.917  10.005   8.388
 2051POPC   C3A28337  19.200   9.966   8.070
 2051POPC   C4A28338  19.072   9.927   7.675
 2051POPC   C1B28339  18.959   9.468   8.777
 2051POPC   C2B28340  19.129   9.525   8.388
 2051POPC   C3B28341  18.930   9.531   8.003
 2051POPC   C4B28342  18.735   9.497   7.646
 2052POPC   NC328343   4.587  42.220   9.369
 2052POPC   PO428344   3.927  42.174   9.458
 2052POPC   GL128345   4.162  42.184   9.099
 2052POPC   GL228346   4.268  42.559   9.045
 2052POPC   C1A28347   4.358  42.185   8.705
 2052POPC   D2A28348   4.394  42.228   8.280
 2052POPC   C3A28349   4.087  42.141   8.041
 2052POPC   C4A28350   4.264  42.052   7.665
 2052POPC   C1B28351   4.531  42.689   8.649
 2052POPC   C2B28352   4.609  42.665   8.180
 2052POPC   C3B28353   4.430  42.610   7.786
 2052POPC   C4B28354   4.456  42.872   7.398
 2053POPC   NC328355  40.494  35.058   9.554
 2053POPC   PO428356  40.852  35.536   9.667
 2053POPC   GL128357  40.855  35.449   9.214
 2053POPC   GL228358  40.570  35.293   9.108
 2053POPC   C1A28359  41.021  35.420   8.796
 2053POPC   D2A28360  40.912  35.155   8.441
 2053POPC   C3A28361  40.940  35.280   8.018
 2053POPC   C4A28362  40.823  35.317   7.598
 2053POPC   C1B28363  40.480  35.263   8.681
 2053POPC   C2B28364  40.462  34.924   8.338
 2053POPC   C3B28365  40.473  35.053   7.908
 2053POPC   C4B28366  40.447  35.516   7.901
 2054POPC   NC328367  30.504  10.365   9.530
 2054POPC   PO428368  30.961  10.782   9.568
 2054POPC   GL128369  30.737  10.663   9.172
 2054POPC   GL228370  30.311  10.699   9.207
 2054POPC   C1A28371  30.911  10.581   8.710
 2054POPC   D2A28372  30.702  10.415   8.307
 2054POPC   C3A28373  30.877  10.568   7.882
 2054POPC   C4A28374  30.825  10.572   7.414
 2054POPC   C1B28375  30.421  10.646   8.789
 2054POPC   C2B28376  30.550  10.914   8.450
 2054POPC   C3B28377  30.434  10.795   8.045
 2054POPC   C4B28378  30.566  10.954   7.660
 2055POPC   NC328379  28.254   2.881   9.499
 2055POPC   PO428380  28.862   3.134   9.267
 2055POPC   GL128381  28.523   3.075   9.062
 2055POPC   GL228382  28.408   2.749   9.028
 2055POPC   C1A28383  28.528   3.096   8.648
 2055POPC   D2A28384  28.296   2.858   8.417
 2055POPC   C3A28385  28.523   2.661   8.144
 2055POPC   C4A28386  28.465   2.826   7.772
 2055POPC   C1B28387  28.351   2.410   8.714
 2055POPC   C2B28388  28.216   2.282   8.331
 2055POPC   C3B28389  28.187   2.330   7.897
 2055POPC   C4B28390  28.392   2.388   7.528
 2056POPC   NC328391  40.588  18.098   9.421
 2056POPC   PO428392  40.774  18.721   9.624
 2056POPC   GL128393  40.847  18.437   9.181
 2056POPC   GL228394  41.162  18.335   9.058
 2056POPC   C1A28395  40.745  18.156   8.790
 2056POPC   D2A28396  40.755  18.284   8.345
 2056POPC   C3A28397  40.499  18.163   7.981
 2056POPC   C4A28398  40.621  18.170   7.537
 2056POPC   C1B28399  41.112  18.499   8.666
 2056POPC   C2B28400  41.200  18.507   8.249
 2056POPC   C3B28401  41.008  18.283   7.900
 2056POPC   C4B28402  41.086  18.402   7.490
 2057POPC   NC328403  18.255  35.792   9.845
 2057POPC   PO428404  18.186  35.235   9.475
 2057POPC   GL128405  18.139  35.397   9.060
 2057POPC   GL228406  17.964  35.695   9.059
 2057POPC   C1A28407  18.311  35.357   8.650
 2057POPC   D2A28408  18.430  35.582   8.293
 2057POPC   C3A28409  18.321  35.289   8.019
 2057POPC   C4A28410  18.518  35.191   7.638
 2057POPC   C1B28411  17.774  35.553   8.717
 2057POPC   C2B28412  17.908  35.545   8.313
 2057POPC   C3B28413  17.905  35.796   7.989
 2057POPC   C4B28414  18.229  35.620   7.660
 2058POPC   NC328415  25.288  17.914   9.584
 2058POPC   PO428416  25.113  18.467   9.472
 2058POPC   GL128417  25.382  18.273   9.182
 2058POPC   GL228418  25.123  18.325   8.968
 2058POPC   C1A28419  25.574  18.307   8.752
 2058POPC   D2A28420  25.357  18.406   8.373
 2058POPC   C3A28421  25.309  18.140   8.021
 2058POPC   C4A28422  25.314  18.264   7.592
 2058POPC   C1B28423  24.858  18.435   8.647
 2058POPC   C2B28424  24.839  18.355   8.237
 2058POPC   C3B28425  24.815  18.158   7.866
 2058POPC   C4B28426  25.042  17.826   7.653
 2059POPC   NC328427  16.156  31.275   9.544
 2059POPC   PO428428  15.649  31.598   9.419
 2059POPC   GL128429  15.944  31.411   9.096
 2059POPC   GL228430  16.329  31.228   9.083
 2059POPC   C1A28431  15.740  31.462   8.705
 2059POPC   D2A28432  15.731  31.781   8.406
 2059POPC   C3A28433  15.783  31.660   7.968
 2059POPC   C4A28434  15.932  31.573   7.535
 2059POPC   C1B28435  16.165  31.192   8.691
 2059POPC   C2B28436  16.141  31.438   8.337
 2059POPC   C3B28437  16.146  31.306   7.927
 2059POPC   C4B28438  16.364  31.303   7.558
 2060POPC   NC328439  18.164   6.164   9.350
 2060POPC   PO428440  18.336   5.538   9.415
 2060POPC   GL128441  18.116   5.728   9.102
 2060POPC   GL228442  18.418   5.857   8.990
 2060POPC   C1A28443  18.034   5.934   8.690
 2060POPC   D2A28444  18.209   6.049   8.333
 2060POPC   C3A28445  18.145   5.812   7.978
 2060POPC   C4A28446  18.019   6.192   7.753
 2060POPC   C1B28447  18.608   6.075   8.659
 2060POPC   C2B28448  18.677   6.271   8.289
 2060POPC   C3B28449  18.503   6.161   7.918
 2060POPC   C4B28450  18.448   5.927   7.543
 2061POPC   NC328451  43.268   2.786   9.514
 2061POPC   PO428452  43.148   2.161   9.292
 2061POPC   GL128453  43.099   2.559   9.063
 2061POPC   GL228454  43.043   2.952   9.096
 2061POPC   C1A28455  43.417   2.756   8.821
 2061POPC   D2A28456  43.461   2.886   8.380
 2061POPC   C3A28457  43.018   2.876   8.216
 2061POPC   C4A28458  42.856   2.849   7.791
 2061POPC   C1B28459  43.131   3.146   8.684
 2061POPC   C2B28460  43.207   3.347   8.302
 2061POPC   C3B28461  43.191   3.219   7.861
 2061POPC   C4B28462  43.090   3.175   7.398
 2062POPC   NC328463  38.991  40.675   9.532
 2062POPC   PO428464  38.308  40.825   9.680
 2062POPC   GL128465  38.489  40.690   9.239
 2062POPC   GL228466  38.256  40.459   9.052
 2062POPC   C1A28467  38.712  40.687   8.807
 2062POPC   D2A28468  38.578  40.847   8.387
 2062POPC   C3A28469  38.669  40.721   7.978
 2062POPC   C4A28470  38.708  40.675   7.540
 2062POPC   C1B28471  38.197  40.744   8.707
 2062POPC   C2B28472  37.988  41.005   8.408
 2062POPC   C3B28473  38.190  40.944   7.999
 2062POPC   C4B28474  38.235  40.539   7.773
 2063POPC   NC328475   7.288  13.459   9.512
 2063POPC   PO428476   7.483  14.079   9.561
 2063POPC   GL128477   7.485  13.812   9.203
 2063POPC   GL228478   7.816  13.662   9.230
 2063POPC   C1A28479   7.405  13.518   8.842
 2063POPC   D2A28480   7.281  13.526   8.414
 2063POPC   C3A28481   7.400  13.339   8.024
 2063POPC   C4A28482   7.097  13.542   7.768
 2063POPC   C1B28483   7.803  13.833   8.808
 2063POPC   C2B28484   7.789  13.658   8.406
 2063POPC   C3B28485   7.744  13.719   7.987
 2063POPC   C4B28486   7.563  13.657   7.590
 2064POPC   NC328487  27.841  23.855   9.488
 2064POPC   PO428488  27.322  23.415   9.571
 2064POPC   GL128489  27.478  23.634   9.226
 2064POPC   GL228490  27.742  23.406   9.173
 2064POPC   C1A28491  27.411  23.781   8.827
 2064POPC   D2A28492  27.234  23.605   8.478
 2064POPC   C3A28493  27.395  23.711   8.091
 2064POPC   C4A28494  27.345  23.334   7.874
 2064POPC   C1B28495  27.885  23.624   8.801
 2064POPC   C2B28496  27.763  23.926   8.466
 2064POPC   C3B28497  27.876  23.911   8.039
 2064POPC   C4B28498  27.774  23.579   7.743
 2065POPC   NC328499  32.652  26.593   9.484
 2065POPC   PO428500  31.988  26.921   9.542
 2065POPC   GL128501  32.172  26.938   9.133
 2065POPC   GL228502  32.368  26.646   9.063
 2065POPC   C1A28503  31.991  26.810   8.712
 2065POPC   D2A28504  32.174  26.950   8.315
 2065POPC   C3A28505  31.984  26.909   7.928
 2065POPC   C4A28506  32.224  27.165   7.658
 2065POPC   C1B28507  32.482  26.914   8.722
 2065POPC   C2B28508  32.679  26.857   8.339
 2065POPC   C3B28509  32.504  26.799   7.939
 2065POPC   C4B28510  32.357  26.662   7.536
 2066POPC   NC328511  14.054  21.736   9.642
 2066POPC   PO428512  14.330  22.317   9.510
 2066POPC   GL128513  14.387  22.197   9.097
 2066POPC   GL228514  14.505  21.855   9.113
 2066POPC   C1A28515  14.652  22.327   8.769
 2066POPC   D2A28516  14.830  22.316   8.358
 2066POPC   C3A28517  14.546  22.166   8.073
 2066POPC   C4A28518  14.153  22.360   7.952
 2066POPC   C1B28519  14.502  21.847   8.643
 2066POPC   C2B28520  14.745  21.693   8.282
 2066POPC   C3B28521  14.591  21.628   7.869
 2066POPC   C4B28522  14.276  21.877   7.742
 2067POPC   NC328523  12.328  22.475   9.477
 2067POPC   PO428524  12.112  21.846   9.588
 2067POPC   GL128525  11.965  22.123   9.272
 2067POPC   GL228526  12.289  22.095   9.123
 2067POPC   C1A28527  11.816  22.220   8.854
 2067POPC   D2A28528  11.959  22.369   8.431
 2067POPC   C3A28529  11.924  22.045   8.165
 2067POPC   C4A28530  11.903  21.970   7.767
 2067POPC   C1B28531  12.441  22.259   8.742
 2067POPC   C2B28532  12.438  22.146   8.305
 2067POPC   C3B28533  12.351  22.152   7.862
 2067POPC   C4B28534  12.383  21.991   7.400
 2068POPC   NC328535  41.808  24.255   9.492
 2068POPC   PO428536  41.127  24.009   9.526
 2068POPC   GL128537  41.249  24.281   9.170
 2068POPC   GL228538  41.586  24.284   9.042
 2068POPC   C1A28539  41.252  24.481   8.726
 2068POPC   D2A28540  41.208  24.346   8.291
 2068POPC   C3A28541  41.412  24.632   8.005
 2068POPC   C4A28542  41.549  24.712   7.586
 2068POPC   C1B28543  41.904  24.206   8.749
 2068POPC   C2B28544  42.003  24.215   8.310
 2068POPC   C3B28545  41.764  24.231   7.961
 2068POPC   C4B28546  41.812  24.269   7.545
 2069POPC   NC328547  13.395  18.486   9.691
 2069POPC   PO428548  13.785  17.925   9.576
 2069POPC   GL128549  13.598  18.067   9.193
 2069POPC   GL228550  13.455  18.399   9.198
 2069POPC   C1A28551  13.782  18.296   8.829
 2069POPC   D2A28552  13.997  18.209   8.457
 2069POPC   C3A28553  13.790  18.376   8.087
 2069POPC   C4A28554  13.561  18.183   7.805
 2069POPC   C1B28555  13.285  18.411   8.767
 2069POPC   C2B28556  13.352  18.471   8.320
 2069POPC   C3B28557  13.306  18.603   7.870
 2069POPC   C4B28558  13.423  18.478   7.408
 2070POPC   NC328559  25.190   7.986   9.366
 2070POPC   PO428560  25.623   8.546   9.579
 2070POPC   GL128561  25.604   8.332   9.179
 2070POPC   GL228562  25.703   7.954   9.218
 2070POPC   C1A28563  25.328   8.444   8.807
 2070POPC   D2A28564  25.112   8.125   8.540
 2070POPC   C3A28565  25.110   8.162   8.110
 2070POPC   C4A28566  25.046   8.417   7.755
 2070POPC   C1B28567  25.564   7.992   8.789
 2070POPC   C2B28568  25.656   8.002   8.340
 2070POPC   C3B28569  25.598   8.196   7.928
 2070POPC   C4B28570  25.293   8.000   7.650
 2071POPC   NC328571  10.888  30.287   9.948
 2071POPC   PO428572  10.420  30.784   9.709
 2071POPC   GL128573  10.563  30.651   9.225
 2071POPC   GL228574  10.645  30.885   8.936
 2071POPC   C1A28575  10.353  30.528   8.794
 2071POPC   D2A28576  10.406  30.832   8.472
 2071POPC   C3A28577  10.587  30.786   8.092
 2071POPC   C4A28578  10.373  30.630   7.721
 2071POPC   C1B28579  10.780  31.186   8.633
 2071POPC   C2B28580  11.021  31.077   8.287
 2071POPC   C3B28581  11.023  31.147   7.876
 2071POPC   C4B28582  10.788  30.912   7.645
 2072POPC   NC328583  23.151  43.225   9.512
 2072POPC   PO428584  22.718  42.821   9.454
 2072POPC   GL128585  22.947  43.012   9.109
 2072POPC   GL228586  22.961  43.408   9.082
 2072POPC   C1A28587  22.864  43.027   8.712
 2072POPC   D2A28588  22.610  42.796   8.458
 2072POPC   C3A28589  22.807  42.904   8.110
 2072POPC   C4A28590  22.944  42.868   7.710
 2072POPC   C1B28591  22.612  43.476   8.809
 2072POPC   C2B28592  22.580  43.314   8.390
 2072POPC   C3B28593  22.649  43.417   7.966
 2072POPC   C4B28594  22.676  43.252   7.538
 2073POPC   NC328595  30.685   2.989   9.501
 2073POPC   PO428596  30.520   2.267   9.524
 2073POPC   GL128597  30.554   2.476   9.084
 2073POPC   GL228598  30.460   2.820   9.057
 2073POPC   C1A28599  30.649   2.632   8.620
 2073POPC   D2A28600  30.354   2.866   8.344
 2073POPC   C3A28601  30.511   2.956   7.945
 2073POPC   C4A28602  30.718   2.567   7.803
 2073POPC   C1B28603  30.760   3.077   8.845
 2073POPC   C2B28604  30.763   3.155   8.416
 2073POPC   C3B28605  30.987   2.962   8.096
 2073POPC   C4B28606  30.986   3.034   7.667
 2074POPC   NC328607   2.250  18.231   9.564
 2074POPC   PO428608   1.806  18.702   9.678
 2074POPC   GL128609   1.898  18.478   9.264
 2074POPC   GL228610   1.873  18.134   9.183
 2074POPC   C1A28611   1.936  18.485   8.803
 2074POPC   D2A28612   1.796  18.608   8.359
 2074POPC   C3A28613   1.957  18.391   7.967
 2074POPC   C4A28614   2.250  18.488   7.644
 2074POPC   C1B28615   2.124  17.997   8.836
 2074POPC   C2B28616   2.035  18.137   8.424
 2074POPC   C3B28617   1.701  18.004   8.148
 2074POPC   C4B28618   1.805  17.958   7.706
 2075POPC   NC328619  26.045   8.847   9.625
 2075POPC   PO428620  25.771   9.471   9.564
 2075POPC   GL128621  25.949   9.171   9.229
 2075POPC   GL228622  25.875   8.782   9.176
 2075POPC   C1A28623  26.115   9.161   8.824
 2075POPC   D2A28624  26.266   9.344   8.420
 2075POPC   C3A28625  26.158   9.151   8.027
 2075POPC   C4A28626  25.795   9.105   7.767
 2075POPC   C1B28627  26.014   8.597   8.821
 2075POPC   C2B28628  26.028   8.831   8.446
 2075POPC   C3B28629  25.868   8.709   8.083
 2075POPC   C4B28630  26.027   8.634   7.680
 2076POPC   NC328631  41.540   0.106   9.581
 2076POPC   PO428632  41.142   0.592   9.372
 2076POPC   GL128633  41.488   0.380   9.146
 2076POPC   GL228634  41.786   0.544   9.136
 2076POPC   C1A28635  41.627   0.357   8.702
 2076POPC   D2A28636  41.416   0.549   8.346
 2076POPC   C3A28637  41.609   0.374   7.979
 2076POPC   C4A28638  41.428   0.027   7.850
 2076POPC   C1B28639  41.791   0.863   8.783
 2076POPC   C2B28640  41.761   1.050   8.350
 2076POPC   C3B28641  41.589   0.878   7.982
 2076POPC   C4B28642  41.707   0.733   7.598
 2077POPC   NC328643  39.816  25.745   9.429
 2077POPC   PO428644  40.274  26.251   9.377
 2077POPC   GL128645  39.935  26.136   9.121
 2077POPC   GL228646  39.579  25.979   9.067
 2077POPC   C1A28647  39.965  25.980   8.737
 2077POPC   D2A28648  39.826  25.807   8.378
 2077POPC   C3A28649  40.147  25.764   8.047
 2077POPC   C4A28650  39.998  25.930   7.664
 2077POPC   C1B28651  39.573  26.325   8.816
 2077POPC   C2B28652  39.764  26.350   8.428
 2077POPC   C3B28653  39.898  26.240   8.060
 2077POPC   C4B28654  39.659  26.310   7.715
 2078POPC   NC328655  17.878  21.014   9.455
 2078POPC   PO428656  18.458  21.465   9.452
 2078POPC   GL128657  18.212  21.282   9.158
 2078POPC   GL228658  18.438  20.982   9.140
 2078POPC   C1A28659  18.087  21.537   8.803
 2078POPC   D2A28660  17.850  21.590   8.406
 2078POPC   C3A28661  18.106  21.645   8.052
 2078POPC   C4A28662  18.157  21.414   7.718
 2078POPC   C1B28663  18.587  21.281   8.802
 2078POPC   C2B28664  18.396  21.415   8.413
 2078POPC   C3B28665  18.573  21.340   8.027
 2078POPC   C4B28666  18.561  21.135   7.645
 2079POPC   NC328667  13.428  10.563   9.610
 2079POPC   PO428668  13.896  10.978   9.589
 2079POPC   GL128669  13.604  10.859   9.237
 2079POPC   GL228670  13.636  10.498   9.152
 2079POPC   C1A28671  13.366  10.792   8.862
 2079POPC   D2A28672  13.518  10.738   8.435
 2079POPC   C3A28673  13.574  10.646   7.990
 2079POPC   C4A28674  13.606  10.921   7.608
 2079POPC   C1B28675  13.579  10.297   8.743
 2079POPC   C2B28676  13.502  10.237   8.293
 2079POPC   C3B28677  13.716  10.151   7.898
 2079POPC   C4B28678  13.747  10.173   7.421
 2080POPC   NC328679  13.820  13.210   9.400
 2080POPC   PO428680  13.541  13.823   9.454
 2080POPC   GL128681  13.473  13.662   9.060
 2080POPC   GL228682  13.731  13.472   8.988
 2080POPC   C1A28683  13.356  13.511   8.659
 2080POPC   D2A28684  13.553  13.408   8.258
 2080POPC   C3A28685  13.833  13.715   8.111
 2080POPC   C4A28686  13.711  13.690   7.692
 2080POPC   C1B28687  13.960  13.498   8.629
 2080POPC   C2B28688  14.030  13.212   8.306
 2080POPC   C3B28689  13.986  13.291   7.865
 2080POPC   C4B28690  13.882  13.317   7.418
 2081POPC   NC328691   8.542  25.585   9.407
 2081POPC   PO428692   7.859  25.230   9.480
 2081POPC   GL128693   8.114  25.363   9.168
 2081POPC   GL228694   8.317  25.070   9.215
 2081POPC   C1A28695   8.021  25.406   8.725
 2081POPC   D2A28696   8.272  25.503   8.369
 2081POPC   C3A28697   8.188  25.266   8.036
 2081POPC   C4A28698   7.901  25.090   7.778
 2081POPC   C1B28699   8.458  25.173   8.775
 2081POPC   C2B28700   8.575  25.011   8.337
 2081POPC   C3B28701   8.641  25.088   7.878
 2081POPC   C4B28702   8.402  25.386   7.569
 2082POPC   NC328703   0.187  20.087   9.610
 2082POPC   PO428704   0.603  20.633   9.710
 2082POPC   GL128705   0.524  20.575   9.243
 2082POPC   GL228706   0.167  20.548   9.189
 2082POPC   C1A28707   0.671  20.703   8.789
 2082POPC   D2A28708   0.461  20.693   8.346
 2082POPC   C3A28709   0.669  20.796   7.932
 2082POPC   C4A28710   0.710  20.904   7.469
 2082POPC   C1B28711   0.323  20.355   8.777
 2082POPC   C2B28712   0.359  20.165   8.382
 2082POPC   C3B28713   0.239  20.347   7.984
 2082POPC   C4B28714   0.264  20.659   7.642
 2083POPC   NC328715  18.064  18.688   9.155
 2083POPC   PO428716  17.769  19.211   9.526
 2083POPC   GL128717  18.046  19.204   9.131
 2083POPC   GL228718  18.431  19.306   9.131
 2083POPC   C1A28719  18.182  19.125   8.686
 2083POPC   D2A28720  18.531  19.274   8.437
 2083POPC   C3A28721  18.352  19.314   8.071
 2083POPC   C4A28722  18.199  19.040   7.759
 2083POPC   C1B28723  18.611  18.940   8.873
 2083POPC   C2B28724  18.670  18.790   8.454
 2083POPC   C3B28725  18.633  18.889   8.015
 2083POPC   C4B28726  18.626  18.802   7.570
 2084POPC   NC328727  23.305  34.994   9.623
 2084POPC   PO428728  23.684  35.500   9.444
 2084POPC   GL128729  23.689  35.352   9.062
 2084POPC   GL228730  23.399  35.179   9.136
 2084POPC   C1A28731  23.883  35.288   8.652
 2084POPC   D2A28732  24.103  35.087   8.312
 2084POPC   C3A28733  24.020  35.299   7.958
 2084POPC   C4A28734  23.867  35.217   7.550
 2084POPC   C1B28735  23.310  35.478   8.760
 2084POPC   C2B28736  23.452  35.492   8.351
 2084POPC   C3B28737  23.527  35.447   7.913
 2084POPC   C4B28738  23.351  35.741   7.632
 2085POPC   NC328739  27.240  33.206   9.336
 2085POPC   PO428740  26.619  32.871   9.483
 2085POPC   GL128741  26.788  33.061   9.148
 2085POPC   GL228742  26.631  33.385   9.174
 2085POPC   C1A28743  26.926  32.796   8.826
 2085POPC   D2A28744  27.095  32.659   8.450
 2085POPC   C3A28745  26.833  32.695   8.131
 2085POPC   C4A28746  26.840  32.805   7.726
 2085POPC   C1B28747  26.916  33.423   8.802
 2085POPC   C2B28748  26.976  33.164   8.462
 2085POPC   C3B28749  27.019  33.239   8.059
 2085POPC   C4B28750  26.714  33.279   7.796
 2086POPC   NC328751  12.161  33.421   9.474
 2086POPC   PO428752  12.121  32.801   9.461
 2086POPC   GL128753  11.928  33.059   9.116
 2086POPC   GL228754  12.219  33.174   9.004
 2086POPC   C1A28755  11.834  33.047   8.660
 2086POPC   D2A28756  12.012  32.794   8.280
 2086POPC   C3A28757  12.212  32.959   7.907
 2086POPC   C4A28758  12.137  33.100   7.473
 2086POPC   C1B28759  12.338  33.082   8.563
 2086POPC   C2B28760  12.477  33.309   8.196
 2086POPC   C3B28761  12.353  33.453   7.789
 2086POPC   C4B28762  12.541  33.404   7.351
 2087POPC   NC328763  32.331  14.881   9.525
 2087POPC   PO428764  31.715  15.079   9.537
 2087POPC   GL128765  31.994  15.112   9.170
 2087POPC   GL228766  32.256  15.369   9.137
 2087POPC   C1A28767  32.111  15.071   8.722
 2087POPC   D2A28768  31.974  15.318   8.349
 2087POPC   C3A28769  32.157  15.259   7.936
 2087POPC   C4A28770  32.024  14.889   7.749
 2087POPC   C1B28771  32.517  15.387   8.779
 2087POPC   C2B28772  32.500  15.254   8.355
 2087POPC   C3B28773  32.601  15.537   8.036
 2087POPC   C4B28774  32.723  15.471   7.636
 2088POPC   NC328775  43.481   1.822   9.355
 2088POPC   PO428776  42.755   1.628   9.465
 2088POPC   GL128777  42.810   1.810   9.054
 2088POPC   GL228778  43.147   1.804   8.927
 2088POPC   C1A28779  42.724   1.875   8.600
 2088POPC   D2A28780  42.955   1.968   8.217
 2088POPC   C3A28781  43.139   1.644   7.972
 2088POPC   C4A28782  42.956   1.879   7.636
 2088POPC   C1B28783  43.157   2.175   8.654
 2088POPC   C2B28784  43.241   2.407   8.293
 2088POPC   C3B28785  43.195   2.331   7.864
 2088POPC   C4B28786  43.125   2.302   7.434
 2089POPC   NC328787  13.529  17.120   9.264
 2089POPC   PO428788  13.518  16.529   9.503
 2089POPC   GL128789  13.653  16.655   9.100
 2089POPC   GL228790  13.975  16.822   9.084
 2089POPC   C1A28791  13.578  16.790   8.671
 2089POPC   D2A28792  13.650  16.515   8.323
 2089POPC   C3A28793  13.574  16.576   7.904
 2089POPC   C4A28794  13.624  16.412   7.484
 2089POPC   C1B28795  13.968  17.140   8.774
 2089POPC   C2B28796  13.952  16.998   8.376
 2089POPC   C3B28797  13.816  17.031   7.963
 2089POPC   C4B28798  13.902  16.813   7.601
 2090POPC   NC328799  26.322  12.464   9.581
 2090POPC   PO428800  25.809  11.996   9.716
 2090POPC   GL128801  25.951  11.948   9.283
 2090POPC   GL228802  26.322  12.057   9.243
 2090POPC   C1A28803  25.770  11.925   8.847
 2090POPC   D2A28804  26.028  11.962   8.471
 2090POPC   C3A28805  25.825  11.905   8.063
 2090POPC   C4A28806  25.921  12.055   7.684
 2090POPC   C1B28807  26.084  12.303   8.927
 2090POPC   C2B28808  25.974  12.469   8.503
 2090POPC   C3B28809  26.085  12.366   8.089
 2090POPC   C4B28810  26.024  12.551   7.694
 2091POPC   NC328811  29.595   0.734   9.506
 2091POPC   PO428812  29.238   0.119   9.599
 2091POPC   GL128813  29.097   0.184   9.183
 2091POPC   GL228814  29.250   0.486   9.201
 2091POPC   C1A28815  28.933   0.377   8.798
 2091POPC   D2A28816  28.717   0.282   8.408
 2091POPC   C3A28817  29.011   0.449   8.116
 2091POPC   C4A28818  28.908   0.670   7.748
 2091POPC   C1B28819  29.392   0.652   8.826
 2091POPC   C2B28820  29.576   0.708   8.416
 2091POPC   C3B28821  29.527   0.467   8.052
 2091POPC   C4B28822  29.353   0.474   7.666
 2092POPC   NC328823  12.816   5.370   9.303
 2092POPC   PO428824  13.254   4.921   9.578
 2092POPC   GL128825  13.148   4.880   9.133
 2092POPC   GL228826  12.775   4.884   9.133
 2092POPC   C1A28827  13.009   5.016   8.698
 2092POPC   D2A28828  12.593   5.206   8.580
 2092POPC   C3A28829  12.572   5.311   8.137
 2092POPC   C4A28830  12.918   5.451   7.837
 2092POPC   C1B28831  12.537   4.652   8.801
 2092POPC   C2B28832  12.658   4.744   8.384
 2092POPC   C3B28833  12.883   4.936   8.044
 2092POPC   C4B28834  12.641   5.064   7.680
 2093POPC   NC328835  30.985  33.228   9.396
 2093POPC   PO428836  30.755  32.702   9.786
 2093POPC   GL128837  30.557  32.916   9.319
 2093POPC   GL228838  30.473  33.307   9.345
 2093POPC   C1A28839  30.658  32.768   8.848
 2093POPC   D2A28840  30.718  33.000   8.494
 2093POPC   C3A28841  30.783  32.880   8.094
 2093POPC   C4A28842  30.993  32.854   7.708
 2093POPC   C1B28843  30.475  33.258   8.897
 2093POPC   C2B28844  30.394  33.368   8.469
 2093POPC   C3B28845  30.316  33.196   8.073
 2093POPC   C4B28846  30.535  33.090   7.682
 2094POPC   NC328847  17.159  39.891   9.513
 2094POPC   PO428848  17.670  40.312   9.368
 2094POPC   GL128849  17.864  40.118   9.023
 2094POPC   GL228850  17.654  39.812   9.009
 2094POPC   C1A28851  17.821  40.091   8.618
 2094POPC   D2A28852  17.533  40.035   8.338
 2094POPC   C3A28853  17.715  40.213   8.027
 2094POPC   C4A28854  18.071  40.052   7.861
 2094POPC   C1B28855  17.294  39.717   8.705
 2094POPC   C2B28856  17.200  39.636   8.262
 2094POPC   C3B28857  17.324  39.863   7.873
 2094POPC   C4B28858  17.238  39.870   7.409
 2095POPC   NC328859  19.301  20.278   9.387
 2095POPC   PO428860  18.808  20.700   9.424
 2095POPC   GL128861  19.139  20.710   9.166
 2095POPC   GL228862  19.008  20.417   8.998
 2095POPC   C1A28863  19.329  20.797   8.786
 2095POPC   D2A28864  19.452  20.833   8.383
 2095POPC   C3A28865  19.199  20.605   8.112
 2095POPC   C4A28866  19.173  20.409   7.714
 2095POPC   C1B28867  18.814  20.797   8.785
 2095POPC   C2B28868  18.944  20.960   8.410
 2095POPC   C3B28869  18.739  20.833   8.048
 2095POPC   C4B28870  18.744  20.673   7.651
 2096POPC   NC328871   7.288   0.119   9.612
 2096POPC   PO428872   7.571   0.677   9.482
 2096POPC   GL128873   7.514   0.376   9.176
 2096POPC   GL228874   7.165   0.339   9.157
 2096POPC   C1A28875   7.695   0.260   8.782
 2096POPC   D2A28876   7.851   0.463   8.421
 2096POPC   C3A28877   7.754   0.280   8.029
 2096POPC   C4A28878   7.866   0.508   7.678
 2096POPC   C1B28879   7.226   0.514   8.715
 2096POPC   C2B28880   7.243   0.614   8.258
 2096POPC   C3B28881   7.344   0.514   7.832
 2096POPC   C4B28882   7.314   0.177   7.529
 2097POPC   NC328883  10.377   2.631   9.598
 2097POPC   PO428884  10.872   3.004   9.596
 2097POPC   GL128885  10.731   2.677   9.212
 2097POPC   GL228886  10.372   2.568   9.112
 2097POPC   C1A28887  10.729   2.594   8.736
 2097POPC   D2A28888  10.671   2.947   8.433
 2097POPC   C3A28889  10.602   2.843   7.987
 2097POPC   C4A28890  10.865   2.596   7.702
 2097POPC   C1B28891  10.241   2.355   8.754
 2097POPC   C2B28892  10.302   2.585   8.379
 2097POPC   C3B28893  10.351   2.407   7.975
 2097POPC   C4B28894  10.236   2.496   7.562
 2098POPC   NC328895  30.451  42.557   9.424
 2098POPC   PO428896  31.041  42.246   9.503
 2098POPC   GL128897  30.839  42.366   9.130
 2098POPC   GL228898  30.513  42.187   9.107
 2098POPC   C1A28899  30.755  42.334   8.693
 2098POPC   D2A28900  30.516  42.535   8.390
 2098POPC   C3A28901  30.693  42.407   8.023
 2098POPC   C4A28902  31.031  42.491   7.735
 2098POPC   C1B28903  30.276  42.159   8.731
 2098POPC   C2B28904  30.317  42.063   8.293
 2098POPC   C3B28905  30.298  41.880   7.878
 2098POPC   C4B28906  30.396  42.020   7.446
 2099POPC   NC328907  44.179   3.243   9.658
 2099POPC   PO428908  43.756   2.717   9.568
 2099POPC   GL128909  44.008   2.824   9.202
 2099POPC   GL228910  44.154   3.149   9.160
 2099POPC   C1A28911  43.943   2.767   8.773
 2099POPC   D2A28912  43.996   2.921   8.374
 2099POPC   C3A28913  44.116   2.694   8.008
 2099POPC   C4A28914  43.740   2.717   7.800
 2099POPC   C1B28915  44.145   3.277   8.740
 2099POPC   C2B28916  44.377   3.239   8.355
 2099POPC   C3B28917  44.192   3.193   7.972
 2099POPC   C4B28918  44.067   3.031   7.589
 2100POPC   NC328919  15.239  26.360   9.695
 2100POPC   PO428920  15.000  25.768   9.565
 2100POPC   GL128921  15.271  26.027   9.290
 2100POPC   GL228922  15.322  25.769   9.057
 2100POPC   C1A28923  15.353  26.264   8.870
 2100POPC   D2A28924  15.510  26.363   8.409
 2100POPC   C3A28925  15.288  26.246   8.022
 2100POPC   C4A28926  15.424  26.091   7.622
 2100POPC   C1B28927  15.394  25.820   8.592
 2100POPC   C2B28928  15.419  25.746   8.112
 2100POPC   C3B28929  15.077  25.706   7.826
 2100POPC   C4B28930  14.672  25.764   7.606
 2101POPC   NC328931  28.788  10.108   9.348
 2101POPC   PO428932  29.277   9.773   9.652
 2101POPC   GL128933  29.364   9.704   9.216
 2101POPC   GL228934  29.044   9.733   9.068
 2101POPC   C1A28935  29.458   9.811   8.762
 2101POPC   D2A28936  29.221   9.867   8.356
 2101POPC   C3A28937  29.347   9.805   7.909
 2101POPC   C4A28938  29.099   9.881   7.494
 2101POPC   C1B28939  28.752   9.490   8.789
 2101POPC   C2B28940  28.564   9.609   8.379
 2101POPC   C3B28941  28.822   9.735   8.015
 2101POPC   C4B28942  28.989   9.440   7.729
 2102POPC   NC328943  36.696  17.308   9.668
 2102POPC   PO428944  37.107  17.760   9.327
 2102POPC   GL128945  36.860  17.395   9.188
 2102POPC   GL228946  36.588  17.508   9.190
 2102POPC   C1A28947  36.936  17.173   8.800
 2102POPC   D2A28948  37.179  17.400   8.487
 2102POPC   C3A28949  37.178  17.300   8.060
 2102POPC   C4A28950  37.117  17.587   7.700
 2102POPC   C1B28951  36.751  17.634   8.758
 2102POPC   C2B28952  36.665  17.420   8.383
 2102POPC   C3B28953  36.712  17.524   7.974
 2102POPC   C4B28954  36.563  17.401   7.542
 2103POPC   NC328955   9.605  40.133   9.877
 2103POPC   PO428956  10.004  39.780   9.452
 2103POPC   GL128957   9.797  39.952   9.090
 2103POPC   GL228958   9.903  40.303   9.069
 2103POPC   C1A28959   9.528  40.118   8.738
 2103POPC   D2A28960   9.513  40.318   8.322
 2103POPC   C3A28961   9.652  40.048   8.011
 2103POPC   C4A28962   9.685  39.978   7.575
 2103POPC   C1B28963  10.025  40.164   8.644
 2103POPC   C2B28964  10.117  40.260   8.215
 2103POPC   C3B28965  10.006  40.336   7.788
 2103POPC   C4B28966  10.125  40.240   7.375
 2104POPC   NC328967   5.033   4.772   9.763
 2104POPC   PO428968   5.039   5.442   9.560
 2104POPC   GL128969   5.199   5.190   9.243
 2104POPC   GL228970   4.892   5.158   9.137
 2104POPC   C1A28971   5.317   5.213   8.785
 2104POPC   D2A28972   5.166   5.162   8.363
 2104POPC   C3A28973   5.147   5.427   8.017
 2104POPC   C4A28974   4.911   5.361   7.659
 2104POPC   C1B28975   4.842   5.016   8.729
 2104POPC   C2B28976   4.662   5.154   8.338
 2104POPC   C3B28977   4.844   4.973   7.982
 2104POPC   C4B28978   4.669   4.854   7.583
 2105POPC   NC328979   6.005  23.399   9.710
 2105POPC   PO428980   5.929  22.738   9.656
 2105POPC   GL128981   6.008  22.952   9.280
 2105POPC   GL228982   6.135  22.659   9.163
 2105POPC   C1A28983   5.866  22.982   8.826
 2105POPC   D2A28984   5.892  23.160   8.388
 2105POPC   C3A28985   5.675  22.994   8.002
 2105POPC   C4A28986   5.634  23.185   7.540
 2105POPC   C1B28987   6.010  22.460   8.774
 2105POPC   C2B28988   6.002  22.650   8.363
 2105POPC   C3B28989   6.172  22.939   8.031
 2105POPC   C4B28990   6.042  22.886   7.611
 2106POPC   NC328991  15.628  39.581   9.334
 2106POPC   PO428992  15.187  39.336   9.802
 2106POPC   GL128993  15.229  39.254   9.344
 2106POPC   GL228994  15.222  38.915   9.314
 2106POPC   C1A28995  15.150  39.189   8.877
 2106POPC   D2A28996  15.044  39.191   8.417
 2106POPC   C3A28997  15.215  39.290   7.981
 2106POPC   C4A28998  14.913  39.037   7.670
 2106POPC   C1B28999  15.397  38.761   8.937
 2106POPC   C2B29000  15.444  38.818   8.519
 2106POPC   C3B29001  15.323  38.817   8.107
 2106POPC   C4B29002  15.488  38.946   7.710
 2107POPC   NC329003   8.757  22.587   9.498
 2107POPC   PO429004   8.768  21.839   9.565
 2107POPC   GL129005   8.985  21.982   9.194
 2107POPC   GL229006   8.888  22.328   9.073
 2107POPC   C1A29007   9.094  21.978   8.750
 2107POPC   D2A29008   9.111  22.082   8.333
 2107POPC   C3A29009   8.945  21.848   8.039
 2107POPC   C4A29010   8.765  21.890   7.627
 2107POPC   C1B29011   8.657  22.251   8.680
 2107POPC   C2B29012   8.641  22.277   8.238
 2107POPC   C3B29013   8.973  22.338   7.903
 2107POPC   C4B29014   8.920  22.347   7.454
 2108POPC   NC329015  25.982   1.105   9.539
 2108POPC   PO429016  26.453   1.566   9.526
 2108POPC   GL129017  26.379   1.244   9.191
 2108POPC   GL229018  26.038   1.236   9.063
 2108POPC   C1A29019  26.387   1.071   8.752
 2108POPC   D2A29020  26.052   1.236   8.495
 2108POPC   C3A29021  26.087   1.202   8.052
 2108POPC   C4A29022  26.232   1.537   7.756
 2108POPC   C1B29023  25.955   0.841   8.857
 2108POPC   C2B29024  26.009   0.723   8.438
 2108POPC   C3B29025  25.819   0.713   8.083
 2108POPC   C4B29026  25.851   0.855   7.715
 2109POPC   NC329027  14.669  30.507   9.521
 2109POPC   PO429028  14.111  30.865   9.877
 2109POPC   GL129029  14.213  30.647   9.390
 2109POPC   GL229030  14.520  30.824   9.140
 2109POPC   C1A29031  14.234  30.472   8.933
 2109POPC   D2A29032  14.320  30.609   8.513
 2109POPC   C3A29033  14.329  30.809   8.103
 2109POPC   C4A29034  14.549  30.576   7.803
 2109POPC   C1B29035  14.805  30.972   8.777
 2109POPC   C2B29036  14.939  31.117   8.342
 2109POPC   C3B29037  14.836  30.995   7.913
 2109POPC   C4B29038  14.704  30.953   7.474
 2110POPC   NC329039  13.664   9.596   9.416
 2110POPC   PO429040  13.747  10.242   9.573
 2110POPC   GL129041  13.803  10.014   9.154
 2110POPC   GL229042  13.451   9.892   9.062
 2110POPC   C1A29043  13.852   9.738   8.775
 2110POPC   D2A29044  13.622   9.758   8.406
 2110POPC   C3A29045  13.778   9.605   8.052
 2110POPC   C4A29046  13.869   9.744   7.652
 2110POPC   C1B29047  13.298   9.568   8.756
 2110POPC   C2B29048  13.140   9.638   8.316
 2110POPC   C3B29049  13.337   9.801   7.908
 2110POPC   C4B29050  13.415   9.583   7.500
 2111POPC   NC329051  29.442   5.985   9.343
 2111POPC   PO429052  29.941   5.763   9.707
 2111POPC   GL129053  30.025   5.779   9.247
 2111POPC   GL229054  29.759   5.646   9.107
 2111POPC   C1A29055  30.042   5.818   8.746
 2111POPC   D2A29056  29.884   6.161   8.472
 2111POPC   C3A29057  30.157   6.184   8.135
 2111POPC   C4A29058  30.233   6.146   7.683
 2111POPC   C1B29059  29.669   5.409   8.758
 2111POPC   C2B29060  29.867   5.327   8.376
 2111POPC   C3B29061  30.090   5.642   8.202
 2111POPC   C4B29062  29.858   5.860   7.907
 2112POPC   NC329063  11.924  20.779   9.434
 2112POPC   PO429064  12.547  20.456   9.509
 2112POPC   GL129065  12.220  20.486   9.181
 2112POPC   GL229066  12.399  20.435   9.009
 2112POPC   C1A29067  11.929  20.391   8.811
 2112POPC   D2A29068  11.865  20.662   8.449
 2112POPC   C3A29069  11.769  20.508   8.032
 2112POPC   C4A29070  11.726  20.719   7.625
 2112POPC   C1B29071  12.319  20.734   8.715
 2112POPC   C2B29072  12.311  20.380   8.439
 2112POPC   C3B29073  12.227  20.246   8.053
 2112POPC   C4B29074  12.195  20.512   7.715
 2113POPC   NC329075  10.740  22.129   9.524
 2113POPC   PO429076  11.437  22.170   9.502
 2113POPC   GL129077  11.296  22.162   9.132
 2113POPC   GL229078  11.003  22.339   9.128
 2113POPC   C1A29079  11.370  21.972   8.765
 2113POPC   D2A29080  11.478  22.154   8.393
 2113POPC   C3A29081  11.396  21.955   8.024
 2113POPC   C4A29082  11.449  22.166   7.686
 2113POPC   C1B29083  11.056  22.373   8.704
 2113POPC   C2B29084  10.979  22.022   8.408
 2113POPC   C3B29085  10.892  21.855   8.016
 2113POPC   C4B29086  10.992  21.972   7.630
 2114POPC   NC329087  13.831  30.300   9.533
 2114POPC   PO429088  13.271  29.902   9.487
 2114POPC   GL129089  13.483  30.079   9.136
 2114POPC   GL229090  13.334  30.372   9.169
 2114POPC   C1A29091  13.749  29.928   8.779
 2114POPC   D2A29092  13.651  29.543   8.534
 2114POPC   C3A29093  13.728  29.466   8.094
 2114POPC   C4A29094  13.955  29.707   7.766
 2114POPC   C1B29095  13.210  30.466   8.771
 2114POPC   C2B29096  13.452  30.221   8.491
 2114POPC   C3B29097  13.665  29.978   8.209
 2114POPC   C4B29098  13.612  30.070   7.785
 2115POPC   NC329099  43.157   8.855   9.485
 2115POPC   PO429100  42.778   8.256   9.280
 2115POPC   GL129101  42.916   8.668   9.051
 2115POPC   GL229102  43.262   8.841   8.999
 2115POPC   C1A29103  42.891   8.887   8.683
 2115POPC   D2A29104  43.211   8.891   8.371
 2115POPC   C3A29105  43.077   9.074   8.007
 2115POPC   C4A29106  43.071   8.920   7.560
 2115POPC   C1B29107  43.339   9.215   8.760
 2115POPC   C2B29108  43.493   9.344   8.364
 2115POPC   C3B29109  43.573   9.213   7.940
 2115POPC   C4B29110  43.535   9.185   7.516
 2116POPC   NC329111  39.259  22.761   9.427
 2116POPC   PO429112  38.784  23.166   9.587
 2116POPC   GL129113  38.801  22.932   9.168
 2116POPC   GL229114  39.028  22.650   8.978
 2116POPC   C1A29115  38.924  23.073   8.744
 2116POPC   D2A29116  39.092  22.860   8.379
 2116POPC   C3A29117  39.032  23.047   7.978
 2116POPC   C4A29118  39.347  23.239   7.714
 2116POPC   C1B29119  39.418  22.910   8.841
 2116POPC   C2B29120  39.657  23.040   8.511
 2116POPC   C3B29121  39.552  22.945   8.094
 2116POPC   C4B29122  39.332  22.671   7.802
 2117POPC   NC329123   5.716  28.728   9.347
 2117POPC   PO429124   5.940  28.137   9.562
 2117POPC   GL129125   5.784  28.201   9.139
 2117POPC   GL229126   5.885  28.511   8.931
 2117POPC   C1A29127   5.973  28.040   8.755
 2117POPC   D2A29128   6.147  28.347   8.497
 2117POPC   C3A29129   6.022  28.286   8.080
 2117POPC   C4A29130   6.233  27.954   7.840
 2117POPC   C1B29131   5.563  28.329   8.657
 2117POPC   C2B29132   5.506  28.132   8.240
 2117POPC   C3B29133   5.459  28.356   7.826
 2117POPC   C4B29134   5.570  28.524   7.435
 2118POPC   NC329135   0.258  30.250   9.790
 2118POPC   PO429136   0.061  29.606   9.696
 2118POPC   GL129137   0.144  29.597   9.206
 2118POPC   GL229138   0.352  29.887   9.110
 2118POPC   C1A29139   0.247  29.641   8.712
 2118POPC   D2A29140   0.145  29.903   8.370
 2118POPC   C3A29141   0.306  29.691   8.039
 2118POPC   C4A29142   0.290  29.638   7.608
 2118POPC   C1B29143   0.614  30.066   8.752
 2118POPC   C2B29144   0.663  30.055   8.288
 2118POPC   C3B29145   0.651  29.981   7.829
 2118POPC   C4B29146   0.769  29.570   7.735
 2119POPC   NC329147   1.829   8.754   9.630
 2119POPC   PO429148   1.783   9.395   9.540
 2119POPC   GL129149   1.932   9.063   9.197
 2119POPC   GL229150   1.828   8.709   9.136
 2119POPC   C1A29151   2.121   8.992   8.744
 2119POPC   D2A29152   1.967   9.233   8.349
 2119POPC   C3A29153   1.924   9.261   7.892
 2119POPC   C4A29154   2.025   9.414   7.474
 2119POPC   C1B29155   1.830   8.541   8.717
 2119POPC   C2B29156   1.962   8.714   8.331
 2119POPC   C3B29157   2.080   8.758   7.901
 2119POPC   C4B29158   1.820   8.902   7.544
 2120POPC   NC329159  19.524   5.563   9.454
 2120POPC   PO429160  19.773   4.962   9.627
 2120POPC   GL129161  19.808   5.032   9.210
 2120POPC   GL229162  20.087   4.855   9.118
 2120POPC   C1A29163  19.631   5.238   8.842
 2120POPC   D2A29164  19.634   5.032   8.461
 2120POPC   C3A29165  19.737   5.210   8.112
 2120POPC   C4A29166  19.682   5.022   7.747
 2120POPC   C1B29167  20.078   5.034   8.721
 2120POPC   C2B29168  20.114   4.846   8.321
 2120POPC   C3B29169  20.174   5.018   7.902
 2120POPC   C4B29170  20.100   4.885   7.466
 2121POPC   NC329171  28.222  38.969   9.376
 2121POPC   PO429172  28.034  38.358   9.517
 2121POPC   GL129173  28.229  38.489   9.160
 2121POPC   GL229174  28.575  38.634   9.167
 2121POPC   C1A29175  28.043  38.667   8.805
 2121POPC   D2A29176  28.144  38.673   8.389
 2121POPC   C3A29177  28.185  38.271   8.178
 2121POPC   C4A29178  28.282  38.251   7.757
 2121POPC   C1B29179  28.543  38.556   8.730
 2121POPC   C2B29180  28.662  38.460   8.312
 2121POPC   C3B29181  28.453  38.673   7.964
 2121POPC   C4B29182  28.607  38.732   7.547
 2122POPC   NC329183  38.123  34.950   9.302
 2122POPC   PO429184  37.573  34.722   9.584
 2122POPC   GL129185  37.776  34.582   9.185
 2122POPC   GL229186  38.058  34.368   9.313
 2122POPC   C1A29187  37.815  34.746   8.736
 2122POPC   D2A29188  37.554  34.694   8.338
 2122POPC   C3A29189  37.494  34.817   7.886
 2122POPC   C4A29190  37.578  34.579   7.466
 2122POPC   C1B29191  38.133  34.329   8.848
 2122POPC   C2B29192  37.976  34.396   8.404
 2122POPC   C3B29193  37.791  34.382   7.982
 2122POPC   C4B29194  38.019  34.364   7.562
 2123POPC   NC329195  10.554   4.119   9.551
 2123POPC   PO429196  10.076   4.610   9.487
 2123POPC   GL129197  10.385   4.442   9.169
 2123POPC   GL229198  10.694   4.219   9.090
 2123POPC   C1A29199  10.632   4.625   8.828
 2123POPC   D2A29200  10.696   4.613   8.382
 2123POPC   C3A29201  10.384   4.690   8.035
 2123POPC   C4A29202  10.552   4.583   7.610
 2123POPC   C1B29203  10.385   4.182   8.716
 2123POPC   C2B29204  10.331   4.252   8.286
 2123POPC   C3B29205  10.638   4.234   7.965
 2123POPC   C4B29206  10.691   4.088   7.546
 2124POPC   NC329207  19.100  11.036   9.349
 2124POPC   PO429208  19.276  11.670   9.397
 2124POPC   GL129209  19.158  11.455   9.022
 2124POPC   GL229210  18.806  11.340   8.979
 2124POPC   C1A29211  19.113  11.447   8.571
 2124POPC   D2A29212  18.679  11.351   8.420
 2124POPC   C3A29213  18.701  11.272   7.999
 2124POPC   C4A29214  19.130  11.374   7.935
 2124POPC   C1B29215  18.942  10.983   8.696
 2124POPC   C2B29216  19.148  10.989   8.292
 2124POPC   C3B29217  19.203  10.849   7.879
 2124POPC   C4B29218  19.229  10.937   7.438
 2125POPC   NC329219  31.686  18.670   9.670
 2125POPC   PO429220  31.564  19.398   9.579
 2125POPC   GL129221  31.443  19.225   9.181
 2125POPC   GL229222  31.199  18.965   9.180
 2125POPC   C1A29223  31.595  19.003   8.824
 2125POPC   D2A29224  31.503  19.154   8.413
 2125POPC   C3A29225  31.821  19.205   8.107
 2125POPC   C4A29226  31.682  19.256   7.725
 2125POPC   C1B29227  31.099  18.858   8.714
 2125POPC   C2B29228  31.059  18.931   8.270
 2125POPC   C3B29229  31.234  19.174   7.950
 2125POPC   C4B29230  31.266  19.080   7.501
 2126POPC   NC329231  34.900  22.490   9.634
 2126POPC   PO429232  34.286  22.173   9.559
 2126POPC   GL129233  34.594  22.183   9.224
 2126POPC   GL229234  34.441  22.477   9.072
 2126POPC   C1A29235  34.638  22.088   8.764
 2126POPC   D2A29236  34.457  22.184   8.341
 2126POPC   C3A29237  34.596  22.017   7.933
 2126POPC   C4A29238  34.806  21.666   7.811
 2126POPC   C1B29239  34.864  22.529   8.924
 2126POPC   C2B29240  34.910  22.458   8.486
 2126POPC   C3B29241  34.914  22.534   8.062
 2126POPC   C4B29242  34.905  22.320   7.659
 2127POPC   NC329243  19.677  19.282   9.459
 2127POPC   PO429244  20.013  18.750   9.312
 2127POPC   GL129245  19.926  19.073   9.071
 2127POPC   GL229246  19.567  19.043   9.025
 2127POPC   C1A29247  19.966  19.057   8.664
 2127POPC   D2A29248  19.851  18.896   8.302
 2127POPC   C3A29249  19.862  19.284   8.089
 2127POPC   C4A29250  19.927  19.329   7.694
 2127POPC   C1B29251  19.621  18.674   8.777
 2127POPC   C2B29252  19.442  18.561   8.409
 2127POPC   C3B29253  19.490  18.679   8.008
 2127POPC   C4B29254  19.558  19.009   7.739
 2128POPC   NC329255  43.855  28.887   9.538
 2128POPC   PO429256  43.902  28.150   9.549
 2128POPC   GL129257  43.878  28.303   9.136
 2128POPC   GL229258  43.983  28.645   9.107
 2128POPC   C1A29259  43.924  28.026   8.781
 2128POPC   D2A29260  44.165  28.026   8.417
 2128POPC   C3A29261  44.045  28.004   7.984
 2128POPC   C4A29262  43.720  28.095   7.663
 2128POPC   C1B29263  43.826  28.738   8.662
 2128POPC   C2B29264  43.791  28.684   8.226
 2128POPC   C3B29265  43.902  28.495   7.926
 2128POPC   C4B29266  44.273  28.473   7.797
 2129POPC   NC329267  25.563  18.620   9.520
 2129POPC   PO429268  25.075  19.117   9.584
 2129POPC   GL129269  25.216  19.148   9.176
 2129POPC   GL229270  25.300  18.808   9.113
 2129POPC   C1A29271  25.437  19.225   8.785
 2129POPC   D2A29272  25.287  19.266   8.369
 2129POPC   C3A29273  25.411  19.042   7.985
 2129POPC   C4A29274  25.600  19.121   7.570
 2129POPC   C1B29275  25.049  18.894   8.737
 2129POPC   C2B29276  25.074  18.818   8.300
 2129POPC   C3B29277  25.111  18.614   7.906
 2129POPC   C4B29278  24.862  18.539   7.523
 2130POPC   NC329279  30.843  43.580   9.869
 2130POPC   PO429280  30.562  44.212   9.791
 2130POPC   GL129281  30.553  44.005   9.307
 2130POPC   GL229282  30.843  43.880   9.148
 2130POPC   C1A29283  30.472  43.856   8.825
 2130POPC   D2A29284  30.293  43.981   8.441
 2130POPC   C3A29285  30.511  43.818   8.063
 2130POPC   C4A29286  30.300  43.767   7.696
 2130POPC   C1B29287  30.959  43.600   8.821
 2130POPC   C2B29288  30.803  43.603   8.426
 2130POPC   C3B29289  30.888  43.440   8.034
 2130POPC   C4B29290  30.831  43.568   7.648
 2131POPC   NC329291  27.131  30.773   9.476
 2131POPC   PO429292  27.719  30.438   9.672
 2131POPC   GL129293  27.615  30.494   9.247
 2131POPC   GL229294  27.665  30.857   9.188
 2131POPC   C1A29295  27.714  30.305   8.865
 2131POPC   D2A29296  27.931  30.330   8.489
 2131POPC   C3A29297  27.769  30.588   8.172
 2131POPC   C4A29298  27.705  30.338   7.810
 2131POPC   C1B29299  27.603  30.882   8.713
 2131POPC   C2B29300  27.335  31.113   8.420
 2131POPC   C3B29301  27.376  31.054   7.979
 2131POPC   C4B29302  27.641  30.832   7.694
 2132POPC   NC329303  15.316  15.414   9.654
 2132POPC   PO429304  14.726  15.077   9.458
 2132POPC   GL129305  15.149  15.172   9.212
 2132POPC   GL229306  15.479  15.390   9.178
 2132POPC   C1A29307  15.167  15.032   8.789
 2132POPC   D2A29308  14.804  14.993   8.513
 2132POPC   C3A29309  14.918  15.028   8.103
 2132POPC   C4A29310  15.105  15.177   7.762
 2132POPC   C1B29311  15.304  15.516   8.784
 2132POPC   C2B29312  15.213  15.415   8.337
 2132POPC   C3B29313  15.482  15.462   7.934
 2132POPC   C4B29314  15.428  15.450   7.458
 2133POPC   NC329315   7.740  44.339   9.862
 2133POPC   PO429316   8.330  44.564   9.534
 2133POPC   GL129317   8.373  44.721   9.139
 2133POPC   GL229318   8.402  44.363   9.053
 2133POPC   C1A29319   8.112  44.735   8.773
 2133POPC   D2A29320   8.070  44.455   8.449
 2133POPC   C3A29321   8.002  44.510   8.041
 2133POPC   C4A29322   8.113  44.808   7.751
 2133POPC   C1B29323   8.590  44.541   8.703
 2133POPC   C2B29324   8.513  44.719   8.336
 2133POPC   C3B29325   8.523  44.554   7.948
 2133POPC   C4B29326   8.601  44.751   7.568
 2134POPC   NC329327  14.932  44.088   9.557
 2134POPC   PO429328  15.370  43.579   9.462
 2134POPC   GL129329  15.292  43.912   9.217
 2134POPC   GL229330  14.977  43.766   9.159
 2134POPC   C1A29331  15.190  44.073   8.818
 2134POPC   D2A29332  15.399  44.078   8.430
 2134POPC   C3A29333  15.229  44.123   8.056
 2134POPC   C4A29334  15.168  43.856   7.744
 2134POPC   C1B29335  14.743  43.765   8.808
 2134POPC   C2B29336  14.903  43.894   8.429
 2134POPC   C3B29337  14.966  43.607   8.133
 2134POPC   C4B29338  14.691  43.635   7.783
 2135POPC   NC329339  40.755   1.696   9.467
 2135POPC   PO429340  41.287   2.129   9.533
 2135POPC   GL129341  40.971   2.179   9.183
 2135POPC   GL229342  40.614   2.245   9.284
 2135POPC   C1A29343  40.722   1.962   8.819
 2135POPC   D2A29344  40.485   2.056   8.434
 2135POPC   C3A29345  40.584   1.802   8.112
 2135POPC   C4A29346  40.745   1.787   7.729
 2135POPC   C1B29347  40.571   2.443   8.873
 2135POPC   C2B29348  40.806   2.456   8.486
 2135POPC   C3B29349  40.812   2.266   8.078
 2135POPC   C4B29350  40.451   2.209   7.804
 2136POPC   NC329351  18.020  25.842   9.374
 2136POPC   PO429352  18.581  26.276   9.450
 2136POPC   GL129353  18.397  26.117   9.115
 2136POPC   GL229354  18.459  25.799   9.122
 2136POPC   C1A29355  18.170  26.016   8.740
 2136POPC   D2A29356  18.038  26.148   8.342
 2136POPC   C3A29357  18.220  25.928   8.014
 2136POPC   C4A29358  18.032  25.752   7.673
 2136POPC   C1B29359  18.507  25.585   8.786
 2136POPC   C2B29360  18.322  25.607   8.408
 2136POPC   C3B29361  18.460  25.476   8.029
 2136POPC   C4B29362  18.530  25.628   7.637
 2137POPC   NC329363  40.309   9.906   9.496
 2137POPC   PO429364  41.027   9.931   9.588
 2137POPC   GL129365  40.773   9.913   9.228
 2137POPC   GL229366  40.605   9.580   9.217
 2137POPC   C1A29367  40.843   9.946   8.788
 2137POPC   D2A29368  40.651   9.846   8.397
 2137POPC   C3A29369  40.826   9.918   8.004
 2137POPC   C4A29370  41.125   9.703   7.733
 2137POPC   C1B29371  40.515   9.528   8.785
 2137POPC   C2B29372  40.703   9.318   8.392
 2137POPC   C3B29373  40.684   9.421   7.944
 2137POPC   C4B29374  40.475   9.435   7.495
 2138POPC   NC329375  28.784  43.797   9.717
 2138POPC   PO429376  28.145  44.052   9.614
 2138POPC   GL129377  28.225  43.836   9.220
 2138POPC   GL229378  28.506  43.879   9.119
 2138POPC   C1A29379  28.172  44.021   8.769
 2138POPC   D2A29380  28.324  43.869   8.357
 2138POPC   C3A29381  28.440  44.060   7.980
 2138POPC   C4A29382  28.412  43.841   7.584
 2138POPC   C1B29383  28.658  43.827   8.718
 2138POPC   C2B29384  28.814  44.200   8.528
 2138POPC   C3B29385  28.872  44.297   8.107
 2138POPC   C4B29386  28.903  44.055   7.734
 2139POPC   NC329387   1.590  36.993   9.476
 2139POPC   PO429388   2.280  37.032   9.504
 2139POPC   GL129389   2.022  36.865   9.166
 2139POPC   GL229390   1.870  37.168   9.082
 2139POPC   C1A29391   1.872  36.671   8.760
 2139POPC   D2A29392   1.862  36.834   8.346
 2139POPC   C3A29393   1.977  36.545   8.029
 2139POPC   C4A29394   1.960  36.714   7.641
 2139POPC   C1B29395   2.142  37.117   8.729
 2139POPC   C2B29396   2.285  37.246   8.357
 2139POPC   C3B29397   2.204  37.029   8.005
 2139POPC   C4B29398   2.102  37.200   7.625
 2140POPC   NC329399  16.814  21.028   9.219
 2140POPC   PO429400  16.922  21.619   9.589
 2140POPC   GL129401  16.778  21.532   9.201
 2140POPC   GL229402  16.461  21.645   9.182
 2140POPC   C1A29403  16.706  21.453   8.758
 2140POPC   D2A29404  16.806  21.192   8.472
 2140POPC   C3A29405  16.838  21.409   8.113
 2140POPC   C4A29406  16.731  21.289   7.708
 2140POPC   C1B29407  16.309  21.752   8.793
 2140POPC   C2B29408  16.498  21.780   8.389
 2140POPC   C3B29409  16.433  21.688   7.958
 2140POPC   C4B29410  16.494  22.078   7.761
 2141POPC   NC329411  10.220   8.704   9.557
 2141POPC   PO429412  10.504   9.334   9.538
 2141POPC   GL129413  10.693   9.127   9.182
 2141POPC   GL229414  10.495   8.856   9.126
 2141POPC   C1A29415  10.783   9.167   8.756
 2141POPC   D2A29416  10.960   9.198   8.336
 2141POPC   C3A29417  10.672   9.002   8.041
 2141POPC   C4A29418  10.606   8.636   7.832
 2141POPC   C1B29419  10.450   8.652   8.728
 2141POPC   C2B29420  10.309   8.646   8.300
 2141POPC   C3B29421  10.122   8.455   7.944
 2141POPC   C4B29422  10.264   8.487   7.495
 2142POPC   NC329423   6.808  32.920   9.548
 2142POPC   PO429424   6.250  32.679   9.477
 2142POPC   GL129425   6.473  33.004   9.139
 2142POPC   GL229426   6.838  33.144   9.108
 2142POPC   C1A29427   6.503  33.187   8.706
 2142POPC   D2A29428   6.607  32.924   8.357
 2142POPC   C3A29429   6.631  33.047   7.961
 2142POPC   C4A29430   6.645  32.731   7.691
 2142POPC   C1B29431   6.986  33.397   8.775
 2142POPC   C2B29432   6.936  33.292   8.347
 2142POPC   C3B29433   7.118  33.331   7.961
 2142POPC   C4B29434   6.956  33.126   7.570
 2143POPC   NC329435  20.889   8.242   9.424
 2143POPC   PO429436  20.240   8.403   9.749
 2143POPC   GL129437  20.432   8.323   9.200
 2143POPC   GL229438  20.791   8.451   8.978
 2143POPC   C1A29439  20.637   8.021   8.837
 2143POPC   D2A29440  20.825   8.231   8.448
 2143POPC   C3A29441  20.914   8.284   7.960
 2143POPC   C4A29442  20.636   8.182   7.583
 2143POPC   C1B29443  20.433   8.465   8.717
 2143POPC   C2B29444  20.183   8.419   8.412
 2143POPC   C3B29445  20.179   8.623   8.066
 2143POPC   C4B29446  20.469   8.643   7.726
 2144POPC   NC329447  41.748  38.293   9.706
 2144POPC   PO429448  41.252  38.653   9.519
 2144POPC   GL129449  41.420  38.391   9.226
 2144POPC   GL229450  41.644  38.566   9.035
 2144POPC   C1A29451  41.264  38.322   8.796
 2144POPC   D2A29452  41.295  38.172   8.384
 2144POPC   C3A29453  41.507  38.394   8.092
 2144POPC   C4A29454  41.450  38.485   7.666
 2144POPC   C1B29455  41.796  38.765   8.671
 2144POPC   C2B29456  41.738  38.816   8.257
 2144POPC   C3B29457  41.859  38.730   7.834
 2144POPC   C4B29458  41.861  38.513   7.369
 2145POPC   NC329459  31.164  17.033   9.247
 2145POPC   PO429460  31.385  16.515   9.669
 2145POPC   GL129461  31.511  16.626   9.236
 2145POPC   GL229462  31.167  16.541   9.195
 2145POPC   C1A29463  31.593  16.693   8.746
 2145POPC   D2A29464  31.780  16.605   8.278
 2145POPC   C3A29465  31.510  16.791   7.929
 2145POPC   C4A29466  31.580  16.935   7.467
 2145POPC   C1B29467  31.112  16.485   8.752
 2145POPC   C2B29468  31.226  16.671   8.356
 2145POPC   C3B29469  31.048  16.588   7.940
 2145POPC   C4B29470  31.191  16.595   7.522
 2146POPC   NC329471  23.431  44.143   9.365
 2146POPC   PO429472  24.003  44.402   9.574
 2146POPC   GL129473  23.897  44.227   9.156
 2146POPC   GL229474  23.751  43.856   9.098
 2146POPC   C1A29475  23.759  44.252   8.723
 2146POPC   D2A29476  23.978  44.064   8.355
 2146POPC   C3A29477  24.158  44.283   8.001
 2146POPC   C4A29478  23.802  44.178   7.770
 2146POPC   C1B29479  23.415  43.800   8.756
 2146POPC   C2B29480  23.415  43.639   8.293
 2146POPC   C3B29481  23.507  43.643   7.829
 2146POPC   C4B29482  23.400  43.517   7.369
 2147POPC   NC329483  43.357  32.154   9.348
 2147POPC   PO429484  44.038  32.042   9.418
 2147POPC   GL129485  43.939  32.130   9.030
 2147POPC   GL229486  44.010  32.489   9.004
 2147POPC   C1A29487  44.025  32.128   8.600
 2147POPC   D2A29488  44.200  31.990   8.201
 2147POPC   C3A29489  43.955  32.095   7.882
 2147POPC   C4A29490  43.538  31.970   7.753
 2147POPC   C1B29491  43.620  32.456   8.797
 2147POPC   C2B29492  43.513  32.259   8.419
 2147POPC   C3B29493  43.565  32.411   7.998
 2147POPC   C4B29494  43.609  32.787   7.824
 2148POPC   NC329495   7.922  27.301   9.406
 2148POPC   PO429496   8.516  26.792   9.435
 2148POPC   GL129497   8.477  26.994   9.091
 2148POPC   GL229498   8.126  26.950   9.091
 2148POPC   C1A29499   8.437  26.809   8.685
 2148POPC   D2A29500   8.255  26.887   8.300
 2148POPC   C3A29501   8.535  26.844   7.988
 2148POPC   C4A29502   8.671  27.056   7.647
 2148POPC   C1B29503   7.923  26.884   8.704
 2148POPC   C2B29504   7.713  26.939   8.289
 2148POPC   C3B29505   7.932  26.870   7.887
 2148POPC   C4B29506   7.828  26.501   7.598
 2149POPC   NC329507  16.139  38.199   9.249
 2149POPC   PO429508  15.968  38.802   9.607
 2149POPC   GL129509  16.126  38.731   9.205
 2149POPC   GL229510  15.825  38.534   9.062
 2149POPC   C1A29511  16.255  38.670   8.772
 2149POPC   D2A29512  15.949  38.530   8.476
 2149POPC   C3A29513  15.984  38.287   8.087
 2149POPC   C4A29514  16.180  38.482   7.739
 2149POPC   C1B29515  15.568  38.298   8.742
 2149POPC   C2B29516  15.517  38.373   8.281
 2149POPC   C3B29517  15.562  38.442   7.844
 2149POPC   C4B29518  15.749  38.563   7.456
 2150POPC   NC329519  17.396  44.825   9.499
 2150POPC   PO429520  17.664  44.198   9.589
 2150POPC   GL129521  17.555  44.411   9.194
 2150POPC   GL229522  17.462  44.738   9.002
 2150POPC   C1A29523  17.752  44.335   8.797
 2150POPC   D2A29524  17.772  44.501   8.384
 2150POPC   C3A29525  17.424  44.359   8.140
 2150POPC   C4A29526  17.500  44.326   7.734
 2150POPC   C1B29527  17.811  44.964   8.728
 2150POPC   C2B29528  17.950  44.976   8.262
 2150POPC   C3B29529  17.680  44.762   7.926
 2150POPC   C4B29530  17.246  44.848   7.791
 2151POPC   NC329531  21.618  44.702   9.613
 2151POPC   PO429532  20.871  44.556   9.657
 2151POPC   GL129533  21.203  44.673   9.288
 2151POPC   GL229534  21.534  44.523   9.147
 2151POPC   C1A29535  21.262  44.883   8.856
 2151POPC   D2A29536  21.566  44.822   8.509
 2151POPC   C3A29537  21.370  44.841   8.122
 2151POPC   C4A29538  21.080  44.545   7.938
 2151POPC   C1B29539  21.437  44.369   8.731
 2151POPC   C2B29540  21.637  44.337   8.328
 2151POPC   C3B29541  21.568  44.412   7.887
 2151POPC   C4B29542  21.469  44.364   7.419
 2152POPC   NC329543  41.302  40.689   9.434
 2152POPC   PO429544  41.932  40.596   9.558
 2152POPC   GL129545  41.735  40.720   9.153
 2152POPC   GL229546  41.390  40.907   8.975
 2152POPC   C1A29547  41.653  40.524   8.802
 2152POPC   D2A29548  41.514  40.692   8.460
 2152POPC   C3A29549  41.676  40.498   8.103
 2152POPC   C4A29550  41.535  40.568   7.724
 2152POPC   C1B29551  41.760  41.089   8.798
 2152POPC   C2B29552  41.854  41.060   8.389
 2152POPC   C3B29553  41.600  41.012   8.038
 2152POPC   C4B29554  41.720  41.345   7.806
 2153POPC   NC329555  19.601  18.647   9.478
 2153POPC   PO429556  20.215  18.384   9.686
 2153POPC   GL129557  19.967  18.260   9.294
 2153POPC   GL229558  19.706  18.047   9.257
 2153POPC   C1A29559  20.067  18.302   8.849
 2153POPC   D2A29560  19.887  18.239   8.451
 2153POPC   C3A29561  20.056  18.406   8.049
 2153POPC   C4A29562  19.929  18.646   7.697
 2153POPC   C1B29563  19.554  18.152   8.861
 2153POPC   C2B29564  19.388  18.061   8.458
 2153POPC   C3B29565  19.592  18.157   8.052
 2153POPC   C4B29566  19.490  18.327   7.662
 2154POPC   NC329567  22.283  40.748  10.125
 2154POPC   PO429568  21.895  40.581   9.644
 2154POPC   GL129569  22.015  40.578   9.123
 2154POPC   GL229570  22.238  40.914   9.033
 2154POPC   C1A29571  21.997  40.683   8.647
 2154POPC   D2A29572  22.211  40.786   8.214
 2154POPC   C3A29573  22.102  40.649   7.779
 2154POPC   C4A29574  21.887  40.308   7.531
 2154POPC   C1B29575  22.397  41.037   8.636
 2154POPC   C2B29576  22.342  41.278   8.280
 2154POPC   C3B29577  22.354  41.133   7.834
 2154POPC   C4B29578  22.516  40.849   7.480
 2155POPC   NC329579  13.113  31.827   9.371
 2155POPC   PO429580  12.682  31.351   9.536
 2155POPC   GL129581  12.675  31.551   9.132
 2155POPC   GL229582  12.995  31.458   9.044
 2155POPC   C1A29583  12.666  31.389   8.679
 2155POPC   D2A29584  12.920  31.501   8.321
 2155POPC   C3A29585  12.770  31.453   7.934
 2155POPC   C4A29586  12.546  31.725   7.703
 2155POPC   C1B29587  13.051  31.792   8.716
 2155POPC   C2B29588  13.156  31.965   8.294
 2155POPC   C3B29589  13.098  31.833   7.841
 2155POPC   C4B29590  12.962  31.524   7.473
 2156POPC   NC329591  35.407  28.867   9.218
 2156POPC   PO429592  35.181  29.271   9.707
 2156POPC   GL129593  35.241  29.349   9.272
 2156POPC   GL229594  35.585  29.331   9.304
 2156POPC   C1A29595  35.098  29.289   8.841
 2156POPC   D2A29596  35.273  29.019   8.528
 2156POPC   C3A29597  35.302  29.306   8.193
 2156POPC   C4A29598  35.219  29.455   7.783
 2156POPC   C1B29599  35.630  29.344   8.821
 2156POPC   C2B29600  35.671  29.590   8.427
 2156POPC   C3B29601  35.738  29.525   8.008
 2156POPC   C4B29602  35.670  29.107   7.885
 2157POPC   NC329603  19.279  23.795   9.490
 2157POPC   PO429604  19.862  23.437   9.470
 2157POPC   GL129605  19.934  23.573   9.090
 2157POPC   GL229606  19.691  23.832   9.126
 2157POPC   C1A29607  20.011  23.638   8.657
 2157POPC   D2A29608  19.831  23.843   8.317
 2157POPC   C3A29609  19.682  23.555   8.028
 2157POPC   C4A29610  19.470  23.641   7.655
 2157POPC   C1B29611  19.682  24.095   8.791
 2157POPC   C2B29612  19.992  24.272   8.539
 2157POPC   C3B29613  20.180  24.225   8.128
 2157POPC   C4B29614  19.944  23.986   7.796
 2158POPC   NC329615  35.774  25.466   9.426
 2158POPC   PO429616  35.236  25.189   9.427
 2158POPC   GL129617  35.225  25.259   9.055
 2158POPC   GL229618  34.898  25.167   8.939
 2158POPC   C1A29619  35.464  25.264   8.712
 2158POPC   D2A29620  35.330  25.167   8.314
 2158POPC   C3A29621  35.650  24.961   8.090
 2158POPC   C4A29622  35.753  25.264   7.833
 2158POPC   C1B29623  35.021  25.555   8.708
 2158POPC   C2B29624  35.017  25.637   8.288
 2158POPC   C3B29625  35.278  25.555   7.918
 2158POPC   C4B29626  35.313  25.339   7.530
 2159POPC   NC329627   2.182   5.441   9.524
 2159POPC   PO429628   1.769   5.922   9.492
 2159POPC   GL129629   1.815   6.137   9.129
 2159POPC   GL229630   2.163   5.988   9.150
 2159POPC   C1A29631   1.945   6.198   8.708
 2159POPC   D2A29632   1.956   5.917   8.350
 2159POPC   C3A29633   1.868   6.066   7.926
 2159POPC   C4A29634   1.829   5.773   7.570
 2159POPC   C1B29635   2.312   5.794   8.787
 2159POPC   C2B29636   2.420   5.680   8.356
 2159POPC   C3B29637   2.215   5.686   7.942
 2159POPC   C4B29638   2.321   5.580   7.509
 2160POPC   NC329639  15.712  14.670   9.627
 2160POPC   PO429640  16.337  14.374   9.613
 2160POPC   GL129641  16.101  14.497   9.216
 2160POPC   GL229642  15.728  14.471   9.152
 2160POPC   C1A29643  16.030  14.393   8.761
 2160POPC   D2A29644  16.190  14.041   8.554
 2160POPC   C3A29645  16.101  14.142   8.149
 2160POPC   C4A29646  16.221  14.289   7.748
 2160POPC   C1B29647  15.540  14.592   8.751
 2160POPC   C2B29648  15.670  14.549   8.321
 2160POPC   C3B29649  15.712  14.377   7.920
 2160POPC   C4B29650  15.716  14.413   7.494
 2161POPC   NC329651  15.471  11.468   9.361
 2161POPC   PO429652  16.105  11.403   9.680
 2161POPC   GL129653  15.999  11.315   9.250
 2161POPC   GL229654  16.312  11.492   9.154
 2161POPC   C1A29655  15.766  11.255   8.822
 2161POPC   D2A29656  15.900  11.458   8.440
 2161POPC   C3A29657  15.697  11.448   8.028
 2161POPC   C4A29658  15.767  11.003   7.902
 2161POPC   C1B29659  16.288  11.204   8.803
 2161POPC   C2B29660  16.412  11.226   8.364
 2161POPC   C3B29661  16.208  11.392   7.992
 2161POPC   C4B29662  16.261  11.266   7.581
 2162POPC   NC329663   5.567  30.941   9.398
 2162POPC   PO429664   6.278  30.869   9.495
 2162POPC   GL129665   6.113  30.590   9.196
 2162POPC   GL229666   5.781  30.624   9.071
 2162POPC   C1A29667   6.124  30.805   8.757
 2162POPC   D2A29668   5.936  30.700   8.396
 2162POPC   C3A29669   6.033  30.842   8.008
 2162POPC   C4A29670   5.784  30.757   7.667
 2162POPC   C1B29671   5.619  30.935   8.737
 2162POPC   C2B29672   5.279  30.975   8.433
 2162POPC   C3B29673   5.400  31.004   7.979
 2162POPC   C4B29674   5.359  31.036   7.524
 2163POPC   NC329675  42.104  11.386   9.324
 2163POPC   PO429676  42.451  10.994   9.742
 2163POPC   GL129677  42.598  10.975   9.226
 2163POPC   GL229678  42.569  11.282   9.109
 2163POPC   C1A29679  42.421  10.957   8.753
 2163POPC   D2A29680  42.589  11.095   8.372
 2163POPC   C3A29681  42.456  10.951   7.953
 2163POPC   C4A29682  42.162  11.119   7.652
 2163POPC   C1B29683  42.726  11.580   8.818
 2163POPC   C2B29684  42.652  11.629   8.379
 2163POPC   C3B29685  42.431  11.475   8.039
 2163POPC   C4B29686  42.490  11.715   7.676
 2164POPC   NC329687   6.049   0.399   9.678
 2164POPC   PO429688   5.428   0.440   9.684
 2164POPC   GL129689   5.719   0.376   9.290
 2164POPC   GL229690   5.995   0.576   9.193
 2164POPC   C1A29691   5.812   0.181   8.860
 2164POPC   D2A29692   5.994   0.109   8.442
 2164POPC   C3A29693   5.734   0.208   8.094
 2164POPC   C4A29694   5.992   0.272   7.763
 2164POPC   C1B29695   5.689   0.675   8.876
 2164POPC   C2B29696   5.674   0.685   8.439
 2164POPC   C3B29697   5.711   0.950   8.090
 2164POPC   C4B29698   5.805   0.733   7.721
 2165POPC   NC329699  27.834  16.693   9.447
 2165POPC   PO429700  27.305  16.310   9.460
 2165POPC   GL129701  27.481  16.534   9.081
 2165POPC   GL229702  27.425  16.877   9.108
 2165POPC   C1A29703  27.581  16.752   8.639
 2165POPC   D2A29704  27.448  17.031   8.264
 2165POPC   C3A29705  27.464  16.907   7.794
 2165POPC   C4A29706  27.397  16.546   7.529
 2165POPC   C1B29707  27.816  17.111   8.955
 2165POPC   C2B29708  28.016  17.029   8.570
 2165POPC   C3B29709  27.955  16.900   8.181
 2165POPC   C4B29710  27.937  17.094   7.796
 2166POPC   NC329711  25.651   7.201   9.438
 2166POPC   PO429712  26.285   7.215   9.476
 2166POPC   GL129713  26.057   7.429   9.129
 2166POPC   GL229714  25.823   7.257   8.946
 2166POPC   C1A29715  26.228   7.447   8.693
 2166POPC   D2A29716  26.567   7.548   8.423
 2166POPC   C3A29717  26.329   7.466   8.059
 2166POPC   C4A29718  26.397   7.594   7.665
 2166POPC   C1B29719  25.725   7.534   8.617
 2166POPC   C2B29720  25.786   7.457   8.196
 2166POPC   C3B29721  25.663   7.416   7.750
 2166POPC   C4B29722  25.823   7.460   7.312
 2167POPC   NC329723  25.678  20.307   9.684
 2167POPC   PO429724  25.123  20.763   9.611
 2167POPC   GL129725  25.338  20.757   9.213
 2167POPC   GL229726  25.172  21.038   9.133
 2167POPC   C1A29727  25.391  20.541   8.798
 2167POPC   D2A29728  25.634  20.601   8.395
 2167POPC   C3A29729  25.437  20.693   8.007
 2167POPC   C4A29730  25.105  20.711   7.635
 2167POPC   C1B29731  25.043  20.990   8.741
 2167POPC   C2B29732  25.111  20.755   8.396
 2167POPC   C3B29733  25.001  20.985   8.028
 2167POPC   C4B29734  24.788  21.116   7.656
 2168POPC   NC329735  14.498  15.493   9.327
 2168POPC   PO429736  14.229  15.195   9.851
 2168POPC   GL129737  14.253  15.041   9.315
 2168POPC   GL229738  14.162  15.304   8.994
 2168POPC   C1A29739  14.114  14.815   8.932
 2168POPC   D2A29740  14.106  15.043   8.526
 2168POPC   C3A29741  14.402  14.972   8.165
 2168POPC   C4A29742  14.206  14.999   7.774
 2168POPC   C1B29743  14.499  15.380   8.677
 2168POPC   C2B29744  14.663  15.478   8.270
 2168POPC   C3B29745  14.605  15.337   7.839
 2168POPC   C4B29746  14.530  15.333   7.378
 2169POPC   NC329747  44.297  16.889   9.564
 2169POPC   PO429748  44.868  16.429   9.573
 2169POPC   GL129749  44.652  16.674   9.296
 2169POPC   GL229750  44.403  16.441   9.325
 2169POPC   C1A29751  44.713  16.935   8.917
 2169POPC   D2A29752  44.754  16.719   8.539
 2169POPC   C3A29753  44.773  16.800   8.137
 2169POPC   C4A29754  44.592  16.794   7.754
 2169POPC   C1B29755  44.442  16.457   8.869
 2169POPC   C2B29756  44.283  16.562   8.454
 2169POPC   C3B29757  44.344  16.438   8.066
 2169POPC   C4B29758  44.130  16.547   7.750
 2170POPC   NC329759   7.981   4.991   9.400
 2170POPC   PO429760   8.361   5.481   9.734
 2170POPC   GL129761   8.396   5.341   9.266
 2170POPC   GL229762   8.451   4.978   9.151
 2170POPC   C1A29763   8.262   5.292   8.809
 2170POPC   D2A29764   8.302   5.051   8.441
 2170POPC   C3A29765   8.240   5.309   8.091
 2170POPC   C4A29766   8.059   5.369   7.707
 2170POPC   C1B29767   8.603   4.732   8.770
 2170POPC   C2B29768   8.472   4.550   8.364
 2170POPC   C3B29769   8.099   4.624   8.134
 2170POPC   C4B29770   8.094   4.846   7.752
 2171POPC   NC329771  25.218  24.970   9.489
 2171POPC   PO429772  25.529  25.611   9.444
 2171POPC   GL129773  25.353  25.408   9.113
 2171POPC   GL229774  25.056  25.237   9.012
 2171POPC   C1A29775  25.473  25.414   8.692
 2171POPC   D2A29776  25.259  25.358   8.311
 2171POPC   C3A29777  25.468  25.395   7.933
 2171POPC   C4A29778  25.162  25.486   7.703
 2171POPC   C1B29779  25.104  24.999   8.641
 2171POPC   C2B29780  24.906  24.873   8.275
 2171POPC   C3B29781  25.085  25.026   7.937
 2171POPC   C4B29782  25.392  24.941   7.709
 2172POPC   NC329783  23.816  14.025   9.419
 2172POPC   PO429784  23.592  13.374   9.456
 2172POPC   GL129785  23.707  13.594   9.143
 2172POPC   GL229786  24.030  13.504   9.085
 2172POPC   C1A29787  23.679  13.631   8.706
 2172POPC   D2A29788  23.416  13.621   8.340
 2172POPC   C3A29789  23.687  13.604   7.980
 2172POPC   C4A29790  23.715  13.330   7.656
 2172POPC   C1B29791  24.243  13.615   8.738
 2172POPC   C2B29792  24.081  13.592   8.335
 2172POPC   C3B29793  24.198  13.595   7.925
 2172POPC   C4B29794  23.997  13.957   7.750
 2173POPC   NC329795  40.813   0.612   9.734
 2173POPC   PO429796  40.827   1.244   9.462
 2173POPC   GL129797  40.768   1.030   9.089
 2173POPC   GL229798  40.483   0.867   8.912
 2173POPC   C1A29799  40.903   1.185   8.720
 2173POPC   D2A29800  41.025   1.536   8.461
 2173POPC   C3A29801  40.920   1.374   8.048
 2173POPC   C4A29802  41.068   0.955   7.890
 2173POPC   C1B29803  40.405   1.292   8.830
 2173POPC   C2B29804  40.526   1.448   8.468
 2173POPC   C3B29805  40.391   1.336   8.066
 2173POPC   C4B29806  40.545   1.328   7.706
 2174POPC   NC329807  29.005  17.522   9.418
 2174POPC   PO429808  29.573  17.836   9.347
 2174POPC   GL129809  29.340  17.644   9.022
 2174POPC   GL229810  28.968  17.710   8.965
 2174POPC   C1A29811  29.259  17.625   8.574
 2174POPC   D2A29812  28.842  17.688   8.434
 2174POPC   C3A29813  28.890  17.506   8.056
 2174POPC   C4A29814  29.274  17.478   7.852
 2174POPC   C1B29815  28.843  17.320   8.827
 2174POPC   C2B29816  28.902  17.102   8.463
 2174POPC   C3B29817  29.089  17.024   8.072
 2174POPC   C4B29818  28.954  16.814   7.733
 2175POPC   NC329819  40.087   8.727   9.377
 2175POPC   PO429820  40.195   9.419   9.503
 2175POPC   GL129821  39.982   9.321   9.084
 2175POPC   GL229822  39.760   8.993   9.089
 2175POPC   C1A29823  39.862   9.186   8.643
 2175POPC   D2A29824  40.065   8.828   8.430
 2175POPC   C3A29825  40.271   9.064   8.110
 2175POPC   C4A29826  40.088   9.163   7.717
 2175POPC   C1B29827  39.710   8.563   8.860
 2175POPC   C2B29828  39.607   8.392   8.442
 2175POPC   C3B29829  39.818   8.533   8.058
 2175POPC   C4B29830  39.677   8.870   7.744
 2176POPC   NC329831  29.155  23.408   9.490
 2176POPC   PO429832  29.039  24.058   9.516
 2176POPC   GL129833  29.330  23.878   9.234
 2176POPC   GL229834  29.539  23.561   9.189
 2176POPC   C1A29835  29.182  23.745   8.850
 2176POPC   D2A29836  29.354  23.826   8.496
 2176POPC   C3A29837  29.162  23.956   8.142
 2176POPC   C4A29838  29.125  23.853   7.722
 2176POPC   C1B29839  29.522  23.308   8.835
 2176POPC   C2B29840  29.205  23.327   8.506
 2176POPC   C3B29841  29.221  23.392   8.075
 2176POPC   C4B29842  29.602  23.279   7.839
 2177POPC   NC329843  29.496   5.869   9.852
 2177POPC   PO429844  29.005   6.109   9.460
 2177POPC   GL129845  29.070   5.843   9.069
 2177POPC   GL229846  29.036   6.158   8.925
 2177POPC   C1A29847  29.413   5.876   8.719
 2177POPC   D2A29848  29.600   5.750   8.360
 2177POPC   C3A29849  29.395   5.534   8.048
 2177POPC   C4A29850  29.411   5.786   7.681
 2177POPC   C1B29851  28.903   5.858   8.599
 2177POPC   C2B29852  29.100   5.903   8.234
 2177POPC   C3B29853  28.998   6.020   7.845
 2177POPC   C4B29854  29.173   6.262   7.568
 2178POPC   NC329855   8.279  13.589   9.511
 2178POPC   PO429856   8.533  14.051   9.179
 2178POPC   GL129857   8.278  13.751   9.000
 2178POPC   GL229858   8.268  13.408   9.044
 2178POPC   C1A29859   8.260  13.628   8.599
 2178POPC   D2A29860   8.523  13.542   8.296
 2178POPC   C3A29861   8.270  13.588   7.936
 2178POPC   C4A29862   8.068  13.723   7.577
 2178POPC   C1B29863   7.886  13.314   8.824
 2178POPC   C2B29864   7.694  13.150   8.459
 2178POPC   C3B29865   7.910  13.230   8.084
 2178POPC   C4B29866   7.810  13.221   7.670
 2179POPC   NC329867   4.515  17.526   9.523
 2179POPC   PO429868   3.797  17.514   9.513
 2179POPC   GL129869   4.125  17.488   9.159
 2179POPC   GL229870   4.319  17.205   9.109
 2179POPC   C1A29871   4.156  17.629   8.716
 2179POPC   D2A29872   4.331  17.933   8.412
 2179POPC   C3A29873   4.395  17.806   7.997
 2179POPC   C4A29874   4.035  17.838   7.741
 2179POPC   C1B29875   4.588  17.368   8.811
 2179POPC   C2B29876   4.506  17.443   8.373
 2179POPC   C3B29877   4.351  17.296   7.978
 2179POPC   C4B29878   4.620  17.197   7.694
 2180POPC   NC329879  32.703   4.923   9.724
 2180POPC   PO429880  33.112   5.309   9.424
 2180POPC   GL129881  33.101   5.003   9.141
 2180POPC   GL229882  32.764   4.873   9.200
 2180POPC   C1A29883  33.248   4.871   8.774
 2180POPC   D2A29884  33.486   5.039   8.436
 2180POPC   C3A29885  33.303   4.965   8.057
 2180POPC   C4A29886  33.374   5.097   7.648
 2180POPC   C1B29887  32.737   5.077   8.799
 2180POPC   C2B29888  32.909   4.967   8.415
 2180POPC   C3B29889  32.822   5.128   8.052
 2180POPC   C4B29890  32.674   5.148   7.671
 2181POPC   NC329891  16.164   5.391   9.531
 2181POPC   PO429892  16.109   4.747   9.496
 2181POPC   GL129893  15.998   5.000   9.147
 2181POPC   GL229894  15.779   5.285   9.201
 2181POPC   C1A29895  15.815   5.011   8.737
 2181POPC   D2A29896  15.835   4.861   8.354
 2181POPC   C3A29897  15.959   5.062   8.030
 2181POPC   C4A29898  15.771   5.033   7.678
 2181POPC   C1B29899  16.053   5.452   8.877
 2181POPC   C2B29900  16.020   5.415   8.456
 2181POPC   C3B29901  15.861   5.577   8.109
 2181POPC   C4B29902  16.059   5.458   7.737
 2182POPC   NC329903   5.150  23.901   9.583
 2182POPC   PO429904   4.514  23.761   9.463
 2182POPC   GL129905   4.847  23.864   9.127
 2182POPC   GL229906   5.211  23.964   9.098
 2182POPC   C1A29907   5.018  23.625   8.759
 2182POPC   D2A29908   5.084  23.736   8.331
 2182POPC   C3A29909   4.946  23.690   7.913
 2182POPC   C4A29910   5.193  23.690   7.559
 2182POPC   C1B29911   5.074  24.136   8.719
 2182POPC   C2B29912   4.804  24.177   8.401
 2182POPC   C3B29913   4.986  24.202   8.012
 2182POPC   C4B29914   4.984  24.141   7.566
 2183POPC   NC329915   8.530  17.649   9.524
 2183POPC   PO429916   9.082  17.249   9.710
 2183POPC   GL129917   8.891  17.376   9.283
 2183POPC   GL229918   9.123  17.508   9.025
 2183POPC   C1A29919   8.656  17.464   8.868
 2183POPC   D2A29920   8.938  17.492   8.485
 2183POPC   C3A29921   8.833  17.791   8.150
 2183POPC   C4A29922   8.662  17.645   7.746
 2183POPC   C1B29923   9.397  17.303   8.701
 2183POPC   C2B29924   9.284  17.143   8.286
 2183POPC   C3B29925   9.006  17.290   7.949
 2183POPC   C4B29926   9.115  17.518   7.556
 2184POPC   NC329927   7.471  21.195   9.782
 2184POPC   PO429928   7.117  21.568   9.354
 2184POPC   GL129929   7.392  21.384   9.092
 2184POPC   GL229930   7.521  21.124   9.279
 2184POPC   C1A29931   7.366  21.498   8.644
 2184POPC   D2A29932   7.437  21.463   8.202
 2184POPC   C3A29933   7.125  21.387   7.906
 2184POPC   C4A29934   7.019  21.795   7.861
 2184POPC   C1B29935   7.685  21.035   8.885
 2184POPC   C2B29936   7.629  21.039   8.486
 2184POPC   C3B29937   7.819  21.161   8.153
 2184POPC   C4B29938   7.626  21.238   7.753
 2185POPC   NC329939  10.349  44.459   9.433
 2185POPC   PO429940  10.737   0.090   9.475
 2185POPC   GL129941  10.574  44.822   9.146
 2185POPC   GL229942  10.819  44.592   9.027
 2185POPC   C1A29943  10.366  44.642   8.749
 2185POPC   D2A29944  10.076  44.642   8.369
 2185POPC   C3A29945  10.280  44.813   8.022
 2185POPC   C4A29946  10.416  44.652   7.571
 2185POPC   C1B29947  10.820  44.928   8.721
 2185POPC   C2B29948  10.680  44.870   8.313
 2185POPC   C3B29949  10.711  44.517   8.008
 2185POPC   C4B29950  10.885  44.460   7.599
 2186POPC   NC329951   5.513  17.309   9.822
 2186POPC   PO429952   4.972  17.632   9.621
 2186POPC   GL129953   5.114  17.726   9.245
 2186POPC   GL229954   4.801  17.837   9.145
 2186POPC   C1A29955   5.094  17.508   8.844
 2186POPC   D2A29956   5.007  17.356   8.444
 2186POPC   C3A29957   5.240  17.551   8.115
 2186POPC   C4A29958   5.093  17.462   7.695
 2186POPC   C1B29959   4.726  17.849   8.711
 2186POPC   C2B29960   4.832  17.838   8.297
 2186POPC   C3B29961   4.920  17.920   7.892
 2186POPC   C4B29962   4.890  17.870   7.472
 2187POPC   NC329963  41.471  36.739   9.465
 2187POPC   PO429964  41.432  37.323   9.121
 2187POPC   GL129965  41.356  36.884   8.997
 2187POPC   GL229966  41.059  36.667   9.120
 2187POPC   C1A29967  41.667  36.668   8.760
 2187POPC   D2A29968  41.936  36.491   8.459
 2187POPC   C3A29969  41.859  36.715   8.067
 2187POPC   C4A29970  41.594  37.072   7.923
 2187POPC   C1B29971  41.165  36.493   8.689
 2187POPC   C2B29972  41.392  36.564   8.295
 2187POPC   C3B29973  41.408  36.576   7.831
 2187POPC   C4B29974  41.340  36.634   7.370
 2188POPC   NC329975   6.074  14.315   9.199
 2188POPC   PO429976   5.838  13.766   9.524
 2188POPC   GL129977   5.922  13.545   9.138
 2188POPC   GL229978   5.875  13.877   8.978
 2188POPC   C1A29979   5.985  13.472   8.682
 2188POPC   D2A29980   5.957  13.829   8.382
 2188POPC   C3A29981   5.871  13.746   7.963
 2188POPC   C4A29982   5.954  13.341   7.777
 2188POPC   C1B29983   5.546  13.789   8.673
 2188POPC   C2B29984   5.319  13.789   8.301
 2188POPC   C3B29985   5.369  13.899   7.896
 2188POPC   C4B29986   5.552  13.718   7.548
 2189POPC   NC329987  12.285  19.331   9.486
 2189POPC   PO429988  12.003  18.650   9.578
 2189POPC   GL129989  12.180  18.909   9.234
 2189POPC   GL229990  11.891  19.130   9.150
 2189POPC   C1A29991  12.369  18.927   8.795
 2189POPC   D2A29992  12.127  19.007   8.396
 2189POPC   C3A29993  12.344  19.005   7.969
 2189POPC   C4A29994  12.329  19.396   7.708
 2189POPC   C1B29995  11.992  19.366   8.774
 2189POPC   C2B29996  11.801  19.454   8.362
 2189POPC   C3B29997  11.884  19.259   7.955
 2189POPC   C4B29998  11.958  18.948   7.631
 2190POPC   NC329999  27.658  18.889   9.595
 2190POPC   PO430000  27.581  19.526   9.708
 2190POPC   GL130001  27.627  19.337   9.196
 2190POPC   GL230002  27.642  18.974   9.111
 2190POPC   C1A30003  27.427  19.192   8.717
 2190POPC   D2A30004  27.301  19.101   8.260
 2190POPC   C3A30005  27.543  18.903   7.911
 2190POPC   C4A30006  27.523  19.091   7.498
 2190POPC   C1B30007  27.794  18.681   8.804
 2190POPC   C2B30008  27.769  18.781   8.374
 2190POPC   C3B30009  27.994  18.646   7.978
 2190POPC   C4B30010  27.856  18.630   7.543
 2191POPC   NC330011  11.690  28.317   9.402
 2191POPC   PO430012  12.217  28.693   9.469
 2191POPC   GL130013  12.007  28.534   9.066
 2191POPC   GL230014  11.632  28.687   9.058
 2191POPC   C1A30015  11.972  28.203   8.701
 2191POPC   D2A30016  11.752  27.940   8.359
 2191POPC   C3A30017  11.884  27.986   7.910
 2191POPC   C4A30018  12.258  28.048   7.626
 2191POPC   C1B30019  11.764  28.694   8.657
 2191POPC   C2B30020  12.132  28.581   8.402
 2191POPC   C3B30021  12.220  28.484   7.997
 2191POPC   C4B30022  11.901  28.458   7.714
 2192POPC   NC330023  10.004  15.575   9.357
 2192POPC   PO430024   9.691  15.014   9.638
 2192POPC   GL130025   9.719  15.153   9.240
 2192POPC   GL230026  10.013  14.986   9.169
 2192POPC   C1A30027   9.705  15.302   8.822
 2192POPC   D2A30028   9.587  15.162   8.445
 2192POPC   C3A30029   9.865  15.259   8.120
 2192POPC   C4A30030   9.803  15.166   7.696
 2192POPC   C1B30031   9.903  14.756   8.806
 2192POPC   C2B30032  10.028  14.666   8.376
 2192POPC   C3B30033  10.124  14.838   7.968
 2192POPC   C4B30034  10.220  14.957   7.531
 2193POPC   NC330035  17.821  11.890   9.505
 2193POPC   PO430036  17.353  12.406   9.489
 2193POPC   GL130037  17.321  12.224   9.090
 2193POPC   GL230038  17.505  11.900   9.112
 2193POPC   C1A30039  17.530  12.197   8.691
 2193POPC   D2A30040  17.707  11.871   8.424
 2193POPC   C3A30041  17.697  12.005   7.993
 2193POPC   C4A30042  17.597  11.925   7.554
 2193POPC   C1B30043  17.184  11.772   8.852
 2193POPC   C2B30044  17.124  11.964   8.483
 2193POPC   C3B30045  17.179  11.874   8.068
 2193POPC   C4B30046  17.277  12.217   7.800
 2194POPC   NC330047  29.235   7.566   9.673
 2194POPC   PO430048  28.799   7.085   9.522
 2194POPC   GL130049  28.971   7.219   9.111
 2194POPC   GL230050  29.121   7.568   9.151
 2194POPC   C1A30051  29.013   7.264   8.695
 2194POPC   D2A30052  28.774   7.107   8.361
 2194POPC   C3A30053  28.752   7.389   8.058
 2194POPC   C4A30054  29.087   7.532   7.878
 2194POPC   C1B30055  29.361   7.651   8.785
 2194POPC   C2B30056  29.297   7.725   8.339
 2194POPC   C3B30057  29.574   7.607   7.979
 2194POPC   C4B30058  29.525   7.250   7.765
 2195POPC   NC330059   5.091  19.996   9.503
 2195POPC   PO430060   5.177  19.257   9.482
 2195POPC   GL130061   5.057  19.614   9.137
 2195POPC   GL230062   4.903  20.003   9.039
 2195POPC   C1A30063   5.068  19.709   8.684
 2195POPC   D2A30064   4.760  19.816   8.383
 2195POPC   C3A30065   4.880  19.791   7.977
 2195POPC   C4A30066   5.292  19.769   7.771
 2195POPC   C1B30067   4.962  20.214   8.631
 2195POPC   C2B30068   5.164  20.115   8.247
 2195POPC   C3B30069   5.093  20.235   7.820
 2195POPC   C4B30070   5.510  20.239   7.709
 2196POPC   NC330071   9.335  30.436   9.462
 2196POPC   PO430072   8.792  30.858   9.463
 2196POPC   GL130073   8.992  30.774   9.090
 2196POPC   GL230074   8.881  31.103   9.011
 2196POPC   C1A30075   9.081  30.691   8.662
 2196POPC   D2A30076   8.961  30.398   8.337
 2196POPC   C3A30077   9.098  30.498   7.944
 2196POPC   C4A30078   9.279  30.889   7.769
 2196POPC   C1B30079   8.591  31.115   8.688
 2196POPC   C2B30080   8.663  30.861   8.347
 2196POPC   C3B30081   8.805  30.931   7.969
 2196POPC   C4B30082   8.781  30.688   7.582
 2197POPC   NC330083  21.964  19.212   9.521
 2197POPC   PO430084  22.425  18.850   9.440
 2197POPC   GL130085  22.221  19.041   9.111
 2197POPC   GL230086  22.300  18.744   8.935
 2197POPC   C1A30087  22.303  19.200   8.699
 2197POPC   D2A30088  22.223  18.929   8.348
 2197POPC   C3A30089  22.107  19.160   7.989
 2197POPC   C4A30090  22.261  19.252   7.571
 2197POPC   C1B30091  21.910  18.777   8.782
 2197POPC   C2B30092  21.698  18.605   8.455
 2197POPC   C3B30093  21.821  18.709   8.045
 2197POPC   C4B30094  21.989  18.815   7.619
 2198POPC   NC330095  25.299   6.339   9.504
 2198POPC   PO430096  25.303   7.068   9.689
 2198POPC   GL130097  25.272   6.817   9.279
 2198POPC   GL230098  25.537   6.751   9.183
 2198POPC   C1A30099  25.157   6.723   8.820
 2198POPC   D2A30100  25.048   6.883   8.403
 2198POPC   C3A30101  24.960   6.701   8.013
 2198POPC   C4A30102  25.313   6.494   7.808
 2198POPC   C1B30103  25.720   6.705   8.805
 2198POPC   C2B30104  25.553   6.605   8.417
 2198POPC   C3B30105  25.759   6.617   8.029
 2198POPC   C4B30106  25.709   6.899   7.702
 2199POPC   NC330107  24.886  40.075   9.601
 2199POPC   PO430108  25.526  40.216   9.658
 2199POPC   GL130109  25.459  40.366   9.197
 2199POPC   GL230110  25.104  40.318   9.101
 2199POPC   C1A30111  25.501  40.250   8.737
 2199POPC   D2A30112  25.403  40.025   8.324
 2199POPC   C3A30113  25.512  40.125   7.886
 2199POPC   C4A30114  25.576  39.897   7.484
 2199POPC   C1B30115  24.998  40.173   8.656
 2199POPC   C2B30116  24.952  40.271   8.221
 2199POPC   C3B30117  25.025  40.028   7.873
 2199POPC   C4B30118  25.221  39.602   7.874
 2200POPC   NC330119  39.674  32.600   9.539
 2200POPC   PO430120  39.856  31.967   9.779
 2200POPC   GL130121  39.934  32.092   9.342
 2200POPC   GL230122  39.800  31.805   9.195
 2200POPC   C1A30123  40.010  32.294   8.914
 2200POPC   D2A30124  40.006  32.414   8.455
 2200POPC   C3A30125  40.297  32.263   8.165
 2200POPC   C4A30126  40.226  32.214   7.720
 2200POPC   C1B30127  39.634  31.951   8.793
 2200POPC   C2B30128  39.871  31.902   8.431
 2200POPC   C3B30129  39.836  32.057   8.040
 2200POPC   C4B30130  39.873  31.834   7.706
 2201POPC   NC330131   2.376  31.539   9.675
 2201POPC   PO430132   2.980  31.401   9.449
 2201POPC   GL130133   2.698  31.383   9.124
 2201POPC   GL230134   2.673  31.712   9.128
 2201POPC   C1A30135   2.799  31.411   8.686
 2201POPC   D2A30136   2.592  31.510   8.287
 2201POPC   C3A30137   2.814  31.380   7.907
 2201POPC   C4A30138   2.727  31.572   7.482
 2201POPC   C1B30139   3.026  31.849   8.863
 2201POPC   C2B30140   3.111  31.774   8.453
 2201POPC   C3B30141   2.921  31.846   8.051
 2201POPC   C4B30142   3.137  31.817   7.663
 2202POPC   NC330143  19.705  39.528   9.495
 2202POPC   PO430144  19.850  38.955   9.730
 2202POPC   GL130145  19.942  39.224   9.181
 2202POPC   GL230146  19.639  39.407   9.009
 2202POPC   C1A30147  19.913  39.104   8.721
 2202POPC   D2A30148  20.030  39.286   8.314
 2202POPC   C3A30149  19.821  39.131   7.964
 2202POPC   C4A30150  19.891  38.961   7.586
 2202POPC   C1B30151  20.046  39.576   8.786
 2202POPC   C2B30152  20.320  39.697   8.434
 2202POPC   C3B30153  20.297  39.621   7.987
 2202POPC   C4B30154  19.910  39.570   7.746
 2203POPC   NC330155   3.694   5.620   9.463
 2203POPC   PO430156   3.300   6.147   9.643
 2203POPC   GL130157   3.499   6.080   9.229
 2203POPC   GL230158   3.875   6.066   9.245
 2203POPC   C1A30159   3.360   5.967   8.789
 2203POPC   D2A30160   3.564   5.697   8.466
 2203POPC   C3A30161   3.574   5.751   8.039
 2203POPC   C4A30162   3.628   5.521   7.685
 2203POPC   C1B30163   3.799   6.230   8.829
 2203POPC   C2B30164   3.648   6.223   8.429
 2203POPC   C3B30165   3.786   6.209   8.037
 2203POPC   C4B30166   3.586   6.099   7.606
 2204POPC   NC330167  36.013  40.155   9.599
 2204POPC   PO430168  36.633  39.963   9.518
 2204POPC   GL130169  36.334  40.073   9.220
 2204POPC   GL230170  36.423  40.365   9.052
 2204POPC   C1A30171  36.008  40.050   8.891
 2204POPC   D2A30172  36.125  40.159   8.454
 2204POPC   C3A30173  35.835  40.086   8.121
 2204POPC   C4A30174  35.939  39.991   7.707
 2204POPC   C1B30175  36.502  39.964   8.760
 2204POPC   C2B30176  36.564  39.820   8.345
 2204POPC   C3B30177  36.351  39.893   7.975
 2204POPC   C4B30178  36.368  39.771   7.525
 2205POPC   NC330179  38.886  33.418   9.498
 2205POPC   PO430180  39.469  33.021   9.455
 2205POPC   GL130181  39.350  33.089   9.061
 2205POPC   GL230182  39.239  32.789   9.038
 2205POPC   C1A30183  39.319  33.062   8.610
 2205POPC   D2A30184  39.472  33.198   8.255
 2205POPC   C3A30185  39.391  33.109   7.835
 2205POPC   C4A30186  39.524  33.306   7.460
 2205POPC   C1B30187  38.909  32.824   8.727
 2205POPC   C2B30188  38.935  32.938   8.275
 2205POPC   C3B30189  39.053  32.710   7.905
 2205POPC   C4B30190  39.030  32.752   7.457
 2206POPC   NC330191  44.441  17.593   9.667
 2206POPC   PO430192  44.807  17.077   9.619
 2206POPC   GL130193  44.782  17.408   9.243
 2206POPC   GL230194  44.537  17.723   9.178
 2206POPC   C1A30195  44.907  17.503   8.797
 2206POPC   D2A30196  44.833  17.225   8.462
 2206POPC   C3A30197  44.667  17.292   8.026
 2206POPC   C4A30198  44.780  17.566   7.691
 2206POPC   C1B30199  44.410  17.473   8.826
 2206POPC   C2B30200  44.509  17.633   8.395
 2206POPC   C3B30201  44.320  17.682   7.965
 2206POPC   C4B30202  44.331  17.646   7.482
 2207POPC   NC330203  23.196   3.281   9.491
 2207POPC   PO430204  22.666   3.725   9.624
 2207POPC   GL130205  22.927   3.791   9.268
 2207POPC   GL230206  22.851   3.468   9.181
 2207POPC   C1A30207  22.802   3.861   8.849
 2207POPC   D2A30208  22.497   3.846   8.500
 2207POPC   C3A30209  22.715   3.755   8.137
 2207POPC   C4A30210  22.751   3.666   7.733
 2207POPC   C1B30211  23.073   3.348   8.844
 2207POPC   C2B30212  23.014   3.490   8.457
 2207POPC   C3B30213  23.018   3.318   8.071
 2207POPC   C4B30214  23.238   3.355   7.709
 2208POPC   NC330215  31.964   0.858   9.509
 2208POPC   PO430216  32.407   0.215   9.682
 2208POPC   GL130217  32.276   0.405   9.253
 2208POPC   GL230218  32.309   0.771   9.160
 2208POPC   C1A30219  32.137   0.296   8.806
 2208POPC   D2A30220  32.320   0.377   8.366
 2208POPC   C3A30221  32.165   0.259   7.969
 2208POPC   C4A30222  31.812   0.146   7.850
 2208POPC   C1B30223  32.428   0.746   8.729
 2208POPC   C2B30224  32.320   0.918   8.313
 2208POPC   C3B30225  32.305   0.751   7.912
 2208POPC   C4B30226  32.642   0.489   7.974
 2209POPC   NC330227  20.410  14.632   9.486
 2209POPC   PO430228  20.851  14.182   9.687
 2209POPC   GL130229  20.702  14.179   9.216
 2209POPC   GL230230  20.745  14.502   9.137
 2209POPC   C1A30231  20.826  14.228   8.729
 2209POPC   D2A30232  20.631  14.418   8.312
 2209POPC   C3A30233  20.814  14.190   7.924
 2209POPC   C4A30234  20.939  14.104   7.462
 2209POPC   C1B30235  20.447  14.563   8.810
 2209POPC   C2B30236  20.441  14.880   8.519
 2209POPC   C3B30237  20.437  14.919   8.103
 2209POPC   C4B30238  20.597  14.647   7.827
 2210POPC   NC330239  27.712  37.156   9.608
 2210POPC   PO430240  27.479  36.578   9.447
 2210POPC   GL130241  27.706  36.657   9.119
 2210POPC   GL230242  27.874  36.972   9.140
 2210POPC   C1A30243  27.712  36.472   8.714
 2210POPC   D2A30244  27.559  36.691   8.368
 2210POPC   C3A30245  27.610  36.595   7.950
 2210POPC   C4A30246  27.615  36.830   7.528
 2210POPC   C1B30247  27.552  37.010   8.792
 2210POPC   C2B30248  27.461  37.203   8.381
 2210POPC   C3B30249  27.540  37.112   7.948
 2210POPC   C4B30250  27.975  37.145   7.780
 2211POPC   NC330251  13.190   7.353   9.633
 2211POPC   PO430252  13.839   7.484   9.508
 2211POPC   GL130253  13.573   7.320   9.203
 2211POPC   GL230254  13.370   7.585   9.182
 2211POPC   C1A30255  13.695   7.473   8.797
 2211POPC   D2A30256  13.834   7.664   8.421
 2211POPC   C3A30257  13.690   7.393   8.111
 2211POPC   C4A30258  13.534   7.221   7.747
 2211POPC   C1B30259  13.184   7.516   8.834
 2211POPC   C2B30260  13.314   7.315   8.484
 2211POPC   C3B30261  13.171   7.332   8.087
 2211POPC   C4B30262  13.223   7.644   7.827
 2212POPC   NC330263  42.506  37.598   9.535
 2212POPC   PO430264  41.957  37.943   9.494
 2212POPC   GL130265  42.171  37.708   9.161
 2212POPC   GL230266  42.513  37.764   9.070
 2212POPC   C1A30267  42.184  37.509   8.760
 2212POPC   D2A30268  42.402  37.668   8.394
 2212POPC   C3A30269  42.214  37.568   8.002
 2212POPC   C4A30270  41.883  37.701   7.778
 2212POPC   C1B30271  42.312  38.005   8.777
 2212POPC   C2B30272  42.423  38.198   8.428
 2212POPC   C3B30273  42.423  38.049   8.030
 2212POPC   C4B30274  42.310  37.943   7.645
 2213POPC   NC330275  40.886  26.789   9.719
 2213POPC   PO430276  40.627  27.034   9.176
 2213POPC   GL130277  40.951  26.936   8.924
 2213POPC   GL230278  41.085  26.674   9.178
 2213POPC   C1A30279  40.854  26.971   8.520
 2213POPC   D2A30280  40.614  26.665   8.314
 2213POPC   C3A30281  40.669  26.833   7.926
 2213POPC   C4A30282  40.362  26.940   7.654
 2213POPC   C1B30283  41.032  26.483   8.752
 2213POPC   C2B30284  41.106  26.565   8.333
 2213POPC   C3B30285  40.948  26.405   7.968
 2213POPC   C4B30286  41.124  26.680   7.692
 2214POPC   NC330287  18.618   2.586   9.418
 2214POPC   PO430288  18.271   3.175   9.461
 2214POPC   GL130289  18.309   2.910   9.112
 2214POPC   GL230290  18.648   2.976   9.096
 2214POPC   C1A30291  18.129   2.726   8.716
 2214POPC   D2A30292  17.836   2.738   8.340
 2214POPC   C3A30293  18.078   2.755   7.942
 2214POPC   C4A30294  18.514   2.617   7.789
 2214POPC   C1B30295  18.506   3.142   8.709
 2214POPC   C2B30296  18.506   2.992   8.273
 2214POPC   C3B30297  18.471   3.110   7.849
 2214POPC   C4B30298  18.677   3.120   7.415
 2215POPC   NC330299  26.918   1.356   9.640
 2215POPC   PO430300  26.885   0.707   9.604
 2215POPC   GL130301  26.858   1.075   9.199
 2215POPC   GL230302  27.095   1.402   9.157
 2215POPC   C1A30303  26.855   1.254   8.744
 2215POPC   D2A30304  26.576   1.424   8.406
 2215POPC   C3A30305  26.609   1.249   7.975
 2215POPC   C4A30306  26.798   1.100   7.573
 2215POPC   C1B30307  27.191   1.630   8.729
 2215POPC   C2B30308  27.087   1.493   8.336
 2215POPC   C3B30309  27.069   1.480   7.917
 2215POPC   C4B30310  27.251   1.586   7.552
 2216POPC   NC330311  41.586  31.328   9.716
 2216POPC   PO430312  41.420  31.912   9.415
 2216POPC   GL130313  41.475  31.504   9.139
 2216POPC   GL230314  41.791  31.318   9.256
 2216POPC   C1A30315  41.323  31.310   8.744
 2216POPC   D2A30316  41.221  31.460   8.323
 2216POPC   C3A30317  41.392  31.522   7.931
 2216POPC   C4A30318  41.307  31.391   7.529
 2216POPC   C1B30319  41.840  31.298   8.811
 2216POPC   C2B30320  41.722  31.376   8.416
 2216POPC   C3B30321  41.565  31.089   8.141
 2216POPC   C4B30322  41.746  31.213   7.761
 2217POPC   NC330323  37.895  22.104   9.515
 2217POPC   PO430324  37.397  21.709   9.579
 2217POPC   GL130325  37.515  21.940   9.206
 2217POPC   GL230326  37.248  21.901   9.058
 2217POPC   C1A30327  37.838  22.165   8.894
 2217POPC   D2A30328  37.840  22.131   8.463
 2217POPC   C3A30329  37.936  22.425   8.140
 2217POPC   C4A30330  37.990  22.077   7.893
 2217POPC   C1B30331  37.160  21.770   8.694
 2217POPC   C2B30332  37.371  21.946   8.379
 2217POPC   C3B30333  37.491  22.144   8.040
 2217POPC   C4B30334  37.458  21.943   7.683
 2218POPC   NC330335  42.142  39.393   9.319
 2218POPC   PO430336  42.461  39.830   9.794
 2218POPC   GL130337  42.419  39.898   9.300
 2218POPC   GL230338  42.447  39.702   9.071
 2218POPC   C1A30339  42.245  40.141   8.890
 2218POPC   D2A30340  41.986  40.297   8.498
 2218POPC   C3A30341  42.167  40.310   8.107
 2218POPC   C4A30342  42.292  40.038   7.787
 2218POPC   C1B30343  42.652  39.726   8.721
 2218POPC   C2B30344  42.729  39.865   8.353
 2218POPC   C3B30345  42.635  39.693   7.981
 2218POPC   C4B30346  42.693  39.457   7.626
 2219POPC   NC330347  19.624   7.055   9.396
 2219POPC   PO430348  19.569   6.449   9.465
 2219POPC   GL130349  19.636   6.478   9.047
 2219POPC   GL230350  19.914   6.643   9.117
 2219POPC   C1A30351  19.706   6.759   8.667
 2219POPC   D2A30352  19.597   6.712   8.256
 2219POPC   C3A30353  19.876   6.889   7.934
 2219POPC   C4A30354  19.699   6.617   7.669
 2219POPC   C1B30355  20.075   6.408   8.712
 2219POPC   C2B30356  20.081   6.513   8.254
 2219POPC   C3B30357  20.167   6.457   7.819
 2219POPC   C4B30358  20.071   6.463   7.345
 2220POPC   NC330359  27.985   6.806   9.403
 2220POPC   PO430360  28.487   6.434   9.632
 2220POPC   GL130361  28.349   6.372   9.212
 2220POPC   GL230362  28.000   6.328   9.239
 2220POPC   C1A30363  28.323   6.626   8.842
 2220POPC   D2A30364  28.516   6.684   8.455
 2220POPC   C3A30365  28.365   6.634   8.044
 2220POPC   C4A30366  28.512   6.911   7.735
 2220POPC   C1B30367  27.959   6.240   8.810
 2220POPC   C2B30368  28.147   6.296   8.401
 2220POPC   C3B30369  28.024   6.269   7.960
 2220POPC   C4B30370  28.273   6.305   7.582
 2221POPC   NC330371   8.840  31.982   9.633
 2221POPC   PO430372   9.370  32.434   9.539
 2221POPC   GL130373   9.107  32.362   9.201
 2221POPC   GL230374   8.760  32.390   9.254
 2221POPC   C1A30375   9.118  32.181   8.811
 2221POPC   D2A30376   9.080  32.373   8.421
 2221POPC   C3A30377   8.932  32.082   8.127
 2221POPC   C4A30378   9.156  32.012   7.763
 2221POPC   C1B30379   8.671  32.458   8.810
 2221POPC   C2B30380   8.582  32.500   8.390
 2221POPC   C3B30381   8.801  32.642   8.045
 2221POPC   C4B30382   8.790  32.384   7.720
 2222POPC   NC330383  27.911  36.417   9.602
 2222POPC   PO430384  28.602  36.063   9.538
 2222POPC   GL130385  28.576  35.901   9.136
 2222POPC   GL230386  28.291  36.053   9.123
 2222POPC   C1A30387  28.385  35.837   8.698
 2222POPC   D2A30388  28.590  35.850   8.351
 2222POPC   C3A30389  28.443  35.919   7.965
 2222POPC   C4A30390  28.549  35.679   7.618
 2222POPC   C1B30391  28.286  36.327   8.722
 2222POPC   C2B30392  28.279  36.311   8.281
 2222POPC   C3B30393  28.501  36.429   7.911
 2222POPC   C4B30394  28.397  36.343   7.479
 2223POPC   NC330395  18.063  21.707   9.470
 2223POPC   PO430396  18.404  22.235   9.565
 2223POPC   GL130397  18.305  22.169   9.200
 2223POPC   GL230398  18.342  22.492   9.085
 2223POPC   C1A30399  18.122  22.070   8.831
 2223POPC   D2A30400  18.264  21.906   8.474
 2223POPC   C3A30401  18.166  22.144   8.165
 2223POPC   C4A30402  18.157  22.080   7.759
 2223POPC   C1B30403  18.594  22.478   8.706
 2223POPC   C2B30404  18.436  22.555   8.300
 2223POPC   C3B30405  18.462  22.487   7.876
 2223POPC   C4B30406  18.874  22.430   7.757
 2224POPC   NC330407  23.452   8.315   9.404
 2224POPC   PO430408  24.083   8.351   9.595
 2224POPC   GL130409  23.943   8.244   9.211
 2224POPC   GL230410  23.785   7.951   9.204
 2224POPC   C1A30411  23.830   8.282   8.780
 2224POPC   D2A30412  23.911   8.132   8.342
 2224POPC   C3A30413  23.638   8.312   7.995
 2224POPC   C4A30414  23.757   8.637   7.711
 2224POPC   C1B30415  23.529   7.816   8.834
 2224POPC   C2B30416  23.585   7.691   8.395
 2224POPC   C3B30417  23.729   7.795   8.005
 2224POPC   C4B30418  23.762   7.901   7.578
 2225POPC   NC330419  13.655  23.390   9.516
 2225POPC   PO430420  13.369  22.811   9.543
 2225POPC   GL130421  13.615  22.879   9.170
 2225POPC   GL230422  13.580  23.186   9.051
 2225POPC   C1A30423  13.875  22.804   8.787
 2225POPC   D2A30424  13.804  22.530   8.405
 2225POPC   C3A30425  13.753  22.715   7.984
 2225POPC   C4A30426  13.500  22.716   7.597
 2225POPC   C1B30427  13.419  23.026   8.642
 2225POPC   C2B30428  13.530  23.117   8.200
 2225POPC   C3B30429  13.335  23.199   7.794
 2225POPC   C4B30430  13.428  23.453   7.383
 2226POPC   NC330431  30.936  37.171   9.260
 2226POPC   PO430432  31.455  37.256   9.663
 2226POPC   GL130433  31.597  37.068   9.233
 2226POPC   GL230434  31.533  36.694   9.172
 2226POPC   C1A30435  31.507  36.996   8.762
 2226POPC   D2A30436  31.340  36.887   8.337
 2226POPC   C3A30437  31.529  37.183   8.061
 2226POPC   C4A30438  31.783  37.195   7.654
 2226POPC   C1B30439  31.783  36.565   8.801
 2226POPC   C2B30440  31.851  36.745   8.402
 2226POPC   C3B30441  31.698  36.694   7.974
 2226POPC   C4B30442  31.311  36.444   7.853
 2227POPC   NC330443  23.927  42.669   9.530
 2227POPC   PO430444  23.753  42.024   9.393
 2227POPC   GL130445  23.810  42.217   9.018
 2227POPC   GL230446  23.894  42.567   9.047
 2227POPC   C1A30447  23.638  42.384   8.642
 2227POPC   D2A30448  23.449  42.530   8.277
 2227POPC   C3A30449  23.638  42.324   7.897
 2227POPC   C4A30450  23.963  42.074   7.616
 2227POPC   C1B30451  24.158  42.435   8.724
 2227POPC   C2B30452  24.033  42.421   8.297
 2227POPC   C3B30453  23.872  42.762   8.098
 2227POPC   C4B30454  23.764  42.777   7.667
 2228POPC   NC330455  24.708  34.803   9.548
 2228POPC   PO430456  24.212  34.395   9.666
 2228POPC   GL130457  24.408  34.464   9.221
 2228POPC   GL230458  24.501  34.830   9.091
 2228POPC   C1A30459  24.255  34.510   8.783
 2228POPC   D2A30460  24.458  34.443   8.390
 2228POPC   C3A30461  24.313  34.270   8.003
 2228POPC   C4A30462  24.540  34.224   7.617
 2228POPC   C1B30463  24.737  34.736   8.734
 2228POPC   C2B30464  24.930  34.640   8.335
 2228POPC   C3B30465  24.689  34.624   7.960
 2228POPC   C4B30466  24.669  34.729   7.544
 2229POPC   NC330467   6.406  22.647   9.667
 2229POPC   PO430468   6.852  23.107   9.548
 2229POPC   GL130469   6.529  23.004   9.279
 2229POPC   GL230470   6.665  22.712   9.226
 2229POPC   C1A30471   6.361  23.040   8.850
 2229POPC   D2A30472   6.487  23.282   8.479
 2229POPC   C3A30473   6.640  23.122   8.095
 2229POPC   C4A30474   6.572  23.261   7.647
 2229POPC   C1B30475   6.513  22.561   8.833
 2229POPC   C2B30476   6.503  22.721   8.434
 2229POPC   C3B30477   6.414  22.515   8.053
 2229POPC   C4B30478   6.554  22.759   7.727
 2230POPC   NC330479  32.853  14.566   9.475
 2230POPC   PO430480  33.544  14.586   9.585
 2230POPC   GL130481  33.244  14.626   9.162
 2230POPC   GL230482  33.051  14.298   9.103
 2230POPC   C1A30483  33.016  14.632   8.730
 2230POPC   D2A30484  32.952  14.338   8.366
 2230POPC   C3A30485  32.846  14.449   7.970
 2230POPC   C4A30486  33.061  14.420   7.606
 2230POPC   C1B30487  33.215  14.115   8.762
 2230POPC   C2B30488  33.407  14.117   8.406
 2230POPC   C3B30489  33.322  14.226   7.990
 2230POPC   C4B30490  33.416  14.002   7.592
 2231POPC   NC330491  21.285  15.114   9.451
 2231POPC   PO430492  21.238  15.703   9.649
 2231POPC   GL130493  21.313  15.530   9.175
 2231POPC   GL230494  21.521  15.790   9.092
 2231POPC   C1A30495  21.337  15.151   8.815
 2231POPC   D2A30496  21.396  14.876   8.445
 2231POPC   C3A30497  21.302  15.083   8.079
 2231POPC   C4A30498  21.321  15.187   7.650
 2231POPC   C1B30499  21.604  15.572   8.728
 2231POPC   C2B30500  21.683  15.290   8.405
 2231POPC   C3B30501  21.743  15.299   7.984
 2231POPC   C4B30502  21.542  15.641   7.748
 2232POPC   NC330503  39.801  22.899   9.526
 2232POPC   PO430504  40.350  23.167   9.471
 2232POPC   GL130505  40.292  22.964   9.077
 2232POPC   GL230506  39.928  22.924   9.039
 2232POPC   C1A30507  40.240  23.084   8.658
 2232POPC   D2A30508  40.062  23.275   8.337
 2232POPC   C3A30509  40.242  23.188   7.957
 2232POPC   C4A30510  39.849  23.255   7.816
 2232POPC   C1B30511  39.962  22.649   8.693
 2232POPC   C2B30512  40.027  22.728   8.257
 2232POPC   C3B30513  39.920  22.704   7.822
 2232POPC   C4B30514  40.000  22.554   7.416
 2233POPC   NC330515  35.407  19.391   9.462
 2233POPC   PO430516  35.397  18.710   9.273
 2233POPC   GL130517  35.402  19.095   9.055
 2233POPC   GL230518  35.725  19.248   9.096
 2233POPC   C1A30519  35.401  19.342   8.679
 2233POPC   D2A30520  35.329  19.122   8.316
 2233POPC   C3A30521  35.228  19.233   7.897
 2233POPC   C4A30522  35.122  18.949   7.576
 2233POPC   C1B30523  35.808  18.968   8.731
 2233POPC   C2B30524  35.682  18.663   8.405
 2233POPC   C3B30525  35.522  18.775   8.012
 2233POPC   C4B30526  35.714  19.052   7.777
 2234POPC   NC330527  20.847  43.400   9.456
 2234POPC   PO430528  20.258  43.085   9.492
 2234POPC   GL130529  20.512  43.111   9.145
 2234POPC   GL230530  20.820  42.896   9.230
 2234POPC   C1A30531  20.400  43.333   8.744
 2234POPC   D2A30532  20.177  43.287   8.331
 2234POPC   C3A30533  20.426  43.308   7.944
 2234POPC   C4A30534  20.367  43.362   7.491
 2234POPC   C1B30535  20.729  42.775   8.802
 2234POPC   C2B30536  20.574  42.953   8.422
 2234POPC   C3B30537  20.745  42.920   8.031
 2234POPC   C4B30538  20.765  42.604   7.777
 2235POPC   NC330539  38.692  43.522   9.628
 2235POPC   PO430540  38.274  44.007   9.686
 2235POPC   GL130541  38.351  43.903   9.285
 2235POPC   GL230542  38.099  44.165   9.223
 2235POPC   C1A30543  38.608  43.657   8.950
 2235POPC   D2A30544  38.496  43.703   8.517
 2235POPC   C3A30545  38.693  43.684   8.104
 2235POPC   C4A30546  38.514  43.921   7.785
 2235POPC   C1B30547  38.097  44.331   8.878
 2235POPC   C2B30548  38.198  44.135   8.541
 2235POPC   C3B30549  38.213  44.119   8.144
 2235POPC   C4B30550  37.921  44.078   7.779
 2236POPC   NC330551  32.753  31.734   9.521
 2236POPC   PO430552  33.142  31.063   9.541
 2236POPC   GL130553  33.073  31.332   9.192
 2236POPC   GL230554  32.715  31.322   9.188
 2236POPC   C1A30555  33.094  31.349   8.738
 2236POPC   D2A30556  32.926  31.572   8.369
 2236POPC   C3A30557  33.133  31.651   7.977
 2236POPC   C4A30558  33.070  31.301   7.723
 2236POPC   C1B30559  32.581  31.416   8.762
 2236POPC   C2B30560  32.432  31.460   8.349
 2236POPC   C3B30561  32.521  31.560   7.897
 2236POPC   C4B30562  32.623  31.380   7.486
 2237POPC   NC330563  27.510  15.887   9.584
 2237POPC   PO430564  28.071  16.280   9.499
 2237POPC   GL130565  27.831  16.159   9.136
 2237POPC   GL230566  27.530  15.979   9.098
 2237POPC   C1A30567  27.713  16.257   8.695
 2237POPC   D2A30568  27.729  16.425   8.268
 2237POPC   C3A30569  27.694  16.144   7.922
 2237POPC   C4A30570  27.597  15.873   7.559
 2237POPC   C1B30571  27.464  15.812   8.703
 2237POPC   C2B30572  27.350  15.902   8.262
 2237POPC   C3B30573  27.280  15.638   7.886
 2237POPC   C4B30574  27.290  15.466   7.442
 2238POPC   NC330575  24.006   3.181   9.846
 2238POPC   PO430576  23.646   3.592   9.478
 2238POPC   GL130577  23.961   3.674   9.132
 2238POPC   GL230578  23.673   3.525   8.982
 2238POPC   C1A30579  24.080   3.525   8.675
 2238POPC   D2A30580  23.969   3.708   8.253
 2238POPC   C3A30581  24.006   3.451   7.856
 2238POPC   C4A30582  23.936   3.545   7.404
 2238POPC   C1B30583  23.373   3.721   8.758
 2238POPC   C2B30584  23.524   3.492   8.423
 2238POPC   C3B30585  23.524   3.600   8.038
 2238POPC   C4B30586  23.191   3.816   7.918
 2239POPC   NC330587  20.223  39.157   9.568
 2239POPC   PO430588  20.545  38.644   9.405
 2239POPC   GL130589  20.417  39.034   9.101
 2239POPC   GL230590  20.420  39.439   9.130
 2239POPC   C1A30591  20.411  39.207   8.665
 2239POPC   D2A30592  20.588  39.272   8.247
 2239POPC   C3A30593  20.340  39.120   7.880
 2239POPC   C4A30594  20.582  39.297   7.563
 2239POPC   C1B30595  20.692  39.624   8.769
 2239POPC   C2B30596  20.984  39.633   8.392
 2239POPC   C3B30597  21.083  39.409   7.995
 2239POPC   C4B30598  21.086  39.318   7.526
 2240POPC   NC330599   6.552  24.515   9.399
 2240POPC   PO430600   6.847  23.990   9.237
 2240POPC   GL130601   6.660  24.205   8.975
 2240POPC   GL230602   6.322  24.264   9.013
 2240POPC   C1A30603   6.666  24.339   8.586
 2240POPC   D2A30604   6.727  24.772   8.508
 2240POPC   C3A30605   6.719  24.764   8.089
 2240POPC   C4A30606   6.609  24.396   7.842
 2240POPC   C1B30607   6.306  24.655   8.769
 2240POPC   C2B30608   6.237  24.821   8.325
 2240POPC   C3B30609   6.252  24.744   7.859
 2240POPC   C4B30610   6.396  24.626   7.431
 2241POPC   NC330611  13.558  43.504   9.338
 2241POPC   PO430612  13.892  43.015   9.502
 2241POPC   GL130613  13.859  43.184   9.081
 2241POPC   GL230614  14.034  43.474   9.028
 2241POPC   C1A30615  13.640  43.114   8.690
 2241POPC   D2A30616  13.766  42.886   8.314
 2241POPC   C3A30617  13.460  42.816   7.992
 2241POPC   C4A30618  13.192  42.967   7.680
 2241POPC   C1B30619  14.036  43.439   8.600
 2241POPC   C2B30620  13.728  43.410   8.262
 2241POPC   C3B30621  13.760  43.329   7.812
 2241POPC   C4B30622  13.911  43.572   7.432
 2242POPC   NC330623  29.216   4.929   9.439
 2242POPC   PO430624  29.501   5.539   9.518
 2242POPC   GL130625  29.371   5.323   9.164
 2242POPC   GL230626  29.030   5.325   9.140
 2242POPC   C1A30627  29.355   4.988   8.828
 2242POPC   D2A30628  29.427   5.081   8.414
 2242POPC   C3A30629  29.194   4.910   8.104
 2242POPC   C4A30630  29.299   5.125   7.744
 2242POPC   C1B30631  29.150   5.435   8.718
 2242POPC   C2B30632  28.983   5.389   8.326
 2242POPC   C3B30633  28.783   5.571   7.999
 2242POPC   C4B30634  28.967   5.490   7.663
 2243POPC   NC330635   7.462  24.960   9.433
 2243POPC   PO430636   7.227  25.613   9.540
 2243POPC   GL130637   7.296  25.353   9.150
 2243POPC   GL230638   7.629  25.245   9.033
 2243POPC   C1A30639   7.234  25.017   8.806
 2243POPC   D2A30640   7.153  24.990   8.373
 2243POPC   C3A30641   7.452  25.148   8.145
 2243POPC   C4A30642   7.407  25.145   7.737
 2243POPC   C1B30643   7.572  25.615   8.796
 2243POPC   C2B30644   7.534  25.688   8.371
 2243POPC   C3B30645   7.694  25.569   7.980
 2243POPC   C4B30646   7.449  25.621   7.637
 2244POPC   NC330647   4.593  32.355   9.795
 2244POPC   PO430648   3.962  32.396   9.599
 2244POPC   GL130649   4.225  32.303   9.241
 2244POPC   GL230650   3.910  32.419   9.076
 2244POPC   C1A30651   4.225  32.059   8.855
 2244POPC   D2A30652   4.350  32.199   8.462
 2244POPC   C3A30653   4.214  32.113   8.083
 2244POPC   C4A30654   4.453  32.305   7.747
 2244POPC   C1B30655   3.877  32.395   8.648
 2244POPC   C2B30656   4.008  32.544   8.269
 2244POPC   C3B30657   3.965  32.450   7.782
 2244POPC   C4B30658   4.164  32.488   7.347
 2245POPC   NC330659  21.267  19.441   9.405
 2245POPC   PO430660  21.675  18.853   9.447
 2245POPC   GL130661  21.512  19.063   9.125
 2245POPC   GL230662  21.692  19.361   9.121
 2245POPC   C1A30663  21.363  19.003   8.716
 2245POPC   D2A30664  21.514  19.046   8.316
 2245POPC   C3A30665  21.238  19.026   7.991
 2245POPC   C4A30666  21.294  19.116   7.567
 2245POPC   C1B30667  21.804  19.277   8.709
 2245POPC   C2B30668  21.764  19.505   8.323
 2245POPC   C3B30669  21.611  19.371   7.935
 2245POPC   C4B30670  21.766  19.312   7.563
 2246POPC   NC330671  37.175  22.152   9.587
 2246POPC   PO430672  36.610  21.842   9.434
 2246POPC   GL130673  36.817  22.157   9.146
 2246POPC   GL230674  37.138  22.386   9.128
 2246POPC   C1A30675  36.863  22.181   8.708
 2246POPC   D2A30676  37.042  22.334   8.323
 2246POPC   C3A30677  36.786  22.480   7.980
 2246POPC   C4A30678  36.491  22.224   7.757
 2246POPC   C1B30679  37.374  22.313   8.755
 2246POPC   C2B30680  37.502  22.538   8.393
 2246POPC   C3B30681  37.310  22.613   7.981
 2246POPC   C4B30682  37.199  22.367   7.639
 2247POPC   NC330683  42.142   6.304   9.672
 2247POPC   PO430684  42.731   6.570   9.557
 2247POPC   GL130685  42.435   6.589   9.218
 2247POPC   GL230686  42.304   6.924   9.125
 2247POPC   C1A30687  42.142   6.329   8.990
 2247POPC   D2A30688  41.988   6.355   8.567
 2247POPC   C3A30689  42.226   6.486   8.212
 2247POPC   C4A30690  42.105   6.464   7.768
 2247POPC   C1B30691  42.247   6.765   8.744
 2247POPC   C2B30692  42.478   6.879   8.406
 2247POPC   C3B30693  42.592   6.800   8.018
 2247POPC   C4B30694  42.371   6.896   7.677
 2248POPC   NC330695  10.895  38.676   9.458
 2248POPC   PO430696  10.275  38.231   9.557
 2248POPC   GL130697  10.411  38.409   9.204
 2248POPC   GL230698  10.733  38.252   9.129
 2248POPC   C1A30699  10.304  38.309   8.789
 2248POPC   D2A30700  10.561  38.236   8.448
 2248POPC   C3A30701  10.460  38.356   8.028
 2248POPC   C4A30702  10.343  38.209   7.620
 2248POPC   C1B30703  10.702  38.634   8.826
 2248POPC   C2B30704  10.844  38.660   8.391
 2248POPC   C3B30705  10.696  38.821   8.005
 2248POPC   C4B30706  10.651  38.623   7.585
 2249POPC   NC330707  20.779   5.772   9.543
 2249POPC   PO430708  20.310   6.106   9.619
 2249POPC   GL130709  20.544   6.053   9.211
 2249POPC   GL230710  20.838   6.253   9.108
 2249POPC   C1A30711  20.631   5.692   8.904
 2249POPC   D2A30712  20.849   5.515   8.537
 2249POPC   C3A30713  20.633   5.664   8.165
 2249POPC   C4A30714  20.791   5.659   7.747
 2249POPC   C1B30715  20.579   6.187   8.739
 2249POPC   C2B30716  20.411   6.120   8.346
 2249POPC   C3B30717  20.570   6.099   7.918
 2249POPC   C4B30718  20.368   6.101   7.537
 2250POPC   NC330719  31.957   4.092   9.405
 2250POPC   PO430720  32.376   4.640   9.526
 2250POPC   GL130721  32.221   4.433   9.159
 2250POPC   GL230722  32.446   4.167   9.158
 2250POPC   C1A30723  32.006   4.393   8.728
 2250POPC   D2A30724  32.209   4.404   8.322
 2250POPC   C3A30725  32.036   4.489   7.906
 2250POPC   C4A30726  32.154   4.448   7.481
 2250POPC   C1B30727  32.388   4.075   8.721
 2250POPC   C2B30728  32.447   3.937   8.297
 2250POPC   C3B30729  32.406   4.147   7.903
 2250POPC   C4B30730  32.417   4.043   7.435
 2251POPC   NC330731  38.018   7.683   9.510
 2251POPC   PO430732  38.635   7.451   9.485
 2251POPC   GL130733  38.320   7.379   9.195
 2251POPC   GL230734  38.279   7.072   9.088
 2251POPC   C1A30735  38.232   7.449   8.765
 2251POPC   D2A30736  38.449   7.753   8.519
 2251POPC   C3A30737  38.363   7.610   8.124
 2251POPC   C4A30738  38.558   7.752   7.771
 2251POPC   C1B30739  38.676   7.122   8.885
 2251POPC   C2B30740  38.650   7.293   8.480
 2251POPC   C3B30741  38.668   7.092   8.101
 2251POPC   C4B30742  38.492   7.242   7.782
 2252POPC   NC330743  21.325  33.594   9.474
 2252POPC   PO430744  21.632  34.189   9.541
 2252POPC   GL130745  21.609  33.991   9.102
 2252POPC   GL230746  21.685  33.665   9.118
 2252POPC   C1A30747  21.445  33.863   8.642
 2252POPC   D2A30748  21.104  33.632   8.349
 2252POPC   C3A30749  21.130  33.735   7.909
 2252POPC   C4A30750  21.344  34.125   7.824
 2252POPC   C1B30751  21.918  33.461   8.812
 2252POPC   C2B30752  21.874  33.536   8.407
 2252POPC   C3B30753  21.620  33.720   8.127
 2252POPC   C4B30754  21.759  33.664   7.724
 2253POPC   NC330755  43.354   7.107   9.408
 2253POPC   PO430756  42.780   7.486   9.430
 2253POPC   GL130757  43.056   7.374   9.095
 2253POPC   GL230758  42.930   7.563   8.879
 2253POPC   C1A30759  43.076   7.090   8.727
 2253POPC   D2A30760  42.996   6.867   8.338
 2253POPC   C3A30761  43.030   7.109   7.982
 2253POPC   C4A30762  43.339   7.355   7.757
 2253POPC   C1B30763  43.326   7.546   8.685
 2253POPC   C2B30764  43.347   7.482   8.261
 2253POPC   C3B30765  42.968   7.602   8.033
 2253POPC   C4B30766  42.979   7.734   7.626
 2254POPC   NC330767  36.648  23.081   9.484
 2254POPC   PO430768  36.837  22.463   9.561
 2254POPC   GL130769  36.754  22.705   9.146
 2254POPC   GL230770  36.998  23.002   9.124
 2254POPC   C1A30771  36.994  22.684   8.727
 2254POPC   D2A30772  37.199  22.958   8.415
 2254POPC   C3A30773  36.953  22.990   8.043
 2254POPC   C4A30774  37.004  22.821   7.615
 2254POPC   C1B30775  36.745  23.133   8.765
 2254POPC   C2B30776  36.516  23.292   8.406
 2254POPC   C3B30777  36.671  23.436   8.029
 2254POPC   C4B30778  36.822  23.296   7.650
 2255POPC   NC330779  28.176  14.170   9.474
 2255POPC   PO430780  28.202  14.818   9.508
 2255POPC   GL130781  28.468  14.633   9.190
 2255POPC   GL230782  28.639  14.299   9.261
 2255POPC   C1A30783  28.392  14.455   8.792
 2255POPC   D2A30784  28.244  14.495   8.384
 2255POPC   C3A30785  28.503  14.520   7.998
 2255POPC   C4A30786  28.275  14.475   7.605
 2255POPC   C1B30787  28.765  14.112   8.861
 2255POPC   C2B30788  28.619  14.102   8.433
 2255POPC   C3B30789  28.407  14.039   8.043
 2255POPC   C4B30790  28.599  14.095   7.614
 2256POPC   NC330791   8.781   7.839   9.494
 2256POPC   PO430792   9.053   8.461   9.430
 2256POPC   GL130793   8.944   8.157   9.122
 2256POPC   GL230794   9.267   8.098   8.978
 2256POPC   C1A30795   8.836   7.898   8.744
 2256POPC   D2A30796   9.021   7.893   8.317
 2256POPC   C3A30797   8.794   7.973   7.944
 2256POPC   C4A30798   8.816   7.908   7.491
 2256POPC   C1B30799   9.127   8.316   8.651
 2256POPC   C2B30800   8.968   8.409   8.277
 2256POPC   C3B30801   9.142   8.312   7.900
 2256POPC   C4B30802   8.840   8.407   7.580
 2257POPC   NC330803  23.083  42.544   9.516
 2257POPC   PO430804  22.762  41.931   9.483
 2257POPC   GL130805  22.921  42.270   9.134
 2257POPC   GL230806  23.325  42.386   9.108
 2257POPC   C1A30807  23.000  42.524   8.741
 2257POPC   D2A30808  22.978  42.288   8.374
 2257POPC   C3A30809  23.037  42.451   7.985
 2257POPC   C4A30810  22.769  42.381   7.657
 2257POPC   C1B30811  23.259  42.075   8.787
 2257POPC   C2B30812  23.411  41.993   8.362
 2257POPC   C3B30813  23.144  41.948   8.003
 2257POPC   C4B30814  23.214  42.137   7.610
 2258POPC   NC330815  27.692  24.626   9.444
 2258POPC   PO430816  27.396  24.061   9.605
 2258POPC   GL130817  27.451  24.167   9.180
 2258POPC   GL230818  27.791  24.075   9.044
 2258POPC   C1A30819  27.439  24.388   8.783
 2258POPC   D2A30820  27.306  24.530   8.368
 2258POPC   C3A30821  27.449  24.241   8.095
 2258POPC   C4A30822  27.406  24.527   7.786
 2258POPC   C1B30823  28.014  24.290   8.735
 2258POPC   C2B30824  27.818  24.458   8.405
 2258POPC   C3B30825  27.839  24.609   8.028
 2258POPC   C4B30826  27.917  24.314   7.728
 2259POPC   NC330827   0.650  29.554   9.471
 2259POPC   PO430828   0.196  29.053   9.492
 2259POPC   GL130829   0.417  29.160   9.128
 2259POPC   GL230830   0.784  29.173   9.141
 2259POPC   C1A30831   0.284  29.137   8.707
 2259POPC   D2A30832   0.087  29.310   8.341
 2259POPC   C3A30833   0.404  29.203   8.046
 2259POPC   C4A30834   0.445  29.138   7.637
 2259POPC   C1B30835   0.733  28.862   8.811
 2259POPC   C2B30836   0.829  28.788   8.377
 2259POPC   C3B30837   0.652  28.766   7.968
 2259POPC   C4B30838   0.853  28.817   7.601
 2260POPC   NC330839  28.786  10.031   9.849
 2260POPC   PO430840  29.109  10.447   9.450
 2260POPC   GL130841  29.088  10.485   9.064
 2260POPC   GL230842  29.404  10.683   9.033
 2260POPC   C1A30843  28.953  10.298   8.692
 2260POPC   D2A30844  29.138  10.380   8.308
 2260POPC   C3A30845  29.034  10.211   7.923
 2260POPC   C4A30846  28.985  10.375   7.486
 2260POPC   C1B30847  29.181  10.787   8.670
 2260POPC   C2B30848  29.164  10.891   8.258
 2260POPC   C3B30849  29.015  10.738   7.910
 2260POPC   C4B30850  29.255  10.794   7.559
 2261POPC   NC330851  19.380   3.231   9.474
 2261POPC   PO430852  19.020   3.765   9.483
 2261POPC   GL130853  19.115   3.670   9.103
 2261POPC   GL230854  19.027   3.317   9.102
 2261POPC   C1A30855  18.968   3.646   8.683
 2261POPC   D2A30856  18.889   3.320   8.410
 2261POPC   C3A30857  18.788   3.456   8.038
 2261POPC   C4A30858  18.859   3.818   7.836
 2261POPC   C1B30859  19.325   3.297   8.796
 2261POPC   C2B30860  19.394   3.434   8.389
 2261POPC   C3B30861  19.322   3.357   7.962
 2261POPC   C4B30862  19.064   3.348   7.620
 2262POPC   NC330863  12.493  13.762   9.339
 2262POPC   PO430864  11.833  13.804   9.531
 2262POPC   GL130865  11.875  13.798   9.136
 2262POPC   GL230866  12.100  13.522   9.102
 2262POPC   C1A30867  12.063  13.911   8.777
 2262POPC   D2A30868  12.106  13.714   8.406
 2262POPC   C3A30869  12.046  13.909   8.052
 2262POPC   C4A30870  11.722  13.821   7.746
 2262POPC   C1B30871  11.992  13.208   8.812
 2262POPC   C2B30872  12.058  13.187   8.392
 2262POPC   C3B30873  12.027  13.395   7.988
 2262POPC   C4B30874  12.177  13.607   7.674
 2263POPC   NC330875  23.122  23.070   9.476
 2263POPC   PO430876  22.577  23.378   9.410
 2263POPC   GL130877  22.785  23.147   9.063
 2263POPC   GL230878  22.889  22.798   9.075
 2263POPC   C1A30879  22.906  23.169   8.615
 2263POPC   D2A30880  23.082  23.029   8.199
 2263POPC   C3A30881  22.966  23.257   7.807
 2263POPC   C4A30882  22.567  23.316   7.552
 2263POPC   C1B30883  23.155  22.738   8.729
 2263POPC   C2B30884  23.124  22.527   8.332
 2263POPC   C3B30885  23.015  22.597   7.897
 2263POPC   C4B30886  23.167  22.770   7.513
 2264POPC   NC330887  26.007  30.981   9.441
 2264POPC   PO430888  26.069  30.364   9.669
 2264POPC   GL130889  26.224  30.579   9.192
 2264POPC   GL230890  26.388  30.950   9.119
 2264POPC   C1A30891  25.990  30.700   8.760
 2264POPC   D2A30892  25.929  30.899   8.349
 2264POPC   C3A30893  25.758  30.696   7.997
 2264POPC   C4A30894  25.899  30.628   7.570
 2264POPC   C1B30895  26.465  30.836   8.719
 2264POPC   C2B30896  26.354  30.619   8.356
 2264POPC   C3B30897  26.262  30.707   7.947
 2264POPC   C4B30898  26.429  30.382   7.746
 2265POPC   NC330899  43.294  41.788   9.524
 2265POPC   PO430900  42.766  41.415   9.520
 2265POPC   GL130901  42.946  41.469   9.139
 2265POPC   GL230902  43.291  41.556   9.076
 2265POPC   C1A30903  42.863  41.632   8.720
 2265POPC   D2A30904  43.047  41.748   8.332
 2265POPC   C3A30905  42.892  41.603   7.931
 2265POPC   C4A30906  43.091  41.299   7.639
 2265POPC   C1B30907  43.584  41.698   8.762
 2265POPC   C2B30908  43.559  41.865   8.354
 2265POPC   C3B30909  43.452  41.655   7.988
 2265POPC   C4B30910  43.590  41.877   7.680
 2266POPC   NC330911   9.473   5.486   9.492
 2266POPC   PO430912   9.343   4.804   9.565
 2266POPC   GL130913   9.700   4.919   9.279
 2266POPC   GL230914   9.772   5.268   9.137
 2266POPC   C1A30915   9.701   4.862   8.826
 2266POPC   D2A30916   9.522   4.752   8.431
 2266POPC   C3A30917   9.617   4.948   8.033
 2266POPC   C4A30918   9.870   4.848   7.693
 2266POPC   C1B30919   9.432   5.325   8.804
 2266POPC   C2B30920   9.359   5.246   8.380
 2266POPC   C3B30921   9.646   5.461   8.119
 2266POPC   C4B30922   9.762   5.376   7.729
 2267POPC   NC330923  41.137  41.355   9.535
 2267POPC   PO430924  40.630  41.788   9.622
 2267POPC   GL130925  40.754  41.638   9.240
 2267POPC   GL230926  40.628  41.920   9.082
 2267POPC   C1A30927  40.618  41.448   8.849
 2267POPC   D2A30928  40.822  41.409   8.454
 2267POPC   C3A30929  40.597  41.417   8.101
 2267POPC   C4A30930  40.805  41.505   7.737
 2267POPC   C1B30931  40.948  41.875   8.788
 2267POPC   C2B30932  41.235  41.726   8.485
 2267POPC   C3B30933  41.000  41.789   8.122
 2267POPC   C4B30934  40.846  42.041   7.794
 2268POPC   NC330935  15.649  35.892   9.317
 2268POPC   PO430936  15.701  36.462   9.653
 2268POPC   GL130937  15.946  36.345   9.254
 2268POPC   GL230938  16.194  36.049   9.238
 2268POPC   C1A30939  15.808  36.224   8.813
 2268POPC   D2A30940  15.900  35.937   8.452
 2268POPC   C3A30941  15.669  36.032   8.046
 2268POPC   C4A30942  15.797  36.175   7.634
 2268POPC   C1B30943  16.312  36.197   8.813
 2268POPC   C2B30944  16.389  36.144   8.403
 2268POPC   C3B30945  16.170  36.119   8.052
 2268POPC   C4B30946  16.224  35.895   7.720
 2269POPC   NC330947   4.568  18.583   9.480
 2269POPC   PO430948   4.312  17.925   9.388
 2269POPC   GL130949   4.332  18.004   9.005
 2269POPC   GL230950   4.523  18.291   9.070
 2269POPC   C1A30951   4.087  18.227   8.744
 2269POPC   D2A30952   4.080  18.502   8.412
 2269POPC   C3A30953   4.085  18.241   8.074
 2269POPC   C4A30954   3.986  18.346   7.681
 2269POPC   C1B30955   4.503  18.535   8.733
 2269POPC   C2B30956   4.665  18.341   8.429
 2269POPC   C3B30957   4.587  18.272   8.067
 2269POPC   C4B30958   4.413  18.570   7.818
 2270POPC   NC330959  17.225  42.188   9.643
 2270POPC   PO430960  17.684  42.658   9.518
 2270POPC   GL130961  17.583  42.435   9.167
 2270POPC   GL230962  17.244  42.440   9.203
 2270POPC   C1A30963  17.620  42.310   8.744
 2270POPC   D2A30964  17.834  42.417   8.369
 2270POPC   C3A30965  17.561  42.281   8.080
 2270POPC   C4A30966  17.375  42.439   7.735
 2270POPC   C1B30967  17.187  42.569   8.792
 2270POPC   C2B30968  17.412  42.695   8.424
 2270POPC   C3B30969  17.293  42.890   8.046
 2270POPC   C4B30970  17.166  42.902   7.646
 2271POPC   NC330971  27.782  18.101   9.462
 2271POPC   PO430972  27.478  18.524   9.829
 2271POPC   GL130973  27.439  18.523   9.326
 2271POPC   GL230974  27.386  18.203   9.155
 2271POPC   C1A30975  27.293  18.643   8.893
 2271POPC   D2A30976  27.459  18.373   8.559
 2271POPC   C3A30977  27.563  18.398   8.132
 2271POPC   C4A30978  27.497  18.289   7.729
 2271POPC   C1B30979  27.495  17.931   8.803
 2271POPC   C2B30980  27.725  17.950   8.414
 2271POPC   C3B30981  27.612  17.904   8.008
 2271POPC   C4B30982  27.654  17.798   7.542
 2272POPC   NC330983  19.825  36.446   9.697
 2272POPC   PO430984  19.745  37.135   9.499
 2272POPC   GL130985  19.973  36.966   9.211
 2272POPC   GL230986  20.093  36.624   9.230
 2272POPC   C1A30987  20.096  37.162   8.865
 2272POPC   D2A30988  19.939  37.273   8.489
 2272POPC   C3A30989  19.771  37.069   8.154
 2272POPC   C4A30990  20.018  37.015   7.756
 2272POPC   C1B30991  19.936  36.695   8.785
 2272POPC   C2B30992  19.946  36.642   8.359
 2272POPC   C3B30993  20.050  36.540   7.953
 2272POPC   C4B30994  19.883  36.510   7.556
 2273POPC   NC330995   3.018  18.491   9.503
 2273POPC   PO430996   2.601  17.907   9.626
 2273POPC   GL130997   2.647  18.203   9.257
 2273POPC   GL230998   2.950  18.238   9.072
 2273POPC   C1A30999   2.503  18.347   8.859
 2273POPC   D2A31000   2.703  18.289   8.464
 2273POPC   C3A31001   2.451  18.252   8.085
 2273POPC   C4A31002   2.568  18.094   7.664
 2273POPC   C1B31003   3.151  18.423   8.716
 2273POPC   C2B31004   3.169  18.415   8.273
 2273POPC   C3B31005   2.909  18.426   7.906
 2273POPC   C4B31006   2.910  18.404   7.440
 2274POPC   NC331007  11.997  37.277   9.514
 2274POPC   PO431008  11.722  36.770   9.314
 2274POPC   GL131009  11.822  37.124   9.049
 2274POPC   GL231010  12.212  37.160   9.064
 2274POPC   C1A31011  11.873  36.991   8.642
 2274POPC   D2A31012  12.095  36.685   8.381
 2274POPC   C3A31013  11.989  36.737   7.945
 2274POPC   C4A31014  11.966  36.762   7.474
 2274POPC   C1B31015  12.493  37.070   8.681
 2274POPC   C2B31016  12.585  36.856   8.259
 2274POPC   C3B31017  12.472  36.666   7.833
 2274POPC   C4B31018  12.464  36.891   7.424
 2275POPC   NC331019   8.186  11.084   9.543
 2275POPC   PO431020   7.916  11.684   9.370
 2275POPC   GL131021   7.971  11.345   9.157
 2275POPC   GL231022   8.303  11.378   9.111
 2275POPC   C1A31023   7.939  11.348   8.743
 2275POPC   D2A31024   8.200  11.384   8.433
 2275POPC   C3A31025   7.958  11.327   8.103
 2275POPC   C4A31026   8.069  11.480   7.710
 2275POPC   C1B31027   8.425  11.070   8.801
 2275POPC   C2B31028   8.602  11.056   8.364
 2275POPC   C3B31029   8.456  11.266   7.978
 2275POPC   C4B31030   8.447  11.177   7.503
 2276POPC   NC331031  19.860  16.080   9.565
 2276POPC   PO431032  19.348  15.681   9.438
 2276POPC   GL131033  19.716  15.823   9.139
 2276POPC   GL231034  19.787  16.204   9.091
 2276POPC   C1A31035  19.911  15.905   8.711
 2276POPC   D2A31036  19.742  15.929   8.298
 2276POPC   C3A31037  20.075  15.862   8.019
 2276POPC   C4A31038  20.196  16.037   7.648
 2276POPC   C1B31039  19.543  16.269   8.734
 2276POPC   C2B31040  19.400  16.345   8.341
 2276POPC   C3B31041  19.655  16.359   7.969
 2276POPC   C4B31042  19.700  16.051   7.713
 2277POPC   NC331043  42.821  35.693   9.526
 2277POPC   PO431044  43.036  35.023   9.557
 2277POPC   GL131045  43.072  35.342   9.259
 2277POPC   GL231046  42.726  35.361   9.148
 2277POPC   C1A31047  43.077  35.640   8.884
 2277POPC   D2A31048  43.315  35.548   8.512
 2277POPC   C3A31049  43.136  35.658   8.099
 2277POPC   C4A31050  43.157  35.476   7.688
 2277POPC   C1B31051  42.982  35.135   8.823
 2277POPC   C2B31052  43.070  35.112   8.429
 2277POPC   C3B31053  43.275  35.163   8.080
 2277POPC   C4B31054  43.112  34.985   7.741
 2278POPC   NC331055  24.860  42.345   9.360
 2278POPC   PO431056  24.364  42.804   9.527
 2278POPC   GL131057  24.420  42.554   9.158
 2278POPC   GL231058  24.313  42.189   9.174
 2278POPC   C1A31059  24.643  42.629   8.762
 2278POPC   D2A31060  24.544  42.450   8.373
 2278POPC   C3A31061  24.418  42.667   8.040
 2278POPC   C4A31062  24.163  42.489   7.788
 2278POPC   C1B31063  24.567  42.111   8.783
 2278POPC   C2B31064  24.648  41.955   8.351
 2278POPC   C3B31065  24.405  42.080   8.006
 2278POPC   C4B31066  24.724  42.305   7.865
 2279POPC   NC331067  10.309  36.537   9.436
 2279POPC   PO431068  10.888  36.370   9.694
 2279POPC   GL131069  10.688  36.142   9.261
 2279POPC   GL231070  10.363  35.983   9.210
 2279POPC   C1A31071  10.693  35.955   8.834
 2279POPC   D2A31072  10.711  36.165   8.456
 2279POPC   C3A31073  10.791  35.957   8.090
 2279POPC   C4A31074  10.703  36.236   7.743
 2279POPC   C1B31075  10.314  36.269   8.844
 2279POPC   C2B31076  10.177  36.263   8.428
 2279POPC   C3B31077  10.306  36.131   8.062
 2279POPC   C4B31078  10.198  36.151   7.669
 2280POPC   NC331079  32.799   0.951   9.475
 2280POPC   PO431080  33.096   1.560   9.448
 2280POPC   GL131081  33.096   1.288   9.143
 2280POPC   GL231082  32.744   1.326   9.115
 2280POPC   C1A31083  32.980   1.012   8.796
 2280POPC   D2A31084  33.055   0.836   8.405
 2280POPC   C3A31085  32.893   0.940   8.004
 2280POPC   C4A31086  33.267   0.987   7.759
 2280POPC   C1B31087  32.912   1.549   8.741
 2280POPC   C2B31088  33.162   1.364   8.393
 2280POPC   C3B31089  33.065   1.414   7.953
 2280POPC   C4B31090  32.814   1.428   7.602
 2281POPC   NC331091  12.985   0.238   9.984
 2281POPC   PO431092  12.358   0.128   9.584
 2281POPC   GL131093  12.661   0.257   9.236
 2281POPC   GL231094  12.584   0.580   9.135
 2281POPC   C1A31095  12.950   0.200   8.862
 2281POPC   D2A31096  12.867   0.215   8.412
 2281POPC   C3A31097  13.114   0.181   8.056
 2281POPC   C4A31098  13.187   0.423   7.713
 2281POPC   C1B31099  12.557   0.506   8.693
 2281POPC   C2B31100  12.709   0.723   8.322
 2281POPC   C3B31101  12.741   0.677   7.877
 2281POPC   C4B31102  12.838   0.765   7.439
 2282POPC   NC331103  41.660  30.635   9.459
 2282POPC   PO431104  41.263  31.145   9.438
 2282POPC   GL131105  41.495  30.938   9.069
 2282POPC   GL231106  41.877  30.853   9.063
 2282POPC   C1A31107  41.572  30.870   8.622
 2282POPC   D2A31108  41.487  30.551   8.309
 2282POPC   C3A31109  41.219  30.677   8.004
 2282POPC   C4A31110  41.368  30.909   7.693
 2282POPC   C1B31111  42.005  30.615   8.712
 2282POPC   C2B31112  41.980  30.773   8.302
 2282POPC   C3B31113  41.844  30.735   7.881
 2282POPC   C4B31114  41.554  30.461   7.682
 2283POPC   NC331115  27.865  42.778   9.420
 2283POPC   PO431116  27.682  42.197   9.637
 2283POPC   GL131117  27.667  42.123   9.197
 2283POPC   GL231118  27.734  42.426   9.084
 2283POPC   C1A31119  27.585  41.920   8.758
 2283POPC   D2A31120  27.582  42.062   8.315
 2283POPC   C3A31121  27.882  42.194   7.980
 2283POPC   C4A31122  27.727  42.210   7.550
 2283POPC   C1B31123  27.413  42.429   8.779
 2283POPC   C2B31124  27.350  42.524   8.365
 2283POPC   C3B31125  27.482  42.499   7.995
 2283POPC   C4B31126  27.278  42.400   7.677
 2284POPC   NC331127  42.120  44.287   9.765
 2284POPC   PO431128  41.531  44.623   9.530
 2284POPC   GL131129  41.552  44.854   9.141
 2284POPC   GL231130  41.848   0.027   9.018
 2284POPC   C1A31131  41.395  44.899   8.747
 2284POPC   D2A31132  41.563  44.973   8.351
 2284POPC   C3A31133  41.536  44.589   8.135
 2284POPC   C4A31134  41.497  44.547   7.713
 2284POPC   C1B31135  41.869  44.683   8.723
 2284POPC   C2B31136  42.037  44.573   8.332
 2284POPC   C3B31137  41.967  44.757   7.939
 2284POPC   C4B31138  41.975  44.470   7.627
 2285POPC   NC331139  40.727  23.396   9.576
 2285POPC   PO431140  40.475  23.913   9.621
 2285POPC   GL131141  40.730  23.785   9.249
 2285POPC   GL231142  40.582  23.461   9.101
 2285POPC   C1A31143  40.690  23.879   8.821
 2285POPC   D2A31144  40.543  23.938   8.398
 2285POPC   C3A31145  40.801  24.097   8.093
 2285POPC   C4A31146  40.862  23.913   7.690
 2285POPC   C1B31147  40.829  23.374   8.745
 2285POPC   C2B31148  40.983  23.231   8.331
 2285POPC   C3B31149  40.893  23.364   7.928
 2285POPC   C4B31150  40.913  23.431   7.470
 2286POPC   NC331151  18.704  14.760   9.545
 2286POPC   PO431152  18.745  15.400   9.575
 2286POPC   GL131153  18.981  15.352   9.188
 2286POPC   GL231154  19.087  14.984   9.117
 2286POPC   C1A31155  19.109  15.356   8.755
 2286POPC   D2A31156  19.141  15.141   8.366
 2286POPC   C3A31157  18.993  15.442   8.097
 2286POPC   C4A31158  18.881  15.557   7.691
 2286POPC   C1B31159  19.192  14.617   8.824
 2286POPC   C2B31160  18.987  14.556   8.431
 2286POPC   C3B31161  18.784  14.832   8.129
 2286POPC   C4B31162  18.903  15.037   7.764
 2287POPC   NC331163  39.782  36.575   9.896
 2287POPC   PO431164  40.179  37.016   9.556
 2287POPC   GL131165  40.108  37.056   9.145
 2287POPC   GL231166  39.805  37.240   9.239
 2287POPC   C1A31167  40.125  36.751   8.791
 2287POPC   D2A31168  40.013  36.562   8.392
 2287POPC   C3A31169  40.084  36.791   7.997
 2287POPC   C4A31170  40.318  36.641   7.657
 2287POPC   C1B31171  39.760  37.217   8.823
 2287POPC   C2B31172  39.803  37.017   8.446
 2287POPC   C3B31173  39.682  37.119   8.072
 2287POPC   C4B31174  39.678  37.364   7.719
 2288POPC   NC331175  37.957   0.867   9.360
 2288POPC   PO431176  37.449   1.231   9.552
 2288POPC   GL131177  37.575   1.321   9.166
 2288POPC   GL231178  37.907   1.483   9.219
 2288POPC   C1A31179  37.427   1.165   8.772
 2288POPC   D2A31180  37.452   0.903   8.408
 2288POPC   C3A31181  37.765   0.980   8.129
 2288POPC   C4A31182  37.524   1.210   7.844
 2288POPC   C1B31183  37.918   1.313   8.779
 2288POPC   C2B31184  37.824   1.524   8.364
 2288POPC   C3B31185  37.992   1.404   7.955
 2288POPC   C4B31186  37.976   1.131   7.620
 2289POPC   NC331187  22.683  31.708   9.218
 2289POPC   PO431188  23.059  32.225   9.393
 2289POPC   GL131189  23.101  32.194   9.014
 2289POPC   GL231190  22.941  31.922   8.845
 2289POPC   C1A31191  23.092  32.358   8.634
 2289POPC   D2A31192  22.822  32.373   8.301
 2289POPC   C3A31193  23.119  32.338   8.003
 2289POPC   C4A31194  23.215  32.322   7.596
 2289POPC   C1B31195  22.677  31.815   8.489
 2289POPC   C2B31196  22.743  31.910   8.074
 2289POPC   C3B31197  22.670  32.251   7.787
 2289POPC   C4B31198  22.758  32.032   7.443
 2290POPC   NC331199  25.066  41.609   9.573
 2290POPC   PO431200  25.727  41.761   9.531
 2290POPC   GL131201  25.390  41.557   9.163
 2290POPC   GL231202  25.004  41.420   9.127
 2290POPC   C1A31203  25.245  41.515   8.708
 2290POPC   D2A31204  25.334  41.460   8.309
 2290POPC   C3A31205  25.027  41.656   8.061
 2290POPC   C4A31206  25.230  41.551   7.737
 2290POPC   C1B31207  24.862  41.157   8.820
 2290POPC   C2B31208  24.829  41.301   8.392
 2290POPC   C3B31209  24.877  41.165   7.981
 2290POPC   C4B31210  24.773  41.383   7.602
 2291POPC   NC331211  28.062   0.900   9.908
 2291POPC   PO431212  28.299   1.410   9.528
 2291POPC   GL131213  28.454   1.302   9.143
 2291POPC   GL231214  28.595   1.623   9.078
 2291POPC   C1A31215  28.347   1.095   8.757
 2291POPC   D2A31216  28.205   1.304   8.373
 2291POPC   C3A31217  28.389   1.156   8.063
 2291POPC   C4A31218  28.377   1.029   7.730
 2291POPC   C1B31219  28.597   1.517   8.662
 2291POPC   C2B31220  28.683   1.511   8.242
 2291POPC   C3B31221  28.710   1.506   7.771
 2291POPC   C4B31222  28.687   1.587   7.312
 2292POPC   NC331223   9.397   8.144   9.462
 2292POPC   PO431224   9.990   8.000   9.480
 2292POPC   GL131225   9.798   8.268   9.167
 2292POPC   GL231226   9.529   8.536   9.198
 2292POPC   C1A31227   9.726   8.178   8.767
 2292POPC   D2A31228   9.505   8.016   8.452
 2292POPC   C3A31229   9.679   8.207   8.127
 2292POPC   C4A31230   9.613   8.259   7.726
 2292POPC   C1B31231   9.505   8.642   8.806
 2292POPC   C2B31232   9.761   8.616   8.436
 2292POPC   C3B31233   9.662   8.707   7.999
 2292POPC   C4B31234   9.791   8.699   7.580
 2293POPC   NC331235  15.892  36.880   9.715
 2293POPC   PO431236  16.457  37.104   9.524
 2293POPC   GL131237  16.167  37.106   9.180
 2293POPC   GL231238  15.855  36.906   9.199
 2293POPC   C1A31239  16.024  37.169   8.768
 2293POPC   D2A31240  16.063  36.973   8.400
 2293POPC   C3A31241  16.290  37.166   8.084
 2293POPC   C4A31242  16.101  37.360   7.731
 2293POPC   C1B31243  16.070  36.664   8.848
 2293POPC   C2B31244  15.979  36.466   8.416
 2293POPC   C3B31245  15.851  36.515   8.000
 2293POPC   C4B31246  15.626  36.668   7.695
 2294POPC   NC331247  39.414  18.785   9.522
 2294POPC   PO431248  38.821  18.995   9.476
 2294POPC   GL131249  39.116  18.926   9.144
 2294POPC   GL231250  39.324  19.228   9.159
 2294POPC   C1A31251  39.524  18.863   8.884
 2294POPC   D2A31252  39.590  18.932   8.447
 2294POPC   C3A31253  39.283  18.871   8.119
 2294POPC   C4A31254  39.489  18.972   7.724
 2294POPC   C1B31255  39.144  19.160   8.712
 2294POPC   C2B31256  39.245  19.336   8.328
 2294POPC   C3B31257  39.265  19.376   7.927
 2294POPC   C4B31258  38.957  19.331   7.693
 2295POPC   NC331259  38.782  29.370   9.444
 2295POPC   PO431260  38.119  29.307   9.495
 2295POPC   GL131261  38.382  29.147   9.185
 2295POPC   GL231262  38.312  28.798   9.196
 2295POPC   C1A31263  38.506  29.339   8.769
 2295POPC   D2A31264  38.310  29.301   8.339
 2295POPC   C3A31265  38.520  29.488   7.987
 2295POPC   C4A31266  38.576  29.285   7.617
 2295POPC   C1B31267  38.657  28.839   8.886
 2295POPC   C2B31268  38.642  28.920   8.449
 2295POPC   C3B31269  38.544  28.924   7.997
 2295POPC   C4B31270  38.484  28.778   7.549
 2296POPC   NC331271  18.694  23.245   9.383
 2296POPC   PO431272  18.814  23.923   9.501
 2296POPC   GL131273  18.984  23.603   9.137
 2296POPC   GL231274  19.370  23.426   9.118
 2296POPC   C1A31275  19.213  23.764   8.785
 2296POPC   D2A31276  19.344  23.976   8.437
 2296POPC   C3A31277  19.224  23.785   8.100
 2296POPC   C4A31278  19.059  23.902   7.753
 2296POPC   C1B31279  19.114  23.241   8.761
 2296POPC   C2B31280  19.090  23.333   8.314
 2296POPC   C3B31281  19.086  23.338   7.859
 2296POPC   C4B31282  18.990  23.511   7.437
 2297POPC   NC331283  14.187  27.741   9.531
 2297POPC   PO431284  14.533  27.224   9.271
 2297POPC   GL131285  14.503  27.536   8.989
 2297POPC   GL231286  14.388  27.809   9.071
 2297POPC   C1A31287  14.595  27.593   8.590
 2297POPC   D2A31288  14.377  27.453   8.245
 2297POPC   C3A31289  14.621  27.480   7.907
 2297POPC   C4A31290  14.589  27.840   7.751
 2297POPC   C1B31291  14.160  27.864   8.697
 2297POPC   C2B31292  13.968  28.053   8.360
 2297POPC   C3B31293  13.967  27.849   7.951
 2297POPC   C4B31294  13.685  27.651   7.648
 2298POPC   NC331295  25.065  27.547   9.368
 2298POPC   PO431296  25.689  27.396   9.637
 2298POPC   GL131297  25.488  27.315   9.218
 2298POPC   GL231298  25.491  27.692   9.142
 2298POPC   C1A31299  25.225  27.294   8.795
 2298POPC   D2A31300  25.057  27.530   8.402
 2298POPC   C3A31301  25.170  27.388   7.998
 2298POPC   C4A31302  25.418  27.400   7.601
 2298POPC   C1B31303  25.244  27.811   8.783
 2298POPC   C2B31304  25.329  28.030   8.427
 2298POPC   C3B31305  25.412  27.949   8.031
 2298POPC   C4B31306  25.160  27.827   7.724
 2299POPC   NC331307  43.661  12.240   9.597
 2299POPC   PO431308  43.996  11.698   9.653
 2299POPC   GL131309  43.953  11.968   9.253
 2299POPC   GL231310  43.612  11.948   9.175
 2299POPC   C1A31311  44.122  12.130   8.796
 2299POPC   D2A31312  44.229  12.205   8.321
 2299POPC   C3A31313  43.996  12.041   7.947
 2299POPC   C4A31314  44.054  12.008   7.459
 2299POPC   C1B31315  43.651  12.287   8.896
 2299POPC   C2B31316  43.722  12.222   8.451
 2299POPC   C3B31317  43.497  12.231   8.068
 2299POPC   C4B31318  43.647  12.301   7.660
 2300POPC   NC331319  40.965  28.181   9.530
 2300POPC   PO431320  40.555  28.560   9.846
 2300POPC   GL131321  40.548  28.390   9.344
 2300POPC   GL231322  40.585  28.058   9.218
 2300POPC   C1A31323  40.765  28.397   8.878
 2300POPC   D2A31324  40.684  28.632   8.457
 2300POPC   C3A31325  40.698  28.426   8.036
 2300POPC   C4A31326  40.700  28.412   7.598
 2300POPC   C1B31327  40.491  27.939   8.803
 2300POPC   C2B31328  40.575  28.077   8.385
 2300POPC   C3B31329  40.539  27.956   7.915
 2300POPC   C4B31330  40.451  27.968   7.452
 2301POPC   NC331331  28.408  11.756   9.523
 2301POPC   PO431332  28.687  12.294   9.251
 2301POPC   GL131333  28.324  12.115   9.109
 2301POPC   GL231334  28.454  11.796   9.026
 2301POPC   C1A31335  28.054  12.321   8.814
 2301POPC   D2A31336  28.069  12.617   8.451
 2301POPC   C3A31337  28.055  12.400   8.048
 2301POPC   C4A31338  28.261  12.339   7.654
 2301POPC   C1B31339  28.069  11.725   8.835
 2301POPC   C2B31340  28.060  11.959   8.445
 2301POPC   C3B31341  28.325  11.961   8.075
 2301POPC   C4B31342  28.139  11.828   7.720
 2302POPC   NC331343  37.668  35.751   9.690
 2302POPC   PO431344  37.664  36.366   9.549
 2302POPC   GL131345  37.740  36.028   9.231
 2302POPC   GL231346  37.595  35.662   9.196
 2302POPC   C1A31347  37.857  36.200   8.810
 2302POPC   D2A31348  37.611  36.454   8.513
 2302POPC   C3A31349  37.718  36.358   8.077
 2302POPC   C4A31350  37.826  36.435   7.644
 2302POPC   C1B31351  37.486  35.861   8.816
 2302POPC   C2B31352  37.596  35.941   8.420
 2302POPC   C3B31353  37.518  35.859   8.019
 2302POPC   C4B31354  37.829  35.915   7.750
 2303POPC   NC331355   2.639  34.983   9.527
 2303POPC   PO431356   2.976  34.348   9.460
 2303POPC   GL131357   2.670  34.506   9.201
 2303POPC   GL231358   2.825  34.765   9.105
 2303POPC   C1A31359   2.709  34.412   8.757
 2303POPC   D2A31360   2.605  34.588   8.363
 2303POPC   C3A31361   2.884  34.343   8.117
 2303POPC   C4A31362   3.075  34.248   7.739
 2303POPC   C1B31363   2.811  34.934   8.725
 2303POPC   C2B31364   3.055  34.979   8.364
 2303POPC   C3B31365   3.084  34.775   7.976
 2303POPC   C4B31366   2.790  34.782   7.675
 2304POPC   NC331367  33.391  30.653   9.611
 2304POPC   PO431368  33.967  31.084   9.565
 2304POPC   GL131369  33.936  30.697   9.314
 2304POPC   GL231370  33.614  30.746   9.157
 2304POPC   C1A31371  34.046  30.693   8.875
 2304POPC   D2A31372  33.912  31.015   8.554
 2304POPC   C3A31373  33.883  30.821   8.156
 2304POPC   C4A31374  34.190  30.619   7.867
 2304POPC   C1B31375  33.431  30.962   8.812
 2304POPC   C2B31376  33.383  31.032   8.362
 2304POPC   C3B31377  33.405  30.925   7.907
 2304POPC   C4B31378  33.428  30.921   7.425
 2305POPC   NC331379   2.942  33.122   9.522
 2305POPC   PO431380   2.304  32.856   9.392
 2305POPC   GL131381   2.658  32.698   9.190
 2305POPC   GL231382   2.991  32.834   9.109
 2305POPC   C1A31383   2.590  32.776   8.759
 2305POPC   D2A31384   2.549  33.043   8.396
 2305POPC   C3A31385   2.748  33.021   8.004
 2305POPC   C4A31386   2.534  32.794   7.706
 2305POPC   C1B31387   2.943  33.164   8.796
 2305POPC   C2B31388   3.045  33.263   8.385
 2305POPC   C3B31389   2.973  33.487   8.005
 2305POPC   C4B31390   3.023  33.345   7.589
 2306POPC   NC331391  33.881  40.939   9.541
 2306POPC   PO431392  33.516  40.387   9.519
 2306POPC   GL131393  33.607  40.647   9.202
 2306POPC   GL231394  33.942  40.567   9.193
 2306POPC   C1A31395  33.667  40.853   8.828
 2306POPC   D2A31396  33.798  40.771   8.457
 2306POPC   C3A31397  33.540  40.696   8.106
 2306POPC   C4A31398  33.596  40.844   7.699
 2306POPC   C1B31399  34.142  40.603   8.824
 2306POPC   C2B31400  34.297  40.778   8.476
 2306POPC   C3B31401  34.094  40.631   8.082
 2306POPC   C4B31402  34.147  40.810   7.715
 2307POPC   NC331403  43.788  21.647   9.666
 2307POPC   PO431404  44.142  21.037   9.576
 2307POPC   GL131405  44.010  21.331   9.302
 2307POPC   GL231406  43.660  21.238   9.383
 2307POPC   C1A31407  44.051  21.541   8.921
 2307POPC   D2A31408  43.797  21.545   8.574
 2307POPC   C3A31409  43.862  21.570   8.141
 2307POPC   C4A31410  43.684  21.784   7.777
 2307POPC   C1B31411  43.626  21.247   8.943
 2307POPC   C2B31412  43.647  21.051   8.544
 2307POPC   C3B31413  43.451  21.119   8.162
 2307POPC   C4B31414  43.590  21.283   7.774
 2308POPC   NC331415  21.519  17.743   9.404
 2308POPC   PO431416  21.169  17.277   9.772
 2308POPC   GL131417  21.191  17.282   9.278
 2308POPC   GL231418  21.143  17.613   9.078
 2308POPC   C1A31419  21.311  17.220   8.803
 2308POPC   D2A31420  21.325  17.398   8.349
 2308POPC   C3A31421  21.490  17.159   7.970
 2308POPC   C4A31422  21.450  17.065   7.511
 2308POPC   C1B31423  21.471  17.749   8.743
 2308POPC   C2B31424  21.617  17.835   8.305
 2308POPC   C3B31425  21.571  17.656   7.903
 2308POPC   C4B31426  21.143  17.501   7.853
 2309POPC   NC331427  11.527  19.034   9.534
 2309POPC   PO431428  11.064  19.547   9.466
 2309POPC   GL131429  11.232  19.173   9.156
 2309POPC   GL231430  11.448  18.805   9.081
 2309POPC   C1A31431  11.491  19.195   8.780
 2309POPC   D2A31432  11.286  19.129   8.416
 2309POPC   C3A31433  11.525  18.928   8.114
 2309POPC   C4A31434  11.448  18.986   7.687
 2309POPC   C1B31435  11.075  18.816   8.809
 2309POPC   C2B31436  10.978  18.724   8.395
 2309POPC   C3B31437  11.023  18.927   8.006
 2309POPC   C4B31438  10.927  18.737   7.636
 2310POPC   NC331439   2.138  12.959   9.650
 2310POPC   PO431440   1.538  12.721   9.595
 2310POPC   GL131441   1.741  13.042   9.282
 2310POPC   GL231442   2.074  12.940   9.130
 2310POPC   C1A31443   1.743  13.165   8.830
 2310POPC   D2A31444   1.940  13.146   8.432
 2310POPC   C3A31445   1.773  13.027   8.016
 2310POPC   C4A31446   2.026  12.896   7.656
 2310POPC   C1B31447   2.016  12.727   8.713
 2310POPC   C2B31448   1.995  12.612   8.244
 2310POPC   C3B31449   1.955  12.413   7.803
 2310POPC   C4B31450   2.246  12.180   7.532
 2311POPC   NC331451  42.823  40.063   9.616
 2311POPC   PO431452  43.448  39.723   9.519
 2311POPC   GL131453  43.204  39.961   9.193
 2311POPC   GL231454  42.871  40.014   9.117
 2311POPC   C1A31455  43.179  39.875   8.741
 2311POPC   D2A31456  43.431  39.846   8.379
 2311POPC   C3A31457  43.178  39.927   8.018
 2311POPC   C4A31458  43.123  39.598   7.796
 2311POPC   C1B31459  42.729  40.223   8.790
 2311POPC   C2B31460  42.545  40.314   8.409
 2311POPC   C3B31461  42.747  40.212   7.977
 2311POPC   C4B31462  42.761  39.965   7.585
 2312POPC   NC331463  26.196  18.424   9.682
 2312POPC   PO431464  25.655  18.169   9.631
 2312POPC   GL131465  25.892  18.328   9.239
 2312POPC   GL231466  26.180  18.534   9.175
 2312POPC   C1A31467  26.045  18.127   8.854
 2312POPC   D2A31468  26.124  17.973   8.431
 2312POPC   C3A31469  25.809  18.130   8.158
 2312POPC   C4A31470  25.794  18.152   7.719
 2312POPC   C1B31471  26.353  18.524   8.779
 2312POPC   C2B31472  26.077  18.484   8.435
 2312POPC   C3B31473  26.135  18.531   7.986
 2312POPC   C4B31474  26.396  18.576   7.625
 2313POPC   NC331475  11.139   0.821   9.307
 2313POPC   PO431476  11.122   1.439   9.556
 2313POPC   GL131477  11.281   1.296   9.193
 2313POPC   GL231478  11.005   1.472   9.036
 2313POPC   C1A31479  11.431   1.305   8.780
 2313POPC   D2A31480  11.429   1.166   8.342
 2313POPC   C3A31481  11.218   1.443   8.031
 2313POPC   C4A31482  11.189   1.306   7.582
 2313POPC   C1B31483  10.955   1.127   8.738
 2313POPC   C2B31484  10.876   1.135   8.305
 2313POPC   C3B31485  11.090   0.953   7.973
 2313POPC   C4B31486  10.979   0.830   7.577
 2314POPC   NC331487   7.816  16.151   9.545
 2314POPC   PO431488   7.334  15.713   9.533
 2314POPC   GL131489   7.322  15.918   9.161
 2314POPC   GL231490   7.595  15.696   9.098
 2314POPC   C1A31491   7.353  16.113   8.764
 2314POPC   D2A31492   7.579  16.118   8.383
 2314POPC   C3A31493   7.405  16.171   8.000
 2314POPC   C4A31494   7.296  15.886   7.687
 2314POPC   C1B31495   7.742  15.762   8.718
 2314POPC   C2B31496   7.934  15.663   8.362
 2314POPC   C3B31497   7.716  15.712   8.019
 2314POPC   C4B31498   7.790  15.834   7.647
 2315POPC   NC331499  35.586  40.823   9.157
 2315POPC   PO431500  35.094  40.705   9.609
 2315POPC   GL131501  35.064  40.719   9.114
 2315POPC   GL231502  35.164  41.033   8.890
 2315POPC   C1A31503  35.247  40.558   8.707
 2315POPC   D2A31504  35.304  40.702   8.311
 2315POPC   C3A31505  35.353  40.479   7.960
 2315POPC   C4A31506  35.203  40.798   7.706
 2315POPC   C1B31507  35.542  41.081   8.574
 2315POPC   C2B31508  35.792  40.798   8.267
 2315POPC   C3B31509  35.719  40.850   7.816
 2315POPC   C4B31510  35.625  40.916   7.339
 2316POPC   NC331511  17.598  17.878   9.434
 2316POPC   PO431512  17.319  17.269   9.589
 2316POPC   GL131513  17.376  17.428   9.158
 2316POPC   GL231514  17.697  17.481   9.094
 2316POPC   C1A31515  17.406  17.233   8.721
 2316POPC   D2A31516  17.495  17.411   8.301
 2316POPC   C3A31517  17.717  17.222   7.982
 2316POPC   C4A31518  17.587  17.386   7.617
 2316POPC   C1B31519  17.583  17.709   8.705
 2316POPC   C2B31520  17.313  17.895   8.360
 2316POPC   C3B31521  17.370  17.857   7.889
 2316POPC   C4B31522  17.286  17.797   7.407
 2317POPC   NC331523  40.213  31.733   9.598
 2317POPC   PO431524  39.645  31.312   9.517
 2317POPC   GL131525  39.870  31.291   9.162
 2317POPC   GL231526  40.188  31.387   9.210
 2317POPC   C1A31527  39.893  31.496   8.782
 2317POPC   D2A31528  39.746  31.282   8.432
 2317POPC   C3A31529  39.816  31.508   8.088
 2317POPC   C4A31530  40.053  31.359   7.780
 2317POPC   C1B31531  40.329  31.252   8.783
 2317POPC   C2B31532  40.232  31.469   8.389
 2317POPC   C3B31533  40.278  31.761   8.047
 2317POPC   C4B31534  40.366  31.712   7.619
 2318POPC   NC331535  43.803  33.628   9.437
 2318POPC   PO431536  44.130  34.233   9.554
 2318POPC   GL131537  44.093  33.966   9.179
 2318POPC   GL231538  43.745  34.035   9.070
 2318POPC   C1A31539  44.040  33.723   8.786
 2318POPC   D2A31540  43.967  33.396   8.517
 2318POPC   C3A31541  44.162  33.431   8.087
 2318POPC   C4A31542  44.102  33.495   7.627
 2318POPC   C1B31543  43.544  33.823   8.755
 2318POPC   C2B31544  43.586  33.734   8.354
 2318POPC   C3B31545  43.735  33.697   7.972
 2318POPC   C4B31546  43.801  33.916   7.611
 2319POPC   NC331547  31.764   2.486   9.645
 2319POPC   PO431548  31.386   3.021   9.463
 2319POPC   GL131549  31.211   2.883   9.092
 2319POPC   GL231550  31.404   2.580   9.095
 2319POPC   C1A31551  31.152   2.807   8.654
 2319POPC   D2A31552  31.399   2.746   8.302
 2319POPC   C3A31553  31.542   2.962   7.945
 2319POPC   C4A31554  31.947   2.817   7.809
 2319POPC   C1B31555  31.684   2.680   8.746
 2319POPC   C2B31556  31.745   2.388   8.403
 2319POPC   C3B31557  31.637   2.422   7.963
 2319POPC   C4B31558  31.241   2.585   7.835
 2320POPC   NC331559  27.402  35.638   9.431
 2320POPC   PO431560  27.708  36.051   9.833
 2320POPC   GL131561  27.565  36.095   9.373
 2320POPC   GL231562  27.815  36.167   9.161
 2320POPC   C1A31563  27.389  36.077   8.922
 2320POPC   D2A31564  27.237  35.956   8.509
 2320POPC   C3A31565  27.325  36.233   8.173
 2320POPC   C4A31566  27.479  36.040   7.808
 2320POPC   C1B31567  27.891  35.982   8.743
 2320POPC   C2B31568  27.805  36.074   8.293
 2320POPC   C3B31569  27.973  36.160   7.865
 2320POPC   C4B31570  27.728  36.352   7.500
 2321POPC   NC331571  24.051  30.795   9.332
 2321POPC   PO431572  23.476  30.564   9.561
 2321POPC   GL131573  23.601  30.583   9.172
 2321POPC   GL231574  23.403  30.829   9.053
 2321POPC   C1A31575  23.451  30.375   8.776
 2321POPC   D2A31576  23.411  30.507   8.353
 2321POPC   C3A31577  23.701  30.654   8.083
 2321POPC   C4A31578  23.616  30.807   7.691
 2321POPC   C1B31579  23.750  30.794   8.738
 2321POPC   C2B31580  23.880  31.025   8.410
 2321POPC   C3B31581  23.710  31.170   8.030
 2321POPC   C4B31582  24.015  31.200   7.704
 2322POPC   NC331583  16.569  16.416   9.490
 2322POPC   PO431584  15.913  16.678   9.471
 2322POPC   GL131585  16.018  16.580   9.074
 2322POPC   GL231586  16.348  16.696   9.113
 2322POPC   C1A31587  15.842  16.608   8.655
 2322POPC   D2A31588  15.583  16.871   8.373
 2322POPC   C3A31589  15.678  16.821   7.935
 2322POPC   C4A31590  15.665  16.531   7.578
 2322POPC   C1B31591  16.254  16.962   8.754
 2322POPC   C2B31592  16.151  16.856   8.342
 2322POPC   C3B31593  16.250  16.978   7.967
 2322POPC   C4B31594  16.079  16.841   7.593
 2323POPC   NC331595  14.705   0.114   9.327
 2323POPC   PO431596  14.631  44.464   9.568
 2323POPC   GL131597  14.557  44.622   9.165
 2323POPC   GL231598  14.258  44.454   9.007
 2323POPC   C1A31599  14.559  44.768   8.745
 2323POPC   D2A31600  14.231  44.800   8.447
 2323POPC   C3A31601  14.326  44.805   8.018
 2323POPC   C4A31602  14.633  44.688   7.682
 2323POPC   C1B31603  13.967  44.386   8.661
 2323POPC   C2B31604  13.998  44.406   8.183
 2323POPC   C3B31605  14.211  44.380   7.763
 2323POPC   C4B31606  14.264  44.494   7.338
 2324POPC   NC331607  10.512  31.769   9.606
 2324POPC   PO431608  10.521  31.155   9.323
 2324POPC   GL131609  10.613  31.507   9.165
 2324POPC   GL231610  10.913  31.580   9.325
 2324POPC   C1A31611  10.506  31.693   8.779
 2324POPC   D2A31612  10.709  31.721   8.396
 2324POPC   C3A31613  10.645  31.415   8.101
 2324POPC   C4A31614  10.437  31.521   7.731
 2324POPC   C1B31615  11.015  31.588   8.872
 2324POPC   C2B31616  11.198  31.536   8.463
 2324POPC   C3B31617  11.119  31.761   8.097
 2324POPC   C4B31618  10.901  31.758   7.757
 2325POPC   NC331619  22.787   0.792   9.304
 2325POPC   PO431620  23.210   1.322   9.561
 2325POPC   GL131621  22.978   1.238   9.138
 2325POPC   GL231622  22.714   1.450   9.019
 2325POPC   C1A31623  22.912   1.100   8.681
 2325POPC   D2A31624  23.118   1.097   8.265
 2325POPC   C3A31625  22.931   1.056   7.868
 2325POPC   C4A31626  22.675   0.854   7.580
 2325POPC   C1B31627  22.600   1.512   8.615
 2325POPC   C2B31628  22.633   1.301   8.239
 2325POPC   C3B31629  22.513   1.358   7.824
 2325POPC   C4B31630  22.719   1.362   7.453
 2326POPC   NC331631   6.689   5.578   9.572
 2326POPC   PO431632   6.535   6.279   9.550
 2326POPC   GL131633   6.654   5.975   9.186
 2326POPC   GL231634   6.428   5.660   9.146
 2326POPC   C1A31635   6.616   5.841   8.722
 2326POPC   D2A31636   6.460   5.616   8.402
 2326POPC   C3A31637   6.451   5.859   8.045
 2326POPC   C4A31638   6.620   6.109   7.713
 2326POPC   C1B31639   6.878   5.504   8.967
 2326POPC   C2B31640   7.045   5.529   8.553
 2326POPC   C3B31641   6.995   5.746   8.157
 2326POPC   C4B31642   6.827   5.650   7.744
 2327POPC   NC331643  23.778  20.846   9.534
 2327POPC   PO431644  23.386  20.233   9.504
 2327POPC   GL131645  23.579  20.528   9.182
 2327POPC   GL231646  23.858  20.402   9.057
 2327POPC   C1A31647  23.617  20.837   8.831
 2327POPC   D2A31648  23.630  21.074   8.432
 2327POPC   C3A31649  23.616  20.795   8.088
 2327POPC   C4A31650  23.825  20.709   7.701
 2327POPC   C1B31651  23.650  20.316   8.685
 2327POPC   C2B31652  23.815  20.385   8.314
 2327POPC   C3B31653  23.973  20.227   7.972
 2327POPC   C4B31654  24.140  20.338   7.588
 2328POPC   NC331655  38.421  16.774   9.471
 2328POPC   PO431656  38.114  17.362   9.487
 2328POPC   GL131657  38.277  17.105   9.093
 2328POPC   GL231658  38.409  16.725   8.974
 2328POPC   C1A31659  38.071  16.971   8.702
 2328POPC   D2A31660  38.389  16.816   8.432
 2328POPC   C3A31661  38.282  16.620   8.068
 2328POPC   C4A31662  38.366  16.658   7.650
 2328POPC   C1B31663  38.665  16.454   8.671
 2328POPC   C2B31664  38.714  16.411   8.208
 2328POPC   C3B31665  38.754  16.320   7.768
 2328POPC   C4B31666  38.629  16.402   7.305
 2329POPC   NC331667   3.939   8.938   9.517
 2329POPC   PO431668   4.539   9.195   9.555
 2329POPC   GL131669   4.428   8.794   9.258
 2329POPC   GL231670   4.101   8.802   9.044
 2329POPC   C1A31671   4.534   8.597   8.823
 2329POPC   D2A31672   4.494   8.635   8.352
 2329POPC   C3A31673   4.536   8.992   8.076
 2329POPC   C4A31674   4.687   9.018   7.655
 2329POPC   C1B31675   4.147   8.887   8.588
 2329POPC   C2B31676   4.030   8.812   8.139
 2329POPC   C3B31677   3.870   9.084   7.787
 2329POPC   C4B31678   3.676   9.176   7.377
 2330POPC   NC331679   0.109  11.361   9.606
 2330POPC   PO431680   0.328  10.774   9.419
 2330POPC   GL131681   0.409  11.166   9.150
 2330POPC   GL231682   0.190  11.455   9.128
 2330POPC   C1A31683   0.396  11.341   8.690
 2330POPC   D2A31684   0.154  11.537   8.356
 2330POPC   C3A31685   0.393  11.514   7.966
 2330POPC   C4A31686   0.791  11.472   7.710
 2330POPC   C1B31687  44.983  11.082   8.893
 2330POPC   C2B31688   0.023  10.952   8.465
 2330POPC   C3B31689   0.114  11.091   8.070
 2330POPC   C4B31690   0.469  11.045   7.791
 2331POPC   NC331691   8.687   5.718   9.491
 2331POPC   PO431692   9.333   5.941   9.535
 2331POPC   GL131693   9.064   6.001   9.171
 2331POPC   GL231694   8.981   5.656   9.057
 2331POPC   C1A31695   9.049   6.016   8.708
 2331POPC   D2A31696   9.035   5.604   8.553
 2331POPC   C3A31697   9.056   5.601   8.142
 2331POPC   C4A31698   9.058   5.765   7.733
 2331POPC   C1B31699   8.596   5.697   8.797
 2331POPC   C2B31700   8.556   5.635   8.340
 2331POPC   C3B31701   8.664   5.928   7.998
 2331POPC   C4B31702   8.732   6.115   7.556
 2332POPC   NC331703  33.874  38.809   9.671
 2332POPC   PO431704  33.277  39.042   9.480
 2332POPC   GL131705  33.553  39.033   9.110
 2332POPC   GL231706  33.906  39.121   9.171
 2332POPC   C1A31707  33.623  39.123   8.650
 2332POPC   D2A31708  33.581  38.989   8.203
 2332POPC   C3A31709  33.654  39.271   7.863
 2332POPC   C4A31710  33.349  39.449   7.591
 2332POPC   C1B31711  34.124  39.115   8.736
 2332POPC   C2B31712  34.078  39.164   8.272
 2332POPC   C3B31713  34.084  39.549   7.994
 2332POPC   C4B31714  34.280  39.611   7.568
 2333POPC   NC331715  31.658  39.316   9.571
 2333POPC   PO431716  31.030  39.364   9.360
 2333POPC   GL131717  31.369  39.273   9.077
 2333POPC   GL231718  31.744  39.255   9.078
 2333POPC   C1A31719  31.300  39.241   8.662
 2333POPC   D2A31720  31.142  38.956   8.393
 2333POPC   C3A31721  31.128  39.130   8.014
 2333POPC   C4A31722  31.044  38.895   7.688
 2333POPC   C1B31723  31.789  39.073   8.691
 2333POPC   C2B31724  31.665  39.247   8.278
 2333POPC   C3B31725  31.623  39.195   7.826
 2333POPC   C4B31726  31.702  39.002   7.421
 2334POPC   NC331727  26.200  10.873   9.684
 2334POPC   PO431728  25.961  10.220   9.550
 2334POPC   GL131729  25.959  10.551   9.237
 2334POPC   GL231730  26.064  10.285   9.022
 2334POPC   C1A31731  26.039  10.756   8.809
 2334POPC   D2A31732  25.987  10.979   8.380
 2334POPC   C3A31733  25.904  10.753   7.958
 2334POPC   C4A31734  25.907  10.806   7.459
 2334POPC   C1B31735  26.078  10.297   8.590
 2334POPC   C2B31736  26.045  10.312   8.157
 2334POPC   C3B31737  26.200  10.150   7.771
 2334POPC   C4B31738  26.119  10.258   7.352
 2335POPC   NC331739  43.925  15.491   9.431
 2335POPC   PO431740  43.938  14.806   9.466
 2335POPC   GL131741  43.924  15.119   9.081
 2335POPC   GL231742  43.755  15.437   8.964
 2335POPC   C1A31743  43.881  15.023   8.628
 2335POPC   D2A31744  44.148  14.817   8.296
 2335POPC   C3A31745  44.037  14.898   7.847
 2335POPC   C4A31746  43.774  14.766   7.465
 2335POPC   C1B31747  44.019  15.540   8.632
 2335POPC   C2B31748  44.144  15.362   8.264
 2335POPC   C3B31749  44.154  15.427   7.829
 2335POPC   C4B31750  44.004  15.253   7.457
 2336POPC   NC331751  41.021  20.983   9.374
 2336POPC   PO431752  40.676  20.361   9.452
 2336POPC   GL131753  40.752  20.606   9.098
 2336POPC   GL231754  41.101  20.734   8.942
 2336POPC   C1A31755  40.627  20.756   8.720
 2336POPC   D2A31756  40.884  20.845   8.373
 2336POPC   C3A31757  40.646  20.806   7.997
 2336POPC   C4A31758  40.661  20.497   7.640
 2336POPC   C1B31759  41.049  20.348   8.735
 2336POPC   C2B31760  41.100  20.216   8.322
 2336POPC   C3B31761  41.050  20.502   8.007
 2336POPC   C4B31762  41.115  20.234   7.695
 2337POPC   NC331763   0.399  21.058   9.714
 2337POPC   PO431764   0.041  21.068   9.138
 2337POPC   GL131765   0.265  21.005   8.802
 2337POPC   GL231766   0.436  21.310   8.798
 2337POPC   C1A31767   0.114  21.070   8.416
 2337POPC   D2A31768   0.208  21.034   8.008
 2337POPC   C3A31769   0.246  21.465   7.915
 2337POPC   C4A31770   0.433  21.649   7.557
 2337POPC   C1B31771   0.251  21.573   8.457
 2337POPC   C2B31772   0.461  21.864   8.167
 2337POPC   C3B31773   0.784  21.716   7.907
 2337POPC   C4B31774   0.698  21.279   7.816
 2338POPC   NC331775  18.914  41.936   9.771
 2338POPC   PO431776  19.197  41.506   9.319
 2338POPC   GL131777  18.816  41.596   9.138
 2338POPC   GL231778  18.902  41.952   9.174
 2338POPC   C1A31779  18.673  41.407   8.747
 2338POPC   D2A31780  18.849  41.534   8.376
 2338POPC   C3A31781  18.785  41.324   7.989
 2338POPC   C4A31782  19.071  41.327   7.641
 2338POPC   C1B31783  19.124  41.799   8.761
 2338POPC   C2B31784  19.325  41.749   8.361
 2338POPC   C3B31785  19.102  41.741   7.971
 2338POPC   C4B31786  19.150  41.842   7.554
 2339POPC   NC331787  17.306  42.897   9.599
 2339POPC   PO431788  17.712  43.427   9.643
 2339POPC   GL131789  17.478  43.291   9.261
 2339POPC   GL231790  17.516  42.942   9.107
 2339POPC   C1A31791  17.555  43.363   8.812
 2339POPC   D2A31792  17.414  43.209   8.434
 2339POPC   C3A31793  17.630  43.305   8.067
 2339POPC   C4A31794  17.604  43.152   7.657
 2339POPC   C1B31795  17.802  42.836   8.754
 2339POPC   C2B31796  17.922  42.939   8.311
 2339POPC   C3B31797  17.777  42.756   7.923
 2339POPC   C4B31798  17.747  42.700   7.442
 2340POPC   NC331799  17.825   5.445   9.479
 2340POPC   PO431800  17.619   6.173   9.606
 2340POPC   GL131801  17.651   5.853   9.259
 2340POPC   GL231802  17.452   5.977   9.055
 2340POPC   C1A31803  17.681   5.602   8.830
 2340POPC   D2A31804  17.505   5.840   8.455
 2340POPC   C3A31805  17.634   5.795   8.028
 2340POPC   C4A31806  17.580   6.000   7.612
 2340POPC   C1B31807  17.169   5.804   8.841
 2340POPC   C2B31808  16.946   5.915   8.485
 2340POPC   C3B31809  17.015   5.808   8.069
 2340POPC   C4B31810  17.081   5.960   7.679
 2341POPC   NC331811  16.255   2.750   9.474
 2341POPC   PO431812  15.844   3.250   9.618
 2341POPC   GL131813  15.819   2.808   9.255
 2341POPC   GL231814  16.088   2.835   8.995
 2341POPC   C1A31815  15.601   2.700   8.808
 2341POPC   D2A31816  15.530   2.927   8.413
 2341POPC   C3A31817  15.825   2.953   8.102
 2341POPC   C4A31818  15.845   2.942   7.689
 2341POPC   C1B31819  16.020   2.452   8.733
 2341POPC   C2B31820  15.767   2.462   8.335
 2341POPC   C3B31821  15.924   2.444   7.918
 2341POPC   C4B31822  16.125   2.557   7.519
 2342POPC   NC331823  12.290  29.906   9.480
 2342POPC   PO431824  11.635  30.109   9.594
 2342POPC   GL131825  11.850  29.964   9.209
 2342POPC   GL231826  12.079  30.229   9.162
 2342POPC   C1A31827  12.012  29.928   8.754
 2342POPC   D2A31828  12.061  30.042   8.291
 2342POPC   C3A31829  12.082  29.899   7.877
 2342POPC   C4A31830  11.755  30.021   7.628
 2342POPC   C1B31831  12.455  30.146   8.892
 2342POPC   C2B31832  12.492  30.231   8.473
 2342POPC   C3B31833  12.551  29.987   8.119
 2342POPC   C4B31834  12.510  30.118   7.706
 2343POPC   NC331835  16.456  39.664   9.867
 2343POPC   PO431836  16.698  40.142   9.533
 2343POPC   GL131837  16.563  39.773   9.295
 2343POPC   GL231838  16.835  39.736   9.128
 2343POPC   C1A31839  16.447  39.774   8.809
 2343POPC   D2A31840  16.776  39.877   8.477
 2343POPC   C3A31841  16.796  39.986   8.056
 2343POPC   C4A31842  16.757  39.840   7.638
 2343POPC   C1B31843  16.964  40.078   8.910
 2343POPC   C2B31844  17.116  40.255   8.536
 2343POPC   C3B31845  17.197  40.319   8.105
 2343POPC   C4B31846  17.049  40.264   7.702
 2344POPC   NC331847  12.088  14.206   9.631
 2344POPC   PO431848  11.538  14.502   9.510
 2344POPC   GL131849  11.862  14.318   9.188
 2344POPC   GL231850  12.261  14.194   9.146
 2344POPC   C1A31851  11.999  14.431   8.776
 2344POPC   D2A31852  12.198  14.272   8.437
 2344POPC   C3A31853  12.063  14.404   8.062
 2344POPC   C4A31854  11.803  14.448   7.724
 2344POPC   C1B31855  12.551  14.069   8.765
 2344POPC   C2B31856  12.589  14.018   8.284
 2344POPC   C3B31857  12.507  14.066   7.846
 2344POPC   C4B31858  12.140  14.103   7.553
 2345POPC   NC331859  19.604  23.045   9.443
 2345POPC   PO431860  20.098  22.505   9.391
 2345POPC   GL131861  19.752  22.671   9.150
 2345POPC   GL231862  19.962  23.016   9.086
 2345POPC   C1A31863  19.539  22.941   8.818
 2345POPC   D2A31864  19.785  23.171   8.499
 2345POPC   C3A31865  19.793  23.017   8.061
 2345POPC   C4A31866  19.544  23.139   7.698
 2345POPC   C1B31867  19.969  22.709   8.718
 2345POPC   C2B31868  19.644  22.450   8.550
 2345POPC   C3B31869  19.606  22.386   8.105
 2345POPC   C4B31870  19.690  22.628   7.726
 2346POPC   NC331871  27.714  41.734   9.656
 2346POPC   PO431872  27.591  41.107   9.641
 2346POPC   GL131873  27.499  41.350   9.273
 2346POPC   GL231874  27.638  41.626   9.182
 2346POPC   C1A31875  27.436  41.351   8.824
 2346POPC   D2A31876  27.635  41.395   8.437
 2346POPC   C3A31877  27.418  41.442   8.042
 2346POPC   C4A31878  27.419  41.851   7.798
 2346POPC   C1B31879  27.916  41.538   8.852
 2346POPC   C2B31880  28.015  41.749   8.464
 2346POPC   C3B31881  27.857  41.700   8.067
 2346POPC   C4B31882  27.934  41.758   7.674
 2347POPC   NC331883   1.173  40.948   9.482
 2347POPC   PO431884   0.766  40.464   9.739
 2347POPC   GL131885   0.837  40.652   9.265
 2347POPC   GL231886   1.238  40.622   9.102
 2347POPC   C1A31887   0.878  40.872   8.849
 2347POPC   D2A31888   1.190  40.680   8.553
 2347POPC   C3A31889   1.147  40.785   8.134
 2347POPC   C4A31890   1.165  40.695   7.675
 2347POPC   C1B31891   1.388  41.038   8.863
 2347POPC   C2B31892   1.459  41.241   8.422
 2347POPC   C3B31893   1.437  41.151   7.950
 2347POPC   C4B31894   1.435  41.165   7.484
 2348POPC   NC331895   4.920  14.191   9.585
 2348POPC   PO431896   5.442  14.550   9.608
 2348POPC   GL131897   5.187  14.454   9.234
 2348POPC   GL231898   5.136  14.113   9.121
 2348POPC   C1A31899   5.051  14.574   8.841
 2348POPC   D2A31900   5.235  14.568   8.458
 2348POPC   C3A31901   5.126  14.272   8.163
 2348POPC   C4A31902   5.138  14.445   7.782
 2348POPC   C1B31903   5.120  14.082   8.669
 2348POPC   C2B31904   4.815  13.897   8.390
 2348POPC   C3B31905   4.703  14.016   7.981
 2348POPC   C4B31906   4.973  14.014   7.601
 2349POPC   NC331907  42.541   7.021   9.559
 2349POPC   PO431908  42.162   7.604   9.488
 2349POPC   GL131909  42.358   7.464   9.158
 2349POPC   GL231910  42.114   7.368   8.943
 2349POPC   C1A31911  42.472   7.705   8.759
 2349POPC   D2A31912  42.285   7.641   8.374
 2349POPC   C3A31913  42.409   7.744   7.948
 2349POPC   C4A31914  42.119   7.477   7.690
 2349POPC   C1B31915  42.562   7.201   8.797
 2349POPC   C2B31916  42.725   7.330   8.417
 2349POPC   C3B31917  42.457   7.268   8.068
 2349POPC   C4B31918  42.644   7.333   7.701
 2350POPC   NC331919  14.886   0.741   9.521
 2350POPC   PO431920  15.118   0.133   9.568
 2350POPC   GL131921  15.281   0.318   9.198
 2350POPC   GL231922  15.011   0.475   9.053
 2350POPC   C1A31923  15.449   0.366   8.758
 2350POPC   D2A31924  15.280   0.227   8.336
 2350POPC   C3A31925  15.189   0.538   8.034
 2350POPC   C4A31926  15.473   0.748   7.745
 2350POPC   C1B31927  15.035   0.080   8.781
 2350POPC   C2B31928  14.898  44.899   8.398
 2350POPC   C3B31929  14.770   0.061   8.043
 2350POPC   C4B31930  14.920   0.179   7.677
 2351POPC   NC331931   9.116  12.577   9.484
 2351POPC   PO431932   8.788  11.991   9.562
 2351POPC   GL131933   8.898  11.927   9.140
 2351POPC   GL231934   8.967  12.250   9.098
 2351POPC   C1A31935   9.165  11.952   8.741
 2351POPC   D2A31936   9.278  12.254   8.429
 2351POPC   C3A31937   9.330  12.064   8.049
 2351POPC   C4A31938   9.300  12.270   7.653
 2351POPC   C1B31939   8.696  12.120   8.717
 2351POPC   C2B31940   8.789  12.235   8.311
 2351POPC   C3B31941   8.823  12.079   7.908
 2351POPC   C4B31942   8.582  11.723   7.781
 2352POPC   NC331943  35.896  30.877   9.418
 2352POPC   PO431944  36.387  30.618   9.731
 2352POPC   GL131945  36.312  30.649   9.225
 2352POPC   GL231946  35.993  30.534   9.027
 2352POPC   C1A31947  36.235  30.874   8.788
 2352POPC   D2A31948  36.017  30.736   8.397
 2352POPC   C3A31949  36.256  30.839   8.038
 2352POPC   C4A31950  36.216  30.743   7.596
 2352POPC   C1B31951  35.691  30.403   8.705
 2352POPC   C2B31952  35.597  30.452   8.250
 2352POPC   C3B31953  35.840  30.567   7.891
 2352POPC   C4B31954  35.817  30.455   7.436
 2353POPC   NC331955  25.362  34.436   9.478
 2353POPC   PO431956  25.123  35.027   9.607
 2353POPC   GL131957  25.071  34.817   9.167
 2353POPC   GL231958  24.929  34.483   9.147
 2353POPC   C1A31959  25.252  34.613   8.770
 2353POPC   D2A31960  25.424  34.450   8.372
 2353POPC   C3A31961  25.620  34.719   8.066
 2353POPC   C4A31962  25.579  34.527   7.678
 2353POPC   C1B31963  24.877  34.256   8.705
 2353POPC   C2B31964  24.987  34.145   8.286
 2353POPC   C3B31965  25.036  34.254   7.851
 2353POPC   C4B31966  25.108  34.486   7.478
 2354POPC   NC331967  30.383   5.651   9.632
 2354POPC   PO431968  30.598   6.172   9.424
 2354POPC   GL131969  30.512   5.911   9.104
 2354POPC   GL231970  30.465   5.524   9.136
 2354POPC   C1A31971  30.733   6.070   8.751
 2354POPC   D2A31972  30.624   6.125   8.353
 2354POPC   C3A31973  30.940   6.048   8.072
 2354POPC   C4A31974  30.758   6.209   7.707
 2354POPC   C1B31975  30.534   5.613   8.683
 2354POPC   C2B31976  30.682   5.620   8.283
 2354POPC   C3B31977  30.499   5.805   7.946
 2354POPC   C4B31978  30.249   5.580   7.686
 2355POPC   NC331979  40.715   9.067   9.457
 2355POPC   PO431980  40.313   8.873   9.008
 2355POPC   GL131981  40.720   9.105   8.967
 2355POPC   GL231982  40.997   8.856   9.094
 2355POPC   C1A31983  41.087   9.209   8.733
 2355POPC   D2A31984  41.112   8.991   8.374
 2355POPC   C3A31985  41.182   9.197   8.030
 2355POPC   C4A31986  41.049   9.226   7.659
 2355POPC   C1B31987  40.869   8.703   8.721
 2355POPC   C2B31988  40.627   8.787   8.392
 2355POPC   C3B31989  40.759   8.907   8.023
 2355POPC   C4B31990  40.556   8.980   7.693
 2356POPC   NC331991   1.722  27.205   9.368
 2356POPC   PO431992   2.052  26.648   9.473
 2356POPC   GL131993   1.944  26.703   9.081
 2356POPC   GL231994   1.582  26.739   9.126
 2356POPC   C1A31995   1.864  26.948   8.726
 2356POPC   D2A31996   1.685  26.848   8.329
 2356POPC   C3A31997   2.062  26.899   8.096
 2356POPC   C4A31998   2.041  27.087   7.712
 2356POPC   C1B31999   1.599  26.518   8.738
 2356POPC   C2B32000   1.554  26.311   8.379
 2356POPC   C3B32001   1.435  26.453   7.988
 2356POPC   C4B32002   1.624  26.795   7.817
 2357POPC   NC332003  19.318   2.305   9.326
 2357POPC   PO432004  19.046   2.913   9.455
 2357POPC   GL132005  19.139   2.779   9.093
 2357POPC   GL232006  18.901   2.507   9.009
 2357POPC   C1A32007  18.993   2.918   8.710
 2357POPC   D2A32008  19.207   2.942   8.337
 2357POPC   C3A32009  18.967   2.968   7.984
 2357POPC   C4A32010  18.973   2.756   7.622
 2357POPC   C1B32011  19.227   2.462   8.698
 2357POPC   C2B32012  19.470   2.505   8.336
 2357POPC   C3B32013  19.243   2.459   7.966
 2357POPC   C4B32014  18.898   2.255   7.746
 2358POPC   NC332015  34.534   9.080   9.574
 2358POPC   PO432016  34.291   8.407   9.500
 2358POPC   GL132017  34.441   8.764   9.196
 2358POPC   GL232018  34.450   9.154   9.096
 2358POPC   C1A32019  34.488   8.762   8.768
 2358POPC   D2A32020  34.364   8.915   8.363
 2358POPC   C3A32021  34.685   9.001   8.075
 2358POPC   C4A32022  34.654   8.883   7.687
 2358POPC   C1B32023  34.315   9.290   8.721
 2358POPC   C2B32024  34.611   9.367   8.431
 2358POPC   C3B32025  34.682   9.506   8.053
 2358POPC   C4B32026  34.432   9.413   7.734
 2359POPC   NC332027  18.787   4.182   9.478
 2359POPC   PO432028  19.485   4.367   9.571
 2359POPC   GL132029  19.260   4.186   9.224
 2359POPC   GL232030  19.102   4.497   9.161
 2359POPC   C1A32031  19.118   4.139   8.788
 2359POPC   D2A32032  19.030   4.337   8.367
 2359POPC   C3A32033  18.950   4.306   7.913
 2359POPC   C4A32034  19.234   4.336   7.552
 2359POPC   C1B32035  18.835   4.587   8.789
 2359POPC   C2B32036  18.696   4.738   8.360
 2359POPC   C3B32037  18.869   4.804   7.941
 2359POPC   C4B32038  18.807   4.633   7.521
 2360POPC   NC332039  42.901  32.915   9.527
 2360POPC   PO432040  43.517  33.268   9.541
 2360POPC   GL132041  43.255  33.081   9.193
 2360POPC   GL232042  42.969  33.301   9.171
 2360POPC   C1A32043  43.292  32.858   8.777
 2360POPC   D2A32044  43.431  32.769   8.339
 2360POPC   C3A32045  43.128  32.720   7.981
 2360POPC   C4A32046  43.142  32.852   7.584
 2360POPC   C1B32047  42.958  33.234   8.744
 2360POPC   C2B32048  42.990  33.064   8.325
 2360POPC   C3B32049  43.098  33.257   7.921
 2360POPC   C4B32050  42.859  33.512   7.625
 2361POPC   NC332051  41.283  16.167   9.468
 2361POPC   PO432052  41.759  15.737   9.516
 2361POPC   GL132053  41.583  15.868   9.151
 2361POPC   GL232054  41.774  16.158   9.132
 2361POPC   C1A32055  41.423  16.084   8.784
 2361POPC   D2A32056  41.477  16.255   8.391
 2361POPC   C3A32057  41.417  15.941   8.057
 2361POPC   C4A32058  41.603  15.799   7.648
 2361POPC   C1B32059  41.968  16.196   8.758
 2361POPC   C2B32060  42.077  16.258   8.323
 2361POPC   C3B32061  41.796  16.245   7.956
 2361POPC   C4B32062  41.788  16.261   7.498
 2362POPC   NC332063  41.032  35.055   9.480
 2362POPC   PO432064  40.484  34.606   9.680
 2362POPC   GL132065  40.658  34.686   9.241
 2362POPC   GL232066  40.882  34.413   9.058
 2362POPC   C1A32067  40.675  34.813   8.815
 2362POPC   D2A32068  40.900  34.637   8.491
 2362POPC   C3A32069  40.890  34.770   8.090
 2362POPC   C4A32070  41.085  34.509   7.858
 2362POPC   C1B32071  40.456  34.330   8.920
 2362POPC   C2B32072  40.299  34.450   8.533
 2362POPC   C3B32073  40.530  34.393   8.169
 2362POPC   C4B32074  40.553  34.522   7.763
 2363POPC   NC332075  20.446  30.093   9.305
 2363POPC   PO432076  20.833  29.582   9.411
 2363POPC   GL132077  20.619  29.674   9.039
 2363POPC   GL232078  20.847  29.964   8.998
 2363POPC   C1A32079  20.300  29.771   8.707
 2363POPC   D2A32080  20.219  30.014   8.321
 2363POPC   C3A32081  20.501  29.975   7.959
 2363POPC   C4A32082  20.469  29.600   7.720
 2363POPC   C1B32083  21.147  29.928   8.640
 2363POPC   C2B32084  21.022  29.960   8.209
 2363POPC   C3B32085  20.949  29.682   7.848
 2363POPC   C4B32086  21.128  29.658   7.437
 2364POPC   NC332087   0.831   4.558   9.648
 2364POPC   PO432088   0.382   4.104   9.771
 2364POPC   GL132089   0.207   4.168   9.322
 2364POPC   GL232090   0.467   4.417   9.221
 2364POPC   C1A32091   0.149   4.198   8.854
 2364POPC   D2A32092   0.366   4.030   8.461
 2364POPC   C3A32093   0.236   3.960   8.031
 2364POPC   C4A32094   0.306   4.293   7.728
 2364POPC   C1B32095   0.625   4.475   8.787
 2364POPC   C2B32096   0.681   4.426   8.331
 2364POPC   C3B32097   0.887   4.518   7.950
 2364POPC   C4B32098   0.833   4.335   7.515
 2365POPC   NC332099  28.561   5.995   9.507
 2365POPC   PO432100  28.099   5.557   9.425
 2365POPC   GL132101  28.212   5.865   9.117
 2365POPC   GL232102  28.564   5.813   9.036
 2365POPC   C1A32103  28.224   5.813   8.671
 2365POPC   D2A32104  28.460   5.754   8.330
 2365POPC   C3A32105  28.237   5.649   7.924
 2365POPC   C4A32106  28.169   5.601   7.435
 2365POPC   C1B32107  28.553   6.186   8.761
 2365POPC   C2B32108  28.688   6.234   8.327
 2365POPC   C3B32109  28.516   6.101   7.963
 2365POPC   C4B32110  28.579   5.841   7.592
 2366POPC   NC332111  44.485   0.923   9.560
 2366POPC   PO432112  44.864   1.476   9.381
 2366POPC   GL132113  44.647   1.333   9.084
 2366POPC   GL232114  44.699   0.978   9.087
 2366POPC   C1A32115  44.818   1.334   8.681
 2366POPC   D2A32116  44.778   1.575   8.327
 2366POPC   C3A32117  44.852   1.364   7.920
 2366POPC   C4A32118  44.902   0.952   7.679
 2366POPC   C1B32119  44.397   1.057   8.731
 2366POPC   C2B32120  44.489   1.105   8.272
 2366POPC   C3B32121  44.430   1.103   7.811
 2366POPC   C4B32122  44.448   0.970   7.343
 2367POPC   NC332123   2.246   7.229   9.574
 2367POPC   PO432124   1.580   7.510   9.449
 2367POPC   GL132125   1.727   7.254   9.104
 2367POPC   GL232126   2.064   7.119   9.125
 2367POPC   C1A32127   1.768   7.457   8.687
 2367POPC   D2A32128   1.978   7.609   8.277
 2367POPC   C3A32129   1.735   7.408   7.914
 2367POPC   C4A32130   1.665   7.363   7.435
 2367POPC   C1B32131   2.196   7.201   8.749
 2367POPC   C2B32132   2.036   7.120   8.371
 2367POPC   C3B32133   2.209   7.233   7.968
 2367POPC   C4B32134   2.013   7.061   7.656
 2368POPC   NC332135  14.892  44.778   9.791
 2368POPC   PO432136  15.394  44.329   9.616
 2368POPC   GL132137  15.112  44.421   9.212
 2368POPC   GL232138  15.061  44.761   9.226
 2368POPC   C1A32139  15.102  44.575   8.750
 2368POPC   D2A32140  15.282  44.556   8.334
 2368POPC   C3A32141  15.056  44.621   7.959
 2368POPC   C4A32142  15.082  44.331   7.596
 2368POPC   C1B32143  15.447  44.863   8.995
 2368POPC   C2B32144  15.572  44.874   8.585
 2368POPC   C3B32145  15.643  44.854   8.152
 2368POPC   C4B32146  15.411   0.077   7.839
 2369POPC   NC332147  17.817  30.575   9.563
 2369POPC   PO432148  17.549  29.988   9.482
 2369POPC   GL132149  17.645  29.891   9.101
 2369POPC   GL232150  17.689  29.536   9.131
 2369POPC   C1A32151  17.519  30.144   8.780
 2369POPC   D2A32152  17.501  30.060   8.378
 2369POPC   C3A32153  17.398  30.254   8.014
 2369POPC   C4A32154  17.352  30.198   7.554
 2369POPC   C1B32155  17.401  29.454   8.839
 2369POPC   C2B32156  17.424  29.551   8.444
 2369POPC   C3B32157  17.465  29.699   8.028
 2369POPC   C4B32158  17.314  29.572   7.633
 2370POPC   NC332159  14.974  28.943   9.679
 2370POPC   PO432160  15.240  29.551   9.584
 2370POPC   GL132161  15.272  29.243   9.197
 2370POPC   GL232162  15.354  28.858   9.232
 2370POPC   C1A32163  15.218  29.389   8.741
 2370POPC   D2A32164  15.010  29.360   8.342
 2370POPC   C3A32165  15.179  29.171   8.007
 2370POPC   C4A32166  15.223  29.113   7.581
 2370POPC   C1B32167  15.450  28.927   8.810
 2370POPC   C2B32168  15.229  28.883   8.445
 2370POPC   C3B32169  15.375  28.721   8.084
 2370POPC   C4B32170  15.333  28.604   7.663
 2371POPC   NC332171  43.655  11.478   9.405
 2371POPC   PO432172  43.161  10.986   9.603
 2371POPC   GL132173  43.099  11.009   9.202
 2371POPC   GL232174  43.083  11.369   9.186
 2371POPC   C1A32175  42.916  11.096   8.800
 2371POPC   D2A32176  43.074  11.342   8.457
 2371POPC   C3A32177  42.970  11.192   8.063
 2371POPC   C4A32178  42.771  11.313   7.700
 2371POPC   C1B32179  43.393  11.275   8.860
 2371POPC   C2B32180  43.589  11.417   8.490
 2371POPC   C3B32181  43.456  11.338   8.065
 2371POPC   C4B32182  43.270  11.417   7.685
 2372POPC   NC332183  20.752  11.818   9.444
 2372POPC   PO432184  20.633  12.520   9.526
 2372POPC   GL132185  20.525  12.237   9.200
 2372POPC   GL232186  20.843  12.228   9.065
 2372POPC   C1A32187  20.422  12.036   8.794
 2372POPC   D2A32188  20.263  12.044   8.372
 2372POPC   C3A32189  20.353  11.788   8.019
 2372POPC   C4A32190  20.435  12.078   7.692
 2372POPC   C1B32191  20.922  11.897   8.753
 2372POPC   C2B32192  20.757  11.837   8.339
 2372POPC   C3B32193  20.842  11.873   7.900
 2372POPC   C4B32194  21.101  11.719   7.639
 2373POPC   NC332195  17.700  12.785   9.624
 2373POPC   PO432196  17.133  12.890   9.705
 2373POPC   GL132197  17.422  12.994   9.275
 2373POPC   GL232198  17.602  12.664   9.141
 2373POPC   C1A32199  17.654  13.049   8.855
 2373POPC   D2A32200  17.493  12.705   8.567
 2373POPC   C3A32201  17.585  12.678   8.126
 2373POPC   C4A32202  17.521  12.895   7.764
 2373POPC   C1B32203  17.908  12.563   8.829
 2373POPC   C2B32204  17.946  12.347   8.397
 2373POPC   C3B32205  18.024  12.454   7.964
 2373POPC   C4B32206  17.735  12.425   7.639
 2374POPC   NC332207  15.004  40.362   9.317
 2374POPC   PO432208  15.291  40.983   9.490
 2374POPC   GL132209  15.105  40.875   9.124
 2374POPC   GL232210  15.343  40.634   9.034
 2374POPC   C1A32211  15.125  40.904   8.670
 2374POPC   D2A32212  14.933  40.855   8.273
 2374POPC   C3A32213  15.126  41.110   7.970
 2374POPC   C4A32214  15.205  40.973   7.573
 2374POPC   C1B32215  15.579  40.642   8.675
 2374POPC   C2B32216  15.470  40.843   8.284
 2374POPC   C3B32217  15.440  40.670   7.891
 2374POPC   C4B32218  15.611  40.630   7.486
 2375POPC   NC332219  20.034  24.743   9.427
 2375POPC   PO432220  19.568  24.168   9.500
 2375POPC   GL132221  19.661  24.468   9.204
 2375POPC   GL232222  19.982  24.425   9.030
 2375POPC   C1A32223  19.559  24.616   8.821
 2375POPC   D2A32224  19.459  24.469   8.455
 2375POPC   C3A32225  19.670  24.286   8.112
 2375POPC   C4A32226  19.894  24.518   7.774
 2375POPC   C1B32227  20.039  24.762   8.718
 2375POPC   C2B32228  19.934  24.701   8.277
 2375POPC   C3B32229  20.041  24.981   7.969
 2375POPC   C4B32230  20.165  24.948   7.532
 2376POPC   NC332231  11.087   0.348   9.669
 2376POPC   PO432232  11.551   0.850   9.506
 2376POPC   GL132233  11.626   0.647   9.135
 2376POPC   GL232234  11.356   0.376   9.097
 2376POPC   C1A32235  11.503   0.734   8.716
 2376POPC   D2A32236  11.364   0.364   8.503
 2376POPC   C3A32237  11.380   0.307   8.063
 2376POPC   C4A32238  11.422   0.623   7.765
 2376POPC   C1B32239  10.973   0.407   8.838
 2376POPC   C2B32240  10.848   0.362   8.401
 2376POPC   C3B32241  10.899   0.473   7.957
 2376POPC   C4B32242  11.101   0.254   7.612
 2377POPC   NC332243  44.419  21.446   9.632
 2377POPC   PO432244  44.965  21.146   9.813
 2377POPC   GL132245  44.843  21.434   9.381
 2377POPC   GL232246  44.539  21.207   9.202
 2377POPC   C1A32247  44.884  21.642   8.887
 2377POPC   D2A32248  44.661  21.697   8.442
 2377POPC   C3A32249  44.764  21.625   7.993
 2377POPC   C4A32250  44.808  21.224   7.745
 2377POPC   C1B32251  44.494  21.334   8.791
 2377POPC   C2B32252  44.255  21.367   8.451
 2377POPC   C3B32253  44.344  21.368   8.039
 2377POPC   C4B32254  44.087  21.453   7.701
 2378POPC   NC332255  20.184  12.410   9.591
 2378POPC   PO432256  19.669  12.775   9.594
 2378POPC   GL132257  19.977  12.906   9.244
 2378POPC   GL232258  20.234  12.668   9.169
 2378POPC   C1A32259  20.096  12.936   8.767
 2378POPC   D2A32260  19.830  12.719   8.425
 2378POPC   C3A32261  19.942  12.935   8.032
 2378POPC   C4A32262  19.939  12.962   7.570
 2378POPC   C1B32263  20.097  12.430   8.781
 2378POPC   C2B32264  20.296  12.542   8.387
 2378POPC   C3B32265  20.178  12.453   7.988
 2378POPC   C4B32266  20.122  12.453   7.558
 2379POPC   NC332267  28.446  18.168   9.567
 2379POPC   PO432268  27.965  18.546   9.440
 2379POPC   GL132269  28.243  18.375   9.153
 2379POPC   GL232270  28.182  18.008   9.135
 2379POPC   C1A32271  28.467  18.287   8.785
 2379POPC   D2A32272  28.622  18.513   8.450
 2379POPC   C3A32273  28.545  18.273   8.132
 2379POPC   C4A32274  28.486  18.365   7.714
 2379POPC   C1B32275  27.946  18.184   8.804
 2379POPC   C2B32276  28.072  18.369   8.428
 2379POPC   C3B32277  28.066  18.142   8.066
 2379POPC   C4B32278  28.001  18.128   7.672
 2380POPC   NC332279  41.728  34.295   9.399
 2380POPC   PO432280  41.094  34.583   9.487
 2380POPC   GL132281  41.377  34.601   9.157
 2380POPC   GL232282  41.472  34.944   9.192
 2380POPC   C1A32283  41.507  34.538   8.719
 2380POPC   D2A32284  41.353  34.408   8.302
 2380POPC   C3A32285  41.620  34.507   7.935
 2380POPC   C4A32286  41.902  34.199   7.735
 2380POPC   C1B32287  41.198  34.932   8.804
 2380POPC   C2B32288  41.353  34.925   8.342
 2380POPC   C3B32289  41.337  34.950   7.876
 2380POPC   C4B32290  41.496  34.746   7.476
 2381POPC   NC332291  44.705   6.483   9.550
 2381POPC   PO432292  44.522   7.104   9.362
 2381POPC   GL132293  44.774   6.779   9.140
 2381POPC   GL232294  44.474   6.553   9.111
 2381POPC   C1A32295  44.837   6.665   8.708
 2381POPC   D2A32296  44.683   6.962   8.391
 2381POPC   C3A32297  44.584   6.824   7.986
 2381POPC   C4A32298  44.808   6.685   7.641
 2381POPC   C1B32299  44.305   6.386   8.753
 2381POPC   C2B32300  44.426   6.501   8.333
 2381POPC   C3B32301  44.439   6.319   7.900
 2381POPC   C4B32302  44.557   6.321   7.430
 2382POPC   NC332303  40.251  26.730   9.257
 2382POPC   PO432304  39.659  27.075   9.422
 2382POPC   GL132305  39.868  27.032   9.067
 2382POPC   GL232306  40.157  27.230   9.050
 2382POPC   C1A32307  39.854  26.768   8.722
 2382POPC   D2A32308  39.856  26.854   8.303
 2382POPC   C3A32309  40.165  26.682   8.061
 2382POPC   C4A32310  40.138  26.479   7.664
 2382POPC   C1B32311  40.286  27.038   8.623
 2382POPC   C2B32312  40.380  27.142   8.208
 2382POPC   C3B32313  40.366  27.398   7.847
 2382POPC   C4B32314  40.018  27.311   7.519
 2383POPC   NC332315  11.363   2.733   9.469
 2383POPC   PO432316  10.912   3.138   9.071
 2383POPC   GL132317  11.159   2.841   8.964
 2383POPC   GL232318  11.487   2.925   8.995
 2383POPC   C1A32319  11.198   2.866   8.528
 2383POPC   D2A32320  11.048   2.673   8.186
 2383POPC   C3A32321  11.100   3.008   7.896
 2383POPC   C4A32322  11.211   2.939   7.451
 2383POPC   C1B32323  11.480   2.514   8.723
 2383POPC   C2B32324  11.540   2.545   8.282
 2383POPC   C3B32325  11.438   2.614   7.840
 2383POPC   C4B32326  11.628   2.682   7.440
 2384POPC   NC332327  31.295   4.145   9.333
 2384POPC   PO432328  30.739   4.380   9.661
 2384POPC   GL132329  30.821   4.345   9.214
 2384POPC   GL232330  31.071   4.611   9.225
 2384POPC   C1A32331  30.554   4.329   8.813
 2384POPC   D2A32332  30.490   4.011   8.498
 2384POPC   C3A32333  30.515   4.218   8.118
 2384POPC   C4A32334  30.643   4.230   7.715
 2384POPC   C1B32335  30.961   4.641   8.771
 2384POPC   C2B32336  30.886   4.496   8.336
 2384POPC   C3B32337  30.786   4.700   7.903
 2384POPC   C4B32338  30.805   4.639   7.425
 2385POPC   NC332339  14.189  23.886   9.475
 2385POPC   PO432340  13.620  23.853   9.608
 2385POPC   GL132341  13.606  23.705   9.138
 2385POPC   GL232342  13.914  23.581   9.114
 2385POPC   C1A32343  13.687  23.484   8.664
 2385POPC   D2A32344  13.563  23.630   8.257
 2385POPC   C3A32345  13.620  23.619   7.822
 2385POPC   C4A32346  13.177  23.690   7.754
 2385POPC   C1B32347  14.022  23.846   8.796
 2385POPC   C2B32348  13.920  23.994   8.370
 2385POPC   C3B32349  14.107  24.188   8.005
 2385POPC   C4B32350  14.030  24.033   7.608
 2386POPC   NC332351  36.407  15.515   9.551
 2386POPC   PO432352  35.985  14.964   9.473
 2386POPC   GL132353  36.190  15.129   9.143
 2386POPC   GL232354  36.079  15.453   9.146
 2386POPC   C1A32355  36.024  15.191   8.703
 2386POPC   D2A32356  36.184  15.134   8.289
 2386POPC   C3A32357  35.942  15.303   7.951
 2386POPC   C4A32358  36.095  15.270   7.534
 2386POPC   C1B32359  36.449  15.431   8.841
 2386POPC   C2B32360  36.546  15.531   8.391
 2386POPC   C3B32361  36.416  15.577   7.942
 2386POPC   C4B32362  36.372  15.704   7.505
 2387POPC   NC332363   5.477  15.022   9.578
 2387POPC   PO432364   4.950  15.419   9.655
 2387POPC   GL132365   5.193  15.321   9.277
 2387POPC   GL232366   5.164  14.965   9.191
 2387POPC   C1A32367   5.233  15.383   8.874
 2387POPC   D2A32368   4.896  15.484   8.611
 2387POPC   C3A32369   4.899  15.352   8.211
 2387POPC   C4A32370   5.012  15.338   7.799
 2387POPC   C1B32371   4.840  15.043   8.899
 2387POPC   C2B32372   4.809  14.904   8.475
 2387POPC   C3B32373   5.029  14.859   8.086
 2387POPC   C4B32374   4.890  14.863   7.677
 2388POPC   NC332375  23.752  19.096   9.449
 2388POPC   PO432376  23.335  18.559   9.383
 2388POPC   GL132377  23.581  18.845   9.038
 2388POPC   GL232378  23.712  19.243   8.985
 2388POPC   C1A32379  23.533  18.936   8.583
 2388POPC   D2A32380  23.557  19.297   8.275
 2388POPC   C3A32381  23.578  19.162   7.849
 2388POPC   C4A32382  23.483  18.721   7.754
 2388POPC   C1B32383  23.960  19.218   8.650
 2388POPC   C2B32384  24.074  18.893   8.347
 2388POPC   C3B32385  23.990  18.859   7.915
 2388POPC   C4B32386  24.084  19.227   7.742
 2389POPC   NC332387  10.962  27.944   9.569
 2389POPC   PO432388  11.299  28.582   9.437
 2389POPC   GL132389  11.258  28.319   9.097
 2389POPC   GL232390  10.924  28.246   9.133
 2389POPC   C1A32391  11.459  28.266   8.679
 2389POPC   D2A32392  11.610  28.425   8.247
 2389POPC   C3A32393  11.425  28.192   7.903
 2389POPC   C4A32394  11.614  28.107   7.468
 2389POPC   C1B32395  10.930  28.301   8.674
 2389POPC   C2B32396  11.087  28.484   8.279
 2389POPC   C3B32397  10.971  28.453   7.859
 2389POPC   C4B32398  11.003  28.048   7.660
 2390POPC   NC332399   2.895   5.896   9.692
 2390POPC   PO432400   2.661   5.219   9.619
 2390POPC   GL132401   2.592   5.542   9.203
 2390POPC   GL232402   2.687   5.924   9.146
 2390POPC   C1A32403   2.781   5.598   8.747
 2390POPC   D2A32404   3.038   5.776   8.385
 2390POPC   C3A32405   2.772   6.011   8.132
 2390POPC   C4A32406   2.607   5.968   7.729
 2390POPC   C1B32407   2.846   6.105   8.734
 2390POPC   C2B32408   3.153   6.285   8.440
 2390POPC   C3B32409   3.265   6.155   8.035
 2390POPC   C4B32410   3.112   5.882   7.747
 2391POPC   NC332411  16.623  28.014   9.485
 2391POPC   PO432412  16.439  27.334   9.531
 2391POPC   GL132413  16.472  27.598   9.229
 2391POPC   GL232414  16.833  27.652   9.173
 2391POPC   C1A32415  16.474  27.608   8.802
 2391POPC   D2A32416  16.703  27.692   8.443
 2391POPC   C3A32417  16.490  27.657   8.076
 2391POPC   C4A32418  16.515  27.347   7.818
 2391POPC   C1B32419  16.965  27.957   8.851
 2391POPC   C2B32420  17.002  28.146   8.431
 2391POPC   C3B32421  16.918  27.944   8.052
 2391POPC   C4B32422  16.985  27.535   7.846
 2392POPC   NC332423   8.553   2.545   9.398
 2392POPC   PO432424   8.383   3.172   9.460
 2392POPC   GL132425   8.052   3.059   9.141
 2392POPC   GL232426   8.037   2.693   9.178
 2392POPC   C1A32427   8.084   2.951   8.721
 2392POPC   D2A32428   8.157   2.963   8.310
 2392POPC   C3A32429   8.498   2.858   8.126
 2392POPC   C4A32430   8.321   2.666   7.775
 2392POPC   C1B32431   8.097   2.430   8.799
 2392POPC   C2B32432   8.257   2.439   8.367
 2392POPC   C3B32433   7.975   2.381   8.042
 2392POPC   C4B32434   7.831   2.516   7.681
 2393POPC   NC332435  44.324   1.625   9.401
 2393POPC   PO432436  44.618   2.186   9.526
 2393POPC   GL132437  44.662   1.952   9.127
 2393POPC   GL232438  44.356   2.039   9.007
 2393POPC   C1A32439  44.787   2.031   8.686
 2393POPC   D2A32440  44.543   2.057   8.312
 2393POPC   C3A32441  44.771   1.925   7.963
 2393POPC   C4A32442  44.855   1.780   7.550
 2393POPC   C1B32443  44.426   1.677   8.711
 2393POPC   C2B32444  44.279   1.576   8.270
 2393POPC   C3B32445  44.380   1.619   7.799
 2393POPC   C4B32446  44.336   1.743   7.332
 2394POPC   NC332447   1.444  28.949   9.540
 2394POPC   PO432448   1.257  29.575   9.503
 2394POPC   GL132449   1.272  29.334   9.098
 2394POPC   GL232450   1.273  28.934   9.063
 2394POPC   C1A32451   1.096  29.216   8.680
 2394POPC   D2A32452   1.237  29.119   8.277
 2394POPC   C3A32453   1.019  29.172   7.910
 2394POPC   C4A32454   1.093  29.298   7.451
 2394POPC   C1B32455   1.499  28.888   8.663
 2394POPC   C2B32456   1.444  28.661   8.268
 2394POPC   C3B32457   1.371  28.780   7.816
 2394POPC   C4B32458   1.286  28.817   7.362
 2395POPC   NC332459  41.347   9.629   9.457
 2395POPC   PO432460  42.003   9.778   9.437
 2395POPC   GL132461  41.694   9.820   9.103
 2395POPC   GL232462  41.573  10.111   9.301
 2395POPC   C1A32463  41.361   9.668   8.761
 2395POPC   D2A32464  41.163   9.613   8.324
 2395POPC   C3A32465  41.536   9.555   7.993
 2395POPC   C4A32466  41.948   9.442   7.801
 2395POPC   C1B32467  41.358  10.170   8.908
 2395POPC   C2B32468  41.227  10.117   8.482
 2395POPC   C3B32469  41.318  10.028   8.061
 2395POPC   C4B32470  41.572   9.937   7.650
 2396POPC   NC332471  21.258  35.580   9.560
 2396POPC   PO432472  21.466  35.034   9.563
 2396POPC   GL132473  21.194  35.193   9.218
 2396POPC   GL232474  21.236  35.547   9.062
 2396POPC   C1A32475  21.120  35.119   8.790
 2396POPC   D2A32476  21.017  35.186   8.372
 2396POPC   C3A32477  21.313  35.045   8.082
 2396POPC   C4A32478  21.265  35.218   7.676
 2396POPC   C1B32479  21.237  35.584   8.644
 2396POPC   C2B32480  21.524  35.362   8.420
 2396POPC   C3B32481  21.605  35.482   7.983
 2396POPC   C4B32482  21.396  35.708   7.620
 2397POPC   NC332483   2.805  39.946   9.613
 2397POPC   PO432484   3.457  40.233   9.611
 2397POPC   GL132485   3.046  40.219   9.264
 2397POPC   GL232486   2.818  39.886   9.124
 2397POPC   C1A32487   2.897  40.264   8.811
 2397POPC   D2A32488   2.573  40.050   8.523
 2397POPC   C3A32489   2.636  40.080   8.058
 2397POPC   C4A32490   2.988  40.001   7.770
 2397POPC   C1B32491   2.555  39.635   8.843
 2397POPC   C2B32492   2.665  39.489   8.443
 2397POPC   C3B32493   2.559  39.575   8.059
 2397POPC   C4B32494   2.576  39.734   7.676
 2398POPC   NC332495  35.978   5.478   9.484
 2398POPC   PO432496  35.911   6.265   9.520
 2398POPC   GL132497  35.899   5.938   9.185
 2398POPC   GL232498  36.088   5.635   9.007
 2398POPC   C1A32499  35.780   5.974   8.764
 2398POPC   D2A32500  35.927   5.739   8.370
 2398POPC   C3A32501  35.875   5.950   7.958
 2398POPC   C4A32502  36.142   6.131   7.626
 2398POPC   C1B32503  36.424   5.499   8.697
 2398POPC   C2B32504  36.528   5.551   8.250
 2398POPC   C3B32505  36.228   5.544   7.871
 2398POPC   C4B32506  36.010   5.655   7.483
 2399POPC   NC332507  41.043   8.134   9.600
 2399POPC   PO432508  40.512   8.546   9.507
 2399POPC   GL132509  40.742   8.401   9.100
 2399POPC   GL232510  40.962   8.103   9.100
 2399POPC   C1A32511  40.764   8.215   8.658
 2399POPC   D2A32512  41.030   8.421   8.342
 2399POPC   C3A32513  40.828   8.405   7.972
 2399POPC   C4A32514  40.518   8.142   7.792
 2399POPC   C1B32515  41.046   7.776   8.779
 2399POPC   C2B32516  41.065   7.904   8.352
 2399POPC   C3B32517  40.919   7.863   7.945
 2399POPC   C4B32518  41.169   7.779   7.636
 2400POPC   NC332519  44.441  27.190   9.722
 2400POPC   PO432520  44.807  26.721   9.517
 2400POPC   GL132521  44.622  26.905   9.154
 2400POPC   GL232522  44.775  26.752   8.877
 2400POPC   C1A32523  44.369  27.027   8.772
 2400POPC   D2A32524  44.430  26.817   8.375
 2400POPC   C3A32525  44.782  26.817   8.107
 2400POPC   C4A32526  44.536  26.963   7.801
 2400POPC   C1B32527  44.410  26.474   8.752
 2400POPC   C2B32528  44.208  26.356   8.315
 2400POPC   C3B32529  44.416  26.471   7.883
 2400POPC   C4B32530  44.608  26.617   7.445
 2401POPC   NC332531  44.900  42.077   9.473
 2401POPC   PO432532  44.445  42.590   9.484
 2401POPC   GL132533  44.647  42.337   9.112
 2401POPC   GL232534  44.980  42.131   8.981
 2401POPC   C1A32535  44.498  42.129   8.745
 2401POPC   D2A32536  44.731  41.946   8.461
 2401POPC   C3A32537  44.804  42.213   8.127
 2401POPC   C4A32538  44.590  42.231   7.739
 2401POPC   C1B32539  44.924  42.418   8.651
 2401POPC   C2B32540  44.608  42.634   8.408
 2401POPC   C3B32541  44.641  42.713   7.959
 2401POPC   C4B32542   0.029  42.561   7.801
 2402POPC   NC332543  39.249  35.791   9.579
 2402POPC   PO432544  39.529  36.379   9.560
 2402POPC   GL132545  39.293  36.299   9.188
 2402POPC   GL232546  39.351  35.946   9.124
 2402POPC   C1A32547  39.161  36.458   8.779
 2402POPC   D2A32548  39.039  36.258   8.358
 2402POPC   C3A32549  39.160  36.399   7.964
 2402POPC   C4A32550  39.067  36.237   7.541
 2402POPC   C1B32551  39.174  35.943   8.744
 2402POPC   C2B32552  39.272  35.801   8.338
 2402POPC   C3B32553  39.162  35.862   7.886
 2402POPC   C4B32554  39.418  35.862   7.490
 2403POPC   NC332555  25.764   3.663   9.574
 2403POPC   PO432556  25.146   3.331   9.545
 2403POPC   GL132557  25.314   3.485   9.209
 2403POPC   GL232558  25.335   3.805   9.269
 2403POPC   C1A32559  25.168   3.383   8.801
 2403POPC   D2A32560  25.341   3.182   8.456
 2403POPC   C3A32561  25.350   3.464   8.157
 2403POPC   C4A32562  25.294   3.426   7.744
 2403POPC   C1B32563  24.996   3.857   8.914
 2403POPC   C2B32564  24.931   3.832   8.450
 2403POPC   C3B32565  24.917   3.693   8.015
 2403POPC   C4B32566  25.039   3.889   7.657
 2404POPC   NC332567  24.498  11.764   9.620
 2404POPC   PO432568  24.116  12.280   9.750
 2404POPC   GL132569  24.251  12.136   9.289
 2404POPC   GL232570  24.587  12.235   9.144
 2404POPC   C1A32571  24.183  12.036   8.837
 2404POPC   D2A32572  24.139  12.149   8.403
 2404POPC   C3A32573  24.266  11.898   8.039
 2404POPC   C4A32574  24.438  12.122   7.683
 2404POPC   C1B32575  24.683  12.056   8.730
 2404POPC   C2B32576  24.653  12.130   8.275
 2404POPC   C3B32577  24.819  11.863   7.931
 2404POPC   C4B32578  24.869  11.947   7.482
 2405POPC   NC332579   7.639  14.500   9.637
 2405POPC   PO432580   7.884  15.017   9.314
 2405POPC   GL132581   7.562  14.691   9.155
 2405POPC   GL232582   7.537  14.322   9.136
 2405POPC   C1A32583   7.455  14.564   8.726
 2405POPC   D2A32584   7.679  14.662   8.401
 2405POPC   C3A32585   7.543  14.482   8.112
 2405POPC   C4A32586   7.605  14.538   7.755
 2405POPC   C1B32587   7.328  14.063   8.768
 2405POPC   C2B32588   7.425  14.018   8.306
 2405POPC   C3B32589   7.388  14.073   7.840
 2405POPC   C4B32590   7.668  14.145   7.438
 2406POPC   NC332591  38.699  16.068   9.583
 2406POPC   PO432592  39.375  15.921   9.574
 2406POPC   GL132593  39.251  15.825   9.138
 2406POPC   GL232594  38.994  15.544   9.130
 2406POPC   C1A32595  39.261  15.981   8.756
 2406POPC   D2A32596  39.006  16.091   8.456
 2406POPC   C3A32597  39.239  16.392   8.215
 2406POPC   C4A32598  39.342  16.406   7.783
 2406POPC   C1B32599  39.041  15.517   8.671
 2406POPC   C2B32600  39.200  15.652   8.267
 2406POPC   C3B32601  39.189  15.911   7.886
 2406POPC   C4B32602  39.342  15.768   7.472
 2407POPC   NC332603  14.513  37.247   9.495
 2407POPC   PO432604  14.784  37.828   9.576
 2407POPC   GL132605  14.479  37.799   9.232
 2407POPC   GL232606  14.205  37.547   9.205
 2407POPC   C1A32607  14.287  37.876   8.815
 2407POPC   D2A32608  14.277  37.658   8.413
 2407POPC   C3A32609  14.103  37.705   8.063
 2407POPC   C4A32610  14.251  37.817   7.690
 2407POPC   C1B32611  14.157  37.354   8.778
 2407POPC   C2B32612  14.283  37.141   8.347
 2407POPC   C3B32613  14.134  37.211   7.884
 2407POPC   C4B32614  14.041  37.443   7.431
 2408POPC   NC332615  37.529  44.964   9.442
 2408POPC   PO432616  37.890  44.473   9.703
 2408POPC   GL132617  37.665  44.459   9.315
 2408POPC   GL232618  37.927  44.686   9.217
 2408POPC   C1A32619  37.620  44.494   8.851
 2408POPC   D2A32620  37.924  44.584   8.476
 2408POPC   C3A32621  37.900  44.519   8.036
 2408POPC   C4A32622  37.709  44.705   7.679
 2408POPC   C1B32623  38.092  44.875   8.866
 2408POPC   C2B32624  38.175   0.038   8.454
 2408POPC   C3B32625  38.018   0.012   8.052
 2408POPC   C4B32626  38.183  44.892   7.689
 2409POPC   NC332627   7.573   4.288   9.556
 2409POPC   PO432628   6.898   4.174   9.574
 2409POPC   GL132629   7.165   4.292   9.170
 2409POPC   GL232630   7.506   4.355   9.073
 2409POPC   C1A32631   7.189   4.398   8.701
 2409POPC   D2A32632   7.367   4.174   8.355
 2409POPC   C3A32633   7.248   4.332   7.965
 2409POPC   C4A32634   7.377   4.249   7.535
 2409POPC   C1B32635   7.647   4.639   8.743
 2409POPC   C2B32636   7.526   4.665   8.299
 2409POPC   C3B32637   7.658   4.599   7.865
 2409POPC   C4B32638   7.732   4.637   7.416
 2410POPC   NC332639  26.551  39.424   9.519
 2410POPC   PO432640  27.017  39.031   9.396
 2410POPC   GL132641  26.941  39.394   9.134
 2410POPC   GL232642  26.608  39.290   9.046
 2410POPC   C1A32643  26.925  39.453   8.682
 2410POPC   D2A32644  26.919  39.047   8.456
 2410POPC   C3A32645  27.000  39.135   8.031
 2410POPC   C4A32646  26.843  39.062   7.648
 2410POPC   C1B32647  26.431  39.320   8.677
 2410POPC   C2B32648  26.553  39.374   8.314
 2410POPC   C3B32649  26.480  39.135   8.004
 2410POPC   C4B32650  26.414  39.302   7.621
 2411POPC   NC332651  39.627   7.722   9.376
 2411POPC   PO432652  39.740   7.057   9.404
 2411POPC   GL132653  40.009   7.096   9.032
 2411POPC   GL232654  40.169   7.463   9.009
 2411POPC   C1A32655  39.984   7.199   8.614
 2411POPC   D2A32656  40.136   7.560   8.354
 2411POPC   C3A32657  39.948   7.521   7.944
 2411POPC   C4A32658  40.016   7.132   7.725
 2411POPC   C1B32659  40.475   7.708   8.710
 2411POPC   C2B32660  40.651   7.574   8.294
 2411POPC   C3B32661  40.448   7.642   7.869
 2411POPC   C4B32662  40.349   7.480   7.443
 2412POPC   NC332663   4.561  36.465   9.368
 2412POPC   PO432664   4.342  35.835   9.549
 2412POPC   GL132665   4.305  36.074   9.190
 2412POPC   GL232666   3.939  36.108   9.216
 2412POPC   C1A32667   4.181  36.254   8.799
 2412POPC   D2A32668   4.153  36.030   8.449
 2412POPC   C3A32669   4.229  36.131   7.990
 2412POPC   C4A32670   4.506  35.931   7.664
 2412POPC   C1B32671   4.033  35.743   8.929
 2412POPC   C2B32672   3.820  35.628   8.576
 2412POPC   C3B32673   3.966  35.673   8.159
 2412POPC   C4B32674   3.864  35.840   7.783
 2413POPC   NC332675  40.926  14.896   9.744
 2413POPC   PO432676  40.565  15.298   9.461
 2413POPC   GL132677  40.693  14.976   9.199
 2413POPC   GL232678  40.984  15.196   9.123
 2413POPC   C1A32679  40.790  14.951   8.749
 2413POPC   D2A32680  41.024  15.219   8.477
 2413POPC   C3A32681  40.739  15.149   8.156
 2413POPC   C4A32682  40.702  15.073   7.732
 2413POPC   C1B32683  40.663  15.452   8.814
 2413POPC   C2B32684  40.526  15.582   8.376
 2413POPC   C3B32685  40.544  15.544   7.888
 2413POPC   C4B32686  40.720  15.513   7.456
 2414POPC   NC332687  40.205  44.086   9.678
 2414POPC   PO432688  39.796  43.704   9.503
 2414POPC   GL132689  39.979  43.621   9.122
 2414POPC   GL232690  40.118  43.927   9.115
 2414POPC   C1A32691  39.998  43.735   8.660
 2414POPC   D2A32692  39.772  43.764   8.242
 2414POPC   C3A32693  39.893  43.633   7.838
 2414POPC   C4A32694  40.030  43.619   7.391
 2414POPC   C1B32695  40.362  44.072   8.735
 2414POPC   C2B32696  40.195  44.131   8.344
 2414POPC   C3B32697  40.260  43.982   7.968
 2414POPC   C4B32698  40.135  44.063   7.613
 2415POPC   NC332699  14.151  16.711   9.544
 2415POPC   PO432700  14.677  17.170   9.554
 2415POPC   GL132701  14.574  16.869   9.205
 2415POPC   GL232702  14.484  16.523   9.187
 2415POPC   C1A32703  14.395  16.848   8.786
 2415POPC   D2A32704  14.532  16.998   8.395
 2415POPC   C3A32705  14.322  16.847   8.056
 2415POPC   C4A32706  14.397  16.743   7.660
 2415POPC   C1B32707  14.266  16.353   8.813
 2415POPC   C2B32708  14.152  16.436   8.353
 2415POPC   C3B32709  14.091  16.408   7.889
 2415POPC   C4B32710  14.390  16.252   7.570
 2416POPC   NC332711  38.105   3.830   9.537
 2416POPC   PO432712  38.375   3.284   9.522
 2416POPC   GL132713  38.411   3.490   9.153
 2416POPC   GL232714  38.404   3.826   9.139
 2416POPC   C1A32715  38.525   3.513   8.714
 2416POPC   D2A32716  38.597   3.366   8.300
 2416POPC   C3A32717  38.506   3.502   7.876
 2416POPC   C4A32718  38.624   3.267   7.498
 2416POPC   C1B32719  38.110   3.776   8.821
 2416POPC   C2B32720  38.125   3.653   8.421
 2416POPC   C3B32721  38.027   3.675   8.017
 2416POPC   C4B32722  38.035   3.644   7.599
 2417POPC   NC332723  18.724  42.859   9.438
 2417POPC   PO432724  19.265  43.197   9.489
 2417POPC   GL132725  18.965  43.277   9.155
 2417POPC   GL232726  19.057  42.967   9.071
 2417POPC   C1A32727  19.112  43.356   8.732
 2417POPC   D2A32728  19.244  43.153   8.358
 2417POPC   C3A32729  18.916  43.206   8.079
 2417POPC   C4A32730  18.902  43.530   7.762
 2417POPC   C1B32731  19.046  42.792   8.705
 2417POPC   C2B32732  18.980  42.596   8.327
 2417POPC   C3B32733  19.287  42.649   8.032
 2417POPC   C4B32734  19.309  43.040   7.809
 2418POPC   NC332735  19.847  34.403   9.774
 2418POPC   PO432736  19.563  34.494   9.210
 2418POPC   GL132737  19.906  34.630   9.001
 2418POPC   GL232738  19.845  34.975   8.974
 2418POPC   C1A32739  19.845  34.646   8.569
 2418POPC   D2A32740  19.812  34.412   8.228
 2418POPC   C3A32741  20.048  34.436   7.854
 2418POPC   C4A32742  19.720  34.405   7.553
 2418POPC   C1B32743  19.452  34.930   8.694
 2418POPC   C2B32744  19.507  34.855   8.245
 2418POPC   C3B32745  19.724  34.823   7.870
 2418POPC   C4B32746  19.642  34.948   7.441
 2419POPC   NC332747  25.573  21.777   9.444
 2419POPC   PO432748  26.167  22.206   9.527
 2419POPC   GL132749  26.208  22.037   9.147
 2419POPC   GL232750  25.831  22.067   9.124
 2419POPC   C1A32751  26.130  22.231   8.752
 2419POPC   D2A32752  26.138  22.436   8.393
 2419POPC   C3A32753  26.312  22.243   8.035
 2419POPC   C4A32754  26.081  22.279   7.676
 2419POPC   C1B32755  25.627  22.068   8.719
 2419POPC   C2B32756  25.794  22.049   8.296
 2419POPC   C3B32757  25.732  21.962   7.860
 2419POPC   C4B32758  25.812  21.914   7.408
 2420POPC   NC332759  18.768  38.084   9.543
 2420POPC   PO432760  19.305  38.435   9.676
 2420POPC   GL132761  19.008  38.463   9.289
 2420POPC   GL232762  19.260  38.548   9.112
 2420POPC   C1A32763  18.942  38.330   8.801
 2420POPC   D2A32764  19.096  38.182   8.374
 2420POPC   C3A32765  19.076  38.431   8.004
 2420POPC   C4A32766  18.944  38.887   7.956
 2420POPC   C1B32767  19.443  38.472   8.707
 2420POPC   C2B32768  19.310  38.723   8.362
 2420POPC   C3B32769  19.468  38.770   7.954
 2420POPC   C4B32770  19.293  38.629   7.584
 2421POPC   NC332771  20.971  20.472   9.883
 2421POPC   PO432772  20.547  20.912   9.613
 2421POPC   GL132773  20.497  20.683   9.213
 2421POPC   GL232774  20.290  20.394   9.287
 2421POPC   C1A32775  20.711  20.718   8.790
 2421POPC   D2A32776  20.571  20.852   8.387
 2421POPC   C3A32777  20.824  20.994   8.037
 2421POPC   C4A32778  20.639  20.856   7.647
 2421POPC   C1B32779  20.380  20.292   8.823
 2421POPC   C2B32780  20.630  20.328   8.417
 2421POPC   C3B32781  20.688  20.495   8.015
 2421POPC   C4B32782  20.818  20.376   7.591
 2422POPC   NC332783  13.683   3.355   9.462
 2422POPC   PO432784  13.287   3.924   9.502
 2422POPC   GL132785  13.538   3.786   9.151
 2422POPC   GL232786  13.845   3.895   9.265
 2422POPC   C1A32787  13.577   3.571   8.744
 2422POPC   D2A32788  13.329   3.629   8.366
 2422POPC   C3A32789  13.520   3.762   7.986
 2422POPC   C4A32790  13.348   3.465   7.737
 2422POPC   C1B32791  14.002   3.873   8.823
 2422POPC   C2B32792  14.049   3.552   8.487
 2422POPC   C3B32793  14.049   3.595   8.055
 2422POPC   C4B32794  13.902   3.570   7.658
 2423POPC   NC332795  14.715  19.621   9.325
 2423POPC   PO432796  14.127  19.657   9.675
 2423POPC   GL132797  14.185  19.902   9.231
 2423POPC   GL232798  14.502  20.098   9.208
 2423POPC   C1A32799  13.968  19.830   8.812
 2423POPC   D2A32800  14.157  19.834   8.401
 2423POPC   C3A32801  14.066  19.569   8.073
 2423POPC   C4A32802  14.187  19.534   7.665
 2423POPC   C1B32803  14.470  19.972   8.786
 2423POPC   C2B32804  14.683  19.851   8.402
 2423POPC   C3B32805  14.505  19.834   7.979
 2423POPC   C4B32806  14.468  19.925   7.531
 2424POPC   NC332807  40.193   6.904   9.476
 2424POPC   PO432808  40.027   6.282   9.449
 2424POPC   GL132809  40.033   6.548   9.134
 2424POPC   GL232810  40.242   6.339   8.962
 2424POPC   C1A32811  39.815   6.626   8.756
 2424POPC   D2A32812  39.980   6.747   8.369
 2424POPC   C3A32813  39.779   6.617   8.049
 2424POPC   C4A32814  39.962   6.372   7.760
 2424POPC   C1B32815  40.336   6.688   8.731
 2424POPC   C2B32816  40.496   6.659   8.315
 2424POPC   C3B32817  40.290   6.728   7.911
 2424POPC   C4B32818  40.279   6.593   7.439
 2425POPC   NC332819  11.985  39.527   9.518
 2425POPC   PO432820  12.619  39.243   9.574
 2425POPC   GL132821  12.316  39.309   9.196
 2425POPC   GL232822  11.995  39.127   9.180
 2425POPC   C1A32823  12.096  39.492   8.818
 2425POPC   D2A32824  11.874  39.306   8.447
 2425POPC   C3A32825  12.115  39.273   8.054
 2425POPC   C4A32826  11.953  39.360   7.637
 2425POPC   C1B32827  12.070  38.940   8.772
 2425POPC   C2B32828  11.890  38.782   8.370
 2425POPC   C3B32829  11.719  38.947   7.974
 2425POPC   C4B32830  11.767  38.899   7.516
 2426POPC   NC332831   3.677  39.697   9.230
 2426POPC   PO432832   3.648  39.098   9.578
 2426POPC   GL132833   3.806  39.206   9.166
 2426POPC   GL232834   3.461  39.272   9.012
 2426POPC   C1A32835   3.873  39.375   8.731
 2426POPC   D2A32836   3.582  39.349   8.422
 2426POPC   C3A32837   3.801  39.465   8.065
 2426POPC   C4A32838   3.620  39.592   7.684
 2426POPC   C1B32839   3.197  39.001   8.733
 2426POPC   C2B32840   3.079  39.087   8.286
 2426POPC   C3B32841   3.375  39.189   7.968
 2426POPC   C4B32842   3.728  39.067   7.742
 2427POPC   NC332843  18.501  10.078   9.752
 2427POPC   PO432844  18.047   9.580   9.493
 2427POPC   GL132845  18.275   9.708   9.145
 2427POPC   GL232846  18.383  10.078   9.144
 2427POPC   C1A32847  18.440   9.538   8.785
 2427POPC   D2A32848  18.572   9.602   8.368
 2427POPC   C3A32849  18.275   9.518   8.031
 2427POPC   C4A32850  18.238   9.501   7.577
 2427POPC   C1B32851  18.151   9.984   8.720
 2427POPC   C2B32852  18.197   9.990   8.266
 2427POPC   C3B32853  18.256   9.977   7.818
 2427POPC   C4B32854  18.049   9.963   7.428
 2428POPC   NC332855  22.081  23.396   9.512
 2428POPC   PO432856  22.150  24.063   9.429
 2428POPC   GL132857  22.206  23.767   9.111
 2428POPC   GL232858  21.942  23.500   9.047
 2428POPC   C1A32859  22.129  24.002   8.726
 2428POPC   D2A32860  21.941  23.976   8.331
 2428POPC   C3A32861  22.218  24.023   7.967
 2428POPC   C4A32862  22.520  23.808   7.696
 2428POPC   C1B32863  22.105  23.485   8.637
 2428POPC   C2B32864  22.046  23.465   8.193
 2428POPC   C3B32865  22.079  23.405   7.748
 2428POPC   C4B32866  21.719  23.492   7.453
 2429POPC   NC332867  39.013   7.196   9.537
 2429POPC   PO432868  39.223   7.907   9.501
 2429POPC   GL132869  39.099   7.620   9.228
 2429POPC   GL232870  39.333   7.326   9.157
 2429POPC   C1A32871  39.049   7.635   8.800
 2429POPC   D2A32872  39.142   7.388   8.462
 2429POPC   C3A32873  38.926   7.524   8.082
 2429POPC   C4A32874  39.017   7.241   7.715
 2429POPC   C1B32875  39.570   7.467   8.795
 2429POPC   C2B32876  39.636   7.473   8.376
 2429POPC   C3B32877  39.422   7.429   8.026
 2429POPC   C4B32878  39.503   7.501   7.637
 2430POPC   NC332879  17.901   2.885   9.438
 2430POPC   PO432880  17.517   2.441   9.746
 2430POPC   GL132881  17.410   2.633   9.323
 2430POPC   GL232882  17.207   2.337   9.281
 2430POPC   C1A32883  17.390   2.884   8.872
 2430POPC   D2A32884  17.243   2.876   8.395
 2430POPC   C3A32885  17.478   2.963   8.051
 2430POPC   C4A32886  17.500   3.162   7.691
 2430POPC   C1B32887  17.419   2.381   8.867
 2430POPC   C2B32888  17.524   2.332   8.440
 2430POPC   C3B32889  17.391   2.474   8.076
 2430POPC   C4B32890  17.608   2.604   7.706
 2431POPC   NC332891  44.530  30.675   9.533
 2431POPC   PO432892   0.224  30.691   9.623
 2431POPC   GL132893  44.952  30.721   9.188
 2431POPC   GL232894  44.648  30.494   9.062
 2431POPC   C1A32895  44.842  30.898   8.776
 2431POPC   D2A32896  44.696  30.696   8.373
 2431POPC   C3A32897  44.653  30.906   7.964
 2431POPC   C4A32898  44.892  30.616   7.712
 2431POPC   C1B32899  44.353  30.684   8.749
 2431POPC   C2B32900  44.214  30.633   8.283
 2431POPC   C3B32901  44.454  30.434   7.938
 2431POPC   C4B32902  44.458  30.502   7.450
 2432POPC   NC332903  34.383  38.376   9.547
 2432POPC   PO432904  34.948  38.135   9.320
 2432POPC   GL132905  34.679  38.410   9.096
 2432POPC   GL232906  34.386  38.242   9.068
 2432POPC   C1A32907  34.445  38.708   8.838
 2432POPC   D2A32908  34.178  38.686   8.475
 2432POPC   C3A32909  34.359  38.748   8.061
 2432POPC   C4A32910  34.383  38.694   7.610
 2432POPC   C1B32911  34.338  38.233   8.681
 2432POPC   C2B32912  34.499  38.330   8.307
 2432POPC   C3B32913  34.304  38.264   7.914
 2432POPC   C4B32914  34.450  38.149   7.520
 2433POPC   NC332915  11.167  15.853   9.699
 2433POPC   PO432916  11.659  16.157   9.482
 2433POPC   GL132917  11.455  16.002   9.139
 2433POPC   GL232918  11.133  16.074   9.209
 2433POPC   C1A32919  11.407  16.184   8.723
 2433POPC   D2A32920  11.639  16.398   8.417
 2433POPC   C3A32921  11.569  16.297   7.977
 2433POPC   C4A32922  11.418  15.920   7.794
 2433POPC   C1B32923  11.002  15.876   8.800
 2433POPC   C2B32924  10.813  15.830   8.396
 2433POPC   C3B32925  10.973  15.963   8.009
 2433POPC   C4B32926  10.822  15.999   7.579
 2434POPC   NC332927  25.058  31.277   9.552
 2434POPC   PO432928  25.660  31.539   9.379
 2434POPC   GL132929  25.369  31.377   9.124
 2434POPC   GL232930  25.094  31.557   9.101
 2434POPC   C1A32931  25.443  31.509   8.715
 2434POPC   D2A32932  25.621  31.302   8.351
 2434POPC   C3A32933  25.498  31.503   7.989
 2434POPC   C4A32934  25.367  31.435   7.560
 2434POPC   C1B32935  24.953  31.330   8.769
 2434POPC   C2B32936  25.115  31.363   8.360
 2434POPC   C3B32937  25.004  31.430   7.976
 2434POPC   C4B32938  24.915  31.653   7.652
 2435POPC   NC332939  41.105  14.620   9.265
 2435POPC   PO432940  40.529  14.645   9.608
 2435POPC   GL132941  40.644  14.442   9.182
 2435POPC   GL232942  40.655  14.113   9.078
 2435POPC   C1A32943  40.815  14.442   8.728
 2435POPC   D2A32944  41.063  14.678   8.403
 2435POPC   C3A32945  40.937  14.637   7.964
 2435POPC   C4A32946  40.858  14.647   7.501
 2435POPC   C1B32947  40.357  14.130   8.770
 2435POPC   C2B32948  40.287  13.883   8.428
 2435POPC   C3B32949  40.598  13.903   8.091
 2435POPC   C4B32950  40.679  14.191   7.729
 2436POPC   NC332951  28.257  15.792   9.547
 2436POPC   PO432952  28.804  16.138   9.738
 2436POPC   GL132953  28.694  15.897   9.265
 2436POPC   GL232954  28.413  15.688   9.083
 2436POPC   C1A32955  28.623  16.003   8.767
 2436POPC   D2A32956  28.405  15.845   8.390
 2436POPC   C3A32957  28.478  16.007   7.989
 2436POPC   C4A32958  28.198  16.182   7.659
 2436POPC   C1B32959  28.076  15.868   8.791
 2436POPC   C2B32960  27.884  15.874   8.346
 2436POPC   C3B32961  28.017  15.772   7.887
 2436POPC   C4B32962  28.374  15.743   7.517
 2437POPC   NC332963  36.143  44.576   9.560
 2437POPC   PO432964  36.149   0.228   9.513
 2437POPC   GL132965  36.028  44.949   9.164
 2437POPC   GL232966  36.295  44.713   9.085
 2437POPC   C1A32967  35.842  44.736   8.790
 2437POPC   D2A32968  35.698  44.800   8.334
 2437POPC   C3A32969  35.975  44.742   7.957
 2437POPC   C4A32970  36.021  44.747   7.469
 2437POPC   C1B32971  36.280  44.971   8.696
 2437POPC   C2B32972  36.266   0.096   8.276
 2437POPC   C3B32973  36.460  44.904   7.948
 2437POPC   C4B32974  36.469  44.549   7.670
 2438POPC   NC332975   5.518   7.211   9.525
 2438POPC   PO432976   6.172   7.210   9.506
 2438POPC   GL132977   6.013   7.430   9.117
 2438POPC   GL232978   5.671   7.491   9.102
 2438POPC   C1A32979   5.953   7.423   8.667
 2438POPC   D2A32980   6.093   7.106   8.368
 2438POPC   C3A32981   5.936   7.327   8.045
 2438POPC   C4A32982   5.928   7.727   7.859
 2438POPC   C1B32983   5.517   7.165   8.829
 2438POPC   C2B32984   5.554   7.195   8.385
 2438POPC   C3B32985   5.481   7.109   7.948
 2438POPC   C4B32986   5.617   7.393   7.644
 2439POPC   NC332987  12.733  15.950   9.671
 2439POPC   PO432988  12.524  15.442   9.335
 2439POPC   GL132989  12.800  15.748   9.161
 2439POPC   GL232990  13.091  15.601   9.219
 2439POPC   C1A32991  12.951  16.085   8.856
 2439POPC   D2A32992  12.717  16.244   8.470
 2439POPC   C3A32993  12.756  16.037   8.089
 2439POPC   C4A32994  12.885  16.134   7.686
 2439POPC   C1B32995  13.204  15.622   8.795
 2439POPC   C2B32996  13.108  15.856   8.422
 2439POPC   C3B32997  13.197  15.708   8.021
 2439POPC   C4B32998  13.217  15.299   7.840
 2440POPC   NC332999  42.367  25.679   9.559
 2440POPC   PO433000  41.859  26.082   9.616
 2440POPC   GL133001  42.110  26.015   9.214
 2440POPC   GL233002  42.447  25.962   9.134
 2440POPC   C1A33003  42.116  25.830   8.781
 2440POPC   D2A33004  42.224  25.593   8.425
 2440POPC   C3A33005  42.235  25.828   8.023
 2440POPC   C4A33006  42.500  25.763   7.664
 2440POPC   C1B33007  42.393  26.248   8.791
 2440POPC   C2B33008  42.235  26.233   8.385
 2440POPC   C3B33009  42.400  26.375   8.018
 2440POPC   C4B33010  42.321  26.229   7.631
 2441POPC   NC333011  20.745  44.380   9.246
 2441POPC   PO433012  20.876  43.842   9.582
 2441POPC   GL133013  20.674  43.855   9.172
 2441POPC   GL233014  20.315  43.864   9.236
 2441POPC   C1A33015  20.575  43.887   8.708
 2441POPC   D2A33016  20.574  43.628   8.316
 2441POPC   C3A33017  20.837  43.742   7.937
 2441POPC   C4A33018  20.781  44.146   7.724
 2441POPC   C1B33019  20.204  44.177   8.928
 2441POPC   C2B33020  20.150  44.276   8.491
 2441POPC   C3B33021  20.434  44.226   8.125
 2441POPC   C4B33022  20.265  44.272   7.710
 2442POPC   NC333023  31.871  24.839   9.443
 2442POPC   PO433024  32.378  24.327   9.527
 2442POPC   GL133025  32.278  24.522   9.133
 2442POPC   GL233026  31.953  24.426   9.063
 2442POPC   C1A33027  32.303  24.473   8.675
 2442POPC   D2A33028  32.560  24.478   8.330
 2442POPC   C3A33029  32.370  24.557   7.933
 2442POPC   C4A33030  32.068  24.380   7.696
 2442POPC   C1B33031  31.826  24.641   8.666
 2442POPC   C2B33032  31.956  24.564   8.240
 2442POPC   C3B33033  31.928  24.837   7.887
 2442POPC   C4B33034  31.739  24.731   7.514
 2443POPC   NC333035  13.416  17.656   9.572
 2443POPC   PO433036  13.939  17.151   9.477
 2443POPC   GL133037  13.748  17.552   9.171
 2443POPC   GL233038  13.364  17.575   9.080
 2443POPC   C1A33039  13.680  17.808   8.753
 2443POPC   D2A33040  13.536  17.969   8.342
 2443POPC   C3A33041  13.754  17.764   7.992
 2443POPC   C4A33042  13.935  17.613   7.632
 2443POPC   C1B33043  13.466  17.358   8.690
 2443POPC   C2B33044  13.622  17.399   8.312
 2443POPC   C3B33045  13.416  17.344   7.923
 2443POPC   C4B33046  13.423  17.016   7.587
 2444POPC   NC333047  15.931  24.217   9.570
 2444POPC   PO433048  16.294  24.670   9.552
 2444POPC   GL133049  15.962  24.580   9.162
 2444POPC   GL233050  15.843  24.211   9.062
 2444POPC   C1A33051  15.734  24.575   8.723
 2444POPC   D2A33052  15.915  24.500   8.307
 2444POPC   C3A33053  15.657  24.541   7.946
 2444POPC   C4A33054  15.837  24.340   7.652
 2444POPC   C1B33055  16.133  23.894   8.848
 2444POPC   C2B33056  16.252  23.733   8.421
 2444POPC   C3B33057  16.185  23.989   8.010
 2444POPC   C4B33058  16.265  24.127   7.573
 2445POPC   NC333059  22.243   9.356   9.298
 2445POPC   PO433060  22.243   9.821   9.791
 2445POPC   GL133061  22.064   9.887   9.323
 2445POPC   GL233062  21.811   9.638   9.221
 2445POPC   C1A33063  22.137   9.883   8.854
 2445POPC   D2A33064  22.399   9.758   8.486
 2445POPC   C3A33065  22.208   9.776   8.082
 2445POPC   C4A33066  22.091   9.526   7.731
 2445POPC   C1B33067  21.716   9.473   8.823
 2445POPC   C2B33068  21.885   9.632   8.467
 2445POPC   C3B33069  21.724   9.566   8.083
 2445POPC   C4B33070  21.531   9.534   7.717
 2446POPC   NC333071  24.070  26.011   9.569
 2446POPC   PO433072  24.741  26.157   9.489
 2446POPC   GL133073  24.434  26.007   9.192
 2446POPC   GL233074  24.193  26.280   9.147
 2446POPC   C1A33075  24.512  25.846   8.799
 2446POPC   D2A33076  24.659  26.076   8.398
 2446POPC   C3A33077  24.572  25.851   8.013
 2446POPC   C4A33078  24.749  25.763   7.615
 2446POPC   C1B33079  24.371  26.362   8.727
 2446POPC   C2B33080  24.153  26.251   8.330
 2446POPC   C3B33081  24.275  26.295   7.919
 2446POPC   C4B33082  24.658  26.250   7.705
 2447POPC   NC333083  23.851  30.294   9.606
 2447POPC   PO433084  23.995  29.661   9.427
 2447POPC   GL133085  23.784  29.810   9.069
 2447POPC   GL233086  23.561  30.071   9.196
 2447POPC   C1A33087  23.766  29.854   8.618
 2447POPC   D2A33088  23.791  29.519   8.283
 2447POPC   C3A33089  23.897  29.676   7.904
 2447POPC   C4A33090  23.635  29.843   7.601
 2447POPC   C1B33091  23.922  30.273   8.933
 2447POPC   C2B33092  23.932  30.366   8.513
 2447POPC   C3B33093  23.815  30.166   8.161
 2447POPC   C4B33094  23.937  30.288   7.730
 2448POPC   NC333095  24.863   3.000   9.379
 2448POPC   PO433096  24.172   2.743   9.428
 2448POPC   GL133097  24.473   2.794   9.135
 2448POPC   GL233098  24.411   3.153   9.133
 2448POPC   C1A33099  24.561   2.586   8.767
 2448POPC   D2A33100  24.232   2.410   8.512
 2448POPC   C3A33101  24.287   2.543   8.073
 2448POPC   C4A33102  24.721   2.664   7.928
 2448POPC   C1B33103  24.277   3.030   8.716
 2448POPC   C2B33104  24.503   2.942   8.353
 2448POPC   C3B33105  24.390   3.069   7.961
 2448POPC   C4B33106  24.062   2.934   7.758
 2449POPC   NC333107   9.842  11.891   9.430
 2449POPC   PO433108   9.475  12.336   9.636
 2449POPC   GL133109   9.479  12.252   9.197
 2449POPC   GL233110   9.413  11.898   9.165
 2449POPC   C1A33111   9.638  12.179   8.773
 2449POPC   D2A33112   9.956  12.221   8.440
 2449POPC   C3A33113   9.792  12.302   8.033
 2449POPC   C4A33114  10.045  12.183   7.677
 2449POPC   C1B33115   9.570  11.653   8.798
 2449POPC   C2B33116   9.658  11.813   8.408
 2449POPC   C3B33117   9.886  11.810   8.036
 2449POPC   C4B33118   9.642  11.897   7.658
 2450POPC   NC333119  27.224   4.062   9.414
 2450POPC   PO433120  27.729   3.901   9.823
 2450POPC   GL133121  27.680   4.194   9.289
 2450POPC   GL233122  27.666   4.559   9.248
 2450POPC   C1A33123  27.539   4.067   8.818
 2450POPC   D2A33124  27.380   4.112   8.400
 2450POPC   C3A33125  27.678   4.122   8.060
 2450POPC   C4A33126  27.733   4.248   7.656
 2450POPC   C1B33127  27.335   4.541   8.880
 2450POPC   C2B33128  27.140   4.551   8.468
 2450POPC   C3B33129  27.307   4.501   8.058
 2450POPC   C4B33130  27.376   4.609   7.652
 2451POPC   NC333131  42.576  27.824   9.480
 2451POPC   PO433132  42.137  27.336   9.476
 2451POPC   GL133133  42.276  27.417   9.071
 2451POPC   GL233134  42.276  27.773   9.069
 2451POPC   C1A33135  42.090  27.529   8.669
 2451POPC   D2A33136  42.126  27.832   8.335
 2451POPC   C3A33137  42.114  27.581   8.000
 2451POPC   C4A33138  42.274  27.281   7.721
 2451POPC   C1B33139  42.479  27.894   8.689
 2451POPC   C2B33140  42.800  27.813   8.383
 2451POPC   C3B33141  42.766  27.915   7.947
 2451POPC   C4B33142  42.457  27.729   7.630
 2452POPC   NC333143  25.384  28.576   9.361
 2452POPC   PO433144  25.206  27.973   9.514
 2452POPC   GL133145  25.031  28.151   9.135
 2452POPC   GL233146  25.365  28.227   9.010
 2452POPC   C1A33147  24.969  28.271   8.678
 2452POPC   D2A33148  25.118  28.491   8.279
 2452POPC   C3A33149  25.271  28.409   7.870
 2452POPC   C4A33150  25.153  28.270   7.469
 2452POPC   C1B33151  25.455  28.497   8.664
 2452POPC   C2B33152  25.657  28.391   8.265
 2452POPC   C3B33153  25.795  28.556   7.908
 2452POPC   C4B33154  25.502  28.840   7.714
 2453POPC   NC333155  31.027  31.544   9.582
 2453POPC   PO433156  30.493  31.182   9.521
 2453POPC   GL133157  30.782  31.368   9.188
 2453POPC   GL233158  30.587  31.619   9.107
 2453POPC   C1A33159  31.063  31.686   8.905
 2453POPC   D2A33160  31.110  31.958   8.534
 2453POPC   C3A33161  31.072  31.773   8.161
 2453POPC   C4A33162  31.058  31.438   7.921
 2453POPC   C1B33163  30.710  31.415   8.698
 2453POPC   C2B33164  30.637  31.553   8.340
 2453POPC   C3B33165  30.602  31.262   8.054
 2453POPC   C4B33166  30.617  31.471   7.640
 2454POPC   NC333167  30.374   4.653   9.560
 2454POPC   PO433168  30.075   4.039   9.532
 2454POPC   GL133169  30.256   4.258   9.227
 2454POPC   GL233170  30.051   4.547   9.146
 2454POPC   C1A33171  30.083   4.142   8.837
 2454POPC   D2A33172  30.064   4.331   8.461
 2454POPC   C3A33173  30.034   4.036   8.132
 2454POPC   C4A33174  30.118   4.211   7.775
 2454POPC   C1B33175  29.679   4.493   8.856
 2454POPC   C2B33176  29.517   4.565   8.440
 2454POPC   C3B33177  29.721   4.429   8.074
 2454POPC   C4B33178  29.653   4.513   7.673
 2455POPC   NC333179   8.598   0.443   9.723
 2455POPC   PO433180   9.124   0.072   9.566
 2455POPC   GL133181   9.103   0.237   9.167
 2455POPC   GL233182   8.772   0.231   9.175
 2455POPC   C1A33183   9.073   0.390   8.724
 2455POPC   D2A33184   9.146   0.354   8.248
 2455POPC   C3A33185   9.166   0.564   7.839
 2455POPC   C4A33186   8.828   0.823   7.589
 2455POPC   C1B33187   8.678   0.048   8.777
 2455POPC   C2B33188   8.616   0.265   8.377
 2455POPC   C3B33189   8.682   0.543   8.031
 2455POPC   C4B33190   8.738   0.327   7.661
 2456POPC   NC333191  24.059  21.778   9.763
 2456POPC   PO433192  24.554  22.315   9.584
 2456POPC   GL133193  24.432  22.079   9.239
 2456POPC   GL233194  24.130  22.284   9.166
 2456POPC   C1A33195  24.596  21.902   8.809
 2456POPC   D2A33196  24.812  21.902   8.373
 2456POPC   C3A33197  24.642  21.817   7.983
 2456POPC   C4A33198  24.302  21.967   7.696
 2456POPC   C1B33199  24.470  22.382   8.867
 2456POPC   C2B33200  24.614  22.408   8.463
 2456POPC   C3B33201  24.446  22.269   8.098
 2456POPC   C4B33202  24.421  22.472   7.703
 2457POPC   NC333203  15.676  43.946   9.584
 2457POPC   PO433204  16.066  43.583   9.805
 2457POPC   GL133205  15.877  43.550   9.295
 2457POPC   GL233206  15.896  43.880   9.157
 2457POPC   C1A33207  16.125  43.615   8.824
 2457POPC   D2A33208  16.140  43.418   8.441
 2457POPC   C3A33209  16.222  43.700   8.096
 2457POPC   C4A33210  16.114  43.709   7.669
 2457POPC   C1B33211  15.669  43.866   8.818
 2457POPC   C2B33212  15.862  43.880   8.428
 2457POPC   C3B33213  15.726  43.856   8.028
 2457POPC   C4B33214  15.629  44.050   7.680
 2458POPC   NC333215  16.750  31.742   9.709
 2458POPC   PO433216  16.997  32.339   9.490
 2458POPC   GL133217  16.717  32.152   9.190
 2458POPC   GL233218  16.928  32.013   8.951
 2458POPC   C1A33219  16.468  32.162   8.822
 2458POPC   D2A33220  16.496  32.401   8.450
 2458POPC   C3A33221  16.460  32.239   8.039
 2458POPC   C4A33222  16.764  32.267   7.707
 2458POPC   C1B33223  17.012  31.965   8.572
 2458POPC   C2B33224  16.916  32.070   8.185
 2458POPC   C3B33225  16.976  31.845   7.848
 2458POPC   C4B33226  17.022  31.910   7.388
 2459POPC   NC333227  44.845  41.302   9.499
 2459POPC   PO433228  44.469  41.848   9.526
 2459POPC   GL133229  44.594  41.806   9.116
 2459POPC   GL233230  44.876  41.616   9.091
 2459POPC   C1A33231  44.529  41.556   8.728
 2459POPC   D2A33232  44.374  41.634   8.290
 2459POPC   C3A33233  44.656  41.729   7.961
 2459POPC   C4A33234  44.649  41.449   7.632
 2459POPC   C1B33235   0.092  41.596   8.722
 2459POPC   C2B33236  44.971  41.511   8.299
 2459POPC   C3B33237   0.104  41.380   7.878
 2459POPC   C4B33238   0.066  41.280   7.393
 2460POPC   NC333239  32.000   9.294   9.562
 2460POPC   PO433240  32.337   9.895   9.696
 2460POPC   GL133241  32.311   9.927   9.233
 2460POPC   GL233242  32.268   9.566   9.210
 2460POPC   C1A33243  32.124   9.833   8.810
 2460POPC   D2A33244  31.969   9.816   8.386
 2460POPC   C3A33245  32.185   9.838   8.012
 2460POPC   C4A33246  32.256   9.687   7.610
 2460POPC   C1B33247  32.477   9.423   8.832
 2460POPC   C2B33248  32.376   9.199   8.439
 2460POPC   C3B33249  32.324   9.356   7.990
 2460POPC   C4B33250  32.170   9.209   7.561
 2461POPC   NC333251  19.956   4.554   9.524
 2461POPC   PO433252  20.005   3.860   9.470
 2461POPC   GL133253  19.802   4.180   9.171
 2461POPC   GL233254  19.634   4.546   9.130
 2461POPC   C1A33255  19.918   4.142   8.748
 2461POPC   D2A33256  20.146   4.311   8.400
 2461POPC   C3A33257  19.936   4.090   8.084
 2461POPC   C4A33258  19.991   4.138   7.649
 2461POPC   C1B33259  19.802   4.625   8.746
 2461POPC   C2B33260  19.686   4.530   8.336
 2461POPC   C3B33261  19.885   4.578   7.938
 2461POPC   C4B33262  19.701   4.546   7.544
 2462POPC   NC333263  25.085  35.828   9.364
 2462POPC   PO433264  25.550  36.272   9.521
 2462POPC   GL133265  25.464  36.370   9.116
 2462POPC   GL233266  25.128  36.462   9.229
 2462POPC   C1A33267  25.466  36.134   8.709
 2462POPC   D2A33268  25.387  35.871   8.333
 2462POPC   C3A33269  25.492  36.120   7.983
 2462POPC   C4A33270  25.622  36.357   7.633
 2462POPC   C1B33271  25.006  36.269   8.871
 2462POPC   C2B33272  24.997  36.169   8.439
 2462POPC   C3B33273  24.980  36.001   8.015
 2462POPC   C4B33274  25.097  36.371   7.780
 2463POPC   NC333275  39.490  38.288   9.614
 2463POPC   PO433276  38.902  38.629   9.557
 2463POPC   GL133277  39.185  38.476   9.237
 2463POPC   GL233278  39.252  38.119   9.166
 2463POPC   C1A33279  39.337  38.555   8.846
 2463POPC   D2A33280  39.098  38.458   8.486
 2463POPC   C3A33281  39.279  38.545   8.108
 2463POPC   C4A33282  39.215  38.646   7.722
 2463POPC   C1B33283  39.331  38.049   8.716
 2463POPC   C2B33284  39.330  38.031   8.270
 2463POPC   C3B33285  39.079  38.128   7.934
 2463POPC   C4B33286  39.343  38.187   7.573
 2464POPC   NC333287   4.664  35.489   9.564
 2464POPC   PO433288   3.983  35.162   9.525
 2464POPC   GL133289   4.285  35.329   9.239
 2464POPC   GL233290   4.566  35.098   9.262
 2464POPC   C1A33291   4.534  35.491   8.894
 2464POPC   D2A33292   4.345  35.559   8.504
 2464POPC   C3A33293   4.477  35.639   8.088
 2464POPC   C4A33294   4.218  35.470   7.748
 2464POPC   C1B33295   4.502  34.970   8.847
 2464POPC   C2B33296   4.427  34.981   8.402
 2464POPC   C3B33297   4.538  35.123   7.978
 2464POPC   C4B33298   4.627  35.184   7.528
 2465POPC   NC333299  27.175  18.223   9.650
 2465POPC   PO433300  26.596  18.469   9.476
 2465POPC   GL133301  26.810  18.193   9.211
 2465POPC   GL233302  26.468  18.082   9.139
 2465POPC   C1A33303  27.020  18.206   8.805
 2465POPC   D2A33304  26.970  18.336   8.362
 2465POPC   C3A33305  26.916  18.257   7.888
 2465POPC   C4A33306  26.905  18.585   7.538
 2465POPC   C1B33307  26.561  18.013   8.702
 2465POPC   C2B33308  26.651  17.925   8.264
 2465POPC   C3B33309  26.446  17.964   7.852
 2465POPC   C4B33310  26.358  17.733   7.457
 2466POPC   NC333311  19.641  17.129   9.461
 2466POPC   PO433312  19.885  16.533   9.521
 2466POPC   GL133313  19.737  16.713   9.125
 2466POPC   GL233314  19.677  17.038   8.955
 2466POPC   C1A33315  19.934  16.600   8.765
 2466POPC   D2A33316  19.927  16.397   8.403
 2466POPC   C3A33317  20.154  16.605   8.118
 2466POPC   C4A33318  20.120  16.528   7.729
 2466POPC   C1B33319  19.542  16.797   8.569
 2466POPC   C2B33320  19.689  16.824   8.173
 2466POPC   C3B33321  19.692  16.835   7.735
 2466POPC   C4B33322  19.598  16.923   7.315
 2467POPC   NC333323  26.100  38.037   9.510
 2467POPC   PO433324  25.946  37.364   9.690
 2467POPC   GL133325  25.993  37.597   9.250
 2467POPC   GL233326  25.794  37.428   9.035
 2467POPC   C1A33327  26.051  37.798   8.783
 2467POPC   D2A33328  25.889  37.832   8.318
 2467POPC   C3A33329  26.172  37.825   7.967
 2467POPC   C4A33330  26.183  38.046   7.569
 2467POPC   C1B33331  25.905  37.320   8.663
 2467POPC   C2B33332  26.089  37.380   8.322
 2467POPC   C3B33333  25.888  37.393   7.969
 2467POPC   C4B33334  26.122  37.313   7.646
 2468POPC   NC333335   3.215  30.285   9.510
 2468POPC   PO433336   3.880  29.926   9.453
 2468POPC   GL133337   3.675  29.957   9.062
 2468POPC   GL233338   3.300  30.047   9.075
 2468POPC   C1A33339   3.509  29.772   8.698
 2468POPC   D2A33340   3.463  29.642   8.281
 2468POPC   C3A33341   3.627  29.922   7.966
 2468POPC   C4A33342   3.398  29.844   7.600
 2468POPC   C1B33343   3.514  30.320   8.777
 2468POPC   C2B33344   3.411  30.185   8.387
 2468POPC   C3B33345   3.179  30.154   8.034
 2468POPC   C4B33346   3.411  30.360   7.724
 2469POPC   NC333347  34.165  17.635   9.550
 2469POPC   PO433348  34.739  17.315   9.421
 2469POPC   GL133349  34.541  17.608   9.178
 2469POPC   GL233350  34.253  17.409   9.093
 2469POPC   C1A33351  34.700  17.637   8.777
 2469POPC   D2A33352  34.972  17.353   8.556
 2469POPC   C3A33353  34.893  17.319   8.110
 2469POPC   C4A33354  34.830  17.541   7.706
 2469POPC   C1B33355  34.295  17.348   8.660
 2469POPC   C2B33356  34.383  17.719   8.411
 2469POPC   C3B33357  34.526  17.688   8.057
 2469POPC   C4B33358  34.444  17.257   7.879
 2470POPC   NC333359  33.601  14.127   9.675
 2470POPC   PO433360  34.187  14.367   9.597
 2470POPC   GL133361  33.944  14.426   9.203
 2470POPC   GL233362  33.626  14.290   9.144
 2470POPC   C1A33363  33.991  14.266   8.754
 2470POPC   D2A33364  33.831  14.375   8.336
 2470POPC   C3A33365  34.070  14.343   7.947
 2470POPC   C4A33366  34.270  14.187   7.586
 2470POPC   C1B33367  33.537  14.512   8.751
 2470POPC   C2B33368  33.364  14.629   8.344
 2470POPC   C3B33369  33.293  14.754   7.910
 2470POPC   C4B33370  33.578  14.531   7.604
 2471POPC   NC333371  39.690  39.752   9.396
 2471POPC   PO433372  40.182  40.265   9.505
 2471POPC   GL133373  39.945  40.176   9.176
 2471POPC   GL233374  40.146  39.891   9.098
 2471POPC   C1A33375  40.065  40.287   8.758
 2471POPC   D2A33376  40.069  40.150   8.322
 2471POPC   C3A33377  39.772  40.297   7.986
 2471POPC   C4A33378  39.853  40.236   7.517
 2471POPC   C1B33379  39.869  39.825   8.732
 2471POPC   C2B33380  39.710  39.805   8.301
 2471POPC   C3B33381  39.809  39.808   7.841
 2471POPC   C4B33382  39.681  39.663   7.417
 2472POPC   NC333383  17.305  18.468   9.767
 2472POPC   PO433384  17.864  18.326   9.407
 2472POPC   GL133385  17.392  18.303   9.221
 2472POPC   GL233386  17.300  17.965   9.053
 2472POPC   C1A33387  17.158  18.347   8.795
 2472POPC   D2A33388  17.369  18.410   8.420
 2472POPC   C3A33389  17.208  18.374   8.032
 2472POPC   C4A33390  17.299  18.765   7.866
 2472POPC   C1B33391  17.657  18.191   8.807
 2472POPC   C2B33392  17.841  18.201   8.423
 2472POPC   C3B33393  17.761  18.416   8.028
 2472POPC   C4B33394  17.855  18.340   7.606
 2473POPC   NC333395  26.228   2.789   9.432
 2473POPC   PO433396  25.590   2.479   9.494
 2473POPC   GL133397  25.775   2.762   9.179
 2473POPC   GL233398  25.869   2.492   9.012
 2473POPC   C1A33399  26.021   2.938   8.806
 2473POPC   D2A33400  26.261   2.866   8.419
 2473POPC   C3A33401  26.164   3.020   7.984
 2473POPC   C4A33402  26.157   3.278   7.592
 2473POPC   C1B33403  26.241   2.480   8.779
 2473POPC   C2B33404  26.319   2.359   8.360
 2473POPC   C3B33405  26.157   2.468   7.962
 2473POPC   C4B33406  25.757   2.541   7.827
 2474POPC   NC333407  12.934  30.226   9.486
 2474POPC   PO433408  12.642  29.597   9.416
 2474POPC   GL133409  12.846  29.692   9.041
 2474POPC   GL233410  12.967  30.049   9.004
 2474POPC   C1A33411  12.748  29.812   8.604
 2474POPC   D2A33412  12.976  30.145   8.404
 2474POPC   C3A33413  13.106  30.084   7.983
 2474POPC   C4A33414  12.872  29.744   7.795
 2474POPC   C1B33415  13.241  29.802   8.714
 2474POPC   C2B33416  13.231  29.673   8.251
 2474POPC   C3B33417  13.352  29.639   7.783
 2474POPC   C4B33418  13.144  29.677   7.314
 2475POPC   NC333419  41.883  22.363   9.522
 2475POPC   PO433420  41.214  22.268   9.428
 2475POPC   GL133421  41.495  22.190   9.110
 2475POPC   GL233422  41.676  22.484   9.078
 2475POPC   C1A33423  41.365  22.091   8.682
 2475POPC   D2A33424  41.618  21.951   8.368
 2475POPC   C3A33425  41.491  22.011   7.935
 2475POPC   C4A33426  41.761  21.851   7.605
 2475POPC   C1B33427  41.435  22.574   8.733
 2475POPC   C2B33428  41.667  22.480   8.393
 2475POPC   C3B33429  41.890  22.309   8.071
 2475POPC   C4B33430  41.784  22.386   7.656
 2476POPC   NC333431  11.131  42.320   9.628
 2476POPC   PO433432  11.689  42.731   9.618
 2476POPC   GL133433  11.404  42.554   9.248
 2476POPC   GL233434  11.517  42.248   9.043
 2476POPC   C1A33435  11.269  42.644   8.816
 2476POPC   D2A33436  11.468  42.727   8.387
 2476POPC   C3A33437  11.236  42.615   8.000
 2476POPC   C4A33438  10.911  42.402   7.750
 2476POPC   C1B33439  11.684  42.318   8.653
 2476POPC   C2B33440  11.429  42.214   8.305
 2476POPC   C3B33441  11.299  42.091   7.892
 2476POPC   C4B33442  11.312  42.301   7.453
 2477POPC   NC333443  44.852  29.193   9.768
 2477POPC   PO433444  44.317  28.884   9.572
 2477POPC   GL133445  44.615  29.126   9.294
 2477POPC   GL233446  44.523  29.412   9.071
 2477POPC   C1A33447  44.806  29.038   8.885
 2477POPC   D2A33448  44.721  28.847   8.492
 2477POPC   C3A33449  44.666  29.122   8.122
 2477POPC   C4A33450  44.954  29.270   7.784
 2477POPC   C1B33451  44.388  29.420   8.677
 2477POPC   C2B33452  44.268  29.447   8.245
 2477POPC   C3B33453  44.381  29.462   7.820
 2477POPC   C4B33454  44.117  29.333   7.515
 2478POPC   NC333455  21.677  28.141   9.691
 2478POPC   PO433456  21.172  27.800   9.787
 2478POPC   GL133457  21.226  28.116   9.365
 2478POPC   GL233458  21.499  28.375   9.257
 2478POPC   C1A33459  21.191  28.211   8.857
 2478POPC   D2A33460  21.221  28.415   8.400
 2478POPC   C3A33461  21.379  28.187   8.024
 2478POPC   C4A33462  21.527  28.237   7.573
 2478POPC   C1B33463  21.646  28.593   8.865
 2478POPC   C2B33464  21.680  28.678   8.398
 2478POPC   C3B33465  21.730  28.569   7.973
 2478POPC   C4B33466  21.892  28.612   7.572
 2479POPC   NC333467  43.032   7.849   9.288
 2479POPC   PO433468  43.158   8.397   9.595
 2479POPC   GL133469  43.277   8.308   9.120
 2479POPC   GL233470  43.337   8.000   8.923
 2479POPC   C1A33471  43.213   8.443   8.677
 2479POPC   D2A33472  42.875   8.474   8.380
 2479POPC   C3A33473  42.964   8.585   7.970
 2479POPC   C4A33474  43.414   8.693   7.887
 2479POPC   C1B33475  42.897   8.026   8.674
 2479POPC   C2B33476  42.726   8.011   8.253
 2479POPC   C3B33477  43.114   8.088   7.992
 2479POPC   C4B33478  43.501   7.847   7.852
 2480POPC   NC333479  36.734  16.589   9.661
 2480POPC   PO433480  37.132  17.131   9.687
 2480POPC   GL133481  36.979  16.900   9.283
 2480POPC   GL233482  36.627  16.948   9.316
 2480POPC   C1A33483  37.119  16.708   8.838
 2480POPC   D2A33484  37.253  16.887   8.418
 2480POPC   C3A33485  37.048  16.777   8.044
 2480POPC   C4A33486  36.809  17.061   7.800
 2480POPC   C1B33487  36.614  16.757   8.922
 2480POPC   C2B33488  36.729  16.826   8.481
 2480POPC   C3B33489  36.520  16.697   8.101
 2480POPC   C4B33490  36.674  16.594   7.710
 2481POPC   NC333491  32.093  17.338   9.457
 2481POPC   PO433492  31.928  17.992   9.699
 2481POPC   GL133493  31.816  17.862   9.157
 2481POPC   GL233494  31.920  17.525   9.032
 2481POPC   C1A33495  32.034  17.859   8.684
 2481POPC   D2A33496  32.085  17.466   8.404
 2481POPC   C3A33497  32.240  17.519   7.974
 2481POPC   C4A33498  32.525  17.737   7.705
 2481POPC   C1B33499  31.774  17.196   8.752
 2481POPC   C2B33500  31.696  17.097   8.322
 2481POPC   C3B33501  31.739  17.275   7.893
 2481POPC   C4B33502  31.915  17.327   7.473
 2482POPC   NC333503   2.504  17.474   9.875
 2482POPC   PO433504   2.062  17.782   9.512
 2482POPC   GL133505   1.871  17.627   9.144
 2482POPC   GL233506   1.851  17.294   9.066
 2482POPC   C1A33507   1.725  17.689   8.724
 2482POPC   D2A33508   1.956  17.629   8.378
 2482POPC   C3A33509   1.704  17.475   8.076
 2482POPC   C4A33510   1.860  17.423   7.706
 2482POPC   C1B33511   2.204  17.471   8.794
 2482POPC   C2B33512   2.477  17.313   8.515
 2482POPC   C3B33513   2.237  17.236   8.167
 2482POPC   C4B33514   2.342  17.266   7.774
 2483POPC   NC333515   0.773  15.419   9.497
 2483POPC   PO433516   0.191  14.987   9.458
 2483POPC   GL133517   0.611  14.896   9.277
 2483POPC   GL233518   0.636  15.192   9.047
 2483POPC   C1A33519   0.740  14.725   8.867
 2483POPC   D2A33520   0.507  14.970   8.553
 2483POPC   C3A33521   0.624  14.966   8.130
 2483POPC   C4A33522   0.356  15.010   7.775
 2483POPC   C1B33523   0.709  15.590   8.816
 2483POPC   C2B33524   0.548  15.705   8.403
 2483POPC   C3B33525   0.459  15.454   8.037
 2483POPC   C4B33526   0.724  15.321   7.732
 2484POPC   NC333527  30.337  31.636   9.550
 2484POPC   PO433528  29.628  31.682   9.556
 2484POPC   GL133529  29.719  31.581   9.144
 2484POPC   GL233530  30.061  31.574   9.135
 2484POPC   C1A33531  29.751  31.613   8.713
 2484POPC   D2A33532  29.570  31.424   8.398
 2484POPC   C3A33533  29.726  31.555   8.016
 2484POPC   C4A33534  29.891  31.933   7.869
 2484POPC   C1B33535  30.240  31.549   8.747
 2484POPC   C2B33536  30.121  31.417   8.357
 2484POPC   C3B33537  30.233  31.581   7.966
 2484POPC   C4B33538  30.084  31.309   7.692
 2485POPC   NC333539  17.389  33.360   9.395
 2485POPC   PO433540  17.821  32.798   9.504
 2485POPC   GL133541  17.764  33.082   9.155
 2485POPC   GL233542  17.437  32.921   9.121
 2485POPC   C1A33543  17.711  33.121   8.698
 2485POPC   D2A33544  17.467  33.303   8.345
 2485POPC   C3A33545  17.711  33.220   7.984
 2485POPC   C4A33546  18.028  32.924   7.851
 2485POPC   C1B33547  17.297  32.820   8.715
 2485POPC   C2B33548  17.457  32.772   8.290
 2485POPC   C3B33549  17.314  32.935   7.893
 2485POPC   C4B33550  17.422  32.849   7.471
 2486POPC   NC333551   6.963   2.906   9.539
 2486POPC   PO433552   6.349   2.765   9.460
 2486POPC   GL133553   6.464   2.830   9.102
 2486POPC   GL233554   6.697   3.102   9.145
 2486POPC   C1A33555   6.623   2.692   8.726
 2486POPC   D2A33556   6.911   2.522   8.427
 2486POPC   C3A33557   6.757   2.698   8.069
 2486POPC   C4A33558   6.391   2.762   7.831
 2486POPC   C1B33559   6.569   3.198   8.774
 2486POPC   C2B33560   6.733   3.073   8.413
 2486POPC   C3B33561   6.595   3.192   8.044
 2486POPC   C4B33562   6.395   3.263   7.712
 2487POPC   NC333563  29.682  42.559   9.449
 2487POPC   PO433564  30.194  42.144   9.513
 2487POPC   GL133565  29.945  42.164   9.155
 2487POPC   GL233566  30.059  42.479   9.107
 2487POPC   C1A33567  29.774  42.293   8.743
 2487POPC   D2A33568  29.980  42.472   8.377
 2487POPC   C3A33569  29.709  42.465   7.996
 2487POPC   C4A33570  29.559  42.360   7.555
 2487POPC   C1B33571  30.269  42.722   8.811
 2487POPC   C2B33572  30.207  42.952   8.444
 2487POPC   C3B33573  30.269  42.804   8.023
 2487POPC   C4B33574  30.201  42.376   7.897
 2488POPC   NC333575   9.993  28.114   9.390
 2488POPC   PO433576   9.360  28.437   9.536
 2488POPC   GL133577   9.618  28.519   9.204
 2488POPC   GL233578   9.594  28.185   9.082
 2488POPC   C1A33579   9.611  28.686   8.781
 2488POPC   D2A33580   9.841  28.542   8.421
 2488POPC   C3A33581   9.758  28.479   7.990
 2488POPC   C4A33582  10.048  28.248   7.786
 2488POPC   C1B33583   9.479  28.208   8.672
 2488POPC   C2B33584   9.560  28.075   8.286
 2488POPC   C3B33585   9.389  28.130   7.885
 2488POPC   C4B33586   9.367  28.424   7.538
 2489POPC   NC333587  19.689  44.296   9.493
 2489POPC   PO433588  20.183  44.753   9.828
 2489POPC   GL133589  19.891  44.740   9.382
 2489POPC   GL233590  19.761   0.043   9.223
 2489POPC   C1A33591  19.946  44.636   8.893
 2489POPC   D2A33592  20.219  44.821   8.537
 2489POPC   C3A33593  20.163  44.654   8.115
 2489POPC   C4A33594  20.124  44.766   7.691
 2489POPC   C1B33595  19.660   0.023   8.771
 2489POPC   C2B33596  19.729  44.803   8.356
 2489POPC   C3B33597  19.682  44.810   7.909
 2489POPC   C4B33598  19.697  44.834   7.407
 2490POPC   NC333599  16.155  30.395   9.424
 2490POPC   PO433600  15.816  30.939   9.513
 2490POPC   GL133601  15.919  30.876   9.151
 2490POPC   GL233602  15.765  30.537   9.114
 2490POPC   C1A33603  15.695  30.950   8.816
 2490POPC   D2A33604  15.899  30.740   8.514
 2490POPC   C3A33605  15.870  30.897   8.083
 2490POPC   C4A33606  16.139  30.848   7.702
 2490POPC   C1B33607  15.617  30.343   8.736
 2490POPC   C2B33608  15.586  30.438   8.270
 2490POPC   C3B33609  15.915  30.417   7.905
 2490POPC   C4B33610  15.758  30.276   7.512
 2491POPC   NC333611  19.983  27.010   9.812
 2491POPC   PO433612  19.519  26.587   9.605
 2491POPC   GL133613  19.652  26.785   9.202
 2491POPC   GL233614  19.543  27.119   9.031
 2491POPC   C1A33615  19.608  26.652   8.779
 2491POPC   D2A33616  19.878  26.728   8.423
 2491POPC   C3A33617  19.679  26.888   8.054
 2491POPC   C4A33618  19.619  26.588   7.743
 2491POPC   C1B33619  19.965  27.077   8.843
 2491POPC   C2B33620  20.182  27.147   8.425
 2491POPC   C3B33621  20.072  27.247   7.986
 2491POPC   C4B33622  19.985  26.977   7.611
 2492POPC   NC333623  20.043  23.941   9.511
 2492POPC   PO433624  20.588  23.504   9.757
 2492POPC   GL133625  20.401  23.604   9.350
 2492POPC   GL233626  20.439  23.371   9.118
 2492POPC   C1A33627  20.371  23.863   8.946
 2492POPC   D2A33628  20.414  23.955   8.499
 2492POPC   C3A33629  20.282  23.688   8.145
 2492POPC   C4A33630  20.410  23.810   7.740
 2492POPC   C1B33631  20.673  23.475   8.729
 2492POPC   C2B33632  20.902  23.790   8.491
 2492POPC   C3B33633  20.778  23.833   8.095
 2492POPC   C4B33634  20.838  23.527   7.763
 2493POPC   NC333635  15.755  11.100   9.766
 2493POPC   PO433636  15.898  10.424   9.679
 2493POPC   GL133637  16.045  10.451   9.255
 2493POPC   GL233638  16.158  10.805   9.162
 2493POPC   C1A33639  15.960  10.486   8.815
 2493POPC   D2A33640  16.085  10.302   8.420
 2493POPC   C3A33641  16.016  10.480   8.045
 2493POPC   C4A33642  15.864  10.291   7.714
 2493POPC   C1B33643  16.433  10.692   8.779
 2493POPC   C2B33644  16.441  10.654   8.316
 2493POPC   C3B33645  16.292  10.890   7.928
 2493POPC   C4B33646  16.042  10.824   7.519
 2494POPC   NC333647  37.577  31.280   9.854
 2494POPC   PO433648  37.471  31.760   9.437
 2494POPC   GL133649  37.584  31.361   9.235
 2494POPC   GL233650  37.703  31.620   9.010
 2494POPC   C1A33651  37.807  31.174   8.850
 2494POPC   D2A33652  37.883  31.122   8.406
 2494POPC   C3A33653  37.633  31.421   8.175
 2494POPC   C4A33654  37.651  31.617   7.752
 2494POPC   C1B33655  37.968  31.810   8.752
 2494POPC   C2B33656  37.864  31.902   8.326
 2494POPC   C3B33657  38.086  31.780   7.941
 2494POPC   C4B33658  38.089  31.751   7.475
 2495POPC   NC333659  19.620   0.927   9.438
 2495POPC   PO433660  20.124   1.354   9.525
 2495POPC   GL133661  19.929   1.272   9.149
 2495POPC   GL233662  20.142   1.014   9.076
 2495POPC   C1A33663  19.671   1.091   8.800
 2495POPC   D2A33664  19.405   1.219   8.463
 2495POPC   C3A33665  19.586   1.159   8.062
 2495POPC   C4A33666  19.604   0.818   7.777
 2495POPC   C1B33667  20.067   0.754   8.707
 2495POPC   C2B33668  19.856   0.740   8.293
 2495POPC   C3B33669  20.086   0.759   7.934
 2495POPC   C4B33670  20.183   1.205   7.866
 2496POPC   NC333671   4.955  20.769   9.475
 2496POPC   PO433672   5.312  20.274   9.189
 2496POPC   GL133673   5.043  20.596   8.998
 2496POPC   GL233674   5.235  20.901   9.078
 2496POPC   C1A33675   4.930  20.720   8.580
 2496POPC   D2A33676   4.853  20.518   8.186
 2496POPC   C3A33677   4.845  20.700   7.781
 2496POPC   C4A33678   4.853  20.481   7.408
 2496POPC   C1B33679   5.421  20.828   8.700
 2496POPC   C2B33680   5.361  20.591   8.346
 2496POPC   C3B33681   5.324  20.677   7.927
 2496POPC   C4B33682   5.349  20.646   7.465
 2497POPC   NC333683  12.836   5.064   9.740
 2497POPC   PO433684  12.760   4.377   9.580
 2497POPC   GL133685  12.901   4.402   9.180
 2497POPC   GL233686  13.113   4.155   9.100
 2497POPC   C1A33687  13.023   4.506   8.761
 2497POPC   D2A33688  13.116   4.546   8.340
 2497POPC   C3A33689  12.806   4.447   7.989
 2497POPC   C4A33690  13.058   4.511   7.678
 2497POPC   C1B33691  12.684   4.104   8.850
 2497POPC   C2B33692  12.713   4.228   8.444
 2497POPC   C3B33693  13.084   4.062   8.161
 2497POPC   C4B33694  13.145   3.977   7.716
 2498POPC   NC333695  32.041   7.740   9.301
 2498POPC   PO433696  32.519   7.434   9.701
 2498POPC   GL133697  32.379   7.389   9.167
 2498POPC   GL233698  32.059   7.373   8.938
 2498POPC   C1A33699  32.449   7.625   8.739
 2498POPC   D2A33700  32.292   7.551   8.322
 2498POPC   C3A33701  32.396   7.388   7.910
 2498POPC   C4A33702  32.474   7.487   7.470
 2498POPC   C1B33703  32.284   7.126   8.631
 2498POPC   C2B33704  32.108   7.098   8.220
 2498POPC   C3B33705  31.885   7.457   8.020
 2498POPC   C4B33706  31.955   7.371   7.593
 2499POPC   NC333707  33.612   9.363   9.469
 2499POPC   PO433708  33.835   9.940   9.742
 2499POPC   GL133709  33.853   9.830   9.286
 2499POPC   GL233710  34.091   9.593   9.146
 2499POPC   C1A33711  33.770   9.874   8.842
 2499POPC   D2A33712  34.038   9.870   8.484
 2499POPC   C3A33713  33.813   9.841   8.122
 2499POPC   C4A33714  33.590   9.859   7.750
 2499POPC   C1B33715  33.817   9.366   8.859
 2499POPC   C2B33716  33.845   9.391   8.461
 2499POPC   C3B33717  34.145   9.444   8.160
 2499POPC   C4B33718  33.900   9.445   7.781
 2500POPC   NC333719  18.738  11.653   9.431
 2500POPC   PO433720  19.020  12.321   9.610
 2500POPC   GL133721  18.965  12.328   9.143
 2500POPC   GL233722  18.973  11.958   9.064
 2500POPC   C1A33723  18.874  12.306   8.706
 2500POPC   D2A33724  18.838  12.091   8.306
 2500POPC   C3A33725  19.020  12.324   7.979
 2500POPC   C4A33726  19.225  12.329   7.599
 2500POPC   C1B33727  19.321  11.908   8.737
 2500POPC   C2B33728  19.367  11.809   8.287
 2500POPC   C3B33729  19.414  11.793   7.834
 2500POPC   C4B33730  18.983  11.871   7.741
 2501POPC   NC333731  29.982  29.135   9.526
 2501POPC   PO433732  30.295  28.545   9.285
 2501POPC   GL133733  30.046  28.967   9.052
 2501POPC   GL233734  29.881  29.356   9.094
 2501POPC   C1A33735  29.767  29.117   8.675
 2501POPC   D2A33736  29.622  29.196   8.241
 2501POPC   C3A33737  29.852  29.036   7.883
 2501POPC   C4A33738  29.778  28.666   7.639
 2501POPC   C1B33739  29.988  29.586   8.728
 2501POPC   C2B33740  30.083  29.451   8.310
 2501POPC   C3B33741  29.886  29.554   7.922
 2501POPC   C4B33742  29.732  29.400   7.538
 2502POPC   NC333743  21.987  25.741   9.520
 2502POPC   PO433744  22.504  26.170   9.512
 2502POPC   GL133745  22.286  26.261   9.127
 2502POPC   GL233746  22.220  25.904   9.103
 2502POPC   C1A33747  22.204  26.122   8.658
 2502POPC   D2A33748  22.225  25.768   8.380
 2502POPC   C3A33749  22.372  25.935   8.092
 2502POPC   C4A33750  22.410  26.299   7.886
 2502POPC   C1B33751  21.796  25.900   8.878
 2502POPC   C2B33752  21.724  25.837   8.434
 2502POPC   C3B33753  21.810  26.058   8.025
 2502POPC   C4B33754  21.719  25.858   7.601
 2503POPC   NC333755  37.620  38.148   9.466
 2503POPC   PO433756  37.824  37.461   9.685
 2503POPC   GL133757  37.679  37.632   9.296
 2503POPC   GL233758  37.974  37.697   9.155
 2503POPC   C1A33759  37.506  37.747   8.871
 2503POPC   D2A33760  37.620  37.833   8.463
 2503POPC   C3A33761  37.495  37.621   8.065
 2503POPC   C4A33762  37.394  37.220   7.881
 2503POPC   C1B33763  37.951  37.507   8.733
 2503POPC   C2B33764  38.011  37.566   8.300
 2503POPC   C3B33765  37.954  37.862   7.996
 2503POPC   C4B33766  37.918  37.778   7.540
 2504POPC   NC333767  41.768  37.521   9.383
 2504POPC   PO433768  41.344  37.989   9.570
 2504POPC   GL133769  41.562  37.901   9.132
 2504POPC   GL233770  41.834  38.093   9.038
 2504POPC   C1A33771  41.723  37.755   8.696
 2504POPC   D2A33772  41.719  37.891   8.254
 2504POPC   C3A33773  41.483  37.578   8.070
 2504POPC   C4A33774  41.296  37.473   7.724
 2504POPC   C1B33775  41.741  38.257   8.632
 2504POPC   C2B33776  41.968  38.351   8.282
 2504POPC   C3B33777  41.902  38.205   7.854
 2504POPC   C4B33778  41.476  37.988   7.748
 2505POPC   NC333779  39.597  33.445   9.568
 2505POPC   PO433780  40.107  32.999   9.672
 2505POPC   GL133781  39.939  33.139   9.289
 2505POPC   GL233782  39.932  32.799   9.156
 2505POPC   C1A33783  39.827  33.168   8.853
 2505POPC   D2A33784  39.754  32.836   8.559
 2505POPC   C3A33785  39.842  32.859   8.122
 2505POPC   C4A33786  39.881  32.544   7.835
 2505POPC   C1B33787  40.203  32.785   8.802
 2505POPC   C2B33788  40.305  32.882   8.384
 2505POPC   C3B33789  40.339  32.730   7.973
 2505POPC   C4B33790  40.403  32.817   7.570
 2506POPC   NC333791  30.529  17.687   9.656
 2506POPC   PO433792  31.091  17.395   9.547
 2506POPC   GL133793  30.873  17.444   9.132
 2506POPC   GL233794  30.591  17.667   9.125
 2506POPC   C1A33795  30.921  17.674   8.727
 2506POPC   D2A33796  31.106  17.751   8.323
 2506POPC   C3A33797  30.823  17.629   7.990
 2506POPC   C4A33798  30.437  17.449   7.779
 2506POPC   C1B33799  30.449  17.889   8.746
 2506POPC   C2B33800  30.633  17.982   8.359
 2506POPC   C3B33801  30.419  17.935   8.002
 2506POPC   C4B33802  30.036  17.722   7.967
 2507POPC   NC333803  20.698   9.345   9.612
 2507POPC   PO433804  20.786   8.716   9.399
 2507POPC   GL133805  20.762   8.947   9.071
 2507POPC   GL233806  20.850   9.246   9.144
 2507POPC   C1A33807  20.789   8.852   8.647
 2507POPC   D2A33808  20.656   8.662   8.255
 2507POPC   C3A33809  20.892   8.810   7.934
 2507POPC   C4A33810  20.807   9.010   7.552
 2507POPC   C1B33811  20.651   9.335   8.761
 2507POPC   C2B33812  20.819   9.300   8.358
 2507POPC   C3B33813  20.613   9.211   8.010
 2507POPC   C4B33814  20.384   9.270   7.671
 2508POPC   NC333815   9.765  13.948   9.498
 2508POPC   PO433816   9.581  13.329   9.573
 2508POPC   GL133817   9.515  13.598   9.252
 2508POPC   GL233818   9.869  13.584   9.132
 2508POPC   C1A33819   9.497  13.799   8.868
 2508POPC   D2A33820   9.752  13.621   8.546
 2508POPC   C3A33821   9.545  13.629   8.161
 2508POPC   C4A33822   9.640  13.724   7.762
 2508POPC   C1B33823   9.947  13.222   8.854
 2508POPC   C2B33824  10.117  13.208   8.438
 2508POPC   C3B33825   9.999  13.313   8.031
 2508POPC   C4B33826   9.898  13.170   7.627
 2509POPC   NC333827  30.598   8.103   9.506
 2509POPC   PO433828  31.080   8.547   9.511
 2509POPC   GL133829  30.869   8.348   9.144
 2509POPC   GL233830  30.503   8.343   9.072
 2509POPC   C1A33831  30.856   8.493   8.734
 2509POPC   D2A33832  30.660   8.278   8.433
 2509POPC   C3A33833  30.814   8.415   8.083
 2509POPC   C4A33834  30.854   8.125   7.791
 2509POPC   C1B33835  30.235   8.370   8.723
 2509POPC   C2B33836  30.153   8.330   8.298
 2509POPC   C3B33837  30.375   8.122   8.003
 2509POPC   C4B33838  30.405   7.884   7.653
 2510POPC   NC333839  32.051  30.627   9.421
 2510POPC   PO433840  32.678  30.302   9.327
 2510POPC   GL133841  32.393  30.538   9.049
 2510POPC   GL233842  31.990  30.457   8.960
 2510POPC   C1A33843  32.288  30.776   8.712
 2510POPC   D2A33844  32.330  30.962   8.360
 2510POPC   C3A33845  32.385  30.720   8.001
 2510POPC   C4A33846  32.316  31.034   7.690
 2510POPC   C1B33847  31.904  30.254   8.594
 2510POPC   C2B33848  32.080  30.278   8.196
 2510POPC   C3B33849  32.176  30.264   7.772
 2510POPC   C4B33850  32.391  30.554   7.511
 2511POPC   NC333851  29.207  37.356   9.541
 2511POPC   PO433852  29.120  38.010   9.523
 2511POPC   GL133853  29.212  37.712   9.175
 2511POPC   GL233854  28.855  37.639   9.121
 2511POPC   C1A33855  29.407  37.599   8.772
 2511POPC   D2A33856  29.623  37.751   8.388
 2511POPC   C3A33857  29.499  37.641   7.994
 2511POPC   C4A33858  29.626  37.858   7.676
 2511POPC   C1B33859  28.982  37.860   8.718
 2511POPC   C2B33860  29.108  37.598   8.329
 2511POPC   C3B33861  29.028  37.589   7.859
 2511POPC   C4B33862  28.846  37.598   7.452
 2512POPC   NC333863  31.760  25.519   9.496
 2512POPC   PO433864  31.443  24.995   9.373
 2512POPC   GL133865  31.478  25.346   9.088
 2512POPC   GL233866  31.640  25.656   9.045
 2512POPC   C1A33867  31.576  25.321   8.658
 2512POPC   D2A33868  31.406  25.062   8.344
 2512POPC   C3A33869  31.523  25.171   7.917
 2512POPC   C4A33870  31.483  25.160   7.452
 2512POPC   C1B33871  31.772  25.865   8.746
 2512POPC   C2B33872  31.683  25.741   8.360
 2512POPC   C3B33873  31.859  25.561   8.010
 2512POPC   C4B33874  31.936  25.307   7.639
 2513POPC   NC333875  33.437  22.870   9.884
 2513POPC   PO433876  33.727  23.373   9.551
 2513POPC   GL133877  33.799  23.053   9.221
 2513POPC   GL233878  33.527  22.797   9.151
 2513POPC   C1A33879  33.716  23.203   8.811
 2513POPC   D2A33880  33.499  23.216   8.439
 2513POPC   C3A33881  33.706  23.188   8.045
 2513POPC   C4A33882  33.559  23.232   7.615
 2513POPC   C1B33883  33.447  22.774   8.730
 2513POPC   C2B33884  33.652  22.735   8.325
 2513POPC   C3B33885  33.504  22.717   7.885
 2513POPC   C4B33886  33.482  22.764   7.410
 2514POPC   NC333887   0.292  36.158   9.579
 2514POPC   PO433888   0.947  35.950   9.458
 2514POPC   GL133889   0.652  36.141   9.217
 2514POPC   GL233890   0.749  36.484   9.319
 2514POPC   C1A33891   0.402  36.207   8.829
 2514POPC   D2A33892   0.203  35.995   8.457
 2514POPC   C3A33893   0.335  36.150   8.040
 2514POPC   C4A33894   0.403  35.960   7.639
 2514POPC   C1B33895   0.880  36.431   8.895
 2514POPC   C2B33896   0.680  36.510   8.493
 2514POPC   C3B33897   0.801  36.472   8.100
 2514POPC   C4B33898   0.699  36.394   7.710
 2515POPC   NC333899  22.715  41.493   9.624
 2515POPC   PO433900  23.281  41.247   9.406
 2515POPC   GL133901  22.996  41.525   9.171
 2515POPC   GL233902  22.629  41.429   9.118
 2515POPC   C1A33903  23.029  41.612   8.727
 2515POPC   D2A33904  22.815  41.779   8.363
 2515POPC   C3A33905  22.797  41.512   7.995
 2515POPC   C4A33906  23.179  41.501   7.755
 2515POPC   C1B33907  22.865  41.130   8.854
 2515POPC   C2B33908  23.085  41.075   8.473
 2515POPC   C3B33909  23.174  41.081   8.017
 2515POPC   C4B33910  22.986  40.932   7.652
 2516POPC   NC333911  16.549   0.209   9.532
 2516POPC   PO433912  16.921   0.712   9.671
 2516POPC   GL133913  16.810   0.611   9.249
 2516POPC   GL233914  16.887   0.275   9.129
 2516POPC   C1A33915  16.600   0.788   8.886
 2516POPC   D2A33916  16.519   0.711   8.459
 2516POPC   C3A33917  16.861   0.765   8.144
 2516POPC   C4A33918  16.743   0.574   7.769
 2516POPC   C1B33919  16.822   0.347   8.680
 2516POPC   C2B33920  16.816   0.272   8.220
 2516POPC   C3B33921  16.497   0.135   7.926
 2516POPC   C4B33922  16.752  44.963   7.644
 2517POPC   NC333923  19.709  22.337   9.547
 2517POPC   PO433924  20.075  21.784   9.482
 2517POPC   GL133925  19.974  22.062   9.156
 2517POPC   GL233926  19.632  22.159   9.074
 2517POPC   C1A33927  20.048  22.149   8.735
 2517POPC   D2A33928  19.842  21.997   8.374
 2517POPC   C3A33929  20.017  22.073   7.993
 2517POPC   C4A33930  19.839  22.150   7.640
 2517POPC   C1B33931  19.539  21.840   8.768
 2517POPC   C2B33932  19.375  21.770   8.352
 2517POPC   C3B33933  19.571  21.813   7.932
 2517POPC   C4B33934  19.514  21.830   7.438
 2518POPC   NC333935   5.804   9.328   9.576
 2518POPC   PO433936   5.152   9.371   9.381
 2518POPC   GL133937   5.380   9.598   9.081
 2518POPC   GL233938   5.340   9.938   9.128
 2518POPC   C1A33939   5.276   9.752   8.644
 2518POPC   D2A33940   4.883   9.783   8.371
 2518POPC   C3A33941   4.846   9.575   7.953
 2518POPC   C4A33942   5.072   9.807   7.603
 2518POPC   C1B33943   5.378  10.243   8.779
 2518POPC   C2B33944   5.215  10.193   8.338
 2518POPC   C3B33945   5.383  10.043   7.925
 2518POPC   C4B33946   5.434  10.099   7.431
 2519POPC   NC333947  26.836  12.730   9.662
 2519POPC   PO433948  27.389  12.606   9.476
 2519POPC   GL133949  27.023  12.611   9.200
 2519POPC   GL233950  26.821  12.949   9.170
 2519POPC   C1A33951  26.942  12.630   8.766
 2519POPC   D2A33952  27.076  12.968   8.470
 2519POPC   C3A33953  26.792  12.875   8.169
 2519POPC   C4A33954  27.021  12.623   7.878
 2519POPC   C1B33955  26.656  13.075   8.726
 2519POPC   C2B33956  26.570  13.318   8.333
 2519POPC   C3B33957  26.470  13.315   7.906
 2519POPC   C4B33958  26.503  13.062   7.559
 2520POPC   NC333959   8.743  10.723   9.447
 2520POPC   PO433960   9.402  10.525   9.459
 2520POPC   GL133961   9.139  10.509   9.150
 2520POPC   GL233962   8.929  10.246   9.203
 2520POPC   C1A33963   8.926  10.630   8.783
 2520POPC   D2A33964   9.083  10.738   8.370
 2520POPC   C3A33965   8.912  10.567   7.972
 2520POPC   C4A33966   8.599  10.699   7.621
 2520POPC   C1B33967   9.140  10.165   8.776
 2520POPC   C2B33968   9.026  10.229   8.346
 2520POPC   C3B33969   9.084  10.090   7.916
 2520POPC   C4B33970   9.378  10.094   7.620
 2521POPC   NC333971  12.340  15.043   9.519
 2521POPC   PO433972  11.666  15.308   9.590
 2521POPC   GL133973  11.825  15.105   9.225
 2521POPC   GL233974  12.053  15.369   9.151
 2521POPC   C1A33975  12.095  14.941   8.856
 2521POPC   D2A33976  12.224  14.784   8.437
 2521POPC   C3A33977  11.959  14.891   8.087
 2521POPC   C4A33978  11.927  14.921   7.633
 2521POPC   C1B33979  12.229  15.511   8.754
 2521POPC   C2B33980  12.384  15.275   8.389
 2521POPC   C3B33981  12.327  15.207   7.932
 2521POPC   C4B33982  12.296  15.507   7.618
 2522POPC   NC333983   5.263  29.604   9.514
 2522POPC   PO433984   5.463  30.290   9.506
 2522POPC   GL133985   5.209  30.063   9.159
 2522POPC   GL233986   5.060  29.750   9.100
 2522POPC   C1A33987   5.140  30.016   8.689
 2522POPC   D2A33988   5.344  30.075   8.303
 2522POPC   C3A33989   5.018  30.212   8.019
 2522POPC   C4A33990   4.961  30.196   7.590
 2522POPC   C1B33991   5.331  29.531   8.838
 2522POPC   C2B33992   5.322  29.555   8.406
 2522POPC   C3B33993   5.026  29.723   8.128
 2522POPC   C4B33994   4.917  29.669   7.699
 2523POPC   NC333995  29.350   9.315   9.591
 2523POPC   PO433996  28.934   8.788   9.462
 2523POPC   GL133997  29.061   8.877   9.070
 2523POPC   GL233998  29.086   9.220   9.153
 2523POPC   C1A33999  29.046   9.059   8.656
 2523POPC   D2A34000  28.771   9.151   8.312
 2523POPC   C3A34001  28.846   8.969   7.906
 2523POPC   C4A34002  28.745   8.696   7.521
 2523POPC   C1B34003  29.444   9.299   8.911
 2523POPC   C2B34004  29.506   9.311   8.498
 2523POPC   C3B34005  29.244   9.355   8.169
 2523POPC   C4B34006  29.472   9.300   7.803
 2524POPC   NC334007  32.369  12.176   9.484
 2524POPC   PO434008  31.749  11.897   9.461
 2524POPC   GL134009  31.969  12.167   9.172
 2524POPC   GL234010  32.157  11.885   9.138
 2524POPC   C1A34011  32.236  12.289   8.816
 2524POPC   D2A34012  32.514  12.337   8.473
 2524POPC   C3A34013  32.309  12.287   8.076
 2524POPC   C4A34014  32.337  12.526   7.691
 2524POPC   C1B34015  32.254  11.758   8.765
 2524POPC   C2B34016  32.197  11.907   8.389
 2524POPC   C3B34017  32.062  11.822   7.981
 2524POPC   C4B34018  31.979  12.130   7.699
 2525POPC   NC334019   4.613  15.612   9.897
 2525POPC   PO434020   4.163  15.230   9.496
 2525POPC   GL134021   4.238  15.018   9.105
 2525POPC   GL234022   3.883  15.036   9.066
 2525POPC   C1A34023   4.364  15.097   8.672
 2525POPC   D2A34024   4.407  15.459   8.381
 2525POPC   C3A34025   4.441  15.347   7.940
 2525POPC   C4A34026   4.378  14.953   7.701
 2525POPC   C1B34027   3.988  15.424   8.820
 2525POPC   C2B34028   3.899  15.543   8.377
 2525POPC   C3B34029   3.944  15.497   7.938
 2525POPC   C4B34030   3.878  15.098   7.806
 2526POPC   NC334031  44.877  31.748   9.856
 2526POPC   PO434032  44.515  31.193   9.645
 2526POPC   GL134033  44.668  31.441   9.260
 2526POPC   GL234034   0.009  31.575   9.234
 2526POPC   C1A34035  44.698  31.427   8.789
 2526POPC   D2A34036  44.758  31.210   8.372
 2526POPC   C3A34037  44.760  31.438   7.992
 2526POPC   C4A34038  44.565  31.433   7.583
 2526POPC   C1B34039   0.077  31.762   8.810
 2526POPC   C2B34040  44.875  31.748   8.382
 2526POPC   C3B34041  44.861  31.949   7.968
 2526POPC   C4B34042   0.018  31.674   7.604
 2527POPC   NC334043  23.656  31.988   9.540
 2527POPC   PO434044  23.152  32.225   9.887
 2527POPC   GL134045  23.497  32.454   9.440
 2527POPC   GL234046  23.855  32.397   9.289
 2527POPC   C1A34047  23.523  32.475   8.923
 2527POPC   D2A34048  23.692  32.647   8.500
 2527POPC   C3A34049  23.593  32.508   8.085
 2527POPC   C4A34050  23.600  32.114   7.868
 2527POPC   C1B34051  23.885  32.060   8.924
 2527POPC   C2B34052  23.862  31.948   8.471
 2527POPC   C3B34053  24.022  32.261   8.186
 2527POPC   C4B34054  24.030  32.401   7.764
 2528POPC   NC334055  20.645  19.557   9.508
 2528POPC   PO434056  20.710  20.191   9.641
 2528POPC   GL134057  20.596  19.993   9.173
 2528POPC   GL234058  20.692  19.618   9.021
 2528POPC   C1A34059  20.813  20.007   8.753
 2528POPC   D2A34060  20.702  19.714   8.429
 2528POPC   C3A34061  20.790  19.853   8.026
 2528POPC   C4A34062  20.477  20.068   7.839
 2528POPC   C1B34063  20.337  19.764   8.790
 2528POPC   C2B34064  20.106  19.571   8.453
 2528POPC   C3B34065  20.354  19.487   8.099
 2528POPC   C4B34066  20.471  19.549   7.698
 2529POPC   NC334067  38.119  15.286   9.812
 2529POPC   PO434068  37.700  14.917   9.524
 2529POPC   GL134069  37.695  15.252   9.231
 2529POPC   GL234070  37.365  15.382   9.200
 2529POPC   C1A34071  37.728  15.295   8.773
 2529POPC   D2A34072  37.566  15.423   8.398
 2529POPC   C3A34073  37.775  15.328   8.042
 2529POPC   C4A34074  37.922  15.302   7.660
 2529POPC   C1B34075  37.281  15.073   8.893
 2529POPC   C2B34076  37.201  15.019   8.477
 2529POPC   C3B34077  37.307  15.087   8.072
 2529POPC   C4B34078  37.460  15.055   7.693
 2530POPC   NC334079  29.610  34.466   9.448
 2530POPC   PO434080  29.076  34.586   9.740
 2530POPC   GL134081  29.043  34.675   9.262
 2530POPC   GL234082  29.371  34.790   9.132
 2530POPC   C1A34083  28.939  34.684   8.829
 2530POPC   D2A34084  29.129  34.469   8.469
 2530POPC   C3A34085  28.997  34.552   8.019
 2530POPC   C4A34086  28.654  34.646   7.686
 2530POPC   C1B34087  29.426  34.839   8.693
 2530POPC   C2B34088  29.378  34.850   8.238
 2530POPC   C3B34089  29.504  34.720   7.868
 2530POPC   C4B34090  29.532  34.338   7.665
 2531POPC   NC334091  15.687  42.949   9.518
 2531POPC   PO434092  16.313  43.248   9.432
 2531POPC   GL134093  16.140  43.177   9.055
 2531POPC   GL234094  15.962  42.892   9.088
 2531POPC   C1A34095  15.749  43.278   8.764
 2531POPC   D2A34096  15.727  43.139   8.311
 2531POPC   C3A34097  15.988  43.275   7.957
 2531POPC   C4A34098  15.888  43.261   7.515
 2531POPC   C1B34099  16.056  42.885   8.649
 2531POPC   C2B34100  16.028  42.710   8.263
 2531POPC   C3B34101  15.865  42.794   7.881
 2531POPC   C4B34102  16.207  42.823   7.542
 2532POPC   NC334103  21.739   8.147   9.578
 2532POPC   PO434104  22.341   8.500   9.757
 2532POPC   GL134105  22.163   8.347   9.263
 2532POPC   GL234106  22.115   8.025   9.143
 2532POPC   C1A34107  22.045   8.422   8.835
 2532POPC   D2A34108  22.145   8.060   8.559
 2532POPC   C3A34109  22.310   8.151   8.162
 2532POPC   C4A34110  22.331   8.430   7.798
 2532POPC   C1B34111  21.820   7.768   8.946
 2532POPC   C2B34112  21.802   7.683   8.515
 2532POPC   C3B34113  21.767   8.006   8.189
 2532POPC   C4B34114  21.969   8.070   7.801
 2533POPC   NC334115  39.463   4.900   9.483
 2533POPC   PO434116  38.832   5.033   9.658
 2533POPC   GL134117  39.051   5.027   9.210
 2533POPC   GL234118  39.201   4.692   9.101
 2533POPC   C1A34119  39.217   5.194   8.803
 2533POPC   D2A34120  39.065   5.515   8.486
 2533POPC   C3A34121  39.038   5.406   8.045
 2533POPC   C4A34122  39.247   5.208   7.708
 2533POPC   C1B34123  39.360   4.655   8.691
 2533POPC   C2B34124  39.093   4.713   8.335
 2533POPC   C3B34125  39.116   4.744   7.903
 2533POPC   C4B34126  39.398   4.760   7.552
 2534POPC   NC334127   2.967  43.123   9.363
 2534POPC   PO434128   2.289  43.073   9.493
 2534POPC   GL134129   2.514  42.908   9.177
 2534POPC   GL234130   2.555  43.206   9.017
 2534POPC   C1A34131   2.759  42.783   8.797
 2534POPC   D2A34132   2.732  42.932   8.365
 2534POPC   C3A34133   2.884  42.863   7.935
 2534POPC   C4A34134   2.773  43.104   7.557
 2534POPC   C1B34135   2.913  43.304   8.744
 2534POPC   C2B34136   2.898  43.436   8.340
 2534POPC   C3B34137   2.646  43.323   7.992
 2534POPC   C4B34138   2.451  43.535   7.621
 2535POPC   NC334139  12.241   2.942   9.387
 2535POPC   PO434140  11.769   2.656   9.737
 2535POPC   GL134141  11.858   2.665   9.234
 2535POPC   GL234142  12.146   2.490   9.145
 2535POPC   C1A34143  11.924   2.755   8.764
 2535POPC   D2A34144  11.822   2.965   8.347
 2535POPC   C3A34145  11.938   2.784   7.928
 2535POPC   C4A34146  12.002   2.987   7.521
 2535POPC   C1B34147  12.352   2.441   8.758
 2535POPC   C2B34148  12.142   2.513   8.350
 2535POPC   C3B34149  12.344   2.467   7.953
 2535POPC   C4B34150  12.464   2.805   7.684
 2536POPC   NC334151  23.660  23.504   9.548
 2536POPC   PO434152  24.238  23.835   9.439
 2536POPC   GL134153  23.964  23.724   9.030
 2536POPC   GL234154  23.592  23.730   9.068
 2536POPC   C1A34155  23.726  23.702   8.586
 2536POPC   D2A34156  23.420  23.864   8.260
 2536POPC   C3A34157  23.650  23.999   7.870
 2536POPC   C4A34158  23.896  23.737   7.546
 2536POPC   C1B34159  23.346  23.420   8.816
 2536POPC   C2B34160  23.463  23.303   8.381
 2536POPC   C3B34161  23.641  23.486   8.000
 2536POPC   C4B34162  23.387  23.563   7.640
 2537POPC   NC334163   3.485  32.375   9.646
 2537POPC   PO434164   2.781  32.287   9.611
 2537POPC   GL134165   3.202  32.265   9.254
 2537POPC   GL234166   3.409  32.536   9.183
 2537POPC   C1A34167   3.476  32.115   8.884
 2537POPC   D2A34168   3.629  31.983   8.470
 2537POPC   C3A34169   3.382  32.046   8.108
 2537POPC   C4A34170   3.582  32.122   7.751
 2537POPC   C1B34171   3.441  32.648   8.807
 2537POPC   C2B34172   3.388  32.429   8.455
 2537POPC   C3B34173   3.561  32.510   8.085
 2537POPC   C4B34174   3.497  32.713   7.738
 2538POPC   NC334175  31.213  42.724   9.511
 2538POPC   PO434176  31.088  43.408   9.513
 2538POPC   GL134177  31.277  43.355   9.148
 2538POPC   GL234178  31.512  43.089   9.209
 2538POPC   C1A34179  31.244  43.144   8.774
 2538POPC   D2A34180  31.206  43.276   8.390
 2538POPC   C3A34181  31.318  43.154   7.992
 2538POPC   C4A34182  31.343  43.532   7.756
 2538POPC   C1B34183  31.612  42.793   8.863
 2538POPC   C2B34184  31.654  42.671   8.435
 2538POPC   C3B34185  31.745  42.858   8.016
 2538POPC   C4B34186  31.568  42.872   7.618
 2539POPC   NC334187  11.172  10.944   9.922
 2539POPC   PO434188  11.692  11.300   9.579
 2539POPC   GL134189  11.317  11.297   9.277
 2539POPC   GL234190  11.172  10.983   9.397
 2539POPC   C1A34191  11.145  11.395   8.841
 2539POPC   D2A34192  11.435  11.369   8.464
 2539POPC   C3A34193  11.245  11.367   8.075
 2539POPC   C4A34194  11.532  11.295   7.744
 2539POPC   C1B34195  11.041  10.889   8.945
 2539POPC   C2B34196  11.020  11.019   8.498
 2539POPC   C3B34197  10.967  10.947   8.053
 2539POPC   C4B34198  11.047  11.166   7.638
 2540POPC   NC334199  24.053  21.761   9.224
 2540POPC   PO434200  23.741  21.382   9.665
 2540POPC   GL134201  23.665  21.231   9.207
 2540POPC   GL234202  24.001  21.023   9.117
 2540POPC   C1A34203  23.473  21.413   8.788
 2540POPC   D2A34204  23.524  21.605   8.325
 2540POPC   C3A34205  23.647  21.367   7.968
 2540POPC   C4A34206  23.440  21.078   7.699
 2540POPC   C1B34207  23.954  21.267   8.782
 2540POPC   C2B34208  24.007  21.446   8.416
 2540POPC   C3B34209  24.144  21.575   8.022
 2540POPC   C4B34210  23.985  21.552   7.604
 2541POPC   NC334211  21.518  23.008   9.518
 2541POPC   PO434212  20.856  23.155   9.329
 2541POPC   GL134213  21.220  23.009   9.099
 2541POPC   GL234214  21.496  23.237   9.079
 2541POPC   C1A34215  21.415  22.878   8.717
 2541POPC   D2A34216  21.213  22.769   8.327
 2541POPC   C3A34217  21.346  22.854   7.908
 2541POPC   C4A34218  21.484  22.627   7.555
 2541POPC   C1B34219  21.609  23.357   8.689
 2541POPC   C2B34220  21.643  23.152   8.334
 2541POPC   C3B34221  21.600  23.299   7.946
 2541POPC   C4B34222  21.283  23.293   7.630
 2542POPC   NC334223   4.050  10.190   9.579
 2542POPC   PO434224   4.669  10.186   9.586
 2542POPC   GL134225   4.517  10.379   9.211
 2542POPC   GL234226   4.177  10.503   9.163
 2542POPC   C1A34227   4.635  10.607   8.827
 2542POPC   D2A34228   4.321  10.728   8.506
 2542POPC   C3A34229   4.383  10.863   8.080
 2542POPC   C4A34230   4.252  10.857   7.667
 2542POPC   C1B34231   4.256  10.265   8.766
 2542POPC   C2B34232   4.158  10.272   8.319
 2542POPC   C3B34233   4.240  10.380   7.910
 2542POPC   C4B34234   4.334  10.104   7.568
 2543POPC   NC334235  34.495  16.308   9.489
 2543POPC   PO434236  34.522  15.700   9.280
 2543POPC   GL134237  34.424  16.031   9.045
 2543POPC   GL234238  34.793  16.163   9.093
 2543POPC   C1A34239  34.164  15.907   8.689
 2543POPC   D2A34240  34.195  15.889   8.248
 2543POPC   C3A34241  34.583  15.932   8.077
 2543POPC   C4A34242  34.681  15.711   7.703
 2543POPC   C1B34243  34.684  16.320   8.688
 2543POPC   C2B34244  34.702  16.501   8.289
 2543POPC   C3B34245  34.832  16.335   7.920
 2543POPC   C4B34246  34.557  16.199   7.587
 2544POPC   NC334247  29.568  36.818   9.491
 2544POPC   PO434248  28.896  37.018   9.505
 2544POPC   GL134249  29.013  37.144   9.120
 2544POPC   GL234250  29.380  37.084   9.094
 2544POPC   C1A34251  29.070  37.218   8.712
 2544POPC   D2A34252  28.968  36.979   8.399
 2544POPC   C3A34253  29.130  37.133   8.033
 2544POPC   C4A34254  28.916  37.107   7.632
 2544POPC   C1B34255  29.169  36.713   8.858
 2544POPC   C2B34256  29.266  36.555   8.428
 2544POPC   C3B34257  29.066  36.633   8.032
 2544POPC   C4B34258  29.295  36.543   7.730
 2545POPC   NC334259  27.971  13.495   9.608
 2545POPC   PO434260  28.539  13.877   9.549
 2545POPC   GL134261  28.496  13.778   9.163
 2545POPC   GL234262  28.225  13.593   9.172
 2545POPC   C1A34263  28.561  13.660   8.747
 2545POPC   D2A34264  28.338  13.646   8.391
 2545POPC   C3A34265  28.543  13.518   8.061
 2545POPC   C4A34266  28.350  13.675   7.704
 2545POPC   C1B34267  28.106  13.910   8.828
 2545POPC   C2B34268  27.991  14.045   8.389
 2545POPC   C3B34269  27.926  13.876   7.952
 2545POPC   C4B34270  27.869  13.577   7.593
 2546POPC   NC334271  28.949   3.582   9.340
 2546POPC   PO434272  29.602   3.697   9.525
 2546POPC   GL134273  29.443   3.650   9.089
 2546POPC   GL234274  29.248   3.347   8.990
 2546POPC   C1A34275  29.523   3.574   8.631
 2546POPC   D2A34276  29.357   3.251   8.353
 2546POPC   C3A34277  29.138   3.359   7.978
 2546POPC   C4A34278  29.218   3.254   7.537
 2546POPC   C1B34279  28.947   3.385   8.628
 2546POPC   C2B34280  28.686   3.329   8.222
 2546POPC   C3B34281  28.680   3.347   7.760
 2546POPC   C4B34282  28.935   3.663   7.559
 2547POPC   NC334283  34.881  42.660   9.459
 2547POPC   PO434284  34.965  41.977   9.384
 2547POPC   GL134285  34.773  42.291   9.115
 2547POPC   GL234286  34.466  42.342   9.267
 2547POPC   C1A34287  34.754  42.429   8.674
 2547POPC   D2A34288  34.799  42.202   8.285
 2547POPC   C3A34289  34.813  42.342   7.855
 2547POPC   C4A34290  34.823  42.172   7.412
 2547POPC   C1B34291  34.269  42.387   8.884
 2547POPC   C2B34292  34.297  42.385   8.419
 2547POPC   C3B34293  34.276  42.313   7.966
 2547POPC   C4B34294  34.414  42.437   7.521
 2548POPC   NC334295   0.670  43.463   9.458
 2548POPC   PO434296   0.016  43.312   9.609
 2548POPC   GL134297   0.180  43.287   9.218
 2548POPC   GL234298   0.412  42.979   9.230
 2548POPC   C1A34299   0.258  43.367   8.795
 2548POPC   D2A34300   0.323  43.103   8.431
 2548POPC   C3A34301   0.515  43.265   8.076
 2548POPC   C4A34302   0.376  43.561   7.821
 2548POPC   C1B34303   0.662  42.990   8.831
 2548POPC   C2B34304   0.791  42.917   8.384
 2548POPC   C3B34305   0.635  42.738   7.999
 2548POPC   C4B34306   0.457  42.960   7.681
 2549POPC   NC334307  20.363  16.438   9.499
 2549POPC   PO434308  20.702  17.034   9.235
 2549POPC   GL134309  20.349  16.902   9.001
 2549POPC   GL234310  20.330  16.561   9.029
 2549POPC   C1A34311  20.384  16.771   8.567
 2549POPC   D2A34312  20.670  16.644   8.270
 2549POPC   C3A34313  20.582  16.828   7.922
 2549POPC   C4A34314  20.549  16.787   7.522
 2549POPC   C1B34315  20.312  16.257   8.700
 2549POPC   C2B34316  20.429  16.192   8.263
 2549POPC   C3B34317  20.579  16.317   7.814
 2549POPC   C4B34318  20.418  16.341   7.326
 2550POPC   NC334319  19.463  10.127   9.482
 2550POPC   PO434320  19.160  10.695   9.649
 2550POPC   GL134321  19.137  10.495   9.253
 2550POPC   GL234322  19.263  10.724   8.990
 2550POPC   C1A34323  18.876  10.417   8.872
 2550POPC   D2A34324  19.076  10.513   8.478
 2550POPC   C3A34325  18.973  10.423   8.057
 2550POPC   C4A34326  18.880  10.394   7.599
 2550POPC   C1B34327  19.401  10.331   8.865
 2550POPC   C2B34328  19.467  10.160   8.471
 2550POPC   C3B34329  19.492  10.419   8.121
 2550POPC   C4B34330  19.366  10.370   7.703
 2551POPC   NC334331  21.723  12.045   9.369
 2551POPC   PO434332  22.085  12.280   9.792
 2551POPC   GL134333  22.112  12.308   9.223
 2551POPC   GL234334  21.858  12.473   9.088
 2551POPC   C1A34335  22.183  12.266   8.756
 2551POPC   D2A34336  22.166  11.939   8.447
 2551POPC   C3A34337  22.002  12.147   8.068
 2551POPC   C4A34338  22.217  12.170   7.654
 2551POPC   C1B34339  21.881  12.686   8.715
 2551POPC   C2B34340  22.022  12.623   8.321
 2551POPC   C3B34341  22.159  12.596   7.908
 2551POPC   C4B34342  22.327  12.644   7.464
 2552POPC   NC334343  38.439  38.727   9.557
 2552POPC   PO434344  38.012  38.212   9.741
 2552POPC   GL134345  38.193  38.330   9.300
 2552POPC   GL234346  38.583  38.323   9.278
 2552POPC   C1A34347  38.177  38.378   8.831
 2552POPC   D2A34348  38.055  38.154   8.440
 2552POPC   C3A34349  38.237  38.363   8.088
 2552POPC   C4A34350  38.117  38.239   7.697
 2552POPC   C1B34351  38.743  38.320   8.875
 2552POPC   C2B34352  38.582  38.531   8.499
 2552POPC   C3B34353  38.757  38.525   8.089
 2552POPC   C4B34354  38.714  38.680   7.689
 2553POPC   NC334355   3.874  33.125   9.609
 2553POPC   PO434356   3.287  32.810   9.592
 2553POPC   GL134357   3.433  33.078   9.243
 2553POPC   GL234358   3.732  32.937   9.156
 2553POPC   C1A34359   3.446  33.153   8.776
 2553POPC   D2A34360   3.480  32.937   8.374
 2553POPC   C3A34361   3.325  33.116   7.985
 2553POPC   C4A34362   3.550  33.339   7.692
 2553POPC   C1B34363   3.907  32.903   8.762
 2553POPC   C2B34364   4.016  33.079   8.377
 2553POPC   C3B34365   3.840  32.972   8.006
 2553POPC   C4B34366   3.942  32.921   7.594
 2554POPC   NC334367   5.575  29.089   9.757
 2554POPC   PO434368   6.162  28.895   9.415
 2554POPC   GL134369   5.905  29.181   9.143
 2554POPC   GL234370   5.568  29.194   9.150
 2554POPC   C1A34371   5.835  29.405   8.766
 2554POPC   D2A34372   5.894  29.202   8.343
 2554POPC   C3A34373   5.742  29.332   7.970
 2554POPC   C4A34374   5.862  29.322   7.550
 2554POPC   C1B34375   5.655  28.936   8.725
 2554POPC   C2B34376   5.797  28.694   8.352
 2554POPC   C3B34377   5.831  28.759   7.904
 2554POPC   C4B34378   5.518  28.964   7.691
 2555POPC   NC334379  29.794  15.620   9.548
 2555POPC   PO434380  30.114  15.008   9.429
 2555POPC   GL134381  30.042  15.226   9.074
 2555POPC   GL234382  29.724  15.337   9.098
 2555POPC   C1A34383  29.941  15.076   8.669
 2555POPC   D2A34384  30.078  15.113   8.247
 2555POPC   C3A34385  29.763  15.028   7.980
 2555POPC   C4A34386  29.932  14.783   7.709
 2555POPC   C1B34387  29.888  15.577   8.704
 2555POPC   C2B34388  29.833  15.554   8.235
 2555POPC   C3B34389  29.944  15.490   7.767
 2555POPC   C4B34390  29.698  15.472   7.343
 2556POPC   NC334391  34.194  14.006   9.317
 2556POPC   PO434392  33.789  13.665   9.715
 2556POPC   GL134393  33.946  13.565   9.270
 2556POPC   GL234394  33.745  13.795   9.188
 2556POPC   C1A34395  33.853  13.368   8.860
 2556POPC   D2A34396  33.567  13.402   8.487
 2556POPC   C3A34397  33.765  13.474   8.094
 2556POPC   C4A34398  33.586  13.461   7.730
 2556POPC   C1B34399  33.645  13.843   8.791
 2556POPC   C2B34400  33.848  13.866   8.435
 2556POPC   C3B34401  33.743  13.966   8.039
 2556POPC   C4B34402  33.904  13.871   7.703
 2557POPC   NC334403  28.722   0.247   9.537
 2557POPC   PO434404  28.425   0.828   9.621
 2557POPC   GL134405  28.356   0.508   9.243
 2557POPC   GL234406  28.554   0.192   9.070
 2557POPC   C1A34407  28.427   0.577   8.779
 2557POPC   D2A34408  28.273   0.747   8.393
 2557POPC   C3A34409  28.468   0.636   8.039
 2557POPC   C4A34410  28.124   0.580   7.758
 2557POPC   C1B34411  28.198   0.079   8.820
 2557POPC   C2B34412  28.092  44.972   8.396
 2557POPC   C3B34413  28.261   0.163   8.023
 2557POPC   C4B34414  28.681   0.228   7.813
 2558POPC   NC334415  36.747  44.020   9.415
 2558POPC   PO434416  36.077  43.735   9.457
 2558POPC   GL134417  35.972  43.891   9.099
 2558POPC   GL234418  35.954  44.288   9.155
 2558POPC   C1A34419  35.861  43.681   8.731
 2558POPC   D2A34420  36.088  43.815   8.395
 2558POPC   C3A34421  35.897  43.793   8.028
 2558POPC   C4A34422  36.112  43.768   7.640
 2558POPC   C1B34423  36.012  44.232   8.714
 2558POPC   C2B34424  35.962  44.338   8.287
 2558POPC   C3B34425  36.104  44.245   7.868
 2558POPC   C4B34426  36.079  44.229   7.420
 2559POPC   NC334427  22.710   4.174   9.550
 2559POPC   PO434428  23.339   4.460   9.560
 2559POPC   GL134429  23.099   4.355   9.187
 2559POPC   GL234430  22.727   4.358   9.083
 2559POPC   C1A34431  23.177   4.200   8.791
 2559POPC   D2A34432  23.064   3.998   8.431
 2559POPC   C3A34433  23.152   4.253   8.123
 2559POPC   C4A34434  22.863   4.244   7.754
 2559POPC   C1B34435  22.695   4.314   8.641
 2559POPC   C2B34436  22.641   4.263   8.234
 2559POPC   C3B34437  22.451   4.522   7.972
 2559POPC   C4B34438  22.622   4.703   7.634
 2560POPC   NC334439   4.178  24.084   9.435
 2560POPC   PO434440   4.415  24.685   9.265
 2560POPC   GL134441   4.411  24.517   8.927
 2560POPC   GL234442   4.437  24.176   9.014
 2560POPC   C1A34443   4.218  24.696   8.609
 2560POPC   D2A34444   4.080  24.833   8.265
 2560POPC   C3A34445   4.194  24.591   7.937
 2560POPC   C4A34446   4.529  24.327   7.826
 2560POPC   C1B34447   4.106  24.185   8.717
 2560POPC   C2B34448   4.280  24.254   8.327
 2560POPC   C3B34449   4.227  23.969   8.011
 2560POPC   C4B34450   3.931  24.101   7.774
 2561POPC   NC334451   5.883  38.825   9.663
 2561POPC   PO434452   5.731  39.477   9.580
 2561POPC   GL134453   5.753  39.221   9.211
 2561POPC   GL234454   6.085  39.068   9.213
 2561POPC   C1A34455   5.621  39.249   8.780
 2561POPC   D2A34456   5.438  38.971   8.503
 2561POPC   C3A34457   5.450  39.181   8.151
 2561POPC   C4A34458   5.641  39.137   7.744
 2561POPC   C1B34459   6.110  39.123   8.754
 2561POPC   C2B34460   5.938  39.076   8.321
 2561POPC   C3B34461   6.092  38.972   7.887
 2561POPC   C4B34462   5.982  38.790   7.476
 2562POPC   NC334463  24.369   1.472   9.461
 2562POPC   PO434464  24.692   0.973   9.748
 2562POPC   GL134465  24.539   1.025   9.249
 2562POPC   GL234466  24.705   1.313   9.092
 2562POPC   C1A34467  24.280   1.252   8.843
 2562POPC   D2A34468  24.412   1.475   8.476
 2562POPC   C3A34469  24.245   1.350   8.077
 2562POPC   C4A34470  23.994   1.140   7.731
 2562POPC   C1B34471  24.733   1.020   8.751
 2562POPC   C2B34472  24.788   1.106   8.335
 2562POPC   C3B34473  24.777   1.448   8.067
 2562POPC   C4B34474  24.649   1.298   7.716
 2563POPC   NC334475  11.810  10.788   9.565
 2563POPC   PO434476  11.798  10.117   9.417
 2563POPC   GL134477  11.923  10.410   9.086
 2563POPC   GL234478  12.057  10.717   9.085
 2563POPC   C1A34479  12.152  10.457   8.675
 2563POPC   D2A34480  11.935  10.553   8.290
 2563POPC   C3A34481  12.205  10.537   7.930
 2563POPC   C4A34482  12.011  10.397   7.515
 2563POPC   C1B34483  11.975  10.950   8.712
 2563POPC   C2B34484  12.155  11.008   8.311
 2563POPC   C3B34485  12.038  11.056   7.908
 2563POPC   C4B34486  12.223  10.863   7.537
 2564POPC   NC334487  44.149  31.066   9.922
 2564POPC   PO434488  44.072  30.548   9.573
 2564POPC   GL134489  44.038  30.507   9.123
 2564POPC   GL234490  43.845  30.819   9.083
 2564POPC   C1A34491  43.916  30.454   8.680
 2564POPC   D2A34492  43.821  30.888   8.489
 2564POPC   C3A34493  43.924  30.953   8.039
 2564POPC   C4A34494  44.032  30.613   7.741
 2564POPC   C1B34495  43.493  30.655   8.847
 2564POPC   C2B34496  43.463  30.509   8.413
 2564POPC   C3B34497  43.570  30.569   7.974
 2564POPC   C4B34498  43.613  30.437   7.530
 2565POPC   NC334499  35.368  38.268   9.409
 2565POPC   PO434500  35.756  38.848   9.452
 2565POPC   GL134501  35.469  38.690   9.132
 2565POPC   GL234502  35.118  38.671   9.202
 2565POPC   C1A34503  35.402  38.467   8.758
 2565POPC   D2A34504  35.100  38.315   8.482
 2565POPC   C3A34505  35.324  38.386   8.113
 2565POPC   C4A34506  35.336  38.309   7.700
 2565POPC   C1B34507  34.999  38.784   8.779
 2565POPC   C2B34508  35.150  38.821   8.344
 2565POPC   C3B34509  34.865  38.594   8.093
 2565POPC   C4B34510  34.818  38.455   7.716
 2566POPC   NC334511   1.165  44.149   9.380
 2566POPC   PO434512   1.581  43.672   9.137
 2566POPC   GL134513   1.211  43.849   8.949
 2566POPC   GL234514   1.010  43.680   9.150
 2566POPC   C1A34515   1.053  43.946   8.531
 2566POPC   D2A34516   1.437  43.985   8.292
 2566POPC   C3A34517   1.424  43.976   7.877
 2566POPC   C4A34518   1.180  44.083   7.558
 2566POPC   C1B34519   0.831  43.478   8.800
 2566POPC   C2B34520   0.869  43.444   8.386
 2566POPC   C3B34521   1.131  43.603   8.093
 2566POPC   C4B34522   1.280  43.479   7.708
 2567POPC   NC334523  32.687  32.490   9.452
 2567POPC   PO434524  33.153  32.000   9.507
 2567POPC   GL134525  32.943  32.136   9.145
 2567POPC   GL234526  32.842  31.813   9.004
 2567POPC   C1A34527  32.960  32.311   8.735
 2567POPC   D2A34528  32.791  32.446   8.351
 2567POPC   C3A34529  32.901  32.213   7.962
 2567POPC   C4A34530  32.764  32.334   7.562
 2567POPC   C1B34531  33.190  31.853   8.701
 2567POPC   C2B34532  33.241  32.083   8.328
 2567POPC   C3B34533  33.412  32.239   7.945
 2567POPC   C4B34534  33.286  32.033   7.624
 2568POPC   NC334535   7.138  16.884   9.493
 2568POPC   PO434536   7.825  16.634   9.553
 2568POPC   GL134537   7.546  16.754   9.200
 2568POPC   GL234538   7.365  16.445   9.166
 2568POPC   C1A34539   7.192  16.775   8.838
 2568POPC   D2A34540   7.146  16.478   8.461
 2568POPC   C3A34541   7.216  16.689   8.071
 2568POPC   C4A34542   7.376  17.010   7.808
 2568POPC   C1B34543   7.634  16.558   8.744
 2568POPC   C2B34544   7.682  16.824   8.363
 2568POPC   C3B34545   7.714  16.649   7.955
 2568POPC   C4B34546   7.461  16.535   7.633
 2569POPC   NC334547  25.021  22.595   9.603
 2569POPC   PO434548  24.523  23.057   9.490
 2569POPC   GL134549  24.611  22.755   9.190
 2569POPC   GL234550  24.924  22.825   9.150
 2569POPC   C1A34551  24.511  22.854   8.771
 2569POPC   D2A34552  24.286  22.810   8.410
 2569POPC   C3A34553  24.513  22.792   8.082
 2569POPC   C4A34554  24.415  23.020   7.733
 2569POPC   C1B34555  24.981  23.014   8.769
 2569POPC   C2B34556  24.952  22.829   8.395
 2569POPC   C3B34557  24.971  22.987   7.986
 2569POPC   C4B34558  24.848  22.769   7.633
 2570POPC   NC334559  26.954  24.200   9.511
 2570POPC   PO434560  27.253  24.795   9.436
 2570POPC   GL134561  27.056  24.534   9.109
 2570POPC   GL234562  26.706  24.409   9.122
 2570POPC   C1A34563  26.904  24.522   8.675
 2570POPC   D2A34564  26.728  24.770   8.335
 2570POPC   C3A34565  26.874  24.659   7.925
 2570POPC   C4A34566  26.655  24.464   7.596
 2570POPC   C1B34567  26.516  24.149   8.759
 2570POPC   C2B34568  26.408  24.179   8.296
 2570POPC   C3B34569  26.363  24.133   7.833
 2570POPC   C4B34570  26.385  24.089   7.355
 2571POPC   NC334571  14.145  44.206   9.450
 2571POPC   PO434572  14.642  43.677   9.523
 2571POPC   GL134573  14.402  43.803   9.205
 2571POPC   GL234574  14.579  44.099   9.180
 2571POPC   C1A34575  14.218  43.910   8.812
 2571POPC   D2A34576  14.373  44.126   8.465
 2571POPC   C3A34577  14.296  43.991   8.085
 2571POPC   C4A34578  14.242  43.856   7.706
 2571POPC   C1B34579  14.711  44.274   8.805
 2571POPC   C2B34580  14.789  44.392   8.350
 2571POPC   C3B34581  14.727  44.188   7.930
 2571POPC   C4B34582  14.644  44.070   7.488
 2572POPC   NC334583   4.960  38.396   9.691
 2572POPC   PO434584   5.508  38.727   9.427
 2572POPC   GL134585   5.408  38.486   9.115
 2572POPC   GL234586   5.044  38.510   9.150
 2572POPC   C1A34587   5.337  38.516   8.691
 2572POPC   D2A34588   5.172  38.255   8.399
 2572POPC   C3A34589   5.298  38.314   7.998
 2572POPC   C4A34590   5.082  38.491   7.651
 2572POPC   C1B34591   4.837  38.227   8.844
 2572POPC   C2B34592   4.659  38.217   8.428
 2572POPC   C3B34593   4.794  38.223   8.002
 2572POPC   C4B34594   4.641  37.993   7.642
 2573POPC   NC334595   3.931  37.786   9.857
 2573POPC   PO434596   4.568  37.840   9.618
 2573POPC   GL134597   4.317  37.609   9.327
 2573POPC   GL234598   4.608  37.399   9.197
 2573POPC   C1A34599   4.263  37.652   8.878
 2573POPC   D2A34600   4.623  37.715   8.579
 2573POPC   C3A34601   4.546  37.799   8.135
 2573POPC   C4A34602   4.158  37.727   7.919
 2573POPC   C1B34603   4.526  37.220   8.763
 2573POPC   C2B34604   4.414  37.039   8.377
 2573POPC   C3B34605   4.465  37.308   8.067
 2573POPC   C4B34606   4.548  37.498   7.660
 2574POPC   NC334607  31.051  30.496   9.428
 2574POPC   PO434608  30.338  30.333   9.413
 2574POPC   GL134609  30.611  30.555   9.125
 2574POPC   GL234610  30.722  30.860   9.209
 2574POPC   C1A34611  30.927  30.666   8.786
 2574POPC   D2A34612  30.759  30.506   8.418
 2574POPC   C3A34613  30.968  30.511   8.034
 2574POPC   C4A34614  31.034  30.921   7.918
 2574POPC   C1B34615  30.495  30.961   8.811
 2574POPC   C2B34616  30.300  30.915   8.412
 2574POPC   C3B34617  30.451  30.734   8.052
 2574POPC   C4B34618  30.591  30.914   7.703
 2575POPC   NC334619  38.083   6.179   9.325
 2575POPC   PO434620  38.579   5.830   9.569
 2575POPC   GL134621  38.566   5.808   9.141
 2575POPC   GL234622  38.226   5.786   9.000
 2575POPC   C1A34623  38.617   5.647   8.711
 2575POPC   D2A34624  38.716   5.907   8.381
 2575POPC   C3A34625  38.496   5.969   8.057
 2575POPC   C4A34626  38.444   5.769   7.686
 2575POPC   C1B34627  38.461   6.143   8.782
 2575POPC   C2B34628  38.378   6.345   8.421
 2575POPC   C3B34629  38.085   6.294   8.108
 2575POPC   C4B34630  38.162   6.238   7.695
 2576POPC   NC334631  33.871  20.787   9.525
 2576POPC   PO434632  34.273  20.241   9.537
 2576POPC   GL134633  34.023  20.438   9.187
 2576POPC   GL234634  33.985  20.787   9.043
 2576POPC   C1A34635  33.773  20.395   8.811
 2576POPC   D2A34636  33.834  20.277   8.385
 2576POPC   C3A34637  33.604  20.480   8.080
 2576POPC   C4A34638  33.556  20.770   7.748
 2576POPC   C1B34639  34.188  20.807   8.702
 2576POPC   C2B34640  34.026  20.733   8.339
 2576POPC   C3B34641  33.792  20.967   8.137
 2576POPC   C4B34642  33.927  21.141   7.773
 2577POPC   NC334643  25.746  13.137   9.450
 2577POPC   PO434644  26.432  12.946   9.600
 2577POPC   GL134645  26.268  12.846   9.213
 2577POPC   GL234646  26.507  12.556   9.130
 2577POPC   C1A34647  25.886  12.776   8.928
 2577POPC   D2A34648  25.774  12.954   8.544
 2577POPC   C3A34649  25.824  12.816   8.113
 2577POPC   C4A34650  25.958  13.059   7.734
 2577POPC   C1B34651  26.359  12.687   8.752
 2577POPC   C2B34652  26.276  12.885   8.398
 2577POPC   C3B34653  26.317  12.841   8.009
 2577POPC   C4B34654  26.543  12.608   7.772
 2578POPC   NC334655  16.893   9.470   9.582
 2578POPC   PO434656  16.394   9.870   9.656
 2578POPC   GL134657  16.701   9.919   9.295
 2578POPC   GL234658  16.683   9.593   9.157
 2578POPC   C1A34659  16.914   9.893   8.847
 2578POPC   D2A34660  16.875   9.678   8.434
 2578POPC   C3A34661  16.895   9.912   8.066
 2578POPC   C4A34662  16.801   9.827   7.653
 2578POPC   C1B34663  16.487   9.563   8.787
 2578POPC   C2B34664  16.296   9.252   8.555
 2578POPC   C3B34665  16.216   9.276   8.130
 2578POPC   C4B34666  16.475   9.569   7.932
 2579POPC   NC334667  10.404  17.815   9.703
 2579POPC   PO434668  10.635  17.184   9.610
 2579POPC   GL134669  10.539  17.509   9.252
 2579POPC   GL234670  10.800  17.769   9.223
 2579POPC   C1A34671  10.362  17.506   8.806
 2579POPC   D2A34672  10.237  17.240   8.399
 2579POPC   C3A34673  10.418  17.355   7.993
 2579POPC   C4A34674  10.379  17.672   7.706
 2579POPC   C1B34675  10.748  17.895   8.789
 2579POPC   C2B34676  10.662  17.733   8.372
 2579POPC   C3B34677  10.804  17.796   7.953
 2579POPC   C4B34678  10.792  17.845   7.481
 2580POPC   NC334679  31.507  17.872   9.558
 2580POPC   PO434680  31.562  17.121   9.456
 2580POPC   GL134681  31.433  17.409   9.102
 2580POPC   GL234682  31.298  17.728   9.108
 2580POPC   C1A34683  31.263  17.297   8.653
 2580POPC   D2A34684  31.208  17.239   8.208
 2580POPC   C3A34685  31.318  17.558   7.880
 2580POPC   C4A34686  31.405  17.431   7.455
 2580POPC   C1B34687  31.563  17.692   8.726
 2580POPC   C2B34688  31.597  17.590   8.333
 2580POPC   C3B34689  31.819  17.809   8.055
 2580POPC   C4B34690  31.747  17.764   7.647
 2581POPC   NC334691  22.169  12.657   9.555
 2581POPC   PO434692  22.755  13.099   9.551
 2581POPC   GL134693  22.339  13.066   9.289
 2581POPC   GL234694  22.320  12.762   9.081
 2581POPC   C1A34695  22.027  13.118   8.919
 2581POPC   D2A34696  22.140  13.130   8.472
 2581POPC   C3A34697  21.988  13.055   8.030
 2581POPC   C4A34698  21.940  12.941   7.598
 2581POPC   C1B34699  22.529  13.110   8.825
 2581POPC   C2B34700  22.711  13.076   8.467
 2581POPC   C3B34701  22.478  12.867   8.201
 2581POPC   C4B34702  22.465  12.972   7.805
 2582POPC   NC334703  15.995  27.527   9.524
 2582POPC   PO434704  15.336  27.582   9.385
 2582POPC   GL134705  15.725  27.822   9.163
 2582POPC   GL234706  15.995  27.589   9.027
 2582POPC   C1A34707  15.967  28.025   8.781
 2582POPC   D2A34708  16.150  27.773   8.450
 2582POPC   C3A34709  16.009  27.845   8.019
 2582POPC   C4A34710  15.787  27.718   7.597
 2582POPC   C1B34711  15.692  27.584   8.685
 2582POPC   C2B34712  15.804  27.448   8.269
 2582POPC   C3B34713  16.023  27.348   7.882
 2582POPC   C4B34714  15.880  27.242   7.460
 2583POPC   NC334715   0.057   1.937   9.434
 2583POPC   PO434716   0.243   2.582   9.181
 2583POPC   GL134717   0.134   2.211   9.002
 2583POPC   GL234718   0.381   1.942   9.034
 2583POPC   C1A34719   0.288   2.203   8.602
 2583POPC   D2A34720   0.588   2.289   8.300
 2583POPC   C3A34721   0.543   2.071   7.961
 2583POPC   C4A34722   0.169   2.145   7.749
 2583POPC   C1B34723   0.196   1.708   8.702
 2583POPC   C2B34724   0.200   1.836   8.265
 2583POPC   C3B34725   0.251   1.665   7.874
 2583POPC   C4B34726   0.537   1.769   7.537
 2584POPC   NC334727  29.394  24.354   9.541
 2584POPC   PO434728  29.055  24.944   9.579
 2584POPC   GL134729  29.160  24.625   9.179
 2584POPC   GL234730  29.533  24.595   9.096
 2584POPC   C1A34731  29.230  24.272   8.823
 2584POPC   D2A34732  29.482  24.307   8.401
 2584POPC   C3A34733  29.313  24.443   7.996
 2584POPC   C4A34734  29.327  24.302   7.555
 2584POPC   C1B34735  29.355  24.741   8.677
 2584POPC   C2B34736  29.108  24.845   8.277
 2584POPC   C3B34737  29.097  24.865   7.809
 2584POPC   C4B34738  29.364  24.805   7.441
 2585POPC   NC334739  28.414  41.138   9.678
 2585POPC   PO434740  28.208  41.762   9.698
 2585POPC   GL134741  28.165  41.664   9.277
 2585POPC   GL234742  28.021  41.308   9.346
 2585POPC   C1A34743  28.358  41.785   8.851
 2585POPC   D2A34744  28.560  41.770   8.427
 2585POPC   C3A34745  28.384  41.749   8.008
 2585POPC   C4A34746  28.659  41.450   7.774
 2585POPC   C1B34747  28.323  41.245   9.013
 2585POPC   C2B34748  28.313  41.331   8.586
 2585POPC   C3B34749  28.085  41.284   8.222
 2585POPC   C4B34750  28.176  41.331   7.804
 2586POPC   NC334751  22.279  28.705   9.400
 2586POPC   PO434752  22.076  28.071   9.455
 2586POPC   GL134753  22.054  28.329   9.117
 2586POPC   GL234754  22.394  28.315   9.069
 2586POPC   C1A34755  22.016  28.295   8.680
 2586POPC   D2A34756  21.698  28.159   8.422
 2586POPC   C3A34757  21.866  28.080   8.020
 2586POPC   C4A34758  22.046  28.135   7.645
 2586POPC   C1B34759  22.341  28.688   8.756
 2586POPC   C2B34760  22.205  28.685   8.324
 2586POPC   C3B34761  22.263  28.509   7.911
 2586POPC   C4B34762  22.372  28.492   7.450
 2587POPC   NC334763  11.391  14.923   9.600
 2587POPC   PO434764  10.922  15.486   9.558
 2587POPC   GL134765  11.229  15.309   9.281
 2587POPC   GL234766  10.956  15.268   9.079
 2587POPC   C1A34767  11.403  15.128   8.869
 2587POPC   D2A34768  11.280  15.029   8.388
 2587POPC   C3A34769  11.511  15.104   7.987
 2587POPC   C4A34770  11.827  15.382   7.815
 2587POPC   C1B34771  10.977  15.368   8.688
 2587POPC   C2B34772  10.871  15.326   8.304
 2587POPC   C3B34773  11.155  15.478   8.030
 2587POPC   C4B34774  11.063  15.202   7.757
 2588POPC   NC334775  21.508  20.003   9.745
 2588POPC   PO434776  21.019  19.828   9.360
 2588POPC   GL134777  21.447  19.855   9.191
 2588POPC   GL234778  21.310  20.085   9.002
 2588POPC   C1A34779  21.470  19.661   8.771
 2588POPC   D2A34780  21.217  19.858   8.456
 2588POPC   C3A34781  21.366  19.815   8.061
 2588POPC   C4A34782  21.139  19.529   7.813
 2588POPC   C1B34783  21.633  20.137   8.687
 2588POPC   C2B34784  21.430  20.309   8.338
 2588POPC   C3B34785  21.139  20.268   8.020
 2588POPC   C4B34786  21.384  20.259   7.671
 2589POPC   NC334787   1.645  39.405   9.529
 2589POPC   PO434788   1.032  39.017   9.545
 2589POPC   GL134789   0.969  39.117   9.086
 2589POPC   GL234790   1.205  39.388   9.135
 2589POPC   C1A34791   0.804  39.445   8.774
 2589POPC   D2A34792   0.905  39.678   8.385
 2589POPC   C3A34793   0.878  39.418   8.027
 2589POPC   C4A34794   0.943  38.974   7.850
 2589POPC   C1B34795   1.306  39.296   8.696
 2589POPC   C2B34796   1.235  39.101   8.282
 2589POPC   C3B34797   1.354  39.278   7.880
 2589POPC   C4B34798   1.740  39.430   7.732
 2590POPC   NC334799  31.673  40.210   9.444
 2590POPC   PO434800  31.065  40.354   9.497
 2590POPC   GL134801  31.271  40.048   9.166
 2590POPC   GL234802  31.542  39.758   9.180
 2590POPC   C1A34803  31.537  40.126   8.780
 2590POPC   D2A34804  31.441  40.287   8.368
 2590POPC   C3A34805  31.340  40.043   7.985
 2590POPC   C4A34806  31.419  40.011   7.542
 2590POPC   C1B34807  31.667  39.622   8.740
 2590POPC   C2B34808  31.813  39.795   8.325
 2590POPC   C3B34809  31.715  39.722   7.865
 2590POPC   C4B34810  31.299  39.564   7.754
 2591POPC   NC334811   9.664  27.174   9.479
 2591POPC   PO434812   9.602  27.855   9.512
 2591POPC   GL134813   9.809  27.722   9.127
 2591POPC   GL234814   9.814  27.410   9.066
 2591POPC   C1A34815   9.817  27.814   8.679
 2591POPC   D2A34816   9.785  27.600   8.284
 2591POPC   C3A34817   9.805  27.837   7.915
 2591POPC   C4A34818   9.707  28.026   7.476
 2591POPC   C1B34819   9.659  27.301   8.688
 2591POPC   C2B34820   9.749  27.090   8.316
 2591POPC   C3B34821   9.629  27.248   7.921
 2591POPC   C4B34822   9.899  27.431   7.648
 2592POPC   NC334823  44.416   8.311   9.592
 2592POPC   PO434824   0.089   8.401   9.768
 2592POPC   GL134825  44.932   8.352   9.295
 2592POPC   GL234826  44.760   8.042   9.275
 2592POPC   C1A34827  44.943   8.166   8.840
 2592POPC   D2A34828  44.998   7.964   8.430
 2592POPC   C3A34829  44.865   8.156   8.014
 2592POPC   C4A34830  44.865   8.069   7.530
 2592POPC   C1B34831  44.454   8.224   8.945
 2592POPC   C2B34832  44.565   8.291   8.491
 2592POPC   C3B34833  44.356   8.225   8.118
 2592POPC   C4B34834  44.443   8.281   7.708
 2593POPC   NC334835   1.113  12.565   9.506
 2593POPC   PO434836   0.938  13.278   9.404
 2593POPC   GL134837   1.121  12.955   9.152
 2593POPC   GL234838   0.923  12.658   9.049
 2593POPC   C1A34839   1.461  12.763   8.923
 2593POPC   D2A34840   1.558  12.791   8.472
 2593POPC   C3A34841   1.291  12.840   8.082
 2593POPC   C4A34842   1.505  12.732   7.657
 2593POPC   C1B34843   1.052  12.848   8.651
 2593POPC   C2B34844   0.962  13.143   8.377
 2593POPC   C3B34845   0.816  13.110   7.978
 2593POPC   C4B34846   1.089  13.035   7.629
 2594POPC   NC334847  43.268  38.231   9.570
 2594POPC   PO434848  42.985  38.846   9.648
 2594POPC   GL134849  42.969  38.676   9.201
 2594POPC   GL234850  43.059  38.328   9.113
 2594POPC   C1A34851  42.936  38.838   8.772
 2594POPC   D2A34852  42.780  38.843   8.330
 2594POPC   C3A34853  43.141  38.738   8.013
 2594POPC   C4A34854  43.197  38.384   7.726
 2594POPC   C1B34855  43.292  38.217   8.740
 2594POPC   C2B34856  43.291  38.275   8.266
 2594POPC   C3B34857  43.473  38.014   7.953
 2594POPC   C4B34858  43.597  38.111   7.542
 2595POPC   NC334859  24.833  33.625   9.378
 2595POPC   PO434860  24.169  33.745   9.464
 2595POPC   GL134861  24.406  33.870   9.122
 2595POPC   GL234862  24.731  34.019   9.108
 2595POPC   C1A34863  24.407  34.037   8.724
 2595POPC   D2A34864  24.547  33.913   8.333
 2595POPC   C3A34865  24.353  33.758   7.979
 2595POPC   C4A34866  24.186  33.859   7.572
 2595POPC   C1B34867  24.794  33.693   8.740
 2595POPC   C2B34868  24.843  33.470   8.341
 2595POPC   C3B34869  24.900  33.718   7.983
 2595POPC   C4B34870  24.669  33.658   7.611
 2596POPC   NC334871   8.613  14.283   9.575
 2596POPC   PO434872   8.059  14.704   9.770
 2596POPC   GL134873   8.038  14.522   9.298
 2596POPC   GL234874   8.027  14.173   9.146
 2596POPC   C1A34875   7.967  14.597   8.825
 2596POPC   D2A34876   8.203  14.648   8.415
 2596POPC   C3A34877   8.033  14.668   7.990
 2596POPC   C4A34878   8.054  14.537   7.527
 2596POPC   C1B34879   8.157  14.155   8.664
 2596POPC   C2B34880   7.911  14.181   8.297
 2596POPC   C3B34881   7.963  14.161   7.867
 2596POPC   C4B34882   8.386  14.096   7.756
 2597POPC   NC334883  16.459  33.692   9.552
 2597POPC   PO434884  17.137  33.731   9.376
 2597POPC   GL134885  16.779  33.649   9.146
 2597POPC   GL234886  16.546  33.915   9.113
 2597POPC   C1A34887  16.540  33.469   8.817
 2597POPC   D2A34888  16.579  33.700   8.444
 2597POPC   C3A34889  16.807  33.642   8.089
 2597POPC   C4A34890  16.790  33.656   7.652
 2597POPC   C1B34891  16.255  33.891   8.823
 2597POPC   C2B34892  16.212  34.062   8.436
 2597POPC   C3B34893  16.266  33.875   8.069
 2597POPC   C4B34894  16.313  33.863   7.637
 2598POPC   NC334895  38.353  35.655   9.349
 2598POPC   PO434896  38.536  34.980   9.506
 2598POPC   GL134897  38.546  35.178   9.120
 2598POPC   GL234898  38.744  35.473   9.101
 2598POPC   C1A34899  38.448  35.295   8.713
 2598POPC   D2A34900  38.242  35.649   8.519
 2598POPC   C3A34901  38.250  35.580   8.093
 2598POPC   C4A34902  38.327  35.213   7.858
 2598POPC   C1B34903  38.723  35.719   8.715
 2598POPC   C2B34904  38.779  35.698   8.262
 2598POPC   C3B34905  38.721  35.623   7.812
 2598POPC   C4B34906  38.920  35.751   7.396
 2599POPC   NC334907  17.370   0.639   9.638
 2599POPC   PO434908  17.730   0.164   9.457
 2599POPC   GL134909  17.391   0.278   9.197
 2599POPC   GL234910  17.310   0.646   9.135
 2599POPC   C1A34911  17.302   0.168   8.768
 2599POPC   D2A34912  17.440  44.935   8.374
 2599POPC   C3A34913  17.545   0.222   8.043
 2599POPC   C4A34914  17.201   0.378   7.826
 2599POPC   C1B34915  17.712   0.618   8.904
 2599POPC   C2B34916  17.640   0.465   8.501
 2599POPC   C3B34917  17.461   0.701   8.172
 2599POPC   C4B34918  17.690   0.646   7.771
 2600POPC   NC334919  44.983  22.254   9.802
 2600POPC   PO434920  44.394  21.922   9.666
 2600POPC   GL134921  44.612  22.020   9.298
 2600POPC   GL234922  44.470  21.711   9.175
 2600POPC   C1A34923  44.667  22.332   8.945
 2600POPC   D2A34924  44.838  22.438   8.524
 2600POPC   C3A34925  44.715  22.150   8.188
 2600POPC   C4A34926  44.623  22.119   7.761
 2600POPC   C1B34927  44.379  21.922   8.812
 2600POPC   C2B34928  44.170  21.873   8.446
 2600POPC   C3B34929  44.286  21.860   8.052
 2600POPC   C4B34930  44.146  21.979   7.678
 2601POPC   NC334931  42.232  19.797   9.394
 2601POPC   PO434932  41.532  19.934   9.598
 2601POPC   GL134933  41.710  19.893   9.202
 2601POPC   GL234934  41.360  19.899   9.078
 2601POPC   C1A34935  41.779  20.000   8.748
 2601POPC   D2A34936  41.590  20.049   8.328
 2601POPC   C3A34937  41.837  19.977   7.927
 2601POPC   C4A34938  41.776  19.919   7.468
 2601POPC   C1B34939  41.197  19.854   8.667
 2601POPC   C2B34940  41.186  19.674   8.243
 2601POPC   C3B34941  41.422  19.695   7.837
 2601POPC   C4B34942  41.277  19.871   7.398
 2602POPC   NC334943   5.304  27.260   9.491
 2602POPC   PO434944   4.950  26.671   9.550
 2602POPC   GL134945   4.837  26.792   9.139
 2602POPC   GL234946   5.121  26.936   9.101
 2602POPC   C1A34947   4.969  26.651   8.703
 2602POPC   D2A34948   4.801  26.569   8.302
 2602POPC   C3A34949   5.038  26.749   8.009
 2602POPC   C4A34950   4.953  26.948   7.655
 2602POPC   C1B34951   5.325  27.078   8.734
 2602POPC   C2B34952   5.393  26.910   8.339
 2602POPC   C3B34953   5.365  27.140   7.951
 2602POPC   C4B34954   5.471  27.010   7.543
 2603POPC   NC334955  34.699  29.279   9.556
 2603POPC   PO434956  35.043  28.658   9.407
 2603POPC   GL134957  34.848  28.957   9.144
 2603POPC   GL234958  34.478  29.075   9.157
 2603POPC   C1A34959  34.726  28.914   8.711
 2603POPC   D2A34960  34.834  28.861   8.263
 2603POPC   C3A34961  34.784  29.194   7.947
 2603POPC   C4A34962  34.794  28.941   7.584
 2603POPC   C1B34963  34.313  29.249   8.793
 2603POPC   C2B34964  34.468  29.253   8.381
 2603POPC   C3B34965  34.299  29.370   8.012
 2603POPC   C4B34966  34.248  29.231   7.628
 2604POPC   NC334967   2.720  37.135   9.549
 2604POPC   PO434968   2.824  37.780   9.416
 2604POPC   GL134969   2.769  37.475   9.116
 2604POPC   GL234970   2.433  37.296   9.103
 2604POPC   C1A34971   2.969  37.635   8.739
 2604POPC   D2A34972   3.091  38.020   8.486
 2604POPC   C3A34973   3.234  37.874   8.083
 2604POPC   C4A34974   2.946  37.574   7.889
 2604POPC   C1B34975   2.427  37.572   8.741
 2604POPC   C2B34976   2.648  37.647   8.344
 2604POPC   C3B34977   2.496  37.813   7.971
 2604POPC   C4B34978   2.226  37.684   7.689
 2605POPC   NC334979  28.083  43.394   9.503
 2605POPC   PO434980  28.258  42.716   9.638
 2605POPC   GL134981  28.306  42.765   9.181
 2605POPC   GL234982  28.371  43.105   9.170
 2605POPC   C1A34983  28.358  42.765   8.738
 2605POPC   D2A34984  28.180  42.965   8.394
 2605POPC   C3A34985  28.391  43.026   8.028
 2605POPC   C4A34986  28.160  43.086   7.695
 2605POPC   C1B34987  28.365  43.392   8.817
 2605POPC   C2B34988  28.555  43.375   8.421
 2605POPC   C3B34989  28.570  43.534   8.018
 2605POPC   C4B34990  28.958  43.531   7.839
 2606POPC   NC334991  13.485  44.957   9.429
 2606POPC   PO434992  13.690  44.344   9.420
 2606POPC   GL134993  13.782  44.612   9.124
 2606POPC   GL234994  14.023  44.841   9.283
 2606POPC   C1A34995  13.564  44.742   8.771
 2606POPC   D2A34996  13.280  44.907   8.471
 2606POPC   C3A34997  13.364  44.732   8.065
 2606POPC   C4A34998  13.681  44.558   7.792
 2606POPC   C1B34999  14.009   0.021   8.870
 2606POPC   C2B35000  13.796   0.067   8.467
 2606POPC   C3B35001  13.839  44.983   8.047
 2606POPC   C4B35002  13.545   0.063   7.715
 2607POPC   NC335003  43.754  29.445   9.425
 2607POPC   PO435004  43.529  28.863   9.218
 2607POPC   GL135005  43.796  29.139   9.027
 2607POPC   GL235006  44.103  29.148   9.169
 2607POPC   C1A35007  43.896  29.273   8.643
 2607POPC   D2A35008  43.694  29.159   8.285
 2607POPC   C3A35009  43.848  29.358   7.955
 2607POPC   C4A35010  43.645  29.432   7.572
 2607POPC   C1B35011  44.276  28.957   8.814
 2607POPC   C2B35012  44.220  28.955   8.373
 2607POPC   C3B35013  44.177  28.967   7.930
 2607POPC   C4B35014  43.801  28.932   7.667
 2608POPC   NC335015   1.068  14.598   9.487
 2608POPC   PO435016   1.704  14.274   9.494
 2608POPC   GL135017   1.356  14.188   9.215
 2608POPC   GL235018   0.989  14.151   9.209
 2608POPC   C1A35019   1.224  14.377   8.819
 2608POPC   D2A35020   1.350  14.558   8.448
 2608POPC   C3A35021   1.112  14.560   8.093
 2608POPC   C4A35022   1.415  14.632   7.789
 2608POPC   C1B35023   0.771  14.145   8.830
 2608POPC   C2B35024   0.898  14.133   8.404
 2608POPC   C3B35025   0.798  14.150   7.963
 2608POPC   C4B35026   1.063  14.282   7.653
 2609POPC   NC335027  42.010  44.681   9.369
 2609POPC   PO435028  42.565  44.394   9.718
 2609POPC   GL135029  42.485  44.525   9.235
 2609POPC   GL235030  42.455  44.876   9.189
 2609POPC   C1A35031  42.479  44.534   8.757
 2609POPC   D2A35032  42.510  44.801   8.341
 2609POPC   C3A35033  42.459  44.643   7.898
 2609POPC   C4A35034  42.408  44.643   7.425
 2609POPC   C1B35035  42.308   0.009   8.772
 2609POPC   C2B35036  42.062   0.079   8.408
 2609POPC   C3B35037  42.124   0.241   7.995
 2609POPC   C4B35038  42.313   0.109   7.612
 2610POPC   NC335039   4.877   3.694   9.532
 2610POPC   PO435040   5.168   3.280   9.968
 2610POPC   GL135041   5.331   3.249   9.426
 2610POPC   GL235042   5.680   3.294   9.359
 2610POPC   C1A35043   5.341   3.494   8.963
 2610POPC   D2A35044   5.395   3.566   8.472
 2610POPC   C3A35045   5.055   3.716   8.169
 2610POPC   C4A35046   4.939   3.826   7.714
 2610POPC   C1B35047   5.755   3.226   8.915
 2610POPC   C2B35048   5.784   3.206   8.461
 2610POPC   C3B35049   5.554   3.226   8.079
 2610POPC   C4B35050   5.286   3.444   7.815
 2611POPC   NC335051  38.974  30.228   9.525
 2611POPC   PO435052  39.148  29.605   9.281
 2611POPC   GL135053  39.061  29.945   9.054
 2611POPC   GL235054  39.303  30.221   9.137
 2611POPC   C1A35055  39.021  29.804   8.629
 2611POPC   D2A35056  39.224  29.730   8.245
 2611POPC   C3A35057  38.940  29.823   7.937
 2611POPC   C4A35058  39.001  29.969   7.498
 2611POPC   C1B35059  39.471  30.046   8.748
 2611POPC   C2B35060  39.469  30.186   8.330
 2611POPC   C3B35061  39.365  30.135   7.906
 2611POPC   C4B35062  39.636  30.162   7.536
 2612POPC   NC335063  42.757  29.383   9.464
 2612POPC   PO435064  43.377  29.224   9.587
 2612POPC   GL135065  43.284  29.310   9.144
 2612POPC   GL235066  42.945  29.209   9.027
 2612POPC   C1A35067  43.378  29.207   8.706
 2612POPC   D2A35068  43.144  29.175   8.356
 2612POPC   C3A35069  43.282  29.312   7.958
 2612POPC   C4A35070  42.870  29.345   7.821
 2612POPC   C1B35071  43.005  28.831   8.766
 2612POPC   C2B35072  43.324  28.700   8.469
 2612POPC   C3B35073  43.324  28.813   8.034
 2612POPC   C4B35074  42.966  28.840   7.749
 2613POPC   NC335075  42.997  12.323   9.530
 2613POPC   PO435076  43.430  11.836   9.648
 2613POPC   GL135077  43.123  11.867   9.280
 2613POPC   GL235078  42.768  11.978   9.228
 2613POPC   C1A35079  43.206  11.758   8.838
 2613POPC   D2A35080  43.098  11.894   8.420
 2613POPC   C3A35081  43.014  11.716   8.012
 2613POPC   C4A35082  43.257  11.956   7.701
 2613POPC   C1B35083  42.754  12.109   8.802
 2613POPC   C2B35084  42.664  12.181   8.363
 2613POPC   C3B35085  42.813  12.185   7.916
 2613POPC   C4B35086  42.813  12.052   7.463
 2614POPC   NC335087  12.590  37.849   9.662
 2614POPC   PO435088  11.850  37.734   9.548
 2614POPC   GL135089  11.964  37.629   9.116
 2614POPC   GL235090  12.314  37.681   9.031
 2614POPC   C1A35091  11.986  37.908   8.712
 2614POPC   D2A35092  12.186  37.852   8.326
 2614POPC   C3A35093  12.067  37.589   7.992
 2614POPC   C4A35094  12.235  37.713   7.612
 2614POPC   C1B35095  12.139  37.440   8.662
 2614POPC   C2B35096  12.175  37.184   8.284
 2614POPC   C3B35097  12.365  37.170   7.908
 2614POPC   C4B35098  12.130  37.236   7.580
 2615POPC   NC335099  35.064  24.032   9.538
 2615POPC   PO435100  35.545  23.484   9.412
 2615POPC   GL135101  35.248  23.702   9.188
 2615POPC   GL235102  35.452  23.958   9.093
 2615POPC   C1A35103  35.156  23.735   8.753
 2615POPC   D2A35104  35.097  23.507   8.383
 2615POPC   C3A35105  35.204  23.711   8.013
 2615POPC   C4A35106  35.471  23.519   7.717
 2615POPC   C1B35107  35.707  23.855   8.764
 2615POPC   C2B35108  35.527  23.880   8.388
 2615POPC   C3B35109  35.688  23.902   7.992
 2615POPC   C4B35110  35.525  24.014   7.610
 2616POPC   NC335111  35.893  24.583   9.441
 2616POPC   PO435112  36.515  24.261   9.483
 2616POPC   GL135113  36.290  24.410   9.129
 2616POPC   GL235114  35.960  24.223   9.102
 2616POPC   C1A35115  36.248  24.581   8.728
 2616POPC   D2A35116  35.992  24.725   8.392
 2616POPC   C3A35117  36.211  24.580   8.020
 2616POPC   C4A35118  36.216  24.704   7.585
 2616POPC   C1B35119  35.789  24.354   8.732
 2616POPC   C2B35120  35.894  24.239   8.313
 2616POPC   C3B35121  35.745  24.418   7.900
 2616POPC   C4B35122  35.771  24.436   7.446
 2617POPC   NC335123  42.878  13.110   9.547
 2617POPC   PO435124  43.391  12.616   9.519
 2617POPC   GL135125  43.150  12.840   9.179
 2617POPC   GL235126  42.848  12.627   9.086
 2617POPC   C1A35127  43.216  13.052   8.748
 2617POPC   D2A35128  43.152  12.937   8.310
 2617POPC   C3A35129  43.437  12.829   7.968
 2617POPC   C4A35130  43.182  12.518   7.746
 2617POPC   C1B35131  42.713  13.013   8.861
 2617POPC   C2B35132  42.757  13.230   8.435
 2617POPC   C3B35133  42.763  13.061   7.996
 2617POPC   C4B35134  42.761  13.161   7.543
 2618POPC   NC335135   7.367  28.033   9.643
 2618POPC   PO435136   7.218  27.308   9.543
 2618POPC   GL135137   7.273  27.410   9.110
 2618POPC   GL235138   7.609  27.510   9.069
 2618POPC   C1A35139   7.269  27.575   8.716
 2618POPC   D2A35140   7.562  27.548   8.401
 2618POPC   C3A35141   7.289  27.587   8.086
 2618POPC   C4A35142   7.089  27.512   7.680
 2618POPC   C1B35143   7.639  27.898   8.778
 2618POPC   C2B35144   7.755  28.061   8.393
 2618POPC   C3B35145   7.770  27.846   8.012
 2618POPC   C4B35146   7.460  27.840   7.693
 2619POPC   NC335147   5.614  12.047   9.451
 2619POPC   PO435148   6.274  12.265   9.526
 2619POPC   GL135149   6.088  11.994   9.209
 2619POPC   GL235150   5.921  12.267   9.084
 2619POPC   C1A35151   5.861  11.859   8.795
 2619POPC   D2A35152   5.710  11.918   8.343
 2619POPC   C3A35153   6.022  11.867   8.017
 2619POPC   C4A35154   6.189  12.175   7.722
 2619POPC   C1B35155   5.882  12.407   8.658
 2619POPC   C2B35156   5.883  12.521   8.228
 2619POPC   C3B35157   5.710  12.285   7.889
 2619POPC   C4B35158   5.679  11.890   7.651
 2620POPC   NC335159  21.367  24.968   9.389
 2620POPC   PO435160  21.583  25.540   9.693
 2620POPC   GL135161  21.490  25.509   9.229
 2620POPC   GL235162  21.228  25.281   9.027
 2620POPC   C1A35163  21.647  25.409   8.818
 2620POPC   D2A35164  21.368  25.266   8.527
 2620POPC   C3A35165  21.450  25.306   8.097
 2620POPC   C4A35166  21.446  25.397   7.661
 2620POPC   C1B35167  20.977  25.007   8.730
 2620POPC   C2B35168  20.941  24.814   8.324
 2620POPC   C3B35169  21.088  24.970   7.916
 2620POPC   C4B35170  21.192  24.928   7.464
 2621POPC   NC335171  15.406   6.005   9.504
 2621POPC   PO435172  14.809   5.545   9.495
 2621POPC   GL135173  14.999   5.790   9.204
 2621POPC   GL235174  14.808   6.079   9.166
 2621POPC   C1A35175  15.188   5.698   8.806
 2621POPC   D2A35176  15.511   5.751   8.476
 2621POPC   C3A35177  15.323   5.717   8.095
 2621POPC   C4A35178  15.020   5.679   7.752
 2621POPC   C1B35179  15.015   6.176   8.820
 2621POPC   C2B35180  14.900   5.970   8.449
 2621POPC   C3B35181  14.983   6.104   8.069
 2621POPC   C4B35182  15.286   6.127   7.812
 2622POPC   NC335183   1.894  34.916   9.607
 2622POPC   PO435184   2.331  35.380   9.557
 2622POPC   GL135185   1.982  35.297   9.249
 2622POPC   GL235186   1.942  35.594   9.107
 2622POPC   C1A35187   1.854  35.202   8.770
 2622POPC   D2A35188   2.026  35.236   8.315
 2622POPC   C3A35189   1.766  35.278   7.974
 2622POPC   C4A35190   1.740  35.511   7.613
 2622POPC   C1B35191   2.122  35.669   8.745
 2622POPC   C2B35192   1.898  35.718   8.394
 2622POPC   C3B35193   2.068  35.683   8.021
 2622POPC   C4B35194   2.198  35.709   7.649
 2623POPC   NC335195  12.799   8.434   9.636
 2623POPC   PO435196  13.132   7.818   9.550
 2623POPC   GL135197  13.097   8.029   9.143
 2623POPC   GL235198  12.839   8.305   9.122
 2623POPC   C1A35199  12.946   7.982   8.713
 2623POPC   D2A35200  12.684   7.995   8.372
 2623POPC   C3A35201  12.875   7.977   7.998
 2623POPC   C4A35202  12.886   8.187   7.629
 2623POPC   C1B35203  13.166   8.432   8.782
 2623POPC   C2B35204  13.138   8.296   8.334
 2623POPC   C3B35205  12.964   8.537   7.990
 2623POPC   C4B35206  13.065   8.642   7.499
 2624POPC   NC335207  14.845  39.038   9.638
 2624POPC   PO435208  14.234  39.319   9.500
 2624POPC   GL135209  14.402  39.113   9.187
 2624POPC   GL235210  14.730  39.302   9.180
 2624POPC   C1A35211  14.204  38.918   8.814
 2624POPC   D2A35212  14.164  39.123   8.439
 2624POPC   C3A35213  14.420  39.139   8.100
 2624POPC   C4A35214  14.325  39.322   7.715
 2624POPC   C1B35215  14.619  39.243   8.743
 2624POPC   C2B35216  14.620  39.483   8.381
 2624POPC   C3B35217  14.766  39.470   7.907
 2624POPC   C4B35218  14.754  39.445   7.401
 2625POPC   NC335219  26.445  21.737   9.544
 2625POPC   PO435220  25.900  21.308   9.547
 2625POPC   GL135221  26.013  21.563   9.227
 2625POPC   GL235222  26.316  21.482   9.034
 2625POPC   C1A35223  25.851  21.605   8.822
 2625POPC   D2A35224  26.040  21.549   8.437
 2625POPC   C3A35225  25.759  21.498   8.090
 2625POPC   C4A35226  25.907  21.468   7.677
 2625POPC   C1B35227  26.558  21.177   8.742
 2625POPC   C2B35228  26.394  21.158   8.343
 2625POPC   C3B35229  26.402  21.259   7.923
 2625POPC   C4B35230  26.476  20.855   7.783
 2626POPC   NC335231   0.975   1.714   9.494
 2626POPC   PO435232   1.324   1.180   9.503
 2626POPC   GL135233   1.159   1.075   9.086
 2626POPC   GL235234   1.037   1.420   9.059
 2626POPC   C1A35235   1.156   0.903   8.642
 2626POPC   D2A35236   1.370   0.811   8.236
 2626POPC   C3A35237   1.136   0.959   7.866
 2626POPC   C4A35238   1.185   1.285   7.521
 2626POPC   C1B35239   0.830   1.322   8.665
 2626POPC   C2B35240   1.046   1.263   8.276
 2626POPC   C3B35241   1.260   1.493   7.967
 2626POPC   C4B35242   1.214   1.795   7.594
 2627POPC   NC335243  12.532  30.873   9.551
 2627POPC   PO435244  13.192  30.624   9.564
 2627POPC   GL135245  12.872  30.659   9.210
 2627POPC   GL235246  12.759  31.002   9.117
 2627POPC   C1A35247  12.687  30.595   8.806
 2627POPC   D2A35248  12.860  30.649   8.415
 2627POPC   C3A35249  12.760  30.457   8.048
 2627POPC   C4A35250  13.050  30.549   7.727
 2627POPC   C1B35251  13.022  31.007   8.766
 2627POPC   C2B35252  13.152  31.056   8.346
 2627POPC   C3B35253  12.887  30.964   7.984
 2627POPC   C4B35254  12.813  30.989   7.511
 2628POPC   NC335255   4.978   4.651   9.261
 2628POPC   PO435256   5.214   4.021   9.583
 2628POPC   GL135257   5.239   4.201   9.165
 2628POPC   GL235258   5.503   4.415   9.102
 2628POPC   C1A35259   5.277   4.153   8.707
 2628POPC   D2A35260   5.482   4.073   8.310
 2628POPC   C3A35261   5.214   4.188   7.968
 2628POPC   C4A35262   5.048   4.551   7.764
 2628POPC   C1B35263   5.328   4.676   8.701
 2628POPC   C2B35264   5.243   4.678   8.230
 2628POPC   C3B35265   5.350   4.960   7.861
 2628POPC   C4B35266   5.167   4.975   7.445
 2629POPC   NC335267  42.137  21.694   9.959
 2629POPC   PO435268  42.442  21.147   9.616
 2629POPC   GL135269  42.522  21.356   9.225
 2629POPC   GL235270  42.209  21.473   9.040
 2629POPC   C1A35271  42.667  21.490   8.817
 2629POPC   D2A35272  42.417  21.503   8.469
 2629POPC   C3A35273  42.500  21.324   8.070
 2629POPC   C4A35274  42.448  21.244   7.636
 2629POPC   C1B35275  41.976  21.375   8.687
 2629POPC   C2B35276  41.951  21.545   8.249
 2629POPC   C3B35277  42.016  21.460   7.817
 2629POPC   C4B35278  41.818  21.381   7.388
 2630POPC   NC335279  31.089  28.012   9.632
 2630POPC   PO435280  31.614  27.562   9.583
 2630POPC   GL135281  31.475  27.526   9.189
 2630POPC   GL235282  31.328  27.847   9.151
 2630POPC   C1A35283  31.670  27.690   8.806
 2630POPC   D2A35284  31.533  27.577   8.422
 2630POPC   C3A35285  31.530  27.793   8.065
 2630POPC   C4A35286  31.225  27.511   7.842
 2630POPC   C1B35287  31.203  27.922   8.718
 2630POPC   C2B35288  31.075  27.836   8.251
 2630POPC   C3B35289  31.035  27.980   7.808
 2630POPC   C4B35290  31.173  27.943   7.362
 2631POPC   NC335291  41.213   4.133   9.466
 2631POPC   PO435292  41.753   4.431   9.625
 2631POPC   GL135293  41.630   4.245   9.160
 2631POPC   GL235294  41.330   4.038   8.994
 2631POPC   C1A35295  41.498   4.400   8.696
 2631POPC   D2A35296  41.677   4.390   8.291
 2631POPC   C3A35297  41.472   4.623   7.967
 2631POPC   C4A35298  41.489   4.596   7.523
 2631POPC   C1B35299  41.735   3.874   8.833
 2631POPC   C2B35300  41.913   3.910   8.442
 2631POPC   C3B35301  41.705   3.925   8.050
 2631POPC   C4B35302  41.357   4.135   7.823
 2632POPC   NC335303  18.205  38.907   9.472
 2632POPC   PO435304  18.314  39.548   9.409
 2632POPC   GL135305  18.465  39.242   9.107
 2632POPC   GL235306  18.542  38.857   9.067
 2632POPC   C1A35307  18.487  39.210   8.680
 2632POPC   D2A35308  18.442  38.947   8.332
 2632POPC   C3A35309  18.460  39.140   7.931
 2632POPC   C4A35310  18.486  38.990   7.512
 2632POPC   C1B35311  18.134  38.859   8.828
 2632POPC   C2B35312  17.956  39.040   8.461
 2632POPC   C3B35313  17.967  38.998   8.031
 2632POPC   C4B35314  17.694  39.022   7.676
 2633POPC   NC335315  42.636  34.885   9.359
 2633POPC   PO435316  42.319  35.545   9.480
 2633POPC   GL135317  42.212  35.448   9.097
 2633POPC   GL235318  42.259  35.080   9.053
 2633POPC   C1A35319  42.030  35.511   8.733
 2633POPC   D2A35320  42.191  35.629   8.387
 2633POPC   C3A35321  42.186  35.376   8.100
 2633POPC   C4A35322  42.292  35.573   7.760
 2633POPC   C1B35323  42.488  35.261   8.710
 2633POPC   C2B35324  42.651  35.372   8.352
 2633POPC   C3B35325  42.684  35.270   7.939
 2633POPC   C4B35326  42.296  35.059   7.728
 2634POPC   NC335327  20.804  24.671   9.494
 2634POPC   PO435328  20.271  24.350   9.436
 2634POPC   GL135329  20.502  24.401   9.042
 2634POPC   GL235330  20.653  24.734   9.013
 2634POPC   C1A35331  20.458  24.481   8.588
 2634POPC   D2A35332  20.430  24.823   8.314
 2634POPC   C3A35333  20.434  24.674   7.914
 2634POPC   C4A35334  20.369  24.332   7.667
 2634POPC   C1B35335  20.941  24.480   8.744
 2634POPC   C2B35336  20.905  24.282   8.357
 2634POPC   C3B35337  20.799  24.320   7.953
 2634POPC   C4B35338  20.893  24.551   7.617
 2635POPC   NC335339  37.281  38.910   9.486
 2635POPC   PO435340  36.684  39.220   9.456
 2635POPC   GL135341  36.988  39.295   9.178
 2635POPC   GL235342  36.669  39.338   8.951
 2635POPC   C1A35343  37.099  39.181   8.789
 2635POPC   D2A35344  36.884  39.395   8.465
 2635POPC   C3A35345  36.950  39.166   8.110
 2635POPC   C4A35346  37.063  39.210   7.683
 2635POPC   C1B35347  36.359  39.462   8.659
 2635POPC   C2B35348  36.399  39.357   8.230
 2635POPC   C3B35349  36.615  39.464   7.871
 2635POPC   C4B35350  36.584  39.067   7.686
 2636POPC   NC335351   0.415  40.343   9.452
 2636POPC   PO435352   0.704  41.051   9.550
 2636POPC   GL135353   0.373  40.881   9.251
 2636POPC   GL235354   0.142  41.135   9.121
 2636POPC   C1A35355   0.371  40.741   8.817
 2636POPC   D2A35356   0.547  40.865   8.411
 2636POPC   C3A35357   0.693  40.536   8.161
 2636POPC   C4A35358   0.682  40.497   7.725
 2636POPC   C1B35359  44.974  41.083   8.712
 2636POPC   C2B35360   0.039  40.992   8.289
 2636POPC   C3B35361   0.248  40.800   7.992
 2636POPC   C4B35362   0.316  40.938   7.663
 2637POPC   NC335363  31.130  36.399   9.350
 2637POPC   PO435364  31.737  36.372   9.502
 2637POPC   GL135365  31.692  36.172   9.094
 2637POPC   GL235366  31.390  36.093   9.047
 2637POPC   C1A35367  31.841  36.043   8.684
 2637POPC   D2A35368  32.040  36.040   8.269
 2637POPC   C3A35369  31.733  36.167   7.963
 2637POPC   C4A35370  31.524  36.096   7.569
 2637POPC   C1B35371  31.197  35.964   8.684
 2637POPC   C2B35372  31.301  36.098   8.274
 2637POPC   C3B35373  31.145  35.948   7.904
 2637POPC   C4B35374  31.028  36.085   7.528
 2638POPC   NC335375   9.374  33.760   9.597
 2638POPC   PO435376  10.040  33.606   9.523
 2638POPC   GL135377   9.714  33.727   9.216
 2638POPC   GL235378   9.651  34.103   9.269
 2638POPC   C1A35379   9.632  33.569   8.811
 2638POPC   D2A35380   9.617  33.686   8.382
 2638POPC   C3A35381   9.885  33.532   8.031
 2638POPC   C4A35382   9.802  33.657   7.605
 2638POPC   C1B35383   9.485  34.093   8.837
 2638POPC   C2B35384   9.536  34.184   8.387
 2638POPC   C3B35385   9.590  34.013   7.970
 2638POPC   C4B35386   9.322  33.870   7.588
 2639POPC   NC335387   7.324   5.335   9.555
 2639POPC   PO435388   7.586   4.733   9.422
 2639POPC   GL135389   7.250   4.823   9.126
 2639POPC   GL235390   7.346   5.163   9.083
 2639POPC   C1A35391   7.214   4.915   8.661
 2639POPC   D2A35392   7.304   5.158   8.288
 2639POPC   C3A35393   7.226   4.899   7.946
 2639POPC   C4A35394   7.258   4.727   7.568
 2639POPC   C1B35395   7.518   5.371   8.731
 2639POPC   C2B35396   7.825   5.344   8.419
 2639POPC   C3B35397   7.793   5.062   8.100
 2639POPC   C4B35398   7.633   5.069   7.705
 2640POPC   NC335399  40.393  15.733   9.491
 2640POPC   PO435400  40.822  16.264   9.460
 2640POPC   GL135401  40.690  15.990   9.137
 2640POPC   GL235402  40.842  15.686   9.244
 2640POPC   C1A35403  40.800  16.008   8.706
 2640POPC   D2A35404  40.564  16.158   8.349
 2640POPC   C3A35405  40.803  16.248   7.973
 2640POPC   C4A35406  40.714  15.967   7.674
 2640POPC   C1B35407  41.148  15.655   8.920
 2640POPC   C2B35408  41.177  15.741   8.485
 2640POPC   C3B35409  40.948  15.753   8.119
 2640POPC   C4B35410  41.122  15.643   7.727
 2641POPC   NC335411   8.289  16.547   9.533
 2641POPC   PO435412   8.394  17.185   9.458
 2641POPC   GL135413   8.359  16.863   9.130
 2641POPC   GL235414   8.054  16.625   9.076
 2641POPC   C1A35415   8.435  16.968   8.702
 2641POPC   D2A35416   8.211  16.932   8.316
 2641POPC   C3A35417   8.411  17.010   7.933
 2641POPC   C4A35418   8.181  16.691   7.766
 2641POPC   C1B35419   8.391  16.467   8.796
 2641POPC   C2B35420   8.479  16.520   8.382
 2641POPC   C3B35421   8.424  16.319   7.993
 2641POPC   C4B35422   8.650  16.300   7.624
 2642POPC   NC335423   9.641   4.446   9.557
 2642POPC   PO435424  10.093   3.887   9.564
 2642POPC   GL135425   9.936   4.156   9.256
 2642POPC   GL235426   9.613   4.028   9.226
 2642POPC   C1A35427   9.952   4.401   8.873
 2642POPC   D2A35428   9.830   4.309   8.458
 2642POPC   C3A35429   9.886   4.509   8.091
 2642POPC   C4A35430  10.101   4.371   7.733
 2642POPC   C1B35431   9.402   3.877   8.869
 2642POPC   C2B35432   9.575   3.878   8.467
 2642POPC   C3B35433   9.430   3.955   8.060
 2642POPC   C4B35434   9.611   4.214   7.745
 2643POPC   NC335435   0.301  16.281   9.484
 2643POPC   PO435436   0.864  15.885   9.495
 2643POPC   GL135437   0.508  15.828   9.226
 2643POPC   GL235438   0.297  15.499   9.272
 2643POPC   C1A35439   0.424  16.093   8.852
 2643POPC   D2A35440   0.637  16.248   8.499
 2643POPC   C3A35441   0.500  16.134   8.088
 2643POPC   C4A35442   0.717  15.839   7.815
 2643POPC   C1B35443   0.191  15.647   8.865
 2643POPC   C2B35444   0.074  15.873   8.505
 2643POPC   C3B35445   0.074  15.764   8.104
 2643POPC   C4B35446   0.217  15.908   7.726
 2644POPC   NC335447  26.190  14.541   9.592
 2644POPC   PO435448  26.153  13.813   9.497
 2644POPC   GL135449  26.154  14.175   9.203
 2644POPC   GL235450  26.036  14.490   9.114
 2644POPC   C1A35451  26.276  14.179   8.782
 2644POPC   D2A35452  26.165  14.400   8.455
 2644POPC   C3A35453  25.984  14.120   8.172
 2644POPC   C4A35454  25.971  14.263   7.779
 2644POPC   C1B35455  26.309  14.749   8.869
 2644POPC   C2B35456  26.487  14.818   8.437
 2644POPC   C3B35457  26.270  14.850   8.045
 2644POPC   C4B35458  26.246  14.669   7.653
 2645POPC   NC335459  26.164  29.920   9.614
 2645POPC   PO435460  25.823  30.250   9.166
 2645POPC   GL135461  26.191  30.056   9.091
 2645POPC   GL235462  26.016  29.739   9.140
 2645POPC   C1A35463  26.303  30.203   8.684
 2645POPC   D2A35464  25.944  30.316   8.390
 2645POPC   C3A35465  25.996  30.227   7.963
 2645POPC   C4A35466  26.269  29.885   7.828
 2645POPC   C1B35467  25.893  29.837   8.690
 2645POPC   C2B35468  25.936  29.809   8.251
 2645POPC   C3B35469  25.860  29.555   7.905
 2645POPC   C4B35470  25.852  29.716   7.518
 2646POPC   NC335471  10.200  30.436   9.513
 2646POPC   PO435472   9.620  30.825   9.459
 2646POPC   GL135473   9.739  30.966   9.088
 2646POPC   GL235474  10.067  30.787   9.116
 2646POPC   C1A35475   9.611  30.791   8.673
 2646POPC   D2A35476   9.403  30.823   8.271
 2646POPC   C3A35477   9.600  30.544   7.962
 2646POPC   C4A35478   9.572  30.560   7.509
 2646POPC   C1B35479   9.880  30.428   8.902
 2646POPC   C2B35480   9.970  30.467   8.447
 2646POPC   C3B35481  10.036  30.773   8.096
 2646POPC   C4B35482   9.818  30.961   7.724
 2647POPC   NC335483  34.063  18.300   9.459
 2647POPC   PO435484  33.384  18.582   9.418
 2647POPC   GL135485  33.706  18.484   9.152
 2647POPC   GL235486  33.676  18.116   9.061
 2647POPC   C1A35487  33.958  18.442   8.788
 2647POPC   D2A35488  33.727  18.290   8.445
 2647POPC   C3A35489  33.838  18.423   8.049
 2647POPC   C4A35490  33.823  18.163   7.661
 2647POPC   C1B35491  33.471  17.896   8.676
 2647POPC   C2B35492  33.429  17.943   8.219
 2647POPC   C3B35493  33.595  17.696   7.897
 2647POPC   C4B35494  33.598  17.734   7.449
 2648POPC   NC335495  21.225   9.833   9.497
 2648POPC   PO435496  20.543   9.795   9.540
 2648POPC   GL135497  20.537   9.664   9.165
 2648POPC   GL235498  20.860   9.766   9.109
 2648POPC   C1A35499  20.502   9.815   8.745
 2648POPC   D2A35500  20.748   9.812   8.349
 2648POPC   C3A35501  20.551   9.713   7.896
 2648POPC   C4A35502  20.210   9.704   7.518
 2648POPC   C1B35503  21.012  10.046   8.782
 2648POPC   C2B35504  21.179  10.125   8.350
 2648POPC   C3B35505  20.926  10.048   7.943
 2648POPC   C4B35506  20.865   9.901   7.517
 2649POPC   NC335507  21.926   0.346   9.550
 2649POPC   PO435508  22.458   0.769   9.632
 2649POPC   GL135509  22.268   0.649   9.246
 2649POPC   GL235510  21.953   0.770   9.239
 2649POPC   C1A35511  22.244   0.433   8.850
 2649POPC   D2A35512  22.448   0.521   8.445
 2649POPC   C3A35513  22.191   0.396   8.078
 2649POPC   C4A35514  22.378   0.444   7.689
 2649POPC   C1B35515  21.943   0.854   8.830
 2649POPC   C2B35516  21.891   0.621   8.464
 2649POPC   C3B35517  21.886   0.791   8.062
 2649POPC   C4B35518  21.869   0.546   7.659
 2650POPC   NC335519  10.104   9.410   9.314
 2650POPC   PO435520   9.763   8.875   9.524
 2650POPC   GL135521   9.731   9.013   9.120
 2650POPC   GL235522   9.979   8.750   9.032
 2650POPC   C1A35523   9.382   9.140   8.839
 2650POPC   D2A35524   9.311   9.332   8.437
 2650POPC   C3A35525   9.485   9.179   8.078
 2650POPC   C4A35526   9.292   9.208   7.660
 2650POPC   C1B35527  10.023   9.017   8.675
 2650POPC   C2B35528   9.982   9.055   8.224
 2650POPC   C3B35529  10.189   8.943   7.845
 2650POPC   C4B35530  10.146   8.964   7.379
 2651POPC   NC335531   9.536  21.010   9.473
 2651POPC   PO435532   9.844  20.443   9.715
 2651POPC   GL135533   9.738  20.513   9.266
 2651POPC   GL235534  10.000  20.365   9.050
 2651POPC   C1A35535   9.581  20.509   8.817
 2651POPC   D2A35536   9.761  20.327   8.445
 2651POPC   C3A35537   9.665  20.512   8.043
 2651POPC   C4A35538   9.415  20.722   7.724
 2651POPC   C1B35539  10.073  20.670   8.687
 2651POPC   C2B35540  10.151  20.669   8.230
 2651POPC   C3B35541  10.212  20.529   7.802
 2651POPC   C4B35542   9.866  20.503   7.561
 2652POPC   NC335543   1.714  29.686   9.420
 2652POPC   PO435544   2.043  30.193   9.529
 2652POPC   GL135545   2.099  30.041   9.100
 2652POPC   GL235546   1.907  29.760   8.977
 2652POPC   C1A35547   2.315  29.918   8.753
 2652POPC   D2A35548   2.008  29.898   8.484
 2652POPC   C3A35549   2.172  30.072   8.152
 2652POPC   C4A35550   2.176  29.973   7.759
 2652POPC   C1B35551   1.566  29.608   8.753
 2652POPC   C2B35552   1.588  29.521   8.350
 2652POPC   C3B35553   1.921  29.601   8.082
 2652POPC   C4B35554   1.864  29.585   7.668
 2653POPC   NC335555  10.718  12.374   9.430
 2653POPC   PO435556  10.297  11.817   9.406
 2653POPC   GL135557  10.345  12.133   9.134
 2653POPC   GL235558  10.022  12.237   9.080
 2653POPC   C1A35559  10.436  12.206   8.710
 2653POPC   D2A35560  10.715  12.030   8.423
 2653POPC   C3A35561  10.792  12.279   8.103
 2653POPC   C4A35562  10.732  12.139   7.718
 2653POPC   C1B35563  10.056  11.849   8.790
 2653POPC   C2B35564  10.260  11.803   8.403
 2653POPC   C3B35565  10.348  12.004   8.033
 2653POPC   C4B35566  10.264  11.686   7.689
 2654POPC   NC335567  23.877   4.992   9.568
 2654POPC   PO435568  23.303   5.208   9.774
 2654POPC   GL135569  23.396   5.076   9.283
 2654POPC   GL235570  23.580   4.760   9.188
 2654POPC   C1A35571  23.599   5.148   8.834
 2654POPC   D2A35572  23.861   5.090   8.443
 2654POPC   C3A35573  23.602   5.011   8.081
 2654POPC   C4A35574  23.445   5.047   7.674
 2654POPC   C1B35575  23.983   4.775   8.879
 2654POPC   C2B35576  24.169   4.691   8.434
 2654POPC   C3B35577  24.128   4.869   8.017
 2654POPC   C4B35578  23.994   5.305   7.909
 2655POPC   NC335579  27.777  11.309   9.528
 2655POPC   PO435580  27.195  11.472   9.518
 2655POPC   GL135581  27.386  11.273   9.156
 2655POPC   GL235582  27.663  11.062   9.099
 2655POPC   C1A35583  27.572  11.401   8.752
 2655POPC   D2A35584  27.495  11.205   8.346
 2655POPC   C3A35585  27.471  11.469   7.993
 2655POPC   C4A35586  27.715  11.571   7.617
 2655POPC   C1B35587  27.626  10.865   8.722
 2655POPC   C2B35588  27.839  10.830   8.309
 2655POPC   C3B35589  27.752  11.030   7.890
 2655POPC   C4B35590  27.396  11.145   7.600
 2656POPC   NC335591  11.335  31.897   9.651
 2656POPC   PO435592  11.321  32.522   9.427
 2656POPC   GL135593  11.175  32.319   9.088
 2656POPC   GL235594  11.240  31.961   9.156
 2656POPC   C1A35595  11.313  32.454   8.673
 2656POPC   D2A35596  11.630  32.471   8.347
 2656POPC   C3A35597  11.369  32.541   7.995
 2656POPC   C4A35598  11.017  32.261   7.959
 2656POPC   C1B35599  11.569  32.052   8.854
 2656POPC   C2B35600  11.442  31.990   8.450
 2656POPC   C3B35601  11.541  32.063   8.044
 2656POPC   C4B35602  11.373  32.003   7.660
 2657POPC   NC335603  18.128  15.340   9.715
 2657POPC   PO435604  17.977  15.932   9.376
 2657POPC   GL135605  18.398  15.991   9.135
 2657POPC   GL235606  18.679  15.749   9.005
 2657POPC   C1A35607  18.436  16.141   8.704
 2657POPC   D2A35608  18.380  15.934   8.298
 2657POPC   C3A35609  18.110  16.122   7.992
 2657POPC   C4A35610  18.438  16.271   7.727
 2657POPC   C1B35611  18.372  15.580   8.751
 2657POPC   C2B35612  18.024  15.623   8.506
 2657POPC   C3B35613  18.050  15.616   8.038
 2657POPC   C4B35614  18.408  15.761   7.742
 2658POPC   NC335615  20.739  17.280   9.612
 2658POPC   PO435616  20.241  17.708   9.733
 2658POPC   GL135617  20.319  17.465   9.331
 2658POPC   GL235618  20.626  17.603   9.183
 2658POPC   C1A35619  20.282  17.391   8.857
 2658POPC   D2A35620  20.529  17.292   8.491
 2658POPC   C3A35621  20.469  17.349   8.044
 2658POPC   C4A35622  20.714  17.291   7.657
 2658POPC   C1B35623  20.737  17.731   8.742
 2658POPC   C2B35624  20.851  17.647   8.291
 2658POPC   C3B35625  20.713  17.770   7.886
 2658POPC   C4B35626  20.897  17.875   7.507
 2659POPC   NC335627  25.430  32.830   9.483
 2659POPC   PO435628  25.238  33.510   9.579
 2659POPC   GL135629  25.135  33.245   9.182
 2659POPC   GL235630  25.111  32.865   9.073
 2659POPC   C1A35631  25.095  33.235   8.724
 2659POPC   D2A35632  25.050  32.847   8.486
 2659POPC   C3A35633  25.092  32.951   8.077
 2659POPC   C4A35634  24.965  33.244   7.796
 2659POPC   C1B35635  25.490  32.912   8.773
 2659POPC   C2B35636  25.544  32.807   8.309
 2659POPC   C3B35637  25.538  32.801   7.828
 2659POPC   C4B35638  25.615  32.794   7.368
 2660POPC   NC335639  35.750   6.746   9.506
 2660POPC   PO435640  35.118   6.436   9.475
 2660POPC   GL135641  35.345   6.568   9.113
 2660POPC   GL235642  35.668   6.433   9.111
 2660POPC   C1A35643  35.461   6.466   8.661
 2660POPC   D2A35644  35.324   6.712   8.337
 2660POPC   C3A35645  35.444   6.481   7.999
 2660POPC   C4A35646  35.411   6.693   7.613
 2660POPC   C1B35647  35.713   6.851   8.860
 2660POPC   C2B35648  35.835   6.819   8.417
 2660POPC   C3B35649  35.691   6.941   8.005
 2660POPC   C4B35650  35.941   7.171   7.752
 2661POPC   NC335651   4.861  34.620   9.576
 2661POPC   PO435652   5.496  34.711   9.641
 2661POPC   GL135653   5.275  34.703   9.225
 2661POPC   GL235654   4.930  34.786   9.091
 2661POPC   C1A35655   5.229  34.480   8.833
 2661POPC   D2A35656   4.951  34.276   8.537
 2661POPC   C3A35657   5.014  34.252   8.102
 2661POPC   C4A35658   5.160  34.405   7.681
 2661POPC   C1B35659   4.896  34.783   8.608
 2661POPC   C2B35660   4.842  34.739   8.174
 2661POPC   C3B35661   4.994  34.907   7.797
 2661POPC   C4B35662   4.942  34.759   7.384
 2662POPC   NC335663   2.146   4.747   9.838
 2662POPC   PO435664   1.793   5.184   9.605
 2662POPC   GL135665   1.839   5.314   9.138
 2662POPC   GL235666   2.172   5.193   9.072
 2662POPC   C1A35667   1.925   5.466   8.673
 2662POPC   D2A35668   2.087   5.272   8.262
 2662POPC   C3A35669   1.864   5.295   7.848
 2662POPC   C4A35670   1.908   5.292   7.377
 2662POPC   C1B35671   1.971   4.959   8.705
 2662POPC   C2B35672   1.774   4.833   8.290
 2662POPC   C3B35673   1.869   4.750   7.848
 2662POPC   C4B35674   2.149   4.554   7.551
 2663POPC   NC335675   0.192   7.988   9.602
 2663POPC   PO435676   0.504   8.523   9.345
 2663POPC   GL135677   0.413   8.212   9.099
 2663POPC   GL235678   0.575   7.920   9.245
 2663POPC   C1A35679   0.387   8.250   8.654
 2663POPC   D2A35680   0.084   8.468   8.414
 2663POPC   C3A35681   0.273   8.461   8.048
 2663POPC   C4A35682   0.252   8.329   7.706
 2663POPC   C1B35683   0.331   7.762   8.878
 2663POPC   C2B35684   0.464   7.770   8.471
 2663POPC   C3B35685   0.378   7.950   8.079
 2663POPC   C4B35686   0.689   8.163   7.878
 2664POPC   NC335687  15.395  19.483   9.563
 2664POPC   PO435688  15.014  20.050   9.432
 2664POPC   GL135689  15.144  19.833   9.080
 2664POPC   GL235690  14.910  19.735   8.872
 2664POPC   C1A35691  15.391  19.907   8.693
 2664POPC   D2A35692  15.183  19.831   8.314
 2664POPC   C3A35693  15.354  19.816   7.908
 2664POPC   C4A35694  15.622  19.630   7.604
 2664POPC   C1B35695  14.953  20.179   8.760
 2664POPC   C2B35696  14.991  20.331   8.360
 2664POPC   C3B35697  14.912  20.155   7.994
 2664POPC   C4B35698  14.960  19.939   7.620
 2665POPC   NC335699   3.731  44.420   9.471
 2665POPC   PO435700   3.508  43.770   9.688
 2665POPC   GL135701   3.448  43.773   9.229
 2665POPC   GL235702   3.409  44.136   9.164
 2665POPC   C1A35703   3.628  43.819   8.802
 2665POPC   D2A35704   3.720  44.020   8.406
 2665POPC   C3A35705   3.681  43.794   8.039
 2665POPC   C4A35706   3.518  43.585   7.688
 2665POPC   C1B35707   3.530  44.321   8.789
 2665POPC   C2B35708   3.501  44.470   8.364
 2665POPC   C3B35709   3.536  44.295   7.946
 2665POPC   C4B35710   3.686  44.049   7.598
 2666POPC   NC335711  20.434  21.364   9.667
 2666POPC   PO435712  20.948  21.765   9.762
 2666POPC   GL135713  20.804  21.466   9.362
 2666POPC   GL235714  20.516  21.663   9.193
 2666POPC   C1A35715  20.546  21.181   9.013
 2666POPC   D2A35716  20.285  21.237   8.629
 2666POPC   C3A35717  20.444  21.311   8.227
 2666POPC   C4A35718  20.343  21.239   7.800
 2666POPC   C1B35719  20.636  21.594   8.731
 2666POPC   C2B35720  20.829  21.651   8.302
 2666POPC   C3B35721  20.689  21.595   7.865
 2666POPC   C4B35722  20.642  21.685   7.403
 2667POPC   NC335723  16.692  14.614   9.439
 2667POPC   PO435724  16.678  15.305   9.478
 2667POPC   GL135725  16.817  15.311   9.108
 2667POPC   GL235726  16.930  14.949   9.129
 2667POPC   C1A35727  16.844  15.584   8.739
 2667POPC   D2A35728  16.632  15.634   8.333
 2667POPC   C3A35729  16.806  15.289   8.074
 2667POPC   C4A35730  16.949  15.343   7.631
 2667POPC   C1B35731  16.750  14.984   8.723
 2667POPC   C2B35732  16.419  15.225   8.557
 2667POPC   C3B35733  16.264  15.234   8.156
 2667POPC   C4B35734  16.416  15.090   7.770
 2668POPC   NC335735  36.946  28.579   9.423
 2668POPC   PO435736  37.445  28.161   9.231
 2668POPC   GL135737  37.143  28.137   8.935
 2668POPC   GL235738  36.892  28.037   9.162
 2668POPC   C1A35739  37.082  28.288   8.493
 2668POPC   D2A35740  37.188  28.623   8.180
 2668POPC   C3A35741  36.899  28.567   7.851
 2668POPC   C4A35742  36.819  28.115   7.853
 2668POPC   C1B35743  36.650  28.004   8.782
 2668POPC   C2B35744  36.534  28.145   8.348
 2668POPC   C3B35745  36.395  28.370   7.979
 2668POPC   C4B35746  36.527  28.368   7.542
 2669POPC   NC335747  16.097  13.109   9.376
 2669POPC   PO435748  15.720  12.682   9.688
 2669POPC   GL135749  15.849  12.651   9.257
 2669POPC   GL235750  16.204  12.623   9.176
 2669POPC   C1A35751  15.820  12.844   8.855
 2669POPC   D2A35752  15.703  13.101   8.532
 2669POPC   C3A35753  15.681  12.844   8.172
 2669POPC   C4A35754  15.678  12.971   7.793
 2669POPC   C1B35755  16.275  12.619   8.712
 2669POPC   C2B35756  16.174  12.758   8.263
 2669POPC   C3B35757  16.172  12.855   7.786
 2669POPC   C4B35758  16.204  12.654   7.366
 2670POPC   NC335759  24.913   3.753   9.595
 2670POPC   PO435760  24.216   3.506   9.572
 2670POPC   GL135761  24.494   3.668   9.267
 2670POPC   GL235762  24.795   3.479   9.175
 2670POPC   C1A35763  24.420   3.841   8.892
 2670POPC   D2A35764  24.423   3.860   8.464
 2670POPC   C3A35765  24.440   3.533   8.183
 2670POPC   C4A35766  24.455   3.723   7.786
 2670POPC   C1B35767  24.651   3.412   8.739
 2670POPC   C2B35768  24.863   3.315   8.363
 2670POPC   C3B35769  24.890   3.175   7.932
 2670POPC   C4B35770  24.882   3.295   7.475
 2671POPC   NC335771  14.665  23.448   9.512
 2671POPC   PO435772  14.578  24.131   9.536
 2671POPC   GL135773  14.647  23.873   9.148
 2671POPC   GL235774  14.433  23.596   9.059
 2671POPC   C1A35775  14.512  23.899   8.684
 2671POPC   D2A35776  14.287  23.609   8.417
 2671POPC   C3A35777  14.407  23.764   8.059
 2671POPC   C4A35778  14.539  24.035   7.750
 2671POPC   C1B35779  14.158  23.284   8.786
 2671POPC   C2B35780  14.018  23.118   8.388
 2671POPC   C3B35781  14.009  23.376   8.036
 2671POPC   C4B35782  14.244  23.499   7.676
 2672POPC   NC335783   5.423  32.445   9.459
 2672POPC   PO435784   4.825  31.988   9.650
 2672POPC   GL135785   4.758  32.157   9.261
 2672POPC   GL235786   5.075  32.223   9.147
 2672POPC   C1A35787   4.718  32.244   8.798
 2672POPC   D2A35788   4.865  32.154   8.384
 2672POPC   C3A35789   4.895  32.343   7.989
 2672POPC   C4A35790   4.959  32.269   7.553
 2672POPC   C1B35791   5.226  32.367   8.708
 2672POPC   C2B35792   5.342  32.322   8.239
 2672POPC   C3B35793   5.377  32.483   7.776
 2672POPC   C4B35794   5.310  32.562   7.291
 2673POPC   NC335795  23.165  12.708   9.485
 2673POPC   PO435796  22.551  12.432   9.394
 2673POPC   GL135797  22.889  12.544   9.112
 2673POPC   GL235798  22.836  12.856   9.097
 2673POPC   C1A35799  23.146  12.693   8.738
 2673POPC   D2A35800  22.959  12.604   8.344
 2673POPC   C3A35801  22.942  12.886   8.020
 2673POPC   C4A35802  22.911  13.187   7.719
 2673POPC   C1B35803  22.604  12.604   8.709
 2673POPC   C2B35804  22.477  12.377   8.332
 2673POPC   C3B35805  22.642  12.450   7.908
 2673POPC   C4B35806  22.827  12.669   7.567
 2674POPC   NC335807   1.837  40.252   9.592
 2674POPC   PO435808   2.470  40.270   9.454
 2674POPC   GL135809   2.111  40.035   9.214
 2674POPC   GL235810   1.698  40.090   9.138
 2674POPC   C1A35811   2.049  40.041   8.761
 2674POPC   D2A35812   2.154  39.737   8.450
 2674POPC   C3A35813   1.842  39.725   8.150
 2674POPC   C4A35814   2.071  39.810   7.782
 2674POPC   C1B35815   1.455  40.243   8.774
 2674POPC   C2B35816   1.652  40.257   8.360
 2674POPC   C3B35817   1.985  40.246   8.034
 2674POPC   C4B35818   1.933  40.263   7.571
 2675POPC   NC335819  21.139   0.592   9.491
 2675POPC   PO435820  21.546   0.149   9.716
 2675POPC   GL135821  21.542   0.110   9.254
 2675POPC   GL235822  21.525   0.467   9.184
 2675POPC   C1A35823  21.721   0.205   8.816
 2675POPC   D2A35824  21.454   0.317   8.464
 2675POPC   C3A35825  21.626   0.330   8.077
 2675POPC   C4A35826  21.344   0.290   7.748
 2675POPC   C1B35827  21.463   0.701   8.790
 2675POPC   C2B35828  21.372   0.812   8.328
 2675POPC   C3B35829  21.439   0.773   7.849
 2675POPC   C4B35830  21.406   0.658   7.404
 2676POPC   NC335831  15.862  35.115   9.788
 2676POPC   PO435832  15.986  35.699   9.559
 2676POPC   GL135833  16.180  35.444   9.214
 2676POPC   GL235834  16.178  35.038   9.202
 2676POPC   C1A35835  16.104  35.325   8.766
 2676POPC   D2A35836  15.906  35.300   8.337
 2676POPC   C3A35837  15.973  35.615   8.034
 2676POPC   C4A35838  15.810  35.651   7.588
 2676POPC   C1B35839  16.377  34.900   8.777
 2676POPC   C2B35840  16.359  35.070   8.357
 2676POPC   C3B35841  16.334  35.269   7.991
 2676POPC   C4B35842  16.032  35.193   7.715
 2677POPC   NC335843  27.955   0.117   9.484
 2677POPC   PO435844  27.429  44.684   9.647
 2677POPC   GL135845  27.407  44.608   9.217
 2677POPC   GL235846  27.595  44.901   9.151
 2677POPC   C1A35847  27.658  44.494   8.854
 2677POPC   D2A35848  27.817  44.424   8.443
 2677POPC   C3A35849  27.705  44.735   8.164
 2677POPC   C4A35850  27.581  44.541   7.827
 2677POPC   C1B35851  27.288  44.933   8.797
 2677POPC   C2B35852  27.386   0.086   8.360
 2677POPC   C3B35853  27.231  44.896   7.957
 2677POPC   C4B35854  27.349  44.849   7.488
 2678POPC   NC335855  13.508  32.741   9.464
 2678POPC   PO435856  13.412  32.118   9.596
 2678POPC   GL135857  13.625  31.932   9.289
 2678POPC   GL235858  13.682  32.255   9.154
 2678POPC   C1A35859  13.568  31.872   8.832
 2678POPC   D2A35860  13.612  32.147   8.466
 2678POPC   C3A35861  13.527  32.279   8.047
 2678POPC   C4A35862  13.537  32.091   7.682
 2678POPC   C1B35863  13.734  32.543   8.806
 2678POPC   C2B35864  13.787  32.624   8.353
 2678POPC   C3B35865  13.943  32.575   7.933
 2678POPC   C4B35866  13.670  32.580   7.599
 2679POPC   NC335867  15.596  21.850   9.628
 2679POPC   PO435868  14.888  21.701   9.470
 2679POPC   GL135869  15.215  21.514   9.219
 2679POPC   GL235870  15.496  21.751   9.153
 2679POPC   C1A35871  15.254  21.186   8.917
 2679POPC   D2A35872  15.441  21.037   8.548
 2679POPC   C3A35873  15.240  20.961   8.162
 2679POPC   C4A35874  15.396  20.979   7.749
 2679POPC   C1B35875  15.484  21.837   8.744
 2679POPC   C2B35876  15.292  21.535   8.526
 2679POPC   C3B35877  15.379  21.461   8.139
 2679POPC   C4B35878  15.186  21.447   7.790
 2680POPC   NC335879  36.789  40.506   9.522
 2680POPC   PO435880  37.453  40.730   9.674
 2680POPC   GL135881  37.183  40.833   9.269
 2680POPC   GL235882  36.816  40.909   9.207
 2680POPC   C1A35883  37.112  40.750   8.807
 2680POPC   D2A35884  36.929  40.824   8.387
 2680POPC   C3A35885  37.109  40.602   8.023
 2680POPC   C4A35886  36.869  40.521   7.668
 2680POPC   C1B35887  36.599  40.811   8.813
 2680POPC   C2B35888  36.490  41.133   8.518
 2680POPC   C3B35889  36.680  41.232   8.152
 2680POPC   C4B35890  36.672  40.931   7.876
 2681POPC   NC335891  37.854  28.160   9.447
 2681POPC   PO435892  37.469  28.691   9.481
 2681POPC   GL135893  37.753  28.577   9.080
 2681POPC   GL235894  37.916  28.252   8.974
 2681POPC   C1A35895  37.776  28.606   8.615
 2681POPC   D2A35896  37.642  28.385   8.253
 2681POPC   C3A35897  37.706  28.497   7.845
 2681POPC   C4A35898  37.322  28.284   7.808
 2681POPC   C1B35899  37.719  28.065   8.653
 2681POPC   C2B35900  37.745  27.868   8.280
 2681POPC   C3B35901  37.742  27.974   7.850
 2681POPC   C4B35902  37.910  28.063   7.440
 2682POPC   NC335903  26.509  18.914   9.368
 2682POPC   PO435904  27.174  19.147   9.333
 2682POPC   GL135905  26.953  19.193   8.977
 2682POPC   GL235906  26.727  19.396   9.150
 2682POPC   C1A35907  26.700  18.910   8.721
 2682POPC   D2A35908  26.588  18.698   8.323
 2682POPC   C3A35909  26.951  18.752   8.039
 2682POPC   C4A35910  27.070  19.062   7.748
 2682POPC   C1B35911  26.497  19.446   8.779
 2682POPC   C2B35912  26.542  19.251   8.375
 2682POPC   C3B35913  26.574  19.098   7.957
 2682POPC   C4B35914  26.697  19.425   7.682
 2683POPC   NC335915   3.654   8.057   9.474
 2683POPC   PO435916   3.005   7.977   9.473
 2683POPC   GL135917   3.305   7.936   9.123
 2683POPC   GL235918   3.471   8.281   9.047
 2683POPC   C1A35919   3.528   7.876   8.740
 2683POPC   D2A35920   3.292   7.927   8.361
 2683POPC   C3A35921   3.483   8.022   7.980
 2683POPC   C4A35922   3.431   8.188   7.544
 2683POPC   C1B35923   3.375   8.364   8.600
 2683POPC   C2B35924   3.659   8.427   8.241
 2683POPC   C3B35925   3.657   8.603   7.824
 2683POPC   C4B35926   3.497   8.700   7.438
 2684POPC   NC335927  35.042  18.468   9.451
 2684POPC   PO435928  34.472  18.026   9.505
 2684POPC   GL135929  34.600  18.328   9.211
 2684POPC   GL235930  34.781  18.064   9.059
 2684POPC   C1A35931  34.597  18.464   8.773
 2684POPC   D2A35932  34.777  18.282   8.400
 2684POPC   C3A35933  34.597  18.409   8.043
 2684POPC   C4A35934  34.575  18.222   7.640
 2684POPC   C1B35935  34.357  18.023   8.841
 2684POPC   C2B35936  34.248  18.216   8.428
 2684POPC   C3B35937  34.196  18.070   8.010
 2684POPC   C4B35938  34.240  17.818   7.651
 2685POPC   NC335939  21.964  14.182   9.556
 2685POPC   PO435940  22.447  14.624   9.417
 2685POPC   GL135941  22.102  14.411   9.123
 2685POPC   GL235942  21.726  14.227   9.115
 2685POPC   C1A35943  22.076  14.448   8.701
 2685POPC   D2A35944  22.376  14.460   8.424
 2685POPC   C3A35945  22.330  14.569   8.019
 2685POPC   C4A35946  22.236  14.259   7.740
 2685POPC   C1B35947  21.579  14.495   8.792
 2685POPC   C2B35948  21.654  14.419   8.368
 2685POPC   C3B35949  21.818  14.440   7.969
 2685POPC   C4B35950  21.769  14.272   7.557
 2686POPC   NC335951  23.041   5.540   9.556
 2686POPC   PO435952  22.650   6.148   9.597
 2686POPC   GL135953  22.728   5.984   9.180
 2686POPC   GL235954  22.613   5.658   9.134
 2686POPC   C1A35955  22.813   6.125   8.752
 2686POPC   D2A35956  23.129   6.153   8.440
 2686POPC   C3A35957  22.994   6.103   7.991
 2686POPC   C4A35958  22.973   5.933   7.525
 2686POPC   C1B35959  22.791   5.617   8.743
 2686POPC   C2B35960  22.922   5.681   8.306
 2686POPC   C3B35961  22.946   5.584   7.881
 2686POPC   C4B35962  22.704   5.508   7.468
 2687POPC   NC335963  41.666  27.998   9.392
 2687POPC   PO435964  41.330  28.580   9.488
 2687POPC   GL135965  41.491  28.416   9.143
 2687POPC   GL235966  41.256  28.153   9.092
 2687POPC   C1A35967  41.792  28.324   8.822
 2687POPC   D2A35968  41.743  28.165   8.421
 2687POPC   C3A35969  41.815  28.357   8.032
 2687POPC   C4A35970  41.658  28.231   7.645
 2687POPC   C1B35971  41.272  28.320   8.683
 2687POPC   C2B35972  41.168  28.262   8.254
 2687POPC   C3B35973  41.189  28.388   7.817
 2687POPC   C4B35974  41.102  28.738   7.531
 2688POPC   NC335975  43.270  23.711   9.539
 2688POPC   PO435976  42.619  23.477   9.515
 2688POPC   GL135977  42.912  23.679   9.155
 2688POPC   GL235978  43.229  23.509   9.091
 2688POPC   C1A35979  43.003  23.989   8.790
 2688POPC   D2A35980  43.227  23.931   8.406
 2688POPC   C3A35981  43.077  23.970   7.993
 2688POPC   C4A35982  43.075  23.772   7.571
 2688POPC   C1B35983  43.422  23.582   8.746
 2688POPC   C2B35984  43.388  23.445   8.333
 2688POPC   C3B35985  43.406  23.590   7.935
 2688POPC   C4B35986  43.708  23.634   7.614
 2689POPC   NC335987  40.943   7.159   9.398
 2689POPC   PO435988  40.761   7.795   9.437
 2689POPC   GL135989  40.716   7.469   9.075
 2689POPC   GL235990  40.537   7.113   9.096
 2689POPC   C1A35991  40.969   7.252   8.740
 2689POPC   D2A35992  40.883   7.088   8.322
 2689POPC   C3A35993  41.043   7.340   7.981
 2689POPC   C4A35994  40.835   7.421   7.591
 2689POPC   C1B35995  40.480   7.183   8.668
 2689POPC   C2B35996  40.351   7.127   8.261
 2689POPC   C3B35997  40.562   7.155   7.928
 2689POPC   C4B35998  40.535   7.012   7.556
 2690POPC   NC335999  13.788   6.591   9.493
 2690POPC   PO436000  13.274   6.898   9.576
 2690POPC   GL136001  13.431   6.763   9.184
 2690POPC   GL236002  13.169   6.541   9.072
 2690POPC   C1A36003  13.775   6.769   8.845
 2690POPC   D2A36004  13.938   6.620   8.429
 2690POPC   C3A36005  13.916   6.924   8.103
 2690POPC   C4A36006  13.857   6.839   7.702
 2690POPC   C1B36007  13.279   6.863   8.732
 2690POPC   C2B36008  13.481   6.853   8.347
 2690POPC   C3B36009  13.591   6.520   8.042
 2690POPC   C4B36010  13.410   6.617   7.644
 2691POPC   NC336011   1.160  24.242   9.680
 2691POPC   PO436012   1.259  24.906   9.616
 2691POPC   GL136013   1.375  24.690   9.204
 2691POPC   GL236014   1.130  24.407   9.143
 2691POPC   C1A36015   1.494  24.565   8.751
 2691POPC   D2A36016   1.473  24.730   8.308
 2691POPC   C3A36017   1.485  24.454   7.927
 2691POPC   C4A36018   1.524  24.343   7.464
 2691POPC   C1B36019   0.962  24.583   8.747
 2691POPC   C2B36020   0.852  24.551   8.331
 2691POPC   C3B36021   0.946  24.413   7.944
 2691POPC   C4B36022   0.790  24.692   7.674
 2692POPC   NC336023   0.700   6.312   9.505
 2692POPC   PO436024   0.161   6.608   9.507
 2692POPC   GL136025   0.323   6.720   9.109
 2692POPC   GL236026   0.696   6.666   9.136
 2692POPC   C1A36027   0.399   6.628   8.683
 2692POPC   D2A36028   0.158   6.448   8.314
 2692POPC   C3A36029   0.353   6.586   7.968
 2692POPC   C4A36030   0.308   6.660   7.571
 2692POPC   C1B36031   0.803   6.975   8.843
 2692POPC   C2B36032   0.989   6.994   8.452
 2692POPC   C3B36033   0.752   6.928   8.083
 2692POPC   C4B36034   0.514   7.072   7.749
 2693POPC   NC336035  22.304  20.079   9.455
 2693POPC   PO436036  21.779  19.648   9.553
 2693POPC   GL136037  21.994  19.783   9.142
 2693POPC   GL236038  22.395  19.705   9.112
 2693POPC   C1A36039  22.090  19.715   8.690
 2693POPC   D2A36040  22.504  19.731   8.441
 2693POPC   C3A36041  22.446  19.616   7.994
 2693POPC   C4A36042  22.023  19.652   7.847
 2693POPC   C1B36043  22.424  20.078   8.826
 2693POPC   C2B36044  22.205  20.161   8.424
 2693POPC   C3B36045  22.264  20.099   8.002
 2693POPC   C4B36046  22.544  20.148   7.656
 2694POPC   NC336047  28.605  24.940   9.620
 2694POPC   PO436048  28.182  24.465   9.492
 2694POPC   GL136049  28.335  24.403   9.109
 2694POPC   GL236050  28.644  24.587   9.163
 2694POPC   C1A36051  28.553  24.245   8.770
 2694POPC   D2A36052  28.457  24.507   8.433
 2694POPC   C3A36053  28.263  24.340   8.109
 2694POPC   C4A36054  28.410  24.453   7.670
 2694POPC   C1B36055  28.858  24.646   8.743
 2694POPC   C2B36056  28.948  24.364   8.371
 2694POPC   C3B36057  28.825  24.266   7.909
 2694POPC   C4B36058  28.729  24.095   7.474
 2695POPC   NC336059  39.521  19.589   9.503
 2695POPC   PO436060  38.912  19.833   9.489
 2695POPC   GL136061  39.098  19.687   9.117
 2695POPC   GL236062  39.460  19.765   9.050
 2695POPC   C1A36063  39.151  19.677   8.683
 2695POPC   D2A36064  39.450  19.805   8.397
 2695POPC   C3A36065  39.240  19.880   8.060
 2695POPC   C4A36066  39.086  19.810   7.673
 2695POPC   C1B36067  39.768  19.937   8.773
 2695POPC   C2B36068  39.718  20.244   8.470
 2695POPC   C3B36069  39.739  20.127   8.080
 2695POPC   C4B36070  39.534  20.074   7.707
 2696POPC   NC336071  29.812  33.283   9.610
 2696POPC   PO436072  29.971  32.644   9.508
 2696POPC   GL136073  29.774  32.900   9.207
 2696POPC   GL236074  30.036  33.127   9.164
 2696POPC   C1A36075  29.680  33.065   8.794
 2696POPC   D2A36076  29.937  33.037   8.433
 2696POPC   C3A36077  29.869  32.861   8.078
 2696POPC   C4A36078  29.893  32.941   7.681
 2696POPC   C1B36079  30.166  32.843   8.830
 2696POPC   C2B36080  30.322  32.694   8.388
 2696POPC   C3B36081  30.334  32.710   7.916
 2696POPC   C4B36082  30.245  32.707   7.431
 2697POPC   NC336083  30.377   0.913   9.474
 2697POPC   PO436084  30.735   1.520   9.670
 2697POPC   GL136085  30.478   1.357   9.237
 2697POPC   GL236086  30.681   1.083   9.093
 2697POPC   C1A36087  30.553   1.349   8.708
 2697POPC   D2A36088  30.812   1.256   8.383
 2697POPC   C3A36089  30.599   1.255   8.018
 2697POPC   C4A36090  30.426   1.470   7.673
 2697POPC   C1B36091  30.387   0.873   8.819
 2697POPC   C2B36092  30.391   0.910   8.381
 2697POPC   C3B36093  30.752   0.784   8.186
 2697POPC   C4B36094  30.794   0.805   7.780
 2698POPC   NC336095  10.852  29.400   9.622
 2698POPC   PO436096  11.469  29.200   9.701
 2698POPC   GL136097  11.342  29.101   9.267
 2698POPC   GL236098  11.091  28.917   9.104
 2698POPC   C1A36099  11.482  29.134   8.837
 2698POPC   D2A36100  11.417  29.393   8.479
 2698POPC   C3A36101  11.588  29.279   8.080
 2698POPC   C4A36102  11.538  29.170   7.643
 2698POPC   C1B36103  11.225  28.710   8.749
 2698POPC   C2B36104  11.385  28.889   8.378
 2698POPC   C3B36105  11.229  28.914   7.983
 2698POPC   C4B36106  11.447  28.673   7.747
 2699POPC   NC336107  28.366   9.221   9.440
 2699POPC   PO436108  28.368   8.496   9.477
 2699POPC   GL136109  28.345   8.790   9.129
 2699POPC   GL236110  28.591   9.025   9.026
 2699POPC   C1A36111  28.059   8.713   8.756
 2699POPC   D2A36112  27.832   8.865   8.393
 2699POPC   C3A36113  28.019   8.633   8.035
 2699POPC   C4A36114  28.353   8.853   7.805
 2699POPC   C1B36115  28.328   9.171   8.702
 2699POPC   C2B36116  28.253   9.109   8.281
 2699POPC   C3B36117  27.957   9.127   7.955
 2699POPC   C4B36118  28.119   9.250   7.561
 2700POPC   NC336119  40.989  11.383   9.685
 2700POPC   PO436120  40.339  11.413   9.482
 2700POPC   GL136121  40.700  11.236   9.252
 2700POPC   GL236122  40.908  11.508   9.195
 2700POPC   C1A36123  40.934  11.094   8.862
 2700POPC   D2A36124  40.776  11.038   8.431
 2700POPC   C3A36125  41.010  11.069   8.036
 2700POPC   C4A36126  40.853  11.056   7.589
 2700POPC   C1B36127  40.915  11.635   8.777
 2700POPC   C2B36128  41.173  11.739   8.434
 2700POPC   C3B36129  40.967  11.644   8.069
 2700POPC   C4B36130  40.669  11.442   7.853
 2701POPC   NC336131  27.385   9.398   9.352
 2701POPC   PO436132  27.594  10.001   9.603
 2701POPC   GL136133  27.691   9.809   9.217
 2701POPC   GL236134  27.368   9.867   9.013
 2701POPC   C1A36135  27.748   9.647   8.795
 2701POPC   D2A36136  27.440   9.736   8.477
 2701POPC   C3A36137  27.633   9.751   8.115
 2701POPC   C4A36138  27.747   9.532   7.756
 2701POPC   C1B36139  27.070  10.016   8.689
 2701POPC   C2B36140  27.186  10.137   8.254
 2701POPC   C3B36141  27.357  10.091   7.858
 2701POPC   C4B36142  27.786  10.064   7.741
 2702POPC   NC336143   8.352   1.632   9.723
 2702POPC   PO436144   8.073   2.222   9.423
 2702POPC   GL136145   8.348   2.032   9.114
 2702POPC   GL236146   8.405   1.688   9.218
 2702POPC   C1A36147   8.523   2.060   8.674
 2702POPC   D2A36148   8.585   2.053   8.211
 2702POPC   C3A36149   8.363   2.137   7.828
 2702POPC   C4A36150   8.023   2.059   7.557
 2702POPC   C1B36151   8.406   1.536   8.828
 2702POPC   C2B36152   8.322   1.632   8.416
 2702POPC   C3B36153   8.453   1.583   8.015
 2702POPC   C4B36154   8.364   1.641   7.609
 2703POPC   NC336155  39.478  26.977   9.842
 2703POPC   PO436156  38.955  26.630   9.762
 2703POPC   GL136157  38.887  26.533   9.299
 2703POPC   GL236158  39.019  26.865   9.212
 2703POPC   C1A36159  39.099  26.523   8.861
 2703POPC   D2A36160  39.376  26.702   8.522
 2703POPC   C3A36161  39.387  26.533   8.106
 2703POPC   C4A36162  39.253  26.735   7.718
 2703POPC   C1B36163  39.092  27.050   8.788
 2703POPC   C2B36164  39.056  27.067   8.333
 2703POPC   C3B36165  39.430  27.027   8.094
 2703POPC   C4B36166  39.759  26.856   7.786
 2704POPC   NC336167  41.751  20.345   9.560
 2704POPC   PO436168  41.468  20.931   9.543
 2704POPC   GL136169  41.678  20.719   9.215
 2704POPC   GL236170  42.005  20.886   9.177
 2704POPC   C1A36171  41.552  20.474   8.848
 2704POPC   D2A36172  41.372  20.625   8.456
 2704POPC   C3A36173  41.546  20.489   8.059
 2704POPC   C4A36174  41.421  20.659   7.672
 2704POPC   C1B36175  42.066  20.607   8.837
 2704POPC   C2B36176  41.898  20.474   8.458
 2704POPC   C3B36177  42.047  20.451   8.049
 2704POPC   C4B36178  41.889  20.397   7.622
 2705POPC   NC336179  15.668  40.575   9.439
 2705POPC   PO436180  16.177  40.941   9.234
 2705POPC   GL136181  15.911  40.807   9.012
 2705POPC   GL236182  15.662  41.020   9.114
 2705POPC   C1A36183  16.066  40.802   8.601
 2705POPC   D2A36184  16.214  40.575   8.304
 2705POPC   C3A36185  15.885  40.432   8.062
 2705POPC   C4A36186  16.066  40.487   7.685
 2705POPC   C1B36187  15.705  41.149   8.659
 2705POPC   C2B36188  15.873  41.134   8.255
 2705POPC   C3B36189  15.878  40.922   7.885
 2705POPC   C4B36190  16.229  40.970   7.639
 2706POPC   NC336191   5.456   5.610   9.451
 2706POPC   PO436192   4.936   6.214   9.499
 2706POPC   GL136193   5.130   5.970   9.224
 2706POPC   GL236194   5.061   5.653   9.066
 2706POPC   C1A36195   5.180   6.131   8.823
 2706POPC   D2A36196   4.938   6.121   8.460
 2706POPC   C3A36197   5.120   5.931   8.136
 2706POPC   C4A36198   4.975   5.865   7.736
 2706POPC   C1B36199   5.128   5.649   8.594
 2706POPC   C2B36200   5.529   5.527   8.358
 2706POPC   C3B36201   5.664   5.409   7.937
 2706POPC   C4B36202   5.406   5.412   7.542
 2707POPC   NC336203  19.903   8.703   9.893
 2707POPC   PO436204  20.244   9.207   9.656
 2707POPC   GL136205  20.014   9.164   9.284
 2707POPC   GL236206  20.320   9.204   9.146
 2707POPC   C1A36207  19.785   9.044   8.885
 2707POPC   D2A36208  19.902   8.844   8.488
 2707POPC   C3A36209  19.699   8.799   8.094
 2707POPC   C4A36210  19.715   8.507   7.710
 2707POPC   C1B36211  20.301   8.938   8.819
 2707POPC   C2B36212  20.361   9.039   8.415
 2707POPC   C3B36213  20.103   9.133   8.083
 2707POPC   C4B36214  20.029   8.913   7.692
 2708POPC   NC336215  17.786  35.481   9.465
 2708POPC   PO436216  17.089  35.512   9.433
 2708POPC   GL136217  17.325  35.628   9.048
 2708POPC   GL236218  17.335  35.311   8.832
 2708POPC   C1A36219  17.295  35.750   8.590
 2708POPC   D2A36220  17.388  35.548   8.242
 2708POPC   C3A36221  17.439  35.651   7.831
 2708POPC   C4A36222  17.797  35.347   7.810
 2708POPC   C1B36223  17.226  34.907   8.606
 2708POPC   C2B36224  17.232  34.899   8.163
 2708POPC   C3B36225  17.319  35.171   7.884
 2708POPC   C4B36226  17.098  35.348   7.553
 2709POPC   NC336227  35.624  41.994   9.406
 2709POPC   PO436228  35.208  42.450   9.707
 2709POPC   GL136229  35.332  42.536   9.254
 2709POPC   GL236230  35.282  42.269   9.109
 2709POPC   C1A36231  35.435  42.624   8.798
 2709POPC   D2A36232  35.188  42.632   8.406
 2709POPC   C3A36233  35.338  42.482   8.007
 2709POPC   C4A36234  35.231  42.440   7.566
 2709POPC   C1B36235  35.549  42.113   8.777
 2709POPC   C2B36236  35.874  42.063   8.534
 2709POPC   C3B36237  35.870  41.987   8.091
 2709POPC   C4B36238  35.513  42.038   7.809
 2710POPC   NC336239  29.412  31.268   9.456
 2710POPC   PO436240  28.802  31.703   9.534
 2710POPC   GL136241  29.057  31.575   9.221
 2710POPC   GL236242  28.952  31.322   9.060
 2710POPC   C1A36243  29.258  31.633   8.815
 2710POPC   D2A36244  29.197  31.800   8.418
 2710POPC   C3A36245  29.218  31.550   8.046
 2710POPC   C4A36246  29.227  31.683   7.611
 2710POPC   C1B36247  29.168  31.125   8.730
 2710POPC   C2B36248  29.170  31.124   8.315
 2710POPC   C3B36249  29.446  31.068   8.007
 2710POPC   C4B36250  29.524  31.262   7.653
 2711POPC   NC336251  29.577  38.061   9.486
 2711POPC   PO436252  29.670  37.296   9.522
 2711POPC   GL136253  29.712  37.476   9.164
 2711POPC   GL236254  29.924  37.725   9.254
 2711POPC   C1A36255  29.783  37.276   8.764
 2711POPC   D2A36256  29.604  37.231   8.365
 2711POPC   C3A36257  29.899  37.359   8.029
 2711POPC   C4A36258  29.796  37.376   7.578
 2711POPC   C1B36259  29.945  37.761   8.794
 2711POPC   C2B36260  30.107  37.934   8.421
 2711POPC   C3B36261  30.033  37.869   8.004
 2711POPC   C4B36262  30.214  37.619   7.699
 2712POPC   NC336263  33.587  11.450   9.552
 2712POPC   PO436264  33.705  10.856   9.364
 2712POPC   GL136265  33.912  11.110   9.076
 2712POPC   GL236266  33.964  11.422   9.218
 2712POPC   C1A36267  33.721  11.381   8.722
 2712POPC   D2A36268  33.666  11.558   8.273
 2712POPC   C3A36269  33.763  11.280   7.916
 2712POPC   C4A36270  34.013  11.143   7.564
 2712POPC   C1B36271  34.206  11.483   8.844
 2712POPC   C2B36272  34.092  11.726   8.514
 2712POPC   C3B36273  34.168  11.494   8.139
 2712POPC   C4B36274  34.107  11.630   7.739
 2713POPC   NC336275   8.003  10.245   9.466
 2713POPC   PO436276   8.218   9.617   9.608
 2713POPC   GL136277   8.231   9.824   9.192
 2713POPC   GL236278   8.402  10.139   9.140
 2713POPC   C1A36279   8.331   9.660   8.794
 2713POPC   D2A36280   8.188   9.766   8.398
 2713POPC   C3A36281   8.062   9.534   8.013
 2713POPC   C4A36282   7.729   9.733   7.775
 2713POPC   C1B36283   8.073  10.142   8.785
 2713POPC   C2B36284   8.112  10.299   8.348
 2713POPC   C3B36285   8.130  10.027   7.968
 2713POPC   C4B36286   8.222   9.896   7.552
 2714POPC   NC336287  20.720  44.902   9.983
 2714POPC   PO436288  20.386  44.634   9.372
 2714POPC   GL136289  20.435  44.742   9.002
 2714POPC   GL236290  20.776  44.845   9.077
 2714POPC   C1A36291  20.599  44.483   8.652
 2714POPC   D2A36292  20.980  44.584   8.454
 2714POPC   C3A36293  20.664  44.753   8.198
 2714POPC   C4A36294  20.606  44.638   7.799
 2714POPC   C1B36295  20.741  44.997   8.688
 2714POPC   C2B36296  20.994   0.108   8.359
 2714POPC   C3B36297  20.935   0.074   7.932
 2714POPC   C4B36298  20.938  44.992   7.511
 2715POPC   NC336299   3.387  31.197   9.515
 2715POPC   PO436300   3.491  31.903   9.527
 2715POPC   GL136301   3.419  31.607   9.194
 2715POPC   GL236302   3.734  31.366   9.177
 2715POPC   C1A36303   3.366  31.421   8.790
 2715POPC   D2A36304   3.579  31.491   8.413
 2715POPC   C3A36305   3.357  31.543   8.053
 2715POPC   C4A36306   3.271  31.284   7.744
 2715POPC   C1B36307   3.853  31.674   8.847
 2715POPC   C2B36308   4.080  31.729   8.446
 2715POPC   C3B36309   3.893  31.702   8.025
 2715POPC   C4B36310   3.771  31.320   7.857
 2716POPC   NC336311  31.212  16.962   9.744
 2716POPC   PO436312  30.670  16.541   9.480
 2716POPC   GL136313  30.691  16.460   9.050
 2716POPC   GL236314  30.769  16.809   8.998
 2716POPC   C1A36315  30.480  16.543   8.668
 2716POPC   D2A36316  30.711  16.738   8.357
 2716POPC   C3A36317  30.558  16.637   7.972
 2716POPC   C4A36318  30.358  16.906   7.753
 2716POPC   C1B36319  30.725  17.160   8.723
 2716POPC   C2B36320  30.664  17.265   8.315
 2716POPC   C3B36321  30.790  17.094   7.949
 2716POPC   C4B36322  31.140  17.082   7.715
 2717POPC   NC336323  15.199  17.120   9.552
 2717POPC   PO436324  15.216  16.491   9.483
 2717POPC   GL136325  15.071  16.734   9.180
 2717POPC   GL236326  15.412  16.882   9.133
 2717POPC   C1A36327  14.904  16.843   8.762
 2717POPC   D2A36328  15.079  16.747   8.347
 2717POPC   C3A36329  14.843  16.790   7.979
 2717POPC   C4A36330  14.833  16.542   7.603
 2717POPC   C1B36331  15.347  16.577   8.780
 2717POPC   C2B36332  15.433  16.367   8.377
 2717POPC   C3B36333  15.301  16.472   7.944
 2717POPC   C4B36334  15.246  16.811   7.642
 2718POPC   NC336335  24.184  36.300   9.429
 2718POPC   PO436336  24.648  35.837   9.528
 2718POPC   GL136337  24.423  35.909   9.151
 2718POPC   GL236338  24.064  35.919   9.094
 2718POPC   C1A36339  24.569  36.052   8.766
 2718POPC   D2A36340  24.523  36.026   8.337
 2718POPC   C3A36341  24.659  36.375   8.073
 2718POPC   C4A36342  24.459  36.135   7.764
 2718POPC   C1B36343  24.101  36.229   8.733
 2718POPC   C2B36344  24.230  36.447   8.319
 2718POPC   C3B36345  24.065  36.432   7.901
 2718POPC   C4B36346  23.979  36.187   7.531
 2719POPC   NC336347   0.105   2.935   9.438
 2719POPC   PO436348  44.443   2.892   9.565
 2719POPC   GL136349  44.619   2.856   9.169
 2719POPC   GL236350  44.691   2.493   9.103
 2719POPC   C1A36351  44.466   2.876   8.754
 2719POPC   D2A36352  44.516   2.711   8.344
 2719POPC   C3A36353  44.667   2.968   8.036
 2719POPC   C4A36354  44.513   2.837   7.692
 2719POPC   C1B36355  44.870   2.550   8.676
 2719POPC   C2B36356  44.943   2.374   8.281
 2719POPC   C3B36357  44.802   2.471   7.907
 2719POPC   C4B36358   0.056   2.612   7.579
 2720POPC   NC336359  13.561  40.155   9.623
 2720POPC   PO436360  14.197  40.262   9.413
 2720POPC   GL136361  13.821  40.010   9.191
 2720POPC   GL236362  13.478  40.103   9.108
 2720POPC   C1A36363  13.681  39.760   8.804
 2720POPC   D2A36364  13.494  39.882   8.408
 2720POPC   C3A36365  13.523  39.661   8.043
 2720POPC   C4A36366  13.365  39.697   7.650
 2720POPC   C1B36367  13.651  40.289   8.691
 2720POPC   C2B36368  13.612  40.330   8.189
 2720POPC   C3B36369  13.537  40.157   7.790
 2720POPC   C4B36370  13.373  40.115   7.370
 2721POPC   NC336371  16.001  33.183   9.508
 2721POPC   PO436372  15.683  32.594   9.503
 2721POPC   GL136373  15.813  32.830   9.142
 2721POPC   GL236374  15.689  33.173   9.120
 2721POPC   C1A36375  16.109  32.940   8.799
 2721POPC   D2A36376  16.462  32.921   8.508
 2721POPC   C3A36377  16.340  32.945   8.089
 2721POPC   C4A36378  16.056  33.073   7.801
 2721POPC   C1B36379  15.611  33.037   8.716
 2721POPC   C2B36380  15.810  33.047   8.345
 2721POPC   C3B36381  15.582  33.083   7.996
 2721POPC   C4B36382  15.647  33.320   7.641
 2722POPC   NC336383  35.260  16.298   9.365
 2722POPC   PO436384  35.273  15.660   9.450
 2722POPC   GL136385  35.384  15.823   9.101
 2722POPC   GL236386  35.732  15.848   9.174
 2722POPC   C1A36387  35.204  16.023   8.746
 2722POPC   D2A36388  35.054  16.133   8.345
 2722POPC   C3A36389  35.086  15.885   7.966
 2722POPC   C4A36390  35.029  16.046   7.526
 2722POPC   C1B36391  35.714  15.593   8.797
 2722POPC   C2B36392  35.486  15.711   8.430
 2722POPC   C3B36393  35.540  16.030   8.143
 2722POPC   C4B36394  35.553  15.834   7.763
 2723POPC   NC336395  27.211  34.061   9.634
 2723POPC   PO436396  27.740  33.585   9.633
 2723POPC   GL136397  27.545  33.660   9.224
 2723POPC   GL236398  27.455  34.008   9.156
 2723POPC   C1A36399  27.444  33.526   8.790
 2723POPC   D2A36400  27.216  33.607   8.410
 2723POPC   C3A36401  27.430  33.594   8.042
 2723POPC   C4A36402  27.684  33.445   7.749
 2723POPC   C1B36403  27.654  33.994   8.754
 2723POPC   C2B36404  27.785  33.848   8.331
 2723POPC   C3B36405  27.715  34.024   7.904
 2723POPC   C4B36406  27.906  34.077   7.458
 2724POPC   NC336407   7.049  21.064   9.469
 2724POPC   PO436408   7.625  20.746   9.611
 2724POPC   GL136409   7.520  20.625   9.151
 2724POPC   GL236410   7.202  20.755   9.101
 2724POPC   C1A36411   7.403  20.623   8.684
 2724POPC   D2A36412   7.558  20.419   8.370
 2724POPC   C3A36413   7.386  20.411   8.008
 2724POPC   C4A36414   7.601  20.368   7.634
 2724POPC   C1B36415   7.136  21.062   8.804
 2724POPC   C2B36416   7.103  21.102   8.391
 2724POPC   C3B36417   7.330  20.930   8.069
 2724POPC   C4B36418   7.315  20.792   7.660
 2725POPC   NC336419  33.456  24.535   9.550
 2725POPC   PO436420  34.110  24.873   9.477
 2725POPC   GL136421  33.832  24.639   9.224
 2725POPC   GL236422  33.553  24.870   9.196
 2725POPC   C1A36423  33.832  24.363   8.868
 2725POPC   D2A36424  33.815  24.154   8.462
 2725POPC   C3A36425  33.808  24.372   8.069
 2725POPC   C4A36426  33.875  24.549   7.665
 2725POPC   C1B36427  33.478  24.810   8.792
 2725POPC   C2B36428  33.627  24.737   8.391
 2725POPC   C3B36429  33.639  24.881   7.971
 2725POPC   C4B36430  33.540  24.889   7.507
 2726POPC   NC336431  32.551  37.927   9.527
 2726POPC   PO436432  32.144  37.285   9.487
 2726POPC   GL136433  32.053  37.558   9.145
 2726POPC   GL236434  32.121  37.938   9.189
 2726POPC   C1A36435  32.350  37.558   8.853
 2726POPC   D2A36436  32.360  37.712   8.488
 2726POPC   C3A36437  32.093  37.604   8.211
 2726POPC   C4A36438  32.191  37.541   7.799
 2726POPC   C1B36439  31.923  37.918   8.757
 2726POPC   C2B36440  32.074  38.107   8.352
 2726POPC   C3B36441  32.388  37.994   8.056
 2726POPC   C4B36442  32.325  38.154   7.683
 2727POPC   NC336443  44.277  32.430   9.439
 2727POPC   PO436444  44.739  31.944   9.470
 2727POPC   GL136445  44.663  31.944   9.035
 2727POPC   GL236446  44.452  32.213   9.033
 2727POPC   C1A36447  44.540  32.051   8.587
 2727POPC   D2A36448  44.439  32.427   8.340
 2727POPC   C3A36449  44.460  32.326   7.909
 2727POPC   C4A36450  44.445  31.931   7.701
 2727POPC   C1B36451  44.787  32.465   8.828
 2727POPC   C2B36452  44.823  32.728   8.466
 2727POPC   C3B36453  44.876  32.610   8.053
 2727POPC   C4B36454  44.900  32.404   7.659
 2728POPC   NC336455  39.308  23.787   9.282
 2728POPC   PO436456  38.760  23.844   9.717
 2728POPC   GL136457  38.843  23.551   9.255
 2728POPC   GL236458  39.131  23.323   9.160
 2728POPC   C1A36459  38.892  23.587   8.774
 2728POPC   D2A36460  38.860  23.389   8.337
 2728POPC   C3A36461  39.016  23.597   7.929
 2728POPC   C4A36462  39.138  23.615   7.465
 2728POPC   C1B36463  39.381  23.412   8.746
 2728POPC   C2B36464  39.580  23.533   8.326
 2728POPC   C3B36465  39.521  23.718   7.894
 2728POPC   C4B36466  39.570  23.881   7.473
 2729POPC   NC336467  28.181  33.445   9.575
 2729POPC   PO436468  28.750  33.274   9.543
 2729POPC   GL136469  28.498  33.258   9.193
 2729POPC   GL236470  28.270  32.953   9.102
 2729POPC   C1A36471  28.612  33.240   8.755
 2729POPC   D2A36472  28.378  33.149   8.395
 2729POPC   C3A36473  28.452  32.909   8.002
 2729POPC   C4A36474  28.559  32.955   7.544
 2729POPC   C1B36475  28.125  33.316   8.861
 2729POPC   C2B36476  27.882  33.376   8.523
 2729POPC   C3B36477  28.022  33.395   8.120
 2729POPC   C4B36478  28.186  33.245   7.721
 2730POPC   NC336479  43.940  23.320   9.493
 2730POPC   PO436480  43.685  23.937   9.565
 2730POPC   GL136481  43.667  23.762   9.192
 2730POPC   GL236482  43.390  23.995   9.116
 2730POPC   C1A36483  43.937  23.655   8.854
 2730POPC   D2A36484  43.833  23.339   8.542
 2730POPC   C3A36485  43.902  23.494   8.116
 2730POPC   C4A36486  44.206  23.667   7.831
 2730POPC   C1B36487  43.597  24.062   8.766
 2730POPC   C2B36488  43.735  23.861   8.420
 2730POPC   C3B36489  43.732  24.001   8.004
 2730POPC   C4B36490  43.455  24.103   7.685
 2731POPC   NC336491  43.116  25.470   9.501
 2731POPC   PO436492  43.282  24.808   9.488
 2731POPC   GL136493  43.079  24.960   9.109
 2731POPC   GL236494  43.001  25.296   9.042
 2731POPC   C1A36495  43.214  24.995   8.683
 2731POPC   D2A36496  43.098  25.314   8.367
 2731POPC   C3A36497  43.059  25.163   7.942
 2731POPC   C4A36498  43.416  25.022   7.761
 2731POPC   C1B36499  43.189  25.616   8.789
 2731POPC   C2B36500  43.224  25.813   8.405
 2731POPC   C3B36501  43.123  25.677   7.993
 2731POPC   C4B36502  43.307  25.549   7.605
 2732POPC   NC336503  41.735  19.509   9.714
 2732POPC   PO436504  41.371  18.957   9.459
 2732POPC   GL136505  41.538  19.096   9.083
 2732POPC   GL236506  41.263  19.356   9.072
 2732POPC   C1A36507  41.575  18.806   8.735
 2732POPC   D2A36508  41.837  18.548   8.464
 2732POPC   C3A36509  41.652  18.697   8.122
 2732POPC   C4A36510  41.412  18.633   7.786
 2732POPC   C1B36511  41.424  19.390   8.658
 2732POPC   C2B36512  41.508  19.167   8.288
 2732POPC   C3B36513  41.467  19.137   7.869
 2732POPC   C4B36514  41.075  19.272   7.916
 2733POPC   NC336515   0.668  17.828   9.972
 2733POPC   PO436516   0.488  18.414   9.650
 2733POPC   GL136517   0.466  18.366   9.170
 2733POPC   GL236518   0.383  17.994   9.136
 2733POPC   C1A36519   0.362  18.261   8.708
 2733POPC   D2A36520   0.210  18.070   8.320
 2733POPC   C3A36521   0.183  18.344   7.951
 2733POPC   C4A36522   0.397  18.502   7.573
 2733POPC   C1B36523   0.632  17.806   8.767
 2733POPC   C2B36524   0.784  17.941   8.345
 2733POPC   C3B36525   0.569  17.996   7.950
 2733POPC   C4B36526   0.180  17.849   7.826
 2734POPC   NC336527  14.022  28.973   9.409
 2734POPC   PO436528  14.615  29.223   9.600
 2734POPC   GL136529  14.583  29.136   9.174
 2734POPC   GL236530  14.849  28.901   9.150
 2734POPC   C1A36531  14.358  29.258   8.797
 2734POPC   D2A36532  14.229  29.577   8.489
 2734POPC   C3A36533  14.245  29.410   8.065
 2734POPC   C4A36534  14.294  29.161   7.691
 2734POPC   C1B36535  14.832  29.066   8.719
 2734POPC   C2B36536  14.574  29.118   8.323
 2734POPC   C3B36537  14.731  29.007   7.883
 2734POPC   C4B36538  14.882  28.769   7.479
 2735POPC   NC336539  18.145  43.562   9.533
 2735POPC   PO436540  18.640  43.992   9.526
 2735POPC   GL136541  18.603  43.741   9.178
 2735POPC   GL236542  18.355  43.879   9.027
 2735POPC   C1A36543  18.636  43.545   8.778
 2735POPC   D2A36544  18.775  43.641   8.345
 2735POPC   C3A36545  18.500  43.789   8.018
 2735POPC   C4A36546  18.441  44.190   7.905
 2735POPC   C1B36547  18.169  43.855   8.617
 2735POPC   C2B36548  18.105  43.560   8.289
 2735POPC   C3B36549  17.981  43.684   7.912
 2735POPC   C4B36550  17.916  44.127   7.925
 2736POPC   NC336551  12.927  11.015   9.540
 2736POPC   PO436552  12.623  11.657   9.529
 2736POPC   GL136553  12.645  11.384   9.156
 2736POPC   GL236554  12.604  10.994   9.155
 2736POPC   C1A36555  12.899  11.238   8.807
 2736POPC   D2A36556  13.129  11.074   8.510
 2736POPC   C3A36557  13.098  11.193   8.080
 2736POPC   C4A36558  12.974  11.317   7.662
 2736POPC   C1B36559  12.476  10.973   8.725
 2736POPC   C2B36560  12.638  11.146   8.324
 2736POPC   C3B36561  12.647  10.889   7.969
 2736POPC   C4B36562  12.715  10.863   7.536
 2737POPC   NC336563  32.618  28.178   9.409
 2737POPC   PO436564  31.942  28.469   9.466
 2737POPC   GL136565  32.222  28.389   9.132
 2737POPC   GL236566  32.506  28.613   9.103
 2737POPC   C1A36567  32.382  28.271   8.732
 2737POPC   D2A36568  32.608  28.120   8.400
 2737POPC   C3A36569  32.351  28.097   8.046
 2737POPC   C4A36570  32.216  28.371   7.738
 2737POPC   C1B36571  32.612  28.743   8.705
 2737POPC   C2B36572  32.440  28.616   8.302
 2737POPC   C3B36573  32.497  28.752   7.896
 2737POPC   C4B36574  32.582  28.602   7.469
 2738POPC   NC336575  11.314  10.143   9.510
 2738POPC   PO436576  11.413   9.471   9.458
 2738POPC   GL136577  11.098   9.544   9.141
 2738POPC   GL236578  11.012   9.924   9.138
 2738POPC   C1A36579  11.241   9.408   8.731
 2738POPC   D2A36580  11.360   9.601   8.364
 2738POPC   C3A36581  11.071   9.596   8.043
 2738POPC   C4A36582  10.972   9.329   7.762
 2738POPC   C1B36583  11.333   9.940   8.805
 2738POPC   C2B36584  11.509  10.118   8.411
 2738POPC   C3B36585  11.420   9.976   8.001
 2738POPC   C4B36586  11.245  10.121   7.627
 2739POPC   NC336587  10.433   7.938   9.382
 2739POPC   PO436588  10.710   8.554   9.509
 2739POPC   GL136589  10.665   8.359   9.150
 2739POPC   GL236590  10.308   8.371   9.156
 2739POPC   C1A36591  10.765   8.242   8.755
 2739POPC   D2A36592  10.622   7.989   8.455
 2739POPC   C3A36593  10.578   8.228   8.113
 2739POPC   C4A36594  10.564   8.125   7.700
 2739POPC   C1B36595  10.244   8.157   8.785
 2739POPC   C2B36596  10.132   8.129   8.369
 2739POPC   C3B36597  10.245   7.857   8.014
 2739POPC   C4B36598  10.074   8.041   7.678
 2740POPC   NC336599   8.659  23.577   9.400
 2740POPC   PO436600   9.129  24.099   9.568
 2740POPC   GL136601   8.851  24.141   9.190
 2740POPC   GL236602   8.915  23.816   9.049
 2740POPC   C1A36603   8.740  24.175   8.736
 2740POPC   D2A36604   9.022  24.062   8.384
 2740POPC   C3A36605   8.953  24.166   7.973
 2740POPC   C4A36606   8.752  24.146   7.559
 2740POPC   C1B36607   8.806  23.644   8.652
 2740POPC   C2B36608   8.833  23.612   8.220
 2740POPC   C3B36609   8.791  23.708   7.810
 2740POPC   C4B36610   9.045  23.564   7.498
 2741POPC   NC336611   5.876  38.132   9.992
 2741POPC   PO436612   5.537  37.730   9.505
 2741POPC   GL136613   5.644  37.785   9.137
 2741POPC   GL236614   5.929  37.873   9.157
 2741POPC   C1A36615   5.645  37.654   8.737
 2741POPC   D2A36616   5.467  37.378   8.453
 2741POPC   C3A36617   5.688  37.569   8.136
 2741POPC   C4A36618   5.739  37.708   7.749
 2741POPC   C1B36619   6.232  37.857   8.851
 2741POPC   C2B36620   6.090  37.797   8.475
 2741POPC   C3B36621   6.203  37.701   8.085
 2741POPC   C4B36622   6.271  37.895   7.720
 2742POPC   NC336623   6.561   4.630   9.862
 2742POPC   PO436624   6.866   5.155   9.607
 2742POPC   GL136625   6.752   5.061   9.175
 2742POPC   GL236626   6.404   5.143   9.107
 2742POPC   C1A36627   6.747   5.091   8.711
 2742POPC   D2A36628   6.555   5.124   8.314
 2742POPC   C3A36629   6.761   5.142   7.895
 2742POPC   C4A36630   6.809   4.902   7.486
 2742POPC   C1B36631   6.264   4.934   8.737
 2742POPC   C2B36632   6.169   4.772   8.330
 2742POPC   C3B36633   6.375   4.816   7.953
 2742POPC   C4B36634   6.339   5.037   7.576
 2743POPC   NC336635   5.407  26.531   9.423
 2743POPC   PO436636   4.911  26.108   9.603
 2743POPC   GL136637   5.098  26.016   9.227
 2743POPC   GL236638   5.054  26.321   9.096
 2743POPC   C1A36639   5.025  25.870   8.792
 2743POPC   D2A36640   5.203  25.886   8.382
 2743POPC   C3A36641   5.002  25.772   7.995
 2743POPC   C4A36642   4.943  25.978   7.596
 2743POPC   C1B36643   5.365  26.269   8.757
 2743POPC   C2B36644   5.289  26.388   8.332
 2743POPC   C3B36645   5.225  26.263   7.922
 2743POPC   C4B36646   5.231  26.528   7.549
 2744POPC   NC336647  44.623  38.136   9.514
 2744POPC   PO436648  44.464  37.504   9.642
 2744POPC   GL136649  44.732  37.629   9.308
 2744POPC   GL236650  44.466  37.797   9.139
 2744POPC   C1A36651  44.795  37.531   8.846
 2744POPC   D2A36652  44.561  37.579   8.455
 2744POPC   C3A36653  44.785  37.565   8.055
 2744POPC   C4A36654  44.893  37.929   7.800
 2744POPC   C1B36655  44.324  37.962   8.750
 2744POPC   C2B36656  44.370  38.063   8.297
 2744POPC   C3B36657  44.374  37.828   7.889
 2744POPC   C4B36658  44.497  37.970   7.476
 2745POPC   NC336659  26.993  17.228   9.517
 2745POPC   PO436660  27.364  17.821   9.505
 2745POPC   GL136661  27.121  17.743   9.103
 2745POPC   GL236662  26.993  17.386   9.022
 2745POPC   C1A36663  27.024  17.730   8.642
 2745POPC   D2A36664  26.865  17.440   8.335
 2745POPC   C3A36665  26.938  17.609   7.935
 2745POPC   C4A36666  27.200  17.849   7.740
 2745POPC   C1B36667  26.594  17.488   8.788
 2745POPC   C2B36668  26.361  17.505   8.387
 2745POPC   C3B36669  26.470  17.453   7.954
 2745POPC   C4B36670  26.663  17.250   7.595
 2746POPC   NC336671  23.320  18.105   9.406
 2746POPC   PO436672  22.709  17.916   9.653
 2746POPC   GL136673  22.838  18.003   9.212
 2746POPC   GL236674  23.014  18.335   9.061
 2746POPC   C1A36675  22.919  17.889   8.789
 2746POPC   D2A36676  22.956  17.854   8.339
 2746POPC   C3A36677  22.782  18.221   8.168
 2746POPC   C4A36678  22.601  18.171   7.788
 2746POPC   C1B36679  23.116  18.530   8.623
 2746POPC   C2B36680  23.182  18.572   8.170
 2746POPC   C3B36681  23.159  18.325   7.787
 2746POPC   C4B36682  23.322  18.371   7.356
 2747POPC   NC336683  41.966  35.213   9.473
 2747POPC   PO436684  41.330  35.423   9.408
 2747POPC   GL136685  41.665  35.425   9.120
 2747POPC   GL236686  41.789  35.788   9.081
 2747POPC   C1A36687  41.653  35.164   8.749
 2747POPC   D2A36688  41.730  35.313   8.343
 2747POPC   C3A36689  41.822  35.000   8.047
 2747POPC   C4A36690  41.774  35.153   7.655
 2747POPC   C1B36691  41.510  35.659   8.704
 2747POPC   C2B36692  41.261  35.530   8.341
 2747POPC   C3B36693  41.429  35.457   7.932
 2747POPC   C4B36694  41.819  35.700   7.912
 2748POPC   NC336695  43.453  22.730   9.477
 2748POPC   PO436696  44.110  22.871   9.528
 2748POPC   GL136697  43.843  22.922   9.169
 2748POPC   GL236698  43.698  23.242   9.041
 2748POPC   C1A36699  44.015  22.893   8.769
 2748POPC   D2A36700  44.011  22.721   8.365
 2748POPC   C3A36701  43.824  22.987   8.094
 2748POPC   C4A36702  44.019  23.198   7.720
 2748POPC   C1B36703  43.512  22.945   8.751
 2748POPC   C2B36704  43.385  22.736   8.371
 2748POPC   C3B36705  43.272  23.029   8.057
 2748POPC   C4B36706  43.539  23.150   7.717
 2749POPC   NC336707  12.277  32.362   9.489
 2749POPC   PO436708  11.845  31.881   9.612
 2749POPC   GL136709  11.936  32.083   9.213
 2749POPC   GL236710  11.788  32.434   9.152
 2749POPC   C1A36711  12.117  32.014   8.798
 2749POPC   D2A36712  11.956  32.009   8.381
 2749POPC   C3A36713  12.240  32.030   8.053
 2749POPC   C4A36714  11.957  32.362   7.940
 2749POPC   C1B36715  11.993  32.511   8.727
 2749POPC   C2B36716  12.322  32.402   8.376
 2749POPC   C3B36717  12.431  32.497   7.893
 2749POPC   C4B36718  12.211  32.605   7.495
 2750POPC   NC336719  30.919   6.481   9.467
 2750POPC   PO436720  30.314   6.837   9.422
 2750POPC   GL136721  30.568   6.651   9.131
 2750POPC   GL236722  30.849   6.859   9.055
 2750POPC   C1A36723  30.440   6.493   8.744
 2750POPC   D2A36724  30.646   6.628   8.403
 2750POPC   C3A36725  30.486   6.536   8.002
 2750POPC   C4A36726  30.415   6.821   7.723
 2750POPC   C1B36727  30.987   6.526   8.816
 2750POPC   C2B36728  31.159   6.512   8.430
 2750POPC   C3B36729  30.985   6.570   8.028
 2750POPC   C4B36730  30.905   6.691   7.629
 2751POPC   NC336731  28.575  24.158   9.474
 2751POPC   PO436732  28.206  23.567   9.384
 2751POPC   GL136733  28.359  23.866   9.090
 2751POPC   GL236734  28.739  23.767   9.190
 2751POPC   C1A36735  28.303  23.836   8.623
 2751POPC   D2A36736  28.276  23.425   8.420
 2751POPC   C3A36737  28.250  23.541   8.006
 2751POPC   C4A36738  28.378  23.950   7.829
 2751POPC   C1B36739  28.681  23.559   8.822
 2751POPC   C2B36740  28.826  23.691   8.444
 2751POPC   C3B36741  28.761  23.651   8.022
 2751POPC   C4B36742  28.675  23.594   7.611
 2752POPC   NC336743   0.233  17.108   9.431
 2752POPC   PO436744   0.730  17.447   9.732
 2752POPC   GL136745   0.653  17.384   9.258
 2752POPC   GL236746   0.329  17.460   9.071
 2752POPC   C1A36747   0.730  17.270   8.824
 2752POPC   D2A36748   0.455  17.366   8.474
 2752POPC   C3A36749   0.614  17.495   8.081
 2752POPC   C4A36750   0.681  17.584   7.653
 2752POPC   C1B36751   0.212  17.063   8.811
 2752POPC   C2B36752   0.217  16.897   8.427
 2752POPC   C3B36753   0.168  17.148   8.096
 2752POPC   C4B36754   0.240  17.355   7.747
 2753POPC   NC336755  10.457   6.938   9.367
 2753POPC   PO436756  10.725   7.581   9.361
 2753POPC   GL136757  10.562   7.727   8.945
 2753POPC   GL236758  10.177   7.691   9.017
 2753POPC   C1A36759  10.562   7.493   8.568
 2753POPC   D2A36760  10.732   7.141   8.348
 2753POPC   C3A36761  10.830   7.313   7.941
 2753POPC   C4A36762  10.623   7.612   7.589
 2753POPC   C1B36763  10.128   7.288   8.758
 2753POPC   C2B36764  10.180   7.133   8.318
 2753POPC   C3B36765   9.998   7.317   7.941
 2753POPC   C4B36766  10.085   7.560   7.552
 2754POPC   NC336767  29.279  20.979   9.514
 2754POPC   PO436768  29.322  21.592   9.275
 2754POPC   GL136769  29.239  21.231   9.064
 2754POPC   GL236770  28.909  21.149   9.161
 2754POPC   C1A36771  29.413  21.116   8.676
 2754POPC   D2A36772  29.600  21.255   8.276
 2754POPC   C3A36773  29.433  21.615   8.052
 2754POPC   C4A36774  29.385  21.629   7.586
 2754POPC   C1B36775  28.882  21.285   8.722
 2754POPC   C2B36776  29.063  21.245   8.297
 2754POPC   C3B36777  29.001  21.419   7.880
 2754POPC   C4B36778  29.005  21.336   7.443
 2755POPC   NC336779  30.646  15.412   9.373
 2755POPC   PO436780  30.931  14.819   9.530
 2755POPC   GL136781  30.967  14.806   9.124
 2755POPC   GL236782  31.000  15.160   9.109
 2755POPC   C1A36783  30.703  14.905   8.793
 2755POPC   D2A36784  30.535  15.137   8.465
 2755POPC   C3A36785  30.666  15.077   8.048
 2755POPC   C4A36786  30.309  15.138   7.757
 2755POPC   C1B36787  31.117  15.314   8.715
 2755POPC   C2B36788  30.936  15.411   8.337
 2755POPC   C3B36789  31.123  15.346   7.952
 2755POPC   C4B36790  30.994  15.113   7.599
 2756POPC   NC336791  10.025  33.073   9.389
 2756POPC   PO436792   9.395  33.309   9.436
 2756POPC   GL136793   9.563  33.102   9.091
 2756POPC   GL236794   9.273  33.209   8.944
 2756POPC   C1A36795   9.704  33.058   8.662
 2756POPC   D2A36796   9.920  32.832   8.320
 2756POPC   C3A36797   9.786  32.956   7.904
 2756POPC   C4A36798  10.038  33.113   7.573
 2756POPC   C1B36799   9.258  33.305   8.530
 2756POPC   C2B36800   9.478  33.229   8.198
 2756POPC   C3B36801   9.438  33.363   7.804
 2756POPC   C4B36802   9.583  33.243   7.407
 2757POPC   NC336803  17.449   9.291   9.624
 2757POPC   PO436804  17.538   8.729   9.622
 2757POPC   GL136805  17.480   8.974   9.250
 2757POPC   GL236806  17.825   9.095   9.234
 2757POPC   C1A36807  17.457   9.185   8.880
 2757POPC   D2A36808  17.652   9.113   8.500
 2757POPC   C3A36809  17.541   9.304   8.114
 2757POPC   C4A36810  17.536   9.035   7.746
 2757POPC   C1B36811  17.780   8.729   8.918
 2757POPC   C2B36812  17.883   8.651   8.488
 2757POPC   C3B36813  17.719   8.652   8.078
 2757POPC   C4B36814  17.850   8.568   7.672
 2758POPC   NC336815  33.239  15.461   9.476
 2758POPC   PO436816  32.751  15.012   9.378
 2758POPC   GL136817  33.004  15.250   9.036
 2758POPC   GL236818  33.390  15.328   9.020
 2758POPC   C1A36819  32.959  15.187   8.585
 2758POPC   D2A36820  32.866  14.857   8.282
 2758POPC   C3A36821  32.804  14.980   7.856
 2758POPC   C4A36822  33.146  15.210   7.694
 2758POPC   C1B36823  33.414  15.012   8.727
 2758POPC   C2B36824  33.373  15.122   8.289
 2758POPC   C3B36825  33.577  15.242   7.941
 2758POPC   C4B36826  33.639  15.077   7.545
 2759POPC   NC336827  17.069  13.298   9.516
 2759POPC   PO436828  16.805  13.938   9.620
 2759POPC   GL136829  16.843  13.740   9.195
 2759POPC   GL236830  16.880  13.415   9.063
 2759POPC   C1A36831  16.515  13.744   8.839
 2759POPC   D2A36832  16.491  13.535   8.394
 2759POPC   C3A36833  16.419  13.774   7.989
 2759POPC   C4A36834  16.395  13.695   7.525
 2759POPC   C1B36835  16.974  13.597   8.702
 2759POPC   C2B36836  17.027  13.496   8.293
 2759POPC   C3B36837  16.900  13.595   7.925
 2759POPC   C4B36838  16.941  13.864   7.582
 2760POPC   NC336839  19.836   6.101   9.607
 2760POPC   PO436840  19.974   5.497   9.366
 2760POPC   GL136841  19.799   5.873   9.156
 2760POPC   GL236842  20.044   6.145   9.145
 2760POPC   C1A36843  19.631   6.043   8.795
 2760POPC   D2A36844  19.677   6.246   8.423
 2760POPC   C3A36845  19.558   5.983   8.065
 2760POPC   C4A36846  19.760   5.624   7.809
 2760POPC   C1B36847  20.152   5.894   8.782
 2760POPC   C2B36848  19.973   5.836   8.377
 2760POPC   C3B36849  20.090   5.958   7.975
 2760POPC   C4B36850  20.288   5.610   7.750
 2761POPC   NC336851  12.210  20.113   9.505
 2761POPC   PO436852  11.791  19.495   9.508
 2761POPC   GL136853  11.876  19.824   9.204
 2761POPC   GL236854  12.172  19.708   9.118
 2761POPC   C1A36855  11.790  19.849   8.745
 2761POPC   D2A36856  11.803  20.119   8.369
 2761POPC   C3A36857  11.571  19.942   8.007
 2761POPC   C4A36858  11.743  19.655   7.663
 2761POPC   C1B36859  12.263  19.996   8.812
 2761POPC   C2B36860  12.232  19.827   8.423
 2761POPC   C3B36861  12.075  19.760   8.022
 2761POPC   C4B36862  12.277  19.926   7.646
 2762POPC   NC336863  34.409  44.257   9.444
 2762POPC   PO436864  34.356  43.615   9.366
 2762POPC   GL136865  34.679  43.876   9.165
 2762POPC   GL236866  34.507  44.102   8.965
 2762POPC   C1A36867  34.864  43.780   8.763
 2762POPC   D2A36868  34.632  43.841   8.383
 2762POPC   C3A36869  34.812  43.862   7.989
 2762POPC   C4A36870  34.694  43.660   7.605
 2762POPC   C1B36871  34.255  44.114   8.592
 2762POPC   C2B36872  34.106  43.739   8.380
 2762POPC   C3B36873  34.324  43.638   8.016
 2762POPC   C4B36874  34.364  44.036   7.786
 2763POPC   NC336875  22.125  27.417   9.751
 2763POPC   PO436876  22.801  27.661   9.574
 2763POPC   GL136877  22.968  27.565   9.178
 2763POPC   GL236878  23.052  27.917   9.140
 2763POPC   C1A36879  22.834  27.375   8.777
 2763POPC   D2A36880  22.926  27.095   8.402
 2763POPC   C3A36881  22.840  27.309   8.023
 2763POPC   C4A36882  22.978  27.324   7.585
 2763POPC   C1B36883  22.806  27.885   8.787
 2763POPC   C2B36884  22.659  27.758   8.390
 2763POPC   C3B36885  22.881  27.882   8.026
 2763POPC   C4B36886  22.954  27.824   7.597
 2764POPC   NC336887  21.506   6.458   9.529
 2764POPC   PO436888  20.973   6.831   9.557
 2764POPC   GL136889  21.184   6.665   9.190
 2764POPC   GL236890  21.548   6.783   9.143
 2764POPC   C1A36891  21.277   6.413   8.833
 2764POPC   D2A36892  21.147   6.547   8.436
 2764POPC   C3A36893  21.238   6.427   8.022
 2764POPC   C4A36894  21.291   6.795   7.787
 2764POPC   C1B36895  21.586   6.799   8.714
 2764POPC   C2B36896  21.698   6.570   8.366
 2764POPC   C3B36897  21.742   6.696   7.982
 2764POPC   C4B36898  21.721   6.502   7.578
 2765POPC   NC336899   4.843  24.825   9.355
 2765POPC   PO436900   5.309  24.352   9.596
 2765POPC   GL136901   5.227  24.486   9.184
 2765POPC   GL236902   4.896  24.404   9.091
 2765POPC   C1A36903   5.339  24.569   8.762
 2765POPC   D2A36904   5.158  24.558   8.358
 2765POPC   C3A36905   5.323  24.795   8.032
 2765POPC   C4A36906   5.379  24.429   7.778
 2765POPC   C1B36907   4.822  24.689   8.712
 2765POPC   C2B36908   4.628  24.649   8.306
 2765POPC   C3B36909   4.839  24.710   7.947
 2765POPC   C4B36910   4.988  24.651   7.535
 2766POPC   NC336911  30.257  16.661   9.665
 2766POPC   PO436912  29.633  16.918   9.451
 2766POPC   GL136913  29.622  16.763   9.060
 2766POPC   GL236914  29.684  16.380   9.143
 2766POPC   C1A36915  29.852  16.984   8.718
 2766POPC   D2A36916  30.238  16.971   8.486
 2766POPC   C3A36917  30.094  16.724   8.142
 2766POPC   C4A36918  29.864  16.806   7.729
 2766POPC   C1B36919  29.940  16.473   8.790
 2766POPC   C2B36920  29.732  16.485   8.406
 2766POPC   C3B36921  29.797  16.345   7.984
 2766POPC   C4B36922  30.183  16.354   7.752
 2767POPC   NC336923   6.001  22.186   9.659
 2767POPC   PO436924   5.385  22.269   9.479
 2767POPC   GL136925   5.590  22.159   9.102
 2767POPC   GL236926   5.932  22.068   9.134
 2767POPC   C1A36927   5.594  22.145   8.667
 2767POPC   D2A36928   5.880  22.070   8.339
 2767POPC   C3A36929   5.940  22.330   7.961
 2767POPC   C4A36930   5.741  22.474   7.607
 2767POPC   C1B36931   5.938  21.764   8.763
 2767POPC   C2B36932   6.265  21.699   8.446
 2767POPC   C3B36933   6.241  21.919   8.030
 2767POPC   C4B36934   6.131  21.964   7.572
 2768POPC   NC336935  18.656   3.452   9.451
 2768POPC   PO436936  18.276   4.040   9.551
 2768POPC   GL136937  18.226   3.675   9.227
 2768POPC   GL236938  17.923   3.445   9.207
 2768POPC   C1A36939  18.194   3.592   8.776
 2768POPC   D2A36940  18.438   3.568   8.406
 2768POPC   C3A36941  18.270   3.611   8.003
 2768POPC   C4A36942  18.493   3.549   7.615
 2768POPC   C1B36943  17.899   3.178   8.851
 2768POPC   C2B36944  18.067   3.196   8.441
 2768POPC   C3B36945  17.904   3.245   8.052
 2768POPC   C4B36946  18.017   3.223   7.657
 2769POPC   NC336947  12.822   6.846   9.559
 2769POPC   PO436948  12.558   6.220   9.413
 2769POPC   GL136949  12.631   6.395   9.018
 2769POPC   GL236950  12.675   6.744   9.080
 2769POPC   C1A36951  12.889   6.554   8.662
 2769POPC   D2A36952  13.187   6.439   8.406
 2769POPC   C3A36953  13.089   6.621   8.054
 2769POPC   C4A36954  12.873   6.584   7.705
 2769POPC   C1B36955  12.451   6.770   8.681
 2769POPC   C2B36956  12.541   6.675   8.244
 2769POPC   C3B36957  12.404   6.683   7.818
 2769POPC   C4B36958  12.578   6.847   7.401
 2770POPC   NC336959   7.700  41.839   9.510
 2770POPC   PO436960   7.278  41.349   9.567
 2770POPC   GL136961   7.283  41.265   9.116
 2770POPC   GL236962   7.612  41.419   9.145
 2770POPC   C1A36963   7.363  41.336   8.678
 2770POPC   D2A36964   7.269  41.638   8.365
 2770POPC   C3A36965   7.404  41.460   7.975
 2770POPC   C4A36966   7.469  41.442   7.535
 2770POPC   C1B36967   7.499  41.788   8.876
 2770POPC   C2B36968   7.762  41.934   8.547
 2770POPC   C3B36969   7.836  41.717   8.172
 2770POPC   C4B36970   7.743  41.882   7.788
 2771POPC   NC336971  34.303  27.691   9.533
 2771POPC   PO436972  34.893  27.793   9.355
 2771POPC   GL136973  34.557  27.775   9.088
 2771POPC   GL236974  34.413  27.432   9.107
 2771POPC   C1A36975  34.592  27.845   8.672
 2771POPC   D2A36976  34.582  27.649   8.281
 2771POPC   C3A36977  34.499  27.836   7.868
 2771POPC   C4A36978  34.812  27.671   7.545
 2771POPC   C1B36979  34.541  27.316   8.693
 2771POPC   C2B36980  34.414  27.141   8.293
 2771POPC   C3B36981  34.513  27.326   7.900
 2771POPC   C4B36982  34.433  27.341   7.458
 2772POPC   NC336983   3.015   7.597   9.725
 2772POPC   PO436984   2.755   7.005   9.531
 2772POPC   GL136985   2.609   7.301   9.152
 2772POPC   GL236986   2.849   7.635   9.116
 2772POPC   C1A36987   2.698   7.251   8.708
 2772POPC   D2A36988   2.472   7.405   8.360
 2772POPC   C3A36989   2.755   7.294   8.058
 2772POPC   C4A36990   2.910   7.319   7.678
 2772POPC   C1B36991   3.102   7.591   8.756
 2772POPC   C2B36992   3.193   7.405   8.373
 2772POPC   C3B36993   3.202   7.574   7.998
 2772POPC   C4B36994   3.037   7.877   7.725
 2773POPC   NC336995   6.930   1.718   9.518
 2773POPC   PO436996   6.314   1.996   9.452
 2773POPC   GL136997   6.573   1.778   9.136
 2773POPC   GL236998   6.906   1.955   9.069
 2773POPC   C1A36999   6.592   1.724   8.691
 2773POPC   D2A37000   6.790   1.911   8.311
 2773POPC   C3A37001   6.605   1.788   7.895
 2773POPC   C4A37002   6.739   2.004   7.515
 2773POPC   C1B37003   6.608   2.207   8.839
 2773POPC   C2B37004   6.445   2.304   8.409
 2773POPC   C3B37005   6.538   2.269   7.983
 2773POPC   C4B37006   6.291   2.152   7.660
 2774POPC   NC337007  24.033  13.205   9.500
 2774POPC   PO437008  23.635  12.628   9.486
 2774POPC   GL137009  23.550  12.779   9.092
 2774POPC   GL237010  23.770  13.058   9.092
 2774POPC   C1A37011  23.678  12.861   8.655
 2774POPC   D2A37012  23.731  13.011   8.273
 2774POPC   C3A37013  23.420  12.754   8.091
 2774POPC   C4A37014  23.317  12.737   7.684
 2774POPC   C1B37015  24.127  13.100   8.797
 2774POPC   C2B37016  24.340  13.159   8.390
 2774POPC   C3B37017  24.142  13.093   7.975
 2774POPC   C4B37018  23.823  12.826   7.775
 2775POPC   NC337019   4.567  13.069   9.830
 2775POPC   PO437020   5.263  12.950   9.585
 2775POPC   GL137021   5.236  12.968   9.123
 2775POPC   GL237022   5.195  12.630   8.929
 2775POPC   C1A37023   5.059  13.035   8.696
 2775POPC   D2A37024   5.197  12.800   8.321
 2775POPC   C3A37025   5.124  13.038   7.962
 2775POPC   C4A37026   4.773  13.195   7.766
 2775POPC   C1B37027   4.911  12.482   8.640
 2775POPC   C2B37028   4.916  12.349   8.220
 2775POPC   C3B37029   5.129  12.529   7.878
 2775POPC   C4B37030   4.745  12.698   7.800
 2776POPC   NC337031  29.653  14.840   9.417
 2776POPC   PO437032  30.102  14.255   9.485
 2776POPC   GL137033  29.886  14.193   9.138
 2776POPC   GL237034  29.604  14.357   9.225
 2776POPC   C1A37035  29.962  14.274   8.755
 2776POPC   D2A37036  29.779  14.135   8.415
 2776POPC   C3A37037  30.145  14.172   8.130
 2776POPC   C4A37038  30.208  14.339   7.719
 2776POPC   C1B37039  29.531  14.531   8.798
 2776POPC   C2B37040  29.786  14.651   8.429
 2776POPC   C3B37041  29.748  14.478   8.049
 2776POPC   C4B37042  29.462  14.585   7.786
 2777POPC   NC337043  36.625  14.005   9.636
 2777POPC   PO437044  36.903  14.568   9.485
 2777POPC   GL137045  36.964  14.532   9.070
 2777POPC   GL237046  37.327  14.604   9.088
 2777POPC   C1A37047  36.746  14.461   8.668
 2777POPC   D2A37048  36.918  14.359   8.273
 2777POPC   C3A37049  36.595  14.220   8.034
 2777POPC   C4A37050  36.510  14.426   7.697
 2777POPC   C1B37051  37.267  14.539   8.645
 2777POPC   C2B37052  37.376  14.599   8.213
 2777POPC   C3B37053  37.212  14.527   7.821
 2777POPC   C4B37054  36.997  14.150   7.717
 2778POPC   NC337055   0.785  25.810   9.403
 2778POPC   PO437056   0.578  26.375   9.334
 2778POPC   GL137057   0.386  26.045   9.098
 2778POPC   GL237058   0.105  25.855   9.250
 2778POPC   C1A37059   0.366  26.098   8.665
 2778POPC   D2A37060   0.645  26.291   8.399
 2778POPC   C3A37061   0.569  26.132   8.018
 2778POPC   C4A37062   0.697  26.234   7.633
 2778POPC   C1B37063   0.005  25.705   8.836
 2778POPC   C2B37064   0.160  25.611   8.420
 2778POPC   C3B37065   0.102  25.865   8.058
 2778POPC   C4B37066   0.279  25.940   7.639
 2779POPC   NC337067  42.699  43.693   9.594
 2779POPC   PO437068  42.003  43.776   9.774
 2779POPC   GL137069  42.265  43.743   9.332
 2779POPC   GL237070  42.540  43.999   9.204
 2779POPC   C1A37071  42.245  43.630   8.875
 2779POPC   D2A37072  42.148  43.831   8.462
 2779POPC   C3A37073  42.462  43.762   8.154
 2779POPC   C4A37074  42.416  43.705   7.719
 2779POPC   C1B37075  42.593  44.008   8.720
 2779POPC   C2B37076  42.475  44.248   8.335
 2779POPC   C3B37077  42.202  44.192   8.000
 2779POPC   C4B37078  42.395  44.192   7.630
 2780POPC   NC337079  30.874  41.784   9.553
 2780POPC   PO437080  30.562  41.216   9.448
 2780POPC   GL137081  30.471  41.414   9.103
 2780POPC   GL237082  30.280  41.736   9.086
 2780POPC   C1A37083  30.713  41.269   8.778
 2780POPC   D2A37084  30.608  41.075   8.432
 2780POPC   C3A37085  30.845  41.296   8.103
 2780POPC   C4A37086  30.618  41.506   7.759
 2780POPC   C1B37087  30.748  41.793   8.896
 2780POPC   C2B37088  30.926  41.658   8.497
 2780POPC   C3B37089  30.762  41.818   8.138
 2780POPC   C4B37090  30.808  41.999   7.747
 2781POPC   NC337091  31.026  21.465   9.639
 2781POPC   PO437092  30.307  21.360   9.373
 2781POPC   GL137093  30.560  21.566   9.079
 2781POPC   GL237094  30.884  21.614   9.190
 2781POPC   C1A37095  30.638  21.452   8.672
 2781POPC   D2A37096  30.582  21.106   8.430
 2781POPC   C3A37097  30.548  21.294   8.032
 2781POPC   C4A37098  30.349  21.363   7.645
 2781POPC   C1B37099  31.075  21.673   8.823
 2781POPC   C2B37100  30.965  21.799   8.419
 2781POPC   C3B37101  31.081  21.736   8.017
 2781POPC   C4B37102  30.911  21.443   7.685
 2782POPC   NC337103   1.679   7.964   9.509
 2782POPC   PO437104   2.165   8.444   9.528
 2782POPC   GL137105   2.068   8.246   9.119
 2782POPC   GL237106   1.686   8.215   9.075
 2782POPC   C1A37107   2.265   8.237   8.694
 2782POPC   D2A37108   2.346   7.961   8.331
 2782POPC   C3A37109   2.139   8.057   7.935
 2782POPC   C4A37110   1.881   7.935   7.578
 2782POPC   C1B37111   1.822   7.979   8.708
 2782POPC   C2B37112   1.887   8.196   8.345
 2782POPC   C3B37113   1.726   8.402   7.994
 2782POPC   C4B37114   1.493   8.275   7.676
 2783POPC   NC337115  29.665  32.314   9.413
 2783POPC   PO437116  30.320  32.060   9.366
 2783POPC   GL137117  29.996  32.073   9.111
 2783POPC   GL237118  30.048  32.412   9.071
 2783POPC   C1A37119  30.065  32.043   8.694
 2783POPC   D2A37120  30.249  31.921   8.347
 2783POPC   C3A37121  30.213  32.259   8.093
 2783POPC   C4A37122  29.978  32.416   7.741
 2783POPC   C1B37123  29.749  32.548   8.793
 2783POPC   C2B37124  29.851  32.457   8.412
 2783POPC   C3B37125  29.622  32.427   8.078
 2783POPC   C4B37126  29.474  32.663   7.752
 2784POPC   NC337127  10.425  35.002   9.519
 2784POPC   PO437128  10.081  34.394   9.546
 2784POPC   GL137129  10.313  34.453   9.161
 2784POPC   GL237130  10.629  34.323   9.217
 2784POPC   C1A37131  10.296  34.376   8.696
 2784POPC   D2A37132  10.446  34.328   8.240
 2784POPC   C3A37133  10.356  34.608   7.889
 2784POPC   C4A37134  10.210  34.411   7.543
 2784POPC   C1B37135  10.801  34.340   8.765
 2784POPC   C2B37136  10.945  34.320   8.320
 2784POPC   C3B37137  10.867  34.580   7.939
 2784POPC   C4B37138  10.880  35.018   7.718
 2785POPC   NC337139  44.147   5.687   9.648
 2785POPC   PO437140  43.498   5.958   9.536
 2785POPC   GL137141  43.778   5.906   9.166
 2785POPC   GL237142  44.120   5.743   9.156
 2785POPC   C1A37143  43.960   5.973   8.742
 2785POPC   D2A37144  43.790   5.905   8.344
 2785POPC   C3A37145  44.054   5.919   7.985
 2785POPC   C4A37146  43.762   5.904   7.671
 2785POPC   C1B37147  44.213   5.427   8.847
 2785POPC   C2B37148  44.182   5.519   8.417
 2785POPC   C3B37149  44.277   5.424   8.009
 2785POPC   C4B37150  44.184   5.594   7.615
 2786POPC   NC337151  29.789  43.347   9.546
 2786POPC   PO437152  30.076  42.741   9.620
 2786POPC   GL137153  30.013  42.967   9.254
 2786POPC   GL237154  29.674  43.006   9.187
 2786POPC   C1A37155  30.028  43.206   8.868
 2786POPC   D2A37156  29.742  43.231   8.501
 2786POPC   C3A37157  29.922  43.206   8.096
 2786POPC   C4A37158  29.978  43.350   7.695
 2786POPC   C1B37159  29.749  42.787   8.808
 2786POPC   C2B37160  29.507  42.682   8.459
 2786POPC   C3B37161  29.488  42.936   8.111
 2786POPC   C4B37162  29.701  42.903   7.715
 2787POPC   NC337163  21.336  31.829   9.875
 2787POPC   PO437164  21.665  32.388   9.562
 2787POPC   GL137165  21.524  32.331   9.171
 2787POPC   GL237166  21.692  31.981   9.168
 2787POPC   C1A37167  21.230  32.374   8.797
 2787POPC   D2A37168  21.170  32.262   8.360
 2787POPC   C3A37169  21.442  32.391   8.023
 2787POPC   C4A37170  21.290  32.500   7.629
 2787POPC   C1B37171  21.686  32.156   8.744
 2787POPC   C2B37172  21.674  32.006   8.355
 2787POPC   C3B37173  21.834  32.062   7.957
 2787POPC   C4B37174  21.740  32.264   7.594
 2788POPC   NC337175  40.374  13.220   9.386
 2788POPC   PO437176  40.141  13.859   9.578
 2788POPC   GL137177  40.124  13.950   9.180
 2788POPC   GL237178  40.347  13.684   9.095
 2788POPC   C1A37179  39.926  13.784   8.811
 2788POPC   D2A37180  39.802  13.611   8.425
 2788POPC   C3A37181  39.999  13.701   8.031
 2788POPC   C4A37182  39.800  13.979   7.740
 2788POPC   C1B37183  40.325  13.421   8.715
 2788POPC   C2B37184  40.473  13.424   8.268
 2788POPC   C3B37185  40.301  13.270   7.894
 2788POPC   C4B37186  40.013  13.377   7.620
 2789POPC   NC337187   3.489   0.100   9.595
 2789POPC   PO437188   3.184  44.474   9.498
 2789POPC   GL137189   3.315  44.716   9.174
 2789POPC   GL237190   3.639  44.855   9.163
 2789POPC   C1A37191   3.332  44.785   8.747
 2789POPC   D2A37192   3.323  44.967   8.372
 2789POPC   C3A37193   3.169  44.734   8.049
 2789POPC   C4A37194   3.318  44.784   7.618
 2789POPC   C1B37195   3.832  44.727   8.781
 2789POPC   C2B37196   3.841  44.844   8.380
 2789POPC   C3B37197   3.676  44.788   7.992
 2789POPC   C4B37198   3.864  44.944   7.644
 2790POPC   NC337199  12.476  21.575   9.680
 2790POPC   PO437200  12.360  20.956   9.415
 2790POPC   GL137201  12.184  21.376   9.280
 2790POPC   GL237202  11.832  21.319   9.246
 2790POPC   C1A37203  12.161  21.636   8.889
 2790POPC   D2A37204  12.387  21.658   8.477
 2790POPC   C3A37205  12.224  21.643   8.064
 2790POPC   C4A37206  12.134  21.287   7.792
 2790POPC   C1B37207  12.010  21.140   8.843
 2790POPC   C2B37208  12.112  21.154   8.393
 2790POPC   C3B37209  11.803  21.022   8.068
 2790POPC   C4B37210  11.451  21.117   7.813
 2791POPC   NC337211   9.339   0.569   9.522
 2791POPC   PO437212   9.881   0.122   9.463
 2791POPC   GL137213   9.617   0.338   9.136
 2791POPC   GL237214   9.416   0.653   9.037
 2791POPC   C1A37215   9.593   0.342   8.694
 2791POPC   D2A37216   9.640   0.461   8.289
 2791POPC   C3A37217   9.901   0.179   8.089
 2791POPC   C4A37218   9.763   0.385   7.734
 2791POPC   C1B37219   9.615   0.848   8.670
 2791POPC   C2B37220   9.478   0.999   8.280
 2791POPC   C3B37221   9.614   0.839   7.901
 2791POPC   C4B37222   9.497   0.738   7.459
 2792POPC   NC337223  16.229  40.105   9.496
 2792POPC   PO437224  15.628  39.888   9.667
 2792POPC   GL137225  15.875  39.969   9.183
 2792POPC   GL237226  15.922  40.300   9.108
 2792POPC   C1A37227  15.843  39.821   8.739
 2792POPC   D2A37228  15.780  39.982   8.304
 2792POPC   C3A37229  15.685  39.820   7.898
 2792POPC   C4A37230  15.686  40.149   7.605
 2792POPC   C1B37231  16.040  40.291   8.700
 2792POPC   C2B37232  16.267  40.037   8.404
 2792POPC   C3B37233  16.308  40.139   8.029
 2792POPC   C4B37234  16.147  39.969   7.693
 2793POPC   NC337235  26.680  38.388   9.611
 2793POPC   PO437236  27.270  38.494   9.824
 2793POPC   GL137237  27.085  38.529   9.324
 2793POPC   GL237238  26.797  38.303   9.128
 2793POPC   C1A37239  27.005  38.669   8.851
 2793POPC   D2A37240  26.842  38.477   8.477
 2793POPC   C3A37241  26.800  38.675   8.081
 2793POPC   C4A37242  26.967  38.580   7.666
 2793POPC   C1B37243  26.475  38.299   8.785
 2793POPC   C2B37244  26.368  38.109   8.377
 2793POPC   C3B37245  26.432  38.302   7.969
 2793POPC   C4B37246  26.453  38.716   7.716
 2794POPC   NC337247  20.791   8.119   9.896
 2794POPC   PO437248  21.302   8.394   9.622
 2794POPC   GL137249  21.338   8.142   9.220
 2794POPC   GL237250  21.637   8.230   9.090
 2794POPC   C1A37251  21.172   8.055   8.784
 2794POPC   D2A37252  21.307   8.226   8.307
 2794POPC   C3A37253  21.326   7.964   7.922
 2794POPC   C4A37254  21.022   7.783   7.651
 2794POPC   C1B37255  21.646   8.177   8.672
 2794POPC   C2B37256  21.704   8.536   8.419
 2794POPC   C3B37257  21.857   8.525   8.013
 2794POPC   C4B37258  21.593   8.355   7.654
 2795POPC   NC337259   7.185   3.503   9.607
 2795POPC   PO437260   7.811   3.873   9.552
 2795POPC   GL137261   7.492   3.825   9.221
 2795POPC   GL237262   7.545   3.454   9.207
 2795POPC   C1A37263   7.252   3.886   8.807
 2795POPC   D2A37264   7.222   3.692   8.363
 2795POPC   C3A37265   7.282   3.826   7.939
 2795POPC   C4A37266   7.383   3.432   7.835
 2795POPC   C1B37267   7.630   3.247   8.798
 2795POPC   C2B37268   7.692   3.162   8.357
 2795POPC   C3B37269   7.906   3.231   7.955
 2795POPC   C4B37270   7.768   3.362   7.544
 2796POPC   NC337271   3.146  36.335   9.512
 2796POPC   PO437272   2.486  36.055   9.552
 2796POPC   GL137273   2.775  36.103   9.227
 2796POPC   GL237274   3.004  35.798   9.169
 2796POPC   C1A37275   2.857  36.438   8.916
 2796POPC   D2A37276   2.780  36.445   8.479
 2796POPC   C3A37277   3.038  36.336   8.126
 2796POPC   C4A37278   2.835  36.307   7.731
 2796POPC   C1B37279   2.868  35.958   8.749
 2796POPC   C2B37280   2.714  35.948   8.327
 2796POPC   C3B37281   2.911  35.849   7.929
 2796POPC   C4B37282   2.668  35.804   7.557
 2797POPC   NC337283  19.264   0.201   9.487
 2797POPC   PO437284  18.676   0.481   9.395
 2797POPC   GL137285  18.990   0.435   9.057
 2797POPC   GL237286  19.335   0.299   9.022
 2797POPC   C1A37287  19.106   0.567   8.636
 2797POPC   D2A37288  19.294   0.743   8.283
 2797POPC   C3A37289  19.144   0.506   7.950
 2797POPC   C4A37290  19.200   0.624   7.528
 2797POPC   C1B37291  19.135   0.030   8.751
 2797POPC   C2B37292  18.950   0.130   8.384
 2797POPC   C3B37293  18.907   0.047   7.978
 2797POPC   C4B37294  18.977   0.187   7.568
 2798POPC   NC337295  26.385  13.431   9.587
 2798POPC   PO437296  25.740  13.537   9.250
 2798POPC   GL137297  26.063  13.384   9.103
 2798POPC   GL237298  26.137  13.714   8.986
 2798POPC   C1A37299  26.179  13.292   8.685
 2798POPC   D2A37300  26.037  13.306   8.240
 2798POPC   C3A37301  26.079  13.635   7.936
 2798POPC   C4A37302  25.902  13.525   7.576
 2798POPC   C1B37303  25.886  13.719   8.591
 2798POPC   C2B37304  25.652  13.663   8.201
 2798POPC   C3B37305  25.650  13.888   7.796
 2798POPC   C4B37306  25.530  14.169   7.409
 2799POPC   NC337307  17.959  39.871   9.443
 2799POPC   PO437308  18.513  40.196   9.629
 2799POPC   GL137309  18.398  40.044   9.200
 2799POPC   GL237310  18.558  39.771   9.030
 2799POPC   C1A37311  18.327  40.170   8.762
 2799POPC   D2A37312  18.240  39.994   8.346
 2799POPC   C3A37313  18.558  39.991   8.031
 2799POPC   C4A37314  18.478  40.113   7.578
 2799POPC   C1B37315  18.193  39.656   8.753
 2799POPC   C2B37316  18.211  39.459   8.332
 2799POPC   C3B37317  18.117  39.540   7.933
 2799POPC   C4B37318  18.448  39.617   7.704
 2800POPC   NC337319   9.190  25.228   9.563
 2800POPC   PO437320   8.637  24.966   9.647
 2800POPC   GL137321   8.810  25.167   9.180
 2800POPC   GL237322   9.110  25.349   9.081
 2800POPC   C1A37323   8.944  25.046   8.708
 2800POPC   D2A37324   9.241  25.113   8.336
 2800POPC   C3A37325   9.148  25.247   7.916
 2800POPC   C4A37326   9.113  24.943   7.557
 2800POPC   C1B37327   8.841  25.539   8.782
 2800POPC   C2B37328   8.839  25.467   8.350
 2800POPC   C3B37329   8.628  25.571   7.996
 2800POPC   C4B37330   8.614  25.870   7.660
 2801POPC   NC337331  35.582  39.253   9.574
 2801POPC   PO437332  35.059  39.589   9.418
 2801POPC   GL137333  35.377  39.424   9.110
 2801POPC   GL237334  35.626  39.166   9.075
 2801POPC   C1A37335  35.292  39.494   8.702
 2801POPC   D2A37336  35.032  39.342   8.386
 2801POPC   C3A37337  35.231  39.413   7.984
 2801POPC   C4A37338  35.245  39.250   7.556
 2801POPC   C1B37339  35.466  39.015   8.709
 2801POPC   C2B37340  35.553  39.171   8.314
 2801POPC   C3B37341  35.558  39.042   7.907
 2801POPC   C4B37342  35.215  38.800   7.795
 2802POPC   NC337343   9.836  43.464   9.876
 2802POPC   PO437344   9.463  42.909   9.570
 2802POPC   GL137345   9.771  43.054   9.271
 2802POPC   GL237346   9.805  43.400   9.300
 2802POPC   C1A37347   9.780  42.907   8.842
 2802POPC   D2A37348   9.920  42.709   8.451
 2802POPC   C3A37349   9.790  42.895   8.088
 2802POPC   C4A37350   9.640  42.786   7.690
 2802POPC   C1B37351   9.989  43.419   8.896
 2802POPC   C2B37352   9.944  43.252   8.496
 2802POPC   C3B37353  10.065  43.332   8.094
 2802POPC   C4B37354   9.856  43.272   7.739
 2803POPC   NC337355  30.501  38.065   9.469
 2803POPC   PO437356  30.640  37.384   9.552
 2803POPC   GL137357  30.714  37.647   9.182
 2803POPC   GL237358  30.385  37.622   9.043
 2803POPC   C1A37359  30.822  37.692   8.735
 2803POPC   D2A37360  30.514  37.630   8.411
 2803POPC   C3A37361  30.633  37.608   7.997
 2803POPC   C4A37362  30.903  37.672   7.665
 2803POPC   C1B37363  30.421  38.010   8.823
 2803POPC   C2B37364  30.675  38.156   8.496
 2803POPC   C3B37365  30.503  38.079   8.128
 2803POPC   C4B37366  30.479  38.058   7.707
 2804POPC   NC337367  11.714  28.855   9.542
 2804POPC   PO437368  11.985  29.513   9.461
 2804POPC   GL137369  11.805  29.303   9.194
 2804POPC   GL237370  11.994  29.034   9.138
 2804POPC   C1A37371  11.903  29.399   8.779
 2804POPC   D2A37372  11.905  29.570   8.406
 2804POPC   C3A37373  12.208  29.460   8.130
 2804POPC   C4A37374  12.008  29.367   7.764
 2804POPC   C1B37375  12.193  28.968   8.753
 2804POPC   C2B37376  11.957  29.063   8.374
 2804POPC   C3B37377  11.908  28.896   7.987
 2804POPC   C4B37378  12.314  28.932   7.794
 2805POPC   NC337379   3.212  16.085   9.601
 2805POPC   PO437380   3.897  15.810   9.568
 2805POPC   GL137381   3.640  15.834   9.194
 2805POPC   GL237382   3.268  15.897   9.129
 2805POPC   C1A37383   3.679  15.849   8.746
 2805POPC   D2A37384   3.444  15.773   8.362
 2805POPC   C3A37385   3.644  15.927   7.984
 2805POPC   C4A37386   3.469  16.121   7.603
 2805POPC   C1B37387   3.315  16.205   8.813
 2805POPC   C2B37388   3.493  16.273   8.407
 2805POPC   C3B37389   3.533  16.445   8.009
 2805POPC   C4B37390   3.897  16.412   7.763
 2806POPC   NC337391  43.846  20.628   9.584
 2806POPC   PO437392  43.545  20.167   9.179
 2806POPC   GL137393  43.909  20.404   9.122
 2806POPC   GL237394  43.789  20.785   9.113
 2806POPC   C1A37395  43.925  20.505   8.691
 2806POPC   D2A37396  43.547  20.550   8.435
 2806POPC   C3A37397  43.672  20.649   8.040
 2806POPC   C4A37398  43.851  20.471   7.707
 2806POPC   C1B37399  44.075  21.006   8.849
 2806POPC   C2B37400  44.131  20.879   8.423
 2806POPC   C3B37401  43.960  21.059   8.093
 2806POPC   C4B37402  43.983  20.949   7.693
 2807POPC   NC337403  28.672   7.514   9.391
 2807POPC   PO437404  27.945   7.593   9.408
 2807POPC   GL137405  28.028   7.676   9.022
 2807POPC   GL237406  28.335   7.481   9.011
 2807POPC   C1A37407  27.989   7.459   8.638
 2807POPC   D2A37408  28.295   7.141   8.566
 2807POPC   C3A37409  28.298   7.142   8.127
 2807POPC   C4A37410  27.952   7.217   7.822
 2807POPC   C1B37411  28.585   7.581   8.654
 2807POPC   C2B37412  28.513   7.819   8.294
 2807POPC   C3B37413  28.508   7.821   7.887
 2807POPC   C4B37414  28.385   7.456   7.705
 2808POPC   NC337415  10.832  14.143   9.618
 2808POPC   PO437416  10.163  14.166   9.397
 2808POPC   GL137417  10.326  14.507   9.172
 2808POPC   GL237418  10.699  14.477   9.153
 2808POPC   C1A37419  10.401  14.590   8.746
 2808POPC   D2A37420  10.456  14.305   8.399
 2808POPC   C3A37421  10.515  14.530   8.048
 2808POPC   C4A37422  10.363  14.500   7.633
 2808POPC   C1B37423  10.887  14.347   8.746
 2808POPC   C2B37424  11.193  14.234   8.421
 2808POPC   C3B37425  10.977  14.254   8.051
 2808POPC   C4B37426  10.888  14.407   7.671
 2809POPC   NC337427  10.573  27.024   9.592
 2809POPC   PO437428  10.815  26.475   9.555
 2809POPC   GL137429  10.527  26.700   9.187
 2809POPC   GL237430  10.477  27.070   9.096
 2809POPC   C1A37431  10.272  26.714   8.773
 2809POPC   D2A37432  10.197  26.823   8.328
 2809POPC   C3A37433  10.600  26.822   8.068
 2809POPC   C4A37434  10.795  26.555   7.716
 2809POPC   C1B37435  10.193  27.218   8.761
 2809POPC   C2B37436  10.239  27.344   8.328
 2809POPC   C3B37437  10.262  27.168   7.899
 2809POPC   C4B37438  10.354  27.249   7.449
 2810POPC   NC337439  38.508  18.651   9.571
 2810POPC   PO437440  38.198  19.209   9.742
 2810POPC   GL137441  38.367  19.022   9.257
 2810POPC   GL237442  38.214  18.685   9.146
 2810POPC   C1A37443  38.477  19.243   8.856
 2810POPC   D2A37444  38.732  19.393   8.502
 2810POPC   C3A37445  38.789  19.117   8.137
 2810POPC   C4A37446  38.467  19.190   7.830
 2810POPC   C1B37447  38.195  18.824   8.757
 2810POPC   C2B37448  38.356  18.989   8.402
 2810POPC   C3B37449  38.301  18.683   8.111
 2810POPC   C4B37450  38.044  18.837   7.836
 2811POPC   NC337451  17.523  16.117   9.503
 2811POPC   PO437452  17.509  15.489   9.516
 2811POPC   GL137453  17.569  15.788   9.099
 2811POPC   GL237454  17.523  16.147   9.014
 2811POPC   C1A37455  17.399  15.763   8.670
 2811POPC   D2A37456  17.136  15.683   8.319
 2811POPC   C3A37457  17.264  15.573   7.940
 2811POPC   C4A37458  17.629  15.711   7.786
 2811POPC   C1B37459  17.828  16.058   8.707
 2811POPC   C2B37460  17.700  15.937   8.282
 2811POPC   C3B37461  17.379  16.057   8.027
 2811POPC   C4B37462  17.585  16.220   7.649
 2812POPC   NC337463   5.522  22.978   9.481
 2812POPC   PO437464   4.930  22.827   9.684
 2812POPC   GL137465   5.064  22.999   9.216
 2812POPC   GL237466   5.386  22.928   9.000
 2812POPC   C1A37467   4.990  23.108   8.748
 2812POPC   D2A37468   5.171  23.125   8.327
 2812POPC   C3A37469   4.860  23.076   7.973
 2812POPC   C4A37470   4.509  23.121   7.657
 2812POPC   C1B37471   5.486  23.315   8.713
 2812POPC   C2B37472   5.529  23.503   8.268
 2812POPC   C3B37473   5.322  23.340   7.898
 2812POPC   C4B37474   5.273  22.875   7.715
 2813POPC   NC337475   8.787  20.348   9.447
 2813POPC   PO437476   9.078  20.995   9.385
 2813POPC   GL137477   8.925  20.710   9.119
 2813POPC   GL237478   9.188  20.459   9.135
 2813POPC   C1A37479   8.805  20.476   8.767
 2813POPC   D2A37480   8.815  20.479   8.341
 2813POPC   C3A37481   9.125  20.718   8.137
 2813POPC   C4A37482   8.823  20.685   7.822
 2813POPC   C1B37483   9.198  20.150   8.797
 2813POPC   C2B37484   9.255  20.242   8.366
 2813POPC   C3B37485   9.130  20.229   7.947
 2813POPC   C4B37486   9.460  20.223   7.656
 2814POPC   NC337487  37.650  40.398   9.433
 2814POPC   PO437488  38.015  39.907   9.763
 2814POPC   GL137489  37.648  39.854   9.376
 2814POPC   GL237490  37.335  39.876   9.224
 2814POPC   C1A37491  37.677  39.848   8.860
 2814POPC   D2A37492  37.907  39.959   8.482
 2814POPC   C3A37493  37.781  39.710   8.152
 2814POPC   C4A37494  37.675  39.827   7.762
 2814POPC   C1B37495  37.315  40.176   8.798
 2814POPC   C2B37496  37.475  40.236   8.380
 2814POPC   C3B37497  37.315  40.111   7.991
 2814POPC   C4B37498  37.232  40.182   7.563
 2815POPC   NC337499  16.667   7.831   9.505
 2815POPC   PO437500  16.390   7.231   9.677
 2815POPC   GL137501  16.536   7.192   9.198
 2815POPC   GL237502  16.828   7.355   9.238
 2815POPC   C1A37503  16.553   7.478   8.775
 2815POPC   D2A37504  16.805   7.418   8.368
 2815POPC   C3A37505  16.527   7.364   8.010
 2815POPC   C4A37506  16.350   7.741   7.848
 2815POPC   C1B37507  16.977   7.224   8.827
 2815POPC   C2B37508  17.301   7.305   8.535
 2815POPC   C3B37509  17.296   7.265   8.106
 2815POPC   C4B37510  16.999   7.320   7.818
 2816POPC   NC337511  30.659  28.847   9.290
 2816POPC   PO437512  30.722  28.295   9.717
 2816POPC   GL137513  30.828  28.371   9.280
 2816POPC   GL237514  30.869  28.056   9.128
 2816POPC   C1A37515  30.872  28.487   8.824
 2816POPC   D2A37516  30.917  28.260   8.450
 2816POPC   C3A37517  30.726  28.318   8.059
 2816POPC   C4A37518  30.893  28.625   7.816
 2816POPC   C1B37519  30.564  28.083   8.788
 2816POPC   C2B37520  30.459  27.975   8.356
 2816POPC   C3B37521  30.235  28.072   7.993
 2816POPC   C4B37522  30.472  27.988   7.678
 2817POPC   NC337523   9.392  24.479   9.481
 2817POPC   PO437524   9.939  24.111   9.606
 2817POPC   GL137525   9.969  24.249   9.207
 2817POPC   GL237526   9.829  24.595   9.221
 2817POPC   C1A37527   9.662  24.190   8.895
 2817POPC   D2A37528   9.382  24.375   8.575
 2817POPC   C3A37529   9.539  24.280   8.164
 2817POPC   C4A37530   9.783  24.493   7.809
 2817POPC   C1B37531   9.763  24.673   8.775
 2817POPC   C2B37532   9.676  24.768   8.342
 2817POPC   C3B37533  10.062  24.760   8.122
 2817POPC   C4B37534  10.096  24.926   7.729
 2818POPC   NC337535  10.874  32.707   9.540
 2818POPC   PO437536  10.871  32.054   9.585
 2818POPC   GL137537  10.717  32.019   9.155
 2818POPC   GL237538  10.328  31.949   9.172
 2818POPC   C1A37539  10.885  32.077   8.717
 2818POPC   D2A37540  10.630  32.235   8.342
 2818POPC   C3A37541  10.538  32.067   7.910
 2818POPC   C4A37542  10.451  32.327   7.529
 2818POPC   C1B37543  10.390  32.226   8.819
 2818POPC   C2B37544  10.141  32.405   8.506
 2818POPC   C3B37545  10.213  32.422   8.080
 2818POPC   C4B37546  10.040  32.561   7.711
 2819POPC   NC337547  33.413  38.203   9.287
 2819POPC   PO437548  33.956  38.350   9.724
 2819POPC   GL137549  33.940  38.452   9.287
 2819POPC   GL237550  33.934  38.106   9.223
 2819POPC   C1A37551  33.879  38.680   8.898
 2819POPC   D2A37552  33.669  38.576   8.500
 2819POPC   C3A37553  33.871  38.589   8.091
 2819POPC   C4A37554  33.941  38.870   7.789
 2819POPC   C1B37555  33.837  38.186   8.781
 2819POPC   C2B37556  33.965  38.164   8.345
 2819POPC   C3B37557  33.818  38.110   7.933
 2819POPC   C4B37558  33.948  38.204   7.488
 2820POPC   NC337559  14.890   4.316   9.563
 2820POPC   PO437560  15.479   4.019   9.535
 2820POPC   GL137561  15.282   4.301   9.216
 2820POPC   GL237562  14.989   4.590   9.152
 2820POPC   C1A37563  15.409   4.255   8.827
 2820POPC   D2A37564  15.592   4.431   8.501
 2820POPC   C3A37565  15.324   4.329   8.158
 2820POPC   C4A37566  15.354   4.290   7.710
 2820POPC   C1B37567  14.737   4.630   8.770
 2820POPC   C2B37568  14.789   4.408   8.379
 2820POPC   C3B37569  14.846   4.260   7.942
 2820POPC   C4B37570  14.905   4.494   7.566
 2821POPC   NC337571  31.078  19.412   9.487
 2821POPC   PO437572  30.633  19.987   9.587
 2821POPC   GL137573  30.795  19.917   9.184
 2821POPC   GL237574  30.509  19.838   9.050
 2821POPC   C1A37575  30.887  19.845   8.714
 2821POPC   D2A37576  30.632  19.870   8.319
 2821POPC   C3A37577  30.796  19.857   7.892
 2821POPC   C4A37578  30.910  20.144   7.554
 2821POPC   C1B37579  30.471  19.557   8.737
 2821POPC   C2B37580  30.329  19.469   8.338
 2821POPC   C3B37581  30.336  19.638   7.925
 2821POPC   C4B37582  30.337  19.397   7.571
 2822POPC   NC337583  41.838  43.361   9.978
 2822POPC   PO437584  42.139  43.164   9.430
 2822POPC   GL137585  42.067  42.990   9.091
 2822POPC   GL237586  42.423  43.072   9.022
 2822POPC   C1A37587  42.092  42.951   8.677
 2822POPC   D2A37588  42.143  43.313   8.430
 2822POPC   C3A37589  42.272  43.279   8.047
 2822POPC   C4A37590  42.149  43.236   7.681
 2822POPC   C1B37591  42.576  42.794   8.747
 2822POPC   C2B37592  42.476  42.898   8.339
 2822POPC   C3B37593  42.667  42.865   7.965
 2822POPC   C4B37594  42.559  42.918   7.531
 2823POPC   NC337595  24.550  28.027   9.417
 2823POPC   PO437596  24.480  28.661   9.498
 2823POPC   GL137597  24.506  28.422   9.126
 2823POPC   GL237598  24.202  28.569   9.045
 2823POPC   C1A37599  24.483  28.172   8.711
 2823POPC   D2A37600  24.683  27.908   8.361
 2823POPC   C3A37601  24.831  28.133   7.981
 2823POPC   C4A37602  24.736  28.549   7.821
 2823POPC   C1B37603  24.532  28.679   8.720
 2823POPC   C2B37604  24.600  28.485   8.327
 2823POPC   C3B37605  24.330  28.218   8.087
 2823POPC   C4B37606  24.267  28.427   7.702
 2824POPC   NC337607  21.349  42.345   9.732
 2824POPC   PO437608  21.864  42.580   9.339
 2824POPC   GL137609  21.575  42.206   9.187
 2824POPC   GL237610  21.192  42.155   9.256
 2824POPC   C1A37611  21.460  42.122   8.746
 2824POPC   D2A37612  21.526  42.386   8.368
 2824POPC   C3A37613  21.541  42.163   7.938
 2824POPC   C4A37614  21.734  42.342   7.552
 2824POPC   C1B37615  21.049  42.383   8.911
 2824POPC   C2B37616  21.007  42.330   8.486
 2824POPC   C3B37617  21.128  42.468   8.076
 2824POPC   C4B37618  21.205  42.382   7.615
 2825POPC   NC337619   5.334   6.445   9.394
 2825POPC   PO437620   5.047   7.024   9.565
 2825POPC   GL137621   5.150   6.885   9.165
 2825POPC   GL237622   4.913   6.616   9.152
 2825POPC   C1A37623   5.224   6.680   8.752
 2825POPC   D2A37624   5.273   6.475   8.339
 2825POPC   C3A37625   5.153   6.698   7.978
 2825POPC   C4A37626   5.202   6.829   7.547
 2825POPC   C1B37627   4.760   6.452   8.797
 2825POPC   C2B37628   4.751   6.595   8.363
 2825POPC   C3B37629   4.806   6.328   7.989
 2825POPC   C4B37630   5.074   6.348   7.619
 2826POPC   NC337631  31.606  23.986   9.450
 2826POPC   PO437632  31.291  23.434   9.659
 2826POPC   GL137633  31.420  23.544   9.226
 2826POPC   GL237634  31.781  23.536   9.148
 2826POPC   C1A37635  31.361  23.725   8.781
 2826POPC   D2A37636  31.530  23.848   8.421
 2826POPC   C3A37637  31.297  23.670   8.133
 2826POPC   C4A37638  31.258  23.855   7.768
 2826POPC   C1B37639  31.862  23.863   8.830
 2826POPC   C2B37640  31.989  24.100   8.469
 2826POPC   C3B37641  31.839  24.060   8.048
 2826POPC   C4B37642  31.739  23.695   7.834
 2827POPC   NC337643   8.520  33.348   9.574
 2827POPC   PO437644   8.369  33.986   9.380
 2827POPC   GL137645   8.173  33.728   9.099
 2827POPC   GL237646   8.386  33.415   9.073
 2827POPC   C1A37647   7.991  33.871   8.722
 2827POPC   D2A37648   8.258  33.933   8.374
 2827POPC   C3A37649   8.026  33.982   7.996
 2827POPC   C4A37650   7.955  34.036   7.571
 2827POPC   C1B37651   8.263  33.453   8.631
 2827POPC   C2B37652   7.990  33.507   8.270
 2827POPC   C3B37653   8.242  33.515   7.896
 2827POPC   C4B37654   8.176  33.522   7.415
 2828POPC   NC337655  11.196  20.740   9.444
 2828POPC   PO437656  11.770  20.330   9.490
 2828POPC   GL137657  11.565  20.544   9.126
 2828POPC   GL237658  11.534  20.913   9.048
 2828POPC   C1A37659  11.416  20.558   8.694
 2828POPC   D2A37660  11.372  20.817   8.319
 2828POPC   C3A37661  11.260  20.557   7.997
 2828POPC   C4A37662  11.389  20.344   7.683
 2828POPC   C1B37663  11.101  20.949   8.812
 2828POPC   C2B37664  10.934  21.078   8.404
 2828POPC   C3B37665  10.969  20.966   7.961
 2828POPC   C4B37666  11.173  20.797   7.546
 2829POPC   NC337667  34.016  19.849   9.610
 2829POPC   PO437668  33.475  19.938   9.462
 2829POPC   GL137669  33.789  19.936   9.132
 2829POPC   GL237670  34.162  19.942   9.130
 2829POPC   C1A37671  33.841  19.901   8.701
 2829POPC   D2A37672  33.732  19.774   8.282
 2829POPC   C3A37673  33.701  20.002   7.917
 2829POPC   C4A37674  33.791  19.780   7.519
 2829POPC   C1B37675  34.345  19.820   8.743
 2829POPC   C2B37676  34.229  19.910   8.353
 2829POPC   C3B37677  34.161  19.795   7.963
 2829POPC   C4B37678  34.239  20.025   7.617
 2830POPC   NC337679  15.124  33.569   9.699
 2830POPC   PO437680  15.172  34.129   9.563
 2830POPC   GL137681  15.177  33.797   9.204
 2830POPC   GL237682  15.286  33.456   9.228
 2830POPC   C1A37683  15.009  33.673   8.762
 2830POPC   D2A37684  15.098  33.846   8.335
 2830POPC   C3A37685  14.964  33.797   7.909
 2830POPC   C4A37686  15.338  33.969   7.626
 2830POPC   C1B37687  15.500  33.548   8.830
 2830POPC   C2B37688  15.469  33.445   8.393
 2830POPC   C3B37689  15.417  33.604   7.982
 2830POPC   C4B37690  15.189  33.485   7.558
 2831POPC   NC337691  15.022  18.580   9.348
 2831POPC   PO437692  14.916  19.242   9.528
 2831POPC   GL137693  15.119  19.313   9.154
 2831POPC   GL237694  15.100  18.980   8.985
 2831POPC   C1A37695  15.310  19.401   8.775
 2831POPC   D2A37696  15.257  19.121   8.431
 2831POPC   C3A37697  15.154  19.359   8.075
 2831POPC   C4A37698  15.233  19.323   7.651
 2831POPC   C1B37699  15.140  18.638   8.660
 2831POPC   C2B37700  15.337  18.605   8.263
 2831POPC   C3B37701  15.241  18.871   7.950
 2831POPC   C4B37702  14.865  18.994   7.730
 2832POPC   NC337703  23.138   2.483   9.592
 2832POPC   PO437704  22.844   3.004   9.371
 2832POPC   GL137705  22.785   2.949   8.966
 2832POPC   GL237706  23.045   2.705   8.974
 2832POPC   C1A37707  22.934   2.980   8.530
 2832POPC   D2A37708  23.353   2.965   8.380
 2832POPC   C3A37709  23.232   2.830   7.996
 2832POPC   C4A37710  22.801   2.866   7.888
 2832POPC   C1B37711  22.703   2.553   8.667
 2832POPC   C2B37712  22.496   2.630   8.276
 2832POPC   C3B37713  22.522   2.423   7.872
 2832POPC   C4B37714  22.846   2.490   7.559
 2833POPC   NC337715  22.129  32.234   9.565
 2833POPC   PO437716  22.549  32.128   9.095
 2833POPC   GL137717  22.143  32.174   9.005
 2833POPC   GL237718  22.005  32.500   9.130
 2833POPC   C1A37719  22.145  32.087   8.560
 2833POPC   D2A37720  22.322  32.164   8.185
 2833POPC   C3A37721  22.293  31.904   7.824
 2833POPC   C4A37722  22.252  32.156   7.458
 2833POPC   C1B37723  22.010  32.566   8.680
 2833POPC   C2B37724  21.910  32.487   8.242
 2833POPC   C3B37725  22.128  32.493   7.824
 2833POPC   C4B37726  21.998  32.675   7.379
 2834POPC   NC337727  20.328  33.539   9.629
 2834POPC   PO437728  20.903  33.786   9.417
 2834POPC   GL137729  20.720  33.780   9.051
 2834POPC   GL237730  20.375  33.724   9.158
 2834POPC   C1A37731  20.825  33.481   8.758
 2834POPC   D2A37732  20.561  33.475   8.419
 2834POPC   C3A37733  20.629  33.850   8.192
 2834POPC   C4A37734  20.642  33.893   7.761
 2834POPC   C1B37735  20.321  33.855   8.714
 2834POPC   C2B37736  20.099  33.760   8.316
 2834POPC   C3B37737  20.175  33.740   7.869
 2834POPC   C4B37738  20.302  33.707   7.414
 2835POPC   NC337739  23.075  34.175   9.606
 2835POPC   PO437740  22.842  34.819   9.704
 2835POPC   GL137741  22.876  34.596   9.285
 2835POPC   GL237742  22.960  34.289   9.132
 2835POPC   C1A37743  22.770  34.624   8.822
 2835POPC   D2A37744  22.957  34.718   8.444
 2835POPC   C3A37745  22.769  34.668   8.057
 2835POPC   C4A37746  22.912  34.768   7.666
 2835POPC   C1B37747  23.161  34.252   8.716
 2835POPC   C2B37748  23.399  34.500   8.406
 2835POPC   C3B37749  23.285  34.586   8.008
 2835POPC   C4B37750  23.460  34.430   7.655
 2836POPC   NC337751  35.685   3.554   9.718
 2836POPC   PO437752  35.188   3.143   9.540
 2836POPC   GL137753  35.258   3.300   9.132
 2836POPC   GL237754  35.622   3.222   9.071
 2836POPC   C1A37755  35.423   3.661   8.870
 2836POPC   D2A37756  35.634   3.785   8.483
 2836POPC   C3A37757  35.437   3.732   8.074
 2836POPC   C4A37758  35.098   3.460   7.924
 2836POPC   C1B37759  35.835   3.338   8.679
 2836POPC   C2B37760  35.780   3.354   8.219
 2836POPC   C3B37761  35.582   3.283   7.826
 2836POPC   C4B37762  35.675   3.335   7.413
 2837POPC   NC337763  15.086   9.240   9.451
 2837POPC   PO437764  15.632   9.031   9.456
 2837POPC   GL137765  15.296   8.907   9.101
 2837POPC   GL237766  14.935   8.985   9.048
 2837POPC   C1A37767  15.178   8.921   8.633
 2837POPC   D2A37768  15.438   8.798   8.344
 2837POPC   C3A37769  15.369   9.004   7.971
 2837POPC   C4A37770  15.377   8.853   7.529
 2837POPC   C1B37771  14.673   9.092   8.713
 2837POPC   C2B37772  14.824   9.223   8.360
 2837POPC   C3B37773  14.686   9.154   7.985
 2837POPC   C4B37774  14.965   9.130   7.650
 2838POPC   NC337775  27.088  11.009   9.505
 2838POPC   PO437776  26.434  11.311   9.732
 2838POPC   GL137777  26.567  11.142   9.320
 2838POPC   GL237778  26.844  11.298   9.165
 2838POPC   C1A37779  26.497  11.077   8.847
 2838POPC   D2A37780  26.693  11.124   8.423
 2838POPC   C3A37781  26.434  11.210   8.056
 2838POPC   C4A37782  26.532  11.279   7.622
 2838POPC   C1B37783  27.057  11.291   8.775
 2838POPC   C2B37784  27.090  11.500   8.401
 2838POPC   C3B37785  26.994  11.283   8.014
 2838POPC   C4B37786  27.018  11.493   7.638
 2839POPC   NC337787  15.173   5.261   9.492
 2839POPC   PO437788  15.270   4.661   9.575
 2839POPC   GL137789  15.420   4.897   9.220
 2839POPC   GL237790  15.587   4.680   9.045
 2839POPC   C1A37791  15.389   5.227   8.869
 2839POPC   D2A37792  15.220   5.320   8.450
 2839POPC   C3A37793  15.486   5.241   8.103
 2839POPC   C4A37794  15.481   5.430   7.699
 2839POPC   C1B37795  15.255   4.746   8.746
 2839POPC   C2B37796  15.318   4.826   8.341
 2839POPC   C3B37797  15.439   4.761   7.929
 2839POPC   C4B37798  15.289   4.831   7.523
 2840POPC   NC337799  28.711  38.202   9.453
 2840POPC   PO437800  29.378  38.534   9.510
 2840POPC   GL137801  29.098  38.482   9.192
 2840POPC   GL237802  29.298  38.213   9.089
 2840POPC   C1A37803  29.041  38.439   8.733
 2840POPC   D2A37804  29.247  38.380   8.342
 2840POPC   C3A37805  29.032  38.084   8.101
 2840POPC   C4A37806  28.794  38.326   7.812
 2840POPC   C1B37807  29.459  38.107   8.720
 2840POPC   C2B37808  29.753  38.284   8.442
 2840POPC   C3B37809  29.631  38.219   8.029
 2840POPC   C4B37810  29.309  38.427   7.813
 2841POPC   NC337811   6.370  20.376   9.574
 2841POPC   PO437812   6.996  20.589   9.519
 2841POPC   GL137813   6.696  20.643   9.189
 2841POPC   GL237814   6.651  20.287   9.121
 2841POPC   C1A37815   6.788  20.662   8.735
 2841POPC   D2A37816   6.688  20.419   8.359
 2841POPC   C3A37817   6.890  20.556   7.984
 2841POPC   C4A37818   6.794  20.770   7.629
 2841POPC   C1B37819   6.371  20.159   8.773
 2841POPC   C2B37820   6.173  20.297   8.391
 2841POPC   C3B37821   6.277  20.467   7.964
 2841POPC   C4B37822   6.575  20.300   7.642
 2842POPC   NC337823  44.017  41.862   9.528
 2842POPC   PO437824  43.570  41.413   9.526
 2842POPC   GL137825  43.838  41.501   9.155
 2842POPC   GL237826  44.203  41.491   9.185
 2842POPC   C1A37827  44.008  41.303   8.747
 2842POPC   D2A37828  43.894  41.499   8.338
 2842POPC   C3A37829  43.959  41.427   7.879
 2842POPC   C4A37830  44.176  41.222   7.553
 2842POPC   C1B37831  44.095  41.806   8.821
 2842POPC   C2B37832  44.056  42.030   8.424
 2842POPC   C3B37833  44.028  41.932   7.979
 2842POPC   C4B37834  44.290  41.800   7.607
 2843POPC   NC337835  12.974  42.073   9.429
 2843POPC   PO437836  13.290  42.680   9.381
 2843POPC   GL137837  12.838  42.531   9.178
 2843POPC   GL237838  12.696  42.185   9.011
 2843POPC   C1A37839  12.846  42.568   8.728
 2843POPC   D2A37840  12.681  42.769   8.373
 2843POPC   C3A37841  12.974  42.618   8.065
 2843POPC   C4A37842  12.822  42.559   7.688
 2843POPC   C1B37843  12.975  42.053   8.711
 2843POPC   C2B37844  13.114  42.133   8.292
 2843POPC   C3B37845  13.002  42.129   7.882
 2843POPC   C4B37846  12.606  42.090   7.642
 2844POPC   NC337847  17.124  11.978   9.500
 2844POPC   PO437848  16.524  12.293   9.460
 2844POPC   GL137849  16.793  12.170   9.160
 2844POPC   GL237850  16.694  12.448   8.987
 2844POPC   C1A37851  16.699  11.937   8.821
 2844POPC   D2A37852  16.526  12.173   8.561
 2844POPC   C3A37853  16.714  12.104   8.198
 2844POPC   C4A37854  16.782  12.033   7.789
 2844POPC   C1B37855  17.037  12.424   8.706
 2844POPC   C2B37856  17.154  12.429   8.263
 2844POPC   C3B37857  16.892  12.522   7.907
 2844POPC   C4B37858  16.453  12.443   7.892
 2845POPC   NC337859  38.838  37.188   9.395
 2845POPC   PO437860  38.437  36.698   9.411
 2845POPC   GL137861  38.556  36.898   9.043
 2845POPC   GL237862  38.905  36.839   9.019
 2845POPC   C1A37863  38.608  36.852   8.592
 2845POPC   D2A37864  38.630  36.580   8.263
 2845POPC   C3A37865  38.349  36.774   8.014
 2845POPC   C4A37866  38.307  37.069   7.686
 2845POPC   C1B37867  38.870  37.253   8.758
 2845POPC   C2B37868  38.881  37.234   8.304
 2845POPC   C3B37869  38.764  37.055   7.900
 2845POPC   C4B37870  38.760  36.624   7.756
 2846POPC   NC337871  33.046  43.137   9.600
 2846POPC   PO437872  33.497  42.638   9.453
 2846POPC   GL137873  33.063  42.807   9.175
 2846POPC   GL237874  32.927  43.209   9.134
 2846POPC   C1A37875  32.951  42.955   8.721
 2846POPC   D2A37876  33.236  43.234   8.492
 2846POPC   C3A37877  33.150  43.198   8.045
 2846POPC   C4A37878  32.956  42.813   7.875
 2846POPC   C1B37879  32.674  43.395   8.830
 2846POPC   C2B37880  32.735  43.321   8.412
 2846POPC   C3B37881  32.673  43.448   8.024
 2846POPC   C4B37882  32.784  43.239   7.631
 2847POPC   NC337883  32.788   4.431   9.458
 2847POPC   PO437884  33.190   3.997   9.620
 2847POPC   GL137885  33.259   4.141   9.205
 2847POPC   GL237886  33.102   4.457   9.068
 2847POPC   C1A37887  33.334   4.106   8.756
 2847POPC   D2A37888  33.238   4.398   8.406
 2847POPC   C3A37889  33.357   4.217   7.989
 2847POPC   C4A37890  33.165   4.320   7.579
 2847POPC   C1B37891  32.804   4.543   8.769
 2847POPC   C2B37892  32.720   4.480   8.352
 2847POPC   C3B37893  32.931   4.595   7.975
 2847POPC   C4B37894  32.690   4.439   7.639
 2848POPC   NC337895  27.895   3.428   9.798
 2848POPC   PO437896  27.533   3.718   9.348
 2848POPC   GL137897  27.691   3.499   9.090
 2848POPC   GL237898  27.521   3.216   8.995
 2848POPC   C1A37899  27.822   3.627   8.737
 2848POPC   D2A37900  27.709   3.737   8.403
 2848POPC   C3A37901  27.880   3.627   8.069
 2848POPC   C4A37902  27.766   3.751   7.707
 2848POPC   C1B37903  27.601   3.060   8.606
 2848POPC   C2B37904  27.749   3.167   8.237
 2848POPC   C3B37905  27.437   3.220   7.896
 2848POPC   C4B37906  27.436   3.426   7.535
 2849POPC   NC337907  22.376  33.318   9.544
 2849POPC   PO437908  22.264  32.681   9.533
 2849POPC   GL137909  22.361  32.920   9.188
 2849POPC   GL237910  22.047  33.058   9.103
 2849POPC   C1A37911  22.520  33.175   8.837
 2849POPC   D2A37912  22.345  33.317   8.423
 2849POPC   C3A37913  22.515  33.090   8.102
 2849POPC   C4A37914  22.676  33.147   7.712
 2849POPC   C1B37915  21.753  32.992   8.749
 2849POPC   C2B37916  21.874  33.012   8.328
 2849POPC   C3B37917  22.029  33.239   8.003
 2849POPC   C4B37918  22.201  32.989   7.711
 2850POPC   NC337919   5.070  25.546   9.579
 2850POPC   PO437920   5.286  24.967   9.343
 2850POPC   GL137921   5.016  25.258   9.147
 2850POPC   GL237922   5.224  25.529   9.098
 2850POPC   C1A37923   4.983  25.245   8.719
 2850POPC   D2A37924   4.984  25.035   8.350
 2850POPC   C3A37925   4.918  25.267   8.022
 2850POPC   C4A37926   5.081  25.104   7.707
 2850POPC   C1B37927   5.417  25.545   8.686
 2850POPC   C2B37928   5.344  25.404   8.266
 2850POPC   C3B37929   5.501  25.321   7.861
 2850POPC   C4B37930   5.250  25.566   7.553
 2851POPC   NC337931   6.155  33.134   9.514
 2851POPC   PO437932   5.409  33.124   9.434
 2851POPC   GL137933   5.763  33.180   9.148
 2851POPC   GL237934   5.958  32.885   9.109
 2851POPC   C1A37935   5.949  33.231   8.728
 2851POPC   D2A37936   6.109  33.094   8.339
 2851POPC   C3A37937   5.794  33.072   8.028
 2851POPC   C4A37938   5.634  33.351   7.752
 2851POPC   C1B37939   6.197  32.756   8.740
 2851POPC   C2B37940   6.238  32.597   8.304
 2851POPC   C3B37941   6.189  32.807   7.899
 2851POPC   C4B37942   6.180  32.743   7.445
 2852POPC   NC337943  42.413  18.137   9.568
 2852POPC   PO437944  42.608  18.707   9.356
 2852POPC   GL137945  42.450  18.403   9.091
 2852POPC   GL237946  42.679  18.099   9.134
 2852POPC   C1A37947  42.331  18.506   8.658
 2852POPC   D2A37948  42.596  18.479   8.299
 2852POPC   C3A37949  42.411  18.562   7.933
 2852POPC   C4A37950  42.433  18.855   7.582
 2852POPC   C1B37951  42.722  18.167   8.692
 2852POPC   C2B37952  42.497  17.981   8.321
 2852POPC   C3B37953  42.522  18.045   7.866
 2852POPC   C4B37954  42.336  17.792   7.510
 2853POPC   NC337955  31.897   5.262   9.509
 2853POPC   PO437956  31.435   4.751   9.687
 2853POPC   GL137957  31.556   4.962   9.262
 2853POPC   GL237958  31.467   4.810   8.972
 2853POPC   C1A37959  31.684   5.262   8.900
 2853POPC   D2A37960  31.445   5.179   8.525
 2853POPC   C3A37961  31.561   5.292   8.112
 2853POPC   C4A37962  31.265   5.178   7.818
 2853POPC   C1B37963  31.817   4.842   8.680
 2853POPC   C2B37964  31.823   4.760   8.282
 2853POPC   C3B37965  31.656   4.823   7.881
 2853POPC   C4B37966  31.783   4.763   7.465
 2854POPC   NC337967   3.190  34.778   9.471
 2854POPC   PO437968   3.735  34.271   9.469
 2854POPC   GL137969   3.620  34.617   9.236
 2854POPC   GL237970   3.304  34.519   9.055
 2854POPC   C1A37971   3.684  34.838   8.881
 2854POPC   D2A37972   3.469  34.724   8.528
 2854POPC   C3A37973   3.563  34.878   8.153
 2854POPC   C4A37974   3.538  34.765   7.749
 2854POPC   C1B37975   3.644  34.316   8.810
 2854POPC   C2B37976   3.630  34.245   8.384
 2854POPC   C3B37977   3.490  34.349   8.011
 2854POPC   C4B37978   3.576  34.301   7.562
 2855POPC   NC337979  36.567   1.854   9.517
 2855POPC   PO437980  36.050   2.255   9.573
 2855POPC   GL137981  36.179   2.064   9.202
 2855POPC   GL237982  35.837   2.091   9.089
 2855POPC   C1A37983  36.128   1.755   8.843
 2855POPC   D2A37984  35.928   1.684   8.447
 2855POPC   C3A37985  36.118   1.856   8.132
 2855POPC   C4A37986  36.051   1.930   7.738
 2855POPC   C1B37987  36.062   2.346   8.795
 2855POPC   C2B37988  35.918   2.241   8.413
 2855POPC   C3B37989  35.912   2.361   8.010
 2855POPC   C4B37990  35.890   2.396   7.584
 2856POPC   NC337991   4.793  19.080   9.770
 2856POPC   PO437992   4.908  18.739   9.210
 2856POPC   GL137993   5.236  18.748   8.968
 2856POPC   GL237994   5.248  19.110   9.004
 2856POPC   C1A37995   5.205  18.716   8.531
 2856POPC   D2A37996   4.967  18.902   8.213
 2856POPC   C3A37997   5.056  18.846   7.764
 2856POPC   C4A37998   5.031  18.751   7.335
 2856POPC   C1B37999   5.014  19.198   8.652
 2856POPC   C2B38000   5.019  19.402   8.281
 2856POPC   C3B38001   5.073  19.328   7.897
 2856POPC   C4B38002   5.413  19.258   7.615
 2857POPC   NC338003  36.282   7.402   9.514
 2857POPC   PO438004  35.660   7.233   9.550
 2857POPC   GL138005  35.914   7.195   9.202
 2857POPC   GL238006  35.955   7.557   9.146
 2857POPC   C1A38007  36.199   7.034   8.886
 2857POPC   D2A38008  36.290   7.116   8.488
 2857POPC   C3A38009  35.975   7.332   8.250
 2857POPC   C4A38010  36.071   7.648   7.944
 2857POPC   C1B38011  36.215   7.551   8.804
 2857POPC   C2B38012  36.320   7.708   8.407
 2857POPC   C3B38013  36.573   7.772   8.039
 2857POPC   C4B38014  36.406   7.908   7.640
 2858POPC   NC338015  42.602  19.712   9.785
 2858POPC   PO438016  42.188  20.219   9.554
 2858POPC   GL138017  42.467  20.115   9.117
 2858POPC   GL238018  42.462  19.733   8.953
 2858POPC   C1A38019  42.292  20.137   8.717
 2858POPC   D2A38020  42.130  20.027   8.340
 2858POPC   C3A38021  42.347  19.805   8.013
 2858POPC   C4A38022  42.191  19.663   7.620
 2858POPC   C1B38023  42.102  19.569   8.728
 2858POPC   C2B38024  41.824  19.588   8.380
 2858POPC   C3B38025  41.883  19.437   7.979
 2858POPC   C4B38026  41.755  19.425   7.540
 2859POPC   NC338027  31.589  30.117   9.631
 2859POPC   PO438028  31.410  30.783   9.547
 2859POPC   GL138029  31.560  30.600   9.203
 2859POPC   GL238030  31.757  30.923   9.142
 2859POPC   C1A38031  31.457  30.499   8.763
 2859POPC   D2A38032  31.302  30.717   8.386
 2859POPC   C3A38033  31.462  30.647   7.956
 2859POPC   C4A38034  31.346  30.342   7.690
 2859POPC   C1B38035  31.625  30.996   8.759
 2859POPC   C2B38036  31.817  30.753   8.468
 2859POPC   C3B38037  31.902  30.843   8.097
 2859POPC   C4B38038  31.926  30.689   7.732
 2860POPC   NC338039  40.489   6.200   9.417
 2860POPC   PO438040  41.136   6.017   9.531
 2860POPC   GL138041  40.985   6.002   9.076
 2860POPC   GL238042  40.699   6.081   8.994
 2860POPC   C1A38043  40.888   5.709   8.700
 2860POPC   D2A38044  41.012   5.542   8.275
 2860POPC   C3A38045  40.890   5.797   7.900
 2860POPC   C4A38046  40.924   5.786   7.433
 2860POPC   C1B38047  40.684   6.275   8.625
 2860POPC   C2B38048  40.675   6.193   8.184
 2860POPC   C3B38049  40.465   6.270   7.808
 2860POPC   C4B38050  40.508   6.125   7.370
 2861POPC   NC338051  19.170  35.875   9.450
 2861POPC   PO438052  19.298  36.577   9.675
 2861POPC   GL138053  19.114  36.406   9.234
 2861POPC   GL238054  18.777  36.293   9.211
 2861POPC   C1A38055  19.144  36.155   8.850
 2861POPC   D2A38056  19.297  35.908   8.533
 2861POPC   C3A38057  19.201  36.142   8.179
 2861POPC   C4A38058  19.198  36.438   7.818
 2861POPC   C1B38059  18.628  36.274   8.792
 2861POPC   C2B38060  18.684  36.084   8.372
 2861POPC   C3B38061  18.760  36.234   7.953
 2861POPC   C4B38062  18.516  36.411   7.627
 2862POPC   NC338063  36.774  20.656   9.561
 2862POPC   PO438064  37.446  20.878   9.549
 2862POPC   GL138065  37.172  20.670   9.189
 2862POPC   GL238066  36.833  20.817   9.098
 2862POPC   C1A38067  37.094  20.628   8.722
 2862POPC   D2A38068  36.754  20.489   8.415
 2862POPC   C3A38069  36.967  20.445   8.031
 2862POPC   C4A38070  37.233  20.782   7.880
 2862POPC   C1B38071  36.661  20.917   8.713
 2862POPC   C2B38072  36.496  21.019   8.308
 2862POPC   C3B38073  36.513  20.758   7.969
 2862POPC   C4B38074  36.770  20.760   7.644
 2863POPC   NC338075  26.713   9.348   9.479
 2863POPC   PO438076  27.236   8.940   9.471
 2863POPC   GL138077  26.995   9.102   9.115
 2863POPC   GL238078  26.616   9.053   9.081
 2863POPC   C1A38079  26.948   9.010   8.680
 2863POPC   D2A38080  27.009   9.181   8.282
 2863POPC   C3A38081  27.001   8.953   7.949
 2863POPC   C4A38082  26.696   9.122   7.712
 2863POPC   C1B38083  26.486   8.805   8.747
 2863POPC   C2B38084  26.541   8.934   8.322
 2863POPC   C3B38085  26.453   8.731   7.941
 2863POPC   C4B38086  26.536   8.632   7.507
 2864POPC   NC338087  16.376   1.898   9.476
 2864POPC   PO438088  17.027   2.021   9.677
 2864POPC   GL138089  16.878   1.913   9.239
 2864POPC   GL238090  16.613   2.154   9.123
 2864POPC   C1A38091  16.764   1.800   8.797
 2864POPC   D2A38092  16.715   2.064   8.426
 2864POPC   C3A38093  16.715   1.917   8.017
 2864POPC   C4A38094  17.025   1.660   7.819
 2864POPC   C1B38095  16.915   2.308   8.873
 2864POPC   C2B38096  17.022   2.452   8.491
 2864POPC   C3B38097  16.855   2.470   8.088
 2864POPC   C4B38098  16.925   2.254   7.687
 2865POPC   NC338099  38.873   0.561   9.620
 2865POPC   PO438100  39.508   0.306   9.560
 2865POPC   GL138101  39.273   0.218   9.194
 2865POPC   GL238102  38.963   0.389   9.151
 2865POPC   C1A38103  39.123   0.050   8.808
 2865POPC   D2A38104  38.942   0.231   8.463
 2865POPC   C3A38105  39.252   0.209   8.173
 2865POPC   C4A38106  39.125   0.332   7.823
 2865POPC   C1B38107  39.105   0.596   8.762
 2865POPC   C2B38108  39.157   0.721   8.339
 2865POPC   C3B38109  39.191   0.835   7.926
 2865POPC   C4B38110  38.900   0.737   7.610
 2866POPC   NC338111  44.096  38.792   9.545
 2866POPC   PO438112  44.198  38.198   9.347
 2866POPC   GL138113  44.050  38.424   9.021
 2866POPC   GL238114  43.814  38.681   9.133
 2866POPC   C1A38115  44.080  38.397   8.593
 2866POPC   D2A38116  43.795  38.222   8.320
 2866POPC   C3A38117  43.973  38.124   7.943
 2866POPC   C4A38118  44.035  38.361   7.588
 2866POPC   C1B38119  43.625  38.612   8.718
 2866POPC   C2B38120  43.621  38.719   8.283
 2866POPC   C3B38121  43.644  38.515   7.909
 2866POPC   C4B38122  43.609  38.617   7.475
 2867POPC   NC338123   1.318  13.118   9.598
 2867POPC   PO438124   1.236  13.721   9.698
 2867POPC   GL138125   1.197  13.689   9.259
 2867POPC   GL238126   1.396  13.424   9.178
 2867POPC   C1A38127   1.231  13.853   8.849
 2867POPC   D2A38128   1.225  13.704   8.454
 2867POPC   C3A38129   1.207  13.871   8.073
 2867POPC   C4A38130   1.225  13.816   7.660
 2867POPC   C1B38131   1.262  13.304   8.776
 2867POPC   C2B38132   1.452  13.270   8.357
 2867POPC   C3B38133   1.334  13.374   7.934
 2867POPC   C4B38134   1.459  13.375   7.477
 2868POPC   NC338135  14.615  10.061   9.318
 2868POPC   PO438136  14.120   9.661   9.388
 2868POPC   GL138137  14.398   9.657   9.081
 2868POPC   GL238138  14.631   9.397   9.106
 2868POPC   C1A38139  14.355   9.880   8.686
 2868POPC   D2A38140  14.061  10.011   8.372
 2868POPC   C3A38141  14.216   9.899   8.001
 2868POPC   C4A38142  14.207  10.125   7.667
 2868POPC   C1B38143  14.792   9.602   8.741
 2868POPC   C2B38144  14.666   9.702   8.306
 2868POPC   C3B38145  14.666   9.646   7.888
 2868POPC   C4B38146  14.467   9.714   7.535
 2869POPC   NC338147   9.601  16.477   9.519
 2869POPC   PO438148  10.108  16.010   9.442
 2869POPC   GL138149   9.747  15.994   9.148
 2869POPC   GL238150   9.527  16.258   9.081
 2869POPC   C1A38151   9.779  15.996   8.696
 2869POPC   D2A38152   9.708  15.679   8.377
 2869POPC   C3A38153   9.976  15.769   8.027
 2869POPC   C4A38154  10.005  16.144   7.810
 2869POPC   C1B38155   9.282  16.281   8.717
 2869POPC   C2B38156   9.330  16.044   8.373
 2869POPC   C3B38157   9.527  16.023   8.018
 2869POPC   C4B38158   9.545  16.125   7.603
 2870POPC   NC338159  18.926  18.624   9.533
 2870POPC   PO438160  19.465  18.197   9.658
 2870POPC   GL138161  19.253  18.311   9.284
 2870POPC   GL238162  19.149  18.028   9.148
 2870POPC   C1A38163  19.124  18.468   8.885
 2870POPC   D2A38164  18.963  18.379   8.480
 2870POPC   C3A38165  18.705  18.396   8.122
 2870POPC   C4A38166  19.007  18.549   7.814
 2870POPC   C1B38167  18.861  17.999   8.804
 2870POPC   C2B38168  18.911  17.898   8.357
 2870POPC   C3B38169  19.102  18.095   8.032
 2870POPC   C4B38170  19.041  18.069   7.626
 2871POPC   NC338171  37.198  36.397   9.453
 2871POPC   PO438172  37.228  35.689   9.565
 2871POPC   GL138173  37.133  35.894   9.176
 2871POPC   GL238174  36.874  36.140   9.134
 2871POPC   C1A38175  36.986  35.793   8.737
 2871POPC   D2A38176  36.749  35.911   8.367
 2871POPC   C3A38177  36.989  35.988   7.983
 2871POPC   C4A38178  36.798  36.076   7.585
 2871POPC   C1B38179  37.180  36.271   8.820
 2871POPC   C2B38180  37.163  36.208   8.424
 2871POPC   C3B38181  37.220  36.421   8.095
 2871POPC   C4B38182  37.366  36.236   7.715
 2872POPC   NC338183  20.253   5.160   9.499
 2872POPC   PO438184  20.959   5.348   9.474
 2872POPC   GL138185  20.709   5.068   9.206
 2872POPC   GL238186  20.813   4.738   9.061
 2872POPC   C1A38187  20.542   5.167   8.810
 2872POPC   D2A38188  20.387   5.280   8.384
 2872POPC   C3A38189  20.663   5.171   8.031
 2872POPC   C4A38190  20.608   4.982   7.640
 2872POPC   C1B38191  21.018   5.032   8.738
 2872POPC   C2B38192  21.131   5.041   8.277
 2872POPC   C3B38193  21.032   4.795   7.869
 2872POPC   C4B38194  20.987   4.771   7.382
 2873POPC   NC338195  36.444  43.330   9.541
 2873POPC   PO438196  36.126  42.753   9.635
 2873POPC   GL138197  36.199  43.020   9.199
 2873POPC   GL238198  36.074  43.356   9.134
 2873POPC   C1A38199  36.216  43.106   8.729
 2873POPC   D2A38200  35.998  43.288   8.377
 2873POPC   C3A38201  36.133  42.954   8.137
 2873POPC   C4A38202  36.099  42.925   7.714
 2873POPC   C1B38203  36.351  43.599   8.825
 2873POPC   C2B38204  36.466  43.461   8.405
 2873POPC   C3B38205  36.324  43.389   7.967
 2873POPC   C4B38206  36.528  43.205   7.593
 2874POPC   NC338207  19.231  41.051   9.429
 2874POPC   PO438208  18.649  41.038   9.680
 2874POPC   GL138209  18.758  40.863   9.266
 2874POPC   GL238210  18.675  40.502   9.205
 2874POPC   C1A38211  18.948  40.940   8.855
 2874POPC   D2A38212  18.860  41.023   8.444
 2874POPC   C3A38213  18.990  40.789   8.114
 2874POPC   C4A38214  18.838  40.896   7.705
 2874POPC   C1B38215  18.759  40.456   8.750
 2874POPC   C2B38216  18.539  40.474   8.338
 2874POPC   C3B38217  18.658  40.467   7.879
 2874POPC   C4B38218  18.530  40.595   7.418
 2875POPC   NC338219  22.235  42.822   9.509
 2875POPC   PO438220  21.928  43.366   9.737
 2875POPC   GL138221  22.080  43.342   9.288
 2875POPC   GL238222  22.448  43.263   9.246
 2875POPC   C1A38223  22.101  43.446   8.826
 2875POPC   D2A38224  22.087  43.188   8.468
 2875POPC   C3A38225  22.148  43.409   8.130
 2875POPC   C4A38226  22.099  43.405   7.700
 2875POPC   C1B38227  22.354  42.999   8.873
 2875POPC   C2B38228  22.116  42.692   8.598
 2875POPC   C3B38229  22.091  42.763   8.143
 2875POPC   C4B38230  22.376  42.999   7.863
 2876POPC   NC338231  34.307  10.007   9.587
 2876POPC   PO438232  34.810   9.500   9.553
 2876POPC   GL138233  34.596   9.662   9.213
 2876POPC   GL238234  34.699   9.988   9.187
 2876POPC   C1A38235  34.444   9.784   8.797
 2876POPC   D2A38236  34.627   9.889   8.407
 2876POPC   C3A38237  34.358   9.929   8.077
 2876POPC   C4A38238  34.148   9.883   7.730
 2876POPC   C1B38239  34.903  10.077   8.797
 2876POPC   C2B38240  35.089  10.104   8.360
 2876POPC   C3B38241  34.845  10.171   8.004
 2876POPC   C4B38242  34.678   9.856   7.691
 2877POPC   NC338243  44.471  40.377   9.443
 2877POPC   PO438244  44.407  41.021   9.487
 2877POPC   GL138245  44.640  40.939   9.161
 2877POPC   GL238246  44.882  40.692   9.302
 2877POPC   C1A38247  44.456  40.952   8.762
 2877POPC   D2A38248  44.565  41.170   8.398
 2877POPC   C3A38249  44.474  41.121   7.985
 2877POPC   C4A38250  44.818  40.990   7.742
 2877POPC   C1B38251  44.863  40.592   8.871
 2877POPC   C2B38252  44.693  40.597   8.478
 2877POPC   C3B38253  44.695  40.647   8.082
 2877POPC   C4B38254  44.874  40.489   7.723
 2878POPC   NC338255  27.158  23.745   9.838
 2878POPC   PO438256  26.608  23.498   9.851
 2878POPC   GL138257  26.708  23.527   9.353
 2878POPC   GL238258  26.991  23.757   9.300
 2878POPC   C1A38259  26.843  23.551   8.868
 2878POPC   D2A38260  26.722  23.774   8.465
 2878POPC   C3A38261  26.888  23.681   8.036
 2878POPC   C4A38262  26.694  23.802   7.626
 2878POPC   C1B38263  26.997  24.041   8.908
 2878POPC   C2B38264  27.122  24.088   8.504
 2878POPC   C3B38265  26.913  24.196   8.154
 2878POPC   C4B38266  27.049  24.163   7.748
 2879POPC   NC338267  35.573   1.955   9.502
 2879POPC   PO438268  34.985   1.501   9.345
 2879POPC   GL138269  35.324   1.695   9.149
 2879POPC   GL238270  35.316   2.080   9.068
 2879POPC   C1A38271  35.567   1.729   8.798
 2879POPC   D2A38272  35.435   1.953   8.445
 2879POPC   C3A38273  35.631   1.940   8.077
 2879POPC   C4A38274  35.565   1.902   7.650
 2879POPC   C1B38275  35.526   2.357   8.748
 2879POPC   C2B38276  35.473   2.480   8.287
 2879POPC   C3B38277  35.419   2.345   7.840
 2879POPC   C4B38278  35.448   2.302   7.373
 2880POPC   NC338279  30.447  19.592   9.477
 2880POPC   PO438280  30.665  19.010   9.377
 2880POPC   GL138281  30.765  19.129   8.989
 2880POPC   GL238282  30.838  19.426   9.050
 2880POPC   C1A38283  30.688  19.153   8.550
 2880POPC   D2A38284  30.384  18.958   8.284
 2880POPC   C3A38285  30.645  18.808   7.978
 2880POPC   C4A38286  30.913  18.705   7.650
 2880POPC   C1B38287  31.137  19.371   8.724
 2880POPC   C2B38288  31.051  19.488   8.327
 2880POPC   C3B38289  30.746  19.344   8.052
 2880POPC   C4B38290  30.801  19.200   7.654
 2881POPC   NC338291   6.663  14.848   9.560
 2881POPC   PO438292   6.470  15.567   9.448
 2881POPC   GL138293   6.699  15.239   9.198
 2881POPC   GL238294   6.528  14.979   9.067
 2881POPC   C1A38295   6.898  15.158   8.774
 2881POPC   D2A38296   6.722  15.013   8.397
 2881POPC   C3A38297   6.648  15.329   8.082
 2881POPC   C4A38298   6.909  15.103   7.810
 2881POPC   C1B38299   6.409  14.756   8.742
 2881POPC   C2B38300   6.233  14.880   8.336
 2881POPC   C3B38301   6.443  14.886   7.934
 2881POPC   C4B38302   6.511  15.102   7.510
 2882POPC   NC338303  41.699  27.357   9.594
 2882POPC   PO438304  41.247  27.809   9.466
 2882POPC   GL138305  41.414  27.643   9.138
 2882POPC   GL238306  41.775  27.542   9.109
 2882POPC   C1A38307  41.518  27.835   8.753
 2882POPC   D2A38308  41.647  27.645   8.392
 2882POPC   C3A38309  41.589  27.867   8.019
 2882POPC   C4A38310  41.776  27.701   7.650
 2882POPC   C1B38311  41.500  27.309   8.798
 2882POPC   C2B38312  41.299  27.237   8.407
 2882POPC   C3B38313  41.432  27.374   8.001
 2882POPC   C4B38314  41.241  27.197   7.658
 2883POPC   NC338315  26.006   8.261   9.525
 2883POPC   PO438316  26.491   8.796   9.504
 2883POPC   GL138317  26.371   8.421   9.188
 2883POPC   GL238318  26.224   8.026   9.132
 2883POPC   C1A38319  26.441   8.284   8.766
 2883POPC   D2A38320  26.375   8.454   8.374
 2883POPC   C3A38321  26.152   8.282   8.049
 2883POPC   C4A38322  26.279   8.163   7.651
 2883POPC   C1B38323  26.064   7.930   8.748
 2883POPC   C2B38324  26.153   7.852   8.331
 2883POPC   C3B38325  25.981   7.818   7.897
 2883POPC   C4B38326  25.780   7.933   7.509
 2884POPC   NC338327   6.148  42.876   9.549
 2884POPC   PO438328   5.546  43.189   9.481
 2884POPC   GL138329   5.925  43.197   9.220
 2884POPC   GL238330   5.871  42.899   9.132
 2884POPC   C1A38331   6.116  43.195   8.797
 2884POPC   D2A38332   5.829  43.068   8.501
 2884POPC   C3A38333   5.922  43.061   8.075
 2884POPC   C4A38334   5.683  43.335   7.823
 2884POPC   C1B38335   5.706  42.687   8.806
 2884POPC   C2B38336   5.505  42.649   8.408
 2884POPC   C3B38337   5.596  42.642   7.988
 2884POPC   C4B38338   5.499  42.875   7.633
 2885POPC   NC338339  37.990  34.758   9.812
 2885POPC   PO438340  38.495  34.336   9.618
 2885POPC   GL138341  38.569  34.293   9.208
 2885POPC   GL238342  38.481  34.624   9.132
 2885POPC   C1A38343  38.667  34.318   8.769
 2885POPC   D2A38344  38.475  34.478   8.376
 2885POPC   C3A38345  38.634  34.716   8.041
 2885POPC   C4A38346  38.483  34.401   7.789
 2885POPC   C1B38347  38.335  34.795   8.742
 2885POPC   C2B38348  38.255  34.970   8.349
 2885POPC   C3B38349  38.136  34.747   8.016
 2885POPC   C4B38350  37.951  34.859   7.682
 2886POPC   NC338351  16.001   9.622   9.580
 2886POPC   PO438352  15.422  10.008   9.467
 2886POPC   GL138353  15.826   9.962   9.202
 2886POPC   GL238354  16.184   9.768   9.146
 2886POPC   C1A38355  15.939   9.986   8.766
 2886POPC   D2A38356  16.174   9.773   8.419
 2886POPC   C3A38357  15.952   9.908   8.057
 2886POPC   C4A38358  15.559   9.847   7.816
 2886POPC   C1B38359  15.928   9.506   8.833
 2886POPC   C2B38360  15.685   9.611   8.461
 2886POPC   C3B38361  15.706   9.427   8.049
 2886POPC   C4B38362  15.997   9.529   7.713
 2887POPC   NC338363  24.163  27.400   9.396
 2887POPC   PO438364  24.698  27.708   9.139
 2887POPC   GL138365  24.288  27.722   8.997
 2887POPC   GL238366  24.116  28.053   9.020
 2887POPC   C1A38367  24.286  27.411   8.677
 2887POPC   D2A38368  24.589  27.310   8.368
 2887POPC   C3A38369  24.671  27.514   7.983
 2887POPC   C4A38370  24.690  27.749   7.618
 2887POPC   C1B38371  24.083  27.918   8.556
 2887POPC   C2B38372  24.207  27.671   8.228
 2887POPC   C3B38373  24.237  27.759   7.811
 2887POPC   C4B38374  24.227  27.988   7.425
 2888POPC   NC338375  17.293  23.967   9.278
 2888POPC   PO438376  16.949  23.448   9.428
 2888POPC   GL138377  16.678  23.706   9.160
 2888POPC   GL238378  16.823  24.011   9.085
 2888POPC   C1A38379  16.620  23.621   8.763
 2888POPC   D2A38380  16.843  23.404   8.481
 2888POPC   C3A38381  16.591  23.443   8.133
 2888POPC   C4A38382  16.833  23.642   7.820
 2888POPC   C1B38383  16.986  23.938   8.639
 2888POPC   C2B38384  17.223  24.042   8.275
 2888POPC   C3B38385  17.155  24.054   7.846
 2888POPC   C4B38386  17.133  23.844   7.438
 2889POPC   NC338387  22.212   8.952   9.775
 2889POPC   PO438388  21.778   8.596   9.441
 2889POPC   GL138389  22.185   8.835   9.278
 2889POPC   GL238390  22.070   8.970   9.033
 2889POPC   C1A38391  22.444   8.723   8.848
 2889POPC   D2A38392  22.211   8.660   8.409
 2889POPC   C3A38393  22.297   8.890   8.023
 2889POPC   C4A38394  22.680   8.820   7.791
 2889POPC   C1B38395  21.869   8.971   8.676
 2889POPC   C2B38396  21.916   9.133   8.292
 2889POPC   C3B38397  21.771   9.074   7.897
 2889POPC   C4B38398  21.952   8.813   7.602
 2890POPC   NC338399  28.481   1.891   9.493
 2890POPC   PO438400  28.543   2.536   9.527
 2890POPC   GL138401  28.560   2.258   9.158
 2890POPC   GL238402  28.262   2.032   9.039
 2890POPC   C1A38403  28.775   2.103   8.806
 2890POPC   D2A38404  28.614   1.980   8.442
 2890POPC   C3A38405  28.645   2.169   8.068
 2890POPC   C4A38406  28.480   1.939   7.759
 2890POPC   C1B38407  28.156   1.813   8.633
 2890POPC   C2B38408  28.169   1.784   8.157
 2890POPC   C3B38409  27.953   1.902   7.749
 2890POPC   C4B38410  27.891   2.283   7.435
 2891POPC   NC338411  18.583  12.481   9.474
 2891POPC   PO438412  18.287  11.810   9.446
 2891POPC   GL138413  18.165  12.189   9.227
 2891POPC   GL238414  18.471  12.225   9.041
 2891POPC   C1A38415  18.032  12.064   8.817
 2891POPC   D2A38416  18.339  11.967   8.502
 2891POPC   C3A38417  18.192  11.969   8.092
 2891POPC   C4A38418  18.089  12.000   7.640
 2891POPC   C1B38419  18.379  12.465   8.675
 2891POPC   C2B38420  18.447  12.433   8.257
 2891POPC   C3B38421  18.527  12.269   7.852
 2891POPC   C4B38422  18.719  12.297   7.455
 2892POPC   NC338423  10.395  24.240   9.571
 2892POPC   PO438424  10.784  24.597   9.383
 2892POPC   GL138425  10.488  24.357   9.082
 2892POPC   GL238426  10.664  24.032   9.135
 2892POPC   C1A38427  10.181  24.243   8.707
 2892POPC   D2A38428  10.055  24.161   8.236
 2892POPC   C3A38429  10.403  24.294   7.962
 2892POPC   C4A38430  10.533  24.716   7.880
 2892POPC   C1B38431  10.766  24.175   8.704
 2892POPC   C2B38432  10.723  24.432   8.303
 2892POPC   C3B38433  10.974  24.495   7.896
 2892POPC   C4B38434  11.218  24.570   7.510
 2893POPC   NC338435  37.212  30.130   9.412
 2893POPC   PO438436  37.895  30.173   9.517
 2893POPC   GL138437  37.746  30.001   9.175
 2893POPC   GL238438  37.589  29.781   9.233
 2893POPC   C1A38439  37.504  30.156   8.832
 2893POPC   D2A38440  37.647  30.061   8.457
 2893POPC   C3A38441  37.424  29.966   8.110
 2893POPC   C4A38442  37.648  29.849   7.741
 2893POPC   C1B38443  37.573  29.635   8.828
 2893POPC   C2B38444  37.452  29.559   8.454
 2893POPC   C3B38445  37.428  29.442   8.068
 2893POPC   C4B38446  37.352  29.465   7.661
 2894POPC   NC338447  15.452  29.840   9.870
 2894POPC   PO438448  14.997  30.145   9.537
 2894POPC   GL138449  15.268  29.919   9.240
 2894POPC   GL238450  15.033  29.688   9.122
 2894POPC   C1A38451  15.466  29.841   8.844
 2894POPC   D2A38452  15.436  29.936   8.458
 2894POPC   C3A38453  15.382  29.618   8.149
 2894POPC   C4A38454  15.199  29.603   7.738
 2894POPC   C1B38455  14.985  30.002   8.813
 2894POPC   C2B38456  14.997  30.180   8.425
 2894POPC   C3B38457  15.103  30.024   8.039
 2894POPC   C4B38458  14.782  30.063   7.778
 2895POPC   NC338459  39.921   4.156   9.436
 2895POPC   PO438460  40.277   4.750   9.454
 2895POPC   GL138461  40.086   4.543   9.104
 2895POPC   GL238462  39.736   4.488   9.066
 2895POPC   C1A38463  40.337   4.460   8.732
 2895POPC   D2A38464  40.520   4.609   8.363
 2895POPC   C3A38465  40.203   4.493   8.072
 2895POPC   C4A38466  40.110   4.429   7.659
 2895POPC   C1B38467  39.843   4.355   8.667
 2895POPC   C2B38468  39.745   4.213   8.262
 2895POPC   C3B38469  39.660   4.443   7.882
 2895POPC   C4B38470  39.661   4.328   7.419
 2896POPC   NC338471   0.024   5.883   9.419
 2896POPC   PO438472  44.390   6.122   9.561
 2896POPC   GL138473  44.586   6.039   9.163
 2896POPC   GL238474  44.894   6.216   9.038
 2896POPC   C1A38475  44.460   5.875   8.773
 2896POPC   D2A38476  44.330   6.009   8.392
 2896POPC   C3A38477  44.578   5.843   8.097
 2896POPC   C4A38478  44.612   5.855   7.672
 2896POPC   C1B38479  44.953   5.783   8.789
 2896POPC   C2B38480   0.051   5.708   8.346
 2896POPC   C3B38481   0.083   5.819   7.920
 2896POPC   C4B38482  44.943   6.241   7.840
 2897POPC   NC338483  14.846  18.193   9.788
 2897POPC   PO438484  15.437  18.389   9.500
 2897POPC   GL138485  15.273  18.079   9.185
 2897POPC   GL238486  14.890  18.060   9.146
 2897POPC   C1A38487  15.195  18.109   8.725
 2897POPC   D2A38488  15.207  18.114   8.276
 2897POPC   C3A38489  14.860  17.986   7.987
 2897POPC   C4A38490  14.844  18.013   7.492
 2897POPC   C1B38491  14.731  18.321   8.766
 2897POPC   C2B38492  14.777  18.409   8.311
 2897POPC   C3B38493  14.919  18.482   7.873
 2897POPC   C4B38494  14.854  18.524   7.417
 2898POPC   NC338495  25.525  21.023   9.627
 2898POPC   PO438496  25.130  21.510   9.444
 2898POPC   GL138497  25.422  21.469   9.085
 2898POPC   GL238498  25.668  21.181   9.112
 2898POPC   C1A38499  25.336  21.440   8.674
 2898POPC   D2A38500  25.000  21.382   8.357
 2898POPC   C3A38501  25.080  21.473   7.958
 2898POPC   C4A38502  24.954  21.667   7.604
 2898POPC   C1B38503  25.560  21.004   8.710
 2898POPC   C2B38504  25.426  21.137   8.269
 2898POPC   C3B38505  25.475  21.147   7.811
 2898POPC   C4B38506  25.693  21.059   7.407
 2899POPC   NC338507  31.891  35.095   9.480
 2899POPC   PO438508  32.062  35.765   9.576
 2899POPC   GL138509  32.074  35.504   9.222
 2899POPC   GL238510  31.752  35.527   9.205
 2899POPC   C1A38511  32.080  35.222   8.837
 2899POPC   D2A38512  32.394  35.231   8.487
 2899POPC   C3A38513  32.262  35.323   8.058
 2899POPC   C4A38514  32.541  35.278   7.650
 2899POPC   C1B38515  31.685  35.557   8.777
 2899POPC   C2B38516  31.907  35.529   8.390
 2899POPC   C3B38517  31.847  35.641   7.957
 2899POPC   C4B38518  32.062  35.430   7.607
 2900POPC   NC338519  41.736   8.713   9.561
 2900POPC   PO438520  41.168   9.205   9.421
 2900POPC   GL138521  41.507   9.044   9.203
 2900POPC   GL238522  41.483   8.697   9.132
 2900POPC   C1A38523  41.623   9.171   8.813
 2900POPC   D2A38524  41.538   9.269   8.417
 2900POPC   C3A38525  41.690   9.046   8.066
 2900POPC   C4A38526  41.545   9.010   7.683
 2900POPC   C1B38527  41.371   8.736   8.735
 2900POPC   C2B38528  41.485   8.668   8.334
 2900POPC   C3B38529  41.270   8.693   7.957
 2900POPC   C4B38530  41.017   8.744   7.610
 2901POPC   NC338531  42.299   1.524   9.580
 2901POPC   PO438532  42.520   0.877   9.526
 2901POPC   GL138533  42.480   1.135   9.168
 2901POPC   GL238534  42.203   1.339   9.097
 2901POPC   C1A38535  42.371   0.969   8.739
 2901POPC   D2A38536  42.559   0.862   8.345
 2901POPC   C3A38537  42.480   1.056   7.932
 2901POPC   C4A38538  42.435   1.142   7.486
 2901POPC   C1B38539  42.019   1.324   8.688
 2901POPC   C2B38540  42.041   1.615   8.328
 2901POPC   C3B38541  42.186   1.490   7.939
 2901POPC   C4B38542  41.975   1.134   7.744
 2902POPC   NC338543  38.184  17.941   9.723
 2902POPC   PO438544  38.740  18.241   9.611
 2902POPC   GL138545  38.521  18.272   9.211
 2902POPC   GL238546  38.735  18.555   9.129
 2902POPC   C1A38547  38.404  18.295   8.752
 2902POPC   D2A38548  38.621  18.152   8.349
 2902POPC   C3A38549  38.383  18.161   7.966
 2902POPC   C4A38550  38.197  18.374   7.663
 2902POPC   C1B38551  38.740  18.805   8.786
 2902POPC   C2B38552  38.761  18.649   8.394
 2902POPC   C3B38553  38.780  18.517   7.986
 2902POPC   C4B38554  38.548  18.719   7.654
 2903POPC   NC338555  22.654  23.848   9.464
 2903POPC   PO438556  23.414  23.918   9.498
 2903POPC   GL138557  23.102  23.913   9.139
 2903POPC   GL238558  22.839  24.152   9.110
 2903POPC   C1A38559  23.078  23.863   8.671
 2903POPC   D2A38560  23.005  23.573   8.293
 2903POPC   C3A38561  23.015  23.801   7.892
 2903POPC   C4A38562  23.254  24.035   7.541
 2903POPC   C1B38563  22.624  24.199   8.721
 2903POPC   C2B38564  22.775  24.098   8.296
 2903POPC   C3B38565  22.707  24.241   7.886
 2903POPC   C4B38566  22.819  24.282   7.449
 2904POPC   NC338567  43.253  37.437   9.508
 2904POPC   PO438568  42.834  38.025   9.485
 2904POPC   GL138569  43.128  37.828   9.227
 2904POPC   GL238570  42.952  37.518   9.102
 2904POPC   C1A38571  43.387  37.697   8.875
 2904POPC   D2A38572  43.444  37.820   8.456
 2904POPC   C3A38573  43.273  37.554   8.184
 2904POPC   C4A38574  43.300  37.558   7.746
 2904POPC   C1B38575  42.899  37.862   8.774
 2904POPC   C2B38576  42.898  37.918   8.358
 2904POPC   C3B38577  42.981  37.917   7.965
 2904POPC   C4B38578  42.747  37.676   7.764
 2905POPC   NC338579  44.432   0.229   9.551
 2905POPC   PO438580  44.927   0.700   9.476
 2905POPC   GL138581  44.789   0.375   9.204
 2905POPC   GL238582  44.450   0.527   9.140
 2905POPC   C1A38583  44.755   0.171   8.798
 2905POPC   D2A38584  44.893   0.277   8.391
 2905POPC   C3A38585  44.811   0.604   8.123
 2905POPC   C4A38586  44.881   0.346   7.777
 2905POPC   C1B38587  44.452   0.557   8.700
 2905POPC   C2B38588  44.375   0.247   8.403
 2905POPC   C3B38589  44.450   0.205   7.999
 2905POPC   C4B38590  44.438   0.603   7.740
 2906POPC   NC338591  10.911  33.496   9.461
 2906POPC   PO438592  10.473  32.968   9.502
 2906POPC   GL138593  10.625  33.040   9.117
 2906POPC   GL238594  10.843  33.314   8.991
 2906POPC   C1A38595  10.455  32.937   8.716
 2906POPC   D2A38596  10.534  32.763   8.325
 2906POPC   C3A38597  10.302  32.911   7.989
 2906POPC   C4A38598  10.464  32.833   7.614
 2906POPC   C1B38599  10.536  33.451   8.696
 2906POPC   C2B38600  10.404  33.320   8.280
 2906POPC   C3B38601  10.645  33.259   7.880
 2906POPC   C4B38602  10.834  33.169   7.472
 2907POPC   NC338603  21.219  31.130   9.546
 2907POPC   PO438604  21.656  31.616   9.616
 2907POPC   GL138605  21.650  31.384   9.237
 2907POPC   GL238606  21.353  31.498   9.169
 2907POPC   C1A38607  21.581  31.257   8.797
 2907POPC   D2A38608  21.623  31.494   8.403
 2907POPC   C3A38609  21.419  31.367   8.049
 2907POPC   C4A38610  21.637  30.986   7.905
 2907POPC   C1B38611  21.370  31.750   8.762
 2907POPC   C2B38612  21.188  31.749   8.348
 2907POPC   C3B38613  21.328  31.908   8.001
 2907POPC   C4B38614  21.469  31.795   7.637
 2908POPC   NC338615  39.933  34.387   9.581
 2908POPC   PO438616  40.172  34.906   9.273
 2908POPC   GL138617  39.981  34.553   9.092
 2908POPC   GL238618  39.690  34.311   9.143
 2908POPC   C1A38619  39.819  34.567   8.695
 2908POPC   D2A38620  39.950  34.871   8.386
 2908POPC   C3A38621  40.100  34.691   8.018
 2908POPC   C4A38622  39.765  34.684   7.727
 2908POPC   C1B38623  39.980  34.097   8.864
 2908POPC   C2B38624  39.874  34.106   8.440
 2908POPC   C3B38625  39.762  34.266   8.047
 2908POPC   C4B38626  40.130  34.226   7.792
 2909POPC   NC338627  28.570  29.992   9.435
 2909POPC   PO438628  27.940  29.733   9.505
 2909POPC   GL138629  28.056  30.117   9.237
 2909POPC   GL238630  28.206  29.835   9.060
 2909POPC   C1A38631  28.305  30.260   8.829
 2909POPC   D2A38632  28.582  30.051   8.509
 2909POPC   C3A38633  28.526  30.104   8.066
 2909POPC   C4A38634  28.672  30.021   7.654
 2909POPC   C1B38635  28.307  29.637   8.660
 2909POPC   C2B38636  28.185  29.757   8.257
 2909POPC   C3B38637  28.330  29.649   7.853
 2909POPC   C4B38638  28.417  29.299   7.570
 2910POPC   NC338639  43.888  39.656   9.396
 2910POPC   PO438640  43.616  39.006   9.521
 2910POPC   GL138641  43.773  39.215   9.168
 2910POPC   GL238642  44.115  39.260   9.150
 2910POPC   C1A38643  43.816  39.463   8.770
 2910POPC   D2A38644  43.746  39.250   8.380
 2910POPC   C3A38645  43.852  39.444   8.002
 2910POPC   C4A38646  44.159  39.327   7.738
 2910POPC   C1B38647  43.995  38.977   8.768
 2910POPC   C2B38648  44.112  38.844   8.364
 2910POPC   C3B38649  44.052  38.835   7.945
 2910POPC   C4B38650  44.285  38.825   7.598
 2911POPC   NC338651  18.055  25.048   9.708
 2911POPC   PO438652  18.416  25.474   9.508
 2911POPC   GL138653  18.185  25.368   9.183
 2911POPC   GL238654  18.038  25.069   9.180
 2911POPC   C1A38655  18.006  25.479   8.803
 2911POPC   D2A38656  17.952  25.248   8.437
 2911POPC   C3A38657  17.942  25.432   8.062
 2911POPC   C4A38658  18.126  25.251   7.710
 2911POPC   C1B38659  18.261  25.030   8.778
 2911POPC   C2B38660  18.232  24.791   8.367
 2911POPC   C3B38661  18.422  24.889   7.930
 2911POPC   C4B38662  18.493  25.025   7.470
 2912POPC   NC338663  23.536  40.880   9.464
 2912POPC   PO438664  23.741  40.279   9.494
 2912POPC   GL138665  23.719  40.567   9.103
 2912POPC   GL238666  23.980  40.819   9.150
 2912POPC   C1A38667  23.433  40.766   8.749
 2912POPC   D2A38668  23.552  40.915   8.317
 2912POPC   C3A38669  23.526  40.730   7.885
 2912POPC   C4A38670  23.398  40.718   7.417
 2912POPC   C1B38671  23.891  40.970   8.742
 2912POPC   C2B38672  23.943  41.215   8.372
 2912POPC   C3B38673  23.943  41.012   7.951
 2912POPC   C4B38674  23.893  40.821   7.544
 2913POPC   NC338675  19.768  40.281   9.416
 2913POPC   PO438676  20.190  39.647   9.549
 2913POPC   GL138677  20.038  39.858   9.197
 2913POPC   GL238678  19.741  39.905   9.040
 2913POPC   C1A38679  20.121  40.083   8.781
 2913POPC   D2A38680  20.246  40.199   8.373
 2913POPC   C3A38681  19.944  39.990   8.095
 2913POPC   C4A38682  19.909  40.073   7.645
 2913POPC   C1B38683  19.625  40.212   8.746
 2913POPC   C2B38684  19.481  40.115   8.340
 2913POPC   C3B38685  19.541  40.279   7.943
 2913POPC   C4B38686  19.421  40.123   7.536
 2914POPC   NC338687   6.932   0.769   9.392
 2914POPC   PO438688   6.592   1.387   9.471
 2914POPC   GL138689   6.613   1.139   9.186
 2914POPC   GL238690   6.430   0.856   9.255
 2914POPC   C1A38691   6.807   1.240   8.818
 2914POPC   D2A38692   6.845   1.395   8.406
 2914POPC   C3A38693   6.584   1.318   8.092
 2914POPC   C4A38694   6.892   1.370   7.849
 2914POPC   C1B38695   6.414   0.877   8.792
 2914POPC   C2B38696   6.676   0.910   8.409
 2914POPC   C3B38697   6.819   0.847   7.995
 2914POPC   C4B38698   6.592   1.020   7.645
 2915POPC   NC338699   7.005  27.700   9.416
 2915POPC   PO438700   6.432  27.342   9.629
 2915POPC   GL138701   6.564  27.517   9.234
 2915POPC   GL238702   6.798  27.252   9.205
 2915POPC   C1A38703   6.791  27.677   8.838
 2915POPC   D2A38704   6.869  27.584   8.411
 2915POPC   C3A38705   6.546  27.695   8.155
 2915POPC   C4A38706   6.617  27.668   7.732
 2915POPC   C1B38707   6.641  27.202   8.781
 2915POPC   C2B38708   6.496  27.220   8.370
 2915POPC   C3B38709   6.472  27.215   7.955
 2915POPC   C4B38710   6.743  27.144   7.637
 2916POPC   NC338711  33.585  16.531   9.486
 2916POPC   PO438712  33.998  17.146   9.471
 2916POPC   GL138713  33.704  16.940   9.164
 2916POPC   GL238714  33.907  16.679   9.114
 2916POPC   C1A38715  33.560  16.718   8.758
 2916POPC   D2A38716  33.781  16.615   8.363
 2916POPC   C3A38717  33.552  16.669   7.978
 2916POPC   C4A38718  33.687  16.814   7.598
 2916POPC   C1B38719  33.980  16.372   8.794
 2916POPC   C2B38720  34.226  16.360   8.441
 2916POPC   C3B38721  34.295  16.351   8.018
 2916POPC   C4B38722  34.123  16.488   7.658
 2917POPC   NC338723  31.761  22.405   9.511
 2917POPC   PO438724  31.230  21.867   9.520
 2917POPC   GL138725  31.337  21.967   9.138
 2917POPC   GL238726  31.423  22.284   9.163
 2917POPC   C1A38727  31.481  21.980   8.726
 2917POPC   D2A38728  31.831  21.854   8.480
 2917POPC   C3A38729  31.648  21.964   8.113
 2917POPC   C4A38730  31.448  21.928   7.733
 2917POPC   C1B38731  31.766  22.374   8.877
 2917POPC   C2B38732  31.742  22.357   8.451
 2917POPC   C3B38733  31.797  22.461   8.045
 2917POPC   C4B38734  31.658  22.447   7.649
 2918POPC   NC338735  34.518   1.461   9.324
 2918POPC   PO438736  34.406   2.091   9.622
 2918POPC   GL138737  34.489   2.109   9.211
 2918POPC   GL238738  34.823   1.967   9.197
 2918POPC   C1A38739  34.460   1.967   8.798
 2918POPC   D2A38740  34.270   2.029   8.395
 2918POPC   C3A38741  34.495   1.809   8.089
 2918POPC   C4A38742  34.674   1.931   7.733
 2918POPC   C1B38743  34.971   1.811   8.777
 2918POPC   C2B38744  34.921   1.938   8.360
 2918POPC   C3B38745  35.128   1.901   7.977
 2918POPC   C4B38746  34.996   1.513   7.822
 2919POPC   NC338747  19.192  24.466   9.472
 2919POPC   PO438748  18.515  24.511   9.586
 2919POPC   GL138749  18.749  24.373   9.212
 2919POPC   GL238750  18.897  24.713   9.137
 2919POPC   C1A38751  19.044  24.261   8.856
 2919POPC   D2A38752  18.963  24.347   8.442
 2919POPC   C3A38753  19.157  24.297   8.072
 2919POPC   C4A38754  18.908  24.398   7.777
 2919POPC   C1B38755  19.077  24.764   8.716
 2919POPC   C2B38756  19.107  24.789   8.261
 2919POPC   C3B38757  19.458  24.739   8.014
 2919POPC   C4B38758  19.429  24.686   7.615
 2920POPC   NC338759   0.361  24.090   9.543
 2920POPC   PO438760   0.066  23.520   9.410
 2920POPC   GL138761   0.194  23.634   9.001
 2920POPC   GL238762   0.313  23.979   9.046
 2920POPC   C1A38763  44.992  23.641   8.592
 2920POPC   D2A38764   0.065  23.894   8.239
 2920POPC   C3A38765   0.315  23.772   7.891
 2920POPC   C4A38766   0.577  23.410   7.777
 2920POPC   C1B38767   0.426  23.925   8.607
 2920POPC   C2B38768   0.649  23.707   8.280
 2920POPC   C3B38769   0.856  23.826   7.884
 2920POPC   C4B38770   1.098  23.594   7.515
 2921POPC   NC338771  30.624  23.797   9.451
 2921POPC   PO438772  31.179  24.033   9.298
 2921POPC   GL138773  30.949  23.780   9.069
 2921POPC   GL238774  30.914  23.445   9.206
 2921POPC   C1A38775  30.718  23.804   8.732
 2921POPC   D2A38776  30.561  23.905   8.374
 2921POPC   C3A38777  30.808  23.788   8.049
 2921POPC   C4A38778  30.773  23.970   7.656
 2921POPC   C1B38779  30.935  23.354   8.777
 2921POPC   C2B38780  30.683  23.376   8.397
 2921POPC   C3B38781  30.575  23.336   7.965
 2921POPC   C4B38782  30.867  23.491   7.641
 2922POPC   NC338783   5.441  17.210   9.317
 2922POPC   PO438784   5.569  17.785   9.707
 2922POPC   GL138785   5.632  17.769   9.247
 2922POPC   GL238786   5.873  17.541   9.193
 2922POPC   C1A38787   5.841  17.811   8.793
 2922POPC   D2A38788   5.866  17.552   8.432
 2922POPC   C3A38789   5.858  17.706   8.020
 2922POPC   C4A38790   5.613  17.476   7.761
 2922POPC   C1B38791   5.844  17.225   8.827
 2922POPC   C2B38792   5.781  17.053   8.421
 2922POPC   C3B38793   6.004  17.217   8.060
 2922POPC   C4B38794   6.131  17.395   7.664
 2923POPC   NC338795  43.566  35.219   9.515
 2923POPC   PO438796  44.134  35.738   9.427
 2923POPC   GL138797  43.933  35.380   9.190
 2923POPC   GL238798  43.569  35.404   9.043
 2923POPC   C1A38799  43.995  35.110   8.819
 2923POPC   D2A38800  43.766  35.232   8.439
 2923POPC   C3A38801  43.792  35.195   8.028
 2923POPC   C4A38802  44.089  35.249   7.728
 2923POPC   C1B38803  43.846  35.627   8.750
 2923POPC   C2B38804  43.767  35.728   8.347
 2923POPC   C3B38805  43.948  35.688   7.982
 2923POPC   C4B38806  43.586  35.723   7.769
 2924POPC   NC338807  37.579  41.117   9.468
 2924POPC   PO438808  37.892  41.724   9.547
 2924POPC   GL138809  37.856  41.514   9.187
 2924POPC   GL238810  37.531  41.404   9.055
 2924POPC   C1A38811  37.828  41.714   8.798
 2924POPC   D2A38812  37.666  41.511   8.419
 2924POPC   C3A38813  37.814  41.662   8.044
 2924POPC   C4A38814  37.930  41.337   7.778
 2924POPC   C1B38815  37.302  41.612   8.756
 2924POPC   C2B38816  37.224  41.807   8.391
 2924POPC   C3B38817  37.316  41.674   7.978
 2924POPC   C4B38818  37.432  41.481   7.589
 2925POPC   NC338819  34.452  19.188   9.675
 2925POPC   PO438820  34.999  18.849   9.720
 2925POPC   GL138821  34.713  18.867   9.318
 2925POPC   GL238822  34.924  18.764   9.060
 2925POPC   C1A38823  34.471  18.948   8.881
 2925POPC   D2A38824  34.312  18.756   8.450
 2925POPC   C3A38825  34.401  18.959   8.032
 2925POPC   C4A38826  34.665  19.211   7.708
 2925POPC   C1B38827  34.978  19.046   8.732
 2925POPC   C2B38828  34.812  19.081   8.337
 2925POPC   C3B38829  34.888  18.851   8.005
 2925POPC   C4B38830  34.680  18.711   7.634
 2926POPC   NC338831  11.443  19.838   9.495
 2926POPC   PO438832  11.129  20.316   9.285
 2926POPC   GL138833  11.394  20.038   9.031
 2926POPC   GL238834  11.425  19.640   9.049
 2926POPC   C1A38835  11.346  20.060   8.611
 2926POPC   D2A38836  11.065  20.266   8.366
 2926POPC   C3A38837  10.993  20.003   8.029
 2926POPC   C4A38838  10.981  20.077   7.613
 2926POPC   C1B38839  11.170  19.588   8.735
 2926POPC   C2B38840  11.301  19.632   8.333
 2926POPC   C3B38841  11.385  19.419   7.987
 2926POPC   C4B38842  11.238  19.661   7.706
 2927POPC   NC338843  32.482  41.904   9.421
 2927POPC   PO438844  32.329  41.332   9.661
 2927POPC   GL138845  32.211  41.447   9.228
 2927POPC   GL238846  31.967  41.185   9.171
 2927POPC   C1A38847  32.298  41.675   8.834
 2927POPC   D2A38848  32.136  41.844   8.427
 2927POPC   C3A38849  32.527  41.842   8.169
 2927POPC   C4A38850  32.541  41.820   7.736
 2927POPC   C1B38851  32.212  41.164   8.779
 2927POPC   C2B38852  32.386  41.397   8.407
 2927POPC   C3B38853  32.334  41.393   7.950
 2927POPC   C4B38854  32.056  41.279   7.610
 2928POPC   NC338855  27.768  34.964   9.404
 2928POPC   PO438856  27.383  34.426   9.428
 2928POPC   GL138857  27.661  34.485   9.117
 2928POPC   GL238858  27.505  34.767   9.016
 2928POPC   C1A38859  27.825  34.474   8.705
 2928POPC   D2A38860  27.587  34.331   8.326
 2928POPC   C3A38861  27.695  34.552   7.964
 2928POPC   C4A38862  27.794  34.561   7.548
 2928POPC   C1B38863  27.293  34.465   8.728
 2928POPC   C2B38864  27.061  34.408   8.346
 2928POPC   C3B38865  27.186  34.404   7.906
 2928POPC   C4B38866  27.283  34.482   7.472
 2929POPC   NC338867  34.823  14.656   9.576
 2929POPC   PO438868  34.670  14.006   9.388
 2929POPC   GL138869  34.600  14.278   9.109
 2929POPC   GL238870  34.450  14.572   9.230
 2929POPC   C1A38871  34.541  14.208   8.681
 2929POPC   D2A38872  34.730  14.449   8.369
 2929POPC   C3A38873  34.598  14.230   8.035
 2929POPC   C4A38874  34.803  14.214   7.655
 2929POPC   C1B38875  34.473  14.683   8.821
 2929POPC   C2B38876  34.263  14.612   8.471
 2929POPC   C3B38877  34.331  14.749   8.117
 2929POPC   C4B38878  34.474  14.614   7.736
 2930POPC   NC338879  25.923  44.691   9.534
 2930POPC   PO438880  26.559  44.838   9.630
 2930POPC   GL138881  26.326  44.922   9.242
 2930POPC   GL238882  26.122  44.658   9.082
 2930POPC   C1A38883  26.316   0.012   8.784
 2930POPC   D2A38884  26.411  44.823   8.370
 2930POPC   C3A38885  26.100  44.693   8.064
 2930POPC   C4A38886  26.019  44.855   7.658
 2930POPC   C1B38887  26.239  44.469   8.712
 2930POPC   C2B38888  26.280  44.216   8.345
 2930POPC   C3B38889  26.325  44.263   7.921
 2930POPC   C4B38890  26.052  44.323   7.553
 2931POPC   NC338891  32.123  10.294   9.675
 2931POPC   PO438892  32.137  10.979   9.536
 2931POPC   GL138893  32.281  10.589   9.283
 2931POPC   GL238894  32.015  10.364   9.186
 2931POPC   C1A38895  32.413  10.368   8.910
 2931POPC   D2A38896  32.354  10.496   8.485
 2931POPC   C3A38897  32.293  10.323   8.110
 2931POPC   C4A38898  32.312  10.452   7.704
 2931POPC   C1B38899  31.903  10.284   8.776
 2931POPC   C2B38900  31.812  10.324   8.363
 2931POPC   C3B38901  31.812  10.179   7.953
 2931POPC   C4B38902  31.980  10.097   7.553
 2932POPC   NC338903  24.324  19.514   9.521
 2932POPC   PO438904  24.286  20.171   9.734
 2932POPC   GL138905  24.284  20.109   9.243
 2932POPC   GL238906  24.344  19.765   9.095
 2932POPC   C1A38907  24.537  20.153   8.832
 2932POPC   D2A38908  24.838  20.195   8.469
 2932POPC   C3A38909  24.656  20.012   8.126
 2932POPC   C4A38910  24.383  19.968   7.806
 2932POPC   C1B38911  24.366  19.542   8.698
 2932POPC   C2B38912  24.265  19.367   8.275
 2932POPC   C3B38913  24.476  19.485   7.944
 2932POPC   C4B38914  24.819  19.671   7.787
 2933POPC   NC338915  30.124  21.744   9.553
 2933POPC   PO438916  29.606  21.297   9.677
 2933POPC   GL138917  29.721  21.265   9.215
 2933POPC   GL238918  29.867  21.570   9.144
 2933POPC   C1A38919  29.910  21.164   8.802
 2933POPC   D2A38920  30.123  21.305   8.422
 2933POPC   C3A38921  30.050  21.115   8.021
 2933POPC   C4A38922  29.787  21.348   7.758
 2933POPC   C1B38923  30.149  21.680   8.794
 2933POPC   C2B38924  30.345  21.797   8.391
 2933POPC   C3B38925  30.150  21.665   8.004
 2933POPC   C4B38926  30.215  21.836   7.565
 2934POPC   NC338927  44.240  20.132   9.516
 2934POPC   PO438928  44.528  19.547   9.480
 2934POPC   GL138929  44.611  19.566   9.025
 2934POPC   GL238930  44.620  19.946   9.079
 2934POPC   C1A38931  44.693  19.552   8.576
 2934POPC   D2A38932  44.459  19.761   8.272
 2934POPC   C3A38933  44.533  19.746   7.852
 2934POPC   C4A38934  44.762  19.518   7.600
 2934POPC   C1B38935  44.342  20.257   8.865
 2934POPC   C2B38936  44.415  20.441   8.465
 2934POPC   C3B38937  44.223  20.447   8.065
 2934POPC   C4B38938  44.256  20.184   7.692
 2935POPC   NC338939  36.445  39.587   9.331
 2935POPC   PO438940  35.815  39.707   9.538
 2935POPC   GL138941  35.962  39.546   9.154
 2935POPC   GL238942  36.135  39.207   9.195
 2935POPC   C1A38943  35.814  39.499   8.739
 2935POPC   D2A38944  35.651  39.665   8.362
 2935POPC   C3A38945  35.949  39.574   8.092
 2935POPC   C4A38946  36.111  39.405   7.754
 2935POPC   C1B38947  36.287  38.987   8.831
 2935POPC   C2B38948  36.028  39.088   8.488
 2935POPC   C3B38949  36.032  39.001   8.075
 2935POPC   C4B38950  36.090  38.898   7.657
 2936POPC   NC338951   8.786  37.114   9.788
 2936POPC   PO438952   9.209  36.730   9.496
 2936POPC   GL138953   9.269  36.626   9.083
 2936POPC   GL238954   8.955  36.681   8.914
 2936POPC   C1A38955   9.417  36.842   8.694
 2936POPC   D2A38956   9.436  37.115   8.315
 2936POPC   C3A38957   9.290  36.909   7.912
 2936POPC   C4A38958   9.134  36.775   7.489
 2936POPC   C1B38959   8.854  37.010   8.613
 2936POPC   C2B38960   8.839  37.002   8.155
 2936POPC   C3B38961   8.716  36.922   7.724
 2936POPC   C4B38962   8.567  37.212   7.361
 2937POPC   NC338963  41.870  10.911   9.686
 2937POPC   PO438964  41.418  11.417   9.521
 2937POPC   GL138965  41.339  11.213   9.172
 2937POPC   GL238966  41.683  11.116   9.140
 2937POPC   C1A38967  41.383  11.353   8.749
 2937POPC   D2A38968  41.650  11.493   8.414
 2937POPC   C3A38969  41.421  11.418   8.048
 2937POPC   C4A38970  41.202  11.417   7.675
 2937POPC   C1B38971  41.880  11.106   8.713
 2937POPC   C2B38972  42.040  11.136   8.276
 2937POPC   C3B38973  41.911  11.431   7.952
 2937POPC   C4B38974  41.700  11.367   7.525
 2938POPC   NC338975  27.220  19.614   9.432
 2938POPC   PO438976  26.491  19.651   9.534
 2938POPC   GL138977  26.582  19.882   9.139
 2938POPC   GL238978  26.929  19.922   9.143
 2938POPC   C1A38979  26.690  19.922   8.703
 2938POPC   D2A38980  26.456  19.786   8.384
 2938POPC   C3A38981  26.625  19.777   8.033
 2938POPC   C4A38982  26.361  19.831   7.691
 2938POPC   C1B38983  27.130  19.656   8.795
 2938POPC   C2B38984  26.967  19.519   8.400
 2938POPC   C3B38985  27.106  19.555   7.974
 2938POPC   C4B38986  27.390  19.864   7.755
 2939POPC   NC338987  43.244  20.213   9.533
 2939POPC   PO438988  43.015  20.756   9.748
 2939POPC   GL138989  43.232  20.684   9.325
 2939POPC   GL238990  43.261  20.973   9.162
 2939POPC   C1A38991  43.130  20.542   8.871
 2939POPC   D2A38992  42.967  20.494   8.444
 2939POPC   C3A38993  43.186  20.384   8.069
 2939POPC   C4A38994  42.934  20.407   7.719
 2939POPC   C1B38995  42.870  20.984   8.914
 2939POPC   C2B38996  42.745  20.963   8.457
 2939POPC   C3B38997  42.907  20.826   8.031
 2939POPC   C4B38998  43.293  20.828   7.760
 2940POPC   NC338999  43.121  18.009   9.569
 2940POPC   PO439000  42.980  18.614   9.731
 2940POPC   GL139001  43.049  18.430   9.259
 2940POPC   GL239002  43.203  18.115   9.094
 2940POPC   C1A39003  43.280  18.524   8.837
 2940POPC   D2A39004  43.237  18.197   8.513
 2940POPC   C3A39005  43.082  18.373   8.128
 2940POPC   C4A39006  43.265  18.663   7.828
 2940POPC   C1B39007  43.059  17.813   8.841
 2940POPC   C2B39008  42.947  17.740   8.442
 2940POPC   C3B39009  43.164  17.844   8.087
 2940POPC   C4B39010  43.059  18.070   7.740
 2941POPC   NC339011   0.179  32.101   9.391
 2941POPC   PO439012   0.311  32.761   9.440
 2941POPC   GL139013   0.468  32.476   9.135
 2941POPC   GL239014   0.837  32.518   9.216
 2941POPC   C1A39015   0.257  32.257   8.764
 2941POPC   D2A39016  44.992  32.248   8.410
 2941POPC   C3A39017   0.244  32.268   8.076
 2941POPC   C4A39018   0.385  32.233   7.706
 2941POPC   C1B39019   0.825  32.328   8.805
 2941POPC   C2B39020   0.656  32.276   8.406
 2941POPC   C3B39021   0.726  32.052   8.041
 2941POPC   C4B39022   0.889  32.146   7.621
 2942POPC   NC339023  18.542  35.530   9.338
 2942POPC   PO439024  19.181  35.399   9.396
 2942POPC   GL139025  18.961  35.454   9.050
 2942POPC   GL239026  18.832  35.807   9.035
 2942POPC   C1A39027  18.781  35.147   8.755
 2942POPC   D2A39028  18.758  35.189   8.313
 2942POPC   C3A39029  19.173  35.239   8.186
 2942POPC   C4A39030  19.349  35.153   7.809
 2942POPC   C1B39031  18.842  35.652   8.606
 2942POPC   C2B39032  18.942  35.691   8.177
 2942POPC   C3B39033  18.678  35.720   7.855
 2942POPC   C4B39034  18.690  35.866   7.419
 2943POPC   NC339035  42.540   7.882   9.413
 2943POPC   PO439036  42.170   8.478   9.465
 2943POPC   GL139037  42.294   8.227   9.102
 2943POPC   GL239038  42.121   7.905   9.060
 2943POPC   C1A39039  42.488   8.379   8.729
 2943POPC   D2A39040  42.430   8.706   8.471
 2943POPC   C3A39041  42.450   8.496   8.086
 2943POPC   C4A39042  42.280   8.469   7.706
 2943POPC   C1B39043  42.105   8.056   8.622
 2943POPC   C2B39044  42.080   8.076   8.157
 2943POPC   C3B39045  42.031   8.007   7.710
 2943POPC   C4B39046  42.018   7.841   7.280
 2944POPC   NC339047   3.969  34.701   9.601
 2944POPC   PO439048   4.509  34.316   9.590
 2944POPC   GL139049   4.441  34.586   9.228
 2944POPC   GL239050   4.131  34.824   9.148
 2944POPC   C1A39051   4.589  34.437   8.850
 2944POPC   D2A39052   4.477  34.465   8.435
 2944POPC   C3A39053   4.513  34.337   8.026
 2944POPC   C4A39054   4.536  34.661   7.705
 2944POPC   C1B39055   4.115  34.626   8.752
 2944POPC   C2B39056   3.995  34.645   8.325
 2944POPC   C3B39057   4.060  34.852   7.923
 2944POPC   C4B39058   4.025  34.652   7.533
 2945POPC   NC339059  38.325   8.546   9.652
 2945POPC   PO439060  38.383   9.236   9.600
 2945POPC   GL139061  38.486   8.863   9.300
 2945POPC   GL239062  38.160   8.681   9.186
 2945POPC   C1A39063  38.669   8.659   8.915
 2945POPC   D2A39064  38.694   8.899   8.560
 2945POPC   C3A39065  38.727   8.802   8.128
 2945POPC   C4A39066  38.638   8.952   7.704
 2945POPC   C1B39067  38.207   8.851   8.763
 2945POPC   C2B39068  38.229   8.838   8.307
 2945POPC   C3B39069  38.176   8.769   7.849
 2945POPC   C4B39070  38.098   9.003   7.451
 2946POPC   NC339071  40.708  17.497   9.636
 2946POPC   PO439072  41.119  18.024   9.443
 2946POPC   GL139073  40.822  17.712   9.174
 2946POPC   GL239074  40.771  17.314   9.156
 2946POPC   C1A39075  40.656  17.616   8.761
 2946POPC   D2A39076  40.542  17.819   8.399
 2946POPC   C3A39077  40.867  17.828   8.107
 2946POPC   C4A39078  40.743  17.646   7.742
 2946POPC   C1B39079  40.771  17.101   8.750
 2946POPC   C2B39080  40.572  17.238   8.361
 2946POPC   C3B39081  40.662  17.181   7.932
 2946POPC   C4B39082  40.546  17.215   7.480
 2947POPC   NC339083   9.560  10.291   9.829
 2947POPC   PO439084  10.000   9.845   9.467
 2947POPC   GL139085   9.825   9.826   9.101
 2947POPC   GL239086   9.607   9.546   9.174
 2947POPC   C1A39087   9.699  10.015   8.735
 2947POPC   D2A39088   9.950  10.038   8.372
 2947POPC   C3A39089   9.691   9.981   8.017
 2947POPC   C4A39090   9.441   9.650   7.915
 2947POPC   C1B39091   9.758   9.482   8.734
 2947POPC   C2B39092  10.071   9.531   8.428
 2947POPC   C3B39093   9.962   9.535   8.004
 2947POPC   C4B39094   9.822   9.246   7.701
 2948POPC   NC339095   4.523  33.848   9.598
 2948POPC   PO439096   5.164  33.768   9.617
 2948POPC   GL139097   4.919  33.872   9.239
 2948POPC   GL239098   4.937  34.226   9.168
 2948POPC   C1A39099   4.750  33.876   8.805
 2948POPC   D2A39100   4.593  33.948   8.393
 2948POPC   C3A39101   4.816  33.771   8.080
 2948POPC   C4A39102   4.772  34.006   7.716
 2948POPC   C1B39103   5.246  33.986   8.849
 2948POPC   C2B39104   5.213  33.839   8.437
 2948POPC   C3B39105   5.368  33.595   8.122
 2948POPC   C4B39106   5.222  33.710   7.763
 2949POPC   NC339107  12.864  22.905   9.537
 2949POPC   PO439108  13.202  23.453   9.383
 2949POPC   GL139109  13.087  23.069   9.100
 2949POPC   GL239110  13.108  22.674   9.129
 2949POPC   C1A39111  12.907  23.163   8.686
 2949POPC   D2A39112  13.047  23.273   8.236
 2949POPC   C3A39113  12.837  23.107   7.855
 2949POPC   C4A39114  12.841  23.404   7.476
 2949POPC   C1B39115  12.813  22.665   8.784
 2949POPC   C2B39116  12.971  22.782   8.369
 2949POPC   C3B39117  13.210  22.736   8.024
 2949POPC   C4B39118  13.003  22.664   7.646
 2950POPC   NC339119  35.513  36.933   9.680
 2950POPC   PO439120  35.086  37.340   9.548
 2950POPC   GL139121  35.303  37.152   9.182
 2950POPC   GL239122  35.676  37.159   9.203
 2950POPC   C1A39123  35.302  37.052   8.694
 2950POPC   D2A39124  35.117  37.116   8.266
 2950POPC   C3A39125  35.315  36.988   7.901
 2950POPC   C4A39126  35.278  36.638   7.630
 2950POPC   C1B39127  35.816  37.114   8.737
 2950POPC   C2B39128  35.682  36.973   8.305
 2950POPC   C3B39129  35.755  36.754   7.870
 2950POPC   C4B39130  35.640  36.838   7.373
 2951POPC   NC339131  17.302   6.555   9.566
 2951POPC   PO439132  17.795   6.329   9.126
 2951POPC   GL139133  17.432   6.600   9.080
 2951POPC   GL239134  17.148   6.374   9.122
 2951POPC   C1A39135  17.456   6.802   8.692
 2951POPC   D2A39136  17.781   6.578   8.422
 2951POPC   C3A39137  17.671   6.579   7.986
 2951POPC   C4A39138  17.470   6.899   7.750
 2951POPC   C1B39139  17.230   6.297   8.714
 2951POPC   C2B39140  17.287   6.443   8.346
 2951POPC   C3B39141  17.338   6.211   8.034
 2951POPC   C4B39142  17.250   6.442   7.693
 2952POPC   NC339143  10.302  39.423   9.391
 2952POPC   PO439144  10.912  39.134   9.429
 2952POPC   GL139145  10.864  39.276   9.052
 2952POPC   GL239146  10.756  39.607   9.176
 2952POPC   C1A39147  10.666  39.137   8.650
 2952POPC   D2A39148  10.318  39.346   8.427
 2952POPC   C3A39149  10.206  39.288   7.976
 2952POPC   C4A39150  10.447  39.084   7.646
 2952POPC   C1B39151  10.713  39.678   8.763
 2952POPC   C2B39152  10.863  39.531   8.387
 2952POPC   C3B39153  10.695  39.367   8.072
 2952POPC   C4B39154  10.558  39.593   7.709
 2953POPC   NC339155  17.221  39.116   9.529
 2953POPC   PO439156  17.569  39.651   9.554
 2953POPC   GL139157  17.582  39.355   9.241
 2953POPC   GL239158  17.266  39.477   9.154
 2953POPC   C1A39159  17.761  39.332   8.829
 2953POPC   D2A39160  17.739  39.586   8.448
 2953POPC   C3A39161  17.628  39.422   8.025
 2953POPC   C4A39162  17.319  39.393   7.686
 2953POPC   C1B39163  17.264  39.181   8.825
 2953POPC   C2B39164  17.461  39.147   8.421
 2953POPC   C3B39165  17.331  38.973   8.021
 2953POPC   C4B39166  17.072  38.956   7.669
 2954POPC   NC339167  25.461   5.352   9.517
 2954POPC   PO439168  24.939   4.979   9.516
 2954POPC   GL139169  25.207   4.951   9.147
 2954POPC   GL239170  25.396   5.199   9.052
 2954POPC   C1A39171  25.069   5.025   8.706
 2954POPC   D2A39172  24.929   5.259   8.352
 2954POPC   C3A39173  25.114   5.134   7.971
 2954POPC   C4A39174  24.955   4.880   7.660
 2954POPC   C1B39175  25.530   5.375   8.692
 2954POPC   C2B39176  25.411   5.452   8.300
 2954POPC   C3B39177  25.527   5.425   7.897
 2954POPC   C4B39178  25.248   5.492   7.573
 2955POPC   NC339179  11.751  30.600   9.553
 2955POPC   PO439180  12.465  30.390   9.490
 2955POPC   GL139181  12.300  30.675   9.153
 2955POPC   GL239182  11.938  30.784   9.120
 2955POPC   C1A39183  12.166  30.542   8.738
 2955POPC   D2A39184  12.345  30.697   8.379
 2955POPC   C3A39185  12.236  30.461   8.031
 2955POPC   C4A39186  12.444  30.748   7.785
 2955POPC   C1B39187  11.769  30.857   8.706
 2955POPC   C2B39188  11.851  30.728   8.279
 2955POPC   C3B39189  11.991  30.933   7.912
 2955POPC   C4B39190  11.848  30.854   7.467
 2956POPC   NC339191  21.129  29.960   9.465
 2956POPC   PO439192  21.500  29.547   9.592
 2956POPC   GL139193  21.477  29.788   9.139
 2956POPC   GL239194  21.328  30.167   9.055
 2956POPC   C1A39195  21.695  29.964   8.766
 2956POPC   D2A39196  21.562  30.207   8.414
 2956POPC   C3A39197  21.513  29.999   8.024
 2956POPC   C4A39198  21.555  29.948   7.587
 2956POPC   C1B39199  21.045  30.416   8.787
 2956POPC   C2B39200  21.115  30.484   8.387
 2956POPC   C3B39201  20.931  30.437   7.972
 2956POPC   C4B39202  21.093  30.127   7.723
 2957POPC   NC339203   2.216  16.018   9.647
 2957POPC   PO439204   2.047  16.553   9.494
 2957POPC   GL139205   1.978  16.201   9.190
 2957POPC   GL239206   2.000  15.852   9.230
 2957POPC   C1A39207   2.207  16.061   8.804
 2957POPC   D2A39208   1.985  16.019   8.426
 2957POPC   C3A39209   2.217  15.963   8.039
 2957POPC   C4A39210   1.896  15.894   7.756
 2957POPC   C1B39211   1.853  15.694   8.859
 2957POPC   C2B39212   2.008  15.429   8.559
 2957POPC   C3B39213   1.969  15.549   8.159
 2957POPC   C4B39214   2.265  15.515   7.805
 2958POPC   NC339215  20.097  28.494   9.468
 2958POPC   PO439216  19.489  28.368   9.680
 2958POPC   GL139217  19.659  28.272   9.265
 2958POPC   GL239218  19.697  28.605   9.171
 2958POPC   C1A39219  19.665  28.242   8.792
 2958POPC   D2A39220  19.893  28.358   8.412
 2958POPC   C3A39221  19.709  28.216   8.071
 2958POPC   C4A39222  19.761  28.308   7.681
 2958POPC   C1B39223  19.942  28.710   8.789
 2958POPC   C2B39224  20.151  28.804   8.401
 2958POPC   C3B39225  19.912  28.790   8.027
 2958POPC   C4B39226  20.069  28.727   7.618
 2959POPC   NC339227  42.672   3.569   9.728
 2959POPC   PO439228  42.130   3.241   9.433
 2959POPC   GL139229  42.295   3.289   9.098
 2959POPC   GL239230  42.647   3.250   9.264
 2959POPC   C1A39231  42.244   3.575   8.700
 2959POPC   D2A39232  42.455   3.892   8.414
 2959POPC   C3A39233  42.230   3.963   8.046
 2959POPC   C4A39234  42.043   3.659   7.783
 2959POPC   C1B39235  42.690   3.307   8.821
 2959POPC   C2B39236  42.686   3.417   8.416
 2959POPC   C3B39237  42.447   3.495   8.059
 2959POPC   C4B39238  42.693   3.330   7.728
 2960POPC   NC339239  33.079  44.218   9.381
 2960POPC   PO439240  32.818  43.612   9.613
 2960POPC   GL139241  32.875  43.756   9.141
 2960POPC   GL239242  32.789  44.094   8.968
 2960POPC   C1A39243  32.945  43.774   8.642
 2960POPC   D2A39244  32.749  44.145   8.418
 2960POPC   C3A39245  32.715  43.972   8.023
 2960POPC   C4A39246  32.862  43.733   7.650
 2960POPC   C1B39247  33.187  44.231   8.670
 2960POPC   C2B39248  33.241  44.264   8.181
 2960POPC   C3B39249  33.094  44.167   7.725
 2960POPC   C4B39250  33.244  44.351   7.306
 2961POPC   NC339251   2.636  13.714   9.464
 2961POPC   PO439252   3.234  13.535   9.500
 2961POPC   GL139253   3.035  13.732   9.112
 2961POPC   GL239254   2.741  13.512   9.007
 2961POPC   C1A39255   2.857  13.927   8.722
 2961POPC   D2A39256   2.556  13.937   8.344
 2961POPC   C3A39257   2.751  13.860   7.937
 2961POPC   C4A39258   2.630  13.584   7.557
 2961POPC   C1B39259   2.659  13.469   8.562
 2961POPC   C2B39260   2.571  13.434   8.125
 2961POPC   C3B39261   2.651  13.134   7.782
 2961POPC   C4B39262   3.008  13.019   7.524
 2962POPC   NC339263   5.324  40.488   9.405
 2962POPC   PO439264   5.068  41.038   9.596
 2962POPC   GL139265   5.151  40.940   9.179
 2962POPC   GL239266   5.486  41.037   9.188
 2962POPC   C1A39267   5.033  40.712   8.786
 2962POPC   D2A39268   5.161  40.534   8.402
 2962POPC   C3A39269   5.123  40.806   8.048
 2962POPC   C4A39270   5.328  40.779   7.666
 2962POPC   C1B39271   5.419  41.005   8.722
 2962POPC   C2B39272   5.557  41.046   8.290
 2962POPC   C3B39273   5.420  41.219   7.918
 2962POPC   C4B39274   5.340  41.253   7.470
 2963POPC   NC339275  31.987  44.456   9.443
 2963POPC   PO439276  32.606  44.279   9.392
 2963POPC   GL139277  32.410  44.613   9.154
 2963POPC   GL239278  32.136  44.883   9.198
 2963POPC   C1A39279  32.425  44.819   8.771
 2963POPC   D2A39280  32.310  44.650   8.403
 2963POPC   C3A39281  32.455  44.886   8.128
 2963POPC   C4A39282  32.522  44.807   7.726
 2963POPC   C1B39283  31.924  44.785   8.777
 2963POPC   C2B39284  31.900  44.917   8.316
 2963POPC   C3B39285  32.036  44.711   7.898
 2963POPC   C4B39286  32.104  44.950   7.491
 2964POPC   NC339287  20.428   1.000   9.524
 2964POPC   PO439288  20.808   1.586   9.533
 2964POPC   GL139289  20.600   1.282   9.150
 2964POPC   GL239290  20.744   0.901   9.137
 2964POPC   C1A39291  20.505   1.051   8.714
 2964POPC   D2A39292  20.419   0.810   8.328
 2964POPC   C3A39293  20.604   0.904   7.930
 2964POPC   C4A39294  20.674   1.299   7.756
 2964POPC   C1B39295  21.006   0.942   8.776
 2964POPC   C2B39296  20.909   1.099   8.371
 2964POPC   C3B39297  21.075   1.104   7.975
 2964POPC   C4B39298  21.012   0.958   7.563
 2965POPC   NC339299  42.793  24.777   9.494
 2965POPC   PO439300  43.010  24.100   9.444
 2965POPC   GL139301  43.032  24.436   9.160
 2965POPC   GL239302  43.346  24.527   9.036
 2965POPC   C1A39303  42.846  24.592   8.794
 2965POPC   D2A39304  42.787  24.382   8.391
 2965POPC   C3A39305  42.841  24.697   8.087
 2965POPC   C4A39306  43.122  24.615   7.748
 2965POPC   C1B39307  43.279  24.417   8.615
 2965POPC   C2B39308  43.294  24.391   8.187
 2965POPC   C3B39309  43.582  24.534   7.911
 2965POPC   C4B39310  43.550  24.646   7.436
 2966POPC   NC339311  44.194  24.091   9.581
 2966POPC   PO439312  44.938  24.284   9.451
 2966POPC   GL139313  44.709  24.622   9.181
 2966POPC   GL239314  44.331  24.698   9.227
 2966POPC   C1A39315  44.802  24.676   8.743
 2966POPC   D2A39316  44.580  24.328   8.472
 2966POPC   C3A39317  44.608  24.445   8.042
 2966POPC   C4A39318  44.940  24.767   7.936
 2966POPC   C1B39319  44.291  24.654   8.765
 2966POPC   C2B39320  44.475  24.834   8.384
 2966POPC   C3B39321  44.438  24.921   7.984
 2966POPC   C4B39322  44.342  24.665   7.638
 2967POPC   NC339323  26.581  22.399   9.441
 2967POPC   PO439324  26.903  21.839   9.590
 2967POPC   GL139325  26.782  21.986   9.207
 2967POPC   GL239326  26.979  22.269   9.110
 2967POPC   C1A39327  26.624  22.099   8.800
 2967POPC   D2A39328  26.692  22.305   8.405
 2967POPC   C3A39329  26.833  22.072   8.026
 2967POPC   C4A39330  26.663  22.052   7.597
 2967POPC   C1B39331  26.932  22.567   8.799
 2967POPC   C2B39332  27.007  22.724   8.398
 2967POPC   C3B39333  26.825  22.610   8.006
 2967POPC   C4B39334  26.999  22.423   7.662
 2968POPC   NC339335  28.071   0.987   9.372
 2968POPC   PO439336  27.392   1.222   9.534
 2968POPC   GL139337  27.610   1.354   9.168
 2968POPC   GL239338  27.956   1.546   9.178
 2968POPC   C1A39339  27.425   1.191   8.785
 2968POPC   D2A39340  27.220   0.986   8.459
 2968POPC   C3A39341  27.412   1.140   8.095
 2968POPC   C4A39342  27.510   1.082   7.676
 2968POPC   C1B39343  27.913   1.343   8.774
 2968POPC   C2B39344  27.810   0.978   8.489
 2968POPC   C3B39345  27.905   0.954   8.051
 2968POPC   C4B39346  27.890   1.384   7.931
 2969POPC   NC339347  13.865  41.703   9.490
 2969POPC   PO439348  13.541  41.016   9.392
 2969POPC   GL139349  13.393  41.409   9.204
 2969POPC   GL239350  13.703  41.531   9.036
 2969POPC   C1A39351  13.228  41.612   8.828
 2969POPC   D2A39352  13.458  41.712   8.446
 2969POPC   C3A39353  13.307  41.716   8.034
 2969POPC   C4A39354  13.446  41.463   7.658
 2969POPC   C1B39355  13.875  41.878   8.786
 2969POPC   C2B39356  13.890  41.974   8.347
 2969POPC   C3B39357  13.824  41.742   7.930
 2969POPC   C4B39358  13.929  41.306   7.809
 2970POPC   NC339359  33.222  25.505   9.616
 2970POPC   PO439360  33.100  24.903   9.518
 2970POPC   GL139361  33.134  25.162   9.182
 2970POPC   GL239362  32.962  25.468   9.157
 2970POPC   C1A39363  33.063  25.108   8.769
 2970POPC   D2A39364  33.301  25.142   8.429
 2970POPC   C3A39365  33.196  25.087   8.070
 2970POPC   C4A39366  33.057  25.109   7.665
 2970POPC   C1B39367  32.650  25.403   8.803
 2970POPC   C2B39368  32.871  25.447   8.409
 2970POPC   C3B39369  32.773  25.356   8.004
 2970POPC   C4B39370  32.808  25.588   7.632
 2971POPC   NC339371  34.941  41.512   9.362
 2971POPC   PO439372  35.597  41.202   9.422
 2971POPC   GL139373  35.427  41.436   9.074
 2971POPC   GL239374  35.297  41.762   9.080
 2971POPC   C1A39375  35.268  41.522   8.654
 2971POPC   D2A39376  35.097  41.266   8.388
 2971POPC   C3A39377  35.382  41.154   8.073
 2971POPC   C4A39378  35.443  41.272   7.661
 2971POPC   C1B39379  35.058  41.993   8.732
 2971POPC   C2B39380  35.294  41.972   8.337
 2971POPC   C3B39381  35.244  41.651   8.024
 2971POPC   C4B39382  35.043  41.829   7.708
 2972POPC   NC339383  18.804  19.562   9.859
 2972POPC   PO439384  19.320  19.797   9.443
 2972POPC   GL139385  19.228  19.925   9.024
 2972POPC   GL239386  19.538  20.093   8.974
 2972POPC   C1A39387  18.933  19.934   8.691
 2972POPC   D2A39388  19.043  19.657   8.390
 2972POPC   C3A39389  18.844  19.480   8.070
 2972POPC   C4A39390  18.732  19.299   7.721
 2972POPC   C1B39391  19.313  20.281   8.625
 2972POPC   C2B39392  19.232  20.109   8.214
 2972POPC   C3B39393  19.081  19.899   7.865
 2972POPC   C4B39394  19.119  19.839   7.417
 2973POPC   NC339395  13.231  15.281   9.582
 2973POPC   PO439396  12.673  15.125   9.833
 2973POPC   GL139397  12.842  15.023   9.335
 2973POPC   GL239398  12.557  15.040   9.044
 2973POPC   C1A39399  13.000  14.891   8.887
 2973POPC   D2A39400  12.752  14.919   8.497
 2973POPC   C3A39401  12.965  14.846   8.133
 2973POPC   C4A39402  12.766  14.981   7.793
 2973POPC   C1B39403  12.781  15.346   8.772
 2973POPC   C2B39404  13.012  15.342   8.403
 2973POPC   C3B39405  12.782  15.400   8.088
 2973POPC   C4B39406  12.756  15.641   7.768
 2974POPC   NC339407  17.918  43.066   9.408
 2974POPC   PO439408  18.560  43.355   9.529
 2974POPC   GL139409  18.336  43.312   9.130
 2974POPC   GL239410  18.558  43.061   8.931
 2974POPC   C1A39411  18.159  43.305   8.725
 2974POPC   D2A39412  18.495  43.231   8.408
 2974POPC   C3A39413  18.415  43.291   8.001
 2974POPC   C4A39414  18.068  43.189   7.820
 2974POPC   C1B39415  18.314  42.817   8.624
 2974POPC   C2B39416  18.476  42.759   8.211
 2974POPC   C3B39417  18.390  42.805   7.807
 2974POPC   C4B39418  18.680  43.092   7.628
 2975POPC   NC339419  15.536   3.563   9.442
 2975POPC   PO439420  14.922   3.130   9.464
 2975POPC   GL139421  15.126   3.406   9.164
 2975POPC   GL239422  15.203   3.788   9.132
 2975POPC   C1A39423  15.040   3.491   8.745
 2975POPC   D2A39424  15.250   3.547   8.362
 2975POPC   C3A39425  15.041   3.469   8.004
 2975POPC   C4A39426  14.860   3.776   7.761
 2975POPC   C1B39427  15.510   3.759   8.769
 2975POPC   C2B39428  15.592   3.927   8.358
 2975POPC   C3B39429  15.416   3.838   7.956
 2975POPC   C4B39430  15.300   3.741   7.526
 2976POPC   NC339431  33.256  10.828   9.351
 2976POPC   PO439432  32.939  10.303   9.486
 2976POPC   GL139433  32.895  10.555   9.080
 2976POPC   GL239434  33.149  10.752   8.862
 2976POPC   C1A39435  32.837  10.435   8.638
 2976POPC   D2A39436  32.959  10.642   8.274
 2976POPC   C3A39437  32.800  10.387   7.961
 2976POPC   C4A39438  32.756  10.389   7.478
 2976POPC   C1B39439  33.334  10.351   8.654
 2976POPC   C2B39440  33.235  10.185   8.241
 2976POPC   C3B39441  33.312  10.493   7.925
 2976POPC   C4B39442  33.237  10.532   7.504
 2977POPC   NC339443  13.634   7.904   9.488
 2977POPC   PO439444  13.216   8.455   9.433
 2977POPC   GL139445  13.589   8.285   9.129
 2977POPC   GL239446  13.782   7.928   9.022
 2977POPC   C1A39447  13.928   8.346   8.795
 2977POPC   D2A39448  13.820   8.194   8.385
 2977POPC   C3A39449  13.726   8.460   8.029
 2977POPC   C4A39450  13.379   8.332   7.801
 2977POPC   C1B39451  13.452   7.957   8.733
 2977POPC   C2B39452  13.327   7.815   8.319
 2977POPC   C3B39453  13.633   7.904   7.985
 2977POPC   C4B39454  14.042   7.711   7.913
 2978POPC   NC339455  10.833  15.037   9.508
 2978POPC   PO439456  10.254  15.330   9.662
 2978POPC   GL139457  10.421  15.295   9.197
 2978POPC   GL239458  10.542  14.967   9.100
 2978POPC   C1A39459  10.262  15.141   8.729
 2978POPC   D2A39460  10.488  14.939   8.372
 2978POPC   C3A39461  10.526  15.125   7.973
 2978POPC   C4A39462  10.234  15.402   7.786
 2978POPC   C1B39463  10.848  14.867   8.769
 2978POPC   C2B39464  10.922  14.671   8.373
 2978POPC   C3B39465  10.919  14.803   7.995
 2978POPC   C4B39466  10.714  14.874   7.570
 2979POPC   NC339467  41.278  13.647   9.412
 2979POPC   PO439468  41.931  13.869   9.633
 2979POPC   GL139469  41.745  13.728   9.242
 2979POPC   GL239470  41.724  13.359   9.337
 2979POPC   C1A39471  41.590  13.845   8.823
 2979POPC   D2A39472  41.459  14.013   8.410
 2979POPC   C3A39473  41.559  13.707   8.099
 2979POPC   C4A39474  41.474  13.574   7.670
 2979POPC   C1B39475  41.752  13.316   8.912
 2979POPC   C2B39476  41.837  13.512   8.524
 2979POPC   C3B39477  41.932  13.346   8.146
 2979POPC   C4B39478  41.790  13.203   7.759
 2980POPC   NC339479  33.871   3.098   9.444
 2980POPC   PO439480  33.539   2.455   9.506
 2980POPC   GL139481  33.770   2.627   9.215
 2980POPC   GL239482  33.553   2.838   9.111
 2980POPC   C1A39483  33.945   2.582   8.824
 2980POPC   D2A39484  34.048   2.785   8.459
 2980POPC   C3A39485  34.117   2.508   8.139
 2980POPC   C4A39486  33.962   2.675   7.745
 2980POPC   C1B39487  33.451   2.868   8.735
 2980POPC   C2B39488  33.631   3.104   8.447
 2980POPC   C3B39489  33.714   2.959   8.083
 2980POPC   C4B39490  33.585   3.028   7.709
 2981POPC   NC339491  27.796  14.965   9.324
 2981POPC   PO439492  27.850  15.532   9.671
 2981POPC   GL139493  27.811  15.507   9.196
 2981POPC   GL239494  27.492  15.298   9.089
 2981POPC   C1A39495  27.838  15.424   8.729
 2981POPC   D2A39496  27.559  15.435   8.375
 2981POPC   C3A39497  27.715  15.342   7.983
 2981POPC   C4A39498  27.786  15.386   7.572
 2981POPC   C1B39499  27.608  14.975   8.725
 2981POPC   C2B39500  27.822  14.984   8.352
 2981POPC   C3B39501  27.669  14.829   7.952
 2981POPC   C4B39502  27.316  14.605   7.784
 2982POPC   NC339503   5.426  42.176   9.681
 2982POPC   PO439504   4.948  42.665   9.763
 2982POPC   GL139505   5.104  42.364   9.336
 2982POPC   GL239506   5.429  42.432   9.165
 2982POPC   C1A39507   4.994  42.225   8.876
 2982POPC   D2A39508   4.839  42.317   8.502
 2982POPC   C3A39509   4.837  41.996   8.159
 2982POPC   C4A39510   4.754  42.197   7.746
 2982POPC   C1B39511   5.480  42.237   8.737
 2982POPC   C2B39512   5.277  42.093   8.403
 2982POPC   C3B39513   5.138  42.396   8.097
 2982POPC   C4B39514   5.210  42.460   7.684
 2983POPC   NC339515   6.189  32.185   9.826
 2983POPC   PO439516   6.760  32.369   9.520
 2983POPC   GL139517   6.729  32.560   9.170
 2983POPC   GL239518   6.752  32.221   8.997
 2983POPC   C1A39519   6.706  32.659   8.769
 2983POPC   D2A39520   6.806  32.302   8.478
 2983POPC   C3A39521   6.697  32.439   8.101
 2983POPC   C4A39522   7.015  32.383   7.807
 2983POPC   C1B39523   6.364  32.274   8.707
 2983POPC   C2B39524   6.334  32.091   8.323
 2983POPC   C3B39525   6.647  31.927   8.104
 2983POPC   C4B39526   6.649  32.063   7.708
 2984POPC   NC339527  23.827  10.180   9.505
 2984POPC   PO439528  23.210  10.641   9.478
 2984POPC   GL139529  23.469  10.396   9.185
 2984POPC   GL239530  23.820  10.499   9.104
 2984POPC   C1A39531  23.521  10.415   8.727
 2984POPC   D2A39532  23.607  10.637   8.360
 2984POPC   C3A39533  23.460  10.548   7.976
 2984POPC   C4A39534  23.569  10.223   7.717
 2984POPC   C1B39535  23.932  10.786   8.757
 2984POPC   C2B39536  24.113  10.718   8.330
 2984POPC   C3B39537  23.993  10.571   7.898
 2984POPC   C4B39538  23.936  10.699   7.438
 2985POPC   NC339539  38.204  42.084   9.522
 2985POPC   PO439540  38.413  42.740   9.350
 2985POPC   GL139541  38.469  42.349   9.149
 2985POPC   GL239542  38.748  42.089   9.241
 2985POPC   C1A39543  38.243  42.307   8.743
 2985POPC   D2A39544  38.242  42.069   8.342
 2985POPC   C3A39545  38.311  42.339   7.980
 2985POPC   C4A39546  38.072  42.561   7.690
 2985POPC   C1B39547  38.544  41.921   8.861
 2985POPC   C2B39548  38.629  41.760   8.465
 2985POPC   C3B39549  38.649  41.946   8.048
 2985POPC   C4B39550  38.753  42.300   7.744
 2986POPC   NC339551  23.319  27.747   9.538
 2986POPC   PO439552  24.082  27.892   9.491
 2986POPC   GL139553  23.800  27.671   9.173
 2986POPC   GL239554  23.478  27.604   9.097
 2986POPC   C1A39555  23.797  27.537   8.734
 2986POPC   D2A39556  23.645  27.674   8.331
 2986POPC   C3A39557  23.790  27.540   7.918
 2986POPC   C4A39558  23.971  27.479   7.478
 2986POPC   C1B39559  23.312  27.746   8.739
 2986POPC   C2B39560  23.129  27.584   8.386
 2986POPC   C3B39561  23.278  27.564   7.967
 2986POPC   C4B39562  23.424  27.915   7.734
 2987POPC   NC339563  18.208  24.227   9.320
 2987POPC   PO439564  17.965  23.693   9.754
 2987POPC   GL139565  18.081  23.745   9.312
 2987POPC   GL239566  18.430  23.715   9.217
 2987POPC   C1A39567  18.056  23.797   8.832
 2987POPC   D2A39568  18.307  23.829   8.500
 2987POPC   C3A39569  18.201  23.711   8.148
 2987POPC   C4A39570  18.072  23.862   7.787
 2987POPC   C1B39571  18.659  23.903   8.862
 2987POPC   C2B39572  18.832  23.872   8.454
 2987POPC   C3B39573  18.671  23.942   8.082
 2987POPC   C4B39574  18.572  23.745   7.707
 2988POPC   NC339575  22.888  10.257   9.544
 2988POPC   PO439576  22.436  10.762   9.514
 2988POPC   GL139577  22.787  10.586   9.162
 2988POPC   GL239578  22.988  10.240   9.075
 2988POPC   C1A39579  23.047  10.613   8.760
 2988POPC   D2A39580  22.804  10.578   8.402
 2988POPC   C3A39581  22.910  10.642   7.983
 2988POPC   C4A39582  22.695  10.373   7.699
 2988POPC   C1B39583  23.175  10.043   8.720
 2988POPC   C2B39584  23.265  10.214   8.319
 2988POPC   C3B39585  23.110  10.182   7.907
 2988POPC   C4B39586  23.150  10.223   7.442
 2989POPC   NC339587  40.574  36.732   9.523
 2989POPC   PO439588  41.166  37.097   9.568
 2989POPC   GL139589  40.923  37.162   9.155
 2989POPC   GL239590  40.576  37.290   9.227
 2989POPC   C1A39591  40.963  37.007   8.703
 2989POPC   D2A39592  40.768  36.704   8.414
 2989POPC   C3A39593  40.952  36.726   8.022
 2989POPC   C4A39594  41.127  37.003   7.739
 2989POPC   C1B39595  40.484  37.100   8.805
 2989POPC   C2B39596  40.349  36.998   8.373
 2989POPC   C3B39597  40.531  37.032   7.911
 2989POPC   C4B39598  40.511  37.061   7.440
 2990POPC   NC339599  29.345  40.565   9.788
 2990POPC   PO439600  28.847  40.953   9.554
 2990POPC   GL139601  29.140  40.821   9.250
 2990POPC   GL239602  29.186  40.513   9.284
 2990POPC   C1A39603  29.222  40.900   8.821
 2990POPC   D2A39604  29.306  41.037   8.446
 2990POPC   C3A39605  29.505  40.838   8.143
 2990POPC   C4A39606  29.408  41.060   7.791
 2990POPC   C1B39607  28.843  40.574   8.880
 2990POPC   C2B39608  28.805  40.804   8.486
 2990POPC   C3B39609  28.981  40.843   8.049
 2990POPC   C4B39610  28.860  40.580   7.677
 2991POPC   NC339611  32.809   0.038   9.884
 2991POPC   PO439612  33.038  44.446   9.786
 2991POPC   GL139613  32.927  44.685   9.328
 2991POPC   GL239614  33.116  44.933   9.089
 2991POPC   C1A39615  32.856  44.575   8.858
 2991POPC   D2A39616  32.810  44.671   8.429
 2991POPC   C3A39617  32.824  44.513   8.021
 2991POPC   C4A39618  33.140  44.654   7.731
 2991POPC   C1B39619  33.203  44.898   8.649
 2991POPC   C2B39620  33.252  44.821   8.206
 2991POPC   C3B39621  33.394   0.078   7.833
 2991POPC   C4B39622  33.393   0.227   7.372
 2992POPC   NC339623  29.633   7.860   9.410
 2992POPC   PO439624  30.141   8.388   9.437
 2992POPC   GL139625  29.985   8.136   9.120
 2992POPC   GL239626  29.780   8.375   8.991
 2992POPC   C1A39627  30.001   7.902   8.716
 2992POPC   D2A39628  29.770   7.923   8.322
 2992POPC   C3A39629  29.874   8.044   7.892
 2992POPC   C4A39630  29.994   8.477   7.826
 2992POPC   C1B39631  29.495   8.153   8.723
 2992POPC   C2B39632  29.318   8.237   8.327
 2992POPC   C3B39633  29.515   8.403   7.979
 2992POPC   C4B39634  29.616   8.323   7.526
 2993POPC   NC339635  17.958  23.227   9.763
 2993POPC   PO439636  18.405  22.834   9.494
 2993POPC   GL139637  18.311  22.992   9.139
 2993POPC   GL239638  18.149  23.260   9.244
 2993POPC   C1A39639  18.151  22.893   8.723
 2993POPC   D2A39640  18.293  23.090   8.339
 2993POPC   C3A39641  18.165  22.903   7.964
 2993POPC   C4A39642  17.927  22.532   7.933
 2993POPC   C1B39643  18.313  23.375   8.820
 2993POPC   C2B39644  18.630  23.425   8.529
 2993POPC   C3B39645  18.610  23.404   8.086
 2993POPC   C4B39646  18.229  23.378   7.777
 2994POPC   NC339647   0.673  37.090   9.400
 2994POPC   PO439648   0.426  36.591   9.724
 2994POPC   GL139649   0.274  36.691   9.293
 2994POPC   GL239650   0.152  37.014   9.212
 2994POPC   C1A39651   0.472  36.761   8.880
 2994POPC   D2A39652   0.647  37.077   8.571
 2994POPC   C3A39653   0.715  36.976   8.128
 2994POPC   C4A39654   0.477  36.876   7.767
 2994POPC   C1B39655   0.237  37.239   8.855
 2994POPC   C2B39656   0.166  37.361   8.451
 2994POPC   C3B39657   0.165  37.206   8.019
 2994POPC   C4B39658   0.160  37.443   7.642
 2995POPC   NC339659   5.278   1.761   9.605
 2995POPC   PO439660   4.992   2.349   9.573
 2995POPC   GL139661   5.248   2.146   9.227
 2995POPC   GL239662   5.081   1.807   9.133
 2995POPC   C1A39663   5.279   2.086   8.774
 2995POPC   D2A39664   5.329   1.754   8.455
 2995POPC   C3A39665   5.326   1.983   8.085
 2995POPC   C4A39666   5.382   1.992   7.668
 2995POPC   C1B39667   4.862   1.748   8.716
 2995POPC   C2B39668   4.827   1.822   8.251
 2995POPC   C3B39669   4.847   2.011   7.838
 2995POPC   C4B39670   4.973   2.180   7.441
 2996POPC   NC339671  44.565  11.815   9.644
 2996POPC   PO439672  44.702  12.420   9.572
 2996POPC   GL139673  44.744  12.161   9.202
 2996POPC   GL239674  44.460  11.936   9.166
 2996POPC   C1A39675  44.649  12.200   8.749
 2996POPC   D2A39676  44.688  12.413   8.329
 2996POPC   C3A39677  44.756  12.068   8.048
 2996POPC   C4A39678  44.474  12.055   7.764
 2996POPC   C1B39679  44.379  11.696   8.814
 2996POPC   C2B39680  44.539  11.805   8.446
 2996POPC   C3B39681  44.378  11.702   8.108
 2996POPC   C4B39682  44.249  11.593   7.724
 2997POPC   NC339683  39.207  44.965   9.661
 2997POPC   PO439684  39.081  44.395   9.531
 2997POPC   GL139685  39.269  44.658   9.233
 2997POPC   GL239686  38.948  44.818   9.224
 2997POPC   C1A39687  39.506  44.653   8.840
 2997POPC   D2A39688  39.762  44.729   8.451
 2997POPC   C3A39689  39.470  44.724   8.109
 2997POPC   C4A39690  39.187  44.812   7.777
 2997POPC   C1B39691  38.941  44.563   8.835
 2997POPC   C2B39692  38.925  44.723   8.422
 2997POPC   C3B39693  38.792  44.948   8.077
 2997POPC   C4B39694  38.692  44.787   7.710
 2998POPC   NC339695  18.324  42.281   9.496
 2998POPC   PO439696  18.297  42.844   9.295
 2998POPC   GL139697  18.360  42.562   9.054
 2998POPC   GL239698  18.614  42.373   9.064
 2998POPC   C1A39699  18.120  42.324   8.807
 2998POPC   D2A39700  18.002  41.974   8.562
 2998POPC   C3A39701  18.020  41.980   8.099
 2998POPC   C4A39702  17.963  42.320   7.752
 2998POPC   C1B39703  18.589  42.405   8.621
 2998POPC   C2B39704  18.337  42.298   8.330
 2998POPC   C3B39705  18.438  42.293   7.929
 2998POPC   C4B39706  18.484  42.401   7.515
 2999POPC   NC339707  42.048   0.847   9.434
 2999POPC   PO439708  42.032   0.147   9.480
 2999POPC   GL139709  42.248   0.342   9.144
 2999POPC   GL239710  42.392   0.630   9.118
 2999POPC   C1A39711  42.132   0.486   8.720
 2999POPC   D2A39712  41.923   0.566   8.357
 2999POPC   C3A39713  42.100   0.756   8.066
 2999POPC   C4A39714  42.204   0.666   7.664
 2999POPC   C1B39715  42.635   0.507   8.769
 2999POPC   C2B39716  42.535   0.334   8.366
 2999POPC   C3B39717  42.566   0.512   7.959
 2999POPC   C4B39718  42.701   0.737   7.586
 3000POPC   NC339719  31.861  16.402   9.587
 3000POPC   PO439720  32.412  16.909   9.490
 3000POPC   GL139721  32.198  16.595   9.207
 3000POPC   GL239722  32.386  16.299   9.068
 3000POPC   C1A39723  32.103  16.718   8.778
 3000POPC   D2A39724  32.315  16.843   8.424
 3000POPC   C3A39725  32.145  17.004   8.066
 3000POPC   C4A39726  31.969  16.793   7.754
 3000POPC   C1B39727  32.559  16.449   8.681
 3000POPC   C2B39728  32.822  16.719   8.411
 3000POPC   C3B39729  32.620  16.767   8.014
 3000POPC   C4B39730  32.246  16.474   8.032
 3001POPC   NC339731   7.793   5.973   9.393
 3001POPC   PO439732   7.110   5.775   9.523
 3001POPC   GL139733   7.187   5.880   9.119
 3001POPC   GL239734   7.463   5.677   9.134
 3001POPC   C1A39735   7.098   6.034   8.706
 3001POPC   D2A39736   7.253   6.236   8.341
 3001POPC   C3A39737   7.108   6.201   7.923
 3001POPC   C4A39738   7.400   6.236   7.594
 3001POPC   C1B39739   7.606   5.877   8.757
 3001POPC   C2B39740   7.503   5.755   8.354
 3001POPC   C3B39741   7.545   5.519   7.976
 3001POPC   C4B39742   7.324   5.750   7.686
 3002POPC   NC339743   5.839   4.214   9.521
 3002POPC   PO439744   6.378   4.747   9.445
 3002POPC   GL139745   6.055   4.587   9.096
 3002POPC   GL239746   5.979   4.203   9.041
 3002POPC   C1A39747   6.244   4.409   8.677
 3002POPC   D2A39748   6.088   4.209   8.340
 3002POPC   C3A39749   6.137   4.370   7.959
 3002POPC   C4A39750   6.027   4.212   7.580
 3002POPC   C1B39751   5.747   4.379   8.680
 3002POPC   C2B39752   5.719   4.535   8.286
 3002POPC   C3B39753   5.635   4.457   7.880
 3002POPC   C4B39754   5.488   4.589   7.510
 3003POPC   NC339755  23.845  24.075   9.394
 3003POPC   PO439756  24.012  24.719   9.515
 3003POPC   GL139757  23.641  24.590   9.233
 3003POPC   GL239758  23.481  24.251   9.108
 3003POPC   C1A39759  23.564  24.612   8.782
 3003POPC   D2A39760  23.840  24.685   8.429
 3003POPC   C3A39761  23.593  24.563   8.098
 3003POPC   C4A39762  23.734  24.564   7.721
 3003POPC   C1B39763  23.800  24.170   8.778
 3003POPC   C2B39764  23.801  24.177   8.369
 3003POPC   C3B39765  24.033  24.313   8.064
 3003POPC   C4B39766  24.113  24.184   7.664
 3004POPC   NC339767  42.849  19.037   9.598
 3004POPC   PO439768  43.447  19.250   9.307
 3004POPC   GL139769  43.059  19.229   9.145
 3004POPC   GL239770  42.983  18.911   9.120
 3004POPC   C1A39771  43.158  19.134   8.723
 3004POPC   D2A39772  43.455  19.298   8.454
 3004POPC   C3A39773  43.407  19.080   8.094
 3004POPC   C4A39774  43.405  19.128   7.670
 3004POPC   C1B39775  42.814  18.706   8.753
 3004POPC   C2B39776  43.001  18.793   8.386
 3004POPC   C3B39777  42.820  18.871   8.031
 3004POPC   C4B39778  42.912  19.010   7.675
 3005POPC   NC339779  38.136  24.956   9.418
 3005POPC   PO439780  38.540  25.518   9.470
 3005POPC   GL139781  38.526  25.225   9.183
 3005POPC   GL239782  38.222  25.328   9.057
 3005POPC   C1A39783  38.612  25.039   8.804
 3005POPC   D2A39784  38.543  25.334   8.501
 3005POPC   C3A39785  38.628  25.144   8.115
 3005POPC   C4A39786  38.852  25.382   7.844
 3005POPC   C1B39787  38.091  25.053   8.732
 3005POPC   C2B39788  38.137  25.134   8.299
 3005POPC   C3B39789  38.254  25.530   8.103
 3005POPC   C4B39790  38.480  25.769   7.834
 3006POPC   NC339791   5.059  30.521   9.558
 3006POPC   PO439792   5.127  31.102   9.334
 3006POPC   GL139793   5.201  30.901   9.009
 3006POPC   GL239794   5.280  30.564   9.084
 3006POPC   C1A39795   4.924  30.739   8.747
 3006POPC   D2A39796   4.999  30.477   8.444
 3006POPC   C3A39797   4.851  30.695   8.085
 3006POPC   C4A39798   4.903  30.949   7.721
 3006POPC   C1B39799   5.476  30.438   8.678
 3006POPC   C2B39800   5.464  30.557   8.222
 3006POPC   C3B39801   5.338  30.525   7.775
 3006POPC   C4B39802   5.432  30.280   7.387
 3007POPC   NC339803   0.046  38.651   9.269
 3007POPC   PO439804  44.523  38.571   9.679
 3007POPC   GL139805  44.540  38.555   9.218
 3007POPC   GL239806  44.356  38.817   9.109
 3007POPC   C1A39807  44.703  38.279   8.856
 3007POPC   D2A39808  44.856  38.377   8.434
 3007POPC   C3A39809  44.530  38.563   8.171
 3007POPC   C4A39810  44.476  38.339   7.821
 3007POPC   C1B39811  44.476  38.708   8.705
 3007POPC   C2B39812  44.790  38.891   8.460
 3007POPC   C3B39813   0.012  38.819   8.088
 3007POPC   C4B39814  44.800  38.722   7.702
 3008POPC   NC339815  20.575  40.006   9.621
 3008POPC   PO439816  20.206  40.534   9.442
 3008POPC   GL139817  20.423  40.186   9.170
 3008POPC   GL239818  20.754  39.928   9.166
 3008POPC   C1A39819  20.613  40.164   8.756
 3008POPC   D2A39820  20.839  40.229   8.425
 3008POPC   C3A39821  20.662  39.979   8.161
 3008POPC   C4A39822  20.380  40.115   7.864
 3008POPC   C1B39823  21.091  39.958   8.809
 3008POPC   C2B39824  21.297  40.061   8.357
 3008POPC   C3B39825  21.133  39.943   7.948
 3008POPC   C4B39826  20.765  39.715   7.752
 3009POPC   NC339827  20.215  41.029   9.479
 3009POPC   PO439828  19.567  40.722   9.441
 3009POPC   GL139829  19.878  40.797   9.145
 3009POPC   GL239830  19.731  41.127   9.153
 3009POPC   C1A39831  20.017  40.590   8.751
 3009POPC   D2A39832  19.827  40.479   8.350
 3009POPC   C3A39833  20.016  40.496   7.957
 3009POPC   C4A39834  19.948  40.874   7.771
 3009POPC   C1B39835  19.721  41.018   8.716
 3009POPC   C2B39836  19.502  40.876   8.374
 3009POPC   C3B39837  19.471  40.848   7.938
 3009POPC   C4B39838  19.228  40.573   7.693
 3010POPC   NC339839   8.279  40.467   9.463
 3010POPC   PO439840   8.195  39.738   9.515
 3010POPC   GL139841   8.204  40.046   9.196
 3010POPC   GL239842   8.111  39.812   8.954
 3010POPC   C1A39843   8.302  40.276   8.812
 3010POPC   D2A39844   8.222  40.106   8.403
 3010POPC   C3A39845   8.516  40.024   8.098
 3010POPC   C4A39846   8.263  40.085   7.735
 3010POPC   C1B39847   7.864  39.507   8.728
 3010POPC   C2B39848   7.640  39.594   8.353
 3010POPC   C3B39849   7.868  39.821   8.061
 3010POPC   C4B39850   8.029  39.655   7.679
 3011POPC   NC339851  38.942  24.440   9.480
 3011POPC   PO439852  39.360  24.972   9.637
 3011POPC   GL139853  39.385  24.731   9.249
 3011POPC   GL239854  39.345  24.362   9.171
 3011POPC   C1A39855  39.532  24.689   8.833
 3011POPC   D2A39856  39.326  24.550   8.442
 3011POPC   C3A39857  39.432  24.608   8.010
 3011POPC   C4A39858  39.112  24.609   7.760
 3011POPC   C1B39859  39.420  24.153   8.758
 3011POPC   C2B39860  39.521  24.074   8.325
 3011POPC   C3B39861  39.220  24.139   8.022
 3011POPC   C4B39862  39.049  24.085   7.646
 3012POPC   NC339863   9.853  41.054   9.576
 3012POPC   PO439864   9.507  40.539   9.718
 3012POPC   GL139865   9.589  40.728   9.264
 3012POPC   GL239866   9.919  40.818   9.134
 3012POPC   C1A39867   9.576  40.653   8.801
 3012POPC   D2A39868   9.861  40.666   8.466
 3012POPC   C3A39869   9.662  40.805   8.111
 3012POPC   C4A39870   9.536  40.543   7.778
 3012POPC   C1B39871  10.028  41.031   8.782
 3012POPC   C2B39872   9.871  41.208   8.416
 3012POPC   C3B39873   9.963  41.339   8.029
 3012POPC   C4B39874   9.765  41.124   7.724
 3013POPC   NC339875  34.156  23.625   9.437
 3013POPC   PO439876  33.778  24.169   9.544
 3013POPC   GL139877  33.671  23.945   9.146
 3013POPC   GL239878  33.559  23.586   9.137
 3013POPC   C1A39879  33.921  23.786   8.815
 3013POPC   D2A39880  34.080  23.614   8.456
 3013POPC   C3A39881  33.979  23.813   8.090
 3013POPC   C4A39882  33.958  23.543   7.754
 3013POPC   C1B39883  33.392  23.627   8.763
 3013POPC   C2B39884  33.558  23.711   8.383
 3013POPC   C3B39885  33.498  23.660   7.968
 3013POPC   C4B39886  33.457  24.073   7.849
 3014POPC   NC339887  26.362  10.068   9.367
 3014POPC   PO439888  26.917  10.511   9.554
 3014POPC   GL139889  26.814  10.707   9.181
 3014POPC   GL239890  26.873  10.364   9.023
 3014POPC   C1A39891  26.935  10.791   8.752
 3014POPC   D2A39892  26.863  10.455   8.468
 3014POPC   C3A39893  26.909  10.500   8.004
 3014POPC   C4A39894  26.826  10.880   7.745
 3014POPC   C1B39895  26.493  10.522   8.837
 3014POPC   C2B39896  26.398  10.677   8.430
 3014POPC   C3B39897  26.409  10.663   7.988
 3014POPC   C4B39898  26.549  10.467   7.612
 3015POPC   NC339899  19.912   8.117   9.600
 3015POPC   PO439900  19.755   7.492   9.498
 3015POPC   GL139901  19.641   7.510   9.097
 3015POPC   GL239902  20.007   7.518   9.041
 3015POPC   C1A39903  19.683   7.304   8.709
 3015POPC   D2A39904  19.727   7.192   8.315
 3015POPC   C3A39905  19.676   7.474   7.986
 3015POPC   C4A39906  19.707   7.334   7.609
 3015POPC   C1B39907  20.217   7.460   8.674
 3015POPC   C2B39908  20.107   7.521   8.273
 3015POPC   C3B39909  20.174   7.336   7.905
 3015POPC   C4B39910  20.095   7.690   7.685
 3016POPC   NC339911   8.390  30.511   9.504
 3016POPC   PO439912   7.800  30.782   9.504
 3016POPC   GL139913   8.075  30.741   9.186
 3016POPC   GL239914   8.388  30.917   9.132
 3016POPC   C1A39915   8.081  30.589   8.810
 3016POPC   D2A39916   8.180  30.815   8.489
 3016POPC   C3A39917   8.041  30.630   8.145
 3016POPC   C4A39918   8.115  30.734   7.714
 3016POPC   C1B39919   8.580  30.612   8.818
 3016POPC   C2B39920   8.462  30.391   8.423
 3016POPC   C3B39921   8.515  30.487   7.984
 3016POPC   C4B39922   8.364  30.320   7.569
 3017POPC   NC339923   0.966  30.882   9.474
 3017POPC   PO439924   1.436  30.476   9.579
 3017POPC   GL139925   1.290  30.491   9.145
 3017POPC   GL239926   1.143  30.827   9.023
 3017POPC   C1A39927   1.440  30.616   8.703
 3017POPC   D2A39928   1.208  30.902   8.411
 3017POPC   C3A39929   1.466  30.810   8.065
 3017POPC   C4A39930   1.345  30.461   7.825
 3017POPC   C1B39931   0.861  31.063   8.786
 3017POPC   C2B39932   0.618  31.047   8.466
 3017POPC   C3B39933   0.751  31.016   8.074
 3017POPC   C4B39934   1.037  30.893   7.834
 3018POPC   NC339935  43.500  34.418   9.441
 3018POPC   PO439936  42.815  34.454   9.394
 3018POPC   GL139937  43.027  34.669   9.066
 3018POPC   GL239938  43.301  34.889   9.145
 3018POPC   C1A39939  43.129  34.645   8.623
 3018POPC   D2A39940  43.071  34.663   8.195
 3018POPC   C3A39941  42.928  34.308   8.020
 3018POPC   C4A39942  43.099  34.470   7.666
 3018POPC   C1B39943  43.490  34.962   8.745
 3018POPC   C2B39944  43.555  34.793   8.295
 3018POPC   C3B39945  43.537  34.741   7.833
 3018POPC   C4B39946  43.410  34.730   7.369
 3019POPC   NC339947  44.120  43.363   9.294
 3019POPC   PO439948  43.630  42.904   9.504
 3019POPC   GL139949  43.742  43.004   9.111
 3019POPC   GL239950  43.613  43.328   9.120
 3019POPC   C1A39951  43.950  42.913   8.707
 3019POPC   D2A39952  43.792  43.024   8.299
 3019POPC   C3A39953  43.902  42.851   7.928
 3019POPC   C4A39954  43.510  42.832   7.781
 3019POPC   C1B39955  43.729  43.356   8.705
 3019POPC   C2B39956  44.059  43.432   8.451
 3019POPC   C3B39957  44.039  43.410   8.004
 3019POPC   C4B39958  43.642  43.312   7.824
 3020POPC   NC339959  13.246   4.408   9.550
 3020POPC   PO439960  13.854   4.669   9.427
 3020POPC   GL139961  13.544   4.537   9.158
 3020POPC   GL239962  13.775   4.326   9.008
 3020POPC   C1A39963  13.501   4.689   8.757
 3020POPC   D2A39964  13.746   4.486   8.463
 3020POPC   C3A39965  13.524   4.340   8.115
 3020POPC   C4A39966  13.593   4.562   7.780
 3020POPC   C1B39967  13.502   4.112   8.744
 3020POPC   C2B39968  13.726   3.954   8.409
 3020POPC   C3B39969  13.969   4.099   8.102
 3020POPC   C4B39970  13.819   4.114   7.718
 3021POPC   NC339971  37.285  35.266   9.405
 3021POPC   PO439972  37.976  35.410   9.480
 3021POPC   GL139973  37.983  35.363   9.059
 3021POPC   GL239974  37.675  35.128   9.083
 3021POPC   C1A39975  37.938  35.245   8.665
 3021POPC   D2A39976  37.773  35.446   8.354
 3021POPC   C3A39977  37.818  35.158   8.092
 3021POPC   C4A39978  37.863  35.380   7.770
 3021POPC   C1B39979  37.429  35.370   8.741
 3021POPC   C2B39980  37.262  35.540   8.325
 3021POPC   C3B39981  37.372  35.374   7.889
 3021POPC   C4B39982  37.116  35.277   7.506
 3022POPC   NC339983   4.145  36.236   9.661
 3022POPC   PO439984   3.483  36.026   9.567
 3022POPC   GL139985   3.429  36.094   9.136
 3022POPC   GL239986   3.551  35.767   9.101
 3022POPC   C1A39987   3.664  36.136   8.743
 3022POPC   D2A39988   3.674  36.053   8.306
 3022POPC   C3A39989   3.564  36.235   7.938
 3022POPC   C4A39990   3.870  36.433   7.672
 3022POPC   C1B39991   3.316  35.699   8.757
 3022POPC   C2B39992   3.220  35.855   8.369
 3022POPC   C3B39993   3.413  35.735   7.996
 3022POPC   C4B39994   3.405  35.590   7.590
 3023POPC   NC339995  14.508  14.842   9.795
 3023POPC   PO439996  14.254  14.302   9.539
 3023POPC   GL139997  14.323  14.285   9.136
 3023POPC   GL239998  14.496  14.017   9.054
 3023POPC   C1A39999  14.437  14.457   8.743
 3023POPC   D2A40000  14.217  14.549   8.380
 3023POPC   C3A40001  14.377  14.438   7.964
 3023POPC   C4A40002  14.309  14.561   7.530
 3023POPC   C1B40003  14.773  14.079   8.721
 3023POPC   C2B40004  14.756  14.305   8.322
 3023POPC   C3B40005  14.867  14.536   7.932
 3023POPC   C4B40006  14.798  14.427   7.480
 3024POPC   NC340007  32.541  11.192   9.542
 3024POPC   PO440008  33.162  11.278   9.486
 3024POPC   GL140009  33.173  11.290   9.064
 3024POPC   GL240010  32.860  11.100   9.121
 3024POPC   C1A40011  33.242  11.634   8.732
 3024POPC   D2A40012  33.228  11.830   8.300
 3024POPC   C3A40013  33.234  11.487   7.981
 3024POPC   C4A40014  33.320  11.074   7.794
 3024POPC   C1B40015  32.727  11.376   8.802
 3024POPC   C2B40016  32.893  11.429   8.391
 3024POPC   C3B40017  32.818  11.194   8.023
 3024POPC   C4B40018  32.896  10.819   7.762
 3025POPC   NC340019  32.367   2.485   9.452
 3025POPC   PO440020  31.903   2.931   9.719
 3025POPC   GL140021  32.015   2.834   9.251
 3025POPC   GL240022  31.917   2.503   9.160
 3025POPC   C1A40023  32.229   2.783   8.809
 3025POPC   D2A40024  32.322   3.100   8.459
 3025POPC   C3A40025  32.602   3.024   8.110
 3025POPC   C4A40026  32.457   2.732   7.841
 3025POPC   C1B40027  32.105   2.283   8.844
 3025POPC   C2B40028  32.329   2.291   8.499
 3025POPC   C3B40029  32.158   2.462   8.135
 3025POPC   C4B40030  32.093   2.320   7.718
 3026POPC   NC340031   8.622   6.531   9.445
 3026POPC   PO440032   9.174   6.715   9.446
 3026POPC   GL140033   9.166   6.851   9.052
 3026POPC   GL240034   8.809   6.825   9.050
 3026POPC   C1A40035   9.147   6.813   8.624
 3026POPC   D2A40036   9.221   6.436   8.398
 3026POPC   C3A40037   9.316   6.550   7.982
 3026POPC   C4A40038   9.070   6.502   7.629
 3026POPC   C1B40039   8.785   6.475   8.774
 3026POPC   C2B40040   8.692   6.288   8.378
 3026POPC   C3B40041   8.669   6.438   7.950
 3026POPC   C4B40042   8.595   6.618   7.503
 3027POPC   NC340043  25.542  37.361   9.465
 3027POPC   PO440044  25.584  38.075   9.464
 3027POPC   GL140045  25.588  37.891   9.081
 3027POPC   GL240046  25.316  37.625   9.105
 3027POPC   C1A40047  25.549  37.753   8.668
 3027POPC   D2A40048  25.343  37.606   8.302
 3027POPC   C3A40049  25.476  37.681   7.876
 3027POPC   C4A40050  25.274  37.558   7.467
 3027POPC   C1B40051  25.052  37.689   8.756
 3027POPC   C2B40052  25.089  38.048   8.474
 3027POPC   C3B40053  25.344  38.101   8.134
 3027POPC   C4B40054  25.293  38.115   7.669
 3028POPC   NC340055  31.893  31.888   9.532
 3028POPC   PO440056  32.172  31.108   9.469
 3028POPC   GL140057  32.253  31.538   9.330
 3028POPC   GL240058  31.922  31.493   9.205
 3028POPC   C1A40059  32.289  31.800   8.947
 3028POPC   D2A40060  32.049  31.754   8.576
 3028POPC   C3A40061  32.134  31.807   8.140
 3028POPC   C4A40062  32.051  31.686   7.696
 3028POPC   C1B40063  32.071  31.286   8.829
 3028POPC   C2B40064  31.912  31.278   8.422
 3028POPC   C3B40065  32.050  31.313   8.032
 3028POPC   C4B40066  31.838  31.198   7.675
 3029POPC   NC340067   0.777  38.651   9.390
 3029POPC   PO440068   0.193  38.233   9.441
 3029POPC   GL140069   0.468  38.330   9.111
 3029POPC   GL240070   0.844  38.246   9.086
 3029POPC   C1A40071   0.502  38.168   8.709
 3029POPC   D2A40072   0.761  38.186   8.397
 3029POPC   C3A40073   0.468  38.168   8.125
 3029POPC   C4A40074   0.205  38.392   7.833
 3029POPC   C1B40075   0.758  38.605   8.764
 3029POPC   C2B40076   0.448  38.619   8.430
 3029POPC   C3B40077   0.621  38.631   8.042
 3029POPC   C4B40078   0.651  38.589   7.620
 3030POPC   NC340079  43.674   0.882   9.564
 3030POPC   PO440080  44.200   1.273   9.664
 3030POPC   GL140081  44.159   1.178   9.205
 3030POPC   GL240082  43.824   1.108   9.143
 3030POPC   C1A40083  44.018   1.385   8.782
 3030POPC   D2A40084  43.956   1.122   8.407
 3030POPC   C3A40085  43.974   1.274   7.976
 3030POPC   C4A40086  44.005   1.124   7.544
 3030POPC   C1B40087  43.549   1.149   8.793
 3030POPC   C2B40088  43.478   0.821   8.524
 3030POPC   C3B40089  43.481   0.843   8.105
 3030POPC   C4B40090  43.481   1.210   7.806
 3031POPC   NC340091  36.804   7.858   9.388
 3031POPC   PO440092  36.922   8.446   9.731
 3031POPC   GL140093  36.725   8.509   9.282
 3031POPC   GL240094  36.631   8.214   9.090
 3031POPC   C1A40095  36.882   8.522   8.806
 3031POPC   D2A40096  36.659   8.435   8.389
 3031POPC   C3A40097  36.926   8.556   8.037
 3031POPC   C4A40098  36.874   8.789   7.642
 3031POPC   C1B40099  36.772   8.018   8.684
 3031POPC   C2B40100  37.056   8.120   8.321
 3031POPC   C3B40101  36.954   8.078   7.874
 3031POPC   C4B40102  36.990   8.208   7.436
 3032POPC   NC340103  15.989   7.015   9.744
 3032POPC   PO440104  16.199   7.549   9.319
 3032POPC   GL140105  15.771   7.567   9.121
 3032POPC   GL240106  15.607   7.238   8.977
 3032POPC   C1A40107  15.922   7.521   8.695
 3032POPC   D2A40108  16.196   7.546   8.363
 3032POPC   C3A40109  15.952   7.490   8.013
 3032POPC   C4A40110  15.926   7.668   7.583
 3032POPC   C1B40111  15.677   7.086   8.571
 3032POPC   C2B40112  16.070   7.031   8.339
 3032POPC   C3B40113  16.139   7.009   7.898
 3032POPC   C4B40114  15.830   7.184   7.623
 3033POPC   NC340115  29.398  22.737   9.556
 3033POPC   PO440116  28.844  23.081   9.422
 3033POPC   GL140117  29.202  23.020   9.161
 3033POPC   GL240118  29.065  23.287   9.004
 3033POPC   C1A40119  29.264  22.857   8.749
 3033POPC   D2A40120  29.102  22.847   8.324
 3033POPC   C3A40121  29.292  22.886   7.928
 3033POPC   C4A40122  29.339  22.596   7.611
 3033POPC   C1B40123  28.795  23.076   8.711
 3033POPC   C2B40124  28.733  23.206   8.280
 3033POPC   C3B40125  28.803  23.146   7.843
 3033POPC   C4B40126  29.097  23.323   7.551
 3034POPC   NC340127  27.199   0.409   9.795
 3034POPC   PO440128  27.871   0.579   9.597
 3034POPC   GL140129  27.712   0.453   9.173
 3034POPC   GL240130  27.372   0.353   9.147
 3034POPC   C1A40131  27.714   0.248   8.749
 3034POPC   D2A40132  27.820   0.430   8.334
 3034POPC   C3A40133  27.729   0.230   7.934
 3034POPC   C4A40134  27.639   0.546   7.618
 3034POPC   C1B40135  27.238   0.454   8.747
 3034POPC   C2B40136  27.054   0.494   8.363
 3034POPC   C3B40137  27.238   0.433   7.969
 3034POPC   C4B40138  27.051   0.244   7.634
 3035POPC   NC340139   5.272  31.881   9.570
 3035POPC   PO440140   5.519  31.269   9.702
 3035POPC   GL140141   5.389  31.502   9.252
 3035POPC   GL240142   5.025  31.658   9.184
 3035POPC   C1A40143   5.262  31.384   8.789
 3035POPC   D2A40144   4.871  31.273   8.595
 3035POPC   C3A40145   4.893  31.244   8.155
 3035POPC   C4A40146   5.135  31.407   7.823
 3035POPC   C1B40147   5.093  31.858   8.752
 3035POPC   C2B40148   5.118  31.720   8.298
 3035POPC   C3B40149   5.153  31.904   7.872
 3035POPC   C4B40150   4.936  31.778   7.459
 3036POPC   NC340151  44.009  13.646   9.599
 3036POPC   PO440152  43.414  13.536   9.910
 3036POPC   GL140153  43.570  13.720   9.376
 3036POPC   GL240154  43.901  13.905   9.180
 3036POPC   C1A40155  43.601  13.615   8.897
 3036POPC   D2A40156  43.892  13.513   8.563
 3036POPC   C3A40157  43.796  13.528   8.105
 3036POPC   C4A40158  44.080  13.439   7.764
 3036POPC   C1B40159  43.885  14.021   8.732
 3036POPC   C2B40160  43.722  14.044   8.318
 3036POPC   C3B40161  43.810  13.975   7.889
 3036POPC   C4B40162  44.048  13.891   7.525
 3037POPC   NC340163  26.032  31.836   9.419
 3037POPC   PO440164  26.371  31.311   9.561
 3037POPC   GL140165  26.180  31.422   9.166
 3037POPC   GL240166  26.379  31.706   9.041
 3037POPC   C1A40167  25.956  31.542   8.760
 3037POPC   D2A40168  25.831  31.762   8.358
 3037POPC   C3A40169  25.996  31.574   7.978
 3037POPC   C4A40170  25.822  31.173   7.776
 3037POPC   C1B40171  26.447  31.348   8.735
 3037POPC   C2B40172  26.396  31.140   8.302
 3037POPC   C3B40173  26.339  31.206   7.854
 3037POPC   C4B40174  26.185  31.083   7.424
 3038POPC   NC340175  36.950   8.026   9.918
 3038POPC   PO440176  36.772   7.431   9.593
 3038POPC   GL140177  36.675   7.258   9.206
 3038POPC   GL240178  37.010   7.373   9.126
 3038POPC   C1A40179  36.675   7.307   8.762
 3038POPC   D2A40180  36.994   7.227   8.456
 3038POPC   C3A40181  36.813   7.300   8.074
 3038POPC   C4A40182  37.007   7.186   7.725
 3038POPC   C1B40183  37.123   7.610   8.755
 3038POPC   C2B40184  37.217   7.640   8.289
 3038POPC   C3B40185  37.189   7.634   7.835
 3038POPC   C4B40186  36.851   7.674   7.528
 3039POPC   NC340187   9.931  38.583   9.559
 3039POPC   PO440188   9.216  38.521   9.609
 3039POPC   GL140189   9.421  38.572   9.164
 3039POPC   GL240190   9.738  38.767   9.125
 3039POPC   C1A40191   9.599  38.532   8.714
 3039POPC   D2A40192   9.503  38.759   8.332
 3039POPC   C3A40193   9.619  38.598   7.937
 3039POPC   C4A40194   9.896  38.281   7.835
 3039POPC   C1B40195  10.141  38.789   8.847
 3039POPC   C2B40196  10.335  38.739   8.418
 3039POPC   C3B40197  10.161  38.764   7.978
 3039POPC   C4B40198  10.082  38.681   7.560
 3040POPC   NC340199  28.925   2.785   9.550
 3040POPC   PO440200  29.539   2.467   9.575
 3040POPC   GL140201  29.288   2.711   9.193
 3040POPC   GL240202  28.905   2.640   9.086
 3040POPC   C1A40203  29.256   2.896   8.755
 3040POPC   D2A40204  29.458   2.730   8.372
 3040POPC   C3A40205  29.441   2.928   7.955
 3040POPC   C4A40206  29.300   2.750   7.542
 3040POPC   C1B40207  28.783   2.669   8.674
 3040POPC   C2B40208  28.951   2.905   8.339
 3040POPC   C3B40209  28.944   2.879   7.916
 3040POPC   C4B40210  28.867   2.493   7.661
 3041POPC   NC340211  17.850   3.836   9.539
 3041POPC   PO440212  17.516   3.247   9.470
 3041POPC   GL140213  17.399   3.552   9.187
 3041POPC   GL240214  17.608   3.836   9.084
 3041POPC   C1A40215  17.344   3.398   8.803
 3041POPC   D2A40216  17.561   3.249   8.474
 3041POPC   C3A40217  17.414   3.455   8.136
 3041POPC   C4A40218  17.292   3.629   7.783
 3041POPC   C1B40219  17.557   3.818   8.639
 3041POPC   C2B40220  17.836   3.660   8.350
 3041POPC   C3B40221  17.744   3.822   7.960
 3041POPC   C4B40222  17.397   4.126   7.860
 3042POPC   NC340223  26.238  23.636   9.609
 3042POPC   PO440224  25.662  23.818   9.788
 3042POPC   GL140225  25.853  23.738   9.282
 3042POPC   GL240226  26.152  23.486   9.136
 3042POPC   C1A40227  25.901  23.771   8.809
 3042POPC   D2A40228  26.201  23.737   8.446
 3042POPC   C3A40229  26.013  23.848   8.046
 3042POPC   C4A40230  25.878  24.089   7.635
 3042POPC   C1B40231  26.381  23.354   8.738
 3042POPC   C2B40232  26.332  23.254   8.290
 3042POPC   C3B40233  26.416  23.509   7.947
 3042POPC   C4B40234  26.187  23.683   7.601
 3043POPC   NC340235  41.026  31.624   9.365
 3043POPC   PO440236  40.757  31.465   9.920
 3043POPC   GL140237  40.681  31.271   9.358
 3043POPC   GL240238  40.647  31.537   9.041
 3043POPC   C1A40239  40.829  31.138   8.854
 3043POPC   D2A40240  40.734  31.384   8.416
 3043POPC   C3A40241  40.541  31.310   7.982
 3043POPC   C4A40242  40.767  31.417   7.571
 3043POPC   C1B40243  40.974  31.690   8.742
 3043POPC   C2B40244  40.999  31.908   8.374
 3043POPC   C3B40245  40.931  31.727   7.948
 3043POPC   C4B40246  41.075  31.816   7.491
 3044POPC   NC340247  19.545  36.650   9.298
 3044POPC   PO440248  18.909  36.971   9.393
 3044POPC   GL140249  19.178  36.924   9.058
 3044POPC   GL240250  19.480  37.116   9.073
 3044POPC   C1A40251  19.158  36.641   8.709
 3044POPC   D2A40252  18.840  36.562   8.398
 3044POPC   C3A40253  18.834  36.744   8.008
 3044POPC   C4A40254  18.681  37.058   7.784
 3044POPC   C1B40255  19.528  37.000   8.668
 3044POPC   C2B40256  19.175  37.046   8.401
 3044POPC   C3B40257  19.268  37.010   8.016
 3044POPC   C4B40258  19.557  36.780   7.795
 3045POPC   NC340259  43.140   6.233   9.669
 3045POPC   PO440260  42.960   5.605   9.427
 3045POPC   GL140261  43.142   5.865   9.140
 3045POPC   GL240262  43.300   6.218   9.128
 3045POPC   C1A40263  42.945   5.961   8.738
 3045POPC   D2A40264  43.115   6.084   8.361
 3045POPC   C3A40265  42.867   5.935   8.051
 3045POPC   C4A40266  42.893   5.915   7.640
 3045POPC   C1B40267  43.450   5.979   8.759
 3045POPC   C2B40268  43.276   5.631   8.504
 3045POPC   C3B40269  43.329   5.692   8.082
 3045POPC   C4B40270  43.364   5.575   7.670
 3046POPC   NC340271  19.426  30.965   9.746
 3046POPC   PO440272  18.926  30.534   9.553
 3046POPC   GL140273  18.905  30.556   9.113
 3046POPC   GL240274  18.761  30.895   9.128
 3046POPC   C1A40275  19.219  30.410   8.776
 3046POPC   D2A40276  19.302  30.224   8.344
 3046POPC   C3A40277  19.376  30.529   8.031
 3046POPC   C4A40278  19.364  30.848   7.723
 3046POPC   C1B40279  18.998  30.946   8.766
 3046POPC   C2B40280  19.026  30.700   8.397
 3046POPC   C3B40281  18.953  30.835   8.017
 3046POPC   C4B40282  18.983  31.179   7.779
 3047POPC   NC340283  16.933   1.167   9.630
 3047POPC   PO440284  16.314   1.441   9.469
 3047POPC   GL140285  16.717   1.405   9.212
 3047POPC   GL240286  17.000   1.107   9.132
 3047POPC   C1A40287  16.653   1.295   8.811
 3047POPC   D2A40288  16.824   1.145   8.478
 3047POPC   C3A40289  16.672   1.434   8.175
 3047POPC   C4A40290  16.447   1.514   7.809
 3047POPC   C1B40291  17.135   1.440   8.821
 3047POPC   C2B40292  17.168   1.526   8.374
 3047POPC   C3B40293  17.106   1.228   8.056
 3047POPC   C4B40294  16.765   1.092   7.765
 3048POPC   NC340295  30.201   6.386   9.368
 3048POPC   PO440296  29.564   6.441   9.510
 3048POPC   GL140297  29.764   6.528   9.131
 3048POPC   GL240298  29.779   6.192   9.004
 3048POPC   C1A40299  29.874   6.735   8.731
 3048POPC   D2A40300  30.111   6.678   8.336
 3048POPC   C3A40301  29.947   6.601   7.907
 3048POPC   C4A40302  30.089   6.556   7.441
 3048POPC   C1B40303  29.473   6.411   8.723
 3048POPC   C2B40304  29.547   6.541   8.303
 3048POPC   C3B40305  29.506   6.224   7.994
 3048POPC   C4B40306  29.713   6.256   7.602
 3049POPC   NC340307  18.295  17.955   9.470
 3049POPC   PO440308  18.383  18.656   9.486
 3049POPC   GL140309  18.464  18.328   9.179
 3049POPC   GL240310  18.603  18.439   8.869
 3049POPC   C1A40311  18.261  18.068   8.838
 3049POPC   D2A40312  18.470  18.090   8.475
 3049POPC   C3A40313  18.245  18.148   8.131
 3049POPC   C4A40314  18.204  17.993   7.747
 3049POPC   C1B40315  18.249  18.531   8.571
 3049POPC   C2B40316  18.193  18.694   8.179
 3049POPC   C3B40317  18.273  18.532   7.806
 3049POPC   C4B40318  18.591  18.304   7.628
 3050POPC   NC340319  17.942   6.717   9.328
 3050POPC   PO440320  18.471   6.665   9.782
 3050POPC   GL140321  18.438   6.692   9.227
 3050POPC   GL240322  18.327   6.435   8.934
 3050POPC   C1A40323  18.375   6.918   8.807
 3050POPC   D2A40324  18.320   6.677   8.418
 3050POPC   C3A40325  18.064   6.893   8.114
 3050POPC   C4A40326  18.018   6.804   7.694
 3050POPC   C1B40327  18.749   6.592   8.706
 3050POPC   C2B40328  18.831   6.756   8.264
 3050POPC   C3B40329  18.506   6.690   7.925
 3050POPC   C4B40330  18.403   6.448   7.505
 3051POPC   NC340331   3.335  17.671   9.582
 3051POPC   PO440332   3.453  17.159   9.244
 3051POPC   GL140333   3.376  17.534   9.031
 3051POPC   GL240334   3.680  17.606   8.945
 3051POPC   C1A40335   3.380  17.517   8.554
 3051POPC   D2A40336   3.524  17.235   8.235
 3051POPC   C3A40337   3.300  17.324   7.878
 3051POPC   C4A40338   3.455  17.619   7.622
 3051POPC   C1B40339   3.791  17.237   8.718
 3051POPC   C2B40340   4.060  17.212   8.423
 3051POPC   C3B40341   3.981  17.559   8.196
 3051POPC   C4B40342   3.848  17.374   7.826
 3052POPC   NC340343  43.377  42.587   9.272
 3052POPC   PO440344  42.759  42.415   9.528
 3052POPC   GL140345  42.947  42.333   9.159
 3052POPC   GL240346  42.947  41.982   9.176
 3052POPC   C1A40347  43.015  42.529   8.741
 3052POPC   D2A40348  42.809  42.519   8.354
 3052POPC   C3A40349  43.075  42.561   7.985
 3052POPC   C4A40350  42.845  42.488   7.613
 3052POPC   C1B40351  43.180  42.039   8.780
 3052POPC   C2B40352  43.220  42.227   8.355
 3052POPC   C3B40353  43.127  42.063   7.918
 3052POPC   C4B40354  43.126  42.094   7.451
 3053POPC   NC340355  12.341  18.349   9.668
 3053POPC   PO440356  12.997  18.228   9.582
 3053POPC   GL140357  13.070  18.043   9.171
 3053POPC   GL240358  12.826  18.181   8.904
 3053POPC   C1A40359  13.185  17.902   8.743
 3053POPC   D2A40360  12.973  18.125   8.422
 3053POPC   C3A40361  13.107  18.102   8.017
 3053POPC   C4A40362  12.910  18.345   7.691
 3053POPC   C1B40363  12.461  18.371   8.683
 3053POPC   C2B40364  12.441  18.602   8.327
 3053POPC   C3B40365  12.413  18.415   7.946
 3053POPC   C4B40366  12.466  18.558   7.564
 3054POPC   NC340367  23.629   1.613   9.533
 3054POPC   PO440368  24.048   1.093   9.403
 3054POPC   GL140369  23.716   1.157   9.087
 3054POPC   GL240370  23.453   1.448   9.092
 3054POPC   C1A40371  23.818   0.999   8.677
 3054POPC   D2A40372  23.819   1.096   8.239
 3054POPC   C3A40373  23.704   0.754   7.951
 3054POPC   C4A40374  23.609   0.845   7.501
 3054POPC   C1B40375  23.386   1.305   8.672
 3054POPC   C2B40376  23.460   1.464   8.246
 3054POPC   C3B40377  23.468   1.218   7.864
 3054POPC   C4B40378  23.580   1.373   7.475
 3055POPC   NC340379  11.426  14.067   9.411
 3055POPC   PO440380  10.957  14.602   9.578
 3055POPC   GL140381  11.149  14.740   9.173
 3055POPC   GL240382  11.218  14.396   9.114
 3055POPC   C1A40383  11.336  14.649   8.723
 3055POPC   D2A40384  11.645  14.586   8.408
 3055POPC   C3A40385  11.387  14.609   8.064
 3055POPC   C4A40386  11.300  14.744   7.671
 3055POPC   C1B40387  11.540  14.174   8.808
 3055POPC   C2B40388  11.721  14.074   8.442
 3055POPC   C3B40389  11.601  14.165   8.085
 3055POPC   C4B40390  11.358  14.212   7.706
 3056POPC   NC340391  22.867  27.188   9.535
 3056POPC   PO440392  22.787  26.603   9.814
 3056POPC   GL140393  22.954  26.599   9.340
 3056POPC   GL240394  23.091  26.939   9.138
 3056POPC   C1A40395  22.953  26.492   8.872
 3056POPC   D2A40396  23.168  26.637   8.466
 3056POPC   C3A40397  22.961  26.614   8.055
 3056POPC   C4A40398  22.896  26.821   7.653
 3056POPC   C1B40399  23.305  27.206   8.788
 3056POPC   C2B40400  23.423  27.179   8.336
 3056POPC   C3B40401  23.284  27.040   7.905
 3056POPC   C4B40402  23.326  26.935   7.419
 3057POPC   NC340403  31.595  32.841   9.588
 3057POPC   PO440404  31.034  32.758   9.346
 3057POPC   GL140405  31.312  32.954   9.119
 3057POPC   GL240406  31.651  33.075   9.149
 3057POPC   C1A40407  31.188  32.911   8.710
 3057POPC   D2A40408  31.157  33.206   8.403
 3057POPC   C3A40409  31.289  33.040   8.068
 3057POPC   C4A40410  31.416  33.254   7.713
 3057POPC   C1B40411  31.526  33.270   8.783
 3057POPC   C2B40412  31.637  33.024   8.464
 3057POPC   C3B40413  31.791  33.097   8.072
 3057POPC   C4B40414  31.843  32.962   7.678
 3058POPC   NC340415  38.044  39.551   9.408
 3058POPC   PO440416  37.433  39.395   9.688
 3058POPC   GL140417  37.544  39.330   9.251
 3058POPC   GL240418  37.822  39.090   9.202
 3058POPC   C1A40419  37.592  39.360   8.791
 3058POPC   D2A40420  37.430  39.177   8.420
 3058POPC   C3A40421  37.442  39.318   8.024
 3058POPC   C4A40422  37.461  38.928   7.758
 3058POPC   C1B40423  37.995  39.031   8.775
 3058POPC   C2B40424  37.959  39.250   8.360
 3058POPC   C3B40425  37.904  39.125   7.912
 3058POPC   C4B40426  37.914  39.093   7.434
 3059POPC   NC340427  37.665   8.328   9.582
 3059POPC   PO440428  37.240   7.834   9.598
 3059POPC   GL140429  37.594   7.864   9.255
 3059POPC   GL240430  37.824   8.170   9.117
 3059POPC   C1A40431  37.512   7.926   8.812
 3059POPC   D2A40432  37.598   8.121   8.446
 3059POPC   C3A40433  37.557   7.949   8.065
 3059POPC   C4A40434  37.433   8.069   7.687
 3059POPC   C1B40435  37.923   8.422   8.705
 3059POPC   C2B40436  37.847   8.495   8.199
 3059POPC   C3B40437  37.811   8.440   7.717
 3059POPC   C4B40438  38.095   8.500   7.318
 3060POPC   NC340439  38.726  13.760   9.534
 3060POPC   PO440440  38.692  13.135   9.389
 3060POPC   GL140441  38.484  13.522   9.127
 3060POPC   GL240442  38.610  13.907   9.080
 3060POPC   C1A40443  38.465  13.660   8.663
 3060POPC   D2A40444  38.347  13.730   8.218
 3060POPC   C3A40445  38.448  13.435   7.870
 3060POPC   C4A40446  38.318  13.278   7.439
 3060POPC   C1B40447  38.606  14.162   8.690
 3060POPC   C2B40448  38.390  14.257   8.294
 3060POPC   C3B40449  38.114  14.088   7.947
 3060POPC   C4B40450  38.301  13.874   7.628
 3061POPC   NC340451  40.261  43.094   9.560
 3061POPC   PO440452  39.688  42.891   9.745
 3061POPC   GL140453  39.821  43.027   9.271
 3061POPC   GL240454  40.115  42.878   9.132
 3061POPC   C1A40455  39.646  43.246   8.891
 3061POPC   D2A40456  39.817  43.306   8.477
 3061POPC   C3A40457  39.771  43.027   8.143
 3061POPC   C4A40458  39.734  43.166   7.712
 3061POPC   C1B40459  40.155  43.227   8.860
 3061POPC   C2B40460  40.322  43.181   8.453
 3061POPC   C3B40461  40.307  43.136   8.007
 3061POPC   C4B40462  40.374  43.508   7.770
 3062POPC   NC340463   9.266  36.193   9.474
 3062POPC   PO440464  10.004  36.147   9.503
 3062POPC   GL140465   9.817  35.969   9.177
 3062POPC   GL240466   9.608  36.213   9.115
 3062POPC   C1A40467   9.873  35.979   8.746
 3062POPC   D2A40468   9.933  35.804   8.357
 3062POPC   C3A40469   9.793  36.023   8.021
 3062POPC   C4A40470   9.714  36.003   7.583
 3062POPC   C1B40471   9.448  36.318   8.729
 3062POPC   C2B40472   9.426  36.199   8.327
 3062POPC   C3B40473   9.395  36.405   7.959
 3062POPC   C4B40474   9.179  36.291   7.588
 3063POPC   NC340475  23.673  12.163   9.586
 3063POPC   PO440476  24.124  11.648   9.385
 3063POPC   GL140477  23.805  11.892   9.175
 3063POPC   GL240478  23.792  12.279   9.113
 3063POPC   C1A40479  23.704  11.860   8.771
 3063POPC   D2A40480  23.947  11.678   8.449
 3063POPC   C3A40481  23.760  11.887   8.106
 3063POPC   C4A40482  23.404  11.920   7.816
 3063POPC   C1B40483  23.666  12.360   8.707
 3063POPC   C2B40484  23.770  12.476   8.298
 3063POPC   C3B40485  23.672  12.353   7.893
 3063POPC   C4B40486  23.925  12.093   7.663
 3064POPC   NC340487  39.359   2.682   9.983
 3064POPC   PO440488  38.914   2.630   9.429
 3064POPC   GL140489  39.057   2.487   9.029
 3064POPC   GL240490  39.437   2.511   9.017
 3064POPC   C1A40491  39.031   2.622   8.602
 3064POPC   D2A40492  39.031   2.420   8.204
 3064POPC   C3A40493  38.997   2.704   7.913
 3064POPC   C4A40494  39.024   3.137   7.789
 3064POPC   C1B40495  39.458   2.933   8.832
 3064POPC   C2B40496  39.371   3.095   8.400
 3064POPC   C3B40497  39.471   2.903   8.001
 3064POPC   C4B40498  39.375   2.821   7.561
 3065POPC   NC340499  10.267  29.637   9.826
 3065POPC   PO440500  10.540  29.072   9.540
 3065POPC   GL140501  10.618  29.106   9.126
 3065POPC   GL240502  10.375  28.928   9.072
 3065POPC   C1A40503  10.476  29.275   8.704
 3065POPC   D2A40504  10.111  29.477   8.477
 3065POPC   C3A40505  10.072  29.302   8.056
 3065POPC   C4A40506  10.394  29.157   7.761
 3065POPC   C1B40507  10.680  28.719   8.812
 3065POPC   C2B40508  10.846  28.900   8.464
 3065POPC   C3B40509  10.729  28.892   8.061
 3065POPC   C4B40510  10.795  28.872   7.622
 3066POPC   NC340511  28.962  42.135   9.413
 3066POPC   PO440512  29.274  42.734   9.359
 3066POPC   GL140513  29.182  42.444   9.036
 3066POPC   GL240514  29.412  42.184   9.114
 3066POPC   C1A40515  29.121  42.346   8.584
 3066POPC   D2A40516  28.787  42.244   8.286
 3066POPC   C3A40517  28.868  42.394   7.899
 3066POPC   C4A40518  29.225  42.629   7.823
 3066POPC   C1B40519  29.406  41.945   8.741
 3066POPC   C2B40520  29.552  42.059   8.334
 3066POPC   C3B40521  29.322  42.124   7.963
 3066POPC   C4B40522  29.238  41.962   7.555
 3067POPC   NC340523  40.591  25.890   9.506
 3067POPC   PO440524  41.128  26.357   9.636
 3067POPC   GL140525  41.066  26.066   9.214
 3067POPC   GL240526  40.760  25.833   9.044
 3067POPC   C1A40527  41.125  25.989   8.758
 3067POPC   D2A40528  40.840  26.099   8.425
 3067POPC   C3A40529  40.903  25.764   8.167
 3067POPC   C4A40530  41.170  25.955   7.893
 3067POPC   C1B40531  40.457  25.837   8.691
 3067POPC   C2B40532  40.298  26.176   8.395
 3067POPC   C3B40533  40.451  26.252   7.997
 3067POPC   C4B40534  40.625  25.930   7.777
 3068POPC   NC340535   7.637  28.555   9.524
 3068POPC   PO440536   7.065  28.325   9.395
 3068POPC   GL140537   7.448  28.247   9.162
 3068POPC   GL240538   7.342  27.934   9.150
 3068POPC   C1A40539   7.534  28.430   8.750
 3068POPC   D2A40540   7.685  28.576   8.346
 3068POPC   C3A40541   7.513  28.304   8.008
 3068POPC   C4A40542   7.710  28.247   7.627
 3068POPC   C1B40543   7.142  28.069   8.785
 3068POPC   C2B40544   7.236  27.999   8.381
 3068POPC   C3B40545   6.964  27.971   8.039
 3068POPC   C4B40546   6.963  28.066   7.640
 3069POPC   NC340547  12.299  10.300   9.442
 3069POPC   PO440548  12.970  10.533   9.604
 3069POPC   GL140549  12.890  10.520   9.220
 3069POPC   GL240550  13.142  10.306   9.076
 3069POPC   C1A40551  12.881  10.701   8.844
 3069POPC   D2A40552  12.787  10.683   8.441
 3069POPC   C3A40553  13.092  10.681   8.178
 3069POPC   C4A40554  13.139  10.795   7.773
 3069POPC   C1B40555  12.891  10.208   8.665
 3069POPC   C2B40556  12.528  10.280   8.332
 3069POPC   C3B40557  12.736  10.375   7.980
 3069POPC   C4B40558  13.201  10.289   7.868
 3070POPC   NC340559  32.530  33.354   9.516
 3070POPC   PO440560  32.013  32.976   9.759
 3070POPC   GL140561  32.100  32.851   9.320
 3070POPC   GL240562  32.382  33.011   9.145
 3070POPC   C1A40563  32.062  32.733   8.859
 3070POPC   D2A40564  32.150  32.962   8.469
 3070POPC   C3A40565  32.149  32.714   8.098
 3070POPC   C4A40566  32.384  32.656   7.722
 3070POPC   C1B40567  32.516  33.268   8.768
 3070POPC   C2B40568  32.425  33.401   8.330
 3070POPC   C3B40569  32.514  33.201   7.912
 3070POPC   C4B40570  32.742  33.344   7.540
 3071POPC   NC340571  12.911  42.960   9.455
 3071POPC   PO440572  13.116  43.639   9.411
 3071POPC   GL140573  12.961  43.371   9.121
 3071POPC   GL240574  12.633  43.288   9.114
 3071POPC   C1A40575  12.931  43.107   8.733
 3071POPC   D2A40576  13.126  43.041   8.321
 3071POPC   C3A40577  12.812  43.095   7.976
 3071POPC   C4A40578  12.727  43.008   7.502
 3071POPC   C1B40579  12.459  43.353   8.708
 3071POPC   C2B40580  12.553  43.464   8.288
 3071POPC   C3B40581  12.638  43.546   7.857
 3071POPC   C4B40582  12.428  43.390   7.440
 3072POPC   NC340583   2.168  42.571   9.396
 3072POPC   PO440584   1.600  42.392   9.740
 3072POPC   GL140585   1.735  42.360   9.222
 3072POPC   GL240586   2.053  42.152   9.129
 3072POPC   C1A40587   1.982  42.501   8.771
 3072POPC   D2A40588   2.162  42.534   8.339
 3072POPC   C3A40589   1.906  42.751   8.022
 3072POPC   C4A40590   1.766  42.596   7.644
 3072POPC   C1B40591   1.734  42.059   8.823
 3072POPC   C2B40592   1.797  42.145   8.428
 3072POPC   C3B40593   1.685  42.295   8.071
 3072POPC   C4B40594   1.652  42.095   7.742
 3073POPC   NC340595  23.456  41.670   9.378
 3073POPC   PO440596  24.029  41.235   9.432
 3073POPC   GL140597  23.772  41.385   9.091
 3073POPC   GL240598  24.004  41.440   8.841
 3073POPC   C1A40599  23.672  41.783   8.777
 3073POPC   D2A40600  23.995  41.981   8.560
 3073POPC   C3A40601  23.913  41.946   8.129
 3073POPC   C4A40602  23.596  41.817   7.830
 3073POPC   C1B40603  23.512  41.321   8.672
 3073POPC   C2B40604  23.305  41.496   8.303
 3073POPC   C3B40605  23.595  41.373   8.042
 3073POPC   C4B40606  24.016  41.504   7.900
 3074POPC   NC340607  38.437  23.526   9.552
 3074POPC   PO440608  38.925  24.041   9.257
 3074POPC   GL140609  38.604  23.991   9.008
 3074POPC   GL240610  38.398  23.787   9.130
 3074POPC   C1A40611  38.333  24.063   8.653
 3074POPC   D2A40612  38.318  24.208   8.205
 3074POPC   C3A40613  38.639  23.987   7.967
 3074POPC   C4A40614  38.665  23.756   7.576
 3074POPC   C1B40615  38.389  23.536   8.803
 3074POPC   C2B40616  38.325  23.462   8.368
 3074POPC   C3B40617  38.499  23.495   7.979
 3074POPC   C4B40618  38.286  23.417   7.604
 3075POPC   NC340619  20.247   7.468   9.494
 3075POPC   PO440620  20.507   7.982   9.545
 3075POPC   GL140621  20.752   7.714   9.203
 3075POPC   GL240622  20.541   7.459   9.065
 3075POPC   C1A40623  20.871   7.590   8.704
 3075POPC   D2A40624  20.609   7.432   8.311
 3075POPC   C3A40625  20.571   7.699   7.913
 3075POPC   C4A40626  20.577   7.688   7.423
 3075POPC   C1B40627  20.637   7.139   8.745
 3075POPC   C2B40628  20.830   6.971   8.385
 3075POPC   C3B40629  20.872   7.000   7.970
 3075POPC   C4B40630  20.661   7.260   7.681
 3076POPC   NC340631   4.601  26.403   9.366
 3076POPC   PO440632   4.244  26.922   9.618
 3076POPC   GL140633   4.274  26.784   9.178
 3076POPC   GL240634   4.032  26.538   9.088
 3076POPC   C1A40635   4.308  26.978   8.752
 3076POPC   D2A40636   4.532  26.995   8.344
 3076POPC   C3A40637   4.329  27.009   7.947
 3076POPC   C4A40638   4.463  26.913   7.544
 3076POPC   C1B40639   4.231  26.466   8.716
 3076POPC   C2B40640   4.309  26.328   8.307
 3076POPC   C3B40641   4.411  26.519   7.944
 3076POPC   C4B40642   4.752  26.444   7.707
 3077POPC   NC340643   5.511  39.882   9.675
 3077POPC   PO440644   4.925  40.258   9.477
 3077POPC   GL140645   5.100  40.075   9.119
 3077POPC   GL240646   5.149  39.750   9.237
 3077POPC   C1A40647   4.885  39.815   8.787
 3077POPC   D2A40648   4.838  39.686   8.342
 3077POPC   C3A40649   4.941  39.945   7.955
 3077POPC   C4A40650   5.139  40.325   7.776
 3077POPC   C1B40651   5.366  39.711   8.795
 3077POPC   C2B40652   5.403  39.684   8.353
 3077POPC   C3B40653   5.475  39.981   8.002
 3077POPC   C4B40654   5.397  39.911   7.566
 3078POPC   NC340655  33.180   2.751   9.454
 3078POPC   PO440656  32.529   2.931   9.415
 3078POPC   GL140657  32.793   2.767   9.120
 3078POPC   GL240658  33.036   3.019   9.050
 3078POPC   C1A40659  33.011   2.572   8.784
 3078POPC   D2A40660  32.734   2.601   8.410
 3078POPC   C3A40661  32.903   2.532   8.009
 3078POPC   C4A40662  33.332   2.629   7.875
 3078POPC   C1B40663  32.968   3.047   8.634
 3078POPC   C2B40664  33.172   2.888   8.292
 3078POPC   C3B40665  33.081   3.075   7.914
 3078POPC   C4B40666  33.169   3.266   7.507
 3079POPC   NC340667  38.094  30.576   9.459
 3079POPC   PO440668  37.986  31.163   9.628
 3079POPC   GL140669  37.721  30.865   9.242
 3079POPC   GL240670  37.685  30.500   9.177
 3079POPC   C1A40671  37.579  30.717   8.755
 3079POPC   D2A40672  37.491  30.528   8.338
 3079POPC   C3A40673  37.366  30.831   8.022
 3079POPC   C4A40674  37.528  31.126   7.767
 3079POPC   C1B40675  37.999  30.290   8.851
 3079POPC   C2B40676  38.150  30.134   8.461
 3079POPC   C3B40677  37.964  30.231   8.059
 3079POPC   C4B40678  37.579  30.392   7.848
 3080POPC   NC340679   8.180  18.537   9.228
 3080POPC   PO440680   8.623  18.126   9.565
 3080POPC   GL140681   8.299  18.019   9.198
 3080POPC   GL240682   7.914  18.120   9.164
 3080POPC   C1A40683   8.314  18.125   8.743
 3080POPC   D2A40684   8.511  18.184   8.350
 3080POPC   C3A40685   8.215  18.318   8.067
 3080POPC   C4A40686   8.120  18.432   7.669
 3080POPC   C1B40687   7.768  18.036   8.774
 3080POPC   C2B40688   7.948  18.017   8.353
 3080POPC   C3B40689   7.761  18.106   7.912
 3080POPC   C4B40690   7.777  18.135   7.437
 3081POPC   NC340691   6.354  32.222   9.340
 3081POPC   PO440692   5.744  32.164   9.713
 3081POPC   GL140693   5.883  32.392   9.274
 3081POPC   GL240694   5.988  32.152   9.013
 3081POPC   C1A40695   5.733  32.535   8.830
 3081POPC   D2A40696   5.863  32.306   8.481
 3081POPC   C3A40697   5.813  32.428   8.057
 3081POPC   C4A40698   5.657  32.038   7.892
 3081POPC   C1B40699   6.053  31.853   8.674
 3081POPC   C2B40700   5.951  31.731   8.262
 3081POPC   C3B40701   6.150  31.886   7.883
 3081POPC   C4B40702   6.254  32.327   7.814
 3082POPC   NC340703  16.345  21.830   9.635
 3082POPC   PO440704  15.786  21.440   9.825
 3082POPC   GL140705  15.782  21.370   9.341
 3082POPC   GL240706  16.121  21.279   9.249
 3082POPC   C1A40707  15.846  21.496   8.872
 3082POPC   D2A40708  15.782  21.416   8.462
 3082POPC   C3A40709  15.940  21.520   8.075
 3082POPC   C4A40710  15.708  21.402   7.750
 3082POPC   C1B40711  16.271  21.216   8.831
 3082POPC   C2B40712  16.306  21.312   8.391
 3082POPC   C3B40713  16.311  21.160   7.961
 3082POPC   C4B40714  16.234  21.298   7.508
 3083POPC   NC340715  18.196  29.013   9.479
 3083POPC   PO440716  18.486  29.641   9.458
 3083POPC   GL140717  18.449  29.345   9.119
 3083POPC   GL240718  18.126  29.254   9.039
 3083POPC   C1A40719  18.385  29.465   8.652
 3083POPC   D2A40720  18.300  29.237   8.227
 3083POPC   C3A40721  18.613  29.156   7.877
 3083POPC   C4A40722  18.539  29.235   7.415
 3083POPC   C1B40723  17.889  29.312   8.656
 3083POPC   C2B40724  17.835  29.400   8.198
 3083POPC   C3B40725  17.844  29.522   7.745
 3083POPC   C4B40726  18.083  29.504   7.339
 3084POPC   NC340727  39.704   3.292   9.461
 3084POPC   PO440728  40.158   3.735   9.475
 3084POPC   GL140729  39.921   3.625   9.141
 3084POPC   GL240730  40.210   3.471   8.992
 3084POPC   C1A40731  39.768   3.681   8.744
 3084POPC   D2A40732  40.042   3.802   8.444
 3084POPC   C3A40733  40.097   3.679   8.035
 3084POPC   C4A40734  39.859   3.971   7.782
 3084POPC   C1B40735  39.928   3.191   8.771
 3084POPC   C2B40736  39.840   3.298   8.358
 3084POPC   C3B40737  39.792   3.297   7.921
 3084POPC   C4B40738  40.106   3.240   7.638
 3085POPC   NC340739  43.717   6.386   9.433
 3085POPC   PO440740  43.805   7.022   9.456
 3085POPC   GL140741  43.955   6.757   9.137
 3085POPC   GL240742  43.617   6.712   9.055
 3085POPC   C1A40743  44.037   6.827   8.693
 3085POPC   D2A40744  44.153   6.965   8.288
 3085POPC   C3A40745  44.080   6.699   7.949
 3085POPC   C4A40746  44.286   6.745   7.559
 3085POPC   C1B40747  43.727   6.423   8.755
 3085POPC   C2B40748  43.930   6.402   8.368
 3085POPC   C3B40749  43.737   6.314   7.992
 3085POPC   C4B40750  43.334   6.160   7.889
 3086POPC   NC340751  40.114  21.981   9.425
 3086POPC   PO440752  39.631  22.474   9.520
 3086POPC   GL140753  39.924  22.412   9.170
 3086POPC   GL240754  40.282  22.410   9.016
 3086POPC   C1A40755  39.890  22.150   8.819
 3086POPC   D2A40756  40.046  22.168   8.415
 3086POPC   C3A40757  39.844  21.953   8.105
 3086POPC   C4A40758  39.846  22.163   7.727
 3086POPC   C1B40759  40.375  21.977   8.789
 3086POPC   C2B40760  40.569  21.812   8.407
 3086POPC   C3B40761  40.351  21.883   8.006
 3086POPC   C4B40762  40.326  22.223   7.682
 3087POPC   NC340763  26.628  35.655   9.621
 3087POPC   PO440764  27.188  35.249   9.538
 3087POPC   GL140765  26.908  35.128   9.160
 3087POPC   GL240766  26.797  35.432   9.193
 3087POPC   C1A40767  26.773  35.287   8.702
 3087POPC   D2A40768  27.078  35.429   8.368
 3087POPC   C3A40769  26.951  35.246   7.976
 3087POPC   C4A40770  26.497  35.128   7.940
 3087POPC   C1B40771  27.032  35.664   8.889
 3087POPC   C2B40772  26.745  35.780   8.553
 3087POPC   C3B40773  26.632  35.616   8.142
 3087POPC   C4B40774  26.594  35.585   7.720
 3088POPC   NC340775  19.759  33.015   9.586
 3088POPC   PO440776  19.916  33.670   9.466
 3088POPC   GL140777  19.944  33.289   9.172
 3088POPC   GL240778  19.978  32.900   9.157
 3088POPC   C1A40779  19.690  33.106   8.813
 3088POPC   D2A40780  19.476  32.893   8.487
 3088POPC   C3A40781  19.716  32.970   8.121
 3088POPC   C4A40782  19.587  33.056   7.709
 3088POPC   C1B40783  20.218  32.859   8.772
 3088POPC   C2B40784  20.174  32.775   8.316
 3088POPC   C3B40785  20.155  32.794   7.859
 3088POPC   C4B40786  20.027  32.883   7.459
 3089POPC   NC340787  19.778  19.914   9.569
 3089POPC   PO440788  20.149  19.372   9.553
 3089POPC   GL140789  20.056  19.604   9.187
 3089POPC   GL240790  20.021  19.985   9.121
 3089POPC   C1A40791  19.773  19.593   8.852
 3089POPC   D2A40792  19.516  19.806   8.538
 3089POPC   C3A40793  19.737  19.825   8.169
 3089POPC   C4A40794  20.036  19.782   7.847
 3089POPC   C1B40795  19.952  20.052   8.660
 3089POPC   C2B40796  20.207  20.047   8.284
 3089POPC   C3B40797  20.027  20.264   7.927
 3089POPC   C4B40798  19.597  20.158   7.812
 3090POPC   NC340799  21.483  40.356   9.671
 3090POPC   PO440800  21.431  40.972   9.423
 3090POPC   GL140801  21.521  40.789   9.075
 3090POPC   GL240802  21.364  40.480   9.184
 3090POPC   C1A40803  21.376  40.932   8.691
 3090POPC   D2A40804  21.148  40.769   8.350
 3090POPC   C3A40805  21.345  40.841   7.978
 3090POPC   C4A40806  21.155  40.824   7.575
 3090POPC   C1B40807  21.270  40.436   8.741
 3090POPC   C2B40808  21.575  40.508   8.387
 3090POPC   C3B40809  21.605  40.404   7.948
 3090POPC   C4B40810  21.296  40.333   7.614
 3091POPC   NC340811  42.784  10.709   9.605
 3091POPC   PO440812  43.226  10.207   9.515
 3091POPC   GL140813  43.110  10.472   9.206
 3091POPC   GL240814  42.988  10.156   9.041
 3091POPC   C1A40815  43.243  10.689   8.817
 3091POPC   D2A40816  43.002  10.771   8.438
 3091POPC   C3A40817  43.153  10.702   8.064
 3091POPC   C4A40818  42.916  10.823   7.714
 3091POPC   C1B40819  43.433  10.205   8.869
 3091POPC   C2B40820  43.478  10.389   8.451
 3091POPC   C3B40821  43.605  10.341   8.011
 3091POPC   C4B40822  43.344  10.483   7.658
 3092POPC   NC340823  35.319  27.839   9.506
 3092POPC   PO440824  35.479  27.214   9.533
 3092POPC   GL140825  35.339  27.452   9.149
 3092POPC   GL240826  35.529  27.754   9.048
 3092POPC   C1A40827  35.039  27.524   8.791
 3092POPC   D2A40828  34.985  27.316   8.396
 3092POPC   C3A40829  35.013  27.485   7.999
 3092POPC   C4A40830  35.407  27.540   7.806
 3092POPC   C1B40831  35.518  27.612   8.614
 3092POPC   C2B40832  35.562  27.826   8.210
 3092POPC   C3B40833  35.448  28.045   7.802
 3092POPC   C4B40834  35.496  27.862   7.373
 3093POPC   NC340835  20.510  12.987   9.488
 3093POPC   PO440836  21.133  13.309   9.520
 3093POPC   GL140837  20.896  13.277   9.088
 3093POPC   GL240838  20.635  13.015   9.006
 3093POPC   C1A40839  20.923  13.139   8.612
 3093POPC   D2A40840  20.710  12.832   8.321
 3093POPC   C3A40841  20.458  12.960   7.960
 3093POPC   C4A40842  20.319  13.333   7.744
 3093POPC   C1B40843  20.577  12.608   8.814
 3093POPC   C2B40844  20.769  12.339   8.526
 3093POPC   C3B40845  20.693  12.315   8.098
 3093POPC   C4B40846  20.625  12.537   7.728
 3094POPC   NC340847  40.208  14.315   9.585
 3094POPC   PO440848  39.772  14.763   9.362
 3094POPC   GL140849  39.844  14.394   9.174
 3094POPC   GL240850  40.154  14.494   9.108
 3094POPC   C1A40851  39.862  14.292   8.739
 3094POPC   D2A40852  40.078  14.449   8.383
 3094POPC   C3A40853  40.174  14.206   8.034
 3094POPC   C4A40854  40.123  14.353   7.641
 3094POPC   C1B40855  40.362  14.655   8.768
 3094POPC   C2B40856  40.530  14.713   8.353
 3094POPC   C3B40857  40.431  14.654   7.921
 3094POPC   C4B40858  40.364  14.763   7.495
 3095POPC   NC340859  13.829  20.026   9.549
 3095POPC   PO440860  13.442  19.530   9.505
 3095POPC   GL140861  13.456  19.692   9.148
 3095POPC   GL240862  13.592  20.024   9.095
 3095POPC   C1A40863  13.539  19.457   8.811
 3095POPC   D2A40864  13.802  19.413   8.494
 3095POPC   C3A40865  13.567  19.593   8.166
 3095POPC   C4A40866  13.668  19.353   7.824
 3095POPC   C1B40867  13.558  20.153   8.668
 3095POPC   C2B40868  13.480  20.207   8.243
 3095POPC   C3B40869  13.599  20.055   7.883
 3095POPC   C4B40870  14.017  20.000   7.763
 3096POPC   NC340871  39.755  35.027   9.443
 3096POPC   PO440872  40.338  35.507   9.519
 3096POPC   GL140873  40.042  35.382   9.166
 3096POPC   GL240874  39.724  35.566   9.170
 3096POPC   C1A40875  39.965  35.273   8.722
 3096POPC   D2A40876  40.149  35.350   8.287
 3096POPC   C3A40877  39.964  35.175   7.892
 3096POPC   C4A40878  40.019  35.000   7.450
 3096POPC   C1B40879  39.601  35.639   8.745
 3096POPC   C2B40880  39.636  35.442   8.336
 3096POPC   C3B40881  39.623  35.571   7.907
 3096POPC   C4B40882  39.833  35.488   7.481
 3097POPC   NC340883  25.578   0.432   9.338
 3097POPC   PO440884  25.000   0.799   9.316
 3097POPC   GL140885  25.220   0.646   9.036
 3097POPC   GL240886  25.473   0.807   8.983
 3097POPC   C1A40887  25.280   0.361   8.710
 3097POPC   D2A40888  25.012   0.319   8.361
 3097POPC   C3A40889  25.074   0.203   7.958
 3097POPC   C4A40890  25.457   0.044   7.815
 3097POPC   C1B40891  25.213   0.866   8.581
 3097POPC   C2B40892  25.343   0.649   8.219
 3097POPC   C3B40893  25.371   0.631   7.782
 3097POPC   C4B40894  25.464   0.828   7.382
 3098POPC   NC340895  40.921  19.104   9.413
 3098POPC   PO440896  40.411  18.693   9.269
 3098POPC   GL140897  40.705  18.889   8.997
 3098POPC   GL240898  41.098  18.848   9.028
 3098POPC   C1A40899  40.571  19.124   8.666
 3098POPC   D2A40900  40.772  19.315   8.343
 3098POPC   C3A40901  40.585  19.153   7.969
 3098POPC   C4A40902  40.742  19.234   7.547
 3098POPC   C1B40903  41.075  19.001   8.621
 3098POPC   C2B40904  40.792  18.807   8.319
 3098POPC   C3B40905  40.906  18.771   7.904
 3098POPC   C4B40906  40.679  18.696   7.539
 3099POPC   NC340907  21.366   8.843   9.499
 3099POPC   PO440908  21.896   9.278   9.583
 3099POPC   GL140909  21.624   9.121   9.188
 3099POPC   GL240910  21.590   8.752   9.024
 3099POPC   C1A40911  21.265   9.077   8.854
 3099POPC   D2A40912  21.433   9.174   8.463
 3099POPC   C3A40913  21.242   9.153   8.092
 3099POPC   C4A40914  21.306   9.068   7.685
 3099POPC   C1B40915  21.270   8.563   8.776
 3099POPC   C2B40916  21.182   8.710   8.370
 3099POPC   C3B40917  21.361   8.650   7.983
 3099POPC   C4B40918  21.154   8.587   7.560
 3100POPC   NC340919  25.449  12.305   9.643
 3100POPC   PO440920  24.912  11.938   9.476
 3100POPC   GL140921  25.211  12.158   9.178
 3100POPC   GL240922  25.579  12.306   9.165
 3100POPC   C1A40923  25.254  11.936   8.797
 3100POPC   D2A40924  25.034  11.793   8.437
 3100POPC   C3A40925  25.311  11.807   8.120
 3100POPC   C4A40926  25.355  11.953   7.699
 3100POPC   C1B40927  25.521  12.404   8.760
 3100POPC   C2B40928  25.554  12.202   8.368
 3100POPC   C3B40929  25.587  12.367   7.939
 3100POPC   C4B40930  25.570  12.357   7.468
 3101POPC   NC340931   2.492  19.925   9.850
 3101POPC   PO440932   2.987  19.866   9.518
 3101POPC   GL140933   2.740  19.727   9.185
 3101POPC   GL240934   2.997  19.553   9.010
 3101POPC   C1A40935   2.609  19.829   8.783
 3101POPC   D2A40936   2.519  19.619   8.432
 3101POPC   C3A40937   2.554  19.783   8.031
 3101POPC   C4A40938   2.801  19.804   7.711
 3101POPC   C1B40939   3.038  19.358   8.597
 3101POPC   C2B40940   2.920  19.382   8.144
 3101POPC   C3B40941   3.125  19.407   7.732
 3101POPC   C4B40942   3.100  19.685   7.322
 3102POPC   NC340943  42.969  30.042   9.591
 3102POPC   PO440944  43.501  30.200   9.407
 3102POPC   GL140945  43.281  29.821   9.172
 3102POPC   GL240946  42.941  29.748   9.174
 3102POPC   C1A40947  43.108  29.658   8.723
 3102POPC   D2A40948  43.229  30.051   8.507
 3102POPC   C3A40949  43.274  30.158   8.082
 3102POPC   C4A40950  43.168  30.331   7.700
 3102POPC   C1B40951  42.838  30.059   8.861
 3102POPC   C2B40952  42.696  30.064   8.426
 3102POPC   C3B40953  42.770  30.249   8.017
 3102POPC   C4B40954  42.925  29.888   7.774
 3103POPC   NC340955  29.921  27.116   9.705
 3103POPC   PO440956  29.770  26.457   9.757
 3103POPC   GL140957  29.906  26.682   9.320
 3103POPC   GL240958  29.989  27.036   9.199
 3103POPC   C1A40959  30.099  26.653   8.885
 3103POPC   D2A40960  29.889  26.734   8.489
 3103POPC   C3A40961  29.967  26.697   8.057
 3103POPC   C4A40962  29.876  26.488   7.641
 3103POPC   C1B40963  29.812  27.149   8.773
 3103POPC   C2B40964  29.943  27.220   8.304
 3103POPC   C3B40965  29.843  27.209   7.832
 3103POPC   C4B40966  29.908  27.213   7.359
 3104POPC   NC340967  22.893  18.772   9.411
 3104POPC   PO440968  23.326  19.250   9.329
 3104POPC   GL140969  23.217  19.193   8.902
 3104POPC   GL240970  23.080  18.896   8.963
 3104POPC   C1A40971  23.080  19.150   8.457
 3104POPC   D2A40972  22.656  19.260   8.322
 3104POPC   C3A40973  22.642  19.135   7.924
 3104POPC   C4A40974  23.090  19.036   7.925
 3104POPC   C1B40975  22.727  18.893   8.707
 3104POPC   C2B40976  22.721  18.748   8.283
 3104POPC   C3B40977  22.767  18.653   7.841
 3104POPC   C4B40978  22.514  18.809   7.472
 3105POPC   NC340979  29.214  31.831   9.678
 3105POPC   PO440980  29.214  32.459   9.463
 3105POPC   GL140981  29.048  32.105   9.243
 3105POPC   GL240982  29.373  31.964   9.190
 3105POPC   C1A40983  29.057  32.119   8.797
 3105POPC   D2A40984  29.300  32.323   8.466
 3105POPC   C3A40985  29.111  32.507   8.094
 3105POPC   C4A40986  29.035  32.245   7.735
 3105POPC   C1B40987  29.571  32.066   8.803
 3105POPC   C2B40988  29.676  31.970   8.354
 3105POPC   C3B40989  29.408  31.999   7.991
 3105POPC   C4B40990  29.526  32.169   7.608
 3106POPC   NC340991   8.079   7.554   9.306
 3106POPC   PO440992   8.516   7.004   9.441
 3106POPC   GL140993   8.448   7.247   9.080
 3106POPC   GL240994   8.550   7.621   9.082
 3106POPC   C1A40995   8.276   7.391   8.689
 3106POPC   D2A40996   8.571   7.575   8.407
 3106POPC   C3A40997   8.512   7.252   8.140
 3106POPC   C4A40998   8.456   7.218   7.723
 3106POPC   C1B40999   8.321   7.896   8.775
 3106POPC   C2B41000   8.098   7.801   8.394
 3106POPC   C3B41001   8.050   7.544   8.028
 3106POPC   C4B41002   8.404   7.702   7.831
 3107POPC   NC341003   9.931  12.967   9.600
 3107POPC   PO441004   9.310  12.814   9.837
 3107POPC   GL141005   9.535  12.787   9.349
 3107POPC   GL241006   9.551  13.075   9.153
 3107POPC   C1A41007   9.766  12.665   8.921
 3107POPC   D2A41008   9.634  12.627   8.456
 3107POPC   C3A41009   9.843  12.805   8.080
 3107POPC   C4A41010   9.847  12.655   7.653
 3107POPC   C1B41011   9.458  13.032   8.744
 3107POPC   C2B41012   9.597  13.149   8.353
 3107POPC   C3B41013   9.507  13.163   7.921
 3107POPC   C4B41014   9.442  13.236   7.435
 3108POPC   NC341015  31.267  15.150   9.588
 3108POPC   PO441016  31.056  15.629   9.343
 3108POPC   GL141017  31.465  15.356   9.162
 3108POPC   GL241018  31.470  14.963   9.123
 3108POPC   C1A41019  31.634  15.285   8.750
 3108POPC   D2A41020  31.460  15.189   8.322
 3108POPC   C3A41021  31.641  15.416   7.950
 3108POPC   C4A41022  31.400  15.493   7.548
 3108POPC   C1B41023  31.304  14.840   8.737
 3108POPC   C2B41024  31.026  14.896   8.399
 3108POPC   C3B41025  31.154  14.835   8.011
 3108POPC   C4B41026  31.511  14.964   7.794
 3109POPC   NC341027  42.665   0.423   9.515
 3109POPC   PO441028  43.344   0.531   9.563
 3109POPC   GL141029  43.268   0.471   9.144
 3109POPC   GL241030  43.453   0.168   9.094
 3109POPC   C1A41031  43.124   0.373   8.737
 3109POPC   D2A41032  43.001   0.600   8.391
 3109POPC   C3A41033  43.047   0.424   8.023
 3109POPC   C4A41034  43.177   0.697   7.732
 3109POPC   C1B41035  43.620   0.357   8.721
 3109POPC   C2B41036  43.485   0.346   8.301
 3109POPC   C3B41037  43.499   0.315   7.851
 3109POPC   C4B41038  43.273   0.063   7.486
 3110POPC   NC341039  39.660  16.203   9.341
 3110POPC   PO441040  39.949  16.740   9.571
 3110POPC   GL141041  39.973  16.595   9.193
 3110POPC   GL241042  39.643  16.677   9.131
 3110POPC   C1A41043  40.156  16.741   8.847
 3110POPC   D2A41044  40.010  16.980   8.516
 3110POPC   C3A41045  39.983  16.836   8.125
 3110POPC   C4A41046  40.188  17.053   7.829
 3110POPC   C1B41047  39.709  16.536   8.723
 3110POPC   C2B41048  40.007  16.385   8.423
 3110POPC   C3B41049  39.795  16.355   8.051
 3110POPC   C4B41050  39.884  16.523   7.670
 3111POPC   NC341051  37.492  16.406   9.447
 3111POPC   PO441052  37.634  15.713   9.564
 3111POPC   GL141053  37.520  15.878   9.182
 3111POPC   GL241054  37.736  15.720   9.006
 3111POPC   C1A41055  37.343  15.748   8.730
 3111POPC   D2A41056  37.385  15.899   8.323
 3111POPC   C3A41057  37.488  15.733   7.949
 3111POPC   C4A41058  37.840  15.883   7.692
 3111POPC   C1B41059  38.039  15.752   8.690
 3111POPC   C2B41060  37.992  15.740   8.251
 3111POPC   C3B41061  38.235  15.617   7.926
 3111POPC   C4B41062  38.236  15.657   7.460
 3112POPC   NC341063  40.764  34.260   9.559
 3112POPC   PO441064  40.681  33.509   9.631
 3112POPC   GL141065  40.792  33.763   9.297
 3112POPC   GL241066  40.748  33.485   9.131
 3112POPC   C1A41067  40.949  33.917   8.897
 3112POPC   D2A41068  40.812  34.144   8.559
 3112POPC   C3A41069  41.003  34.036   8.183
 3112POPC   C4A41070  40.922  34.044   7.764
 3112POPC   C1B41071  40.936  33.377   8.820
 3112POPC   C2B41072  40.914  33.601   8.461
 3112POPC   C3B41073  40.905  33.501   8.043
 3112POPC   C4B41074  40.718  33.596   7.644
 3113POPC   NC341075  31.030   1.208   9.441
 3113POPC   PO441076  31.735   1.267   9.555
 3113POPC   GL141077  31.545   1.398   9.162
 3113POPC   GL241078  31.268   1.220   8.993
 3113POPC   C1A41079  31.675   1.429   8.728
 3113POPC   D2A41080  31.655   1.239   8.308
 3113POPC   C3A41081  31.595   1.440   7.915
 3113POPC   C4A41082  31.505   1.242   7.532
 3113POPC   C1B41083  31.187   1.503   8.649
 3113POPC   C2B41084  31.232   1.507   8.250
 3113POPC   C3B41085  31.137   1.195   7.949
 3113POPC   C4B41086  30.903   1.301   7.615
 3114POPC   NC341087  36.311  27.907   9.611
 3114POPC   PO441088  36.400  27.282   9.616
 3114POPC   GL141089  36.237  27.258   9.193
 3114POPC   GL241090  36.014  27.542   9.247
 3114POPC   C1A41091  36.008  27.234   8.776
 3114POPC   D2A41092  35.720  27.168   8.398
 3114POPC   C3A41093  35.839  27.258   7.950
 3114POPC   C4A41094  36.203  27.360   7.681
 3114POPC   C1B41095  36.188  27.717   8.864
 3114POPC   C2B41096  36.026  27.660   8.470
 3114POPC   C3B41097  36.045  27.735   8.077
 3114POPC   C4B41098  35.867  27.770   7.716
 3115POPC   NC341099  15.658  29.561   9.368
 3115POPC   PO441100  16.081  29.040   9.511
 3115POPC   GL141101  15.858  29.087   9.150
 3115POPC   GL241102  16.029  29.422   9.046
 3115POPC   C1A41103  16.063  28.997   8.760
 3115POPC   D2A41104  16.108  29.242   8.401
 3115POPC   C3A41105  16.045  29.049   8.009
 3115POPC   C4A41106  15.797  28.753   7.820
 3115POPC   C1B41107  15.715  29.373   8.703
 3115POPC   C2B41108  15.614  29.190   8.284
 3115POPC   C3B41109  15.639  29.304   7.817
 3115POPC   C4B41110  15.521  29.444   7.352
 3116POPC   NC341111  34.412  16.984   9.336
 3116POPC   PO441112  34.897  16.586   9.439
 3116POPC   GL141113  34.722  16.677   9.066
 3116POPC   GL241114  34.396  16.548   9.047
 3116POPC   C1A41115  34.720  16.867   8.672
 3116POPC   D2A41116  35.038  16.859   8.379
 3116POPC   C3A41117  34.971  16.832   7.947
 3116POPC   C4A41118  34.546  16.741   7.811
 3116POPC   C1B41119  34.213  16.815   8.718
 3116POPC   C2B41120  34.305  16.862   8.288
 3116POPC   C3B41121  34.061  16.919   7.931
 3116POPC   C4B41122  34.214  16.980   7.504
 3117POPC   NC341123  15.405  31.178   9.422
 3117POPC   PO441124  14.746  31.438   9.523
 3117POPC   GL141125  14.972  31.292   9.157
 3117POPC   GL241126  15.214  31.584   9.154
 3117POPC   C1A41127  15.237  31.241   8.764
 3117POPC   D2A41128  15.345  31.454   8.368
 3117POPC   C3A41129  15.308  31.405   7.934
 3117POPC   C4A41130  14.952  31.428   7.656
 3117POPC   C1B41131  14.925  31.699   8.857
 3117POPC   C2B41132  14.818  31.609   8.449
 3117POPC   C3B41133  14.980  31.770   8.068
 3117POPC   C4B41134  15.062  31.937   7.647
 3118POPC   NC341135   2.782  15.682   9.452
 3118POPC   PO441136   2.201  15.561   9.606
 3118POPC   GL141137   2.473  15.363   9.222
 3118POPC   GL241138   2.875  15.256   9.186
 3118POPC   C1A41139   2.558  15.214   8.798
 3118POPC   D2A41140   2.761  15.110   8.390
 3118POPC   C3A41141   2.605  15.202   8.012
 3118POPC   C4A41142   2.690  15.014   7.636
 3118POPC   C1B41143   3.072  15.070   8.775
 3118POPC   C2B41144   3.168  14.810   8.362
 3118POPC   C3B41145   3.093  15.021   7.948
 3118POPC   C4B41146   3.164  15.142   7.488
 3119POPC   NC341147  27.284   6.916   9.517
 3119POPC   PO441148  26.775   6.396   9.447
 3119POPC   GL141149  26.745   6.621   9.075
 3119POPC   GL241150  26.874   6.940   9.209
 3119POPC   C1A41151  26.773   6.508   8.637
 3119POPC   D2A41152  26.841   6.646   8.227
 3119POPC   C3A41153  26.834   6.470   7.841
 3119POPC   C4A41154  26.517   6.410   7.465
 3119POPC   C1B41155  27.092   6.934   8.793
 3119POPC   C2B41156  27.091   7.072   8.337
 3119POPC   C3B41157  27.081   6.952   7.865
 3119POPC   C4B41158  27.213   7.108   7.450
 3120POPC   NC341159   3.133  12.430   9.820
 3120POPC   PO441160   3.590  12.771   9.608
 3120POPC   GL141161   3.569  12.901   9.184
 3120POPC   GL241162   3.715  12.615   9.053
 3120POPC   C1A41163   3.563  13.114   8.775
 3120POPC   D2A41164   3.599  13.033   8.334
 3120POPC   C3A41165   3.327  13.038   7.991
 3120POPC   C4A41166   3.512  13.104   7.614
 3120POPC   C1B41167   3.922  12.760   8.682
 3120POPC   C2B41168   4.035  12.775   8.264
 3120POPC   C3B41169   3.744  12.749   7.914
 3120POPC   C4B41170   3.347  12.576   7.754
 3121POPC   NC341171   1.120   7.640   9.469
 3121POPC   PO441172   0.967   7.027   9.467
 3121POPC   GL141173   1.163   7.242   9.106
 3121POPC   GL241174   1.301   7.566   9.013
 3121POPC   C1A41175   1.394   7.092   8.756
 3121POPC   D2A41176   1.491   7.188   8.342
 3121POPC   C3A41177   1.159   7.385   8.116
 3121POPC   C4A41178   1.248   7.305   7.727
 3121POPC   C1B41179   1.218   7.556   8.603
 3121POPC   C2B41180   1.493   7.722   8.347
 3121POPC   C3B41181   1.640   7.896   8.015
 3121POPC   C4B41182   1.437   7.756   7.674
 3122POPC   NC341183  27.159  44.395   5.708
 3122POPC   PO441184  26.690  43.998   5.439
 3122POPC   GL141185  26.737  43.742   5.823
 3122POPC   GL241186  26.826  44.031   5.959
 3122POPC   C1A41187  26.851  43.577   6.230
 3122POPC   D2A41188  26.810  43.751   6.643
 3122POPC   C3A41189  26.987  43.601   7.012
 3122POPC   C4A41190  27.255  43.898   7.155
 3122POPC   C1B41191  26.526  43.993   6.293
 3122POPC   C2B41192  26.546  44.171   6.697
 3122POPC   C3B41193  26.688  44.015   7.090
 3122POPC   C4B41194  26.571  44.148   7.475
 3123POPC   NC341195  41.392   8.551   5.437
 3123POPC   PO441196  41.824   8.020   5.278
 3123POPC   GL141197  41.770   8.072   5.744
 3123POPC   GL241198  41.778   8.428   5.823
 3123POPC   C1A41199  41.561   8.046   6.175
 3123POPC   D2A41200  41.610   7.884   6.611
 3123POPC   C3A41201  41.682   8.102   6.986
 3123POPC   C4A41202  41.336   8.005   7.213
 3123POPC   C1B41203  41.526   8.543   6.183
 3123POPC   C2B41204  41.472   8.375   6.598
 3123POPC   C3B41205  41.318   8.477   7.003
 3123POPC   C4B41206  41.432   8.577   7.407
 3124POPC   NC341207  15.545  32.412   5.445
 3124POPC   PO441208  15.107  32.000   5.645
 3124POPC   GL141209  15.262  32.284   5.870
 3124POPC   GL241210  14.920  32.266   6.040
 3124POPC   C1A41211  15.487  32.335   6.250
 3124POPC   D2A41212  15.381  32.199   6.676
 3124POPC   C3A41213  15.522  32.468   7.037
 3124POPC   C4A41214  15.314  32.370   7.416
 3124POPC   C1B41215  15.068  32.620   6.201
 3124POPC   C2B41216  15.215  32.685   6.619
 3124POPC   C3B41217  15.011  32.513   6.982
 3124POPC   C4B41218  14.717  32.637   7.268
 3125POPC   NC341219  13.146  19.219   5.344
 3125POPC   PO441220  12.714  19.781   5.337
 3125POPC   GL141221  12.796  19.772   5.767
 3125POPC   GL241222  12.586  19.491   5.851
 3125POPC   C1A41223  12.962  19.687   6.211
 3125POPC   D2A41224  13.092  19.672   6.667
 3125POPC   C3A41225  12.916  19.961   6.940
 3125POPC   C4A41226  12.727  20.101   7.307
 3125POPC   C1B41227  12.652  19.277   6.218
 3125POPC   C2B41228  12.593  19.524   6.573
 3125POPC   C3B41229  12.677  19.514   6.979
 3125POPC   C4B41230  12.421  19.637   7.264
 3126POPC   NC341231  31.972  37.834   5.521
 3126POPC   PO441232  32.359  37.382   5.163
 3126POPC   GL141233  32.368  37.566   5.693
 3126POPC   GL241234  32.323  37.876   5.895
 3126POPC   C1A41235  32.532  37.515   6.158
 3126POPC   D2A41236  32.239  37.729   6.464
 3126POPC   C3A41237  32.317  37.664   6.932
 3126POPC   C4A41238  32.383  37.761   7.375
 3126POPC   C1B41239  31.950  38.056   6.127
 3126POPC   C2B41240  31.705  37.960   6.494
 3126POPC   C3B41241  31.798  37.818   6.911
 3126POPC   C4B41242  32.039  38.074   7.201
 3127POPC   NC341243   3.639  26.427   5.721
 3127POPC   PO441244   3.531  25.814   5.392
 3127POPC   GL141245   3.759  25.809   5.829
 3127POPC   GL241246   3.770  26.103   6.082
 3127POPC   C1A41247   3.606  25.662   6.255
 3127POPC   D2A41248   3.435  25.804   6.627
 3127POPC   C3A41249   3.574  25.756   7.040
 3127POPC   C4A41250   3.258  25.754   7.321
 3127POPC   C1B41251   3.365  26.208   6.301
 3127POPC   C2B41252   3.339  26.293   6.742
 3127POPC   C3B41253   3.453  26.239   7.173
 3127POPC   C4B41254   3.734  26.372   7.499
 3128POPC   NC341255  19.808   3.372   5.482
 3128POPC   PO441256  20.088   3.903   5.712
 3128POPC   GL141257  20.040   3.485   5.918
 3128POPC   GL241258  19.667   3.505   5.944
 3128POPC   C1A41259  19.950   3.241   6.290
 3128POPC   D2A41260  19.811   3.565   6.532
 3128POPC   C3A41261  19.775   3.628   6.968
 3128POPC   C4A41262  19.911   3.723   7.377
 3128POPC   C1B41263  19.443   3.292   6.268
 3128POPC   C2B41264  19.541   3.162   6.683
 3128POPC   C3B41265  19.381   3.245   7.072
 3128POPC   C4B41266  19.531   3.434   7.432
 3129POPC   NC341267  28.680  19.238   5.455
 3129POPC   PO441268  28.247  18.713   5.579
 3129POPC   GL141269  28.374  19.075   5.819
 3129POPC   GL241270  28.679  18.856   5.813
 3129POPC   C1A41271  28.430  19.345   6.198
 3129POPC   D2A41272  28.162  19.383   6.582
 3129POPC   C3A41273  28.322  19.259   6.955
 3129POPC   C4A41274  28.525  19.162   7.322
 3129POPC   C1B41275  28.547  18.813   6.224
 3129POPC   C2B41276  28.575  19.027   6.574
 3129POPC   C3B41277  28.676  18.874   6.919
 3129POPC   C4B41278  28.621  18.640   7.242
 3130POPC   NC341279  34.784  36.728   5.593
 3130POPC   PO441280  34.226  36.919   5.428
 3130POPC   GL141281  34.351  37.065   5.837
 3130POPC   GL241282  34.670  37.235   5.741
 3130POPC   C1A41283  34.373  36.926   6.300
 3130POPC   D2A41284  34.302  37.174   6.684
 3130POPC   C3A41285  34.302  37.003   7.126
 3130POPC   C4A41286  34.536  36.714   7.372
 3130POPC   C1B41287  34.717  37.240   6.152
 3130POPC   C2B41288  34.805  37.098   6.571
 3130POPC   C3B41289  34.797  37.093   7.004
 3130POPC   C4B41290  34.674  37.192   7.418
 3131POPC   NC341291  10.331  27.968   5.370
 3131POPC   PO441292  10.795  27.530   5.148
 3131POPC   GL141293  10.557  27.511   5.587
 3131POPC   GL241294  10.561  27.826   5.795
 3131POPC   C1A41295  10.364  27.398   6.005
 3131POPC   D2A41296  10.257  27.412   6.478
 3131POPC   C3A41297  10.363  27.317   6.926
 3131POPC   C4A41298  10.723  27.469   7.164
 3131POPC   C1B41299  10.502  27.819   6.228
 3131POPC   C2B41300  10.641  27.706   6.623
 3131POPC   C3B41301  10.436  27.833   6.970
 3131POPC   C4B41302  10.702  27.958   7.271
 3132POPC   NC341303  20.233  29.873   5.595
 3132POPC   PO441304  19.663  30.288   5.566
 3132POPC   GL141305  19.859  30.051   5.912
 3132POPC   GL241306  19.845  29.692   5.887
 3132POPC   C1A41307  19.820  29.967   6.353
 3132POPC   D2A41308  19.458  30.050   6.594
 3132POPC   C3A41309  19.541  30.102   7.021
 3132POPC   C4A41310  19.728  29.960   7.376
 3132POPC   C1B41311  20.184  29.632   6.203
 3132POPC   C2B41312  20.238  29.764   6.619
 3132POPC   C3B41313  19.921  29.748   6.929
 3132POPC   C4B41314  19.858  29.456   7.261
 3133POPC   NC341315  25.509  10.396   5.416
 3133POPC   PO441316  25.152  10.972   5.281
 3133POPC   GL141317  24.964  10.660   5.661
 3133POPC   GL241318  24.834  10.323   5.830
 3133POPC   C1A41319  25.061  10.682   6.124
 3133POPC   D2A41320  25.046  10.964   6.509
 3133POPC   C3A41321  25.154  10.786   6.921
 3133POPC   C4A41322  25.395  10.707   7.283
 3133POPC   C1B41323  25.092  10.163   6.233
 3133POPC   C2B41324  25.295  10.218   6.680
 3133POPC   C3B41325  25.185  10.238   7.160
 3133POPC   C4B41326  25.196  10.395   7.628
 3134POPC   NC341327  39.409  32.441   5.392
 3134POPC   PO441328  38.862  32.110   5.503
 3134POPC   GL141329  39.108  32.408   5.807
 3134POPC   GL241330  39.434  32.592   5.878
 3134POPC   C1A41331  39.191  32.285   6.238
 3134POPC   D2A41332  38.944  32.229   6.622
 3134POPC   C3A41333  39.186  32.106   6.998
 3134POPC   C4A41334  39.226  32.298   7.386
 3134POPC   C1B41335  39.649  32.516   6.268
 3134POPC   C2B41336  39.482  32.388   6.661
 3134POPC   C3B41337  39.613  32.433   7.069
 3134POPC   C4B41338  39.723  32.219   7.446
 3135POPC   NC341339  40.134  21.513   5.232
 3135POPC   PO441340  40.087  22.153   5.466
 3135POPC   GL141341  40.005  22.144   5.864
 3135POPC   GL241342  39.720  22.006   5.864
 3135POPC   C1A41343  40.145  22.213   6.269
 3135POPC   D2A41344  40.345  22.400   6.595
 3135POPC   C3A41345  40.133  22.374   6.965
 3135POPC   C4A41346  40.032  22.060   7.264
 3135POPC   C1B41347  39.697  21.960   6.263
 3135POPC   C2B41348  39.551  21.872   6.642
 3135POPC   C3B41349  39.724  21.734   7.018
 3135POPC   C4B41350  39.571  21.868   7.415
 3136POPC   NC341351  30.579  38.298   5.529
 3136POPC   PO441352  30.973  38.865   5.485
 3136POPC   GL141353  30.775  38.792   5.900
 3136POPC   GL241354  30.443  38.635   5.931
 3136POPC   C1A41355  30.747  38.638   6.340
 3136POPC   D2A41356  30.574  38.374   6.693
 3136POPC   C3A41357  30.873  38.415   7.027
 3136POPC   C4A41358  30.785  38.548   7.455
 3136POPC   C1B41359  30.453  38.222   6.182
 3136POPC   C2B41360  30.324  37.939   6.516
 3136POPC   C3B41361  30.234  37.994   6.943
 3136POPC   C4B41362  30.437  38.222   7.238
 3137POPC   NC341363   2.111  25.720   5.504
 3137POPC   PO441364   2.095  25.042   5.411
 3137POPC   GL141365   1.895  25.165   5.822
 3137POPC   GL241366   1.824  25.523   5.895
 3137POPC   C1A41367   1.773  25.097   6.278
 3137POPC   D2A41368   1.577  25.211   6.694
 3137POPC   C3A41369   1.645  24.943   7.086
 3137POPC   C4A41370   1.908  24.849   7.460
 3137POPC   C1B41371   2.161  25.438   6.208
 3137POPC   C2B41372   2.080  25.300   6.652
 3137POPC   C3B41373   1.914  25.382   7.071
 3137POPC   C4B41374   2.136  25.314   7.439
 3138POPC   NC341375   5.119  38.056   5.347
 3138POPC   PO441376   4.982  38.764   5.506
 3138POPC   GL141377   5.156  38.438   5.776
 3138POPC   GL241378   4.889  38.199   5.772
 3138POPC   C1A41379   5.254  38.460   6.222
 3138POPC   D2A41380   5.076  38.674   6.573
 3138POPC   C3A41381   5.089  38.565   7.007
 3138POPC   C4A41382   4.855  38.791   7.317
 3138POPC   C1B41383   4.903  38.045   6.169
 3138POPC   C2B41384   5.076  38.133   6.568
 3138POPC   C3B41385   4.931  37.992   6.929
 3138POPC   C4B41386   5.072  38.136   7.307
 3139POPC   NC341387  27.051   1.860   5.356
 3139POPC   PO441388  26.462   2.199   5.478
 3139POPC   GL141389  26.822   2.143   5.731
 3139POPC   GL241390  26.703   1.846   5.886
 3139POPC   C1A41391  27.042   2.147   6.134
 3139POPC   D2A41392  27.143   2.090   6.572
 3139POPC   C3A41393  26.747   2.111   6.807
 3139POPC   C4A41394  26.701   2.240   7.250
 3139POPC   C1B41395  26.640   1.878   6.351
 3139POPC   C2B41396  26.467   1.665   6.751
 3139POPC   C3B41397  26.652   1.747   7.155
 3139POPC   C4B41398  26.746   1.587   7.535
 3140POPC   NC341399   0.025   8.466   5.582
 3140POPC   PO441400  44.825   9.089   5.435
 3140POPC   GL141401  44.702   8.848   5.791
 3140POPC   GL241402  44.506   8.508   5.767
 3140POPC   C1A41403  44.543   9.053   6.158
 3140POPC   D2A41404  44.414   9.339   6.495
 3140POPC   C3A41405  44.622   9.265   6.875
 3140POPC   C4A41406  44.438   9.173   7.259
 3140POPC   C1B41407  44.603   8.544   6.223
 3140POPC   C2B41408  44.603   8.810   6.606
 3140POPC   C3B41409  44.522   8.755   7.013
 3140POPC   C4B41410  44.634   8.440   7.256
 3141POPC   NC341411  35.441  22.787   5.532
 3141POPC   PO441412  35.600  22.120   5.553
 3141POPC   GL141413  35.349  22.335   5.812
 3141POPC   GL241414  35.651  22.508   5.903
 3141POPC   C1A41415  35.107  22.227   6.193
 3141POPC   D2A41416  35.015  22.401   6.616
 3141POPC   C3A41417  35.094  22.196   7.005
 3141POPC   C4A41418  35.382  21.879   7.171
 3141POPC   C1B41419  35.623  22.173   6.219
 3141POPC   C2B41420  35.414  22.058   6.593
 3141POPC   C3B41421  35.625  22.239   6.914
 3141POPC   C4B41422  35.776  22.580   7.138
 3142POPC   NC341423   1.001  24.041   5.416
 3142POPC   PO441424   1.450  24.430   5.443
 3142POPC   GL141425   1.275  24.446   5.839
 3142POPC   GL241426   0.975  24.621   5.886
 3142POPC   C1A41427   1.288  24.563   6.288
 3142POPC   D2A41428   1.380  24.753   6.653
 3142POPC   C3A41429   1.360  24.524   7.001
 3142POPC   C4A41430   1.081  24.615   7.289
 3142POPC   C1B41431   0.778  24.645   6.306
 3142POPC   C2B41432   0.887  24.505   6.744
 3142POPC   C3B41433   0.980  24.180   7.061
 3142POPC   C4B41434   1.051  24.124   7.510
 3143POPC   NC341435  35.818   2.262   5.298
 3143POPC   PO441436  36.063   1.672   5.238
 3143POPC   GL141437  36.121   1.816   5.680
 3143POPC   GL241438  36.478   1.732   5.742
 3143POPC   C1A41439  35.985   1.982   6.108
 3143POPC   D2A41440  36.216   2.021   6.502
 3143POPC   C3A41441  35.960   2.063   6.856
 3143POPC   C4A41442  35.952   2.016   7.255
 3143POPC   C1B41443  36.343   1.638   6.156
 3143POPC   C2B41444  36.385   1.535   6.590
 3143POPC   C3B41445  36.371   1.746   6.983
 3143POPC   C4B41446  36.356   1.675   7.419
 3144POPC   NC341447  36.498  17.556   5.560
 3144POPC   PO441448  36.069  17.199   5.228
 3144POPC   GL141449  36.054  17.324   5.709
 3144POPC   GL241450  36.037  17.709   5.804
 3144POPC   C1A41451  36.224  17.428   6.173
 3144POPC   D2A41452  36.260  17.536   6.639
 3144POPC   C3A41453  35.964  17.412   6.935
 3144POPC   C4A41454  36.169  17.220   7.270
 3144POPC   C1B41455  36.077  17.936   6.249
 3144POPC   C2B41456  35.962  17.947   6.732
 3144POPC   C3B41457  35.750  17.894   7.150
 3144POPC   C4B41458  35.645  17.717   7.588
 3145POPC   NC341459  31.058  15.145   5.482
 3145POPC   PO441460  30.401  15.319   5.603
 3145POPC   GL141461  30.717  15.150   5.870
 3145POPC   GL241462  31.015  15.411   5.913
 3145POPC   C1A41463  30.562  14.945   6.251
 3145POPC   D2A41464  30.512  14.689   6.620
 3145POPC   C3A41465  30.445  14.980   6.972
 3145POPC   C4A41466  30.544  15.224   7.324
 3145POPC   C1B41467  31.033  15.126   6.275
 3145POPC   C2B41468  30.891  15.026   6.712
 3145POPC   C3B41469  30.990  15.285   7.077
 3145POPC   C4B41470  31.168  15.709   7.114
 3146POPC   NC341471  28.088  39.026   5.542
 3146POPC   PO441472  28.677  39.277   5.345
 3146POPC   GL141473  28.432  39.353   5.738
 3146POPC   GL241474  28.094  39.532   5.701
 3146POPC   C1A41475  28.459  39.103   6.158
 3146POPC   D2A41476  28.538  39.214   6.605
 3146POPC   C3A41477  28.449  39.042   7.026
 3146POPC   C4A41478  28.292  39.200   7.399
 3146POPC   C1B41479  28.091  39.447   6.132
 3146POPC   C2B41480  28.179  39.601   6.550
 3146POPC   C3B41481  28.269  39.524   6.980
 3146POPC   C4B41482  28.100  39.677   7.382
 3147POPC   NC341483   0.778  40.689   5.563
 3147POPC   PO441484   0.351  41.209   5.619
 3147POPC   GL141485   0.452  40.909   5.892
 3147POPC   GL241486   0.323  40.577   5.822
 3147POPC   C1A41487   0.599  40.798   6.245
 3147POPC   D2A41488   0.756  40.548   6.537
 3147POPC   C3A41489   0.691  40.806   6.887
 3147POPC   C4A41490   0.570  40.779   7.286
 3147POPC   C1B41491   0.285  40.363   6.236
 3147POPC   C2B41492   0.342  40.279   6.660
 3147POPC   C3B41493   0.513  40.322   7.047
 3147POPC   C4B41494   0.287  40.379   7.447
 3148POPC   NC341495  41.356  15.106   5.121
 3148POPC   PO441496  41.927  15.285   5.507
 3148POPC   GL141497  41.482  15.331   5.710
 3148POPC   GL241498  41.418  15.027   5.831
 3148POPC   C1A41499  41.311  15.359   6.189
 3148POPC   D2A41500  41.546  15.264   6.602
 3148POPC   C3A41501  41.454  15.153   7.037
 3148POPC   C4A41502  41.454  15.355   7.457
 3148POPC   C1B41503  41.740  15.081   6.158
 3148POPC   C2B41504  41.872  14.862   6.542
 3148POPC   C3B41505  41.889  14.850   7.000
 3148POPC   C4B41506  41.768  14.954   7.430
 3149POPC   NC341507  10.047  41.790   5.053
 3149POPC   PO441508   9.564  41.486   5.437
 3149POPC   GL141509   9.881  41.426   5.752
 3149POPC   GL241510  10.055  41.104   5.679
 3149POPC   C1A41511   9.904  41.636   6.182
 3149POPC   D2A41512   9.646  41.814   6.508
 3149POPC   C3A41513   9.690  41.608   6.888
 3149POPC   C4A41514   9.491  41.653   7.279
 3149POPC   C1B41515  10.006  41.113   6.124
 3149POPC   C2B41516   9.951  41.267   6.528
 3149POPC   C3B41517  10.072  41.254   6.933
 3149POPC   C4B41518   9.873  41.335   7.295
 3150POPC   NC341519  35.961   5.634   5.697
 3150POPC   PO441520  36.488   5.882   5.394
 3150POPC   GL141521  36.409   5.826   5.849
 3150POPC   GL241522  36.555   5.510   5.933
 3150POPC   C1A41523  36.182   5.832   6.279
 3150POPC   D2A41524  35.770   5.735   6.496
 3150POPC   C3A41525  35.839   5.646   6.935
 3150POPC   C4A41526  35.965   6.038   7.142
 3150POPC   C1B41527  36.473   5.365   6.339
 3150POPC   C2B41528  36.253   5.506   6.663
 3150POPC   C3B41529  36.346   5.761   6.961
 3150POPC   C4B41530  36.499   5.674   7.352
 3151POPC   NC341531  22.174   6.614   5.340
 3151POPC   PO441532  21.914   6.872   5.956
 3151POPC   GL141533  22.226   6.562   6.004
 3151POPC   GL241534  22.484   6.639   5.787
 3151POPC   C1A41535  22.262   6.485   6.445
 3151POPC   D2A41536  22.094   6.761   6.752
 3151POPC   C3A41537  22.051   6.628   7.152
 3151POPC   C4A41538  21.882   6.262   7.149
 3151POPC   C1B41539  22.681   6.726   6.211
 3151POPC   C2B41540  22.585   6.896   6.629
 3151POPC   C3B41541  22.539   6.684   7.035
 3151POPC   C4B41542  22.531   6.727   7.503
 3152POPC   NC341543  41.158  22.346   5.386
 3152POPC   PO441544  41.475  21.829   5.196
 3152POPC   GL141545  41.565  22.126   5.617
 3152POPC   GL241546  41.311  22.346   5.863
 3152POPC   C1A41547  41.717  22.146   6.067
 3152POPC   D2A41548  41.756  21.967   6.500
 3152POPC   C3A41549  41.581  22.205   6.842
 3152POPC   C4A41550  41.533  22.150   7.273
 3152POPC   C1B41551  41.421  22.550   6.281
 3152POPC   C2B41552  41.320  22.623   6.728
 3152POPC   C3B41553  41.441  22.646   7.185
 3152POPC   C4B41554  41.296  22.496   7.602
 3153POPC   NC341555   7.405  37.238   5.383
 3153POPC   PO441556   7.684  36.562   5.523
 3153POPC   GL141557   7.554  36.910   5.783
 3153POPC   GL241558   7.866  36.871   5.940
 3153POPC   C1A41559   7.342  37.072   6.144
 3153POPC   D2A41560   7.253  36.888   6.551
 3153POPC   C3A41561   7.351  37.018   6.957
 3153POPC   C4A41562   7.250  36.650   7.185
 3153POPC   C1B41563   7.769  36.857   6.355
 3153POPC   C2B41564   7.738  36.749   6.770
 3153POPC   C3B41565   7.751  36.729   7.222
 3153POPC   C4B41566   7.888  36.717   7.673
 3154POPC   NC341567  18.652   5.318   5.430
 3154POPC   PO441568  18.074   4.848   5.464
 3154POPC   GL141569  18.160   5.096   5.832
 3154POPC   GL241570  18.513   5.183   5.902
 3154POPC   C1A41571  18.130   5.235   6.245
 3154POPC   D2A41572  18.407   5.118   6.579
 3154POPC   C3A41573  18.192   5.214   6.908
 3154POPC   C4A41574  18.091   5.141   7.296
 3154POPC   C1B41575  18.606   5.458   6.254
 3154POPC   C2B41576  18.415   5.624   6.654
 3154POPC   C3B41577  18.597   5.524   7.043
 3154POPC   C4B41578  18.465   5.436   7.436
 3155POPC   NC341579  14.444  17.110   5.386
 3155POPC   PO441580  14.219  16.484   5.249
 3155POPC   GL141581  14.146  16.664   5.701
 3155POPC   GL241582  14.046  17.037   5.774
 3155POPC   C1A41583  14.417  16.557   6.080
 3155POPC   D2A41584  14.568  16.739   6.474
 3155POPC   C3A41585  14.333  16.640   6.825
 3155POPC   C4A41586  14.556  16.547   7.190
 3155POPC   C1B41587  14.214  17.003   6.202
 3155POPC   C2B41588  14.369  17.218   6.579
 3155POPC   C3B41589  14.524  17.093   6.985
 3155POPC   C4B41590  14.236  16.957   7.242
 3156POPC   NC341591   0.018  29.030   5.380
 3156POPC   PO441592  44.463  29.420   5.555
 3156POPC   GL141593  44.824  29.279   5.790
 3156POPC   GL241594  44.689  28.917   5.743
 3156POPC   C1A41595   0.024  29.321   6.226
 3156POPC   D2A41596  44.751  29.244   6.590
 3156POPC   C3A41597  44.686  29.428   6.991
 3156POPC   C4A41598  44.610  29.243   7.407
 3156POPC   C1B41599  44.701  28.917   6.186
 3156POPC   C2B41600  44.630  28.747   6.598
 3156POPC   C3B41601  44.671  28.894   7.011
 3156POPC   C4B41602  44.947  28.838   7.333
 3157POPC   NC341603  20.932   1.299   5.487
 3157POPC   PO441604  21.494   0.977   5.278
 3157POPC   GL141605  21.462   1.328   5.603
 3157POPC   GL241606  21.325   1.648   5.744
 3157POPC   C1A41607  21.518   1.283   6.057
 3157POPC   D2A41608  21.572   1.041   6.415
 3157POPC   C3A41609  21.316   1.112   6.741
 3157POPC   C4A41610  21.308   1.090   7.169
 3157POPC   C1B41611  21.183   1.658   6.186
 3157POPC   C2B41612  21.051   1.512   6.596
 3157POPC   C3B41613  21.292   1.575   6.993
 3157POPC   C4B41614  21.717   1.404   7.125
 3158POPC   NC341615  13.935   7.649   5.660
 3158POPC   PO441616  13.321   7.377   5.470
 3158POPC   GL141617  13.468   7.453   5.880
 3158POPC   GL241618  13.731   7.221   5.897
 3158POPC   C1A41619  13.670   7.626   6.262
 3158POPC   D2A41620  13.649   7.750   6.687
 3158POPC   C3A41621  13.896   7.773   7.089
 3158POPC   C4A41622  13.722   7.666   7.522
 3158POPC   C1B41623  14.000   7.243   6.249
 3158POPC   C2B41624  13.816   7.241   6.637
 3158POPC   C3B41625  13.649   7.352   7.022
 3158POPC   C4B41626  13.894   7.230   7.388
 3159POPC   NC341627  22.139   2.320   5.436
 3159POPC   PO441628  21.966   1.628   5.516
 3159POPC   GL141629  22.203   1.789   5.880
 3159POPC   GL241630  22.274   2.170   5.909
 3159POPC   C1A41631  22.236   1.829   6.325
 3159POPC   D2A41632  22.459   1.842   6.728
 3159POPC   C3A41633  22.198   1.627   7.025
 3159POPC   C4A41634  22.316   1.677   7.457
 3159POPC   C1B41635  22.183   2.352   6.272
 3159POPC   C2B41636  22.087   2.193   6.661
 3159POPC   C3B41637  22.188   2.134   7.059
 3159POPC   C4B41638  21.918   2.373   7.247
 3160POPC   NC341639  22.280  21.291   5.484
 3160POPC   PO441640  22.190  21.877   5.264
 3160POPC   GL141641  22.299  21.751   5.738
 3160POPC   GL241642  22.009  21.556   5.834
 3160POPC   C1A41643  22.344  21.602   6.209
 3160POPC   D2A41644  21.988  21.479   6.506
 3160POPC   C3A41645  21.993  21.653   6.904
 3160POPC   C4A41646  22.291  21.657   7.221
 3160POPC   C1B41647  21.996  21.162   6.105
 3160POPC   C2B41648  21.854  20.971   6.513
 3160POPC   C3B41649  21.999  21.116   6.910
 3160POPC   C4B41650  21.867  21.336   7.258
 3161POPC   NC341651   9.298   2.406   5.497
 3161POPC   PO441652  10.011   2.683   5.542
 3161POPC   GL141653   9.923   2.798   5.912
 3161POPC   GL241654   9.603   2.614   5.900
 3161POPC   C1A41655   9.937   2.543   6.280
 3161POPC   D2A41656   9.767   2.464   6.709
 3161POPC   C3A41657   9.861   2.826   6.945
 3161POPC   C4A41658  10.083   3.004   7.297
 3161POPC   C1B41659   9.550   2.906   6.254
 3161POPC   C2B41660   9.506   3.162   6.634
 3161POPC   C3B41661   9.452   3.102   7.082
 3161POPC   C4B41662   9.430   2.673   7.205
 3162POPC   NC341663  31.619  24.220   5.445
 3162POPC   PO441664  31.255  24.829   5.417
 3162POPC   GL141665  31.448  24.585   5.769
 3162POPC   GL241666  31.267  24.293   5.942
 3162POPC   C1A41667  31.584  24.602   6.189
 3162POPC   D2A41668  31.525  24.435   6.588
 3162POPC   C3A41669  31.260  24.643   6.832
 3162POPC   C4A41670  31.315  24.710   7.222
 3162POPC   C1B41671  31.552  24.051   6.238
 3162POPC   C2B41672  31.662  23.960   6.703
 3162POPC   C3B41673  31.512  24.151   7.122
 3162POPC   C4B41674  31.600  24.203   7.597
 3163POPC   NC341675  22.398  25.338   5.450
 3163POPC   PO441676  21.880  24.908   5.239
 3163POPC   GL141677  21.951  25.067   5.705
 3163POPC   GL241678  22.299  25.003   5.852
 3163POPC   C1A41679  21.930  25.336   6.149
 3163POPC   D2A41680  21.946  25.358   6.653
 3163POPC   C3A41681  22.320  25.501   6.910
 3163POPC   C4A41682  22.469  25.484   7.365
 3163POPC   C1B41683  22.047  24.846   6.179
 3163POPC   C2B41684  22.115  24.847   6.573
 3163POPC   C3B41685  22.401  24.962   6.854
 3163POPC   C4B41686  22.166  25.103   7.187
 3164POPC   NC341687  21.395  26.755   5.356
 3164POPC   PO441688  21.516  26.202   5.669
 3164POPC   GL141689  21.393  26.618   5.850
 3164POPC   GL241690  21.559  26.982   5.816
 3164POPC   C1A41691  21.262  26.825   6.221
 3164POPC   D2A41692  21.411  26.719   6.616
 3164POPC   C3A41693  21.210  26.802   6.990
 3164POPC   C4A41694  21.530  26.571   7.194
 3164POPC   C1B41695  21.624  27.190   6.248
 3164POPC   C2B41696  21.764  27.092   6.690
 3164POPC   C3B41697  21.624  27.077   7.157
 3164POPC   C4B41698  21.659  27.228   7.616
 3165POPC   NC341699  11.663  40.830   5.527
 3165POPC   PO441700  12.237  40.503   5.346
 3165POPC   GL141701  12.150  40.714   5.776
 3165POPC   GL241702  12.069  41.056   5.748
 3165POPC   C1A41703  11.981  40.768   6.212
 3165POPC   D2A41704  11.769  40.432   6.494
 3165POPC   C3A41705  11.855  40.450   6.962
 3165POPC   C4A41706  12.060  40.697   7.314
 3165POPC   C1B41707  12.226  41.222   6.128
 3165POPC   C2B41708  12.132  41.194   6.538
 3165POPC   C3B41709  12.168  40.998   6.920
 3165POPC   C4B41710  12.401  41.079   7.313
 3166POPC   NC341711   4.628  16.508   5.545
 3166POPC   PO441712   4.528  15.858   5.492
 3166POPC   GL141713   4.331  15.956   5.855
 3166POPC   GL241714   4.532  16.253   5.977
 3166POPC   C1A41715   4.211  15.674   6.195
 3166POPC   D2A41716   4.198  15.780   6.595
 3166POPC   C3A41717   4.250  15.553   6.947
 3166POPC   C4A41718   4.321  15.827   7.247
 3166POPC   C1B41719   4.192  16.211   6.253
 3166POPC   C2B41720   3.948  16.222   6.576
 3166POPC   C3B41721   4.115  16.256   6.973
 3166POPC   C4B41722   3.848  16.220   7.285
 3167POPC   NC341723  27.739   1.884   5.492
 3167POPC   PO441724  27.166   2.331   5.348
 3167POPC   GL141725  27.365   2.229   5.748
 3167POPC   GL241726  27.378   1.872   5.852
 3167POPC   C1A41727  27.533   2.284   6.185
 3167POPC   D2A41728  27.671   2.114   6.581
 3167POPC   C3A41729  27.517   2.227   6.983
 3167POPC   C4A41730  27.148   2.013   7.121
 3167POPC   C1B41731  27.611   1.735   6.240
 3167POPC   C2B41732  27.473   1.672   6.685
 3167POPC   C3B41733  27.596   1.723   7.107
 3167POPC   C4B41734  27.733   1.504   7.462
 3168POPC   NC341735  23.067  35.065   5.251
 3168POPC   PO441736  22.780  35.654   5.490
 3168POPC   GL141737  22.932  35.355   5.824
 3168POPC   GL241738  22.875  35.008   5.708
 3168POPC   C1A41739  23.135  35.375   6.262
 3168POPC   D2A41740  23.146  35.380   6.725
 3168POPC   C3A41741  22.781  35.426   6.957
 3168POPC   C4A41742  23.018  35.601   7.261
 3168POPC   C1B41743  22.829  34.899   6.124
 3168POPC   C2B41744  22.768  35.094   6.511
 3168POPC   C3B41745  22.904  34.939   6.874
 3168POPC   C4B41746  22.990  35.053   7.254
 3169POPC   NC341747   6.604  33.671   5.357
 3169POPC   PO441748   6.602  34.308   5.472
 3169POPC   GL141749   6.478  33.933   5.803
 3169POPC   GL241750   6.464  33.529   5.819
 3169POPC   C1A41751   6.679  33.844   6.231
 3169POPC   D2A41752   6.894  34.079   6.590
 3169POPC   C3A41753   6.770  33.933   7.005
 3169POPC   C4A41754   6.878  33.865   7.426
 3169POPC   C1B41755   6.377  33.391   6.235
 3169POPC   C2B41756   6.423  33.587   6.616
 3169POPC   C3B41757   6.291  33.783   6.950
 3169POPC   C4B41758   6.425  33.651   7.337
 3170POPC   NC341759  38.081   9.218   5.380
 3170POPC   PO441760  37.499   8.939   5.446
 3170POPC   GL141761  37.663   8.862   5.866
 3170POPC   GL241762  37.953   9.031   5.851
 3170POPC   C1A41763  37.817   8.925   6.327
 3170POPC   D2A41764  37.846   9.189   6.689
 3170POPC   C3A41765  37.886   8.888   6.986
 3170POPC   C4A41766  37.656   8.742   7.302
 3170POPC   C1B41767  37.629   9.321   6.092
 3170POPC   C2B41768  37.385   9.162   6.467
 3170POPC   C3B41769  37.395   9.091   6.917
 3170POPC   C4B41770  37.645   9.299   7.245
 3171POPC   NC341771   1.311  41.809   5.331
 3171POPC   PO441772   1.106  41.128   5.367
 3171POPC   GL141773   1.144  41.371   5.775
 3171POPC   GL241774   1.303  41.709   5.816
 3171POPC   C1A41775   1.213  41.444   6.231
 3171POPC   D2A41776   0.925  41.561   6.538
 3171POPC   C3A41777   1.020  41.663   6.906
 3171POPC   C4A41778   1.188  41.549   7.261
 3171POPC   C1B41779   1.500  41.975   6.128
 3171POPC   C2B41780   1.419  41.811   6.537
 3171POPC   C3B41781   1.400  41.981   6.926
 3171POPC   C4B41782   1.525  41.913   7.306
 3172POPC   NC341783  42.565  11.641   5.367
 3172POPC   PO441784  43.086  11.149   5.332
 3172POPC   GL141785  43.159  11.247   5.781
 3172POPC   GL241786  42.849  11.429   5.754
 3172POPC   C1A41787  43.359  11.218   6.215
 3172POPC   D2A41788  43.546  11.251   6.641
 3172POPC   C3A41789  43.272  11.126   6.967
 3172POPC   C4A41790  43.015  11.195   7.279
 3172POPC   C1B41791  42.846  11.386   6.177
 3172POPC   C2B41792  42.977  11.282   6.572
 3172POPC   C3B41793  42.858  11.539   6.884
 3172POPC   C4B41794  42.657  11.578   7.239
 3173POPC   NC341795  20.158  11.518   5.462
 3173POPC   PO441796  19.425  11.410   5.346
 3173POPC   GL141797  19.726  11.488   5.744
 3173POPC   GL241798  19.859  11.165   5.823
 3173POPC   C1A41799  19.925  11.580   6.213
 3173POPC   D2A41800  19.776  11.816   6.636
 3173POPC   C3A41801  19.677  11.750   7.092
 3173POPC   C4A41802  19.825  11.582   7.523
 3173POPC   C1B41803  19.711  11.118   6.264
 3173POPC   C2B41804  19.953  11.214   6.621
 3173POPC   C3B41805  19.895  11.304   7.046
 3173POPC   C4B41806  19.733  11.056   7.358
 3174POPC   NC341807  43.507  40.474   5.163
 3174POPC   PO441808  43.630  39.894   5.171
 3174POPC   GL141809  43.818  39.958   5.662
 3174POPC   GL241810  44.025  39.668   5.703
 3174POPC   C1A41811  43.827  40.053   6.140
 3174POPC   D2A41812  43.631  40.028   6.592
 3174POPC   C3A41813  43.854  40.099   6.977
 3174POPC   C4A41814  43.629  40.428   7.228
 3174POPC   C1B41815  44.026  39.549   6.127
 3174POPC   C2B41816  44.037  39.745   6.526
 3174POPC   C3B41817  44.107  39.615   6.913
 3174POPC   C4B41818  43.958  39.562   7.296
 3175POPC   NC341819  11.965   8.735   5.058
 3175POPC   PO441820  12.067   8.175   5.446
 3175POPC   GL141821  12.039   8.222   5.887
 3175POPC   GL241822  12.140   8.560   5.904
 3175POPC   C1A41823  12.163   8.217   6.305
 3175POPC   D2A41824  12.235   7.908   6.592
 3175POPC   C3A41825  12.253   8.016   7.011
 3175POPC   C4A41826  12.010   7.837   7.322
 3175POPC   C1B41827  11.814   8.609   6.229
 3175POPC   C2B41828  11.788   8.366   6.632
 3175POPC   C3B41829  11.916   8.410   7.069
 3175POPC   C4B41830  11.796   8.548   7.481
 3176POPC   NC341831   3.165  17.551   5.528
 3176POPC   PO441832   2.679  17.165   5.554
 3176POPC   GL141833   2.836  17.381   5.893
 3176POPC   GL241834   2.913  17.739   5.929
 3176POPC   C1A41835   2.664  17.297   6.259
 3176POPC   D2A41836   2.492  17.354   6.612
 3176POPC   C3A41837   2.599  17.190   6.963
 3176POPC   C4A41838   2.610  17.339   7.339
 3176POPC   C1B41839   2.544  17.818   6.193
 3176POPC   C2B41840   2.515  18.019   6.601
 3176POPC   C3B41841   2.495  17.749   6.951
 3176POPC   C4B41842   2.723  17.826   7.257
 3177POPC   NC341843   2.202  43.886   5.295
 3177POPC   PO441844   1.618  43.505   5.219
 3177POPC   GL141845   1.935  43.583   5.611
 3177POPC   GL241846   2.036  43.946   5.771
 3177POPC   C1A41847   2.018  43.567   6.083
 3177POPC   D2A41848   1.867  43.574   6.522
 3177POPC   C3A41849   2.125  43.616   6.887
 3177POPC   C4A41850   2.041  43.560   7.312
 3177POPC   C1B41851   1.815  44.031   6.202
 3177POPC   C2B41852   1.825  44.056   6.677
 3177POPC   C3B41853   1.894  44.024   7.129
 3177POPC   C4B41854   1.660  44.198   7.480
 3178POPC   NC341855  37.532  42.312   5.329
 3178POPC   PO441856  38.158  42.479   5.242
 3178POPC   GL141857  37.888  42.478   5.704
 3178POPC   GL241858  37.708  42.208   5.838
 3178POPC   C1A41859  37.727  42.536   6.215
 3178POPC   D2A41860  37.525  42.333   6.588
 3178POPC   C3A41861  37.537  42.472   7.002
 3178POPC   C4A41862  37.739  42.415   7.351
 3178POPC   C1B41863  37.649  41.981   6.243
 3178POPC   C2B41864  37.736  41.759   6.638
 3178POPC   C3B41865  37.764  42.008   7.016
 3178POPC   C4B41866  37.452  41.990   7.358
 3179POPC   NC341867   4.123  23.788   5.124
 3179POPC   PO441868   4.553  23.318   5.251
 3179POPC   GL141869   4.421  23.531   5.714
 3179POPC   GL241870   4.220  23.854   5.740
 3179POPC   C1A41871   4.288  23.515   6.218
 3179POPC   D2A41872   4.068  23.540   6.681
 3179POPC   C3A41873   4.339  23.632   7.081
 3179POPC   C4A41874   4.648  23.602   7.478
 3179POPC   C1B41875   4.195  24.012   6.196
 3179POPC   C2B41876   4.338  23.971   6.648
 3179POPC   C3B41877   4.159  24.105   7.062
 3179POPC   C4B41878   4.321  24.001   7.475
 3180POPC   NC341879   9.150  41.700   5.484
 3180POPC   PO441880   8.590  41.263   5.384
 3180POPC   GL141881   8.813  41.400   5.720
 3180POPC   GL241882   9.109  41.184   5.595
 3180POPC   C1A41883   8.930  41.650   6.115
 3180POPC   D2A41884   9.123  41.826   6.507
 3180POPC   C3A41885   9.179  41.590   6.875
 3180POPC   C4A41886   8.981  41.582   7.294
 3180POPC   C1B41887   9.067  41.122   6.048
 3180POPC   C2B41888   9.027  41.295   6.460
 3180POPC   C3B41889   8.943  41.158   6.870
 3180POPC   C4B41890   8.971  41.051   7.273
 3181POPC   NC341891  25.502  24.019   5.545
 3181POPC   PO441892  25.550  23.317   5.631
 3181POPC   GL141893  25.221  23.646   5.835
 3181POPC   GL241894  25.275  23.966   5.982
 3181POPC   C1A41895  24.993  23.692   6.270
 3181POPC   D2A41896  25.216  23.758   6.643
 3181POPC   C3A41897  25.060  23.846   7.054
 3181POPC   C4A41898  25.178  23.576   7.399
 3181POPC   C1B41899  25.297  24.199   6.367
 3181POPC   C2B41900  25.258  24.265   6.810
 3181POPC   C3B41901  25.528  24.234   7.160
 3181POPC   C4B41902  25.403  23.994   7.497
 3182POPC   NC341903  24.935  19.710   5.413
 3182POPC   PO441904  25.544  20.016   5.441
 3182POPC   GL141905  25.272  19.910   5.770
 3182POPC   GL241906  25.518  19.609   5.778
 3182POPC   C1A41907  25.143  20.084   6.196
 3182POPC   D2A41908  24.951  20.001   6.651
 3182POPC   C3A41909  25.091  19.831   7.044
 3182POPC   C4A41910  25.166  19.903   7.490
 3182POPC   C1B41911  25.648  19.933   6.106
 3182POPC   C2B41912  25.529  19.940   6.530
 3182POPC   C3B41913  25.601  19.860   6.950
 3182POPC   C4B41914  25.596  20.122   7.334
 3183POPC   NC341915  26.980   5.640   5.493
 3183POPC   PO441916  26.762   6.275   5.376
 3183POPC   GL141917  26.725   6.057   5.776
 3183POPC   GL241918  26.390   5.871   5.854
 3183POPC   C1A41919  26.828   5.829   6.158
 3183POPC   D2A41920  26.637   5.870   6.537
 3183POPC   C3A41921  26.792   5.787   6.929
 3183POPC   C4A41922  26.554   5.969   7.236
 3183POPC   C1B41923  26.308   5.583   6.247
 3183POPC   C2B41924  26.472   5.390   6.680
 3183POPC   C3B41925  26.439   5.471   7.153
 3183POPC   C4B41926  26.509   5.594   7.600
 3184POPC   NC341927  26.533  32.262   5.395
 3184POPC   PO441928  27.182  32.366   5.492
 3184POPC   GL141929  26.859  32.329   5.832
 3184POPC   GL241930  26.600  32.074   5.921
 3184POPC   C1A41931  26.837  32.303   6.292
 3184POPC   D2A41932  27.057  32.115   6.635
 3184POPC   C3A41933  26.883  32.223   7.025
 3184POPC   C4A41934  26.812  32.215   7.454
 3184POPC   C1B41935  26.360  32.100   6.327
 3184POPC   C2B41936  26.473  31.999   6.772
 3184POPC   C3B41937  26.598  31.818   7.210
 3184POPC   C4B41938  26.583  31.856   7.721
 3185POPC   NC341939  23.696  27.378   5.541
 3185POPC   PO441940  24.070  27.903   5.556
 3185POPC   GL141941  23.963  27.601   5.921
 3185POPC   GL241942  24.025  27.219   5.898
 3185POPC   C1A41943  23.742  27.713   6.302
 3185POPC   D2A41944  23.829  27.999   6.636
 3185POPC   C3A41945  24.014  27.810   6.991
 3185POPC   C4A41946  23.745  27.899   7.335
 3185POPC   C1B41947  23.799  27.189   6.293
 3185POPC   C2B41948  23.869  27.383   6.703
 3185POPC   C3B41949  23.612  27.488   7.054
 3185POPC   C4B41950  23.459  27.454   7.488
 3186POPC   NC341951   3.808  43.393   5.656
 3186POPC   PO441952   4.382  43.290   5.418
 3186POPC   GL141953   4.350  43.101   5.800
 3186POPC   GL241954   4.057  43.061   5.949
 3186POPC   C1A41955   4.389  43.285   6.235
 3186POPC   D2A41956   4.409  43.061   6.602
 3186POPC   C3A41957   4.218  43.199   6.956
 3186POPC   C4A41958   4.211  43.333   7.350
 3186POPC   C1B41959   3.860  42.790   6.252
 3186POPC   C2B41960   4.103  42.623   6.563
 3186POPC   C3B41961   4.262  42.686   6.939
 3186POPC   C4B41962   3.973  42.825   7.256
 3187POPC   NC341963  11.164  20.409   5.412
 3187POPC   PO441964  11.567  20.939   5.530
 3187POPC   GL141965  11.419  20.679   5.898
 3187POPC   GL241966  11.148  20.428   5.920
 3187POPC   C1A41967  11.502  20.464   6.296
 3187POPC   D2A41968  11.381  20.316   6.680
 3187POPC   C3A41969  11.307  20.697   6.865
 3187POPC   C4A41970  11.542  20.868   7.161
 3187POPC   C1B41971  10.790  20.201   6.114
 3187POPC   C2B41972  10.709  20.130   6.563
 3187POPC   C3B41973  10.875  20.417   6.856
 3187POPC   C4B41974  11.160  20.380   7.226
 3188POPC   NC341975  42.470  24.721   5.410
 3188POPC   PO441976  42.066  24.274   5.266
 3188POPC   GL141977  42.217  24.335   5.769
 3188POPC   GL241978  42.408  24.628   5.909
 3188POPC   C1A41979  42.292  24.302   6.271
 3188POPC   D2A41980  42.173  24.557   6.643
 3188POPC   C3A41981  42.298  24.352   7.007
 3188POPC   C4A41982  42.335  24.403   7.460
 3188POPC   C1B41983  42.674  24.686   6.294
 3188POPC   C2B41984  42.815  24.633   6.711
 3188POPC   C3B41985  42.617  24.740   7.100
 3188POPC   C4B41986  42.681  24.756   7.592
 3189POPC   NC341987   5.606  41.496   5.434
 3189POPC   PO441988   6.288  41.559   5.521
 3189POPC   GL141989   6.096  41.359   5.834
 3189POPC   GL241990   5.859  41.629   5.860
 3189POPC   C1A41991   6.130  41.435   6.280
 3189POPC   D2A41992   5.992  41.634   6.640
 3189POPC   C3A41993   6.116  41.469   7.021
 3189POPC   C4A41994   5.763  41.389   7.242
 3189POPC   C1B41995   5.866  41.889   6.215
 3189POPC   C2B41996   5.636  42.019   6.575
 3189POPC   C3B41997   5.741  41.897   7.002
 3189POPC   C4B41998   5.988  41.858   7.376
 3190POPC   NC341999  12.314  15.988   5.048
 3190POPC   PO442000  12.859  15.696   5.014
 3190POPC   GL142001  12.640  15.823   5.573
 3190POPC   GL242002  12.976  15.994   5.780
 3190POPC   C1A42003  12.617  15.849   6.091
 3190POPC   D2A42004  12.702  16.064   6.529
 3190POPC   C3A42005  12.653  15.816   6.876
 3190POPC   C4A42006  12.617  15.723   7.290
 3190POPC   C1B42007  13.138  15.991   6.228
 3190POPC   C2B42008  13.055  15.702   6.556
 3190POPC   C3B42009  13.091  15.575   7.013
 3190POPC   C4B42010  13.116  15.757   7.442
 3191POPC   NC342011  44.941   1.526   5.487
 3191POPC   PO442012  44.623   0.880   5.414
 3191POPC   GL142013  44.643   1.149   5.757
 3191POPC   GL242014  44.423   1.446   5.701
 3191POPC   C1A42015  44.619   1.073   6.194
 3191POPC   D2A42016  44.448   1.056   6.606
 3191POPC   C3A42017  44.678   0.797   6.888
 3191POPC   C4A42018  44.993   0.991   7.165
 3191POPC   C1B42019  44.324   1.698   6.075
 3191POPC   C2B42020  44.416   1.734   6.523
 3191POPC   C3B42021  44.497   1.485   6.890
 3191POPC   C4B42022  44.697   1.388   7.292
 3192POPC   NC342023  22.493  41.327   5.554
 3192POPC   PO442024  23.159  41.534   5.462
 3192POPC   GL142025  23.036  41.692   5.866
 3192POPC   GL242026  22.673  41.746   5.880
 3192POPC   C1A42027  22.948  41.566   6.283
 3192POPC   D2A42028  23.149  41.417   6.615
 3192POPC   C3A42029  22.967  41.500   6.993
 3192POPC   C4A42030  23.176  41.286   7.305
 3192POPC   C1B42031  22.574  41.915   6.312
 3192POPC   C2B42032  22.660  41.887   6.768
 3192POPC   C3B42033  22.485  41.760   7.181
 3192POPC   C4B42034  22.522  41.920   7.662
 3193POPC   NC342035   6.829  31.493   5.659
 3193POPC   PO442036   6.313  31.145   5.782
 3193POPC   GL142037   6.446  31.444   6.042
 3193POPC   GL242038   6.388  31.732   5.856
 3193POPC   C1A42039   6.817  31.475   6.314
 3193POPC   D2A42040   6.992  31.479   6.702
 3193POPC   C3A42041   6.630  31.437   6.959
 3193POPC   C4A42042   6.678  31.229   7.345
 3193POPC   C1B42043   6.578  31.918   6.203
 3193POPC   C2B42044   6.473  31.806   6.617
 3193POPC   C3B42045   6.607  31.980   7.000
 3193POPC   C4B42046   6.717  31.738   7.349
 3194POPC   NC342047  10.119  24.411   5.445
 3194POPC   PO442048  10.730  24.143   5.369
 3194POPC   GL142049  10.527  24.335   5.747
 3194POPC   GL242050  10.819  24.300   5.906
 3194POPC   C1A42051  10.387  24.473   6.191
 3194POPC   D2A42052  10.326  24.711   6.577
 3194POPC   C3A42053  10.347  24.587   7.024
 3194POPC   C4A42054  10.049  24.584   7.363
 3194POPC   C1B42055  10.811  24.167   6.338
 3194POPC   C2B42056  10.730  24.386   6.729
 3194POPC   C3B42057  10.854  24.436   7.155
 3194POPC   C4B42058  10.531  24.385   7.473
 3195POPC   NC342059  37.481   5.726   5.506
 3195POPC   PO442060  37.741   6.331   5.390
 3195POPC   GL142061  37.750   6.045   5.779
 3195POPC   GL242062  37.426   6.112   5.845
 3195POPC   C1A42063  37.627   5.772   6.167
 3195POPC   D2A42064  37.834   5.684   6.559
 3195POPC   C3A42065  37.651   5.420   6.849
 3195POPC   C4A42066  37.671   5.493   7.243
 3195POPC   C1B42067  37.566   6.284   6.211
 3195POPC   C2B42068  37.607   6.139   6.615
 3195POPC   C3B42069  37.531   5.916   6.966
 3195POPC   C4B42070  37.470   5.934   7.404
 3196POPC   NC342071  25.920  20.262   5.535
 3196POPC   PO442072  25.915  20.897   5.469
 3196POPC   GL142073  26.180  20.658   5.760
 3196POPC   GL242074  25.919  20.526   5.965
 3196POPC   C1A42075  26.368  20.539   6.159
 3196POPC   D2A42076  26.138  20.626   6.535
 3196POPC   C3A42077  26.325  20.423   6.869
 3196POPC   C4A42078  26.168  20.303   7.219
 3196POPC   C1B42079  25.703  20.391   6.331
 3196POPC   C2B42080  25.812  20.299   6.769
 3196POPC   C3B42081  25.757  20.573   7.121
 3196POPC   C4B42082  25.592  20.586   7.540
 3197POPC   NC342083   0.489  43.238   5.529
 3197POPC   PO442084  44.896  43.116   5.098
 3197POPC   GL142085   0.027  43.098   5.694
 3197POPC   GL242086   0.377  43.000   5.933
 3197POPC   C1A42087   0.079  43.170   6.260
 3197POPC   D2A42088   0.408  43.105   6.601
 3197POPC   C3A42089   0.291  43.012   7.030
 3197POPC   C4A42090   0.267  43.296   7.359
 3197POPC   C1B42091   0.545  43.388   6.190
 3197POPC   C2B42092   0.682  43.537   6.626
 3197POPC   C3B42093   0.701  43.346   7.056
 3197POPC   C4B42094   0.761  43.339   7.534
 3198POPC   NC342095  16.222  41.930   5.470
 3198POPC   PO442096  15.662  42.264   5.570
 3198POPC   GL142097  15.846  42.485   5.909
 3198POPC   GL242098  16.099  42.197   5.921
 3198POPC   C1A42099  15.961  42.515   6.365
 3198POPC   D2A42100  15.935  42.269   6.760
 3198POPC   C3A42101  16.074  42.509   7.106
 3198POPC   C4A42102  15.767  42.607   7.425
 3198POPC   C1B42103  16.183  42.049   6.329
 3198POPC   C2B42104  16.431  42.113   6.715
 3198POPC   C3B42105  16.226  41.968   7.099
 3198POPC   C4B42106  15.868  42.099   7.309
 3199POPC   NC342107  25.564  41.276   5.501
 3199POPC   PO442108  26.243  41.427   5.424
 3199POPC   GL142109  26.116  41.409   5.872
 3199POPC   GL242110  26.221  41.732   6.035
 3199POPC   C1A42111  25.790  41.199   6.151
 3199POPC   D2A42112  25.754  41.062   6.592
 3199POPC   C3A42113  26.007  41.301   6.843
 3199POPC   C4A42114  25.997  41.618   7.143
 3199POPC   C1B42115  26.070  41.547   6.390
 3199POPC   C2B42116  25.877  41.789   6.674
 3199POPC   C3B42117  26.137  42.041   6.874
 3199POPC   C4B42118  26.419  41.929   7.192
 3200POPC   NC342119  16.141  26.159   5.462
 3200POPC   PO442120  15.737  25.582   5.311
 3200POPC   GL142121  15.859  25.699   5.778
 3200POPC   GL242122  15.783  26.075   5.863
 3200POPC   C1A42123  16.126  25.803   6.180
 3200POPC   D2A42124  16.025  26.170   6.435
 3200POPC   C3A42125  16.118  26.152   6.885
 3200POPC   C4A42126  16.287  26.457   7.140
 3200POPC   C1B42127  15.642  25.861   6.277
 3200POPC   C2B42128  15.789  25.797   6.715
 3200POPC   C3B42129  15.713  25.915   7.162
 3200POPC   C4B42130  15.737  25.690   7.576
 3201POPC   NC342131   6.230   7.442   5.452
 3201POPC   PO442132   6.869   7.251   5.338
 3201POPC   GL142133   6.745   7.363   5.760
 3201POPC   GL242134   6.772   7.724   5.770
 3201POPC   C1A42135   6.849   7.282   6.206
 3201POPC   D2A42136   6.653   7.381   6.582
 3201POPC   C3A42137   6.751   7.165   6.922
 3201POPC   C4A42138   6.583   7.374   7.255
 3201POPC   C1B42139   6.535   7.692   6.171
 3201POPC   C2B42140   6.631   7.896   6.571
 3201POPC   C3B42141   6.395   7.740   6.930
 3201POPC   C4B42142   6.244   7.744   7.333
 3202POPC   NC342143  13.865  18.660   5.157
 3202POPC   PO442144  13.598  18.103   5.428
 3202POPC   GL142145  13.500  18.306   5.853
 3202POPC   GL242146  13.229  18.067   5.958
 3202POPC   C1A42147  13.747  18.393   6.285
 3202POPC   D2A42148  13.944  18.231   6.684
 3202POPC   C3A42149  13.885  18.431   7.112
 3202POPC   C4A42150  13.988  18.421   7.588
 3202POPC   C1B42151  13.610  17.911   6.167
 3202POPC   C2B42152  13.586  17.863   6.611
 3202POPC   C3B42153  13.536  18.085   6.994
 3202POPC   C4B42154  13.725  18.007   7.369
 3203POPC   NC342155  12.500  21.375   5.164
 3203POPC   PO442156  11.875  21.615   5.342
 3203POPC   GL142157  11.894  21.348   5.740
 3203POPC   GL242158  12.264  21.290   5.801
 3203POPC   C1A42159  11.935  21.307   6.219
 3203POPC   D2A42160  12.161  21.264   6.626
 3203POPC   C3A42161  11.939  21.171   7.003
 3203POPC   C4A42162  11.777  21.205   7.440
 3203POPC   C1B42163  12.363  20.985   6.151
 3203POPC   C2B42164  12.419  20.804   6.587
 3203POPC   C3B42165  12.527  20.986   7.001
 3203POPC   C4B42166  12.369  21.318   7.262
 3204POPC   NC342167   8.836  34.742   5.269
 3204POPC   PO442168   8.422  34.288   5.525
 3204POPC   GL142169   8.681  34.604   5.789
 3204POPC   GL242170   9.045  34.686   5.718
 3204POPC   C1A42171   8.828  34.733   6.220
 3204POPC   D2A42172   8.931  34.805   6.663
 3204POPC   C3A42173   8.786  34.658   7.052
 3204POPC   C4A42174   9.039  34.810   7.370
 3204POPC   C1B42175   9.167  34.407   6.022
 3204POPC   C2B42176   9.152  34.288   6.437
 3204POPC   C3B42177   9.152  34.359   6.851
 3204POPC   C4B42178   9.081  34.281   7.282
 3205POPC   NC342179  14.498  10.888   5.195
 3205POPC   PO442180  13.993  11.384   5.296
 3205POPC   GL142181  14.165  11.199   5.695
 3205POPC   GL242182  14.439  11.403   5.833
 3205POPC   C1A42183  14.167  11.096   6.165
 3205POPC   D2A42184  14.271  11.310   6.567
 3205POPC   C3A42185  14.346  11.185   7.000
 3205POPC   C4A42186  14.300  11.411   7.380
 3205POPC   C1B42187  14.666  11.351   6.222
 3205POPC   C2B42188  14.747  11.586   6.590
 3205POPC   C3B42189  14.628  11.642   7.002
 3205POPC   C4B42190  14.801  11.370   7.298
 3206POPC   NC342191   6.720  14.803   5.392
 3206POPC   PO442192   6.830  15.404   5.542
 3206POPC   GL142193   6.691  15.213   5.905
 3206POPC   GL242194   6.453  14.977   5.823
 3206POPC   C1A42195   6.701  15.247   6.357
 3206POPC   D2A42196   6.684  15.006   6.730
 3206POPC   C3A42197   6.599  15.260   7.031
 3206POPC   C4A42198   6.739  15.598   7.208
 3206POPC   C1B42199   6.365  14.860   6.270
 3206POPC   C2B42200   6.373  14.614   6.659
 3206POPC   C3B42201   6.487  14.721   7.130
 3206POPC   C4B42202   6.743  14.665   7.561
 3207POPC   NC342203  42.079  39.313   5.357
 3207POPC   PO442204  42.516  39.838   5.344
 3207POPC   GL142205  42.592  39.412   5.655
 3207POPC   GL242206  42.297  39.280   5.811
 3207POPC   C1A42207  42.675  39.256   6.117
 3207POPC   D2A42208  42.436  39.296   6.482
 3207POPC   C3A42209  42.639  39.272   6.867
 3207POPC   C4A42210  42.483  39.215   7.256
 3207POPC   C1B42211  42.011  39.349   6.143
 3207POPC   C2B42212  41.924  39.171   6.528
 3207POPC   C3B42213  42.103  39.225   6.902
 3207POPC   C4B42214  41.965  39.398   7.252
 3208POPC   NC342215  28.681  42.917   5.483
 3208POPC   PO442216  28.128  43.358   5.367
 3208POPC   GL142217  28.227  43.343   5.778
 3208POPC   GL242218  28.560  43.350   5.760
 3208POPC   C1A42219  28.149  43.071   6.094
 3208POPC   D2A42220  28.357  42.922   6.459
 3208POPC   C3A42221  28.185  42.991   6.865
 3208POPC   C4A42222  28.363  42.931   7.266
 3208POPC   C1B42223  28.554  43.371   6.212
 3208POPC   C2B42224  28.698  43.273   6.649
 3208POPC   C3B42225  28.557  43.376   7.076
 3208POPC   C4B42226  28.613  43.315   7.537
 3209POPC   NC342227  32.223  29.090   5.295
 3209POPC   PO442228  32.233  29.670   5.539
 3209POPC   GL142229  32.204  29.314   5.848
 3209POPC   GL242230  32.251  28.947   5.783
 3209POPC   C1A42231  32.137  29.187   6.300
 3209POPC   D2A42232  32.056  29.400   6.706
 3209POPC   C3A42233  32.083  29.212   7.126
 3209POPC   C4A42234  32.110  29.344   7.594
 3209POPC   C1B42235  32.349  28.736   6.160
 3209POPC   C2B42236  32.529  28.767   6.572
 3209POPC   C3B42237  32.450  28.827   7.019
 3209POPC   C4B42238  32.522  29.103   7.358
 3210POPC   NC342239  25.167   2.969   5.431
 3210POPC   PO442240  25.519   2.463   5.679
 3210POPC   GL142241  25.455   2.861   5.880
 3210POPC   GL242242  25.096   2.851   5.926
 3210POPC   C1A42243  25.380   2.915   6.337
 3210POPC   D2A42244  25.346   2.588   6.625
 3210POPC   C3A42245  25.406   2.763   7.005
 3210POPC   C4A42246  25.524   2.684   7.413
 3210POPC   C1B42247  24.861   2.920   6.317
 3210POPC   C2B42248  24.890   2.807   6.745
 3210POPC   C3B42249  24.933   2.752   7.176
 3210POPC   C4B42250  25.066   2.830   7.590
 3211POPC   NC342251  44.469  37.221   5.563
 3211POPC   PO442252  44.656  37.903   5.414
 3211POPC   GL142253  44.685  37.684   5.788
 3211POPC   GL242254   0.013  37.496   5.709
 3211POPC   C1A42255  44.437  37.701   6.202
 3211POPC   D2A42256  44.389  37.932   6.625
 3211POPC   C3A42257  44.455  37.727   7.042
 3211POPC   C4A42258  44.724  37.522   7.402
 3211POPC   C1B42259   0.039  37.632   6.153
 3211POPC   C2B42260  44.824  37.661   6.545
 3211POPC   C3B42261  44.975  37.738   6.926
 3211POPC   C4B42262   0.091  37.846   7.317
 3212POPC   NC342263   8.391  30.412   5.546
 3212POPC   PO442264   7.936  30.798   5.284
 3212POPC   GL142265   8.073  30.800   5.718
 3212POPC   GL242266   7.983  30.480   5.841
 3212POPC   C1A42267   8.264  30.972   6.118
 3212POPC   D2A42268   8.477  30.817   6.493
 3212POPC   C3A42269   8.341  30.898   6.894
 3212POPC   C4A42270   8.373  30.783   7.293
 3212POPC   C1B42271   8.252  30.457   6.187
 3212POPC   C2B42272   8.190  30.407   6.609
 3212POPC   C3B42273   8.272  30.343   7.033
 3212POPC   C4B42274   7.943  30.458   7.314
 3213POPC   NC342275  40.835  41.128   5.379
 3213POPC   PO442276  40.882  41.788   5.356
 3213POPC   GL142277  40.722  41.616   5.745
 3213POPC   GL242278  40.858  41.263   5.855
 3213POPC   C1A42279  40.654  41.594   6.193
 3213POPC   D2A42280  40.471  41.711   6.594
 3213POPC   C3A42281  40.620  41.584   7.004
 3213POPC   C4A42282  40.697  41.827   7.360
 3213POPC   C1B42283  40.690  41.089   6.215
 3213POPC   C2B42284  40.792  41.293   6.611
 3213POPC   C3B42285  40.947  41.128   7.004
 3213POPC   C4B42286  40.779  41.118   7.409
 3214POPC   NC342287  25.932  19.640   5.414
 3214POPC   PO442288  26.367  20.275   5.464
 3214POPC   GL142289  26.265  20.098   5.870
 3214POPC   GL242290  26.071  19.757   5.894
 3214POPC   C1A42291  26.110  20.124   6.283
 3214POPC   D2A42292  26.022  19.804   6.530
 3214POPC   C3A42293  26.115  19.880   6.924
 3214POPC   C4A42294  26.002  19.835   7.326
 3214POPC   C1B42295  25.825  19.454   6.193
 3214POPC   C2B42296  25.759  19.379   6.647
 3214POPC   C3B42297  25.842  19.394   7.093
 3214POPC   C4B42298  25.536  19.582   7.369
 3215POPC   NC342299  34.183  13.241   5.410
 3215POPC   PO442300  34.799  13.593   5.240
 3215POPC   GL142301  34.606  13.471   5.707
 3215POPC   GL242302  34.248  13.597   5.776
 3215POPC   C1A42303  34.522  13.573   6.206
 3215POPC   D2A42304  34.625  13.752   6.635
 3215POPC   C3A42305  34.551  13.492   7.013
 3215POPC   C4A42306  34.583  13.385   7.454
 3215POPC   C1B42307  34.055  13.846   6.117
 3215POPC   C2B42308  34.157  13.954   6.547
 3215POPC   C3B42309  34.064  13.824   6.944
 3215POPC   C4B42310  34.244  13.764   7.329
 3216POPC   NC342311  21.413  21.549   5.058
 3216POPC   PO442312  21.550  21.128   5.526
 3216POPC   GL142313  21.552  21.322   5.914
 3216POPC   GL242314  21.523  21.691   5.940
 3216POPC   C1A42315  21.513  21.314   6.326
 3216POPC   D2A42316  21.238  21.300   6.635
 3216POPC   C3A42317  21.484  21.260   6.928
 3216POPC   C4A42318  21.348  21.381   7.286
 3216POPC   C1B42319  21.289  21.781   6.306
 3216POPC   C2B42320  21.531  21.745   6.674
 3216POPC   C3B42321  21.522  21.807   7.095
 3216POPC   C4B42322  21.102  21.947   7.233
 3217POPC   NC342323  24.238  33.341   5.526
 3217POPC   PO442324  24.642  33.945   5.521
 3217POPC   GL142325  24.418  33.831   5.890
 3217POPC   GL242326  24.590  33.503   5.865
 3217POPC   C1A42327  24.322  34.003   6.336
 3217POPC   D2A42328  24.576  34.157   6.712
 3217POPC   C3A42329  24.427  34.015   7.131
 3217POPC   C4A42330  24.396  33.563   7.201
 3217POPC   C1B42331  24.473  33.472   6.280
 3217POPC   C2B42332  24.468  33.625   6.681
 3217POPC   C3B42333  24.092  33.747   6.858
 3217POPC   C4B42334  23.890  33.563   7.250
 3218POPC   NC342335   5.917  35.488   5.383
 3218POPC   PO442336   5.286  35.467   5.442
 3218POPC   GL142337   5.591  35.326   5.783
 3218POPC   GL242338   5.762  35.084   5.692
 3218POPC   C1A42339   5.946  35.447   6.094
 3218POPC   D2A42340   6.135  35.313   6.503
 3218POPC   C3A42341   5.981  35.498   6.894
 3218POPC   C4A42342   6.189  35.664   7.260
 3218POPC   C1B42343   5.758  34.968   6.143
 3218POPC   C2B42344   5.646  35.001   6.561
 3218POPC   C3B42345   5.789  34.945   6.966
 3218POPC   C4B42346   5.616  35.255   7.252
 3219POPC   NC342347  28.721  23.838   5.234
 3219POPC   PO442348  29.118  23.509   5.658
 3219POPC   GL142349  29.200  23.837   5.909
 3219POPC   GL242350  28.854  23.986   5.832
 3219POPC   C1A42351  29.260  23.663   6.331
 3219POPC   D2A42352  29.130  23.771   6.724
 3219POPC   C3A42353  29.416  23.552   7.004
 3219POPC   C4A42354  29.480  23.628   7.446
 3219POPC   C1B42355  28.801  23.806   6.228
 3219POPC   C2B42356  28.751  23.437   6.494
 3219POPC   C3B42357  28.824  23.423   6.937
 3219POPC   C4B42358  28.997  23.726   7.235
 3220POPC   NC342359  43.342  17.780   5.636
 3220POPC   PO442360  42.981  17.336   5.286
 3220POPC   GL142361  42.976  17.411   5.773
 3220POPC   GL242362  42.888  17.742   5.890
 3220POPC   C1A42363  42.899  17.399   6.259
 3220POPC   D2A42364  43.159  17.468   6.644
 3220POPC   C3A42365  43.071  17.339   7.056
 3220POPC   C4A42366  42.683  17.501   7.238
 3220POPC   C1B42367  43.183  17.818   6.268
 3220POPC   C2B42368  43.444  17.910   6.642
 3220POPC   C3B42369  43.360  17.989   7.071
 3220POPC   C4B42370  43.115  17.765   7.341
 3221POPC   NC342371  18.559  44.817   5.092
 3221POPC   PO442372  18.143  44.458   5.578
 3221POPC   GL142373  18.422  44.562   5.881
 3221POPC   GL242374  18.560  44.836   5.645
 3221POPC   C1A42375  18.385  44.287   6.277
 3221POPC   D2A42376  18.134  44.235   6.651
 3221POPC   C3A42377  18.291  44.379   7.028
 3221POPC   C4A42378  18.454  44.352   7.432
 3221POPC   C1B42379  18.573  44.998   6.104
 3221POPC   C2B42380  18.396  44.827   6.498
 3221POPC   C3B42381  18.407  44.902   6.970
 3221POPC   C4B42382  18.213  44.778   7.359
 3222POPC   NC342383  38.573  10.088   5.342
 3222POPC   PO442384  38.480   9.462   5.375
 3222POPC   GL142385  38.484   9.634   5.797
 3222POPC   GL242386  38.344   9.342   5.929
 3222POPC   C1A42387  38.480   9.712   6.280
 3222POPC   D2A42388  38.292   9.762   6.713
 3222POPC   C3A42389  38.317  10.051   7.077
 3222POPC   C4A42390  38.347   9.907   7.494
 3222POPC   C1B42391  38.589   9.195   6.294
 3222POPC   C2B42392  38.584   9.325   6.737
 3222POPC   C3B42393  38.566   9.556   7.149
 3222POPC   C4B42394  38.432   9.406   7.580
 3223POPC   NC342395  24.441  30.323   5.558
 3223POPC   PO442396  24.520  30.962   5.398
 3223POPC   GL142397  24.553  30.737   5.823
 3223POPC   GL242398  24.689  30.389   5.976
 3223POPC   C1A42399  24.471  30.742   6.253
 3223POPC   D2A42400  24.668  30.629   6.633
 3223POPC   C3A42401  24.417  30.749   6.995
 3223POPC   C4A42402  24.698  30.864   7.320
 3223POPC   C1B42403  24.276  30.272   6.195
 3223POPC   C2B42404  24.182  30.448   6.585
 3223POPC   C3B42405  24.313  30.230   6.960
 3223POPC   C4B42406  24.303  30.396   7.372
 3224POPC   NC342407  38.883  33.267   5.517
 3224POPC   PO442408  38.234  32.873   5.406
 3224POPC   GL142409  38.276  33.124   5.763
 3224POPC   GL242410  38.600  33.042   5.910
 3224POPC   C1A42411  38.199  33.247   6.169
 3224POPC   D2A42412  38.418  33.124   6.492
 3224POPC   C3A42413  38.391  33.230   6.877
 3224POPC   C4A42414  38.485  33.203   7.292
 3224POPC   C1B42415  38.299  32.746   6.147
 3224POPC   C2B42416  38.156  32.706   6.590
 3224POPC   C3B42417  38.291  32.742   7.024
 3224POPC   C4B42418  38.288  32.393   7.307
 3225POPC   NC342419  28.898  36.935   5.557
 3225POPC   PO442420  29.327  36.499   5.392
 3225POPC   GL142421  29.274  36.688   5.819
 3225POPC   GL242422  29.311  37.078   5.839
 3225POPC   C1A42423  29.049  36.814   6.215
 3225POPC   D2A42424  28.956  36.642   6.615
 3225POPC   C3A42425  29.007  36.829   7.012
 3225POPC   C4A42426  29.320  36.707   7.267
 3225POPC   C1B42427  29.339  37.244   6.271
 3225POPC   C2B42428  29.332  37.090   6.712
 3225POPC   C3B42429  29.530  37.142   7.136
 3225POPC   C4B42430  29.415  37.064   7.603
 3226POPC   NC342431  25.093  12.926   5.274
 3226POPC   PO442432  25.464  12.529   5.592
 3226POPC   GL142433  25.267  12.832   5.808
 3226POPC   GL242434  24.921  12.778   5.750
 3226POPC   C1A42435  25.398  13.002   6.207
 3226POPC   D2A42436  25.637  13.158   6.539
 3226POPC   C3A42437  25.536  12.920   6.889
 3226POPC   C4A42438  25.354  12.743   7.230
 3226POPC   C1B42439  24.891  12.927   6.183
 3226POPC   C2B42440  24.744  12.811   6.594
 3226POPC   C3B42441  24.902  12.709   7.013
 3226POPC   C4B42442  24.950  12.894   7.499
 3227POPC   NC342443  37.737  30.161   5.417
 3227POPC   PO442444  37.493  29.513   5.439
 3227POPC   GL142445  37.526  29.815   5.795
 3227POPC   GL242446  37.861  29.869   5.838
 3227POPC   C1A42447  37.589  29.836   6.262
 3227POPC   D2A42448  37.617  29.982   6.698
 3227POPC   C3A42449  37.290  30.052   6.974
 3227POPC   C4A42450  37.402  29.792   7.285
 3227POPC   C1B42451  38.073  30.067   6.214
 3227POPC   C2B42452  38.106  30.084   6.675
 3227POPC   C3B42453  37.958  29.951   7.121
 3227POPC   C4B42454  38.039  30.097   7.570
 3228POPC   NC342455  25.591  21.928   5.366
 3228POPC   PO442456  25.139  22.420   5.470
 3228POPC   GL142457  25.360  22.174   5.776
 3228POPC   GL242458  25.386  22.475   5.923
 3228POPC   C1A42459  25.410  22.068   6.239
 3228POPC   D2A42460  25.254  21.804   6.612
 3228POPC   C3A42461  25.431  21.954   6.999
 3228POPC   C4A42462  25.272  22.016   7.396
 3228POPC   C1B42463  25.031  22.425   6.199
 3228POPC   C2B42464  25.170  22.342   6.627
 3228POPC   C3B42465  24.960  22.212   6.993
 3228POPC   C4B42466  24.693  22.498   7.230
 3229POPC   NC342467  23.867   6.365   5.447
 3229POPC   PO442468  23.370   6.811   5.358
 3229POPC   GL142469  23.532   6.675   5.757
 3229POPC   GL242470  23.423   6.353   5.862
 3229POPC   C1A42471  23.667   6.797   6.172
 3229POPC   D2A42472  23.834   6.880   6.589
 3229POPC   C3A42473  23.552   6.731   6.901
 3229POPC   C4A42474  23.565   6.642   7.320
 3229POPC   C1B42475  23.617   6.287   6.244
 3229POPC   C2B42476  23.787   6.359   6.620
 3229POPC   C3B42477  23.765   6.189   6.984
 3229POPC   C4B42478  23.824   6.221   7.379
 3230POPC   NC342479  38.100  36.212   5.496
 3230POPC   PO442480  37.429  35.949   5.324
 3230POPC   GL142481  37.618  36.152   5.689
 3230POPC   GL242482  37.812  36.434   5.841
 3230POPC   C1A42483  37.562  36.077   6.118
 3230POPC   D2A42484  37.554  35.954   6.549
 3230POPC   C3A42485  37.530  36.224   6.892
 3230POPC   C4A42486  37.627  36.097   7.307
 3230POPC   C1B42487  37.830  36.475   6.298
 3230POPC   C2B42488  37.773  36.699   6.703
 3230POPC   C3B42489  37.856  36.570   7.123
 3230POPC   C4B42490  37.463  36.583   7.315
 3231POPC   NC342491  40.786  37.801   5.265
 3231POPC   PO442492  40.774  37.196   5.585
 3231POPC   GL142493  40.879  37.608   5.762
 3231POPC   GL242494  40.747  37.947   5.747
 3231POPC   C1A42495  41.011  37.736   6.183
 3231POPC   D2A42496  41.082  37.476   6.568
 3231POPC   C3A42497  40.939  37.542   6.987
 3231POPC   C4A42498  41.070  37.755   7.366
 3231POPC   C1B42499  40.513  37.826   6.077
 3231POPC   C2B42500  40.588  37.680   6.475
 3231POPC   C3B42501  40.496  37.768   6.865
 3231POPC   C4B42502  40.471  37.511   7.215
 3232POPC   NC342503  10.438  35.185   5.358
 3232POPC   PO442504  10.617  35.802   5.448
 3232POPC   GL142505  10.413  35.509   5.757
 3232POPC   GL242506  10.611  35.226   5.866
 3232POPC   C1A42507  10.209  35.351   6.145
 3232POPC   D2A42508  10.211  35.153   6.574
 3232POPC   C3A42509  10.348  35.346   6.988
 3232POPC   C4A42510  10.568  35.289   7.392
 3232POPC   C1B42511  10.661  35.571   6.218
 3232POPC   C2B42512  10.669  35.761   6.663
 3232POPC   C3B42513  10.782  35.649   7.113
 3232POPC   C4B42514  11.011  35.564   7.524
 3233POPC   NC342515  26.074  41.833   5.565
 3233POPC   PO442516  26.310  42.452   5.536
 3233POPC   GL142517  25.981  42.365   5.865
 3233POPC   GL242518  25.736  42.669   5.814
 3233POPC   C1A42519  25.886  42.209   6.326
 3233POPC   D2A42520  25.709  42.318   6.759
 3233POPC   C3A42521  25.711  42.026   7.156
 3233POPC   C4A42522  25.993  41.957   7.536
 3233POPC   C1B42523  25.900  42.721   6.240
 3233POPC   C2B42524  26.190  42.593   6.557
 3233POPC   C3B42525  26.414  42.452   6.914
 3233POPC   C4B42526  26.184  42.366   7.291
 3234POPC   NC342527  22.533   4.883   5.428
 3234POPC   PO442528  22.043   5.406   5.362
 3234POPC   GL142529  22.253   5.273   5.692
 3234POPC   GL242530  22.093   4.953   5.703
 3234POPC   C1A42531  22.104   5.296   6.110
 3234POPC   D2A42532  22.255   5.182   6.508
 3234POPC   C3A42533  22.036   5.387   6.852
 3234POPC   C4A42534  22.216   5.327   7.258
 3234POPC   C1B42535  22.008   4.778   6.104
 3234POPC   C2B42536  22.092   4.688   6.552
 3234POPC   C3B42537  22.216   4.898   6.939
 3234POPC   C4B42538  22.198   4.832   7.363
 3235POPC   NC342539  27.562  10.366   5.417
 3235POPC   PO442540  28.075  10.777   5.291
 3235POPC   GL142541  27.802  10.773   5.722
 3235POPC   GL242542  27.424  10.656   5.813
 3235POPC   C1A42543  27.699  10.883   6.186
 3235POPC   D2A42544  27.595  10.677   6.586
 3235POPC   C3A42545  27.742  10.712   6.999
 3235POPC   C4A42546  27.959  10.358   7.100
 3235POPC   C1B42547  27.585  10.393   6.131
 3235POPC   C2B42548  27.467  10.187   6.480
 3235POPC   C3B42549  27.440  10.260   6.908
 3235POPC   C4B42550  27.500  10.269   7.350
 3236POPC   NC342551  22.107  42.463   5.391
 3236POPC   PO442552  22.455  41.860   5.428
 3236POPC   GL142553  22.309  42.145   5.750
 3236POPC   GL242554  21.954  42.217   5.817
 3236POPC   C1A42555  22.309  42.329   6.163
 3236POPC   D2A42556  22.138  42.153   6.554
 3236POPC   C3A42557  22.320  42.325   6.926
 3236POPC   C4A42558  22.672  42.231   7.196
 3236POPC   C1B42559  21.806  42.420   6.216
 3236POPC   C2B42560  21.900  42.598   6.616
 3236POPC   C3B42561  21.810  42.418   7.016
 3236POPC   C4B42562  22.060  42.638   7.273
 3237POPC   NC342563  39.497  36.763   5.421
 3237POPC   PO442564  38.801  37.005   5.407
 3237POPC   GL142565  39.101  36.855   5.753
 3237POPC   GL242566  39.381  37.120   5.807
 3237POPC   C1A42567  39.194  36.814   6.214
 3237POPC   D2A42568  39.039  36.608   6.623
 3237POPC   C3A42569  39.155  36.779   7.048
 3237POPC   C4A42570  39.190  36.723   7.501
 3237POPC   C1B42571  39.721  37.277   6.093
 3237POPC   C2B42572  39.810  37.287   6.521
 3237POPC   C3B42573  39.615  37.259   6.916
 3237POPC   C4B42574  39.518  37.070   7.288
 3238POPC   NC342575  24.020   5.643   5.617
 3238POPC   PO442576  23.507   6.068   5.450
 3238POPC   GL142577  23.608   5.842   5.810
 3238POPC   GL242578  23.877   6.070   5.883
 3238POPC   C1A42579  23.425   5.733   6.198
 3238POPC   D2A42580  23.520   5.904   6.585
 3238POPC   C3A42581  23.667   5.669   6.903
 3238POPC   C4A42582  23.514   5.832   7.296
 3238POPC   C1B42583  23.913   5.827   6.258
 3238POPC   C2B42584  24.073   5.539   6.560
 3238POPC   C3B42585  24.245   5.547   6.916
 3238POPC   C4B42586  24.037   5.779   7.222
 3239POPC   NC342587  18.861  41.283   5.322
 3239POPC   PO442588  19.072  40.735   5.582
 3239POPC   GL142589  18.892  40.855   5.946
 3239POPC   GL242590  18.866  41.218   5.847
 3239POPC   C1A42591  18.897  40.680   6.397
 3239POPC   D2A42592  19.237  40.606   6.699
 3239POPC   C3A42593  19.309  40.462   7.129
 3239POPC   C4A42594  19.010  40.722   7.265
 3239POPC   C1B42595  19.034  41.229   6.259
 3239POPC   C2B42596  18.931  41.125   6.690
 3239POPC   C3B42597  19.163  41.151   7.070
 3239POPC   C4B42598  19.415  40.986   7.446
 3240POPC   NC342599  38.803  34.655   5.573
 3240POPC   PO442600  39.396  34.417   5.433
 3240POPC   GL142601  39.208  34.506   5.845
 3240POPC   GL242602  38.948  34.238   5.900
 3240POPC   C1A42603  39.174  34.704   6.255
 3240POPC   D2A42604  39.319  34.548   6.649
 3240POPC   C3A42605  39.617  34.734   6.925
 3240POPC   C4A42606  39.402  34.632   7.319
 3240POPC   C1B42607  38.696  34.472   6.252
 3240POPC   C2B42608  38.785  34.713   6.660
 3240POPC   C3B42609  38.914  34.599   7.099
 3240POPC   C4B42610  38.903  34.642   7.570
 3241POPC   NC342611  11.722   8.473   5.579
 3241POPC   PO442612  11.092   8.119   5.654
 3241POPC   GL142613  10.972   8.146   6.067
 3241POPC   GL242614  11.161   8.487   6.056
 3241POPC   C1A42615  11.058   8.191   6.489
 3241POPC   D2A42616  11.287   8.513   6.616
 3241POPC   C3A42617  11.395   8.391   6.988
 3241POPC   C4A42618  11.288   8.508   7.411
 3241POPC   C1B42619  11.490   8.203   6.197
 3241POPC   C2B42620  11.520   7.899   6.508
 3241POPC   C3B42621  11.716   7.924   6.915
 3241POPC   C4B42622  11.559   8.081   7.338
 3242POPC   NC342623  19.234   2.798   5.390
 3242POPC   PO442624  19.142   2.228   5.280
 3242POPC   GL142625  19.233   2.411   5.753
 3242POPC   GL242626  19.279   2.784   5.882
 3242POPC   C1A42627  18.988   2.508   6.185
 3242POPC   D2A42628  18.973   2.720   6.576
 3242POPC   C3A42629  18.822   2.480   6.886
 3242POPC   C4A42630  18.662   2.580   7.271
 3242POPC   C1B42631  19.010   3.042   6.177
 3242POPC   C2B42632  19.035   3.234   6.608
 3242POPC   C3B42633  18.912   3.065   6.974
 3242POPC   C4B42634  19.147   2.760   7.142
 3243POPC   NC342635   0.781  29.746   5.576
 3243POPC   PO442636   0.111  30.131   5.449
 3243POPC   GL142637   0.357  29.970   5.791
 3243POPC   GL242638   0.166  29.689   5.856
 3243POPC   C1A42639   0.666  30.109   6.154
 3243POPC   D2A42640   0.839  30.268   6.558
 3243POPC   C3A42641   0.697  30.161   6.974
 3243POPC   C4A42642   0.425  30.032   7.330
 3243POPC   C1B42643   0.329  29.745   6.264
 3243POPC   C2B42644   0.580  29.791   6.600
 3243POPC   C3B42645   0.526  29.680   6.991
 3243POPC   C4B42646   0.615  29.388   7.249
 3244POPC   NC342647  41.002  24.666   5.354
 3244POPC   PO442648  40.324  24.725   5.391
 3244POPC   GL142649  40.650  24.690   5.784
 3244POPC   GL242650  40.837  24.368   5.756
 3244POPC   C1A42651  40.818  24.597   6.258
 3244POPC   D2A42652  41.037  24.696   6.679
 3244POPC   C3A42653  40.792  24.697   7.093
 3244POPC   C4A42654  40.633  24.806   7.563
 3244POPC   C1B42655  41.001  24.101   6.095
 3244POPC   C2B42656  40.920  24.121   6.520
 3244POPC   C3B42657  41.018  24.224   6.926
 3244POPC   C4B42658  40.811  24.245   7.307
 3245POPC   NC342659  29.280  18.441   5.537
 3245POPC   PO442660  29.198  19.077   5.392
 3245POPC   GL142661  29.150  19.031   5.847
 3245POPC   GL242662  28.887  19.306   5.936
 3245POPC   C1A42663  29.042  19.036   6.314
 3245POPC   D2A42664  28.881  19.438   6.498
 3245POPC   C3A42665  28.811  19.383   6.958
 3245POPC   C4A42666  29.021  19.037   7.252
 3245POPC   C1B42667  29.315  19.432   6.091
 3245POPC   C2B42668  29.524  19.276   6.431
 3245POPC   C3B42669  29.227  19.181   6.779
 3245POPC   C4B42670  29.267  19.486   7.144
 3246POPC   NC342671  18.134   6.101   5.600
 3246POPC   PO442672  18.754   5.780   5.551
 3246POPC   GL142673  18.391   5.692   5.849
 3246POPC   GL242674  18.019   5.721   5.987
 3246POPC   C1A42675  18.403   5.926   6.248
 3246POPC   D2A42676  18.518   6.171   6.607
 3246POPC   C3A42677  18.444   6.015   7.026
 3246POPC   C4A42678  18.056   6.156   7.244
 3246POPC   C1B42679  17.881   6.013   6.321
 3246POPC   C2B42680  18.014   5.970   6.745
 3246POPC   C3B42681  18.069   5.667   7.084
 3246POPC   C4B42682  17.980   5.711   7.494
 3247POPC   NC342683  29.476  35.320   5.449
 3247POPC   PO442684  28.848  35.314   5.513
 3247POPC   GL142685  29.157  35.400   5.845
 3247POPC   GL242686  29.415  35.129   5.918
 3247POPC   C1A42687  29.056  35.284   6.253
 3247POPC   D2A42688  28.778  35.216   6.585
 3247POPC   C3A42689  28.938  35.373   6.930
 3247POPC   C4A42690  29.004  35.265   7.338
 3247POPC   C1B42691  29.567  35.407   6.266
 3247POPC   C2B42692  29.719  35.407   6.712
 3247POPC   C3B42693  29.453  35.365   7.115
 3247POPC   C4B42694  29.446  35.354   7.611
 3248POPC   NC342695  32.367  36.962   5.368
 3248POPC   PO442696  31.799  36.500   5.445
 3248POPC   GL142697  32.116  36.718   5.739
 3248POPC   GL242698  32.120  37.121   5.774
 3248POPC   C1A42699  32.410  36.868   6.085
 3248POPC   D2A42700  32.275  36.803   6.498
 3248POPC   C3A42701  32.419  36.818   6.890
 3248POPC   C4A42702  32.198  36.743   7.284
 3248POPC   C1B42703  32.105  37.248   6.224
 3248POPC   C2B42704  32.379  37.267   6.601
 3248POPC   C3B42705  32.101  37.199   6.962
 3248POPC   C4B42706  32.221  37.272   7.365
 3249POPC   NC342707  28.909   6.682   5.295
 3249POPC   PO442708  29.424   6.460   5.559
 3249POPC   GL142709  29.167   6.554   5.866
 3249POPC   GL242710  29.027   6.883   5.756
 3249POPC   C1A42711  29.255   6.592   6.308
 3249POPC   D2A42712  29.158   6.407   6.650
 3249POPC   C3A42713  29.081   6.614   7.018
 3249POPC   C4A42714  29.435   6.543   7.259
 3249POPC   C1B42715  29.302   7.043   6.085
 3249POPC   C2B42716  29.237   7.044   6.543
 3249POPC   C3B42717  29.290   7.125   6.972
 3249POPC   C4B42718  29.261   7.003   7.391
 3250POPC   NC342719   4.251  24.718   5.230
 3250POPC   PO442720   4.372  25.315   5.371
 3250POPC   GL142721   4.377  25.389   5.813
 3250POPC   GL242722   4.031  25.365   5.867
 3250POPC   C1A42723   4.443  25.342   6.252
 3250POPC   D2A42724   4.285  25.436   6.643
 3250POPC   C3A42725   4.510  25.345   6.967
 3250POPC   C4A42726   4.345  25.255   7.387
 3250POPC   C1B42727   4.165  24.965   6.064
 3250POPC   C2B42728   4.244  24.921   6.546
 3250POPC   C3B42729   4.104  25.049   6.983
 3250POPC   C4B42730   3.914  24.954   7.402
 3251POPC   NC342731  35.274  40.087   5.509
 3251POPC   PO442732  35.061  39.485   5.799
 3251POPC   GL142733  35.267  39.807   5.923
 3251POPC   GL242734  34.946  39.980   5.898
 3251POPC   C1A42735  35.552  40.082   6.149
 3251POPC   D2A42736  35.791  39.943   6.485
 3251POPC   C3A42737  35.559  40.036   6.875
 3251POPC   C4A42738  35.622  40.044   7.327
 3251POPC   C1B42739  35.030  39.999   6.317
 3251POPC   C2B42740  34.834  40.333   6.465
 3251POPC   C3B42741  34.920  40.380   6.852
 3251POPC   C4B42742  35.129  40.098   7.158
 3252POPC   NC342743   8.605  32.855   5.288
 3252POPC   PO442744   8.037  33.155   5.541
 3252POPC   GL142745   8.079  32.888   5.866
 3252POPC   GL242746   8.385  32.836   5.795
 3252POPC   C1A42747   8.012  33.006   6.263
 3252POPC   D2A42748   7.804  33.136   6.598
 3252POPC   C3A42749   8.090  33.038   6.869
 3252POPC   C4A42750   8.324  33.042   7.202
 3252POPC   C1B42751   8.462  33.200   6.107
 3252POPC   C2B42752   8.445  33.289   6.567
 3252POPC   C3B42753   8.704  33.262   6.948
 3252POPC   C4B42754   8.646  33.360   7.413
 3253POPC   NC342755  16.480  41.023   5.407
 3253POPC   PO442756  17.043  40.651   5.373
 3253POPC   GL142757  16.802  40.766   5.718
 3253POPC   GL242758  16.896  41.155   5.686
 3253POPC   C1A42759  16.666  40.566   6.129
 3253POPC   D2A42760  16.574  40.593   6.580
 3253POPC   C3A42761  16.837  40.598   6.933
 3253POPC   C4A42762  16.489  40.550   7.192
 3253POPC   C1B42763  16.875  41.058   6.142
 3253POPC   C2B42764  17.015  40.945   6.578
 3253POPC   C3B42765  16.952  41.101   7.013
 3253POPC   C4B42766  16.580  41.057   7.259
 3254POPC   NC342767   3.130  38.505   5.468
 3254POPC   PO442768   2.673  38.134   5.393
 3254POPC   GL142769   2.581  38.476   5.692
 3254POPC   GL242770   2.855  38.362   5.895
 3254POPC   C1A42771   2.485  38.613   6.128
 3254POPC   D2A42772   2.688  38.343   6.455
 3254POPC   C3A42773   2.836  38.524   6.845
 3254POPC   C4A42774   2.583  38.550   7.195
 3254POPC   C1B42775   3.109  38.562   6.206
 3254POPC   C2B42776   3.300  38.578   6.612
 3254POPC   C3B42777   3.290  38.729   7.052
 3254POPC   C4B42778   3.149  38.397   7.322
 3255POPC   NC342779  36.240   1.248   5.306
 3255POPC   PO442780  36.311   0.632   5.306
 3255POPC   GL142781  36.283   0.934   5.771
 3255POPC   GL242782  36.166   1.301   5.787
 3255POPC   C1A42783  36.255   1.139   6.238
 3255POPC   D2A42784  35.997   1.145   6.611
 3255POPC   C3A42785  36.256   1.218   6.982
 3255POPC   C4A42786  36.213   1.162   7.422
 3255POPC   C1B42787  35.869   1.466   6.088
 3255POPC   C2B42788  35.872   1.641   6.503
 3255POPC   C3B42789  35.884   1.570   6.940
 3255POPC   C4B42790  35.868   1.544   7.399
 3256POPC   NC342791  35.376  15.671   5.660
 3256POPC   PO442792  35.552  15.111   5.426
 3256POPC   GL142793  35.339  15.068   5.850
 3256POPC   GL242794  35.255  15.364   6.029
 3256POPC   C1A42795  35.331  14.959   6.315
 3256POPC   D2A42796  35.411  15.125   6.743
 3256POPC   C3A42797  35.200  14.891   7.099
 3256POPC   C4A42798  35.218  15.046   7.550
 3256POPC   C1B42799  35.192  15.644   6.379
 3256POPC   C2B42800  35.367  15.642   6.795
 3256POPC   C3B42801  35.234  15.400   7.160
 3256POPC   C4B42802  35.156  15.564   7.567
 3257POPC   NC342803  24.073  43.159   5.424
 3257POPC   PO442804  24.674  43.373   5.240
 3257POPC   GL142805  24.529  43.286   5.713
 3257POPC   GL242806  24.364  42.957   5.801
 3257POPC   C1A42807  24.636  43.220   6.207
 3257POPC   D2A42808  24.830  43.215   6.645
 3257POPC   C3A42809  24.539  43.194   6.997
 3257POPC   C4A42810  24.212  43.477   7.174
 3257POPC   C1B42811  24.445  42.748   6.199
 3257POPC   C2B42812  24.404  42.900   6.599
 3257POPC   C3B42813  24.423  42.682   7.012
 3257POPC   C4B42814  24.473  42.713   7.467
 3258POPC   NC342815  25.245  20.365   5.456
 3258POPC   PO442816  25.068  20.962   5.590
 3258POPC   GL142817  25.454  20.778   5.818
 3258POPC   GL242818  25.427  20.416   5.910
 3258POPC   C1A42819  25.681  20.903   6.215
 3258POPC   D2A42820  25.602  20.766   6.646
 3258POPC   C3A42821  25.174  20.821   6.787
 3258POPC   C4A42822  25.308  20.802   7.178
 3258POPC   C1B42823  25.224  20.616   6.256
 3258POPC   C2B42824  25.274  20.376   6.592
 3258POPC   C3B42825  25.318  20.310   6.963
 3258POPC   C4B42826  25.048  20.352   7.273
 3259POPC   NC342827   7.839  40.365   5.500
 3259POPC   PO442828   7.133  40.143   5.402
 3259POPC   GL142829   7.175  40.001   5.806
 3259POPC   GL242830   7.549  40.012   5.899
 3259POPC   C1A42831   7.114  40.156   6.203
 3259POPC   D2A42832   7.492  40.288   6.400
 3259POPC   C3A42833   7.561  40.198   6.806
 3259POPC   C4A42834   7.505  40.110   7.200
 3259POPC   C1B42835   7.446  39.794   6.325
 3259POPC   C2B42836   7.162  39.925   6.681
 3259POPC   C3B42837   7.149  39.762   7.095
 3259POPC   C4B42838   7.154  39.440   7.401
 3260POPC   NC342839  10.749   5.395   5.541
 3260POPC   PO442840  10.663   4.706   5.514
 3260POPC   GL142841  10.524   5.019   5.879
 3260POPC   GL242842  10.282   5.306   5.831
 3260POPC   C1A42843  10.562   5.317   6.268
 3260POPC   D2A42844  10.479   5.540   6.696
 3260POPC   C3A42845  10.752   5.291   6.971
 3260POPC   C4A42846  10.681   4.908   7.212
 3260POPC   C1B42847  10.089   5.157   6.242
 3260POPC   C2B42848  10.259   5.030   6.626
 3260POPC   C3B42849  10.271   5.153   7.039
 3260POPC   C4B42850   9.980   5.179   7.322
 3261POPC   NC342851  39.947  17.346   5.410
 3261POPC   PO442852  40.583  17.236   5.589
 3261POPC   GL142853  40.348  17.205   5.967
 3261POPC   GL242854  40.065  17.460   5.917
 3261POPC   C1A42855  40.298  17.380   6.379
 3261POPC   D2A42856  39.972  17.555   6.620
 3261POPC   C3A42857  39.986  17.404   7.038
 3261POPC   C4A42858  40.083  17.417   7.478
 3261POPC   C1B42859  39.697  17.615   6.174
 3261POPC   C2B42860  39.536  17.798   6.560
 3261POPC   C3B42861  39.594  17.731   6.986
 3261POPC   C4B42862  39.746  17.791   7.400
 3262POPC   NC342863  11.962  18.796   5.542
 3262POPC   PO442864  12.445  18.999   5.129
 3262POPC   GL142865  12.426  18.986   5.662
 3262POPC   GL242866  12.457  18.650   5.808
 3262POPC   C1A42867  12.198  19.058   6.095
 3262POPC   D2A42868  12.004  19.190   6.514
 3262POPC   C3A42869  12.216  19.231   6.917
 3262POPC   C4A42870  11.990  19.352   7.309
 3262POPC   C1B42871  12.554  18.718   6.236
 3262POPC   C2B42872  12.356  18.800   6.644
 3262POPC   C3B42873  11.944  18.791   6.843
 3262POPC   C4B42874  11.684  18.791   7.221
 3263POPC   NC342875   8.985   9.890   5.120
 3263POPC   PO442876   8.696  10.014   5.671
 3263POPC   GL142877   8.724   9.569   5.876
 3263POPC   GL242878   9.040   9.435   5.914
 3263POPC   C1A42879   8.680   9.399   6.292
 3263POPC   D2A42880   8.672   9.701   6.625
 3263POPC   C3A42881   8.866   9.756   7.009
 3263POPC   C4A42882   9.163  10.051   7.153
 3263POPC   C1B42883   9.144   9.597   6.317
 3263POPC   C2B42884   9.092   9.409   6.713
 3263POPC   C3B42885   9.227   9.443   7.157
 3263POPC   C4B42886   9.120   9.680   7.538
 3264POPC   NC342887  36.968  32.722   5.463
 3264POPC   PO442888  36.493  33.241   5.500
 3264POPC   GL142889  36.827  33.103   5.790
 3264POPC   GL242890  37.118  33.311   5.870
 3264POPC   C1A42891  36.882  32.939   6.215
 3264POPC   D2A42892  36.856  33.103   6.645
 3264POPC   C3A42893  36.509  33.047   6.946
 3264POPC   C4A42894  36.501  33.060   7.389
 3264POPC   C1B42895  37.332  33.177   6.227
 3264POPC   C2B42896  37.372  33.148   6.648
 3264POPC   C3B42897  37.181  33.188   7.047
 3264POPC   C4B42898  37.404  33.267   7.386
 3265POPC   NC342899   1.036  30.722   5.640
 3265POPC   PO442900   1.693  30.561   5.461
 3265POPC   GL142901   1.500  30.653   5.891
 3265POPC   GL242902   1.405  30.993   5.870
 3265POPC   C1A42903   1.192  30.564   6.246
 3265POPC   D2A42904   1.030  30.735   6.617
 3265POPC   C3A42905   1.189  30.530   6.983
 3265POPC   C4A42906   1.175  30.680   7.395
 3265POPC   C1B42907   1.312  31.072   6.300
 3265POPC   C2B42908   1.510  30.933   6.695
 3265POPC   C3B42909   1.381  31.050   7.114
 3265POPC   C4B42910   1.452  31.064   7.598
 3266POPC   NC342911  26.544  39.103   5.517
 3266POPC   PO442912  25.897  39.305   5.483
 3266POPC   GL142913  26.053  39.079   5.802
 3266POPC   GL242914  25.703  39.112   5.917
 3266POPC   C1A42915  26.134  39.111   6.217
 3266POPC   D2A42916  26.062  39.389   6.542
 3266POPC   C3A42917  26.163  39.222   6.904
 3266POPC   C4A42918  26.321  39.513   7.179
 3266POPC   C1B42919  25.627  39.177   6.359
 3266POPC   C2B42920  25.649  39.185   6.815
 3266POPC   C3B42921  25.737  39.225   7.248
 3266POPC   C4B42922  25.574  39.246   7.680
 3267POPC   NC342923  39.489  26.560   5.005
 3267POPC   PO442924  39.298  27.045   5.497
 3267POPC   GL142925  39.222  26.966   5.924
 3267POPC   GL242926  39.267  26.624   5.937
 3267POPC   C1A42927  39.248  26.952   6.391
 3267POPC   D2A42928  39.027  26.763   6.727
 3267POPC   C3A42929  39.114  26.723   7.170
 3267POPC   C4A42930  38.793  26.700   7.492
 3267POPC   C1B42931  39.586  26.612   6.213
 3267POPC   C2B42932  39.488  26.524   6.617
 3267POPC   C3B42933  39.695  26.651   6.959
 3267POPC   C4B42934  39.568  26.640   7.356
 3268POPC   NC342935  24.938  33.494   5.459
 3268POPC   PO442936  25.400  33.973   5.373
 3268POPC   GL142937  25.339  33.718   5.747
 3268POPC   GL242938  25.017  33.814   5.847
 3268POPC   C1A42939  25.387  33.747   6.210
 3268POPC   D2A42940  25.380  33.498   6.582
 3268POPC   C3A42941  25.353  33.710   6.962
 3268POPC   C4A42942  25.569  33.654   7.321
 3268POPC   C1B42943  24.810  33.877   6.233
 3268POPC   C2B42944  24.965  33.811   6.618
 3268POPC   C3B42945  24.845  33.768   7.024
 3268POPC   C4B42946  24.940  34.007   7.391
 3269POPC   NC342947  32.989   9.566   5.358
 3269POPC   PO442948  32.905  10.104   5.073
 3269POPC   GL142949  32.886  10.006   5.606
 3269POPC   GL242950  33.191   9.892   5.732
 3269POPC   C1A42951  32.855   9.870   6.097
 3269POPC   D2A42952  32.950   9.988   6.543
 3269POPC   C3A42953  32.936   9.733   6.927
 3269POPC   C4A42954  32.845   9.809   7.357
 3269POPC   C1B42955  33.332   9.658   6.133
 3269POPC   C2B42956  33.231   9.524   6.557
 3269POPC   C3B42957  33.426   9.522   6.960
 3269POPC   C4B42958  33.359   9.768   7.296
 3270POPC   NC342959  32.284  34.386   5.359
 3270POPC   PO442960  31.935  34.964   5.418
 3270POPC   GL142961  31.979  34.624   5.769
 3270POPC   GL242962  32.325  34.467   5.862
 3270POPC   C1A42963  32.040  34.659   6.236
 3270POPC   D2A42964  32.157  34.621   6.668
 3270POPC   C3A42965  31.915  34.764   7.022
 3270POPC   C4A42966  32.039  34.567   7.411
 3270POPC   C1B42967  32.442  34.342   6.305
 3270POPC   C2B42968  32.592  34.365   6.763
 3270POPC   C3B42969  32.452  34.558   7.134
 3270POPC   C4B42970  32.609  34.735   7.541
 3271POPC   NC342971  27.617   6.288   5.558
 3271POPC   PO442972  27.477   6.810   5.132
 3271POPC   GL142973  27.509   6.783   5.637
 3271POPC   GL242974  27.257   6.952   5.787
 3271POPC   C1A42975  27.609   6.653   6.133
 3271POPC   D2A42976  27.420   6.446   6.561
 3271POPC   C3A42977  27.625   6.296   6.996
 3271POPC   C4A42978  27.762   6.352   7.500
 3271POPC   C1B42979  27.124   6.764   6.168
 3271POPC   C2B42980  27.009   6.830   6.588
 3271POPC   C3B42981  27.188   6.732   6.957
 3271POPC   C4B42982  27.410   6.651   7.299
 3272POPC   NC342983  38.183   2.489   5.169
 3272POPC   PO442984  38.664   2.629   5.627
 3272POPC   GL142985  38.551   2.757   6.010
 3272POPC   GL242986  38.231   2.799   6.111
 3272POPC   C1A42987  38.654   2.697   6.427
 3272POPC   D2A42988  38.470   2.359   6.633
 3272POPC   C3A42989  38.318   2.542   6.998
 3272POPC   C4A42990  38.415   2.926   7.192
 3272POPC   C1B42991  38.059   2.451   6.278
 3272POPC   C2B42992  37.938   2.372   6.681
 3272POPC   C3B42993  37.893   2.788   6.846
 3272POPC   C4B42994  37.919   2.870   7.276
 3273POPC   NC342995  19.104  16.875   5.253
 3273POPC   PO442996  18.646  16.662   5.669
 3273POPC   GL142997  19.012  16.909   5.786
 3273POPC   GL242998  19.291  16.677   5.785
 3273POPC   C1A42999  19.275  17.093   6.122
 3273POPC   D2A43000  19.455  16.954   6.486
 3273POPC   C3A43001  19.376  16.971   6.881
 3273POPC   C4A43002  19.139  17.180   7.185
 3273POPC   C1B43003  19.125  16.610   6.245
 3273POPC   C2B43004  19.039  16.606   6.711
 3273POPC   C3B43005  19.121  16.604   7.168
 3273POPC   C4B43006  19.432  16.446   7.487
 3274POPC   NC343007  19.571   2.109   5.166
 3274POPC   PO443008  20.178   1.751   5.342
 3274POPC   GL143009  19.931   1.777   5.737
 3274POPC   GL243010  19.831   2.116   5.651
 3274POPC   C1A43011  19.829   1.743   6.212
 3274POPC   D2A43012  19.650   1.951   6.597
 3274POPC   C3A43013  19.815   1.893   7.009
 3274POPC   C4A43014  19.750   1.800   7.436
 3274POPC   C1B43015  19.982   2.224   6.078
 3274POPC   C2B43016  19.876   2.395   6.466
 3274POPC   C3B43017  19.880   2.374   6.878
 3274POPC   C4B43018  19.852   2.315   7.331
 3275POPC   NC343019  41.372  36.072   5.322
 3275POPC   PO443020  41.600  36.694   5.331
 3275POPC   GL143021  41.382  36.418   5.680
 3275POPC   GL243022  41.626  36.142   5.774
 3275POPC   C1A43023  41.329  36.257   6.155
 3275POPC   D2A43024  41.243  36.065   6.571
 3275POPC   C3A43025  41.421  36.287   6.959
 3275POPC   C4A43026  41.461  36.123   7.397
 3275POPC   C1B43027  41.720  35.893   6.176
 3275POPC   C2B43028  41.892  35.902   6.610
 3275POPC   C3B43029  41.767  35.896   7.047
 3275POPC   C4B43030  41.992  35.907   7.459
 3276POPC   NC343031   2.281  28.678   5.417
 3276POPC   PO443032   2.456  28.005   5.524
 3276POPC   GL143033   2.188  28.138   5.912
 3276POPC   GL243034   2.139  28.470   5.865
 3276POPC   C1A43035   1.958  28.212   6.319
 3276POPC   D2A43036   1.886  27.950   6.660
 3276POPC   C3A43037   1.956  28.125   7.047
 3276POPC   C4A43038   2.090  28.411   7.283
 3276POPC   C1B43039   1.806  28.644   6.119
 3276POPC   C2B43040   1.643  28.593   6.502
 3276POPC   C3B43041   1.825  28.605   6.881
 3276POPC   C4B43042   1.769  28.825   7.216
 3277POPC   NC343043  38.137   6.077   5.396
 3277POPC   PO443044  38.705   5.769   5.467
 3277POPC   GL143045  38.589   5.961   5.864
 3277POPC   GL243046  38.252   6.073   5.890
 3277POPC   C1A43047  38.473   5.854   6.306
 3277POPC   D2A43048  38.417   5.621   6.677
 3277POPC   C3A43049  38.581   5.944   6.916
 3277POPC   C4A43050  38.383   6.098   7.256
 3277POPC   C1B43051  38.028   6.092   6.270
 3277POPC   C2B43052  38.131   6.106   6.699
 3277POPC   C3B43053  38.024   5.834   7.019
 3277POPC   C4B43054  37.993   5.817   7.462
 3278POPC   NC343055  14.985  40.528   5.388
 3278POPC   PO443056  15.450  41.092   5.376
 3278POPC   GL143057  15.201  40.899   5.728
 3278POPC   GL243058  15.307  40.588   5.793
 3278POPC   C1A43059  15.007  40.823   6.141
 3278POPC   D2A43060  14.904  40.674   6.557
 3278POPC   C3A43061  15.035  40.973   6.871
 3278POPC   C4A43062  15.362  40.867   7.115
 3278POPC   C1B43063  15.510  40.494   6.182
 3278POPC   C2B43064  15.424  40.340   6.606
 3278POPC   C3B43065  15.204  40.388   6.982
 3278POPC   C4B43066  15.234  40.296   7.424
 3279POPC   NC343067  18.625  29.334   5.554
 3279POPC   PO443068  18.757  28.666   5.522
 3279POPC   GL143069  18.960  28.980   5.831
 3279POPC   GL243070  19.160  29.326   5.765
 3279POPC   C1A43071  19.219  29.004   6.220
 3279POPC   D2A43072  19.173  29.086   6.673
 3279POPC   C3A43073  18.769  28.988   6.870
 3279POPC   C4A43074  18.874  28.896   7.292
 3279POPC   C1B43075  18.945  29.464   6.154
 3279POPC   C2B43076  18.782  29.484   6.577
 3279POPC   C3B43077  18.939  29.434   6.996
 3279POPC   C4B43078  19.011  29.425   7.414
 3280POPC   NC343079   0.229  34.764   5.177
 3280POPC   PO443080  44.580  34.633   5.513
 3280POPC   GL143081  44.748  34.414   5.833
 3280POPC   GL243082  44.499  34.185   5.874
 3280POPC   C1A43083  44.674  34.567   6.238
 3280POPC   D2A43084  44.473  34.704   6.599
 3280POPC   C3A43085  44.813  34.848   6.821
 3280POPC   C4A43086  44.784  34.898   7.237
 3280POPC   C1B43087  44.236  34.291   6.213
 3280POPC   C2B43088  44.243  34.099   6.612
 3280POPC   C3B43089  44.290  34.319   6.979
 3280POPC   C4B43090  44.303  34.752   7.108
 3281POPC   NC343091  35.223   4.984   5.514
 3281POPC   PO443092  35.556   5.542   5.518
 3281POPC   GL143093  35.528   5.239   5.854
 3281POPC   GL243094  35.167   5.270   5.938
 3281POPC   C1A43095  35.489   5.055   6.274
 3281POPC   D2A43096  35.543   5.285   6.647
 3281POPC   C3A43097  35.412   5.052   6.988
 3281POPC   C4A43098  35.650   4.807   7.238
 3281POPC   C1B43099  34.986   5.197   6.352
 3281POPC   C2B43100  35.057   5.393   6.772
 3281POPC   C3B43101  35.061   5.326   7.233
 3281POPC   C4B43102  35.225   4.970   7.481
 3282POPC   NC343103  37.653  31.043   5.626
 3282POPC   PO443104  37.341  30.420   5.504
 3282POPC   GL143105  37.465  30.557   5.901
 3282POPC   GL243106  37.785  30.383   5.893
 3282POPC   C1A43107  37.590  30.829   6.273
 3282POPC   D2A43108  37.768  30.922   6.641
 3282POPC   C3A43109  37.511  30.922   7.014
 3282POPC   C4A43110  37.563  30.754   7.426
 3282POPC   C1B43111  37.651  30.335   6.319
 3282POPC   C2B43112  37.491  30.489   6.688
 3282POPC   C3B43113  37.701  30.412   7.025
 3282POPC   C4B43114  37.593  30.243   7.375
 3283POPC   NC343115  26.202   0.829   5.156
 3283POPC   PO443116  26.207   1.249   5.661
 3283POPC   GL143117  26.074   1.155   6.028
 3283POPC   GL243118  26.374   1.004   6.128
 3283POPC   C1A43119  25.987   1.192   6.463
 3283POPC   D2A43120  25.878   1.602   6.656
 3283POPC   C3A43121  25.814   1.540   7.068
 3283POPC   C4A43122  25.893   1.169   7.331
 3283POPC   C1B43123  26.385   0.671   6.428
 3283POPC   C2B43124  26.179   0.793   6.804
 3283POPC   C3B43125  26.384   0.847   7.207
 3283POPC   C4B43126  26.326   0.959   7.652
 3284POPC   NC343127  32.513  17.859   5.525
 3284POPC   PO443128  32.036  18.440   5.463
 3284POPC   GL143129  32.313  18.433   5.830
 3284POPC   GL243130  32.628  18.275   5.803
 3284POPC   C1A43131  32.329  18.382   6.283
 3284POPC   D2A43132  32.072  18.344   6.647
 3284POPC   C3A43133  32.244  18.416   7.072
 3284POPC   C4A43134  32.090  18.509   7.486
 3284POPC   C1B43135  32.724  18.069   6.204
 3284POPC   C2B43136  32.500  17.955   6.609
 3284POPC   C3B43137  32.571  18.023   7.074
 3284POPC   C4B43138  32.530  18.231   7.482
 3285POPC   NC343139  19.207   7.256   5.601
 3285POPC   PO443140  19.150   6.579   5.408
 3285POPC   GL143141  18.995   6.747   5.805
 3285POPC   GL243142  18.850   6.436   5.964
 3285POPC   C1A43143  19.175   6.752   6.243
 3285POPC   D2A43144  19.211   6.462   6.581
 3285POPC   C3A43145  19.295   6.647   6.992
 3285POPC   C4A43146  19.281   6.462   7.391
 3285POPC   C1B43147  18.697   6.603   6.375
 3285POPC   C2B43148  18.789   6.681   6.815
 3285POPC   C3B43149  18.817   6.661   7.269
 3285POPC   C4B43150  18.918   6.913   7.683
 3286POPC   NC343151  33.491   7.701   5.470
 3286POPC   PO443152  33.918   7.305   5.598
 3286POPC   GL143153  33.714   7.501   5.899
 3286POPC   GL243154  33.873   7.821   5.867
 3286POPC   C1A43155  33.674   7.272   6.271
 3286POPC   D2A43156  33.683   7.389   6.681
 3286POPC   C3A43157  33.714   7.148   7.006
 3286POPC   C4A43158  34.006   7.038   7.299
 3286POPC   C1B43159  33.650   7.776   6.321
 3286POPC   C2B43160  33.444   7.814   6.750
 3286POPC   C3B43161  33.733   7.695   7.097
 3286POPC   C4B43162  33.761   7.873   7.495
 3287POPC   NC343163  40.221  27.891   5.494
 3287POPC   PO443164  39.977  27.230   5.384
 3287POPC   GL143165  39.930  27.431   5.812
 3287POPC   GL243166  39.824  27.773   5.803
 3287POPC   C1A43167  40.044  27.378   6.263
 3287POPC   D2A43168  40.208  27.139   6.593
 3287POPC   C3A43169  40.010  27.273   6.991
 3287POPC   C4A43170  40.130  27.681   7.161
 3287POPC   C1B43171  40.109  27.869   6.154
 3287POPC   C2B43172  39.924  27.999   6.541
 3287POPC   C3B43173  39.763  27.992   6.959
 3287POPC   C4B43174  39.922  28.098   7.378
 3288POPC   NC343175  27.773  17.962   5.338
 3288POPC   PO443176  27.111  17.921   5.522
 3288POPC   GL143177  27.470  18.160   5.702
 3288POPC   GL243178  27.443  18.527   5.791
 3288POPC   C1A43179  27.551  18.124   6.151
 3288POPC   D2A43180  27.239  18.095   6.511
 3288POPC   C3A43181  27.450  18.160   6.905
 3288POPC   C4A43182  27.704  18.226   7.262
 3288POPC   C1B43183  27.672  18.617   6.176
 3288POPC   C2B43184  27.759  18.489   6.602
 3288POPC   C3B43185  27.641  18.674   7.021
 3288POPC   C4B43186  27.386  18.636   7.409
 3289POPC   NC343187  23.087  24.112   5.191
 3289POPC   PO443188  22.703  23.678   5.597
 3289POPC   GL143189  22.969  23.860   5.915
 3289POPC   GL243190  22.665  23.899   6.109
 3289POPC   C1A43191  23.298  23.804   6.255
 3289POPC   D2A43192  23.385  23.849   6.705
 3289POPC   C3A43193  23.113  23.615   6.987
 3289POPC   C4A43194  22.912  23.705   7.392
 3289POPC   C1B43195  22.868  23.494   6.280
 3289POPC   C2B43196  22.843  23.286   6.698
 3289POPC   C3B43197  22.624  23.488   7.031
 3289POPC   C4B43198  22.475  23.920   7.173
 3290POPC   NC343199  16.312  26.900   5.512
 3290POPC   PO443200  15.749  26.550   5.487
 3290POPC   GL143201  16.039  26.581   5.810
 3290POPC   GL243202  15.913  26.936   5.847
 3290POPC   C1A43203  16.143  26.677   6.250
 3290POPC   D2A43204  15.972  26.627   6.684
 3290POPC   C3A43205  16.046  26.918   7.033
 3290POPC   C4A43206  15.994  26.744   7.462
 3290POPC   C1B43207  15.839  27.141   6.245
 3290POPC   C2B43208  15.658  27.063   6.673
 3290POPC   C3B43209  15.546  26.988   7.109
 3290POPC   C4B43210  15.467  26.950   7.531
 3291POPC   NC343211   9.014  29.464   5.395
 3291POPC   PO443212   8.764  30.145   5.472
 3291POPC   GL143213   9.016  30.146   5.833
 3291POPC   GL243214   9.093  29.798   5.794
 3291POPC   C1A43215   9.005  30.039   6.266
 3291POPC   D2A43216   9.164  29.918   6.614
 3291POPC   C3A43217   8.999  30.081   6.979
 3291POPC   C4A43218   8.701  30.120   7.261
 3291POPC   C1B43219   8.781  29.633   6.071
 3291POPC   C2B43220   8.805  29.541   6.495
 3291POPC   C3B43221   8.971  29.578   6.923
 3291POPC   C4B43222   8.680  29.513   7.222
 3292POPC   NC343223  41.008  42.641   5.641
 3292POPC   PO443224  41.106  43.289   5.473
 3292POPC   GL143225  40.995  43.298   5.889
 3292POPC   GL243226  40.779  42.995   5.906
 3292POPC   C1A43227  40.690  43.348   6.239
 3292POPC   D2A43228  40.529  43.199   6.613
 3292POPC   C3A43229  40.802  43.218   6.947
 3292POPC   C4A43230  40.666  43.270   7.341
 3292POPC   C1B43231  40.793  42.681   6.258
 3292POPC   C2B43232  40.895  42.763   6.674
 3292POPC   C3B43233  40.644  42.675   7.026
 3292POPC   C4B43234  40.501  42.752   7.498
 3293POPC   NC343235  24.312   8.263   5.400
 3293POPC   PO443236  24.940   8.310   5.604
 3293POPC   GL143237  24.598   8.344   5.851
 3293POPC   GL243238  24.401   8.010   5.851
 3293POPC   C1A43239  24.701   8.449   6.255
 3293POPC   D2A43240  24.589   8.259   6.652
 3293POPC   C3A43241  24.664   8.456   7.069
 3293POPC   C4A43242  24.658   8.239   7.467
 3293POPC   C1B43243  24.235   8.220   6.222
 3293POPC   C2B43244  24.066   8.381   6.601
 3293POPC   C3B43245  24.191   8.215   6.985
 3293POPC   C4B43246  24.231   7.997   7.358
 3294POPC   NC343247  19.546  23.500   5.385
 3294POPC   PO443248  19.920  23.994   5.341
 3294POPC   GL143249  19.884  23.778   5.725
 3294POPC   GL243250  19.937  23.412   5.790
 3294POPC   C1A43251  19.815  23.933   6.133
 3294POPC   D2A43252  19.914  24.076   6.544
 3294POPC   C3A43253  19.683  23.895   6.899
 3294POPC   C4A43254  19.771  23.879   7.330
 3294POPC   C1B43255  20.105  23.519   6.249
 3294POPC   C2B43256  20.060  23.564   6.722
 3294POPC   C3B43257  20.119  23.497   7.179
 3294POPC   C4B43258  19.994  23.473   7.625
 3295POPC   NC343259  31.311  21.561   5.406
 3295POPC   PO443260  31.599  20.981   5.512
 3295POPC   GL143261  31.483  21.275   5.809
 3295POPC   GL243262  31.691  21.553   5.798
 3295POPC   C1A43263  31.280  21.392   6.186
 3295POPC   D2A43264  31.340  21.202   6.569
 3295POPC   C3A43265  31.340  21.493   6.886
 3295POPC   C4A43266  31.289  21.540   7.331
 3295POPC   C1B43267  31.807  21.410   6.222
 3295POPC   C2B43268  31.808  21.522   6.673
 3295POPC   C3B43269  31.769  21.559   7.144
 3295POPC   C4B43270  31.819  21.591   7.615
 3296POPC   NC343271  44.876  35.529   5.310
 3296POPC   PO443272   0.409  35.086   5.475
 3296POPC   GL143273   0.392  35.253   5.874
 3296POPC   GL243274   0.735  35.146   5.926
 3296POPC   C1A43275   0.420  35.254   6.336
 3296POPC   D2A43276   0.385  35.037   6.713
 3296POPC   C3A43277   0.491  35.349   7.002
 3296POPC   C4A43278   0.281  35.685   7.202
 3296POPC   C1B43279   0.977  35.126   6.305
 3296POPC   C2B43280   0.906  35.047   6.751
 3296POPC   C3B43281   1.118  34.966   7.128
 3296POPC   C4B43282   0.907  35.189   7.440
 3297POPC   NC343283  30.933  40.005   5.407
 3297POPC   PO443284  30.233  40.209   5.475
 3297POPC   GL143285  30.619  40.163   5.791
 3297POPC   GL243286  30.762  39.804   5.861
 3297POPC   C1A43287  30.824  40.121   6.223
 3297POPC   D2A43288  30.618  40.063   6.592
 3297POPC   C3A43289  30.835  39.874   6.904
 3297POPC   C4A43290  30.750  40.092   7.258
 3297POPC   C1B43291  30.411  39.772   6.178
 3297POPC   C2B43292  30.186  39.787   6.594
 3297POPC   C3B43293  30.370  39.712   7.030
 3297POPC   C4B43294  30.513  39.689   7.465
 3298POPC   NC343295  34.405  40.656   5.493
 3298POPC   PO443296  34.987  40.432   5.665
 3298POPC   GL143297  34.754  40.705   5.878
 3298POPC   GL243298  34.697  41.060   5.771
 3298POPC   C1A43299  34.473  40.816   6.196
 3298POPC   D2A43300  34.225  40.830   6.551
 3298POPC   C3A43301  34.450  40.624   6.865
 3298POPC   C4A43302  34.399  40.702   7.291
 3298POPC   C1B43303  34.937  41.083   6.160
 3298POPC   C2B43304  34.976  40.829   6.518
 3298POPC   C3B43305  34.871  40.893   6.924
 3298POPC   C4B43306  34.897  40.634   7.295
 3299POPC   NC343307  15.632  27.228   5.512
 3299POPC   PO443308  15.286  27.806   5.361
 3299POPC   GL143309  15.345  27.567   5.756
 3299POPC   GL243310  15.025  27.562   5.844
 3299POPC   C1A43311  15.346  27.428   6.212
 3299POPC   D2A43312  15.406  27.613   6.632
 3299POPC   C3A43313  15.243  27.408   6.996
 3299POPC   C4A43314  15.346  27.444   7.409
 3299POPC   C1B43315  14.896  27.763   6.209
 3299POPC   C2B43316  14.669  27.782   6.568
 3299POPC   C3B43317  14.779  27.638   6.959
 3299POPC   C4B43318  14.791  27.505   7.379
 3300POPC   NC343319  33.948  39.771   5.403
 3300POPC   PO443320  33.371  39.634   5.710
 3300POPC   GL143321  33.620  39.781   5.978
 3300POPC   GL243322  33.894  40.005   5.870
 3300POPC   C1A43323  33.510  39.743   6.396
 3300POPC   D2A43324  33.589  39.928   6.761
 3300POPC   C3A43325  33.910  39.801   7.051
 3300POPC   C4A43326  33.718  40.118   7.288
 3300POPC   C1B43327  33.860  40.115   6.329
 3300POPC   C2B43328  33.933  40.323   6.739
 3300POPC   C3B43329  34.151  40.275   7.123
 3300POPC   C4B43330  34.156  40.099   7.546
 3301POPC   NC343331  21.926  19.670   5.426
 3301POPC   PO443332  22.565  19.970   5.487
 3301POPC   GL143333  22.365  19.714   5.801
 3301POPC   GL243334  22.056  19.905   5.890
 3301POPC   C1A43335  22.254  19.606   6.249
 3301POPC   D2A43336  22.236  19.442   6.664
 3301POPC   C3A43337  22.335  19.703   7.012
 3301POPC   C4A43338  22.331  19.734   7.446
 3301POPC   C1B43339  22.268  20.124   6.283
 3301POPC   C2B43340  22.397  20.148   6.768
 3301POPC   C3B43341  22.233  20.196   7.222
 3301POPC   C4B43342  21.970  20.080   7.590
 3302POPC   NC343343  34.755   6.358   5.309
 3302POPC   PO443344  34.300   6.800   5.393
 3302POPC   GL143345  34.576   6.648   5.721
 3302POPC   GL243346  34.411   6.350   5.767
 3302POPC   C1A43347  34.854   6.586   6.108
 3302POPC   D2A43348  34.921   6.464   6.573
 3302POPC   C3A43349  34.744   6.762   6.880
 3302POPC   C4A43350  34.489   6.900   7.205
 3302POPC   C1B43351  34.343   6.530   6.191
 3302POPC   C2B43352  34.291   6.728   6.597
 3302POPC   C3B43353  34.296   6.496   6.959
 3302POPC   C4B43354  34.463   6.412   7.363
 3303POPC   NC343355  21.529  41.086   5.661
 3303POPC   PO443356  21.124  41.542   5.374
 3303POPC   GL143357  21.381  41.581   5.736
 3303POPC   GL243358  21.626  41.836   5.704
 3303POPC   C1A43359  21.396  41.532   6.179
 3303POPC   D2A43360  21.212  41.477   6.593
 3303POPC   C3A43361  21.383  41.570   6.964
 3303POPC   C4A43362  21.177  41.437   7.326
 3303POPC   C1B43363  21.680  41.942   6.149
 3303POPC   C2B43364  21.691  41.846   6.604
 3303POPC   C3B43365  21.804  41.898   7.038
 3303POPC   C4B43366  21.464  41.999   7.292
 3304POPC   NC343367  28.482   5.797   5.341
 3304POPC   PO443368  28.080   6.346   5.637
 3304POPC   GL143369  28.403   6.075   5.893
 3304POPC   GL243370  28.695   5.891   5.790
 3304POPC   C1A43371  28.442   5.795   6.262
 3304POPC   D2A43372  28.216   5.751   6.674
 3304POPC   C3A43373  28.473   5.791   7.038
 3304POPC   C4A43374  28.675   5.482   7.230
 3304POPC   C1B43375  28.854   6.164   6.115
 3304POPC   C2B43376  28.720   6.180   6.523
 3304POPC   C3B43377  28.869   6.108   6.932
 3304POPC   C4B43378  28.718   6.248   7.326
 3305POPC   NC343379  27.347  37.699   5.384
 3305POPC   PO443380  28.029  37.590   5.508
 3305POPC   GL143381  27.717  37.584   5.860
 3305POPC   GL243382  27.353  37.459   5.834
 3305POPC   C1A43383  27.763  37.491   6.319
 3305POPC   D2A43384  27.798  37.820   6.637
 3305POPC   C3A43385  27.814  37.728   7.075
 3305POPC   C4A43386  27.577  37.965   7.379
 3305POPC   C1B43387  27.330  37.724   6.221
 3305POPC   C2B43388  27.336  37.587   6.676
 3305POPC   C3B43389  27.316  37.592   7.147
 3305POPC   C4B43390  27.347  37.615   7.632
 3306POPC   NC343391  41.422   5.880   5.568
 3306POPC   PO443392  42.030   5.472   5.510
 3306POPC   GL143393  41.819   5.704   5.937
 3306POPC   GL243394  41.736   6.007   5.940
 3306POPC   C1A43395  41.541   5.763   6.350
 3306POPC   D2A43396  41.173   5.934   6.626
 3306POPC   C3A43397  41.297   5.786   7.051
 3306POPC   C4A43398  41.743   5.879   7.203
 3306POPC   C1B43399  41.390   6.213   6.196
 3306POPC   C2B43400  41.557   6.298   6.612
 3306POPC   C3B43401  41.447   6.259   7.027
 3306POPC   C4B43402  41.374   6.062   7.494
 3307POPC   NC343403  32.151  30.702   5.429
 3307POPC   PO443404  32.709  30.413   5.600
 3307POPC   GL143405  32.339  30.509   5.837
 3307POPC   GL243406  32.296  30.892   5.875
 3307POPC   C1A43407  32.148  30.553   6.222
 3307POPC   D2A43408  32.398  30.579   6.599
 3307POPC   C3A43409  32.196  30.850   6.870
 3307POPC   C4A43410  32.032  30.876   7.285
 3307POPC   C1B43411  32.574  31.004   6.248
 3307POPC   C2B43412  32.774  31.226   6.601
 3307POPC   C3B43413  32.555  31.291   6.970
 3307POPC   C4B43414  32.536  30.945   7.232
 3308POPC   NC343415  43.249  35.007   5.584
 3308POPC   PO443416  43.022  34.372   5.303
 3308POPC   GL143417  42.925  34.358   5.727
 3308POPC   GL243418  42.895  34.693   5.776
 3308POPC   C1A43419  43.183  34.270   6.119
 3308POPC   D2A43420  43.175  34.485   6.531
 3308POPC   C3A43421  43.343  34.379   6.953
 3308POPC   C4A43422  42.950  34.309   7.193
 3308POPC   C1B43423  42.871  34.990   6.149
 3308POPC   C2B43424  43.147  35.001   6.538
 3308POPC   C3B43425  43.092  34.814   6.947
 3308POPC   C4B43426  42.865  34.799   7.355
 3309POPC   NC343427  22.144  10.824   5.241
 3309POPC   PO443428  22.257  11.564   5.293
 3309POPC   GL143429  22.179  11.305   5.708
 3309POPC   GL243430  21.842  11.286   5.849
 3309POPC   C1A43431  22.227  11.313   6.200
 3309POPC   D2A43432  22.084  11.465   6.624
 3309POPC   C3A43433  22.326  11.282   6.964
 3309POPC   C4A43434  22.360  10.837   7.139
 3309POPC   C1B43435  21.710  11.438   6.258
 3309POPC   C2B43436  21.596  11.230   6.648
 3309POPC   C3B43437  21.799  11.248   7.030
 3309POPC   C4B43438  21.939  11.605   7.143
 3310POPC   NC343439  31.379   4.037   5.483
 3310POPC   PO443440  31.658   4.691   5.401
 3310POPC   GL143441  31.566   4.434   5.736
 3310POPC   GL243442  31.225   4.471   5.705
 3310POPC   C1A43443  31.680   4.220   6.125
 3310POPC   D2A43444  31.815   4.278   6.562
 3310POPC   C3A43445  31.583   4.121   6.909
 3310POPC   C4A43446  31.647   4.317   7.302
 3310POPC   C1B43447  31.281   4.538   6.168
 3310POPC   C2B43448  31.202   4.350   6.600
 3310POPC   C3B43449  31.159   4.406   7.069
 3310POPC   C4B43450  31.169   4.229   7.502
 3311POPC   NC343451   0.217  44.065   5.493
 3311POPC   PO443452   0.716  43.616   5.375
 3311POPC   GL143453   0.433  43.672   5.769
 3311POPC   GL243454   0.511  43.982   5.905
 3311POPC   C1A43455   0.133  43.706   6.142
 3311POPC   D2A43456   0.224  43.844   6.569
 3311POPC   C3A43457   0.264  43.615   6.952
 3311POPC   C4A43458   0.474  43.736   7.350
 3311POPC   C1B43459   0.381  44.232   6.255
 3311POPC   C2B43460   0.283  44.329   6.707
 3311POPC   C3B43461   0.320  44.188   7.153
 3311POPC   C4B43462   0.707  44.187   7.430
 3312POPC   NC343463   0.349  12.274   5.392
 3312POPC   PO443464  44.665  12.100   5.290
 3312POPC   GL143465   0.028  12.062   5.729
 3312POPC   GL243466   0.418  12.037   5.831
 3312POPC   C1A43467   0.121  12.007   6.214
 3312POPC   D2A43468   0.472  11.963   6.547
 3312POPC   C3A43469   0.302  12.093   6.943
 3312POPC   C4A43470  44.991  11.844   7.178
 3312POPC   C1B43471   0.641  12.298   6.184
 3312POPC   C2B43472   0.761  12.378   6.673
 3312POPC   C3B43473   0.756  12.239   7.154
 3312POPC   C4B43474   0.947  12.075   7.582
 3313POPC   NC343475  34.722   8.080   5.086
 3313POPC   PO443476  34.515   8.414   5.646
 3313POPC   GL143477  34.390   8.244   5.978
 3313POPC   GL243478  34.190   8.571   6.028
 3313POPC   C1A43479  34.488   8.007   6.352
 3313POPC   D2A43480  34.538   7.640   6.616
 3313POPC   C3A43481  34.736   7.823   6.953
 3313POPC   C4A43482  34.638   8.192   7.145
 3313POPC   C1B43483  34.530   8.526   6.367
 3313POPC   C2B43484  34.408   8.352   6.733
 3313POPC   C3B43485  34.231   8.501   7.099
 3313POPC   C4B43486  34.235   8.786   7.419
 3314POPC   NC343487  12.216   7.734   5.506
 3314POPC   PO443488  12.071   7.159   5.153
 3314POPC   GL143489  12.189   7.274   5.677
 3314POPC   GL243490  12.213   7.075   5.998
 3314POPC   C1A43491  12.024   7.514   6.112
 3314POPC   D2A43492  11.853   7.515   6.554
 3314POPC   C3A43493  12.151   7.503   6.901
 3314POPC   C4A43494  12.299   7.427   7.322
 3314POPC   C1B43495  11.910   7.022   6.372
 3314POPC   C2B43496  11.804   7.086   6.835
 3314POPC   C3B43497  11.797   7.343   7.236
 3314POPC   C4B43498  11.898   7.269   7.702
 3315POPC   NC343499  20.295   8.690   5.426
 3315POPC   PO443500  20.800   9.183   5.388
 3315POPC   GL143501  20.772   8.935   5.754
 3315POPC   GL243502  20.437   9.036   5.777
 3315POPC   C1A43503  20.732   9.105   6.179
 3315POPC   D2A43504  20.701   9.330   6.591
 3315POPC   C3A43505  20.723   9.037   6.957
 3315POPC   C4A43506  20.784   8.610   7.189
 3315POPC   C1B43507  20.185   8.933   6.123
 3315POPC   C2B43508  20.297   8.995   6.538
 3315POPC   C3B43509  20.163   8.898   6.930
 3315POPC   C4B43510  20.371   8.926   7.302
 3316POPC   NC343511  14.355  38.196   5.484
 3316POPC   PO443512  14.153  38.758   5.312
 3316POPC   GL143513  14.204  38.598   5.744
 3316POPC   GL243514  14.083  38.268   5.902
 3316POPC   C1A43515  14.361  38.636   6.159
 3316POPC   D2A43516  14.438  38.935   6.484
 3316POPC   C3A43517  14.490  38.763   6.905
 3316POPC   C4A43518  14.589  38.580   7.311
 3316POPC   C1B43519  13.940  38.381   6.295
 3316POPC   C2B43520  14.178  38.432   6.679
 3316POPC   C3B43521  14.227  38.229   7.095
 3316POPC   C4B43522  14.168  38.309   7.562
 3317POPC   NC343523  37.956  40.408   5.401
 3317POPC   PO443524  37.442  39.964   5.377
 3317POPC   GL143525  37.570  40.079   5.792
 3317POPC   GL243526  37.958  40.092   5.794
 3317POPC   C1A43527  37.689  39.911   6.195
 3317POPC   D2A43528  37.779  39.702   6.590
 3317POPC   C3A43529  37.741  39.909   6.957
 3317POPC   C4A43530  37.506  39.838   7.299
 3317POPC   C1B43531  38.073  40.269   6.178
 3317POPC   C2B43532  37.887  40.235   6.565
 3317POPC   C3B43533  37.894  40.404   6.947
 3317POPC   C4B43534  37.627  40.326   7.263
 3318POPC   NC343535  10.949  27.830   5.456
 3318POPC   PO443536  11.596  28.060   5.425
 3318POPC   GL143537  11.306  28.197   5.750
 3318POPC   GL243538  11.176  28.517   5.777
 3318POPC   C1A43539  11.343  28.263   6.207
 3318POPC   D2A43540  11.629  28.269   6.568
 3318POPC   C3A43541  11.445  28.227   6.976
 3318POPC   C4A43542  11.215  27.901   7.224
 3318POPC   C1B43543  10.987  28.639   6.181
 3318POPC   C2B43544  11.168  28.591   6.592
 3318POPC   C3B43545  11.043  28.545   7.004
 3318POPC   C4B43546  11.193  28.404   7.393
 3319POPC   NC343547  27.673  39.935   5.567
 3319POPC   PO443548  27.451  40.515   5.388
 3319POPC   GL143549  27.432  40.341   5.824
 3319POPC   GL243550  27.356  40.004   5.955
 3319POPC   C1A43551  27.705  40.248   6.210
 3319POPC   D2A43552  27.797  40.007   6.553
 3319POPC   C3A43553  27.630  40.169   6.909
 3319POPC   C4A43554  27.732  40.024   7.315
 3319POPC   C1B43555  27.168  39.797   6.348
 3319POPC   C2B43556  27.268  39.702   6.808
 3319POPC   C3B43557  27.297  39.710   7.268
 3319POPC   C4B43558  27.173  39.787   7.711
 3320POPC   NC343559   7.829   0.435   5.406
 3320POPC   PO443560   8.358   0.024   5.245
 3320POPC   GL143561   8.241   0.201   5.642
 3320POPC   GL243562   7.963   0.065   5.809
 3320POPC   C1A43563   8.277   0.423   6.015
 3320POPC   D2A43564   8.458   0.484   6.394
 3320POPC   C3A43565   8.130   0.517   6.722
 3320POPC   C4A43566   8.007   0.466   7.168
 3320POPC   C1B43567   7.916   0.046   6.272
 3320POPC   C2B43568   7.871  44.807   6.669
 3320POPC   C3B43569   7.745  44.949   7.036
 3320POPC   C4B43570   7.804   0.079   7.435
 3321POPC   NC343571  31.354  31.300   5.350
 3321POPC   PO443572  31.994  31.637   5.509
 3321POPC   GL143573  31.726  31.366   5.773
 3321POPC   GL243574  31.371  31.499   5.822
 3321POPC   C1A43575  31.713  31.375   6.242
 3321POPC   D2A43576  31.810  31.700   6.564
 3321POPC   C3A43577  31.663  31.674   7.007
 3321POPC   C4A43578  31.640  31.250   7.204
 3321POPC   C1B43579  31.188  31.412   6.231
 3321POPC   C2B43580  31.329  31.513   6.634
 3321POPC   C3B43581  31.188  31.412   7.039
 3321POPC   C4B43582  31.082  31.569   7.434
 3322POPC   NC343583   0.205  18.184   5.454
 3322POPC   PO443584   0.765  17.872   5.746
 3322POPC   GL143585   0.411  18.181   5.924
 3322POPC   GL243586   0.167  18.522   5.841
 3322POPC   C1A43587   0.461  18.438   6.292
 3322POPC   D2A43588   0.627  18.415   6.728
 3322POPC   C3A43589   0.522  18.044   6.982
 3322POPC   C4A43590   0.576  18.047   7.422
 3322POPC   C1B43591  44.966  18.290   6.192
 3322POPC   C2B43592   0.091  18.272   6.643
 3322POPC   C3B43593   0.174  18.403   7.081
 3322POPC   C4B43594   0.068  18.145   7.432
 3323POPC   NC343595   4.034  12.930   5.481
 3323POPC   PO443596   4.519  12.502   5.484
 3323POPC   GL143597   4.413  12.780   5.807
 3323POPC   GL243598   4.632  13.068   5.880
 3323POPC   C1A43599   4.316  12.746   6.234
 3323POPC   D2A43600   4.429  12.837   6.646
 3323POPC   C3A43601   4.292  12.670   7.045
 3323POPC   C4A43602   4.533  12.852   7.370
 3323POPC   C1B43603   4.235  13.238   6.086
 3323POPC   C2B43604   4.058  13.194   6.530
 3323POPC   C3B43605   4.211  13.178   6.995
 3323POPC   C4B43606   3.915  13.271   7.343
 3324POPC   NC343607  37.859   7.561   5.404
 3324POPC   PO443608  37.262   7.628   5.433
 3324POPC   GL143609  37.538   7.613   5.818
 3324POPC   GL243610  37.775   7.312   5.832
 3324POPC   C1A43611  37.470   7.449   6.238
 3324POPC   D2A43612  37.653   7.551   6.628
 3324POPC   C3A43613  37.495   7.349   6.975
 3324POPC   C4A43614  37.276   7.296   7.333
 3324POPC   C1B43615  37.902   7.122   6.208
 3324POPC   C2B43616  37.753   7.054   6.600
 3324POPC   C3B43617  37.906   7.049   6.993
 3324POPC   C4B43618  37.782   7.187   7.400
 3325POPC   NC343619   9.862   1.586   5.402
 3325POPC   PO443620   9.594   0.958   5.395
 3325POPC   GL143621   9.825   1.117   5.834
 3325POPC   GL243622  10.071   0.864   5.921
 3325POPC   C1A43623   9.822   1.327   6.295
 3325POPC   D2A43624   9.545   1.462   6.647
 3325POPC   C3A43625   9.572   1.421   7.101
 3325POPC   C4A43626   9.617   1.240   7.520
 3325POPC   C1B43627   9.856   0.817   6.292
 3325POPC   C2B43628   9.727   0.912   6.700
 3325POPC   C3B43629   9.829   0.966   7.137
 3325POPC   C4B43630  10.000   0.924   7.588
 3326POPC   NC343631   5.293  42.348   5.528
 3326POPC   PO443632   4.641  42.326   5.484
 3326POPC   GL143633   4.852  42.281   5.854
 3326POPC   GL243634   4.933  41.940   5.870
 3326POPC   C1A43635   5.158  42.426   6.182
 3326POPC   D2A43636   5.157  42.798   6.432
 3326POPC   C3A43637   5.172  42.710   6.864
 3326POPC   C4A43638   5.387  42.578   7.225
 3326POPC   C1B43639   4.833  42.041   6.300
 3326POPC   C2B43640   5.138  41.962   6.579
 3326POPC   C3B43641   5.279  42.132   6.963
 3326POPC   C4B43642   5.080  42.115   7.344
 3327POPC   NC343643  20.083  32.136   5.546
 3327POPC   PO443644  19.600  32.659   5.516
 3327POPC   GL143645  19.749  32.425   5.858
 3327POPC   GL243646  19.619  32.088   5.915
 3327POPC   C1A43647  19.662  32.421   6.307
 3327POPC   D2A43648  19.963  32.342   6.645
 3327POPC   C3A43649  19.881  32.348   7.085
 3327POPC   C4A43650  20.088  32.379   7.478
 3327POPC   C1B43651  19.945  31.982   6.230
 3327POPC   C2B43652  19.977  31.815   6.671
 3327POPC   C3B43653  19.894  31.839   7.141
 3327POPC   C4B43654  20.101  31.866   7.595
 3328POPC   NC343655   8.272  31.922   5.419
 3328POPC   PO443656   8.404  32.466   5.401
 3328POPC   GL143657   8.168  32.365   5.724
 3328POPC   GL243658   8.507  32.322   5.873
 3328POPC   C1A43659   7.983  32.129   6.054
 3328POPC   D2A43660   8.160  31.893   6.407
 3328POPC   C3A43661   8.088  31.995   6.848
 3328POPC   C4A43662   8.186  31.816   7.249
 3328POPC   C1B43663   8.290  32.533   6.197
 3328POPC   C2B43664   8.366  32.746   6.557
 3328POPC   C3B43665   8.323  32.569   6.953
 3328POPC   C4B43666   8.612  32.421   7.239
 3329POPC   NC343667  19.271  17.713   5.423
 3329POPC   PO443668  18.856  17.248   5.401
 3329POPC   GL143669  18.811  17.383   5.829
 3329POPC   GL243670  19.149  17.521   5.902
 3329POPC   C1A43671  18.771  17.188   6.237
 3329POPC   D2A43672  18.983  17.181   6.644
 3329POPC   C3A43673  18.932  17.564   6.891
 3329POPC   C4A43674  18.672  17.443   7.183
 3329POPC   C1B43675  19.150  17.569   6.370
 3329POPC   C2B43676  19.418  17.481   6.765
 3329POPC   C3B43677  19.458  17.590   7.215
 3329POPC   C4B43678  19.483  17.803   7.668
 3330POPC   NC343679  33.116  36.726   5.477
 3330POPC   PO443680  32.690  37.210   5.588
 3330POPC   GL143681  33.046  37.114   5.862
 3330POPC   GL243682  33.148  36.788   5.986
 3330POPC   C1A43683  32.846  37.096   6.267
 3330POPC   D2A43684  32.841  36.873   6.604
 3330POPC   C3A43685  32.930  36.905   7.024
 3330POPC   C4A43686  32.641  36.996   7.301
 3330POPC   C1B43687  33.363  36.970   6.329
 3330POPC   C2B43688  33.376  36.919   6.786
 3330POPC   C3B43689  33.365  36.726   7.216
 3330POPC   C4B43690  33.533  36.805   7.651
 3331POPC   NC343691   8.065  16.062   5.530
 3331POPC   PO443692   8.436  15.545   5.372
 3331POPC   GL143693   8.555  15.832   5.776
 3331POPC   GL243694   8.535  16.214   5.846
 3331POPC   C1A43695   8.405  15.891   6.221
 3331POPC   D2A43696   8.148  16.074   6.555
 3331POPC   C3A43697   8.314  15.990   6.962
 3331POPC   C4A43698   7.998  15.867   7.201
 3331POPC   C1B43699   8.434  16.408   6.280
 3331POPC   C2B43700   8.625  16.302   6.674
 3331POPC   C3B43701   8.660  16.404   7.085
 3331POPC   C4B43702   8.282  16.430   7.281
 3332POPC   NC343703  18.635  28.078   5.592
 3332POPC   PO443704  18.121  28.178   5.216
 3332POPC   GL143705  18.279  28.350   5.761
 3332POPC   GL243706  18.364  28.126   6.004
 3332POPC   C1A43707  18.405  28.601   6.154
 3332POPC   D2A43708  18.339  28.460   6.575
 3332POPC   C3A43709  18.540  28.533   6.972
 3332POPC   C4A43710  18.202  28.420   7.210
 3332POPC   C1B43711  17.992  28.275   6.213
 3332POPC   C2B43712  17.960  27.985   6.527
 3332POPC   C3B43713  18.119  27.972   6.916
 3332POPC   C4B43714  18.034  27.922   7.327
 3333POPC   NC343715   8.549  29.730   5.409
 3333POPC   PO443716   7.985  30.026   5.545
 3333POPC   GL143717   8.151  30.011   5.932
 3333POPC   GL243718   8.506  30.056   5.915
 3333POPC   C1A43719   7.957  30.043   6.311
 3333POPC   D2A43720   8.085  29.920   6.694
 3333POPC   C3A43721   7.857  30.016   7.055
 3333POPC   C4A43722   7.971  29.938   7.496
 3333POPC   C1B43723   8.504  30.038   6.366
 3333POPC   C2B43724   8.573  29.892   6.789
 3333POPC   C3B43725   8.319  29.834   7.149
 3333POPC   C4B43726   8.442  29.792   7.607
 3334POPC   NC343727  31.964  12.933   5.581
 3334POPC   PO443728  32.600  12.661   5.719
 3334POPC   GL143729  32.259  12.762   5.931
 3334POPC   GL243730  32.117  13.105   6.016
 3334POPC   C1A43731  32.152  12.643   6.282
 3334POPC   D2A43732  32.452  12.425   6.519
 3334POPC   C3A43733  32.417  12.610   6.890
 3334POPC   C4A43734  32.664  12.639   7.230
 3334POPC   C1B43735  32.443  13.079   6.291
 3334POPC   C2B43736  32.355  13.134   6.702
 3334POPC   C3B43737  32.530  13.118   7.082
 3334POPC   C4B43738  32.184  12.916   7.220
 3335POPC   NC343739   2.550  25.003   5.349
 3335POPC   PO443740   3.026  25.401   5.352
 3335POPC   GL143741   2.824  25.194   5.754
 3335POPC   GL243742   2.436  25.161   5.846
 3335POPC   C1A43743   2.805  25.219   6.224
 3335POPC   D2A43744   2.560  25.407   6.566
 3335POPC   C3A43745   2.692  25.333   7.001
 3335POPC   C4A43746   2.648  25.309   7.446
 3335POPC   C1B43747   2.345  24.983   6.307
 3335POPC   C2B43748   2.569  24.921   6.722
 3335POPC   C3B43749   2.714  24.862   7.178
 3335POPC   C4B43750   2.803  24.541   7.467
 3336POPC   NC343751  14.541  18.943   5.531
 3336POPC   PO443752  14.273  19.579   5.529
 3336POPC   GL143753  14.142  19.214   5.785
 3336POPC   GL243754  13.988  18.925   5.618
 3336POPC   C1A43755  14.264  19.111   6.226
 3336POPC   D2A43756  14.494  19.142   6.618
 3336POPC   C3A43757  14.344  19.287   7.022
 3336POPC   C4A43758  14.449  19.179   7.429
 3336POPC   C1B43759  14.079  18.686   6.016
 3336POPC   C2B43760  14.195  18.652   6.475
 3336POPC   C3B43761  14.084  18.874   6.850
 3336POPC   C4B43762  14.086  18.852   7.295
 3337POPC   NC343763  12.773   6.253   5.475
 3337POPC   PO443764  12.907   5.694   5.210
 3337POPC   GL143765  12.634   5.807   5.694
 3337POPC   GL243766  12.852   5.673   6.023
 3337POPC   C1A43767  12.605   6.077   6.123
 3337POPC   D2A43768  12.605   5.840   6.508
 3337POPC   C3A43769  12.716   6.009   6.910
 3337POPC   C4A43770  12.782   5.887   7.385
 3337POPC   C1B43771  13.089   5.931   6.340
 3337POPC   C2B43772  13.200   5.875   6.774
 3337POPC   C3B43773  13.156   6.189   7.080
 3337POPC   C4B43774  13.142   6.219   7.505
 3338POPC   NC343775  14.205  39.609   5.402
 3338POPC   PO443776  14.629  40.179   5.507
 3338POPC   GL143777  14.390  39.930   5.777
 3338POPC   GL243778  14.685  39.810   5.943
 3338POPC   C1A43779  14.188  39.711   6.132
 3338POPC   D2A43780  14.316  39.573   6.533
 3338POPC   C3A43781  14.133  39.677   6.912
 3338POPC   C4A43782  14.234  39.583   7.297
 3338POPC   C1B43783  14.580  39.969   6.353
 3338POPC   C2B43784  14.553  39.952   6.801
 3338POPC   C3B43785  14.349  40.076   7.188
 3338POPC   C4B43786  14.299  40.487   7.438
 3339POPC   NC343787  28.800  31.630   5.478
 3339POPC   PO443788  29.345  31.217   5.393
 3339POPC   GL143789  29.433  31.328   5.794
 3339POPC   GL243790  29.214  31.608   5.811
 3339POPC   C1A43791  29.219  31.298   6.203
 3339POPC   D2A43792  29.023  31.428   6.562
 3339POPC   C3A43793  29.233  31.249   6.899
 3339POPC   C4A43794  29.162  31.214   7.310
 3339POPC   C1B43795  29.157  31.815   6.213
 3339POPC   C2B43796  29.063  31.922   6.608
 3339POPC   C3B43797  28.974  31.717   6.996
 3339POPC   C4B43798  28.861  32.018   7.311
 3340POPC   NC343799  38.792  14.674   5.482
 3340POPC   PO443800  38.379  14.168   5.225
 3340POPC   GL143801  38.507  14.269   5.696
 3340POPC   GL243802  38.620  13.998   5.923
 3340POPC   C1A43803  38.694  14.456   6.112
 3340POPC   D2A43804  38.634  14.308   6.562
 3340POPC   C3A43805  38.767  14.524   6.950
 3340POPC   C4A43806  38.623  14.640   7.363
 3340POPC   C1B43807  38.263  14.176   6.175
 3340POPC   C2B43808  38.094  14.297   6.588
 3340POPC   C3B43809  38.263  14.345   6.983
 3340POPC   C4B43810  38.554  14.138   7.257
 3341POPC   NC343811  28.391  18.273   5.547
 3341POPC   PO443812  27.733  18.451   5.355
 3341POPC   GL143813  27.935  18.355   5.791
 3341POPC   GL243814  27.972  17.996   5.803
 3341POPC   C1A43815  28.151  18.452   6.228
 3341POPC   D2A43816  28.402  18.508   6.623
 3341POPC   C3A43817  28.608  18.191   6.844
 3341POPC   C4A43818  28.690  18.079   7.272
 3341POPC   C1B43819  28.262  17.956   6.144
 3341POPC   C2B43820  28.176  17.913   6.584
 3341POPC   C3B43821  28.069  18.217   6.895
 3341POPC   C4B43822  28.217  18.355   7.283
 3342POPC   NC343823  24.268  34.234   5.515
 3342POPC   PO443824  24.300  34.867   5.352
 3342POPC   GL143825  24.399  34.727   5.783
 3342POPC   GL243826  24.226  34.454   5.983
 3342POPC   C1A43827  24.686  34.846   6.124
 3342POPC   D2A43828  24.670  35.014   6.527
 3342POPC   C3A43829  24.708  34.683   6.806
 3342POPC   C4A43830  24.729  34.415   7.145
 3342POPC   C1B43831  24.316  34.563   6.424
 3342POPC   C2B43832  24.224  34.506   6.873
 3342POPC   C3B43833  24.251  34.531   7.320
 3342POPC   C4B43834  24.180  34.733   7.780
 3343POPC   NC343835  35.577  24.710   5.544
 3343POPC   PO443836  35.090  24.174   5.477
 3343POPC   GL143837  35.319  24.381   5.838
 3343POPC   GL243838  35.550  24.191   6.065
 3343POPC   C1A43839  35.179  24.531   6.233
 3343POPC   D2A43840  34.938  24.261   6.481
 3343POPC   C3A43841  35.020  24.411   6.854
 3343POPC   C4A43842  35.049  24.728   7.152
 3343POPC   C1B43843  35.735  24.598   6.238
 3343POPC   C2B43844  35.721  24.792   6.679
 3343POPC   C3B43845  35.510  24.571   7.027
 3343POPC   C4B43846  35.343  24.165   7.166
 3344POPC   NC343847   6.772  44.242   5.421
 3344POPC   PO443848   6.649  44.904   5.477
 3344POPC   GL143849   6.537  44.582   5.794
 3344POPC   GL243850   6.357  44.261   5.779
 3344POPC   C1A43851   6.681  44.529   6.210
 3344POPC   D2A43852   6.773  44.774   6.556
 3344POPC   C3A43853   6.601  44.690   6.932
 3344POPC   C4A43854   6.626  44.661   7.361
 3344POPC   C1B43855   6.337  44.139   6.209
 3344POPC   C2B43856   6.372  44.360   6.593
 3344POPC   C3B43857   6.429  44.226   7.033
 3344POPC   C4B43858   6.361  44.216   7.463
 3345POPC   NC343859  25.971   9.206   5.357
 3345POPC   PO443860  26.344   8.613   5.424
 3345POPC   GL143861  26.183   8.892   5.735
 3345POPC   GL243862  26.287   9.211   5.808
 3345POPC   C1A43863  26.074   8.937   6.192
 3345POPC   D2A43864  25.766   8.802   6.495
 3345POPC   C3A43865  25.834   8.969   6.894
 3345POPC   C4A43866  25.744   8.834   7.319
 3345POPC   C1B43867  26.327   9.405   6.257
 3345POPC   C2B43868  26.334   9.153   6.661
 3345POPC   C3B43869  26.213   9.269   7.080
 3345POPC   C4B43870  26.224   9.102   7.515
 3346POPC   NC343871  12.226   9.508   5.474
 3346POPC   PO443872  12.333   8.891   5.279
 3346POPC   GL143873  12.152   9.030   5.715
 3346POPC   GL243874  11.860   9.270   5.743
 3346POPC   C1A43875  12.242   8.977   6.193
 3346POPC   D2A43876  12.123   8.782   6.597
 3346POPC   C3A43877  12.351   8.850   6.971
 3346POPC   C4A43878  12.229   8.774   7.357
 3346POPC   C1B43879  11.783   9.212   6.191
 3346POPC   C2B43880  11.999   9.298   6.588
 3346POPC   C3B43881  11.963   9.162   7.008
 3346POPC   C4B43882  12.253   9.275   7.305
 3347POPC   NC343883  43.548   0.439   5.530
 3347POPC   PO443884  43.887  44.840   5.559
 3347POPC   GL143885  43.860   0.179   5.867
 3347POPC   GL243886  44.008   0.494   5.788
 3347POPC   C1A43887  43.784   0.396   6.266
 3347POPC   D2A43888  43.652   0.538   6.674
 3347POPC   C3A43889  43.831   0.351   6.996
 3347POPC   C4A43890  43.663   0.340   7.372
 3347POPC   C1B43891  44.181   0.712   6.117
 3347POPC   C2B43892  44.027   0.822   6.498
 3347POPC   C3B43893  44.136   0.771   6.932
 3347POPC   C4B43894  44.081   0.633   7.358
 3348POPC   NC343895  31.825  13.711   5.381
 3348POPC   PO443896  31.206  13.416   5.271
 3348POPC   GL143897  31.407  13.624   5.647
 3348POPC   GL243898  31.675  13.369   5.789
 3348POPC   C1A43899  31.466  13.763   6.086
 3348POPC   D2A43900  31.358  13.531   6.484
 3348POPC   C3A43901  31.427  13.630   6.920
 3348POPC   C4A43902  31.285  13.536   7.346
 3348POPC   C1B43903  31.931  13.552   6.182
 3348POPC   C2B43904  31.988  13.513   6.653
 3348POPC   C3B43905  31.879  13.349   7.100
 3348POPC   C4B43906  31.779  13.406   7.572
 3349POPC   NC343907  36.163  37.407   5.453
 3349POPC   PO443908  36.456  37.917   5.296
 3349POPC   GL143909  36.213  37.849   5.708
 3349POPC   GL243910  35.901  37.641   5.806
 3349POPC   C1A43911  36.260  37.817   6.143
 3349POPC   D2A43912  36.342  37.939   6.580
 3349POPC   C3A43913  36.223  37.600   6.857
 3349POPC   C4A43914  36.100  37.449   7.258
 3349POPC   C1B43915  35.763  37.900   6.154
 3349POPC   C2B43916  35.744  37.933   6.620
 3349POPC   C3B43917  35.806  37.824   7.071
 3349POPC   C4B43918  36.097  37.929   7.401
 3350POPC   NC343919   9.266  20.643   5.375
 3350POPC   PO443920   9.827  20.348   5.509
 3350POPC   GL143921   9.652  20.666   5.753
 3350POPC   GL243922   9.965  20.856   5.865
 3350POPC   C1A43923   9.449  20.638   6.144
 3350POPC   D2A43924   9.587  20.907   6.474
 3350POPC   C3A43925   9.525  20.830   6.883
 3350POPC   C4A43926   9.441  20.573   7.244
 3350POPC   C1B43927   9.974  20.623   6.238
 3350POPC   C2B43928  10.019  20.685   6.675
 3350POPC   C3B43929   9.924  20.576   7.051
 3350POPC   C4B43930   9.798  20.923   7.308
 3351POPC   NC343931  44.233  17.958   5.517
 3351POPC   PO443932  44.783  18.445   5.455
 3351POPC   GL143933  44.528  18.357   5.799
 3351POPC   GL243934  44.682  18.045   5.794
 3351POPC   C1A43935  44.481  18.505   6.233
 3351POPC   D2A43936  44.361  18.248   6.626
 3351POPC   C3A43937  44.664  18.263   6.962
 3351POPC   C4A43938  44.521  18.578   7.244
 3351POPC   C1B43939  44.552  17.969   6.211
 3351POPC   C2B43940  44.565  17.754   6.605
 3351POPC   C3B43941  44.349  17.815   6.954
 3351POPC   C4B43942  44.268  18.108   7.245
 3352POPC   NC343943  31.017  37.334   5.493
 3352POPC   PO443944  30.722  37.873   5.436
 3352POPC   GL143945  30.739  37.645   5.838
 3352POPC   GL243946  31.080  37.563   5.968
 3352POPC   C1A43947  30.706  37.695   6.288
 3352POPC   D2A43948  30.902  37.560   6.665
 3352POPC   C3A43949  30.759  37.841   6.970
 3352POPC   C4A43950  30.522  37.727   7.309
 3352POPC   C1B43951  30.921  37.235   6.262
 3352POPC   C2B43952  30.655  37.084   6.634
 3352POPC   C3B43953  30.716  37.269   7.053
 3352POPC   C4B43954  31.084  37.477   7.205
 3353POPC   NC343955  18.079  41.576   4.996
 3353POPC   PO443956  18.122  41.449   5.626
 3353POPC   GL143957  18.433  41.497   5.932
 3353POPC   GL243958  18.405  41.874   5.919
 3353POPC   C1A43959  18.531  41.402   6.407
 3353POPC   D2A43960  18.375  41.199   6.790
 3353POPC   C3A43961  18.345  41.453   7.173
 3353POPC   C4A43962  18.452  41.473   7.613
 3353POPC   C1B43963  18.137  41.727   6.283
 3353POPC   C2B43964  18.202  41.686   6.737
 3353POPC   C3B43965  18.012  41.829   7.132
 3353POPC   C4B43966  18.152  41.892   7.562
 3354POPC   NC343967  22.752  13.833   5.617
 3354POPC   PO443968  23.067  13.328   5.537
 3354POPC   GL143969  23.070  13.462   5.930
 3354POPC   GL243970  23.176  13.827   5.907
 3354POPC   C1A43971  22.689  13.479   6.186
 3354POPC   D2A43972  22.623  13.651   6.593
 3354POPC   C3A43973  22.588  13.458   6.980
 3354POPC   C4A43974  22.834  13.533   7.371
 3354POPC   C1B43975  23.073  13.782   6.328
 3354POPC   C2B43976  23.174  13.948   6.725
 3354POPC   C3B43977  22.989  13.953   7.127
 3354POPC   C4B43978  23.090  14.018   7.581
 3355POPC   NC343979  30.462  11.503   5.153
 3355POPC   PO443980  30.876  11.146   5.513
 3355POPC   GL143981  30.702  11.429   5.781
 3355POPC   GL243982  30.357  11.469   5.684
 3355POPC   C1A43983  30.861  11.511   6.203
 3355POPC   D2A43984  30.932  11.257   6.580
 3355POPC   C3A43985  30.906  11.471   6.957
 3355POPC   C4A43986  31.007  11.455   7.357
 3355POPC   C1B43987  30.350  11.593   6.136
 3355POPC   C2B43988  30.407  11.373   6.539
 3355POPC   C3B43989  30.414  11.543   6.957
 3355POPC   C4B43990  30.446  11.348   7.356
 3356POPC   NC343991  43.830  27.391   5.375
 3356POPC   PO443992  43.824  28.088   5.302
 3356POPC   GL143993  43.756  27.792   5.686
 3356POPC   GL243994  44.069  27.561   5.800
 3356POPC   C1A43995  43.715  27.674   6.136
 3356POPC   D2A43996  43.965  27.592   6.500
 3356POPC   C3A43997  43.903  27.756   6.891
 3356POPC   C4A43998  43.775  27.742   7.310
 3356POPC   C1B43999  44.290  27.353   6.188
 3356POPC   C2B44000  44.153  27.122   6.579
 3356POPC   C3B44001  43.791  27.241   6.827
 3356POPC   C4B44002  44.067  27.347   7.165
 3357POPC   NC344003  25.489   4.318   5.343
 3357POPC   PO444004  26.109   4.620   5.447
 3357POPC   GL144005  25.926   4.411   5.819
 3357POPC   GL244006  26.170   4.168   5.959
 3357POPC   C1A44007  25.849   4.342   6.294
 3357POPC   D2A44008  26.130   4.428   6.647
 3357POPC   C3A44009  25.918   4.353   7.069
 3357POPC   C4A44010  25.864   4.157   7.494
 3357POPC   C1B44011  26.324   4.039   6.363
 3357POPC   C2B44012  26.326   3.962   6.818
 3357POPC   C3B44013  26.367   4.141   7.259
 3357POPC   C4B44014  26.333   4.224   7.713
 3358POPC   NC344015  34.085  17.307   5.435
 3358POPC   PO444016  33.797  17.969   5.296
 3358POPC   GL144017  33.905  17.715   5.671
 3358POPC   GL244018  33.712  17.455   5.793
 3358POPC   C1A44019  34.029  17.795   6.098
 3358POPC   D2A44020  33.934  17.603   6.488
 3358POPC   C3A44021  34.088  17.833   6.822
 3358POPC   C4A44022  34.032  17.653   7.210
 3358POPC   C1B44023  33.651  17.226   6.172
 3358POPC   C2B44024  33.447  17.126   6.562
 3358POPC   C3B44025  33.622  17.306   6.901
 3358POPC   C4B44026  33.837  17.167   7.234
 3359POPC   NC344027  23.439  31.835   5.629
 3359POPC   PO444028  23.769  31.491   5.107
 3359POPC   GL144029  23.751  31.395   5.597
 3359POPC   GL244030  23.959  31.646   5.719
 3359POPC   C1A44031  23.753  31.373   6.106
 3359POPC   D2A44032  23.700  31.229   6.558
 3359POPC   C3A44033  23.652  31.453   6.966
 3359POPC   C4A44034  23.620  31.225   7.378
 3359POPC   C1B44035  24.123  31.727   6.146
 3359POPC   C2B44036  23.960  31.721   6.560
 3359POPC   C3B44037  24.103  31.747   6.972
 3359POPC   C4B44038  23.980  31.577   7.348
 3360POPC   NC344039   6.125  30.084   5.354
 3360POPC   PO444040   5.858  29.545   5.344
 3360POPC   GL144041   5.895  29.554   5.827
 3360POPC   GL244042   6.016  29.917   5.852
 3360POPC   C1A44043   5.939  29.648   6.287
 3360POPC   D2A44044   6.065  29.546   6.727
 3360POPC   C3A44045   5.804  29.811   7.022
 3360POPC   C4A44046   5.754  29.855   7.463
 3360POPC   C1B44047   6.099  30.299   6.122
 3360POPC   C2B44048   5.886  30.456   6.500
 3360POPC   C3B44049   5.792  30.338   6.928
 3360POPC   C4B44050   5.933  30.334   7.361
 3361POPC   NC344051  13.375  40.167   5.387
 3361POPC   PO444052  13.751  39.683   5.327
 3361POPC   GL144053  13.866  39.809   5.751
 3361POPC   GL244054  13.869  40.158   5.754
 3361POPC   C1A44055  13.711  39.947   6.182
 3361POPC   D2A44056  13.599  40.182   6.561
 3361POPC   C3A44057  13.695  39.965   6.902
 3361POPC   C4A44058  13.774  39.822   7.276
 3361POPC   C1B44059  14.132  40.221   6.138
 3361POPC   C2B44060  14.099  40.079   6.575
 3361POPC   C3B44061  14.006  40.364   6.959
 3361POPC   C4B44062  13.801  40.374   7.400
 3362POPC   NC344063  43.898   5.923   5.245
 3362POPC   PO444064  43.543   6.198   5.741
 3362POPC   GL144065  43.884   6.065   5.947
 3362POPC   GL244066  44.012   5.764   5.753
 3362POPC   C1A44067  43.918   6.129   6.401
 3362POPC   D2A44068  43.987   5.960   6.826
 3362POPC   C3A44069  43.789   6.164   7.188
 3362POPC   C4A44070  44.041   6.310   7.586
 3362POPC   C1B44071  43.916   5.589   6.163
 3362POPC   C2B44072  43.637   5.429   6.458
 3362POPC   C3B44073  43.706   5.518   6.861
 3362POPC   C4B44074  43.812   5.657   7.247
 3363POPC   NC344075  17.658  13.892   5.421
 3363POPC   PO444076  17.507  13.258   5.444
 3363POPC   GL144077  17.502  13.516   5.850
 3363POPC   GL244078  17.516  13.887   5.902
 3363POPC   C1A44079  17.418  13.583   6.309
 3363POPC   D2A44080  17.723  13.672   6.637
 3363POPC   C3A44081  17.564  13.747   7.034
 3363POPC   C4A44082  17.218  13.574   7.220
 3363POPC   C1B44083  17.522  14.080   6.314
 3363POPC   C2B44084  17.166  14.083   6.529
 3363POPC   C3B44085  17.074  13.885   6.855
 3363POPC   C4B44086  17.210  14.084   7.215
 3364POPC   NC344087  41.837   4.975   5.478
 3364POPC   PO444088  41.327   5.467   5.354
 3364POPC   GL144089  41.596   5.313   5.771
 3364POPC   GL244090  41.966   5.189   5.923
 3364POPC   C1A44091  41.573   5.266   6.223
 3364POPC   D2A44092  41.499   4.981   6.562
 3364POPC   C3A44093  41.441   5.115   6.981
 3364POPC   C4A44094  41.179   4.863   7.220
 3364POPC   C1B44095  41.978   4.850   6.260
 3364POPC   C2B44096  41.928   4.684   6.684
 3364POPC   C3B44097  41.768   4.756   7.111
 3364POPC   C4B44098  41.801   5.184   7.338
 3365POPC   NC344099  34.375   0.389   5.503
 3365POPC   PO444100  34.837   0.909   5.404
 3365POPC   GL144101  34.801   0.724   5.808
 3365POPC   GL244102  34.467   0.778   5.855
 3365POPC   C1A44103  34.756   0.429   6.197
 3365POPC   D2A44104  34.526   0.266   6.591
 3365POPC   C3A44105  34.675   0.386   7.014
 3365POPC   C4A44106  34.651   0.405   7.474
 3365POPC   C1B44107  34.324   0.663   6.279
 3365POPC   C2B44108  34.129   0.584   6.651
 3365POPC   C3B44109  34.233   0.640   7.024
 3365POPC   C4B44110  34.308   0.769   7.442
 3366POPC   NC344111   6.775  11.161   5.457
 3366POPC   PO444112   6.738  11.851   5.419
 3366POPC   GL144113   6.647  11.523   5.793
 3366POPC   GL244114   6.447  11.554   6.101
 3366POPC   C1A44115   6.760  11.154   6.105
 3366POPC   D2A44116   6.592  11.227   6.506
 3366POPC   C3A44117   6.550  10.923   6.813
 3366POPC   C4A44118   6.484  11.194   7.150
 3366POPC   C1B44119   6.870  11.618   6.266
 3366POPC   C2B44120   7.085  11.550   6.631
 3366POPC   C3B44121   6.931  11.400   6.999
 3366POPC   C4B44122   6.938  11.571   7.395
 3367POPC   NC344123  28.524  44.497   5.403
 3367POPC   PO444124  28.113   0.006   5.451
 3367POPC   GL144125  28.278  44.702   5.779
 3367POPC   GL244126  28.623  44.752   5.910
 3367POPC   C1A44127  28.162  44.486   6.165
 3367POPC   D2A44128  27.920  44.668   6.511
 3367POPC   C3A44129  28.156  44.776   6.884
 3367POPC   C4A44130  28.235  44.705   7.311
 3367POPC   C1B44131  28.663  44.423   6.246
 3367POPC   C2B44132  28.440  44.282   6.633
 3367POPC   C3B44133  28.546  44.361   7.060
 3367POPC   C4B44134  28.542  44.331   7.516
 3368POPC   NC344135  29.102  30.792   5.478
 3368POPC   PO444136  29.625  30.467   5.405
 3368POPC   GL144137  29.441  30.511   5.810
 3368POPC   GL244138  29.082  30.395   5.815
 3368POPC   C1A44139  29.298  30.795   6.153
 3368POPC   D2A44140  28.989  30.929   6.511
 3368POPC   C3A44141  28.971  30.794   6.955
 3368POPC   C4A44142  29.363  30.771   7.157
 3368POPC   C1B44143  28.842  30.551   6.187
 3368POPC   C2B44144  28.602  30.598   6.573
 3368POPC   C3B44145  28.671  30.357   6.952
 3368POPC   C4B44146  28.898  30.404   7.349
 3369POPC   NC344147  20.256  43.305   5.725
 3369POPC   PO444148  20.663  42.830   5.391
 3369POPC   GL144149  20.647  42.949   5.826
 3369POPC   GL244150  20.339  42.767   5.898
 3369POPC   C1A44151  20.789  43.275   6.182
 3369POPC   D2A44152  20.644  43.369   6.665
 3369POPC   C3A44153  20.752  43.240   7.136
 3369POPC   C4A44154  20.859  43.261   7.626
 3369POPC   C1B44155  20.406  42.962   6.292
 3369POPC   C2B44156  20.450  42.887   6.696
 3369POPC   C3B44157  20.523  42.769   7.065
 3369POPC   C4B44158  20.536  42.906   7.468
 3370POPC   NC344159  23.434   0.983   5.479
 3370POPC   PO444160  23.950   1.349   5.472
 3370POPC   GL144161  23.668   1.316   5.798
 3370POPC   GL244162  23.833   1.009   5.842
 3370POPC   C1A44163  23.472   1.173   6.200
 3370POPC   D2A44164  23.603   0.921   6.567
 3370POPC   C3A44165  23.582   1.056   7.004
 3370POPC   C4A44166  23.887   1.331   7.085
 3370POPC   C1B44167  23.986   1.203   6.226
 3370POPC   C2B44168  24.134   1.205   6.645
 3370POPC   C3B44169  24.040   0.861   6.866
 3370POPC   C4B44170  24.050   0.888   7.266
 3371POPC   NC344171  33.861  43.653   5.416
 3371POPC   PO444172  34.034  44.319   5.396
 3371POPC   GL144173  33.896  43.987   5.803
 3371POPC   GL244174  33.683  43.612   5.871
 3371POPC   C1A44175  33.997  43.795   6.235
 3371POPC   D2A44176  34.076  43.994   6.632
 3371POPC   C3A44177  33.978  43.867   7.065
 3371POPC   C4A44178  34.003  44.152   7.433
 3371POPC   C1B44179  33.490  43.747   6.231
 3371POPC   C2B44180  33.626  43.730   6.652
 3371POPC   C3B44181  33.511  43.603   7.061
 3371POPC   C4B44182  33.252  43.858   7.332
 3372POPC   NC344183  20.182  41.843   5.604
 3372POPC   PO444184  19.787  42.347   5.382
 3372POPC   GL144185  19.641  42.319   5.789
 3372POPC   GL244186  19.939  42.306   5.969
 3372POPC   C1A44187  19.520  42.467   6.209
 3372POPC   D2A44188  19.670  42.429   6.638
 3372POPC   C3A44189  19.676  42.768   6.922
 3372POPC   C4A44190  19.698  42.502   7.273
 3372POPC   C1B44191  20.242  42.190   6.292
 3372POPC   C2B44192  20.382  42.388   6.669
 3372POPC   C3B44193  20.202  42.381   7.080
 3372POPC   C4B44194  19.966  42.061   7.242
 3373POPC   NC344195  25.794  28.340   5.369
 3373POPC   PO444196  26.327  27.932   5.436
 3373POPC   GL144197  26.211  28.329   5.740
 3373POPC   GL244198  25.847  28.359   5.866
 3373POPC   C1A44199  26.176  28.502   6.211
 3373POPC   D2A44200  25.991  28.436   6.648
 3373POPC   C3A44201  26.165  28.541   7.083
 3373POPC   C4A44202  26.162  28.359   7.502
 3373POPC   C1B44203  25.618  28.554   6.230
 3373POPC   C2B44204  25.562  28.747   6.658
 3373POPC   C3B44205  25.674  28.543   7.037
 3373POPC   C4B44206  25.631  28.392   7.446
 3374POPC   NC344207  36.464  22.954   5.149
 3374POPC   PO444208  36.969  22.588   5.380
 3374POPC   GL144209  36.879  22.637   5.817
 3374POPC   GL244210  36.712  22.319   5.864
 3374POPC   C1A44211  36.901  22.928   6.209
 3374POPC   D2A44212  36.751  23.255   6.514
 3374POPC   C3A44213  36.766  23.216   6.928
 3374POPC   C4A44214  37.075  23.120   7.221
 3374POPC   C1B44215  36.595  22.514   6.265
 3374POPC   C2B44216  36.616  22.765   6.657
 3374POPC   C3B44217  36.727  22.731   7.099
 3374POPC   C4B44218  36.787  22.392   7.361
 3375POPC   NC344219   9.560  40.295   5.570
 3375POPC   PO444220   9.787  39.746   5.179
 3375POPC   GL144221   9.929  39.951   5.641
 3375POPC   GL244222   9.634  39.932   5.924
 3375POPC   C1A44223  10.017  40.150   6.106
 3375POPC   D2A44224   9.732  40.066   6.494
 3375POPC   C3A44225   9.865  40.128   6.939
 3375POPC   C4A44226   9.637  40.374   7.257
 3375POPC   C1B44227   9.697  39.633   6.213
 3375POPC   C2B44228   9.999  39.630   6.528
 3375POPC   C3B44229   9.781  39.631   6.885
 3375POPC   C4B44230   9.673  39.564   7.274
 3376POPC   NC344231  32.413  21.920   5.574
 3376POPC   PO444232  32.343  22.537   5.295
 3376POPC   GL144233  32.221  22.381   5.740
 3376POPC   GL244234  32.515  22.451   5.867
 3376POPC   C1A44235  32.295  22.096   6.170
 3376POPC   D2A44236  32.472  21.982   6.587
 3376POPC   C3A44237  32.151  22.008   6.910
 3376POPC   C4A44238  32.155  21.840   7.315
 3376POPC   C1B44239  32.217  22.578   6.220
 3376POPC   C2B44240  32.115  22.469   6.624
 3376POPC   C3B44241  32.215  22.597   7.036
 3376POPC   C4B44242  32.059  22.340   7.310
 3377POPC   NC344243  40.112   3.585   5.504
 3377POPC   PO444244  39.429   3.390   5.387
 3377POPC   GL144245  39.698   3.489   5.845
 3377POPC   GL244246  39.938   3.775   5.931
 3377POPC   C1A44247  39.905   3.470   6.313
 3377POPC   D2A44248  40.191   3.318   6.651
 3377POPC   C3A44249  39.942   3.399   7.018
 3377POPC   C4A44250  39.872   3.617   7.399
 3377POPC   C1B44251  40.257   3.824   6.244
 3377POPC   C2B44252  40.147   3.838   6.698
 3377POPC   C3B44253  40.388   3.705   7.063
 3377POPC   C4B44254  40.386   3.648   7.518
 3378POPC   NC344255  24.669  35.929   5.428
 3378POPC   PO444256  24.240  36.459   5.572
 3378POPC   GL144257  24.379  36.152   5.835
 3378POPC   GL244258  24.701  36.266   5.849
 3378POPC   C1A44259  24.435  36.082   6.258
 3378POPC   D2A44260  24.407  36.247   6.664
 3378POPC   C3A44261  24.483  35.892   6.908
 3378POPC   C4A44262  24.365  35.894   7.325
 3378POPC   C1B44263  24.879  36.321   6.234
 3378POPC   C2B44264  24.894  36.128   6.622
 3378POPC   C3B44265  24.810  36.268   7.017
 3378POPC   C4B44266  24.813  36.176   7.418
 3379POPC   NC344267   6.555  24.889   5.440
 3379POPC   PO444268   6.984  25.316   5.262
 3379POPC   GL144269   6.792  25.287   5.701
 3379POPC   GL244270   6.457  25.392   5.621
 3379POPC   C1A44271   6.808  25.260   6.185
 3379POPC   D2A44272   6.964  25.469   6.587
 3379POPC   C3A44273   6.863  25.362   7.017
 3379POPC   C4A44274   7.026  25.386   7.430
 3379POPC   C1B44275   6.371  25.476   6.057
 3379POPC   C2B44276   6.454  25.480   6.522
 3379POPC   C3B44277   6.449  25.651   6.962
 3379POPC   C4B44278   6.192  25.682   7.346
 3380POPC   NC344279  37.713  20.034   5.401
 3380POPC   PO444280  37.385  19.499   5.457
 3380POPC   GL144281  37.667  19.689   5.778
 3380POPC   GL244282  37.550  20.024   5.882
 3380POPC   C1A44283  37.901  19.790   6.163
 3380POPC   D2A44284  37.700  19.885   6.557
 3380POPC   C3A44285  37.910  19.868   6.955
 3380POPC   C4A44286  37.765  19.914   7.403
 3380POPC   C1B44287  37.319  20.139   6.257
 3380POPC   C2B44288  37.198  19.973   6.661
 3380POPC   C3B44289  37.398  19.838   7.049
 3380POPC   C4B44290  37.211  19.828   7.463
 3381POPC   NC344291  23.026   7.119   5.200
 3381POPC   PO444292  23.604   7.477   5.494
 3381POPC   GL144293  23.785   7.164   5.807
 3381POPC   GL244294  23.620   7.401   6.010
 3381POPC   C1A44295  24.032   7.154   6.191
 3381POPC   D2A44296  24.170   7.323   6.587
 3381POPC   C3A44297  23.847   7.317   6.895
 3381POPC   C4A44298  23.793   7.088   7.279
 3381POPC   C1B44299  23.478   7.719   6.303
 3381POPC   C2B44300  23.718   7.982   6.599
 3381POPC   C3B44301  23.791   7.869   7.023
 3381POPC   C4B44302  23.527   7.563   7.242
 3382POPC   NC344303  42.532   7.514   5.256
 3382POPC   PO444304  42.116   7.087   5.487
 3382POPC   GL144305  42.189   7.295   5.854
 3382POPC   GL244306  42.164   7.674   5.893
 3382POPC   C1A44307  42.299   7.366   6.273
 3382POPC   D2A44308  42.145   7.666   6.586
 3382POPC   C3A44309  42.144   7.456   6.960
 3382POPC   C4A44310  42.371   7.234   7.284
 3382POPC   C1B44311  42.476   7.835   6.199
 3382POPC   C2B44312  42.662   7.626   6.585
 3382POPC   C3B44313  42.626   7.638   7.046
 3382POPC   C4B44314  42.483   7.744   7.448
 3383POPC   NC344315  34.641  24.367   5.470
 3383POPC   PO444316  34.122  24.738   5.377
 3383POPC   GL144317  34.282  24.642   5.802
 3383POPC   GL244318  34.267  24.301   5.874
 3383POPC   C1A44319  34.600  24.604   6.167
 3383POPC   D2A44320  34.771  24.767   6.560
 3383POPC   C3A44321  34.580  24.664   6.963
 3383POPC   C4A44322  34.589  24.717   7.387
 3383POPC   C1B44323  34.249  24.269   6.306
 3383POPC   C2B44324  34.462  24.272   6.669
 3383POPC   C3B44325  34.380  24.195   7.075
 3383POPC   C4B44326  34.147  24.473   7.247
 3384POPC   NC344327  30.120  12.732   5.546
 3384POPC   PO444328  29.794  13.363   5.718
 3384POPC   GL144329  30.130  13.117   5.919
 3384POPC   GL244330  29.995  12.800   6.034
 3384POPC   C1A44331  30.331  13.018   6.315
 3384POPC   D2A44332  30.115  12.765   6.596
 3384POPC   C3A44333  30.257  12.833   6.974
 3384POPC   C4A44334  30.120  12.909   7.364
 3384POPC   C1B44335  29.777  12.515   6.300
 3384POPC   C2B44336  29.915  12.294   6.667
 3384POPC   C3B44337  29.941  12.458   7.051
 3384POPC   C4B44338  29.579  12.540   7.217
 3385POPC   NC344339  21.136   7.333   5.406
 3385POPC   PO444340  21.766   7.106   5.310
 3385POPC   GL144341  21.536   7.212   5.746
 3385POPC   GL244342  21.354   7.523   5.851
 3385POPC   C1A44343  21.292   7.086   6.136
 3385POPC   D2A44344  21.148   7.323   6.501
 3385POPC   C3A44345  21.315   7.232   6.913
 3385POPC   C4A44346  21.503   7.410   7.295
 3385POPC   C1B44347  21.665   7.520   6.178
 3385POPC   C2B44348  21.608   7.592   6.618
 3385POPC   C3B44349  21.792   7.714   6.994
 3385POPC   C4B44350  21.991   7.859   7.345
 3386POPC   NC344351  16.181   2.086   5.083
 3386POPC   PO444352  15.583   2.031   5.289
 3386POPC   GL144353  15.822   2.043   5.699
 3386POPC   GL244354  15.695   1.796   5.927
 3386POPC   C1A44355  15.946   2.150   6.171
 3386POPC   D2A44356  15.911   1.904   6.537
 3386POPC   C3A44357  16.028   2.086   6.912
 3386POPC   C4A44358  15.903   2.153   7.311
 3386POPC   C1B44359  15.595   1.578   6.291
 3386POPC   C2B44360  15.588   1.498   6.714
 3386POPC   C3B44361  15.658   1.761   7.060
 3386POPC   C4B44362  15.823   1.671   7.465
 3387POPC   NC344363  42.111  43.728   5.128
 3387POPC   PO444364  42.336  43.203   5.436
 3387POPC   GL144365  42.362  43.145   5.839
 3387POPC   GL244366  42.007  43.121   5.842
 3387POPC   C1A44367  42.611  43.215   6.212
 3387POPC   D2A44368  42.802  43.134   6.625
 3387POPC   C3A44369  42.534  43.126   6.992
 3387POPC   C4A44370  42.461  43.379   7.324
 3387POPC   C1B44371  42.125  42.914   6.214
 3387POPC   C2B44372  41.948  42.818   6.578
 3387POPC   C3B44373  41.963  43.058   6.927
 3387POPC   C4B44374  42.137  42.939   7.277
 3388POPC   NC344375  44.902  41.251   5.735
 3388POPC   PO444376  44.384  41.359   5.326
 3388POPC   GL144377  44.335  41.526   5.813
 3388POPC   GL244378  44.634  41.670   5.886
 3388POPC   C1A44379  44.465  41.489   6.305
 3388POPC   D2A44380  44.589  41.673   6.717
 3388POPC   C3A44381  44.777  41.346   6.974
 3388POPC   C4A44382  44.599  41.075   7.296
 3388POPC   C1B44383  44.793  41.934   6.233
 3388POPC   C2B44384   0.041  41.937   6.600
 3388POPC   C3B44385  44.868  42.043   6.958
 3388POPC   C4B44386  44.751  41.768   7.275
 3389POPC   NC344387  12.508  19.381   5.361
 3389POPC   PO444388  12.849  18.765   5.461
 3389POPC   GL144389  12.929  19.019   5.835
 3389POPC   GL244390  13.083  19.341   5.831
 3389POPC   C1A44391  13.019  18.916   6.278
 3389POPC   D2A44392  12.962  19.161   6.666
 3389POPC   C3A44393  12.689  19.004   7.004
 3389POPC   C4A44394  12.374  18.996   7.341
 3389POPC   C1B44395  13.317  19.300   6.190
 3389POPC   C2B44396  13.471  19.292   6.605
 3389POPC   C3B44397  13.319  19.363   7.021
 3389POPC   C4B44398  13.082  19.621   7.285
 3390POPC   NC344399  37.141  26.844   5.431
 3390POPC   PO444400  36.787  26.328   5.283
 3390POPC   GL144401  36.796  26.603   5.736
 3390POPC   GL244402  36.733  26.949   5.797
 3390POPC   C1A44403  37.048  26.630   6.175
 3390POPC   D2A44404  37.072  26.823   6.588
 3390POPC   C3A44405  36.999  26.629   6.996
 3390POPC   C4A44406  36.722  26.458   7.313
 3390POPC   C1B44407  37.040  27.131   6.076
 3390POPC   C2B44408  37.001  27.315   6.486
 3390POPC   C3B44409  36.880  27.206   6.906
 3390POPC   C4B44410  36.929  27.027   7.309
 3391POPC   NC344411  41.010  28.233   5.518
 3391POPC   PO444412  40.649  28.741   5.555
 3391POPC   GL144413  40.464  28.595   5.915
 3391POPC   GL244414  40.500  28.226   5.943
 3391POPC   C1A44415  40.510  28.625   6.325
 3391POPC   D2A44416  40.605  28.319   6.580
 3391POPC   C3A44417  40.600  28.587   6.888
 3391POPC   C4A44418  40.641  28.779   7.259
 3391POPC   C1B44419  40.902  28.357   6.153
 3391POPC   C2B44420  41.114  28.244   6.545
 3391POPC   C3B44421  40.976  28.247   6.990
 3391POPC   C4B44422  41.023  28.077   7.424
 3392POPC   NC344423  29.923   3.669   5.448
 3392POPC   PO444424  29.416   3.095   5.487
 3392POPC   GL144425  29.607   3.448   5.836
 3392POPC   GL244426  29.823   3.799   5.931
 3392POPC   C1A44427  29.822   3.456   6.283
 3392POPC   D2A44428  30.064   3.438   6.658
 3392POPC   C3A44429  29.744   3.415   6.943
 3392POPC   C4A44430  29.620   3.504   7.323
 3392POPC   C1B44431  30.234   3.759   6.232
 3392POPC   C2B44432  30.236   3.935   6.691
 3392POPC   C3B44433  30.022   3.811   7.085
 3392POPC   C4B44434  29.958   3.781   7.574
 3393POPC   NC344435  40.067  22.597   5.363
 3393POPC   PO444436  40.015  23.243   5.502
 3393POPC   GL144437  39.908  22.917   5.829
 3393POPC   GL244438  40.147  22.628   5.855
 3393POPC   C1A44439  39.684  22.967   6.248
 3393POPC   D2A44440  39.461  22.820   6.618
 3393POPC   C3A44441  39.668  22.739   7.023
 3393POPC   C4A44442  39.640  22.915   7.448
 3393POPC   C1B44443  40.219  22.771   6.248
 3393POPC   C2B44444  40.019  22.836   6.639
 3393POPC   C3B44445  40.179  22.895   7.040
 3393POPC   C4B44446  40.149  23.045   7.458
 3394POPC   NC344447   4.538  27.036   5.433
 3394POPC   PO444448   4.210  27.692   5.462
 3394POPC   GL144449   4.332  27.801   5.852
 3394POPC   GL244450   4.489  27.463   5.856
 3394POPC   C1A44451   4.363  27.872   6.293
 3394POPC   D2A44452   4.693  27.891   6.604
 3394POPC   C3A44453   4.598  27.599   6.903
 3394POPC   C4A44454   4.333  27.744   7.194
 3394POPC   C1B44455   4.132  27.432   6.131
 3394POPC   C2B44456   4.262  27.430   6.559
 3394POPC   C3B44457   4.091  27.366   6.971
 3394POPC   C4B44458   4.121  27.233   7.379
 3395POPC   NC344459   6.565  16.458   5.139
 3395POPC   PO444460   6.708  17.057   5.474
 3395POPC   GL144461   6.795  16.818   5.841
 3395POPC   GL244462   7.120  16.918   5.887
 3395POPC   C1A44463   6.618  16.682   6.261
 3395POPC   D2A44464   6.322  16.813   6.612
 3395POPC   C3A44465   6.447  16.592   6.998
 3395POPC   C4A44466   6.691  16.470   7.347
 3395POPC   C1B44467   6.939  17.102   6.275
 3395POPC   C2B44468   6.738  17.179   6.692
 3395POPC   C3B44469   6.758  17.090   7.137
 3395POPC   C4B44470   6.943  16.885   7.521
 3396POPC   NC344471  41.992   9.981   5.361
 3396POPC   PO444472  41.633  10.588   5.386
 3396POPC   GL144473  41.540  10.428   5.794
 3396POPC   GL244474  41.870  10.264   5.810
 3396POPC   C1A44475  41.388  10.666   6.185
 3396POPC   D2A44476  41.597  10.848   6.576
 3396POPC   C3A44477  41.391  10.716   6.966
 3396POPC   C4A44478  41.437  10.426   7.323
 3396POPC   C1B44479  41.835  10.442   6.255
 3396POPC   C2B44480  41.704  10.373   6.672
 3396POPC   C3B44481  41.867  10.495   7.056
 3396POPC   C4B44482  41.908  10.275   7.452
 3397POPC   NC344483   8.181  21.751   5.384
 3397POPC   PO444484   7.986  22.384   5.525
 3397POPC   GL144485   8.364  22.259   5.816
 3397POPC   GL244486   8.417  21.900   5.828
 3397POPC   C1A44487   8.338  22.247   6.270
 3397POPC   D2A44488   7.968  22.254   6.556
 3397POPC   C3A44489   7.980  22.355   7.007
 3397POPC   C4A44490   7.939  22.211   7.441
 3397POPC   C1B44491   8.509  21.769   6.239
 3397POPC   C2B44492   8.516  21.910   6.682
 3397POPC   C3B44493   8.592  21.918   7.130
 3397POPC   C4B44494   8.440  22.277   7.316
 3398POPC   NC344495   2.799  39.520   5.538
 3398POPC   PO444496   3.244  38.943   5.538
 3398POPC   GL144497   2.914  38.883   5.857
 3398POPC   GL244498   2.635  39.136   5.864
 3398POPC   C1A44499   2.824  38.967   6.312
 3398POPC   D2A44500   2.745  39.220   6.659
 3398POPC   C3A44501   2.805  39.041   7.058
 3398POPC   C4A44502   2.761  39.347   7.381
 3398POPC   C1B44503   2.317  39.147   6.217
 3398POPC   C2B44504   2.259  39.354   6.631
 3398POPC   C3B44505   2.378  39.354   7.034
 3398POPC   C4B44506   2.319  38.981   7.262
 3399POPC   NC344507  34.804  19.572   5.584
 3399POPC   PO444508  34.511  20.020   5.148
 3399POPC   GL144509  34.414  19.901   5.663
 3399POPC   GL244510  34.429  19.578   5.930
 3399POPC   C1A44511  34.490  20.024   6.126
 3399POPC   D2A44512  34.403  19.763   6.476
 3399POPC   C3A44513  34.400  20.005   6.835
 3399POPC   C4A44514  34.544  20.008   7.231
 3399POPC   C1B44515  34.774  19.494   6.249
 3399POPC   C2B44516  34.736  19.427   6.700
 3399POPC   C3B44517  34.695  19.525   7.138
 3399POPC   C4B44518  35.022  19.431   7.420
 3400POPC   NC344519  30.994  24.470   5.529
 3400POPC   PO444520  30.427  24.268   5.425
 3400POPC   GL144521  30.540  24.532   5.771
 3400POPC   GL244522  30.553  24.191   5.937
 3400POPC   C1A44523  30.805  24.599   6.147
 3400POPC   D2A44524  30.881  24.454   6.535
 3400POPC   C3A44525  30.640  24.549   6.876
 3400POPC   C4A44526  30.794  24.668   7.254
 3400POPC   C1B44527  30.437  24.135   6.381
 3400POPC   C2B44528  30.371  24.066   6.828
 3400POPC   C3B44529  30.224  24.262   7.205
 3400POPC   C4B44530  30.206  24.245   7.653
 3401POPC   NC344531   2.602  34.743   5.368
 3401POPC   PO444532   2.551  34.081   5.668
 3401POPC   GL144533   2.758  34.332   5.924
 3401POPC   GL244534   2.699  34.673   5.875
 3401POPC   C1A44535   2.743  34.424   6.355
 3401POPC   D2A44536   2.463  34.463   6.692
 3401POPC   C3A44537   2.675  34.579   7.068
 3401POPC   C4A44538   2.702  34.355   7.434
 3401POPC   C1B44539   2.992  34.864   6.179
 3401POPC   C2B44540   3.096  34.865   6.615
 3401POPC   C3B44541   3.125  34.894   7.056
 3401POPC   C4B44542   3.172  34.585   7.377
 3402POPC   NC344543  15.630   0.183   5.604
 3402POPC   PO444544  15.010   0.131   5.269
 3402POPC   GL144545  15.121   0.191   5.756
 3402POPC   GL244546  15.283   0.510   5.838
 3402POPC   C1A44547  15.037   0.079   6.226
 3402POPC   D2A44548  14.876   0.061   6.685
 3402POPC   C3A44549  15.110   0.368   6.988
 3402POPC   C4A44550  15.301   0.335   7.402
 3402POPC   C1B44551  15.446   0.401   6.247
 3402POPC   C2B44552  15.564   0.349   6.663
 3402POPC   C3B44553  15.628   0.521   7.042
 3402POPC   C4B44554  15.404   0.806   7.244
 3403POPC   NC344555  35.585  31.471   5.358
 3403POPC   PO444556  34.965  31.526   5.430
 3403POPC   GL144557  35.175  31.360   5.787
 3403POPC   GL244558  35.460  31.138   5.728
 3403POPC   C1A44559  35.461  31.473   6.140
 3403POPC   D2A44560  35.603  31.517   6.598
 3403POPC   C3A44561  35.363  31.588   7.009
 3403POPC   C4A44562  35.330  31.779   7.433
 3403POPC   C1B44563  35.244  30.981   6.108
 3403POPC   C2B44564  35.250  31.144   6.522
 3403POPC   C3B44565  35.460  31.100   6.912
 3403POPC   C4B44566  35.353  31.194   7.330
 3404POPC   NC344567   8.922   1.893   5.256
 3404POPC   PO444568   8.848   2.411   5.656
 3404POPC   GL144569   8.840   1.963   5.761
 3404POPC   GL244570   9.162   1.763   5.735
 3404POPC   C1A44571   8.820   1.852   6.182
 3404POPC   D2A44572   9.051   2.112   6.494
 3404POPC   C3A44573   8.910   2.051   6.915
 3404POPC   C4A44574   8.985   2.442   7.129
 3404POPC   C1B44575   9.330   1.757   6.194
 3404POPC   C2B44576   9.079   1.619   6.563
 3404POPC   C3B44577   9.065   1.523   6.983
 3404POPC   C4B44578   8.751   1.586   7.264
 3405POPC   NC344579  44.188  21.298   5.564
 3405POPC   PO444580  43.788  21.800   5.425
 3405POPC   GL144581  43.845  21.616   5.798
 3405POPC   GL244582  43.771  21.261   5.826
 3405POPC   C1A44583  43.950  21.561   6.214
 3405POPC   D2A44584  43.901  21.382   6.596
 3405POPC   C3A44585  43.768  21.588   6.912
 3405POPC   C4A44586  43.582  21.662   7.298
 3405POPC   C1B44587  43.917  21.046   6.192
 3405POPC   C2B44588  43.919  20.864   6.590
 3405POPC   C3B44589  43.956  20.994   6.983
 3405POPC   C4B44590  43.863  21.246   7.303
 3406POPC   NC344591   5.444  43.254   5.355
 3406POPC   PO444592   6.020  42.849   5.439
 3406POPC   GL144593   6.107  42.922   5.869
 3406POPC   GL244594   6.006  43.285   5.884
 3406POPC   C1A44595   5.845  42.936   6.227
 3406POPC   D2A44596   5.865  43.136   6.626
 3406POPC   C3A44597   5.769  42.912   6.987
 3406POPC   C4A44598   5.941  42.943   7.385
 3406POPC   C1B44599   5.974  43.528   6.274
 3406POPC   C2B44600   6.182  43.542   6.690
 3406POPC   C3B44601   5.993  43.397   7.075
 3406POPC   C4B44602   6.091  43.400   7.508
 3407POPC   NC344603  25.424  43.587   5.529
 3407POPC   PO444604  25.080  44.217   5.356
 3407POPC   GL144605  25.241  44.006   5.778
 3407POPC   GL244606  25.565  43.797   5.956
 3407POPC   C1A44607  25.260  44.092   6.223
 3407POPC   D2A44608  25.515  44.016   6.581
 3407POPC   C3A44609  25.217  44.077   6.879
 3407POPC   C4A44610  25.114  43.909   7.240
 3407POPC   C1B44611  25.384  43.583   6.288
 3407POPC   C2B44612  25.077  43.684   6.563
 3407POPC   C3B44613  25.180  43.526   6.923
 3407POPC   C4B44614  24.980  43.351   7.221
 3408POPC   NC344615  26.525  20.756   5.342
 3408POPC   PO444616  27.017  20.271   5.178
 3408POPC   GL144617  26.972  20.414   5.658
 3408POPC   GL244618  26.709  20.650   5.791
 3408POPC   C1A44619  26.971  20.419   6.149
 3408POPC   D2A44620  27.154  20.417   6.575
 3408POPC   C3A44621  26.853  20.326   6.911
 3408POPC   C4A44622  26.910  20.340   7.334
 3408POPC   C1B44623  26.732  20.882   6.199
 3408POPC   C2B44624  26.660  20.674   6.566
 3408POPC   C3B44625  26.694  20.820   6.972
 3408POPC   C4B44626  26.483  20.735   7.285
 3409POPC   NC344627  23.820  23.488   5.486
 3409POPC   PO444628  23.544  24.020   5.178
 3409POPC   GL144629  23.606  23.913   5.682
 3409POPC   GL244630  23.425  23.601   5.790
 3409POPC   C1A44631  23.812  23.757   6.129
 3409POPC   D2A44632  23.774  23.530   6.543
 3409POPC   C3A44633  23.845  23.606   6.959
 3409POPC   C4A44634  23.533  23.778   7.200
 3409POPC   C1B44635  23.486  23.336   6.152
 3409POPC   C2B44636  23.306  23.343   6.524
 3409POPC   C3B44637  23.457  23.269   6.889
 3409POPC   C4B44638  23.511  23.238   7.283
 3410POPC   NC344639  28.037  42.166   5.338
 3410POPC   PO444640  28.583  42.494   5.607
 3410POPC   GL144641  28.193  42.320   5.812
 3410POPC   GL244642  28.162  41.933   5.809
 3410POPC   C1A44643  28.090  42.547   6.185
 3410POPC   D2A44644  28.014  42.464   6.628
 3410POPC   C3A44645  28.147  42.503   7.053
 3410POPC   C4A44646  28.547  42.367   7.244
 3410POPC   C1B44647  28.041  42.025   6.261
 3410POPC   C2B44648  27.895  41.979   6.708
 3410POPC   C3B44649  28.054  41.997   7.174
 3410POPC   C4B44650  28.236  42.165   7.600
 3411POPC   NC344651  12.348   4.747   5.474
 3411POPC   PO444652  12.007   5.265   5.279
 3411POPC   GL144653  11.989   5.075   5.706
 3411POPC   GL244654  11.815   5.355   5.889
 3411POPC   C1A44655  12.178   4.971   6.115
 3411POPC   D2A44656  12.408   4.730   6.442
 3411POPC   C3A44657  12.403   4.812   6.916
 3411POPC   C4A44658  12.476   5.201   7.161
 3411POPC   C1B44659  11.804   5.265   6.320
 3411POPC   C2B44660  12.059   5.085   6.626
 3411POPC   C3B44661  11.975   5.118   7.040
 3411POPC   C4B44662  11.662   4.996   7.345
 3412POPC   NC344663  21.016  27.684   5.437
 3412POPC   PO444664  20.358  27.355   5.331
 3412POPC   GL144665  20.402  27.599   5.725
 3412POPC   GL244666  20.747  27.573   5.860
 3412POPC   C1A44667  20.405  27.675   6.200
 3412POPC   D2A44668  20.646  27.614   6.585
 3412POPC   C3A44669  20.610  27.853   6.949
 3412POPC   C4A44670  20.356  27.805   7.278
 3412POPC   C1B44671  20.901  27.840   6.217
 3412POPC   C2B44672  21.128  27.763   6.631
 3412POPC   C3B44673  20.971  27.512   6.976
 3412POPC   C4B44674  20.798  27.588   7.362
 3413POPC   NC344675  37.173  15.194   5.491
 3413POPC   PO444676  36.612  14.701   5.576
 3413POPC   GL144677  36.841  14.981   5.919
 3413POPC   GL244678  37.099  15.279   5.982
 3413POPC   C1A44679  36.846  15.052   6.394
 3413POPC   D2A44680  37.084  15.240   6.758
 3413POPC   C3A44681  36.878  15.118   7.161
 3413POPC   C4A44682  36.653  15.308   7.520
 3413POPC   C1B44683  37.287  14.908   6.183
 3413POPC   C2B44684  37.259  14.723   6.564
 3413POPC   C3B44685  37.342  14.836   6.942
 3413POPC   C4B44686  37.315  14.739   7.336
 3414POPC   NC344687  27.475   3.509   5.054
 3414POPC   PO444688  27.438   3.239   5.665
 3414POPC   GL144689  27.448   3.618   5.900
 3414POPC   GL244690  27.802   3.668   5.830
 3414POPC   C1A44691  27.285   3.768   6.313
 3414POPC   D2A44692  27.134   3.509   6.670
 3414POPC   C3A44693  27.347   3.495   7.044
 3414POPC   C4A44694  27.606   3.805   7.232
 3414POPC   C1B44695  27.840   3.569   6.247
 3414POPC   C2B44696  27.686   3.622   6.639
 3414POPC   C3B44697  27.847   3.391   6.944
 3414POPC   C4B44698  27.987   3.495   7.329
 3415POPC   NC344699  32.583  10.415   5.014
 3415POPC   PO444700  32.406  10.662   5.568
 3415POPC   GL144701  32.199  10.730   5.864
 3415POPC   GL244702  32.507  10.950   5.948
 3415POPC   C1A44703  32.057  10.453   6.180
 3415POPC   D2A44704  32.194  10.398   6.607
 3415POPC   C3A44705  32.071  10.164   6.941
 3415POPC   C4A44706  32.139  10.490   7.235
 3415POPC   C1B44707  32.424  10.780   6.309
 3415POPC   C2B44708  32.239  10.904   6.611
 3415POPC   C3B44709  32.398  10.868   6.997
 3415POPC   C4B44710  32.553  10.874   7.405
 3416POPC   NC344711  22.431  14.547   5.342
 3416POPC   PO444712  21.871  14.205   5.154
 3416POPC   GL144713  22.003  14.331   5.633
 3416POPC   GL244714  22.331  14.451   5.826
 3416POPC   C1A44715  21.990  14.175   6.102
 3416POPC   D2A44716  21.775  14.312   6.478
 3416POPC   C3A44717  21.856  14.177   6.906
 3416POPC   C4A44718  22.168  14.288   7.239
 3416POPC   C1B44719  22.379  14.437   6.294
 3416POPC   C2B44720  22.234  14.505   6.745
 3416POPC   C3B44721  22.342  14.755   7.135
 3416POPC   C4B44722  22.570  14.656   7.549
 3417POPC   NC344723   0.432  11.203   5.290
 3417POPC   PO444724   0.350  11.802   5.373
 3417POPC   GL144725   0.441  11.515   5.729
 3417POPC   GL244726   0.320  11.168   5.843
 3417POPC   C1A44727   0.405  11.572   6.195
 3417POPC   D2A44728   0.200  11.545   6.623
 3417POPC   C3A44729   0.402  11.582   7.021
 3417POPC   C4A44730   0.353  11.434   7.448
 3417POPC   C1B44731   0.453  11.078   6.333
 3417POPC   C2B44732   0.436  11.102   6.826
 3417POPC   C3B44733   0.433  10.944   7.265
 3417POPC   C4B44734   0.792  10.765   7.529
 3418POPC   NC344735  16.009  28.718   5.593
 3418POPC   PO444736  16.324  28.011   5.514
 3418POPC   GL144737  16.360  28.260   5.876
 3418POPC   GL244738  16.039  28.280   5.857
 3418POPC   C1A44739  16.281  28.332   6.302
 3418POPC   D2A44740  16.034  28.508   6.631
 3418POPC   C3A44741  16.143  28.366   7.032
 3418POPC   C4A44742  15.967  28.052   7.272
 3418POPC   C1B44743  15.786  28.226   6.222
 3418POPC   C2B44744  15.663  28.079   6.633
 3418POPC   C3B44745  15.587  28.333   6.996
 3418POPC   C4B44746  15.763  28.521   7.360
 3419POPC   NC344747  19.468   0.229   5.165
 3419POPC   PO444748  18.940   0.664   5.383
 3419POPC   GL144749  19.097   0.649   5.857
 3419POPC   GL244750  19.009   0.328   6.053
 3419POPC   C1A44751  19.222   0.681   6.314
 3419POPC   D2A44752  18.938   0.479   6.617
 3419POPC   C3A44753  19.008   0.649   7.022
 3419POPC   C4A44754  18.731   0.634   7.348
 3419POPC   C1B44755  19.038   0.016   6.357
 3419POPC   C2B44756  18.856  44.924   6.715
 3419POPC   C3B44757  18.887   0.133   7.073
 3419POPC   C4B44758  19.310   0.254   7.182
 3420POPC   NC344759   4.368  37.405   5.453
 3420POPC   PO444760   4.474  38.119   5.433
 3420POPC   GL144761   4.513  37.850   5.809
 3420POPC   GL244762   4.766  37.574   5.735
 3420POPC   C1A44763   4.397  37.927   6.275
 3420POPC   D2A44764   4.082  37.867   6.628
 3420POPC   C3A44765   4.087  37.504   6.912
 3420POPC   C4A44766   4.033  37.620   7.357
 3420POPC   C1B44767   4.517  37.434   6.116
 3420POPC   C2B44768   4.541  37.275   6.538
 3420POPC   C3B44769   4.596  37.410   6.957
 3420POPC   C4B44770   4.353  37.234   7.270
 3421POPC   NC344771  31.050  17.728   5.255
 3421POPC   PO444772  30.750  17.325   5.665
 3421POPC   GL144773  30.626  17.386   6.045
 3421POPC   GL244774  30.388  17.663   5.972
 3421POPC   C1A44775  30.941  17.473   6.350
 3421POPC   D2A44776  31.073  17.313   6.733
 3421POPC   C3A44777  30.868  17.434   7.093
 3421POPC   C4A44778  30.927  17.596   7.499
 3421POPC   C1B44779  30.521  17.756   6.365
 3421POPC   C2B44780  30.646  17.703   6.741
 3421POPC   C3B44781  30.420  17.659   7.123
 3421POPC   C4B44782  30.487  17.878   7.501
 3422POPC   NC344783  21.878  43.344   5.506
 3422POPC   PO444784  22.333  42.865   5.399
 3422POPC   GL144785  22.119  42.954   5.771
 3422POPC   GL244786  22.224  43.307   5.890
 3422POPC   C1A44787  22.102  42.840   6.188
 3422POPC   D2A44788  22.280  43.079   6.493
 3422POPC   C3A44789  22.253  42.911   6.892
 3422POPC   C4A44790  22.239  43.133   7.291
 3422POPC   C1B44791  21.857  43.298   6.154
 3422POPC   C2B44792  21.754  43.099   6.512
 3422POPC   C3B44793  21.852  43.254   6.896
 3422POPC   C4B44794  21.755  43.291   7.304
 3423POPC   NC344795  15.307  44.439   5.522
 3423POPC   PO444796  14.990  43.955   5.192
 3423POPC   GL144797  15.032  44.016   5.694
 3423POPC   GL244798  15.373  44.035   5.792
 3423POPC   C1A44799  15.138  43.840   6.167
 3423POPC   D2A44800  15.174  44.062   6.559
 3423POPC   C3A44801  14.948  43.944   6.947
 3423POPC   C4A44802  14.970  43.684   7.326
 3423POPC   C1B44803  15.442  44.315   6.143
 3423POPC   C2B44804  15.553  44.426   6.551
 3423POPC   C3B44805  15.536  44.176   6.909
 3423POPC   C4B44806  15.341  44.037   7.269
 3424POPC   NC344807  13.109  44.105   5.637
 3424POPC   PO444808  12.725  44.503   5.171
 3424POPC   GL144809  12.667  44.586   5.675
 3424POPC   GL244810  12.718  44.333   5.868
 3424POPC   C1A44811  12.776  44.783   6.087
 3424POPC   D2A44812  13.001  44.774   6.488
 3424POPC   C3A44813  12.855  44.644   6.910
 3424POPC   C4A44814  12.730  44.894   7.266
 3424POPC   C1B44815  12.969  44.283   6.252
 3424POPC   C2B44816  13.209  44.329   6.615
 3424POPC   C3B44817  13.193  44.271   7.044
 3424POPC   C4B44818  12.897  44.399   7.385
 3425POPC   NC344819  20.607   7.901   5.542
 3425POPC   PO444820  20.726   8.506   5.407
 3425POPC   GL144821  20.755   8.366   5.822
 3425POPC   GL244822  20.421   8.493   5.873
 3425POPC   C1A44823  20.903   8.229   6.249
 3425POPC   D2A44824  20.799   8.362   6.685
 3425POPC   C3A44825  20.736   8.064   7.030
 3425POPC   C4A44826  21.058   8.157   7.314
 3425POPC   C1B44827  20.561   8.613   6.270
 3425POPC   C2B44828  20.313   8.477   6.611
 3425POPC   C3B44829  20.342   8.413   7.022
 3425POPC   C4B44830  20.119   8.500   7.378
 3426POPC   NC344831  19.115  34.360   5.372
 3426POPC   PO444832  18.591  34.694   5.535
 3426POPC   GL144833  18.951  34.589   5.836
 3426POPC   GL244834  19.310  34.403   5.849
 3426POPC   C1A44835  19.032  34.517   6.269
 3426POPC   D2A44836  19.260  34.527   6.653
 3426POPC   C3A44837  18.987  34.473   6.985
 3426POPC   C4A44838  19.023  34.267   7.316
 3426POPC   C1B44839  19.521  34.597   6.200
 3426POPC   C2B44840  19.407  34.974   6.451
 3426POPC   C3B44841  19.321  34.967   6.890
 3426POPC   C4B44842  19.441  34.602   7.148
 3427POPC   NC344843  33.201  41.720   5.427
 3427POPC   PO444844  32.505  41.575   5.421
 3427POPC   GL144845  32.803  41.722   5.750
 3427POPC   GL244846  33.041  41.421   5.829
 3427POPC   C1A44847  32.895  41.724   6.212
 3427POPC   D2A44848  33.072  41.611   6.621
 3427POPC   C3A44849  32.779  41.616   6.997
 3427POPC   C4A44850  32.944  41.625   7.439
 3427POPC   C1B44851  33.250  41.176   6.151
 3427POPC   C2B44852  33.311  41.142   6.614
 3427POPC   C3B44853  33.180  41.296   7.039
 3427POPC   C4B44854  33.255  41.218   7.505
 3428POPC   NC344855   1.509  17.065   5.413
 3428POPC   PO444856   1.047  17.603   5.307
 3428POPC   GL144857   1.254  17.508   5.796
 3428POPC   GL244858   1.492  17.308   5.855
 3428POPC   C1A44859   1.100  17.508   6.238
 3428POPC   D2A44860   1.167  17.400   6.662
 3428POPC   C3A44861   1.285  17.697   6.964
 3428POPC   C4A44862   0.981  17.707   7.277
 3428POPC   C1B44863   1.618  17.373   6.273
 3428POPC   C2B44864   1.673  17.503   6.698
 3428POPC   C3B44865   1.597  17.288   7.100
 3428POPC   C4B44866   1.408  17.472   7.488
 3429POPC   NC344867  26.358  22.485   5.687
 3429POPC   PO444868  26.035  22.078   5.187
 3429POPC   GL144869  25.984  22.087   5.665
 3429POPC   GL244870  25.858  22.364   5.803
 3429POPC   C1A44871  25.920  21.993   6.137
 3429POPC   D2A44872  26.098  22.177   6.519
 3429POPC   C3A44873  25.985  22.090   6.939
 3429POPC   C4A44874  26.287  22.087   7.260
 3429POPC   C1B44875  25.802  22.508   6.233
 3429POPC   C2B44876  25.855  22.623   6.663
 3429POPC   C3B44877  25.598  22.436   6.983
 3429POPC   C4B44878  25.657  22.387   7.429
 3430POPC   NC344879  32.724   5.346   5.491
 3430POPC   PO444880  32.889   6.048   5.387
 3430POPC   GL144881  32.972   5.977   5.814
 3430POPC   GL244882  32.983   5.610   5.863
 3430POPC   C1A44883  32.698   6.040   6.157
 3430POPC   D2A44884  32.647   5.733   6.510
 3430POPC   C3A44885  32.853   5.921   6.877
 3430POPC   C4A44886  33.005   5.817   7.244
 3430POPC   C1B44887  33.096   5.771   6.273
 3430POPC   C2B44888  33.288   5.724   6.641
 3430POPC   C3B44889  33.366   5.533   6.995
 3430POPC   C4B44890  33.405   5.589   7.440
 3431POPC   NC344891  20.778  44.851   5.381
 3431POPC   PO444892  20.260  44.300   5.284
 3431POPC   GL144893  20.292  44.613   5.654
 3431POPC   GL244894  20.639  44.586   5.775
 3431POPC   C1A44895  20.338  44.817   6.104
 3431POPC   D2A44896  20.315  44.636   6.525
 3431POPC   C3A44897  20.482  44.850   6.893
 3431POPC   C4A44898  20.534  44.723   7.315
 3431POPC   C1B44899  20.773  44.513   6.182
 3431POPC   C2B44900  20.879  44.685   6.581
 3431POPC   C3B44901  20.902  44.505   6.998
 3431POPC   C4B44902  20.984  44.514   7.443
 3432POPC   NC344903  32.238  41.287   5.172
 3432POPC   PO444904  31.909  41.705   5.591
 3432POPC   GL144905  32.259  41.582   5.910
 3432POPC   GL244906  32.527  41.327   5.889
 3432POPC   C1A44907  32.351  41.735   6.346
 3432POPC   D2A44908  32.068  41.779   6.721
 3432POPC   C3A44909  32.195  41.883   7.158
 3432POPC   C4A44910  32.051  41.779   7.598
 3432POPC   C1B44911  32.531  41.255   6.347
 3432POPC   C2B44912  32.222  41.237   6.674
 3432POPC   C3B44913  32.104  41.396   7.076
 3432POPC   C4B44914  32.436  41.500   7.369
 3433POPC   NC344915  32.275  41.985   5.588
 3433POPC   PO444916  32.187  42.603   5.344
 3433POPC   GL144917  32.201  42.468   5.792
 3433POPC   GL244918  32.544  42.587   5.815
 3433POPC   C1A44919  32.229  42.250   6.238
 3433POPC   D2A44920  32.404  42.175   6.687
 3433POPC   C3A44921  32.151  42.356   7.029
 3433POPC   C4A44922  31.771  42.584   7.044
 3433POPC   C1B44923  32.494  42.690   6.254
 3433POPC   C2B44924  32.612  42.648   6.694
 3433POPC   C3B44925  32.617  42.534   7.126
 3433POPC   C4B44926  32.557  42.703   7.552
 3434POPC   NC344927  31.200  26.828   5.164
 3434POPC   PO444928  31.594  27.223   5.503
 3434POPC   GL144929  31.514  27.078   5.860
 3434POPC   GL244930  31.552  26.754   5.869
 3434POPC   C1A44931  31.623  27.190   6.233
 3434POPC   D2A44932  31.558  27.019   6.593
 3434POPC   C3A44933  31.532  27.255   6.926
 3434POPC   C4A44934  31.461  26.983   7.220
 3434POPC   C1B44935  31.530  26.505   6.266
 3434POPC   C2B44936  31.350  26.531   6.689
 3434POPC   C3B44937  31.583  26.507   7.081
 3434POPC   C4B44938  31.502  26.545   7.536
 3435POPC   NC344939  37.929  32.505   5.294
 3435POPC   PO444940  37.471  32.092   5.441
 3435POPC   GL144941  37.519  32.272   5.807
 3435POPC   GL244942  37.146  32.179   5.837
 3435POPC   C1A44943  37.816  32.375   6.170
 3435POPC   D2A44944  38.001  32.210   6.561
 3435POPC   C3A44945  37.902  32.381   6.939
 3435POPC   C4A44946  37.821  32.161   7.318
 3435POPC   C1B44947  37.307  32.239   6.259
 3435POPC   C2B44948  37.497  32.208   6.637
 3435POPC   C3B44949  37.401  32.217   7.044
 3435POPC   C4B44950  37.111  32.321   7.311
 3436POPC   NC344951  38.424  20.060   5.218
 3436POPC   PO444952  38.079  19.626   5.494
 3436POPC   GL144953  38.268  19.900   5.829
 3436POPC   GL244954  38.617  19.842   5.988
 3436POPC   C1A44955  38.303  20.108   6.260
 3436POPC   D2A44956  38.674  20.128   6.539
 3436POPC   C3A44957  38.533  20.002   6.960
 3436POPC   C4A44958  38.252  19.991   7.304
 3436POPC   C1B44959  38.376  19.604   6.304
 3436POPC   C2B44960  38.284  19.594   6.760
 3436POPC   C3B44961  38.381  19.529   7.187
 3436POPC   C4B44962  38.587  19.651   7.591
 3437POPC   NC344963  27.760  35.863   5.645
 3437POPC   PO444964  27.733  36.538   5.408
 3437POPC   GL144965  27.525  36.363   5.777
 3437POPC   GL244966  27.300  36.131   5.599
 3437POPC   C1A44967  27.677  36.197   6.200
 3437POPC   D2A44968  27.788  35.981   6.596
 3437POPC   C3A44969  27.753  36.134   7.043
 3437POPC   C4A44970  27.801  35.871   7.450
 3437POPC   C1B44971  27.236  35.990   6.043
 3437POPC   C2B44972  27.250  36.020   6.495
 3437POPC   C3B44973  27.391  35.824   6.876
 3437POPC   C4B44974  27.319  35.948   7.317
 3438POPC   NC344975  15.248  38.126   5.378
 3438POPC   PO444976  14.732  38.484   5.571
 3438POPC   GL144977  15.149  38.343   5.867
 3438POPC   GL244978  15.404  38.027   5.856
 3438POPC   C1A44979  15.407  38.542   6.254
 3438POPC   D2A44980  15.332  38.734   6.695
 3438POPC   C3A44981  14.986  38.527   6.920
 3438POPC   C4A44982  15.019  38.316   7.300
 3438POPC   C1B44983  15.442  38.026   6.300
 3438POPC   C2B44984  15.604  38.217   6.682
 3438POPC   C3B44985  15.483  38.359   7.086
 3438POPC   C4B44986  15.430  38.108   7.496
 3439POPC   NC344987  31.997   1.861   5.208
 3439POPC   PO444988  32.351   2.333   5.536
 3439POPC   GL144989  32.385   2.010   5.777
 3439POPC   GL244990  32.290   1.692   5.622
 3439POPC   C1A44991  32.114   1.939   6.118
 3439POPC   D2A44992  32.149   1.982   6.560
 3439POPC   C3A44993  31.980   1.731   6.868
 3439POPC   C4A44994  31.957   2.012   7.268
 3439POPC   C1B44995  32.474   1.580   6.027
 3439POPC   C2B44996  32.577   1.787   6.398
 3439POPC   C3B44997  32.534   1.825   6.863
 3439POPC   C4B44998  32.322   1.629   7.211
 3440POPC   NC344999  43.671  25.381   5.637
 3440POPC   PO445000  44.314  25.218   5.550
 3440POPC   GL145001  44.032  25.026   5.900
 3440POPC   GL245002  43.664  25.023   5.971
 3440POPC   C1A45003  44.040  25.092   6.327
 3440POPC   D2A45004  44.145  25.395   6.602
 3440POPC   C3A45005  43.910  25.278   6.932
 3440POPC   C4A45006  44.000  25.498   7.273
 3440POPC   C1B45007  43.580  25.355   6.275
 3440POPC   C2B45008  43.460  25.142   6.634
 3440POPC   C3B45009  43.493  24.923   6.989
 3440POPC   C4B45010  43.589  25.160   7.314
 3441POPC   NC345011  29.395  42.829   5.479
 3441POPC   PO445012  28.898  43.294   5.322
 3441POPC   GL145013  29.049  43.193   5.780
 3441POPC   GL245014  29.340  43.340   5.998
 3441POPC   C1A45015  28.949  43.048   6.214
 3441POPC   D2A45016  29.201  43.114   6.600
 3441POPC   C3A45017  29.022  43.107   7.031
 3441POPC   C4A45018  29.139  43.265   7.446
 3441POPC   C1B45019  29.434  42.901   6.175
 3441POPC   C2B45020  29.442  42.650   6.573
 3441POPC   C3B45021  29.458  42.849   6.963
 3441POPC   C4B45022  29.356  42.800   7.361
 3442POPC   NC345023   5.308  37.156   5.220
 3442POPC   PO445024   5.189  36.463   5.336
 3442POPC   GL145025   5.217  36.802   5.677
 3442POPC   GL245026   4.954  37.065   5.618
 3442POPC   C1A45027   5.254  36.767   6.178
 3442POPC   D2A45028   5.139  36.530   6.604
 3442POPC   C3A45029   5.312  36.668   7.029
 3442POPC   C4A45030   5.338  37.118   7.179
 3442POPC   C1B45031   4.900  37.110   6.062
 3442POPC   C2B45032   5.042  37.128   6.506
 3442POPC   C3B45033   4.926  37.005   6.922
 3442POPC   C4B45034   4.860  37.173   7.357
 3443POPC   NC345035   3.149  40.374   5.334
 3443POPC   PO445036   2.804  40.863   5.574
 3443POPC   GL145037   2.994  40.643   5.881
 3443POPC   GL245038   3.053  40.919   6.062
 3443POPC   C1A45039   2.827  40.550   6.318
 3443POPC   D2A45040   2.661  40.835   6.621
 3443POPC   C3A45041   2.811  40.883   6.999
 3443POPC   C4A45042   2.588  40.776   7.318
 3443POPC   C1B45043   2.824  41.188   6.311
 3443POPC   C2B45044   2.881  41.320   6.721
 3443POPC   C3B45045   2.652  41.377   7.062
 3443POPC   C4B45046   2.764  41.236   7.441
 3444POPC   NC345047  13.598   3.903   5.070
 3444POPC   PO445048  13.625   4.497   5.396
 3444POPC   GL145049  13.565   4.602   5.844
 3444POPC   GL245050  13.660   4.281   6.057
 3444POPC   C1A45051  13.421   4.647   6.284
 3444POPC   D2A45052  13.700   4.452   6.569
 3444POPC   C3A45053  13.599   4.519   6.977
 3444POPC   C4A45054  13.875   4.485   7.344
 3444POPC   C1B45055  13.273   4.154   6.252
 3444POPC   C2B45056  13.157   4.222   6.658
 3444POPC   C3B45057  13.253   4.112   7.048
 3444POPC   C4B45058  13.403   4.300   7.397
 3445POPC   NC345059   7.938  36.960   5.450
 3445POPC   PO445060   8.506  37.087   5.304
 3445POPC   GL145061   8.363  37.010   5.743
 3445POPC   GL245062   8.154  37.302   5.784
 3445POPC   C1A45063   8.281  36.990   6.204
 3445POPC   D2A45064   8.229  36.735   6.568
 3445POPC   C3A45065   8.212  36.848   6.997
 3445POPC   C4A45066   8.317  36.775   7.416
 3445POPC   C1B45067   7.913  37.333   6.161
 3445POPC   C2B45068   8.021  37.258   6.591
 3445POPC   C3B45069   7.837  37.209   6.985
 3445POPC   C4B45070   7.944  37.156   7.413
 3446POPC   NC345071  32.889  36.045   5.416
 3446POPC   PO445072  33.447  36.404   5.483
 3446POPC   GL145073  33.281  36.257   5.854
 3446POPC   GL245074  32.962  36.351   5.814
 3446POPC   C1A45075  33.108  36.183   6.271
 3446POPC   D2A45076  33.120  36.460   6.656
 3446POPC   C3A45077  33.232  36.254   7.049
 3446POPC   C4A45078  33.264  36.005   7.447
 3446POPC   C1B45079  32.758  36.528   6.189
 3446POPC   C2B45080  32.606  36.425   6.592
 3446POPC   C3B45081  32.748  36.444   7.027
 3446POPC   C4B45082  32.983  36.453   7.426
 3447POPC   NC345083   8.559  11.177   5.515
 3447POPC   PO445084   8.083  11.646   5.465
 3447POPC   GL145085   8.272  11.453   5.839
 3447POPC   GL245086   8.086  11.155   5.912
 3447POPC   C1A45087   8.487  11.277   6.211
 3447POPC   D2A45088   8.267  11.198   6.593
 3447POPC   C3A45089   8.409  11.302   7.003
 3447POPC   C4A45090   8.399  11.644   7.301
 3447POPC   C1B45091   7.797  11.199   6.225
 3447POPC   C2B45092   7.793  11.010   6.615
 3447POPC   C3B45093   7.880  11.233   6.976
 3447POPC   C4B45094   7.876  11.175   7.367
 3448POPC   NC345095  14.490  13.962   5.641
 3448POPC   PO445096  14.299  13.353   5.422
 3448POPC   GL145097  14.350  13.507   5.836
 3448POPC   GL245098  14.095  13.775   5.943
 3448POPC   C1A45099  14.567  13.554   6.253
 3448POPC   D2A45100  14.671  13.339   6.656
 3448POPC   C3A45101  14.791  13.545   7.052
 3448POPC   C4A45102  14.688  13.625   7.488
 3448POPC   C1B45103  14.197  13.917   6.379
 3448POPC   C2B45104  14.360  13.757   6.789
 3448POPC   C3B45105  14.299  13.485   7.166
 3448POPC   C4B45106  14.199  13.664   7.589
 3449POPC   NC345107  20.861   5.371   5.449
 3449POPC   PO445108  20.660   4.702   5.525
 3449POPC   GL145109  20.832   4.957   5.817
 3449POPC   GL245110  20.573   5.178   5.815
 3449POPC   C1A45111  20.859   4.922   6.239
 3449POPC   D2A45112  20.595   4.979   6.608
 3449POPC   C3A45113  20.772   5.072   7.012
 3449POPC   C4A45114  20.902   5.295   7.371
 3449POPC   C1B45115  20.542   5.335   6.185
 3449POPC   C2B45116  20.336   5.416   6.542
 3449POPC   C3B45117  20.432   5.452   6.926
 3449POPC   C4B45118  20.365   5.303   7.343
 3450POPC   NC345119  40.352  19.240   5.383
 3450POPC   PO445120  39.872  18.689   5.423
 3450POPC   GL145121  39.861  18.950   5.829
 3450POPC   GL245122  40.070  19.275   5.868
 3450POPC   C1A45123  39.716  19.105   6.250
 3450POPC   D2A45124  39.865  19.127   6.709
 3450POPC   C3A45125  39.709  19.239   7.113
 3450POPC   C4A45126  39.857  19.285   7.548
 3450POPC   C1B45127  40.215  19.028   6.256
 3450POPC   C2B45128  40.352  18.986   6.715
 3450POPC   C3B45129  40.209  19.153   7.148
 3450POPC   C4B45130  40.289  19.009   7.570
 3451POPC   NC345131  11.056   2.496   5.353
 3451POPC   PO445132  11.264   3.046   5.608
 3451POPC   GL145133  11.282   2.625   5.828
 3451POPC   GL245134  11.619   2.438   5.766
 3451POPC   C1A45135  11.129   2.646   6.278
 3451POPC   D2A45136  11.173   2.971   6.614
 3451POPC   C3A45137  11.415   2.879   6.979
 3451POPC   C4A45138  11.630   3.196   7.201
 3451POPC   C1B45139  11.648   2.558   6.212
 3451POPC   C2B45140  11.815   2.463   6.645
 3451POPC   C3B45141  11.656   2.381   7.040
 3451POPC   C4B45142  11.218   2.464   7.225
 3452POPC   NC345143  39.754  34.628   5.264
 3452POPC   PO445144  40.365  34.726   5.345
 3452POPC   GL145145  40.149  34.652   5.755
 3452POPC   GL245146  39.833  34.444   5.758
 3452POPC   C1A45147  40.181  34.661   6.222
 3452POPC   D2A45148  40.397  34.700   6.620
 3452POPC   C3A45149  40.114  34.570   6.932
 3452POPC   C4A45150  40.130  34.493   7.366
 3452POPC   C1B45151  39.679  34.434   6.197
 3452POPC   C2B45152  39.769  34.251   6.618
 3452POPC   C3B45153  39.710  34.258   7.076
 3452POPC   C4B45154  39.679  34.241   7.517
 3453POPC   NC345155  39.832  15.894   5.309
 3453POPC   PO445156  40.231  16.339   5.659
 3453POPC   GL145157  39.950  16.030   5.812
 3453POPC   GL245158  40.192  15.865   6.030
 3453POPC   C1A45159  39.731  15.934   6.218
 3453POPC   D2A45160  39.730  16.088   6.644
 3453POPC   C3A45161  39.956  15.853   6.943
 3453POPC   C4A45162  39.823  15.677   7.322
 3453POPC   C1B45163  40.204  15.905   6.479
 3453POPC   C2B45164  40.407  16.167   6.800
 3453POPC   C3B45165  40.478  15.976   7.198
 3453POPC   C4B45166  40.294  15.548   7.197
 3454POPC   NC345167   4.686  39.184   5.541
 3454POPC   PO445168   5.233  39.627   5.445
 3454POPC   GL145169   5.106  39.353   5.802
 3454POPC   GL245170   5.212  39.049   5.842
 3454POPC   C1A45171   5.080  39.469   6.248
 3454POPC   D2A45172   4.973  39.324   6.644
 3454POPC   C3A45173   5.095  39.574   7.002
 3454POPC   C4A45174   4.988  39.515   7.435
 3454POPC   C1B45175   5.299  38.990   6.249
 3454POPC   C2B45176   5.408  39.072   6.648
 3454POPC   C3B45177   5.224  39.077   7.038
 3454POPC   C4B45178   5.489  38.922   7.303
 3455POPC   NC345179   6.633  15.823   5.530
 3455POPC   PO445180   6.990  16.365   5.317
 3455POPC   GL145181   6.781  16.301   5.746
 3455POPC   GL245182   6.455  16.178   5.935
 3455POPC   C1A45183   6.877  16.215   6.201
 3455POPC   D2A45184   6.536  16.215   6.534
 3455POPC   C3A45185   6.614  16.072   6.968
 3455POPC   C4A45186   6.501  15.998   7.407
 3455POPC   C1B45187   6.557  15.793   6.228
 3455POPC   C2B45188   6.542  15.632   6.680
 3455POPC   C3B45189   6.269  15.675   7.057
 3455POPC   C4B45190   6.285  15.546   7.531
 3456POPC   NC345191  39.526   9.865   5.546
 3456POPC   PO445192  39.735   9.372   5.106
 3456POPC   GL145193  40.005   9.517   5.554
 3456POPC   GL245194  39.777   9.530   5.823
 3456POPC   C1A45195  40.234   9.592   6.049
 3456POPC   D2A45196  40.334   9.807   6.506
 3456POPC   C3A45197  40.271   9.946   6.974
 3456POPC   C4A45198  40.214   9.897   7.431
 3456POPC   C1B45199  39.763   9.709   6.240
 3456POPC   C2B45200  39.830   9.637   6.657
 3456POPC   C3B45201  39.756   9.830   7.046
 3456POPC   C4B45202  39.369  10.109   7.150
 3457POPC   NC345203  31.040   0.541   5.366
 3457POPC   PO445204  30.483   0.123   5.259
 3457POPC   GL145205  30.538   0.304   5.688
 3457POPC   GL245206  30.631   0.651   5.712
 3457POPC   C1A45207  30.428   0.330   6.147
 3457POPC   D2A45208  30.321   0.407   6.610
 3457POPC   C3A45209  30.639   0.431   6.912
 3457POPC   C4A45210  30.662   0.586   7.289
 3457POPC   C1B45211  30.561   0.821   6.142
 3457POPC   C2B45212  30.768   0.794   6.562
 3457POPC   C3B45213  31.041   0.756   6.933
 3457POPC   C4B45214  31.060   0.909   7.343
 3458POPC   NC345215  41.821  27.758   5.360
 3458POPC   PO445216  41.787  27.095   5.366
 3458POPC   GL145217  41.523  27.284   5.740
 3458POPC   GL245218  41.519  27.668   5.763
 3458POPC   C1A45219  41.590  27.433   6.188
 3458POPC   D2A45220  41.862  27.344   6.508
 3458POPC   C3A45221  41.675  27.301   6.897
 3458POPC   C4A45222  41.516  27.431   7.260
 3458POPC   C1B45223  41.385  27.920   6.121
 3458POPC   C2B45224  41.361  27.789   6.540
 3458POPC   C3B45225  41.275  27.799   6.966
 3458POPC   C4B45226  41.577  27.937   7.244
 3459POPC   NC345227  42.042   1.735   5.602
 3459POPC   PO445228  42.605   2.106   5.635
 3459POPC   GL145229  42.308   2.023   5.941
 3459POPC   GL245230  42.075   2.277   5.858
 3459POPC   C1A45231  42.329   1.956   6.386
 3459POPC   D2A45232  42.160   1.724   6.709
 3459POPC   C3A45233  42.356   1.787   7.112
 3459POPC   C4A45234  42.419   1.854   7.572
 3459POPC   C1B45235  42.360   2.446   6.210
 3459POPC   C2B45236  42.353   2.405   6.676
 3459POPC   C3B45237  42.353   2.510   7.109
 3459POPC   C4B45238  42.223   2.318   7.473
 3460POPC   NC345239  18.455  22.974   5.492
 3460POPC   PO445240  17.793  23.113   5.403
 3460POPC   GL145241  18.008  23.165   5.826
 3460POPC   GL245242  18.393  23.116   5.974
 3460POPC   C1A45243  18.005  23.208   6.272
 3460POPC   D2A45244  18.139  22.971   6.641
 3460POPC   C3A45245  18.060  23.142   7.060
 3460POPC   C4A45246  18.203  23.002   7.451
 3460POPC   C1B45247  18.358  22.709   6.218
 3460POPC   C2B45248  18.358  22.506   6.645
 3460POPC   C3B45249  18.366  22.716   7.045
 3460POPC   C4B45250  18.629  22.704   7.414
 3461POPC   NC345251  44.323  33.938   5.467
 3461POPC   PO445252  44.877  33.713   5.254
 3461POPC   GL145253  44.771  33.765   5.682
 3461POPC   GL245254   0.024  33.943   5.854
 3461POPC   C1A45255  44.567  33.712   6.088
 3461POPC   D2A45256  44.749  33.637   6.512
 3461POPC   C3A45257  44.578  33.807   6.901
 3461POPC   C4A45258  44.518  33.580   7.310
 3461POPC   C1B45259  44.876  34.090   6.263
 3461POPC   C2B45260  44.776  34.271   6.665
 3461POPC   C3B45261  44.781  34.397   7.077
 3461POPC   C4B45262  44.652  34.072   7.338
 3462POPC   NC345263  39.288   3.735   5.657
 3462POPC   PO445264  39.344   4.267   5.175
 3462POPC   GL145265  39.337   4.246   5.664
 3462POPC   GL245266  39.541   4.085   5.936
 3462POPC   C1A45267  39.103   4.235   6.105
 3462POPC   D2A45268  39.242   4.387   6.507
 3462POPC   C3A45269  39.037   4.315   6.870
 3462POPC   C4A45270  39.179   4.474   7.221
 3462POPC   C1B45271  39.516   3.794   6.278
 3462POPC   C2B45272  39.638   3.714   6.716
 3462POPC   C3B45273  39.551   3.918   7.107
 3462POPC   C4B45274  39.437   3.851   7.539
 3463POPC   NC345275  40.221  25.940   5.261
 3463POPC   PO445276  39.721  26.270   5.266
 3463POPC   GL145277  39.803  26.284   5.755
 3463POPC   GL245278  40.026  26.068   5.825
 3463POPC   C1A45279  39.683  26.132   6.185
 3463POPC   D2A45280  39.929  26.265   6.523
 3463POPC   C3A45281  39.740  26.134   6.886
 3463POPC   C4A45282  39.907  26.268   7.264
 3463POPC   C1B45283  40.121  25.861   6.222
 3463POPC   C2B45284  40.032  25.756   6.650
 3463POPC   C3B45285  40.270  25.985   6.968
 3463POPC   C4B45286  40.367  26.113   7.389
 3464POPC   NC345287  22.960  30.375   5.385
 3464POPC   PO445288  23.150  29.665   5.358
 3464POPC   GL145289  22.980  29.933   5.741
 3464POPC   GL245290  23.164  30.248   5.839
 3464POPC   C1A45291  22.860  29.733   6.148
 3464POPC   D2A45292  22.961  29.848   6.574
 3464POPC   C3A45293  22.646  29.798   6.892
 3464POPC   C4A45294  22.832  29.672   7.281
 3464POPC   C1B45295  22.906  30.226   6.228
 3464POPC   C2B45296  22.725  30.310   6.661
 3464POPC   C3B45297  22.835  30.225   7.103
 3464POPC   C4B45298  22.762  30.095   7.534
 3465POPC   NC345299  44.311  32.042   5.429
 3465POPC   PO445300  43.835  32.488   5.212
 3465POPC   GL145301  43.853  32.315   5.709
 3465POPC   GL245302  43.780  31.955   5.732
 3465POPC   C1A45303  43.747  32.321   6.221
 3465POPC   D2A45304  43.698  32.211   6.722
 3465POPC   C3A45305  43.856  32.464   7.110
 3465POPC   C4A45306  43.934  32.486   7.567
 3465POPC   C1B45307  44.123  32.007   6.049
 3465POPC   C2B45308  44.107  32.028   6.486
 3465POPC   C3B45309  44.153  32.090   6.935
 3465POPC   C4B45310  43.973  32.015   7.355
 3466POPC   NC345311   5.941  21.780   5.157
 3466POPC   PO445312   6.078  22.438   5.381
 3466POPC   GL145313   5.944  22.186   5.724
 3466POPC   GL245314   5.610  22.266   5.756
 3466POPC   C1A45315   5.995  22.286   6.182
 3466POPC   D2A45316   6.082  22.294   6.649
 3466POPC   C3A45317   5.967  22.420   7.096
 3466POPC   C4A45318   6.241  22.437   7.478
 3466POPC   C1B45319   5.613  21.962   6.090
 3466POPC   C2B45320   5.564  21.788   6.520
 3466POPC   C3B45321   5.761  21.952   6.910
 3466POPC   C4B45322   5.661  22.032   7.374
 3467POPC   NC345323  30.036   0.232   5.344
 3467POPC   PO445324  29.898   0.879   5.553
 3467POPC   GL145325  30.100   0.616   5.859
 3467POPC   GL245326  30.019   0.247   5.845
 3467POPC   C1A45327  30.062   0.710   6.301
 3467POPC   D2A45328  29.853   0.625   6.726
 3467POPC   C3A45329  30.156   0.582   7.097
 3467POPC   C4A45330  30.301   0.198   7.275
 3467POPC   C1B45331  29.938   0.223   6.275
 3467POPC   C2B45332  29.962   0.032   6.670
 3467POPC   C3B45333  29.824   0.211   7.036
 3467POPC   C4B45334  29.549   0.168   7.335
 3468POPC   NC345335  39.251  33.973   5.371
 3468POPC   PO445336  39.336  33.365   5.571
 3468POPC   GL145337  39.252  33.753   5.827
 3468POPC   GL245338  39.456  34.066   5.821
 3468POPC   C1A45339  39.069  33.808   6.246
 3468POPC   D2A45340  39.105  33.823   6.716
 3468POPC   C3A45341  39.232  33.482   7.005
 3468POPC   C4A45342  39.105  33.723   7.358
 3468POPC   C1B45343  39.588  33.922   6.200
 3468POPC   C2B45344  39.505  33.597   6.488
 3468POPC   C3B45345  39.617  33.792   6.875
 3468POPC   C4B45346  39.594  33.784   7.302
 3469POPC   NC345347   9.843   9.529   5.485
 3469POPC   PO445348   9.199   9.499   5.303
 3469POPC   GL145349   9.429   9.689   5.731
 3469POPC   GL245350   9.602  10.021   5.822
 3469POPC   C1A45351   9.633   9.561   6.147
 3469POPC   D2A45352   9.566   9.355   6.569
 3469POPC   C3A45353   9.712   9.502   6.982
 3469POPC   C4A45354   9.626   9.625   7.424
 3469POPC   C1B45355   9.442  10.014   6.271
 3469POPC   C2B45356   9.624   9.879   6.645
 3469POPC   C3B45357   9.661  10.011   7.079
 3469POPC   C4B45358   9.860  10.069   7.520
 3470POPC   NC345359  21.155   2.494   5.424
 3470POPC   PO445360  21.283   3.174   5.447
 3470POPC   GL145361  21.305   2.913   5.803
 3470POPC   GL245362  21.506   2.632   5.891
 3470POPC   C1A45363  21.258   2.964   6.241
 3470POPC   D2A45364  21.101   2.959   6.641
 3470POPC   C3A45365  21.467   2.972   6.894
 3470POPC   C4A45366  21.495   2.630   7.180
 3470POPC   C1B45367  21.050   2.532   6.057
 3470POPC   C2B45368  20.930   2.468   6.474
 3470POPC   C3B45369  21.054   2.504   6.897
 3470POPC   C4B45370  21.064   2.433   7.331
 3471POPC   NC345371  15.423   1.435   5.053
 3471POPC   PO445372  14.978   1.500   5.617
 3471POPC   GL145373  15.020   1.339   5.967
 3471POPC   GL245374  15.365   1.323   5.925
 3471POPC   C1A45375  14.797   1.259   6.328
 3471POPC   D2A45376  14.855   1.420   6.722
 3471POPC   C3A45377  14.746   1.242   7.072
 3471POPC   C4A45378  14.908   0.846   7.117
 3471POPC   C1B45379  15.207   0.926   6.195
 3471POPC   C2B45380  15.072   0.893   6.632
 3471POPC   C3B45381  15.245   1.188   6.948
 3471POPC   C4B45382  15.573   1.291   7.222
 3472POPC   NC345383  29.234   8.064   5.327
 3472POPC   PO445384  29.732   8.327   5.166
 3472POPC   GL145385  29.549   8.120   5.708
 3472POPC   GL245386  29.132   8.077   5.822
 3472POPC   C1A45387  29.407   8.271   6.180
 3472POPC   D2A45388  29.018   8.210   6.464
 3472POPC   C3A45389  29.073   8.036   6.862
 3472POPC   C4A45390  29.158   8.012   7.289
 3472POPC   C1B45391  28.943   7.796   6.173
 3472POPC   C2B45392  28.714   7.753   6.596
 3472POPC   C3B45393  28.867   7.602   7.045
 3472POPC   C4B45394  28.814   7.730   7.510
 3473POPC   NC345395  33.152  32.376   5.447
 3473POPC   PO445396  33.196  31.715   5.489
 3473POPC   GL145397  32.885  31.998   5.691
 3473POPC   GL245398  33.101  32.249   5.925
 3473POPC   C1A45399  32.698  32.038   6.104
 3473POPC   D2A45400  32.782  32.220   6.474
 3473POPC   C3A45401  33.072  32.062   6.776
 3473POPC   C4A45402  33.058  32.156   7.196
 3473POPC   C1B45403  33.126  32.562   6.292
 3473POPC   C2B45404  33.058  32.566   6.743
 3473POPC   C3B45405  33.160  32.674   7.158
 3473POPC   C4B45406  33.223  32.535   7.559
 3474POPC   NC345407  28.611  21.575   5.363
 3474POPC   PO445408  29.261  21.228   5.283
 3474POPC   GL145409  29.052  21.366   5.654
 3474POPC   GL245410  29.351  21.468   5.782
 3474POPC   C1A45411  28.953  21.317   6.118
 3474POPC   D2A45412  28.797  21.442   6.540
 3474POPC   C3A45413  29.011  21.428   6.937
 3474POPC   C4A45414  29.196  21.802   7.141
 3474POPC   C1B45415  29.378  21.612   6.194
 3474POPC   C2B45416  29.329  21.680   6.615
 3474POPC   C3B45417  29.522  21.454   6.961
 3474POPC   C4B45418  29.508  21.189   7.339
 3475POPC   NC345419  32.432  42.965   5.466
 3475POPC   PO445420  31.919  43.280   5.522
 3475POPC   GL145421  32.198  43.296   5.825
 3475POPC   GL245422  32.184  42.968   5.911
 3475POPC   C1A45423  32.204  43.345   6.256
 3475POPC   D2A45424  32.356  43.101   6.546
 3475POPC   C3A45425  32.269  43.360   6.899
 3475POPC   C4A45426  32.042  43.539   7.245
 3475POPC   C1B45427  31.978  42.718   6.205
 3475POPC   C2B45428  32.101  42.619   6.603
 3475POPC   C3B45429  32.220  42.849   6.967
 3475POPC   C4B45430  31.900  43.067   7.143
 3476POPC   NC345431  18.019  39.026   5.464
 3476POPC   PO445432  18.528  39.462   5.399
 3476POPC   GL145433  18.468  39.232   5.746
 3476POPC   GL245434  18.162  39.373   5.824
 3476POPC   C1A45435  18.559  39.356   6.160
 3476POPC   D2A45436  18.505  39.163   6.550
 3476POPC   C3A45437  18.536  39.491   6.845
 3476POPC   C4A45438  18.529  39.423   7.264
 3476POPC   C1B45439  18.086  39.188   6.228
 3476POPC   C2B45440  18.033  39.003   6.652
 3476POPC   C3B45441  18.211  39.093   7.052
 3476POPC   C4B45442  18.072  39.298   7.462
 3477POPC   NC345443  29.739  41.261   5.558
 3477POPC   PO445444  30.195  41.831   5.524
 3477POPC   GL145445  29.975  41.638   5.850
 3477POPC   GL245446  30.170  41.333   5.846
 3477POPC   C1A45447  29.832  41.505   6.264
 3477POPC   D2A45448  29.753  41.679   6.667
 3477POPC   C3A45449  29.900  41.578   7.064
 3477POPC   C4A45450  29.772  41.404   7.464
 3477POPC   C1B45451  30.204  41.157   6.249
 3477POPC   C2B45452  30.067  41.246   6.676
 3477POPC   C3B45453  30.025  41.078   7.086
 3477POPC   C4B45454  30.253  41.009   7.463
 3478POPC   NC345455  10.089   0.953   5.418
 3478POPC   PO445456  10.091   0.356   5.257
 3478POPC   GL145457   9.914   0.429   5.726
 3478POPC   GL245458   9.624   0.634   5.785
 3478POPC   C1A45459  10.031   0.364   6.154
 3478POPC   D2A45460   9.895   0.383   6.567
 3478POPC   C3A45461  10.118   0.595   6.873
 3478POPC   C4A45462   9.989   0.496   7.286
 3478POPC   C1B45463   9.510   0.419   6.141
 3478POPC   C2B45464   9.375   0.320   6.553
 3478POPC   C3B45465   9.501   0.504   6.960
 3478POPC   C4B45466   9.542   0.228   7.311
 3479POPC   NC345467   5.516  10.147   5.392
 3479POPC   PO445468   6.007   9.604   5.443
 3479POPC   GL145469   5.876   9.937   5.715
 3479POPC   GL245470   6.176   9.988   5.883
 3479POPC   C1A45471   5.721   9.983   6.152
 3479POPC   D2A45472   5.868   9.689   6.473
 3479POPC   C3A45473   5.830   9.750   6.912
 3479POPC   C4A45474   6.005   9.605   7.291
 3479POPC   C1B45475   6.261   9.985   6.309
 3479POPC   C2B45476   6.272   9.911   6.719
 3479POPC   C3B45477   6.115  10.141   7.074
 3479POPC   C4B45478   5.943  10.095   7.480
 3480POPC   NC345479  35.883  19.905   5.450
 3480POPC   PO445480  36.558  20.046   5.494
 3480POPC   GL145481  36.466  20.152   5.906
 3480POPC   GL245482  36.101  20.178   5.859
 3480POPC   C1A45483  36.295  19.945   6.292
 3480POPC   D2A45484  36.016  19.900   6.655
 3480POPC   C3A45485  36.305  19.750   6.970
 3480POPC   C4A45486  36.361  19.489   7.346
 3480POPC   C1B45487  35.883  20.248   6.249
 3480POPC   C2B45488  35.743  20.398   6.653
 3480POPC   C3B45489  35.925  20.258   7.031
 3480POPC   C4B45490  35.679  19.990   7.254
 3481POPC   NC345491  31.402  37.820   5.221
 3481POPC   PO445492  31.729  37.466   5.692
 3481POPC   GL145493  31.570  37.699   6.031
 3481POPC   GL245494  31.404  37.977   5.862
 3481POPC   C1A45495  31.388  37.539   6.432
 3481POPC   D2A45496  31.621  37.300   6.751
 3481POPC   C3A45497  31.622  37.404   7.187
 3481POPC   C4A45498  31.882  37.648   7.417
 3481POPC   C1B45499  31.197  37.998   6.283
 3481POPC   C2B45500  31.236  37.945   6.737
 3481POPC   C3B45501  31.326  38.130   7.118
 3481POPC   C4B45502  31.416  37.838   7.423
 3482POPC   NC345503  31.753   5.565   5.397
 3482POPC   PO445504  31.248   6.010   5.336
 3482POPC   GL145505  31.310   5.964   5.767
 3482POPC   GL245506  31.214   5.654   5.859
 3482POPC   C1A45507  31.255   6.113   6.173
 3482POPC   D2A45508  31.387   6.154   6.579
 3482POPC   C3A45509  31.309   6.004   7.000
 3482POPC   C4A45510  31.555   5.986   7.422
 3482POPC   C1B45511  31.389   5.557   6.276
 3482POPC   C2B45512  31.576   5.669   6.646
 3482POPC   C3B45513  31.657   5.655   7.062
 3482POPC   C4B45514  31.377   5.505   7.425
 3483POPC   NC345515  23.323  12.225   5.489
 3483POPC   PO445516  23.933  12.157   5.158
 3483POPC   GL145517  23.886  12.254   5.633
 3483POPC   GL245518  23.681  12.001   5.796
 3483POPC   C1A45519  23.926  12.321   6.112
 3483POPC   D2A45520  23.846  12.293   6.560
 3483POPC   C3A45521  23.719  11.999   6.893
 3483POPC   C4A45522  23.574  11.934   7.331
 3483POPC   C1B45523  23.441  12.143   6.177
 3483POPC   C2B45524  23.336  12.288   6.604
 3483POPC   C3B45525  23.265  12.204   7.043
 3483POPC   C4B45526  23.180  12.292   7.472
 3484POPC   NC345527  43.296  25.251   5.219
 3484POPC   PO445528  42.862  24.932   5.482
 3484POPC   GL145529  43.157  25.165   5.736
 3484POPC   GL245530  43.139  25.495   5.706
 3484POPC   C1A45531  43.177  25.063   6.169
 3484POPC   D2A45532  42.908  25.121   6.496
 3484POPC   C3A45533  43.000  25.089   6.926
 3484POPC   C4A45534  43.083  25.157   7.382
 3484POPC   C1B45535  43.064  25.570   6.152
 3484POPC   C2B45536  43.202  25.573   6.582
 3484POPC   C3B45537  43.277  25.506   7.031
 3484POPC   C4B45538  42.903  25.627   7.304
 3485POPC   NC345539  12.284  44.597   5.358
 3485POPC   PO445540  11.682  44.841   5.511
 3485POPC   GL145541  12.038  44.758   5.775
 3485POPC   GL245542  11.887  44.512   5.920
 3485POPC   C1A45543  12.311  44.588   6.154
 3485POPC   D2A45544  12.263  44.697   6.617
 3485POPC   C3A45545  12.096  44.525   7.012
 3485POPC   C4A45546  12.405  44.498   7.311
 3485POPC   C1B45547  11.871  44.795   6.276
 3485POPC   C2B45548  11.727  44.731   6.673
 3485POPC   C3B45549  11.780  44.926   7.066
 3485POPC   C4B45550  12.210   0.014   7.186
 3486POPC   NC345551  40.287  32.779   5.507
 3486POPC   PO445552  40.966  32.983   5.505
 3486POPC   GL145553  40.654  32.967   5.835
 3486POPC   GL245554  40.562  33.280   6.008
 3486POPC   C1A45555  40.818  32.879   6.235
 3486POPC   D2A45556  40.944  32.958   6.617
 3486POPC   C3A45557  40.721  33.070   6.928
 3486POPC   C4A45558  40.817  32.807   7.251
 3486POPC   C1B45559  41.007  33.373   6.140
 3486POPC   C2B45560  41.226  33.397   6.514
 3486POPC   C3B45561  41.021  33.511   6.875
 3486POPC   C4B45562  40.935  33.361   7.259
 3487POPC   NC345563  23.305   3.389   5.729
 3487POPC   PO445564  22.663   3.691   5.571
 3487POPC   GL145565  22.864   3.577   5.893
 3487POPC   GL245566  23.140   3.795   5.975
 3487POPC   C1A45567  22.779   3.437   6.276
 3487POPC   D2A45568  22.937   3.246   6.614
 3487POPC   C3A45569  22.750   3.409   6.967
 3487POPC   C4A45570  22.913   3.394   7.337
 3487POPC   C1B45571  22.814   3.953   6.230
 3487POPC   C2B45572  22.968   3.787   6.618
 3487POPC   C3B45573  23.112   3.786   7.018
 3487POPC   C4B45574  23.070   3.874   7.427
 3488POPC   NC345575  19.843   7.756   5.503
 3488POPC   PO445576  19.978   7.071   5.240
 3488POPC   GL145577  19.899   7.253   5.739
 3488POPC   GL245578  19.894   7.599   5.978
 3488POPC   C1A45579  20.043   7.217   6.242
 3488POPC   D2A45580  20.005   7.608   6.538
 3488POPC   C3A45581  19.683   7.699   6.843
 3488POPC   C4A45582  19.860   7.644   7.237
 3488POPC   C1B45583  19.572   7.720   6.328
 3488POPC   C2B45584  19.183   7.631   6.558
 3488POPC   C3B45585  19.169   7.587   6.990
 3488POPC   C4B45586  19.464   7.316   7.157
 3489POPC   NC345587  38.198  31.605   5.223
 3489POPC   PO445588  38.723  31.191   5.392
 3489POPC   GL145589  38.508  31.386   5.830
 3489POPC   GL245590  38.146  31.576   5.957
 3489POPC   C1A45591  38.613  31.681   6.162
 3489POPC   D2A45592  38.488  31.837   6.552
 3489POPC   C3A45593  38.778  31.792   6.869
 3489POPC   C4A45594  38.566  31.645   7.210
 3489POPC   C1B45595  38.237  31.319   6.304
 3489POPC   C2B45596  38.251  31.075   6.676
 3489POPC   C3B45597  38.287  31.229   7.093
 3489POPC   C4B45598  38.339  31.312   7.523
 3490POPC   NC345599  15.669  36.436   5.454
 3490POPC   PO445600  16.110  35.894   5.434
 3490POPC   GL145601  15.872  35.971   5.795
 3490POPC   GL245602  16.121  35.816   6.006
 3490POPC   C1A45603  15.866  36.191   6.215
 3490POPC   D2A45604  15.906  36.007   6.645
 3490POPC   C3A45605  15.778  36.297   6.964
 3490POPC   C4A45606  15.934  36.571   7.293
 3490POPC   C1B45607  16.366  36.115   6.254
 3490POPC   C2B45608  16.260  36.387   6.612
 3490POPC   C3B45609  16.294  36.305   7.049
 3490POPC   C4B45610  16.070  36.000   7.258
 3491POPC   NC345611  21.575  43.837   5.212
 3491POPC   PO445612  21.139  44.228   5.021
 3491POPC   GL145613  21.220  44.044   5.527
 3491POPC   GL245614  21.352  43.743   5.662
 3491POPC   C1A45615  21.213  44.109   6.024
 3491POPC   D2A45616  21.216  43.900   6.470
 3491POPC   C3A45617  21.259  44.115   6.878
 3491POPC   C4A45618  21.050  44.066   7.266
 3491POPC   C1B45619  21.532  43.709   6.090
 3491POPC   C2B45620  21.620  43.595   6.531
 3491POPC   C3B45621  21.479  43.626   6.956
 3491POPC   C4B45622  21.552  43.901   7.262
 3492POPC   NC345623   2.506  39.853   5.135
 3492POPC   PO445624   3.095  39.916   5.438
 3492POPC   GL145625   2.805  39.963   5.806
 3492POPC   GL245626   2.644  40.276   5.877
 3492POPC   C1A45627   2.831  39.680   6.200
 3492POPC   D2A45628   3.086  39.620   6.587
 3492POPC   C3A45629   2.824  39.641   6.958
 3492POPC   C4A45630   2.781  39.933   7.274
 3492POPC   C1B45631   2.567  40.107   6.262
 3492POPC   C2B45632   2.743  40.053   6.654
 3492POPC   C3B45633   2.773  40.358   7.006
 3492POPC   C4B45634   2.875  40.405   7.463
 3493POPC   NC345635   6.812   4.423   5.616
 3493POPC   PO445636   6.293   4.521   5.198
 3493POPC   GL145637   6.294   4.251   5.694
 3493POPC   GL245638   6.569   4.002   5.807
 3493POPC   C1A45639   6.435   4.300   6.188
 3493POPC   D2A45640   6.638   4.471   6.576
 3493POPC   C3A45641   6.562   4.238   6.952
 3493POPC   C4A45642   6.447   4.051   7.324
 3493POPC   C1B45643   6.894   4.064   6.170
 3493POPC   C2B45644   6.921   4.001   6.632
 3493POPC   C3B45645   6.888   3.833   7.063
 3493POPC   C4B45646   6.953   3.957   7.503
 3494POPC   NC345647  18.315  34.287   5.398
 3494POPC   PO445648  17.874  34.758   5.198
 3494POPC   GL145649  18.071  34.718   5.670
 3494POPC   GL245650  18.263  34.433   5.868
 3494POPC   C1A45651  18.035  34.744   6.175
 3494POPC   D2A45652  18.267  34.533   6.531
 3494POPC   C3A45653  18.178  34.593   6.981
 3494POPC   C4A45654  18.325  34.830   7.334
 3494POPC   C1B45655  18.579  34.286   6.159
 3494POPC   C2B45656  18.713  34.291   6.595
 3494POPC   C3B45657  18.534  34.214   7.007
 3494POPC   C4B45658  18.521  34.379   7.383
 3495POPC   NC345659  34.383  42.185   5.365
 3495POPC   PO445660  35.007  42.014   5.459
 3495POPC   GL145661  34.729  42.210   5.796
 3495POPC   GL245662  34.370  42.286   5.862
 3495POPC   C1A45663  34.744  42.479   6.177
 3495POPC   D2A45664  34.671  42.698   6.596
 3495POPC   C3A45665  34.677  42.557   7.047
 3495POPC   C4A45666  34.814  42.701   7.475
 3495POPC   C1B45667  34.276  42.279   6.299
 3495POPC   C2B45668  34.598  42.195   6.629
 3495POPC   C3B45669  34.524  42.055   7.021
 3495POPC   C4B45670  34.114  42.078   7.133
 3496POPC   NC345671  37.322  29.202   5.144
 3496POPC   PO445672  36.840  29.125   5.602
 3496POPC   GL145673  37.099  29.035   5.976
 3496POPC   GL245674  36.781  28.870   6.066
 3496POPC   C1A45675  37.100  28.931   6.439
 3496POPC   D2A45676  36.742  29.058   6.721
 3496POPC   C3A45677  36.893  29.066   7.134
 3496POPC   C4A45678  37.334  29.187   7.247
 3496POPC   C1B45679  36.783  29.328   6.266
 3496POPC   C2B45680  36.542  29.569   6.581
 3496POPC   C3B45681  36.538  29.446   7.000
 3496POPC   C4B45682  36.325  29.050   7.153
 3497POPC   NC345683  41.114  25.391   5.455
 3497POPC   PO445684  40.470  25.666   5.539
 3497POPC   GL145685  40.590  25.305   5.829
 3497POPC   GL245686  40.955  25.213   5.903
 3497POPC   C1A45687  40.641  25.161   6.279
 3497POPC   D2A45688  40.885  25.210   6.649
 3497POPC   C3A45689  40.607  25.154   6.986
 3497POPC   C4A45690  40.697  25.261   7.383
 3497POPC   C1B45691  41.081  25.495   6.269
 3497POPC   C2B45692  41.174  25.714   6.676
 3497POPC   C3B45693  41.145  25.572   7.132
 3497POPC   C4B45694  40.985  25.602   7.597
 3498POPC   NC345695  26.068   8.211   5.354
 3498POPC   PO445696  26.284   7.674   5.753
 3498POPC   GL145697  26.267   8.106   5.868
 3498POPC   GL245698  26.029   8.397   5.824
 3498POPC   C1A45699  26.139   8.232   6.294
 3498POPC   D2A45700  25.874   8.066   6.588
 3498POPC   C3A45701  26.074   8.159   6.921
 3498POPC   C4A45702  26.005   8.337   7.274
 3498POPC   C1B45703  26.430   8.572   6.053
 3498POPC   C2B45704  26.478   8.686   6.446
 3498POPC   C3B45705  26.219   8.620   6.759
 3498POPC   C4B45706  26.226   8.763   7.145
 3499POPC   NC345707  21.538   0.489   5.255
 3499POPC   PO445708  20.860   0.336   5.394
 3499POPC   GL145709  21.100   0.052   5.746
 3499POPC   GL245710  21.499   0.108   5.740
 3499POPC   C1A45711  21.276   0.128   6.191
 3499POPC   D2A45712  21.314   0.585   6.385
 3499POPC   C3A45713  21.287   0.606   6.861
 3499POPC   C4A45714  21.167   0.280   7.165
 3499POPC   C1B45715  21.754   0.291   6.155
 3499POPC   C2B45716  21.653   0.300   6.614
 3499POPC   C3B45717  21.749   0.423   7.038
 3499POPC   C4B45718  21.639   0.205   7.361
 3500POPC   NC345719  23.002  36.054   5.383
 3500POPC   PO445720  22.439  36.257   5.371
 3500POPC   GL145721  22.665  36.124   5.793
 3500POPC   GL245722  23.028  36.268   5.852
 3500POPC   C1A45723  22.806  36.013   6.244
 3500POPC   D2A45724  22.877  35.811   6.645
 3500POPC   C3A45725  22.762  35.990   7.055
 3500POPC   C4A45726  23.019  36.070   7.439
 3500POPC   C1B45727  23.282  36.293   6.243
 3500POPC   C2B45728  23.098  36.267   6.641
 3500POPC   C3B45729  23.135  36.345   7.058
 3500POPC   C4B45730  22.934  36.565   7.420
 3501POPC   NC345731  41.341  13.146   5.468
 3501POPC   PO445732  41.691  12.539   5.413
 3501POPC   GL145733  41.780  12.711   5.792
 3501POPC   GL245734  41.734  13.081   5.814
 3501POPC   C1A45735  41.576  12.616   6.175
 3501POPC   D2A45736  41.347  12.435   6.505
 3501POPC   C3A45737  41.327  12.585   6.949
 3501POPC   C4A45738  41.724  12.633   7.157
 3501POPC   C1B45739  41.440  13.093   6.189
 3501POPC   C2B45740  41.544  12.906   6.607
 3501POPC   C3B45741  41.702  13.105   6.986
 3501POPC   C4B45742  41.491  13.144   7.348
 3502POPC   NC345743  20.438  17.535   5.417
 3502POPC   PO445744  20.922  17.831   5.619
 3502POPC   GL145745  20.663  17.566   5.866
 3502POPC   GL245746  20.352  17.740   5.896
 3502POPC   C1A45747  20.674  17.286   6.205
 3502POPC   D2A45748  21.021  17.206   6.457
 3502POPC   C3A45749  20.957  17.317   6.888
 3502POPC   C4A45750  20.698  17.537   7.179
 3502POPC   C1B45751  20.561  17.795   6.300
 3502POPC   C2B45752  20.503  17.583   6.699
 3502POPC   C3B45753  20.224  17.651   7.064
 3502POPC   C4B45754  20.338  17.682   7.532
 3503POPC   NC345755   1.926  39.061   5.323
 3503POPC   PO445756   2.397  39.432   5.332
 3503POPC   GL145757   2.155  39.251   5.723
 3503POPC   GL245758   2.193  38.870   5.745
 3503POPC   C1A45759   1.899  39.449   6.065
 3503POPC   D2A45760   1.822  39.563   6.491
 3503POPC   C3A45761   1.902  39.596   6.917
 3503POPC   C4A45762   1.920  39.331   7.261
 3503POPC   C1B45763   1.839  38.945   6.024
 3503POPC   C2B45764   1.813  39.057   6.443
 3503POPC   C3B45765   1.982  38.991   6.844
 3503POPC   C4B45766   1.778  38.852   7.188
 3504POPC   NC345767   3.060  16.844   5.444
 3504POPC   PO445768   2.474  16.476   5.488
 3504POPC   GL145769   2.721  16.682   5.789
 3504POPC   GL245770   3.016  16.461   5.794
 3504POPC   C1A45771   2.886  16.828   6.185
 3504POPC   D2A45772   2.945  17.025   6.583
 3504POPC   C3A45773   2.835  16.741   6.894
 3504POPC   C4A45774   2.887  16.879   7.271
 3504POPC   C1B45775   2.800  16.275   6.123
 3504POPC   C2B45776   2.643  16.400   6.507
 3504POPC   C3B45777   2.437  16.408   6.883
 3504POPC   C4B45778   2.600  16.430   7.288
 3505POPC   NC345779  14.558  20.532   5.309
 3505POPC   PO445780  13.983  20.635   5.682
 3505POPC   GL145781  14.459  20.584   5.839
 3505POPC   GL245782  14.691  20.852   5.691
 3505POPC   C1A45783  14.569  20.653   6.312
 3505POPC   D2A45784  14.496  20.832   6.763
 3505POPC   C3A45785  14.519  20.534   7.121
 3505POPC   C4A45786  14.206  20.333   7.422
 3505POPC   C1B45787  14.769  21.074   6.096
 3505POPC   C2B45788  14.748  21.225   6.547
 3505POPC   C3B45789  14.909  21.046   6.953
 3505POPC   C4B45790  14.872  20.797   7.367
 3506POPC   NC345791   3.353  42.665   5.538
 3506POPC   PO445792   3.427  41.925   5.463
 3506POPC   GL145793   3.533  42.199   5.820
 3506POPC   GL245794   3.211  42.159   5.892
 3506POPC   C1A45795   3.514  42.391   6.267
 3506POPC   D2A45796   3.572  42.591   6.690
 3506POPC   C3A45797   3.807  42.378   7.046
 3506POPC   C4A45798   3.833  42.032   7.375
 3506POPC   C1B45799   3.010  42.178   6.269
 3506POPC   C2B45800   3.104  42.313   6.659
 3506POPC   C3B45801   3.301  42.276   7.028
 3506POPC   C4B45802   3.237  41.994   7.321
 3507POPC   NC345803  32.450  44.542   5.285
 3507POPC   PO445804  31.939  44.880   5.263
 3507POPC   GL145805  32.121  44.671   5.676
 3507POPC   GL245806  31.887  44.538   5.919
 3507POPC   C1A45807  32.291  44.680   6.144
 3507POPC   D2A45808  32.221  44.525   6.564
 3507POPC   C3A45809  32.367  44.879   6.815
 3507POPC   C4A45810  32.587  44.889   7.208
 3507POPC   C1B45811  31.785  44.824   6.254
 3507POPC   C2B45812  31.819  44.789   6.703
 3507POPC   C3B45813  32.039  44.609   7.082
 3507POPC   C4B45814  32.238  44.473   7.460
 3508POPC   NC345815  19.402  32.236   5.454
 3508POPC   PO445816  18.675  32.339   5.314
 3508POPC   GL145817  18.882  32.348   5.713
 3508POPC   GL245818  18.603  32.478   5.847
 3508POPC   C1A45819  19.119  32.152   6.080
 3508POPC   D2A45820  19.351  32.009   6.471
 3508POPC   C3A45821  19.173  32.134   6.886
 3508POPC   C4A45822  19.179  32.502   7.126
 3508POPC   C1B45823  18.890  32.597   6.187
 3508POPC   C2B45824  19.059  32.566   6.583
 3508POPC   C3B45825  18.741  32.575   6.872
 3508POPC   C4B45826  18.692  32.388   7.247
 3509POPC   NC345827  30.726  30.295   5.429
 3509POPC   PO445828  31.055  30.886   5.454
 3509POPC   GL145829  30.806  30.685   5.773
 3509POPC   GL245830  30.481  30.841   5.879
 3509POPC   C1A45831  30.682  30.471   6.161
 3509POPC   D2A45832  30.524  30.630   6.542
 3509POPC   C3A45833  30.648  30.470   6.927
 3509POPC   C4A45834  30.579  30.686   7.262
 3509POPC   C1B45835  30.328  31.047   6.204
 3509POPC   C2B45836  30.463  31.134   6.592
 3509POPC   C3B45837  30.292  30.967   6.945
 3509POPC   C4B45838  30.384  31.156   7.310
 3510POPC   NC345839   7.672  23.634   5.381
 3510POPC   PO445840   7.616  24.267   5.492
 3510POPC   GL145841   7.487  23.885   5.806
 3510POPC   GL245842   7.380  23.536   5.804
 3510POPC   C1A45843   7.665  23.656   6.202
 3510POPC   D2A45844   7.895  23.771   6.580
 3510POPC   C3A45845   7.585  23.691   6.882
 3510POPC   C4A45846   7.440  23.680   7.278
 3510POPC   C1B45847   7.159  23.500   6.187
 3510POPC   C2B45848   7.269  23.343   6.602
 3510POPC   C3B45849   7.065  23.414   7.015
 3510POPC   C4B45850   7.023  23.493   7.472
 3511POPC   NC345851   2.959  34.107   5.468
 3511POPC   PO445852   2.548  33.435   5.467
 3511POPC   GL145853   2.737  33.629   5.856
 3511POPC   GL245854   3.110  33.702   5.846
 3511POPC   C1A45855   2.787  33.485   6.281
 3511POPC   D2A45856   2.679  33.345   6.685
 3511POPC   C3A45857   2.794  33.553   7.059
 3511POPC   C4A45858   2.418  33.705   7.224
 3511POPC   C1B45859   3.003  33.945   6.214
 3511POPC   C2B45860   2.751  33.929   6.599
 3511POPC   C3B45861   2.811  34.066   7.020
 3511POPC   C4B45862   3.203  34.060   7.261
 3512POPC   NC345863   0.736   0.055   5.588
 3512POPC   PO445864   0.330  44.524   5.526
 3512POPC   GL145865   0.475  44.703   5.884
 3512POPC   GL245866   0.325   0.004   5.950
 3512POPC   C1A45867   0.592  44.723   6.298
 3512POPC   D2A45868   0.468  44.808   6.681
 3512POPC   C3A45869   0.663  44.519   6.985
 3512POPC   C4A45870   0.499  44.633   7.391
 3512POPC   C1B45871   0.134   0.121   6.341
 3512POPC   C2B45872   0.191   0.248   6.713
 3512POPC   C3B45873   0.371   0.112   7.083
 3512POPC   C4B45874   0.751  44.992   7.093
 3513POPC   NC345875  17.900  27.951   5.557
 3513POPC   PO445876  17.264  27.690   5.399
 3513POPC   GL145877  17.479  27.788   5.784
 3513POPC   GL245878  17.583  27.466   5.904
 3513POPC   C1A45879  17.557  27.953   6.198
 3513POPC   D2A45880  17.500  27.725   6.587
 3513POPC   C3A45881  17.607  27.866   6.988
 3513POPC   C4A45882  17.593  27.677   7.394
 3513POPC   C1B45883  17.289  27.274   6.200
 3513POPC   C2B45884  17.125  27.376   6.593
 3513POPC   C3B45885  17.352  27.392   6.989
 3513POPC   C4B45886  17.207  27.358   7.416
 3514POPC   NC345887  16.253   9.353   5.416
 3514POPC   PO445888  15.759   9.898   5.400
 3514POPC   GL145889  15.990   9.720   5.760
 3514POPC   GL245890  16.352   9.823   5.777
 3514POPC   C1A45891  16.055   9.606   6.208
 3514POPC   D2A45892  16.097   9.461   6.648
 3514POPC   C3A45893  15.922   9.756   6.946
 3514POPC   C4A45894  15.868   9.933   7.358
 3514POPC   C1B45895  16.408  10.001   6.213
 3514POPC   C2B45896  16.322  10.002   6.680
 3514POPC   C3B45897  16.374   9.937   7.137
 3514POPC   C4B45898  16.299   9.959   7.622
 3515POPC   NC345899  41.885   7.624   5.480
 3515POPC   PO445900  41.364   7.184   5.577
 3515POPC   GL145901  41.667   7.402   5.886
 3515POPC   GL245902  41.798   7.123   6.168
 3515POPC   C1A45903  41.794   7.604   6.236
 3515POPC   D2A45904  41.690   7.376   6.628
 3515POPC   C3A45905  41.637   7.569   7.029
 3515POPC   C4A45906  41.823   7.290   7.321
 3515POPC   C1B45907  41.344   7.195   6.261
 3515POPC   C2B45908  41.108   7.057   6.623
 3515POPC   C3B45909  41.326   7.141   7.003
 3515POPC   C4B45910  41.285   7.364   7.358
 3516POPC   NC345911  10.486  36.662   5.467
 3516POPC   PO445912  10.051  37.140   5.310
 3516POPC   GL145913  10.314  37.097   5.730
 3516POPC   GL245914  10.665  37.054   5.772
 3516POPC   C1A45915  10.375  36.791   6.127
 3516POPC   D2A45916  10.637  36.700   6.545
 3516POPC   C3A45917  10.525  36.838   6.959
 3516POPC   C4A45918  10.472  37.234   7.174
 3516POPC   C1B45919  10.670  37.183   6.235
 3516POPC   C2B45920  10.760  37.242   6.690
 3516POPC   C3B45921  10.960  37.101   7.082
 3516POPC   C4B45922  10.741  36.878   7.432
 3517POPC   NC345923  11.850  37.673   5.371
 3517POPC   PO445924  12.424  37.395   5.450
 3517POPC   GL145925  12.212  37.617   5.773
 3517POPC   GL245926  12.268  37.371   6.006
 3517POPC   C1A45927  11.970  37.801   6.132
 3517POPC   D2A45928  11.987  37.933   6.579
 3517POPC   C3A45929  12.182  37.728   6.930
 3517POPC   C4A45930  11.916  37.596   7.253
 3517POPC   C1B45931  12.310  37.533   6.427
 3517POPC   C2B45932  12.014  37.308   6.702
 3517POPC   C3B45933  11.989  37.106   7.093
 3517POPC   C4B45934  11.667  37.167   7.423
 3518POPC   NC345935  31.624  20.211   5.088
 3518POPC   PO445936  32.123  20.562   5.411
 3518POPC   GL145937  32.075  20.665   5.832
 3518POPC   GL245938  32.409  20.775   5.806
 3518POPC   C1A45939  31.946  20.524   6.254
 3518POPC   D2A45940  32.082  20.552   6.691
 3518POPC   C3A45941  32.075  20.270   7.029
 3518POPC   C4A45942  31.954  20.337   7.465
 3518POPC   C1B45943  32.287  21.009   6.165
 3518POPC   C2B45944  32.445  20.903   6.566
 3518POPC   C3B45945  32.258  20.964   6.952
 3518POPC   C4B45946  32.340  20.664   7.241
 3519POPC   NC345947  37.246   3.326   5.535
 3519POPC   PO445948  36.569   3.390   5.531
 3519POPC   GL145949  36.745   3.650   5.850
 3519POPC   GL245950  37.108   3.747   5.813
 3519POPC   C1A45951  36.847   3.548   6.281
 3519POPC   D2A45952  36.650   3.322   6.620
 3519POPC   C3A45953  36.741   3.513   6.999
 3519POPC   C4A45954  36.689   3.915   7.106
 3519POPC   C1B45955  37.267   3.867   6.222
 3519POPC   C2B45956  37.279   3.611   6.595
 3519POPC   C3B45957  37.230   3.408   6.961
 3519POPC   C4B45958  37.136   3.654   7.299
 3520POPC   NC345959  20.521  22.187   5.394
 3520POPC   PO445960  21.087  21.954   5.432
 3520POPC   GL145961  20.786  21.916   5.751
 3520POPC   GL245962  20.718  22.277   5.859
 3520POPC   C1A45963  20.739  21.890   6.196
 3520POPC   D2A45964  20.638  22.182   6.540
 3520POPC   C3A45965  20.680  22.000   6.932
 3520POPC   C4A45966  20.662  22.207   7.268
 3520POPC   C1B45967  20.317  22.199   6.130
 3520POPC   C2B45968  20.128  22.277   6.582
 3520POPC   C3B45969  20.214  22.172   7.046
 3520POPC   C4B45970  20.301  22.034   7.539
 3521POPC   NC345971   7.384  35.539   5.630
 3521POPC   PO445972   7.423  34.907   5.441
 3521POPC   GL145973   7.199  35.098   5.804
 3521POPC   GL245974   6.953  35.418   5.847
 3521POPC   C1A45975   7.344  35.296   6.209
 3521POPC   D2A45976   7.723  35.410   6.430
 3521POPC   C3A45977   7.696  35.364   6.883
 3521POPC   C4A45978   7.514  35.434   7.281
 3521POPC   C1B45979   6.969  35.654   6.229
 3521POPC   C2B45980   7.178  35.526   6.622
 3521POPC   C3B45981   7.056  35.400   7.009
 3521POPC   C4B45982   7.036  35.618   7.383
 3522POPC   NC345983  37.447  24.459   5.315
 3522POPC   PO445984  36.770  24.450   5.257
 3522POPC   GL145985  36.784  24.430   5.709
 3522POPC   GL245986  36.571  24.192   5.792
 3522POPC   C1A45987  36.836  24.571   6.170
 3522POPC   D2A45988  36.743  24.632   6.644
 3522POPC   C3A45989  36.918  24.637   7.078
 3522POPC   C4A45990  37.039  24.450   7.452
 3522POPC   C1B45991  36.569  24.098   6.237
 3522POPC   C2B45992  36.396  24.251   6.628
 3522POPC   C3B45993  36.498  24.326   7.048
 3522POPC   C4B45994  36.715  24.093   7.335
 3523POPC   NC345995  38.243  21.371   5.521
 3523POPC   PO445996  38.799  20.974   5.496
 3523POPC   GL145997  38.621  21.256   5.831
 3523POPC   GL245998  38.274  21.218   6.002
 3523POPC   C1A45999  38.631  21.531   6.203
 3523POPC   D2A46000  38.372  21.400   6.530
 3523POPC   C3A46001  38.468  21.426   6.957
 3523POPC   C4A46002  38.189  21.636   7.176
 3523POPC   C1B46003  38.562  20.989   6.267
 3523POPC   C2B46004  38.597  20.983   6.733
 3523POPC   C3B46005  38.500  20.952   7.206
 3523POPC   C4B46006  38.755  20.955   7.621
 3524POPC   NC346007  28.258  32.021   5.459
 3524POPC   PO446008  28.728  32.451   5.335
 3524POPC   GL146009  28.563  32.389   5.805
 3524POPC   GL246010  28.208  32.250   5.905
 3524POPC   C1A46011  28.505  32.417   6.285
 3524POPC   D2A46012  28.676  32.277   6.678
 3524POPC   C3A46013  28.710  32.490   7.104
 3524POPC   C4A46014  28.614  32.439   7.529
 3524POPC   C1B46015  28.255  31.980   6.268
 3524POPC   C2B46016  28.112  32.049   6.678
 3524POPC   C3B46017  28.305  32.171   7.040
 3524POPC   C4B46018  28.232  32.118   7.463
 3525POPC   NC346019  42.851  13.280   5.319
 3525POPC   PO446020  43.112  12.641   5.476
 3525POPC   GL146021  43.127  12.762   5.874
 3525POPC   GL246022  43.124  13.128   5.848
 3525POPC   C1A46023  42.922  12.843   6.267
 3525POPC   D2A46024  42.915  13.008   6.658
 3525POPC   C3A46025  43.046  12.699   6.919
 3525POPC   C4A46026  43.063  12.807   7.338
 3525POPC   C1B46027  43.400  13.033   6.220
 3525POPC   C2B46028  43.466  12.838   6.615
 3525POPC   C3B46029  43.470  12.959   7.059
 3525POPC   C4B46030  43.564  12.770   7.457
 3526POPC   NC346031  41.928  34.855   5.725
 3526POPC   PO446032  41.488  34.530   5.331
 3526POPC   GL146033  41.352  34.632   5.765
 3526POPC   GL246034  41.077  34.380   5.795
 3526POPC   C1A46035  41.568  34.640   6.207
 3526POPC   D2A46036  41.833  34.702   6.551
 3526POPC   C3A46037  41.659  34.713   6.931
 3526POPC   C4A46038  41.865  34.964   7.192
 3526POPC   C1B46039  41.125  34.404   6.241
 3526POPC   C2B46040  41.255  34.493   6.659
 3526POPC   C3B46041  41.244  34.471   7.098
 3526POPC   C4B46042  41.300  34.275   7.488
 3527POPC   NC346043  42.651  19.595   5.631
 3527POPC   PO446044  42.248  20.109   5.432
 3527POPC   GL146045  42.356  19.988   5.825
 3527POPC   GL246046  42.219  19.653   5.887
 3527POPC   C1A46047  42.316  19.976   6.272
 3527POPC   D2A46048  42.417  19.850   6.671
 3527POPC   C3A46049  42.355  20.173   6.958
 3527POPC   C4A46050  42.235  20.084   7.353
 3527POPC   C1B46051  42.120  19.469   6.296
 3527POPC   C2B46052  41.859  19.620   6.629
 3527POPC   C3B46053  42.060  19.717   7.046
 3527POPC   C4B46054  42.510  19.672   7.166
 3528POPC   NC346055  15.987   4.690   5.337
 3528POPC   PO446056  16.225   5.313   5.460
 3528POPC   GL146057  15.860   5.092   5.705
 3528POPC   GL246058  15.634   4.763   5.739
 3528POPC   C1A46059  15.907   4.965   6.136
 3528POPC   D2A46060  15.782   4.966   6.564
 3528POPC   C3A46061  16.096   5.065   6.884
 3528POPC   C4A46062  16.098   5.160   7.322
 3528POPC   C1B46063  15.552   4.573   6.185
 3528POPC   C2B46064  15.617   4.494   6.653
 3528POPC   C3B46065  15.771   4.687   7.040
 3528POPC   C4B46066  15.718   4.569   7.465
 3529POPC   NC346067  27.301   8.663   5.530
 3529POPC   PO446068  27.902   8.388   5.442
 3529POPC   GL146069  27.526   8.144   5.702
 3529POPC   GL246070  27.282   8.340   5.899
 3529POPC   C1A46071  27.417   7.912   6.126
 3529POPC   D2A46072  27.682   7.962   6.496
 3529POPC   C3A46073  27.501   7.947   6.892
 3529POPC   C4A46074  27.719   7.972   7.279
 3529POPC   C1B46075  27.593   8.381   6.173
 3529POPC   C2B46076  27.376   8.369   6.537
 3529POPC   C3B46077  27.568   8.448   6.880
 3529POPC   C4B46078  27.480   8.417   7.277
 3530POPC   NC346079  18.088  38.134   5.552
 3530POPC   PO446080  18.412  38.761   5.490
 3530POPC   GL146081  18.294  38.522   5.841
 3530POPC   GL246082  18.072  38.801   5.917
 3530POPC   C1A46083  18.531  38.266   6.168
 3530POPC   D2A46084  18.670  38.374   6.577
 3530POPC   C3A46085  18.406  38.658   6.813
 3530POPC   C4A46086  18.382  38.579   7.253
 3530POPC   C1B46087  18.150  38.633   6.319
 3530POPC   C2B46088  17.807  38.515   6.566
 3530POPC   C3B46089  17.675  38.743   6.895
 3530POPC   C4B46090  17.900  38.765   7.293
 3531POPC   NC346091  19.374   1.008   5.643
 3531POPC   PO446092  19.090   1.549   5.276
 3531POPC   GL146093  19.013   1.409   5.761
 3531POPC   GL246094  18.854   1.080   5.684
 3531POPC   C1A46095  19.262   1.354   6.222
 3531POPC   D2A46096  19.395   1.088   6.596
 3531POPC   C3A46097  19.207   1.147   6.997
 3531POPC   C4A46098  19.428   1.008   7.323
 3531POPC   C1B46099  18.878   1.047   6.133
 3531POPC   C2B46100  18.879   0.994   6.612
 3531POPC   C3B46101  18.697   1.060   7.053
 3531POPC   C4B46102  18.538   1.324   7.397
 3532POPC   NC346103  10.156   2.166   5.611
 3532POPC   PO446104   9.540   1.975   5.399
 3532POPC   GL146105   9.622   2.058   5.854
 3532POPC   GL246106   9.276   2.209   5.956
 3532POPC   C1A46107   9.874   1.935   6.269
 3532POPC   D2A46108  10.125   2.018   6.657
 3532POPC   C3A46109   9.941   1.879   7.054
 3532POPC   C4A46110  10.077   1.994   7.490
 3532POPC   C1B46111   9.499   2.274   6.313
 3532POPC   C2B46112   9.556   1.988   6.660
 3532POPC   C3B46113   9.405   1.914   7.042
 3532POPC   C4B46114   9.143   2.001   7.375
 3533POPC   NC346115   6.662  41.829   5.466
 3533POPC   PO446116   6.906  41.128   5.363
 3533POPC   GL146117   6.720  41.390   5.731
 3533POPC   GL246118   6.841  41.720   5.927
 3533POPC   C1A46119   6.622  41.356   6.170
 3533POPC   D2A46120   6.775  41.490   6.557
 3533POPC   C3A46121   6.610  41.288   6.911
 3533POPC   C4A46122   6.565  41.351   7.347
 3533POPC   C1B46123   6.477  41.850   6.219
 3533POPC   C2B46124   6.441  41.857   6.690
 3533POPC   C3B46125   6.499  41.814   7.161
 3533POPC   C4B46126   6.444  41.784   7.626
 3534POPC   NC346127  32.508   8.512   5.483
 3534POPC   PO446128  32.336   7.861   5.564
 3534POPC   GL146129  32.154   8.021   5.909
 3534POPC   GL246130  32.176   8.350   5.825
 3534POPC   C1A46131  32.263   8.022   6.344
 3534POPC   D2A46132  32.537   7.938   6.679
 3534POPC   C3A46133  32.308   7.995   7.065
 3534POPC   C4A46134  32.106   8.198   7.413
 3534POPC   C1B46135  32.357   8.497   6.184
 3534POPC   C2B46136  32.502   8.438   6.594
 3534POPC   C3B46137  32.347   8.494   6.994
 3534POPC   C4B46138  32.517   8.515   7.394
 3535POPC   NC346139   6.373  16.612   5.636
 3535POPC   PO446140   5.756  16.773   5.410
 3535POPC   GL146141   5.905  16.815   5.871
 3535POPC   GL246142   6.226  16.903   6.029
 3535POPC   C1A46143   5.805  16.908   6.313
 3535POPC   D2A46144   5.718  16.705   6.701
 3535POPC   C3A46145   5.954  16.661   7.095
 3535POPC   C4A46146   5.747  16.541   7.496
 3535POPC   C1B46147   6.124  16.488   6.263
 3535POPC   C2B46148   6.070  16.341   6.703
 3535POPC   C3B46149   6.122  16.173   7.116
 3535POPC   C4B46150   6.218  16.421   7.479
 3536POPC   NC346151  15.466  13.890   5.439
 3536POPC   PO446152  14.812  13.633   5.566
 3536POPC   GL146153  15.065  13.494   5.917
 3536POPC   GL246154  15.414  13.554   5.840
 3536POPC   C1A46155  15.250  13.341   6.308
 3536POPC   D2A46156  15.184  13.390   6.745
 3536POPC   C3A46157  15.461  13.435   7.083
 3536POPC   C4A46158  15.168  13.525   7.409
 3536POPC   C1B46159  15.552  13.884   6.136
 3536POPC   C2B46160  15.403  13.812   6.550
 3536POPC   C3B46161  15.317  13.918   6.963
 3536POPC   C4B46162  15.532  13.926   7.379
 3537POPC   NC346163  31.444  38.795   5.456
 3537POPC   PO446164  31.676  38.165   5.359
 3537POPC   GL146165  31.633  38.426   5.769
 3537POPC   GL246166  31.246  38.536   5.848
 3537POPC   C1A46167  31.563  38.389   6.218
 3537POPC   D2A46168  31.389  38.413   6.617
 3537POPC   C3A46169  31.721  38.328   6.890
 3537POPC   C4A46170  31.768  38.475   7.344
 3537POPC   C1B46171  31.240  38.802   6.236
 3537POPC   C2B46172  31.516  38.917   6.570
 3537POPC   C3B46173  31.552  38.792   6.984
 3537POPC   C4B46174  31.281  38.653   7.304
 3538POPC   NC346175  37.682   0.804   5.512
 3538POPC   PO446176  37.657   1.513   5.543
 3538POPC   GL146177  37.831   1.315   5.876
 3538POPC   GL246178  37.525   1.114   5.877
 3538POPC   C1A46179  37.976   1.529   6.280
 3538POPC   D2A46180  37.885   1.342   6.667
 3538POPC   C3A46181  37.912   1.548   7.041
 3538POPC   C4A46182  37.655   1.417   7.369
 3538POPC   C1B46183  37.669   1.090   6.287
 3538POPC   C2B46184  37.739   0.838   6.614
 3538POPC   C3B46185  37.702   1.031   7.028
 3538POPC   C4B46186  37.496   0.942   7.403
 3539POPC   NC346187  28.171  23.115   5.360
 3539POPC   PO446188  27.564  22.687   5.470
 3539POPC   GL146189  27.864  22.852   5.702
 3539POPC   GL246190  27.671  23.163   5.778
 3539POPC   C1A46191  27.947  22.882   6.136
 3539POPC   D2A46192  27.667  22.895   6.467
 3539POPC   C3A46193  27.848  22.990   6.835
 3539POPC   C4A46194  27.591  22.901   7.147
 3539POPC   C1B46195  27.362  23.152   6.141
 3539POPC   C2B46196  27.150  23.060   6.559
 3539POPC   C3B46197  27.206  23.183   6.977
 3539POPC   C4B46198  27.294  23.231   7.388
 3540POPC   NC346199  33.272  19.671   5.595
 3540POPC   PO446200  32.736  20.070   5.489
 3540POPC   GL146201  32.949  19.969   5.859
 3540POPC   GL246202  33.278  20.148   5.820
 3540POPC   C1A46203  32.854  19.698   6.215
 3540POPC   D2A46204  32.575  19.688   6.569
 3540POPC   C3A46205  32.786  19.656   6.954
 3540POPC   C4A46206  32.838  19.817   7.377
 3540POPC   C1B46207  33.386  19.994   6.237
 3540POPC   C2B46208  33.452  19.938   6.671
 3540POPC   C3B46209  33.666  19.775   7.003
 3540POPC   C4B46210  33.334  19.721   7.267
 3541POPC   NC346211  41.595   1.158   5.538
 3541POPC   PO446212  41.101   0.765   5.721
 3541POPC   GL146213  41.251   1.116   5.975
 3541POPC   GL246214  41.248   1.485   5.917
 3541POPC   C1A46215  41.269   1.293   6.385
 3541POPC   D2A46216  41.441   1.131   6.732
 3541POPC   C3A46217  41.331   1.252   7.099
 3541POPC   C4A46218  41.726   1.173   7.275
 3541POPC   C1B46219  41.669   1.501   6.182
 3541POPC   C2B46220  41.664   1.618   6.598
 3541POPC   C3B46221  41.761   1.610   7.004
 3541POPC   C4B46222  41.518   1.654   7.338
 3542POPC   NC346223  33.180  17.132   5.526
 3542POPC   PO446224  32.890  16.471   5.587
 3542POPC   GL146225  33.080  16.763   5.854
 3542POPC   GL246226  32.862  17.036   5.955
 3542POPC   C1A46227  33.331  16.742   6.221
 3542POPC   D2A46228  33.368  16.456   6.571
 3542POPC   C3A46229  33.267  16.717   6.896
 3542POPC   C4A46230  33.363  16.963   7.222
 3542POPC   C1B46231  32.797  16.659   6.256
 3542POPC   C2B46232  32.836  16.540   6.676
 3542POPC   C3B46233  32.801  16.638   7.127
 3542POPC   C4B46234  32.601  16.779   7.501
 3543POPC   NC346235   6.977  38.523   5.342
 3543POPC   PO446236   6.311  38.204   5.292
 3543POPC   GL146237   6.545  38.290   5.751
 3543POPC   GL246238   6.774  38.599   5.819
 3543POPC   C1A46239   6.752  38.273   6.198
 3543POPC   D2A46240   6.604  38.403   6.617
 3543POPC   C3A46241   6.658  38.108   6.970
 3543POPC   C4A46242   6.550  38.186   7.396
 3543POPC   C1B46243   6.868  38.770   6.262
 3543POPC   C2B46244   7.076  38.602   6.673
 3543POPC   C3B46245   6.828  38.591   7.082
 3543POPC   C4B46246   6.959  38.712   7.501
 3544POPC   NC346247  15.786  30.662   5.455
 3544POPC   PO446248  15.701  31.211   5.156
 3544POPC   GL146249  16.048  31.096   5.589
 3544POPC   GL246250  16.201  30.744   5.756
 3544POPC   C1A46251  16.045  31.050   6.100
 3544POPC   D2A46252  15.929  30.751   6.461
 3544POPC   C3A46253  16.086  30.754   6.905
 3544POPC   C4A46254  15.816  30.749   7.302
 3544POPC   C1B46255  16.142  30.424   6.116
 3544POPC   C2B46256  16.260  30.340   6.560
 3544POPC   C3B46257  16.090  30.236   6.996
 3544POPC   C4B46258  16.215  30.447   7.379
 3545POPC   NC346259  10.788  33.283   5.666
 3545POPC   PO446260  10.528  33.829   5.315
 3545POPC   GL146261  10.495  33.711   5.756
 3545POPC   GL246262  10.154  33.640   5.916
 3545POPC   C1A46263  10.557  33.820   6.184
 3545POPC   D2A46264  10.383  33.900   6.561
 3545POPC   C3A46265  10.435  33.857   6.965
 3545POPC   C4A46266  10.514  34.193   7.215
 3545POPC   C1B46267  10.206  33.464   6.341
 3545POPC   C2B46268  10.534  33.426   6.670
 3545POPC   C3B46269  10.744  33.481   7.088
 3545POPC   C4B46270  10.496  33.632   7.455
 3546POPC   NC346271   4.104  38.346   5.241
 3546POPC   PO446272   3.476  38.191   5.419
 3546POPC   GL146273   3.373  38.253   5.837
 3546POPC   GL246274   3.488  38.602   5.830
 3546POPC   C1A46275   3.524  38.284   6.238
 3546POPC   D2A46276   3.751  38.274   6.573
 3546POPC   C3A46277   3.502  38.239   6.939
 3546POPC   C4A46278   3.661  38.365   7.302
 3546POPC   C1B46279   3.785  38.796   6.092
 3546POPC   C2B46280   3.712  38.845   6.492
 3546POPC   C3B46281   3.784  38.679   6.886
 3546POPC   C4B46282   3.814  38.843   7.281
 3547POPC   NC346283  16.941  16.980   5.465
 3547POPC   PO446284  16.506  16.504   5.549
 3547POPC   GL146285  16.669  16.731   5.853
 3547POPC   GL246286  17.011  16.595   5.823
 3547POPC   C1A46287  16.493  16.815   6.250
 3547POPC   D2A46288  16.667  16.839   6.644
 3547POPC   C3A46289  16.452  16.584   6.908
 3547POPC   C4A46290  16.460  16.725   7.291
 3547POPC   C1B46291  16.994  16.652   6.272
 3547POPC   C2B46292  17.185  16.949   6.558
 3547POPC   C3B46293  17.203  16.812   6.972
 3547POPC   C4B46294  16.903  16.466   7.097
 3548POPC   NC346295  26.683  30.273   5.238
 3548POPC   PO446296  26.879  29.650   5.270
 3548POPC   GL146297  26.762  29.642   5.763
 3548POPC   GL246298  26.610  29.984   5.838
 3548POPC   C1A46299  26.736  29.747   6.264
 3548POPC   D2A46300  26.469  29.865   6.656
 3548POPC   C3A46301  26.732  29.732   7.047
 3548POPC   C4A46302  27.092  29.529   7.266
 3548POPC   C1B46303  26.486  30.208   6.239
 3548POPC   C2B46304  26.445  30.431   6.641
 3548POPC   C3B46305  26.497  30.214   7.024
 3548POPC   C4B46306  26.617  30.073   7.409
 3549POPC   NC346307  11.726  10.952   5.716
 3549POPC   PO446308  12.335  10.774   5.472
 3549POPC   GL146309  12.087  10.554   5.782
 3549POPC   GL246310  11.841  10.300   5.741
 3549POPC   C1A46311  12.125  10.667   6.222
 3549POPC   D2A46312  12.327  10.764   6.609
 3549POPC   C3A46313  12.091  10.622   6.911
 3549POPC   C4A46314  11.849  10.766   7.200
 3549POPC   C1B46315  11.965  10.191   6.169
 3549POPC   C2B46316  12.317  10.231   6.471
 3549POPC   C3B46317  12.282  10.153   6.909
 3549POPC   C4B46318  11.853  10.180   7.073
 3550POPC   NC346319  34.409  20.465   5.129
 3550POPC   PO446320  34.543  20.937   5.545
 3550POPC   GL146321  34.365  20.721   5.868
 3550POPC   GL246322  34.654  20.483   5.905
 3550POPC   C1A46323  34.325  20.506   6.280
 3550POPC   D2A46324  34.670  20.395   6.574
 3550POPC   C3A46325  34.597  20.472   7.016
 3550POPC   C4A46326  34.327  20.530   7.383
 3550POPC   C1B46327  34.775  20.798   6.245
 3550POPC   C2B46328  34.917  20.880   6.697
 3550POPC   C3B46329  34.717  20.947   7.117
 3550POPC   C4B46330  34.719  20.824   7.558
 3551POPC   NC346331  30.548  23.012   5.549
 3551POPC   PO446332  30.993  22.613   5.248
 3551POPC   GL146333  30.923  22.745   5.706
 3551POPC   GL246334  30.900  22.515   5.891
 3551POPC   C1A46335  30.847  22.961   6.136
 3551POPC   D2A46336  30.925  23.048   6.562
 3551POPC   C3A46337  30.666  23.237   6.868
 3551POPC   C4A46338  30.538  23.122   7.290
 3551POPC   C1B46339  30.648  22.491   6.269
 3551POPC   C2B46340  30.599  22.388   6.677
 3551POPC   C3B46341  30.661  22.713   6.949
 3551POPC   C4B46342  30.816  22.659   7.330
 3552POPC   NC346343  14.315  11.753   5.466
 3552POPC   PO446344  14.408  12.474   5.297
 3552POPC   GL146345  14.487  12.229   5.739
 3552POPC   GL246346  14.724  11.934   5.751
 3552POPC   C1A46347  14.322  12.098   6.190
 3552POPC   D2A46348  14.269  11.821   6.597
 3552POPC   C3A46349  14.286  12.035   7.027
 3552POPC   C4A46350  14.188  12.488   7.089
 3552POPC   C1B46351  14.818  11.936   6.197
 3552POPC   C2B46352  14.669  12.117   6.580
 3552POPC   C3B46353  14.774  12.148   6.985
 3552POPC   C4B46354  14.665  12.299   7.383
 3553POPC   NC346355  40.863  29.954   5.031
 3553POPC   PO446356  41.209  29.566   5.475
 3553POPC   GL146357  40.961  29.907   5.685
 3553POPC   GL246358  40.612  29.954   5.879
 3553POPC   C1A46359  41.012  29.943   6.145
 3553POPC   D2A46360  40.727  29.900   6.492
 3553POPC   C3A46361  40.938  29.791   6.862
 3553POPC   C4A46362  40.827  29.930   7.250
 3553POPC   C1B46363  40.425  30.223   6.213
 3553POPC   C2B46364  40.255  30.194   6.611
 3553POPC   C3B46365  40.467  30.242   7.017
 3553POPC   C4B46366  40.486  30.243   7.459
 3554POPC   NC346367  12.686  11.993   5.471
 3554POPC   PO446368  13.346  12.145   5.351
 3554POPC   GL146369  13.093  12.168   5.787
 3554POPC   GL246370  13.156  12.405   5.974
 3554POPC   C1A46371  12.829  12.009   6.156
 3554POPC   D2A46372  12.761  12.134   6.608
 3554POPC   C3A46373  12.957  11.882   6.937
 3554POPC   C4A46374  12.786  11.757   7.377
 3554POPC   C1B46375  13.202  12.277   6.372
 3554POPC   C2B46376  13.374  12.066   6.702
 3554POPC   C3B46377  13.309  12.262   7.110
 3554POPC   C4B46378  13.191  12.255   7.572
 3555POPC   NC346379  24.691   6.003   5.012
 3555POPC   PO446380  24.246   6.083   5.528
 3555POPC   GL146381  24.525   5.897   5.843
 3555POPC   GL246382  24.376   6.148   6.038
 3555POPC   C1A46383  24.850   6.029   6.180
 3555POPC   D2A46384  24.740   6.231   6.557
 3555POPC   C3A46385  24.676   5.969   6.913
 3555POPC   C4A46386  24.528   5.759   7.281
 3555POPC   C1B46387  24.394   5.897   6.389
 3555POPC   C2B46388  24.188   6.030   6.749
 3555POPC   C3B46389  24.290   6.214   7.150
 3555POPC   C4B46390  24.264   6.112   7.601
 3556POPC   NC346391  32.611  15.303   5.440
 3556POPC   PO446392  31.953  15.020   5.405
 3556POPC   GL146393  32.257  15.077   5.754
 3556POPC   GL246394  32.190  15.414   5.742
 3556POPC   C1A46395  32.470  15.085   6.180
 3556POPC   D2A46396  32.375  15.196   6.627
 3556POPC   C3A46397  32.468  14.972   7.012
 3556POPC   C4A46398  32.414  15.096   7.477
 3556POPC   C1B46399  32.115  15.472   6.208
 3556POPC   C2B46400  31.902  15.369   6.620
 3556POPC   C3B46401  32.078  15.497   7.034
 3556POPC   C4B46402  32.244  15.564   7.492
 3557POPC   NC346403   7.140  43.578   5.473
 3557POPC   PO446404   6.471  43.897   5.429
 3557POPC   GL146405   6.618  43.774   5.855
 3557POPC   GL246406   6.958  43.652   5.963
 3557POPC   C1A46407   6.514  43.649   6.283
 3557POPC   D2A46408   6.558  43.897   6.645
 3557POPC   C3A46409   6.802  43.876   7.009
 3557POPC   C4A46410   6.475  43.643   7.188
 3557POPC   C1B46411   6.889  44.026   6.263
 3557POPC   C2B46412   6.880  44.293   6.674
 3557POPC   C3B46413   6.976  44.356   7.124
 3557POPC   C4B46414   6.851  44.257   7.577
 3558POPC   NC346415  17.854   7.773   5.444
 3558POPC   PO446416  18.035   8.411   5.482
 3558POPC   GL146417  18.112   8.230   5.868
 3558POPC   GL246418  18.463   8.197   5.873
 3558POPC   C1A46419  18.179   8.366   6.305
 3558POPC   D2A46420  17.940   8.400   6.685
 3558POPC   C3A46421  18.152   8.253   7.024
 3558POPC   C4A46422  18.034   8.158   7.440
 3558POPC   C1B46423  18.671   8.092   6.277
 3558POPC   C2B46424  18.889   8.047   6.678
 3558POPC   C3B46425  18.633   8.030   7.028
 3558POPC   C4B46426  18.525   8.275   7.383
 3559POPC   NC346427  11.257  44.998   5.554
 3559POPC   PO446428  11.120  44.390   5.710
 3559POPC   GL146429  11.159  44.670   5.970
 3559POPC   GL246430  11.465  44.832   5.993
 3559POPC   C1A46431  11.076  44.625   6.378
 3559POPC   D2A46432  11.222  44.740   6.759
 3559POPC   C3A46433  11.085  44.596   7.132
 3559POPC   C4A46434  11.313  44.773   7.485
 3559POPC   C1B46435  11.521  44.428   6.257
 3559POPC   C2B46436  11.571  44.235   6.653
 3559POPC   C3B46437  11.558  44.431   7.054
 3559POPC   C4B46438  11.685  44.417   7.448
 3560POPC   NC346439  43.396  12.300   5.329
 3560POPC   PO446440  42.929  11.893   5.534
 3560POPC   GL146441  43.213  12.156   5.795
 3560POPC   GL246442  43.450  11.958   5.765
 3560POPC   C1A46443  43.161  12.339   6.208
 3560POPC   D2A46444  42.871  12.220   6.551
 3560POPC   C3A46445  43.051  12.099   6.959
 3560POPC   C4A46446  43.253  12.327   7.287
 3560POPC   C1B46447  43.248  11.719   6.094
 3560POPC   C2B46448  43.175  11.761   6.517
 3560POPC   C3B46449  43.352  11.670   6.900
 3560POPC   C4B46450  43.140  11.695   7.287
 3561POPC   NC346451  21.129  41.996   5.493
 3561POPC   PO446452  21.738  42.190   5.343
 3561POPC   GL146453  21.497  42.433   5.670
 3561POPC   GL246454  21.656  42.766   5.621
 3561POPC   C1A46455  21.291  42.337   6.099
 3561POPC   D2A46456  21.194  41.972   6.390
 3561POPC   C3A46457  21.267  42.069   6.822
 3561POPC   C4A46458  21.261  42.424   7.108
 3561POPC   C1B46459  21.585  42.840   6.064
 3561POPC   C2B46460  21.409  42.719   6.483
 3561POPC   C3B46461  21.529  42.833   6.900
 3561POPC   C4B46462  21.556  42.775   7.340
 3562POPC   NC346463  44.806  29.762   5.499
 3562POPC   PO446464  44.396  30.356   5.422
 3562POPC   GL146465  44.470  30.183   5.829
 3562POPC   GL246466  44.826  30.133   5.866
 3562POPC   C1A46467  44.348  29.952   6.215
 3562POPC   D2A46468  44.462  29.671   6.546
 3562POPC   C3A46469  44.497  29.899   6.928
 3562POPC   C4A46470  44.326  29.715   7.275
 3562POPC   C1B46471  44.836  29.837   6.211
 3562POPC   C2B46472  44.960  29.763   6.635
 3562POPC   C3B46473   0.020  29.827   7.071
 3562POPC   C4B46474  44.814  29.705   7.467
 3563POPC   NC346475  18.417  27.217   5.561
 3563POPC   PO446476  18.474  26.642   5.349
 3563POPC   GL146477  18.152  26.707   5.685
 3563POPC   GL246478  17.992  27.039   5.780
 3563POPC   C1A46479  18.184  26.703   6.147
 3563POPC   D2A46480  18.449  26.582   6.500
 3563POPC   C3A46481  18.196  26.677   6.883
 3563POPC   C4A46482  18.130  26.510   7.287
 3563POPC   C1B46483  18.228  27.209   6.164
 3563POPC   C2B46484  18.272  27.058   6.549
 3563POPC   C3B46485  18.405  27.123   6.949
 3563POPC   C4B46486  18.179  27.034   7.298
 3564POPC   NC346487  14.363  41.276   5.155
 3564POPC   PO446488  14.611  41.589   5.596
 3564POPC   GL146489  14.481  41.631   5.944
 3564POPC   GL246490  14.166  41.792   5.829
 3564POPC   C1A46491  14.600  41.461   6.346
 3564POPC   D2A46492  14.509  41.626   6.741
 3564POPC   C3A46493  14.337  41.351   7.045
 3564POPC   C4A46494  14.678  41.146   7.237
 3564POPC   C1B46495  14.163  41.821   6.294
 3564POPC   C2B46496  14.182  42.016   6.695
 3564POPC   C3B46497  14.267  41.864   7.126
 3564POPC   C4B46498  14.264  41.564   7.498
 3565POPC   NC346499  20.248  15.804   5.577
 3565POPC   PO446500  20.758  16.184   5.346
 3565POPC   GL146501  20.687  16.036   5.781
 3565POPC   GL246502  20.403  16.076   5.964
 3565POPC   C1A46503  20.797  16.065   6.242
 3565POPC   D2A46504  20.813  15.798   6.590
 3565POPC   C3A46505  20.694  16.029   6.917
 3565POPC   C4A46506  20.821  16.022   7.310
 3565POPC   C1B46507  20.361  15.771   6.306
 3565POPC   C2B46508  20.252  15.760   6.747
 3565POPC   C3B46509  20.284  15.820   7.192
 3565POPC   C4B46510  20.086  15.562   7.554
 3566POPC   NC346511  22.675  27.723   5.441
 3566POPC   PO446512  23.245  27.338   5.578
 3566POPC   GL146513  22.910  27.491   5.888
 3566POPC   GL246514  22.661  27.782   5.936
 3566POPC   C1A46515  23.036  27.509   6.316
 3566POPC   D2A46516  23.212  27.308   6.675
 3566POPC   C3A46517  23.105  27.432   7.090
 3566POPC   C4A46518  23.257  27.848   7.204
 3566POPC   C1B46519  22.541  27.652   6.325
 3566POPC   C2B46520  22.713  27.559   6.717
 3566POPC   C3B46521  22.761  27.797   7.069
 3566POPC   C4B46522  22.582  27.528   7.315
 3567POPC   NC346523  15.946  41.225   5.482
 3567POPC   PO446524  16.275  40.622   5.582
 3567POPC   GL146525  15.975  40.612   5.877
 3567POPC   GL246526  15.728  40.874   5.789
 3567POPC   C1A46527  16.151  40.575   6.287
 3567POPC   D2A46528  15.991  40.741   6.638
 3567POPC   C3A46529  15.747  40.556   6.955
 3567POPC   C4A46530  16.032  40.753   7.237
 3567POPC   C1B46531  15.897  41.019   6.193
 3567POPC   C2B46532  15.864  41.271   6.567
 3567POPC   C3B46533  15.781  41.089   6.956
 3567POPC   C4B46534  15.717  41.119   7.412
 3568POPC   NC346535   9.302  14.596   5.378
 3568POPC   PO446536   8.793  14.082   5.420
 3568POPC   GL146537   8.987  14.145   5.798
 3568POPC   GL246538   8.733  13.961   5.930
 3568POPC   C1A46539   9.114  14.253   6.233
 3568POPC   D2A46540   8.892  14.550   6.533
 3568POPC   C3A46541   9.038  14.501   6.955
 3568POPC   C4A46542   9.206  14.169   7.135
 3568POPC   C1B46543   8.603  14.216   6.244
 3568POPC   C2B46544   8.417  14.272   6.607
 3568POPC   C3B46545   8.616  14.211   6.950
 3568POPC   C4B46546   8.703  14.218   7.343
 3569POPC   NC346547  43.617  31.306   5.499
 3569POPC   PO446548  44.187  31.616   5.504
 3569POPC   GL146549  44.009  31.486   5.843
 3569POPC   GL246550  44.095  31.138   5.872
 3569POPC   C1A46551  43.897  31.597   6.247
 3569POPC   D2A46552  44.034  31.323   6.555
 3569POPC   C3A46553  44.060  31.570   6.892
 3569POPC   C4A46554  44.029  31.365   7.274
 3569POPC   C1B46555  43.716  31.131   6.155
 3569POPC   C2B46556  43.529  31.378   6.519
 3569POPC   C3B46557  43.646  31.246   6.948
 3569POPC   C4B46558  43.406  31.211   7.305
 3570POPC   NC346559  35.236   0.694   5.486
 3570POPC   PO446560  35.560   0.059   5.434
 3570POPC   GL146561  35.617   0.203   5.849
 3570POPC   GL246562  35.526   0.553   5.881
 3570POPC   C1A46563  35.528   0.216   6.290
 3570POPC   D2A46564  35.711   0.225   6.693
 3570POPC   C3A46565  35.447   0.351   6.981
 3570POPC   C4A46566  35.579   0.663   7.246
 3570POPC   C1B46567  35.198   0.689   6.174
 3570POPC   C2B46568  35.117   0.546   6.601
 3570POPC   C3B46569  35.089   0.699   7.028
 3570POPC   C4B46570  35.117   0.546   7.465
 3571POPC   NC346571  30.962  16.119   5.523
 3571POPC   PO446572  30.373  16.009   5.218
 3571POPC   GL146573  30.351  15.983   5.711
 3571POPC   GL246574  30.626  15.754   5.763
 3571POPC   C1A46575  30.464  16.034   6.178
 3571POPC   D2A46576  30.440  15.998   6.647
 3571POPC   C3A46577  30.801  16.049   6.887
 3571POPC   C4A46578  30.966  16.225   7.246
 3571POPC   C1B46579  30.597  15.536   6.185
 3571POPC   C2B46580  30.778  15.514   6.579
 3571POPC   C3B46581  30.555  15.553   6.932
 3571POPC   C4B46582  30.659  15.760   7.295
 3572POPC   NC346583  28.111   3.480   5.485
 3572POPC   PO446584  28.774   3.728   5.360
 3572POPC   GL146585  28.491   3.696   5.736
 3572POPC   GL246586  28.235   3.948   5.667
 3572POPC   C1A46587  28.359   3.478   6.144
 3572POPC   D2A46588  28.219   3.327   6.564
 3572POPC   C3A46589  28.348   3.491   6.954
 3572POPC   C4A46590  28.492   3.622   7.319
 3572POPC   C1B46591  28.162   3.949   6.095
 3572POPC   C2B46592  28.184   3.856   6.537
 3572POPC   C3B46593  28.023   3.896   6.948
 3572POPC   C4B46594  28.095   3.985   7.384
 3573POPC   NC346595  28.788  23.157   5.616
 3573POPC   PO446596  28.300  22.663   5.413
 3573POPC   GL146597  28.375  22.916   5.801
 3573POPC   GL246598  28.172  23.238   5.846
 3573POPC   C1A46599  28.569  22.828   6.199
 3573POPC   D2A46600  28.276  22.846   6.542
 3573POPC   C3A46601  28.407  22.899   6.931
 3573POPC   C4A46602  28.114  22.853   7.268
 3573POPC   C1B46603  28.304  23.255   6.241
 3573POPC   C2B46604  28.139  23.362   6.658
 3573POPC   C3B46605  28.197  23.327   7.095
 3573POPC   C4B46606  28.597  23.187   7.319
 3574POPC   NC346607  14.477  16.141   5.115
 3574POPC   PO446608  14.578  15.572   5.447
 3574POPC   GL146609  14.639  15.782   5.823
 3574POPC   GL246610  14.672  16.126   5.723
 3574POPC   C1A46611  14.455  15.921   6.224
 3574POPC   D2A46612  14.284  15.883   6.640
 3574POPC   C3A46613  14.325  16.127   6.989
 3574POPC   C4A46614  14.385  15.819   7.266
 3574POPC   C1B46615  14.828  16.251   6.146
 3574POPC   C2B46616  14.672  16.253   6.573
 3574POPC   C3B46617  14.829  16.155   6.961
 3574POPC   C4B46618  14.823  16.066   7.368
 3575POPC   NC346619  31.066   5.190   5.597
 3575POPC   PO446620  30.426   4.964   5.414
 3575POPC   GL146621  30.614   4.964   5.803
 3575POPC   GL246622  30.879   4.772   5.920
 3575POPC   C1A46623  30.570   5.067   6.225
 3575POPC   D2A46624  30.828   5.168   6.590
 3575POPC   C3A46625  30.566   5.382   6.881
 3575POPC   C4A46626  30.495   5.372   7.298
 3575POPC   C1B46627  30.826   4.650   6.383
 3575POPC   C2B46628  30.786   4.687   6.822
 3575POPC   C3B46629  31.003   4.969   7.071
 3575POPC   C4B46630  30.928   5.142   7.452
 3576POPC   NC346631   7.950  22.834   5.599
 3576POPC   PO446632   7.317  22.737   5.380
 3576POPC   GL146633   7.348  23.004   5.744
 3576POPC   GL246634   7.660  23.129   5.888
 3576POPC   C1A46635   7.166  22.987   6.157
 3576POPC   D2A46636   7.090  22.776   6.532
 3576POPC   C3A46637   7.380  22.898   6.861
 3576POPC   C4A46638   7.436  23.133   7.258
 3576POPC   C1B46639   7.667  22.892   6.277
 3576POPC   C2B46640   7.880  22.774   6.673
 3576POPC   C3B46641   7.853  22.886   7.074
 3576POPC   C4B46642   7.670  22.631   7.322
 3577POPC   NC346643  42.845  42.160   5.515
 3577POPC   PO446644  43.551  42.563   5.426
 3577POPC   GL146645  43.251  42.568   5.731
 3577POPC   GL246646  43.293  42.223   5.740
 3577POPC   C1A46647  43.052  42.451   6.131
 3577POPC   D2A46648  43.100  42.580   6.557
 3577POPC   C3A46649  43.142  42.355   6.973
 3577POPC   C4A46650  43.266  42.593   7.347
 3577POPC   C1B46651  43.432  42.064   6.127
 3577POPC   C2B46652  43.337  42.076   6.544
 3577POPC   C3B46653  43.623  42.241   6.817
 3577POPC   C4B46654  43.581  42.197   7.244
 3578POPC   NC346655  11.334   6.207   5.058
 3578POPC   PO446656  11.046   5.744   5.505
 3578POPC   GL146657  11.298   5.841   5.858
 3578POPC   GL246658  11.141   6.089   6.052
 3578POPC   C1A46659  11.279   5.644   6.261
 3578POPC   D2A46660  10.985   5.489   6.527
 3578POPC   C3A46661  11.158   5.699   6.834
 3578POPC   C4A46662  11.376   5.693   7.202
 3578POPC   C1B46663  11.451   6.155   6.387
 3578POPC   C2B46664  11.495   6.119   6.821
 3578POPC   C3B46665  11.316   6.199   7.204
 3578POPC   C4B46666  10.876   6.215   7.350
 3579POPC   NC346667  28.478  14.082   5.558
 3579POPC   PO446668  28.282  14.726   5.726
 3579POPC   GL146669  28.357  14.435   5.965
 3579POPC   GL246670  28.744  14.357   5.955
 3579POPC   C1A46671  28.095  14.405   6.348
 3579POPC   D2A46672  28.178  14.596   6.748
 3579POPC   C3A46673  28.174  14.312   7.114
 3579POPC   C4A46674  28.081  14.024   7.455
 3579POPC   C1B46675  28.630  14.582   6.362
 3579POPC   C2B46676  28.689  14.584   6.793
 3579POPC   C3B46677  28.684  14.349   7.152
 3579POPC   C4B46678  28.762  14.578   7.499
 3580POPC   NC346679   3.116   7.518   5.227
 3580POPC   PO446680   3.717   7.693   5.470
 3580POPC   GL146681   3.690   7.733   5.898
 3580POPC   GL246682   3.437   7.497   5.870
 3580POPC   C1A46683   3.774   7.570   6.330
 3580POPC   D2A46684   3.723   7.294   6.696
 3580POPC   C3A46685   3.584   7.428   7.096
 3580POPC   C4A46686   3.855   7.427   7.433
 3580POPC   C1B46687   3.262   7.490   6.252
 3580POPC   C2B46688   3.184   7.415   6.652
 3580POPC   C3B46689   2.920   7.641   6.920
 3580POPC   C4B46690   3.117   7.559   7.293
 3581POPC   NC346691   9.115  30.459   5.413
 3581POPC   PO446692   8.577  30.855   5.469
 3581POPC   GL146693   8.788  30.621   5.811
 3581POPC   GL246694   9.148  30.719   5.857
 3581POPC   C1A46695   8.772  30.484   6.247
 3581POPC   D2A46696   8.680  30.383   6.701
 3581POPC   C3A46697   8.830  30.578   7.074
 3581POPC   C4A46698   9.181  30.792   7.265
 3581POPC   C1B46699   9.291  30.469   6.203
 3581POPC   C2B46700   9.178  30.434   6.639
 3581POPC   C3B46701   9.378  30.383   7.051
 3581POPC   C4B46702   9.136  30.324   7.448
 3582POPC   NC346703  16.762  29.370   5.499
 3582POPC   PO446704  16.461  28.758   5.679
 3582POPC   GL146705  16.789  28.946   5.935
 3582POPC   GL246706  17.055  29.203   5.920
 3582POPC   C1A46707  16.778  29.132   6.333
 3582POPC   D2A46708  16.649  29.302   6.683
 3582POPC   C3A46709  16.742  29.017   6.903
 3582POPC   C4A46710  16.715  28.926   7.266
 3582POPC   C1B46711  17.281  29.360   6.287
 3582POPC   C2B46712  17.199  29.225   6.721
 3582POPC   C3B46713  17.122  29.234   7.177
 3582POPC   C4B46714  16.893  29.278   7.591
 3583POPC   NC346715  20.071   1.278   5.409
 3583POPC   PO446716  19.491   1.462   5.626
 3583POPC   GL146717  19.790   1.270   5.869
 3583POPC   GL246718  19.879   0.920   5.786
 3583POPC   C1A46719  19.786   1.244   6.300
 3583POPC   D2A46720  19.798   1.465   6.698
 3583POPC   C3A46721  19.640   1.422   7.111
 3583POPC   C4A46722  19.726   1.317   7.585
 3583POPC   C1B46723  20.066   0.814   6.219
 3583POPC   C2B46724  19.893   0.898   6.643
 3583POPC   C3B46725  19.861   0.978   7.052
 3583POPC   C4B46726  20.032   0.942   7.452
 3584POPC   NC346727  27.881  21.572   5.347
 3584POPC   PO446728  28.397  21.094   5.391
 3584POPC   GL146729  28.268  21.414   5.719
 3584POPC   GL246730  28.066  21.228   5.918
 3584POPC   C1A46731  28.424  21.455   6.180
 3584POPC   D2A46732  28.272  21.520   6.627
 3584POPC   C3A46733  28.500  21.325   6.970
 3584POPC   C4A46734  28.557  21.536   7.375
 3584POPC   C1B46735  28.007  21.158   6.370
 3584POPC   C2B46736  27.989  21.127   6.832
 3584POPC   C3B46737  27.903  20.979   7.248
 3584POPC   C4B46738  27.879  20.878   7.728
 3585POPC   NC346739  44.543  36.460   5.161
 3585POPC   PO446740  44.833  36.897   5.591
 3585POPC   GL146741  44.615  36.872   5.942
 3585POPC   GL246742  44.707  37.215   6.025
 3585POPC   C1A46743  44.713  36.842   6.377
 3585POPC   D2A46744  44.729  36.840   6.782
 3585POPC   C3A46745  44.362  36.959   6.982
 3585POPC   C4A46746  44.332  36.590   7.228
 3585POPC   C1B46747  44.346  37.198   6.276
 3585POPC   C2B46748  44.373  37.387   6.674
 3585POPC   C3B46749  44.734  37.306   6.949
 3585POPC   C4B46750   0.156  37.306   7.142
 3586POPC   NC346751  10.153  28.718   5.245
 3586POPC   PO446752  10.660  28.302   5.442
 3586POPC   GL146753  10.391  28.332   5.768
 3586POPC   GL246754  10.394  28.691   5.737
 3586POPC   C1A46755  10.575  28.324   6.187
 3586POPC   D2A46756  10.769  28.240   6.575
 3586POPC   C3A46757  10.567  28.352   6.953
 3586POPC   C4A46758  10.694  28.440   7.392
 3586POPC   C1B46759  10.197  28.654   6.146
 3586POPC   C2B46760  10.224  28.460   6.562
 3586POPC   C3B46761  10.117  28.605   6.977
 3586POPC   C4B46762  10.311  28.768   7.356
 3587POPC   NC346763   8.676  43.306   5.212
 3587POPC   PO446764   9.210  42.918   5.455
 3587POPC   GL146765   9.106  43.061   5.854
 3587POPC   GL246766   9.041  43.400   5.787
 3587POPC   C1A46767   8.867  42.991   6.243
 3587POPC   D2A46768   8.830  42.775   6.642
 3587POPC   C3A46769   9.039  43.031   6.928
 3587POPC   C4A46770   9.331  42.930   7.255
 3587POPC   C1B46771   9.068  43.467   6.212
 3587POPC   C2B46772   9.229  43.506   6.602
 3587POPC   C3B46773   9.055  43.553   6.983
 3587POPC   C4B46774   9.017  43.329   7.349
 3588POPC   NC346775   6.343  43.169   5.475
 3588POPC   PO446776   6.996  43.067   5.447
 3588POPC   GL146777   6.879  43.139   5.876
 3588POPC   GL246778   6.537  43.255   5.934
 3588POPC   C1A46779   6.853  43.272   6.322
 3588POPC   D2A46780   6.998  43.558   6.657
 3588POPC   C3A46781   6.904  43.374   7.102
 3588POPC   C4A46782   6.652  43.321   7.523
 3588POPC   C1B46783   6.309  43.143   6.323
 3588POPC   C2B46784   6.184  42.732   6.538
 3588POPC   C3B46785   6.276  42.685   6.962
 3588POPC   C4B46786   6.404  43.090   7.150
 3589POPC   NC346787  27.239  14.091   5.517
 3589POPC   PO446788  27.820  14.234   5.487
 3589POPC   GL146789  27.804  14.448   5.874
 3589POPC   GL246790  27.451  14.503   5.790
 3589POPC   C1A46791  27.598  14.613   6.251
 3589POPC   D2A46792  27.380  14.514   6.607
 3589POPC   C3A46793  27.723  14.326   6.786
 3589POPC   C4A46794  27.689  14.208   7.172
 3589POPC   C1B46795  27.318  14.201   6.153
 3589POPC   C2B46796  27.389  13.976   6.561
 3589POPC   C3B46797  27.237  14.158   6.953
 3589POPC   C4B46798  27.237  14.567   7.198
 3590POPC   NC346799   0.752  35.523   5.566
 3590POPC   PO446800   1.292  35.090   5.505
 3590POPC   GL146801   1.233  35.324   5.860
 3590POPC   GL246802   1.236  35.683   5.793
 3590POPC   C1A46803   1.460  35.389   6.234
 3590POPC   D2A46804   1.306  35.412   6.641
 3590POPC   C3A46805   1.480  35.338   7.048
 3590POPC   C4A46806   1.279  35.562   7.405
 3590POPC   C1B46807   1.019  35.677   6.207
 3590POPC   C2B46808   0.795  35.524   6.583
 3590POPC   C3B46809   0.961  35.518   7.014
 3590POPC   C4B46810   0.792  35.723   7.382
 3591POPC   NC346811  25.522   6.100   5.456
 3591POPC   PO446812  25.574   5.398   5.565
 3591POPC   GL146813  25.405   5.733   5.794
 3591POPC   GL246814  25.063   5.842   5.760
 3591POPC   C1A46815  25.389   6.035   6.117
 3591POPC   D2A46816  25.482   6.154   6.502
 3591POPC   C3A46817  25.190   6.049   6.796
 3591POPC   C4A46818  25.159   6.289   7.158
 3591POPC   C1B46819  25.111   5.587   6.173
 3591POPC   C2B46820  25.234   5.529   6.584
 3591POPC   C3B46821  25.259   5.458   6.993
 3591POPC   C4B46822  25.031   5.763   7.210
 3592POPC   NC346823  32.353  19.828   5.453
 3592POPC   PO446824  31.834  19.575   5.286
 3592POPC   GL146825  31.903  19.770   5.727
 3592POPC   GL246826  31.998  20.147   5.759
 3592POPC   C1A46827  32.195  19.806   6.119
 3592POPC   D2A46828  32.164  20.047   6.515
 3592POPC   C3A46829  32.154  19.772   6.868
 3592POPC   C4A46830  32.370  19.719   7.243
 3592POPC   C1B46831  32.376  20.300   6.049
 3592POPC   C2B46832  32.542  20.391   6.480
 3592POPC   C3B46833  32.552  20.142   6.871
 3592POPC   C4B46834  32.538  20.210   7.299
 3593POPC   NC346835  41.917  22.997   5.359
 3593POPC   PO446836  41.358  23.153   5.218
 3593POPC   GL146837  41.419  22.909   5.620
 3593POPC   GL246838  41.698  22.654   5.679
 3593POPC   C1A46839  41.517  23.019   6.069
 3593POPC   D2A46840  41.749  22.959   6.465
 3593POPC   C3A46841  41.584  23.034   6.876
 3593POPC   C4A46842  41.357  23.180   7.231
 3593POPC   C1B46843  41.918  22.629   6.083
 3593POPC   C2B46844  41.921  22.452   6.496
 3593POPC   C3B46845  41.886  22.615   6.912
 3593POPC   C4B46846  42.029  22.700   7.317
 3594POPC   NC346847  35.435  21.687   5.473
 3594POPC   PO446848  35.298  20.924   5.546
 3594POPC   GL146849  35.381  21.196   5.897
 3594POPC   GL246850  35.356  21.571   5.952
 3594POPC   C1A46851  35.571  21.300   6.325
 3594POPC   D2A46852  35.435  21.539   6.712
 3594POPC   C3A46853  35.548  21.393   7.140
 3594POPC   C4A46854  35.675  21.625   7.544
 3594POPC   C1B46855  34.970  21.712   6.165
 3594POPC   C2B46856  34.854  21.907   6.571
 3594POPC   C3B46857  34.959  21.693   6.928
 3594POPC   C4B46858  35.050  21.301   6.981
 3595POPC   NC346859  19.957   4.305   5.502
 3595POPC   PO446860  19.531   4.715   5.639
 3595POPC   GL146861  19.673   4.488   5.948
 3595POPC   GL246862  19.989   4.335   6.011
 3595POPC   C1A46863  19.714   4.543   6.382
 3595POPC   D2A46864  19.967   4.442   6.721
 3595POPC   C3A46865  19.677   4.429   7.041
 3595POPC   C4A46866  19.602   4.100   7.303
 3595POPC   C1B46867  19.919   4.037   6.347
 3595POPC   C2B46868  20.152   3.898   6.708
 3595POPC   C3B46869  20.073   4.069   7.073
 3595POPC   C4B46870  20.134   4.430   7.263
 3596POPC   NC346871  38.557  42.628   5.083
 3596POPC   PO446872  38.652  42.409   5.728
 3596POPC   GL146873  38.556  42.611   6.098
 3596POPC   GL246874  38.219  42.619   6.071
 3596POPC   C1A46875  38.421  42.454   6.501
 3596POPC   D2A46876  38.548  42.086   6.713
 3596POPC   C3A46877  38.639  42.216   7.095
 3596POPC   C4A46878  38.492  42.506   7.361
 3596POPC   C1B46879  38.114  42.211   6.154
 3596POPC   C2B46880  38.026  42.161   6.587
 3596POPC   C3B46881  38.147  42.339   6.989
 3596POPC   C4B46882  38.160  42.141   7.399
 3597POPC   NC346883   9.116  33.343   5.049
 3597POPC   PO446884   9.067  32.695   5.203
 3597POPC   GL146885   8.984  33.063   5.525
 3597POPC   GL246886   8.874  32.798   5.737
 3597POPC   C1A46887   8.976  33.243   5.983
 3597POPC   D2A46888   8.948  33.381   6.440
 3597POPC   C3A46889   9.200  33.250   6.819
 3597POPC   C4A46890   9.122  33.365   7.258
 3597POPC   C1B46891   8.750  32.783   6.172
 3597POPC   C2B46892   8.858  32.885   6.611
 3597POPC   C3B46893   8.887  32.807   7.068
 3597POPC   C4B46894   8.690  32.841   7.504
 3598POPC   NC346895   3.442  19.289   5.384
 3598POPC   PO446896   3.404  18.629   5.499
 3598POPC   GL146897   3.511  18.961   5.802
 3598POPC   GL246898   3.812  19.175   5.756
 3598POPC   C1A46899   3.588  19.129   6.236
 3598POPC   D2A46900   3.401  19.330   6.602
 3598POPC   C3A46901   3.359  19.068   6.962
 3598POPC   C4A46902   3.342  18.864   7.356
 3598POPC   C1B46903   3.940  18.810   6.027
 3598POPC   C2B46904   3.903  18.700   6.471
 3598POPC   C3B46905   3.852  18.968   6.814
 3598POPC   C4B46906   3.854  19.070   7.237
 3599POPC   NC346907   7.643  14.466   5.525
 3599POPC   PO446908   6.909  14.407   5.523
 3599POPC   GL146909   7.201  14.334   5.811
 3599POPC   GL246910   7.280  14.672   5.818
 3599POPC   C1A46911   7.496  14.224   6.150
 3599POPC   D2A46912   7.746  14.085   6.540
 3599POPC   C3A46913   7.685  14.242   6.931
 3599POPC   C4A46914   7.267  14.297   7.031
 3599POPC   C1B46915   7.517  14.724   6.203
 3599POPC   C2B46916   7.434  14.512   6.568
 3599POPC   C3B46917   7.486  14.742   6.886
 3599POPC   C4B46918   7.618  14.647   7.266
 3600POPC   NC346919   7.982  10.004   5.465
 3600POPC   PO446920   8.558  10.065   5.046
 3600POPC   GL146921   8.352   9.707   5.564
 3600POPC   GL246922   8.066   9.692   5.850
 3600POPC   C1A46923   8.399   9.838   6.165
 3600POPC   D2A46924   8.248  10.060   6.535
 3600POPC   C3A46925   8.384   9.969   6.952
 3600POPC   C4A46926   8.402   9.602   7.166
 3600POPC   C1B46927   8.132   9.427   6.232
 3600POPC   C2B46928   8.204   9.553   6.666
 3600POPC   C3B46929   7.934   9.742   6.994
 3600POPC   C4B46930   7.953   9.504   7.366
 3601POPC   NC346931  24.482  25.137   5.251
 3601POPC   PO446932  24.088  25.571   5.590
 3601POPC   GL146933  24.343  25.188   5.739
 3601POPC   GL246934  24.722  25.262   5.698
 3601POPC   C1A46935  24.594  24.973   6.110
 3601POPC   D2A46936  24.486  24.831   6.525
 3601POPC   C3A46937  24.572  25.042   6.881
 3601POPC   C4A46938  24.226  25.152   7.084
 3601POPC   C1B46939  24.541  25.488   6.080
 3601POPC   C2B46940  24.593  25.392   6.478
 3601POPC   C3B46941  24.461  25.543   6.842
 3601POPC   C4B46942  24.634  25.441   7.235
 3602POPC   NC346943  29.849   6.290   5.450
 3602POPC   PO446944  30.130   6.910   5.402
 3602POPC   GL146945  30.024   6.637   5.812
 3602POPC   GL246946  30.224   6.295   5.835
 3602POPC   C1A46947  29.747   6.721   6.198
 3602POPC   D2A46948  29.742   6.994   6.592
 3602POPC   C3A46949  29.788   6.841   7.040
 3602POPC   C4A46950  29.718   6.858   7.524
 3602POPC   C1B46951  29.880   6.223   6.144
 3602POPC   C2B46952  29.662   6.331   6.543
 3602POPC   C3B46953  29.827   6.315   6.987
 3602POPC   C4B46954  30.213   6.166   7.152
 3603POPC   NC346955  21.774  29.228   5.514
 3603POPC   PO446956  21.176  28.850   5.455
 3603POPC   GL146957  21.142  29.071   5.852
 3603POPC   GL246958  21.511  29.052   5.930
 3603POPC   C1A46959  21.181  29.285   6.246
 3603POPC   D2A46960  21.471  29.075   6.507
 3603POPC   C3A46961  21.237  28.958   6.874
 3603POPC   C4A46962  21.214  29.139   7.274
 3603POPC   C1B46963  21.673  29.441   6.147
 3603POPC   C2B46964  21.728  29.515   6.596
 3603POPC   C3B46965  21.458  29.500   6.978
 3603POPC   C4B46966  21.591  29.482   7.403
 3604POPC   NC346967  38.287  38.893   5.357
 3604POPC   PO446968  38.758  39.356   5.334
 3604POPC   GL146969  38.531  39.300   5.701
 3604POPC   GL246970  38.723  39.045   5.754
 3604POPC   C1A46971  38.278  39.243   6.095
 3604POPC   D2A46972  38.395  39.133   6.528
 3604POPC   C3A46973  38.251  39.196   6.939
 3604POPC   C4A46974  38.421  39.471   7.197
 3604POPC   C1B46975  38.711  38.949   6.168
 3604POPC   C2B46976  38.806  38.828   6.601
 3604POPC   C3B46977  38.609  38.734   6.980
 3604POPC   C4B46978  38.534  38.988   7.330
 3605POPC   NC346979  13.329  11.780   5.630
 3605POPC   PO446980  13.376  11.259   5.222
 3605POPC   GL146981  13.615  11.346   5.642
 3605POPC   GL246982  13.821  11.594   5.736
 3605POPC   C1A46983  13.578  11.305   6.121
 3605POPC   D2A46984  13.743  11.051   6.466
 3605POPC   C3A46985  13.613  11.134   6.900
 3605POPC   C4A46986  13.865  11.183   7.247
 3605POPC   C1B46987  14.011  11.594   6.157
 3605POPC   C2B46988  13.820  11.554   6.573
 3605POPC   C3B46989  14.003  11.591   6.971
 3605POPC   C4B46990  13.869  11.711   7.371
 3606POPC   NC346991   6.295  31.453   5.436
 3606POPC   PO446992   5.643  31.606   5.416
 3606POPC   GL146993   5.876  31.512   5.785
 3606POPC   GL246994   5.538  31.551   5.912
 3606POPC   C1A46995   5.928  31.429   6.229
 3606POPC   D2A46996   5.965  31.619   6.615
 3606POPC   C3A46997   6.070  31.363   6.975
 3606POPC   C4A46998   6.248  31.502   7.351
 3606POPC   C1B46999   5.611  31.842   6.221
 3606POPC   C2B47000   5.592  31.964   6.671
 3606POPC   C3B47001   5.664  31.734   7.046
 3606POPC   C4B47002   5.828  31.770   7.476
 3607POPC   NC347003  41.989   9.275   5.453
 3607POPC   PO447004  41.552   9.842   5.326
 3607POPC   GL147005  41.447   9.767   5.762
 3607POPC   GL247006  41.789   9.688   5.801
 3607POPC   C1A47007  41.289   9.644   6.226
 3607POPC   D2A47008  41.127   9.714   6.678
 3607POPC   C3A47009  41.442   9.538   6.991
 3607POPC   C4A47010  41.522   9.467   7.453
 3607POPC   C1B47011  41.685   9.957   6.171
 3607POPC   C2B47012  41.612   9.883   6.619
 3607POPC   C3B47013  41.702   9.993   7.063
 3607POPC   C4B47014  41.970   9.767   7.368
 3608POPC   NC347015   7.683  31.120   5.521
 3608POPC   PO447016   7.208  31.577   5.435
 3608POPC   GL147017   7.358  31.498   5.833
 3608POPC   GL247018   7.709  31.595   5.808
 3608POPC   C1A47019   7.330  31.383   6.268
 3608POPC   D2A47020   7.572  31.147   6.575
 3608POPC   C3A47021   7.456  31.253   6.981
 3608POPC   C4A47022   7.115  31.455   7.204
 3608POPC   C1B47023   7.628  31.795   6.228
 3608POPC   C2B47024   7.736  31.639   6.656
 3608POPC   C3B47025   7.705  31.714   7.115
 3608POPC   C4B47026   7.824  31.805   7.595
 3609POPC   NC347027  31.507   7.385   5.358
 3609POPC   PO447028  31.344   7.964   5.635
 3609POPC   GL147029  31.572   7.589   5.865
 3609POPC   GL247030  31.383   7.304   5.867
 3609POPC   C1A47031  31.839   7.327   6.162
 3609POPC   D2A47032  31.838   7.091   6.555
 3609POPC   C3A47033  31.554   7.280   6.822
 3609POPC   C4A47034  31.588   7.405   7.227
 3609POPC   C1B47035  31.388   7.074   6.272
 3609POPC   C2B47036  31.148   6.990   6.653
 3609POPC   C3B47037  31.345   6.873   7.069
 3609POPC   C4B47038  31.172   7.095   7.407
 3610POPC   NC347039  13.374  28.432   5.476
 3610POPC   PO447040  13.949  28.674   5.205
 3610POPC   GL147041  13.883  28.426   5.676
 3610POPC   GL247042  13.563  28.498   5.930
 3610POPC   C1A47043  13.918  28.240   6.147
 3610POPC   D2A47044  13.700  28.255   6.567
 3610POPC   C3A47045  13.773  28.375   7.011
 3610POPC   C4A47046  13.815  28.036   7.342
 3610POPC   C1B47047  13.338  28.226   6.172
 3610POPC   C2B47048  13.250  28.031   6.583
 3610POPC   C3B47049  13.452  27.985   6.972
 3610POPC   C4B47050  13.304  27.809   7.361
 3611POPC   NC347051   9.807   3.094   5.479
 3611POPC   PO447052  10.111   3.672   5.438
 3611POPC   GL147053  10.009   3.393   5.829
 3611POPC   GL247054   9.619   3.331   5.911
 3611POPC   C1A47055   9.965   3.194   6.243
 3611POPC   D2A47056   9.947   3.466   6.571
 3611POPC   C3A47057   9.890   3.350   6.972
 3611POPC   C4A47058  10.048   3.529   7.341
 3611POPC   C1B47059   9.524   3.583   6.291
 3611POPC   C2B47060   9.508   3.659   6.753
 3611POPC   C3B47061   9.521   3.632   7.191
 3611POPC   C4B47062   9.384   3.791   7.582
 3612POPC   NC347063  33.562  24.982   5.214
 3612POPC   PO447064  33.779  25.566   5.553
 3612POPC   GL147065  33.574  25.321   5.838
 3612POPC   GL247066  33.838  25.090   5.982
 3612POPC   C1A47067  33.446  25.209   6.260
 3612POPC   D2A47068  33.734  25.015   6.575
 3612POPC   C3A47069  33.661  25.093   7.000
 3612POPC   C4A47070  33.850  25.312   7.348
 3612POPC   C1B47071  34.208  24.976   6.206
 3612POPC   C2B47072  34.247  24.744   6.579
 3612POPC   C3B47073  34.122  24.894   6.975
 3612POPC   C4B47074  34.130  24.924   7.442
 3613POPC   NC347075  17.164  11.580   5.429
 3613POPC   PO447076  16.556  11.257   5.465
 3613POPC   GL147077  16.748  11.419   5.806
 3613POPC   GL247078  17.067  11.273   5.830
 3613POPC   C1A47079  16.787  11.321   6.236
 3613POPC   D2A47080  16.915  11.451   6.595
 3613POPC   C3A47081  16.618  11.445   6.887
 3613POPC   C4A47082  16.668  11.331   7.284
 3613POPC   C1B47083  17.156  10.977   6.148
 3613POPC   C2B47084  17.167  10.980   6.592
 3613POPC   C3B47085  17.141  11.226   6.984
 3613POPC   C4B47086  17.083  11.058   7.386
 3614POPC   NC347087   1.449  27.087   5.380
 3614POPC   PO447088   0.994  26.555   5.476
 3614POPC   GL147089   1.309  26.696   5.795
 3614POPC   GL247090   1.349  27.074   5.869
 3614POPC   C1A47091   1.364  26.727   6.251
 3614POPC   D2A47092   1.158  27.032   6.540
 3614POPC   C3A47093   0.982  26.848   6.875
 3614POPC   C4A47094   0.927  27.035   7.233
 3614POPC   C1B47095   1.526  27.208   6.247
 3614POPC   C2B47096   1.657  27.065   6.634
 3614POPC   C3B47097   1.432  27.048   7.017
 3614POPC   C4B47098   1.322  26.654   7.241
 3615POPC   NC347099   7.723  18.756   5.404
 3615POPC   PO447100   7.352  18.129   5.439
 3615POPC   GL147101   7.450  18.265   5.810
 3615POPC   GL247102   7.339  18.576   5.748
 3615POPC   C1A47103   7.687  18.176   6.171
 3615POPC   D2A47104   7.815  18.397   6.557
 3615POPC   C3A47105   7.679  18.228   6.938
 3615POPC   C4A47106   7.351  18.331   7.220
 3615POPC   C1B47107   7.619  18.697   6.090
 3615POPC   C2B47108   7.497  18.841   6.489
 3615POPC   C3B47109   7.556  18.728   6.886
 3615POPC   C4B47110   7.408  18.826   7.262
 3616POPC   NC347111  17.376  12.221   5.504
 3616POPC   PO447112  17.615  11.649   5.293
 3616POPC   GL147113  17.426  11.801   5.784
 3616POPC   GL247114  17.096  11.783   5.925
 3616POPC   C1A47115  17.566  11.950   6.212
 3616POPC   D2A47116  17.533  12.310   6.465
 3616POPC   C3A47117  17.549  12.185   6.864
 3616POPC   C4A47118  17.461  12.293   7.240
 3616POPC   C1B47119  17.119  12.173   6.157
 3616POPC   C2B47120  17.030  12.312   6.585
 3616POPC   C3B47121  17.032  12.162   6.995
 3616POPC   C4B47122  17.101  11.958   7.394
 3617POPC   NC347123  38.747  16.047   5.095
 3617POPC   PO447124  38.176  15.785   5.343
 3617POPC   GL147125  38.279  16.015   5.704
 3617POPC   GL247126  38.623  16.085   5.627
 3617POPC   C1A47127  38.197  15.975   6.153
 3617POPC   D2A47128  38.291  15.748   6.529
 3617POPC   C3A47129  38.138  15.723   6.948
 3617POPC   C4A47130  37.928  16.043   7.195
 3617POPC   C1B47131  38.604  16.276   6.053
 3617POPC   C2B47132  38.469  16.254   6.491
 3617POPC   C3B47133  38.360  16.183   6.916
 3617POPC   C4B47134  38.588  15.901   7.198
 3618POPC   NC347135  39.342   5.199   5.320
 3618POPC   PO447136  38.730   5.024   5.397
 3618POPC   GL147137  38.968   5.281   5.726
 3618POPC   GL247138  39.313   5.120   5.822
 3618POPC   C1A47139  38.964   5.249   6.196
 3618POPC   D2A47140  38.958   4.823   6.433
 3618POPC   C3A47141  39.131   4.824   6.849
 3618POPC   C4A47142  39.102   5.063   7.224
 3618POPC   C1B47143  39.450   5.076   6.247
 3618POPC   C2B47144  39.261   5.259   6.618
 3618POPC   C3B47145  39.416   5.422   6.981
 3618POPC   C4B47146  39.586   5.183   7.318
 3619POPC   NC347147  11.126  10.882   5.171
 3619POPC   PO447148  11.071  10.311   5.548
 3619POPC   GL147149  11.341  10.570   5.798
 3619POPC   GL247150  11.132  10.783   6.003
 3619POPC   C1A47151  11.557  10.505   6.201
 3619POPC   D2A47152  11.739  10.375   6.593
 3619POPC   C3A47153  11.489  10.555   6.920
 3619POPC   C4A47154  11.503  10.430   7.347
 3619POPC   C1B47155  11.042  10.408   6.258
 3619POPC   C2B47156  11.224  10.238   6.614
 3619POPC   C3B47157  11.098  10.233   7.049
 3619POPC   C4B47158  11.061  10.657   7.207
 3620POPC   NC347159  39.009   6.132   5.334
 3620POPC   PO447160  39.508   5.649   5.325
 3620POPC   GL147161  39.441   5.615   5.779
 3620POPC   GL247162  39.114   5.780   5.795
 3620POPC   C1A47163  39.402   5.597   6.252
 3620POPC   D2A47164  39.362   5.946   6.563
 3620POPC   C3A47165  39.258   5.954   7.017
 3620POPC   C4A47166  39.482   6.301   7.212
 3620POPC   C1B47167  38.969   5.860   6.208
 3620POPC   C2B47168  38.936   5.669   6.613
 3620POPC   C3B47169  38.921   5.555   7.047
 3620POPC   C4B47170  38.830   5.845   7.357
 3621POPC   NC347171  34.617   9.865   5.520
 3621POPC   PO447172  34.097   9.644   5.207
 3621POPC   GL147173  34.184   9.625   5.700
 3621POPC   GL247174  34.169   9.948   5.880
 3621POPC   C1A47175  34.359   9.571   6.157
 3621POPC   D2A47176  34.548   9.547   6.541
 3621POPC   C3A47177  34.346   9.701   6.888
 3621POPC   C4A47178  34.374   9.690   7.307
 3621POPC   C1B47179  34.481  10.108   6.186
 3621POPC   C2B47180  34.700  10.056   6.602
 3621POPC   C3B47181  35.021  10.048   6.946
 3621POPC   C4B47182  34.699  10.062   7.237
 3622POPC   NC347183   1.600   1.048   5.360
 3622POPC   PO447184   1.079   1.237   5.387
 3622POPC   GL147185   1.068   1.119   5.849
 3622POPC   GL247186   1.208   0.782   5.788
 3622POPC   C1A47187   1.011   1.291   6.309
 3622POPC   D2A47188   0.955   1.188   6.771
 3622POPC   C3A47189   1.193   1.487   7.040
 3622POPC   C4A47190   1.580   1.516   7.303
 3622POPC   C1B47191   1.218   0.837   6.245
 3622POPC   C2B47192   1.421   0.995   6.640
 3622POPC   C3B47193   1.294   0.983   7.108
 3622POPC   C4B47194   0.913   0.895   7.410
 3623POPC   NC347195   9.787  19.067   5.382
 3623POPC   PO447196   9.306  19.518   5.708
 3623POPC   GL147197   9.620  19.231   5.828
 3623POPC   GL247198   9.583  18.872   5.793
 3623POPC   C1A47199   9.900  19.140   6.156
 3623POPC   D2A47200   9.894  19.387   6.533
 3623POPC   C3A47201   9.769  19.302   6.950
 3623POPC   C4A47202   9.925  19.126   7.314
 3623POPC   C1B47203   9.573  18.749   6.197
 3623POPC   C2B47204   9.666  18.902   6.618
 3623POPC   C3B47205   9.565  18.846   7.056
 3623POPC   C4B47206   9.708  18.667   7.411
 3624POPC   NC347207   7.298  12.489   5.447
 3624POPC   PO447208   7.604  13.084   5.545
 3624POPC   GL147209   7.359  12.860   5.880
 3624POPC   GL247210   7.320  12.472   5.955
 3624POPC   C1A47211   7.542  12.866   6.295
 3624POPC   D2A47212   7.496  13.103   6.670
 3624POPC   C3A47213   7.537  12.898   7.040
 3624POPC   C4A47214   7.915  13.004   7.236
 3624POPC   C1B47215   7.311  12.427   6.408
 3624POPC   C2B47216   7.514  12.447   6.800
 3624POPC   C3B47217   7.349  12.421   7.203
 3624POPC   C4B47218   7.054  12.679   7.433
 3625POPC   NC347219   5.410  27.522   5.498
 3625POPC   PO447220   6.042  27.853   5.494
 3625POPC   GL147221   5.821  27.647   5.809
 3625POPC   GL247222   6.070  27.406   5.913
 3625POPC   C1A47223   5.710  27.661   6.251
 3625POPC   D2A47224   5.615  27.472   6.637
 3625POPC   C3A47225   5.693  27.642   7.063
 3625POPC   C4A47226   5.677  27.509   7.543
 3625POPC   C1B47227   6.189  27.768   6.157
 3625POPC   C2B47228   6.073  27.823   6.587
 3625POPC   C3B47229   6.245  27.763   6.992
 3625POPC   C4B47230   6.054  27.866   7.376
 3626POPC   NC347231   7.298  27.139   5.435
 3626POPC   PO447232   7.236  26.491   5.332
 3626POPC   GL147233   7.398  26.701   5.710
 3626POPC   GL247234   7.038  26.811   5.788
 3626POPC   C1A47235   7.387  26.907   6.148
 3626POPC   D2A47236   7.172  26.843   6.556
 3626POPC   C3A47237   7.420  26.867   6.955
 3626POPC   C4A47238   7.403  26.608   7.302
 3626POPC   C1B47239   6.924  27.098   6.165
 3626POPC   C2B47240   6.964  27.304   6.586
 3626POPC   C3B47241   6.953  27.108   7.026
 3626POPC   C4B47242   7.195  27.060   7.414
 3627POPC   NC347243   1.495  36.186   5.481
 3627POPC   PO447244   0.845  35.985   5.506
 3627POPC   GL147245   1.084  36.192   5.875
 3627POPC   GL247246   1.435  36.141   5.958
 3627POPC   C1A47247   1.153  36.199   6.358
 3627POPC   D2A47248   1.113  35.903   6.703
 3627POPC   C3A47249   1.112  36.050   7.134
 3627POPC   C4A47250   1.099  36.416   7.400
 3627POPC   C1B47251   1.588  35.900   6.255
 3627POPC   C2B47252   1.594  36.053   6.632
 3627POPC   C3B47253   1.548  35.859   7.010
 3627POPC   C4B47254   1.593  35.952   7.419
 3628POPC   NC347255  10.124  41.870   5.629
 3628POPC   PO447256  10.312  41.417   5.229
 3628POPC   GL147257  10.464  41.484   5.708
 3628POPC   GL247258  10.583  41.837   5.856
 3628POPC   C1A47259  10.405  41.433   6.184
 3628POPC   D2A47260  10.460  41.199   6.599
 3628POPC   C3A47261  10.582  41.411   7.018
 3628POPC   C4A47262  11.004  41.609   7.119
 3628POPC   C1B47263  10.326  41.953   6.258
 3628POPC   C2B47264  10.153  41.730   6.655
 3628POPC   C3B47265  10.145  41.749   7.124
 3628POPC   C4B47266  10.411  41.930   7.449
 3629POPC   NC347267   3.386  37.732   5.395
 3629POPC   PO447268   3.912  37.292   5.452
 3629POPC   GL147269   3.776  37.656   5.763
 3629POPC   GL247270   3.404  37.733   5.903
 3629POPC   C1A47271   3.808  37.853   6.190
 3629POPC   D2A47272   3.495  37.835   6.525
 3629POPC   C3A47273   3.651  37.759   6.956
 3629POPC   C4A47274   3.571  37.882   7.384
 3629POPC   C1B47275   3.119  37.524   6.233
 3629POPC   C2B47276   3.123  37.523   6.691
 3629POPC   C3B47277   3.165  37.680   7.104
 3629POPC   C4B47278   3.270  37.481   7.480
 3630POPC   NC347279  23.475  11.469   5.419
 3630POPC   PO447280  24.013  11.313   5.690
 3630POPC   GL147281  23.895  11.519   6.029
 3630POPC   GL247282  23.524  11.570   6.009
 3630POPC   C1A47283  23.821  11.249   6.365
 3630POPC   D2A47284  23.933  11.007   6.703
 3630POPC   C3A47285  23.637  11.025   7.049
 3630POPC   C4A47286  23.612  11.139   7.463
 3630POPC   C1B47287  23.672  11.743   6.430
 3630POPC   C2B47288  23.990  11.580   6.742
 3630POPC   C3B47289  23.827  11.523   7.148
 3630POPC   C4B47290  23.357  11.496   7.152
 3631POPC   NC347291   6.359  28.185   5.342
 3631POPC   PO447292   6.915  28.566   5.451
 3631POPC   GL147293   6.630  28.487   5.816
 3631POPC   GL247294   6.384  28.227   5.843
 3631POPC   C1A47295   6.765  28.435   6.250
 3631POPC   D2A47296   6.701  28.619   6.668
 3631POPC   C3A47297   6.899  28.435   7.045
 3631POPC   C4A47298   6.863  28.564   7.473
 3631POPC   C1B47299   6.285  28.249   6.270
 3631POPC   C2B47300   6.491  28.141   6.614
 3631POPC   C3B47301   6.421  28.256   7.021
 3631POPC   C4B47302   6.534  28.031   7.374
 3632POPC   NC347303   7.628  26.242   5.388
 3632POPC   PO447304   7.029  25.998   5.614
 3632POPC   GL147305   7.145  26.293   5.907
 3632POPC   GL247306   7.497  26.199   5.876
 3632POPC   C1A47307   7.205  26.199   6.344
 3632POPC   D2A47308   7.346  25.810   6.548
 3632POPC   C3A47309   7.308  25.643   6.973
 3632POPC   C4A47310   7.182  25.885   7.336
 3632POPC   C1B47311   7.646  26.482   6.163
 3632POPC   C2B47312   7.545  26.494   6.600
 3632POPC   C3B47313   7.345  26.227   6.900
 3632POPC   C4B47314   7.607  26.148   7.231
 3633POPC   NC347315  42.572  34.479   5.247
 3633POPC   PO447316  42.311  35.033   5.543
 3633POPC   GL147317  42.410  34.780   5.884
 3633POPC   GL247318  42.420  34.407   5.787
 3633POPC   C1A47319  42.255  34.670   6.270
 3633POPC   D2A47320  42.285  34.426   6.607
 3633POPC   C3A47321  42.113  34.526   6.975
 3633POPC   C4A47322  42.240  34.314   7.315
 3633POPC   C1B47323  42.695  34.434   6.182
 3633POPC   C2B47324  42.713  34.713   6.553
 3633POPC   C3B47325  42.604  34.636   6.966
 3633POPC   C4B47326  42.367  34.857   7.274
 3634POPC   NC347327  14.195  15.285   5.514
 3634POPC   PO447328  14.566  14.765   5.490
 3634POPC   GL147329  14.436  14.926   5.884
 3634POPC   GL247330  14.607  15.236   5.961
 3634POPC   C1A47331  14.220  14.980   6.291
 3634POPC   D2A47332  14.352  15.041   6.738
 3634POPC   C3A47333  14.208  15.411   6.974
 3634POPC   C4A47334  13.998  15.493   7.388
 3634POPC   C1B47335  14.736  14.929   6.329
 3634POPC   C2B47336  14.886  14.971   6.766
 3634POPC   C3B47337  14.629  14.860   7.160
 3634POPC   C4B47338  14.689  14.900   7.616
 3635POPC   NC347339  26.299   1.674   5.447
 3635POPC   PO447340  25.791   2.088   5.307
 3635POPC   GL147341  25.824   1.954   5.760
 3635POPC   GL247342  26.183   1.981   5.841
 3635POPC   C1A47343  25.859   2.182   6.191
 3635POPC   D2A47344  25.819   2.367   6.612
 3635POPC   C3A47345  25.726   2.066   6.942
 3635POPC   C4A47346  25.694   2.203   7.368
 3635POPC   C1B47347  26.162   1.741   6.209
 3635POPC   C2B47348  26.176   2.014   6.557
 3635POPC   C3B47349  26.248   2.075   6.967
 3635POPC   C4B47350  26.157   1.814   7.314
 3636POPC   NC347351  36.283  19.023   5.272
 3636POPC   PO447352  35.707  19.466   5.345
 3636POPC   GL147353  35.814  19.289   5.779
 3636POPC   GL247354  35.921  18.949   5.852
 3636POPC   C1A47355  36.007  19.295   6.215
 3636POPC   D2A47356  36.245  19.436   6.566
 3636POPC   C3A47357  36.160  19.206   6.925
 3636POPC   C4A47358  36.406  18.986   7.195
 3636POPC   C1B47359  35.754  18.841   6.256
 3636POPC   C2B47360  35.940  18.794   6.635
 3636POPC   C3B47361  35.765  18.874   7.002
 3636POPC   C4B47362  35.931  18.973   7.342
 3637POPC   NC347363  31.083  44.069   5.358
 3637POPC   PO447364  31.671  44.183   5.634
 3637POPC   GL147365  31.680  43.985   5.961
 3637POPC   GL247366  31.418  43.768   5.838
 3637POPC   C1A47367  31.763  43.685   6.250
 3637POPC   D2A47368  31.530  43.821   6.579
 3637POPC   C3A47369  31.748  43.814   6.937
 3637POPC   C4A47370  31.523  43.867   7.277
 3637POPC   C1B47371  31.183  44.041   6.098
 3637POPC   C2B47372  31.102  44.197   6.508
 3637POPC   C3B47373  31.269  44.150   6.911
 3637POPC   C4B47374  31.042  44.026   7.256
 3638POPC   NC347375  42.337  23.921   5.485
 3638POPC   PO447376  42.166  23.324   5.563
 3638POPC   GL147377  42.324  23.571   5.893
 3638POPC   GL247378  42.663  23.706   5.880
 3638POPC   C1A47379  42.312  23.783   6.288
 3638POPC   D2A47380  42.207  23.901   6.708
 3638POPC   C3A47381  42.248  23.627   7.047
 3638POPC   C4A47382  42.107  23.970   7.280
 3638POPC   C1B47383  42.688  23.409   6.233
 3638POPC   C2B47384  42.599  23.540   6.653
 3638POPC   C3B47385  42.753  23.708   7.025
 3638POPC   C4B47386  42.696  23.464   7.417
 3639POPC   NC347387   8.554  23.422   5.429
 3639POPC   PO447388   8.105  24.003   5.296
 3639POPC   GL147389   8.008  23.977   5.762
 3639POPC   GL247390   7.998  23.592   5.824
 3639POPC   C1A47391   8.202  23.903   6.186
 3639POPC   D2A47392   8.417  23.598   6.440
 3639POPC   C3A47393   8.351  23.670   6.859
 3639POPC   C4A47394   8.032  23.903   7.098
 3639POPC   C1B47395   8.028  23.294   6.202
 3639POPC   C2B47396   7.805  23.272   6.604
 3639POPC   C3B47397   7.977  23.365   6.996
 3639POPC   C4B47398   7.888  23.506   7.391
 3640POPC   NC347399  27.675   0.053   5.564
 3640POPC   PO447400  27.459   0.716   5.427
 3640POPC   GL147401  27.555   0.501   5.801
 3640POPC   GL247402  27.919   0.543   5.758
 3640POPC   C1A47403  27.417   0.494   6.238
 3640POPC   D2A47404  27.353   0.684   6.648
 3640POPC   C3A47405  27.161   0.451   6.964
 3640POPC   C4A47406  27.372   0.303   7.259
 3640POPC   C1B47407  27.930   0.333   6.155
 3640POPC   C2B47408  27.923   0.180   6.576
 3640POPC   C3B47409  27.771   0.418   6.931
 3640POPC   C4B47410  28.032   0.550   7.256
 3641POPC   NC347411  12.626  28.280   5.440
 3641POPC   PO447412  13.026  28.738   5.432
 3641POPC   GL147413  12.997  28.399   5.809
 3641POPC   GL247414  12.698  28.446   5.900
 3641POPC   C1A47415  12.853  28.253   6.320
 3641POPC   D2A47416  12.535  28.193   6.670
 3641POPC   C3A47417  12.601  28.253   7.129
 3641POPC   C4A47418  12.901  28.139   7.480
 3641POPC   C1B47419  13.065  28.693   6.194
 3641POPC   C2B47420  13.261  28.539   6.575
 3641POPC   C3B47421  13.084  28.385   6.937
 3641POPC   C4B47422  12.968  28.607   7.287
 3642POPC   NC347423   3.908  14.681   5.604
 3642POPC   PO447424   3.217  14.634   5.518
 3642POPC   GL147425   3.457  14.615   5.862
 3642POPC   GL247426   3.670  14.312   5.898
 3642POPC   C1A47427   3.353  14.557   6.260
 3642POPC   D2A47428   3.530  14.415   6.606
 3642POPC   C3A47429   3.258  14.184   6.856
 3642POPC   C4A47430   3.282  14.488   7.164
 3642POPC   C1B47431   3.706  14.035   6.269
 3642POPC   C2B47432   3.736  13.980   6.725
 3642POPC   C3B47433   3.734  14.248   7.078
 3642POPC   C4B47434   3.997  14.184   7.407
 3643POPC   NC347435   2.040   8.915   5.460
 3643POPC   PO447436   1.606   9.463   5.490
 3643POPC   GL147437   1.885   9.243   5.839
 3643POPC   GL247438   1.897   8.853   5.934
 3643POPC   C1A47439   2.012   9.176   6.310
 3643POPC   D2A47440   1.830   8.977   6.679
 3643POPC   C3A47441   1.720   9.188   7.093
 3643POPC   C4A47442   1.522   9.314   7.517
 3643POPC   C1B47443   1.966   8.610   6.313
 3643POPC   C2B47444   1.923   8.486   6.748
 3643POPC   C3B47445   2.038   8.763   7.113
 3643POPC   C4B47446   2.311   8.980   7.464
 3644POPC   NC347447   7.671   8.355   5.260
 3644POPC   PO447448   7.111   8.013   5.487
 3644POPC   GL147449   7.349   7.968   5.854
 3644POPC   GL247450   7.703   8.025   5.809
 3644POPC   C1A47451   7.384   8.176   6.250
 3644POPC   D2A47452   7.136   8.118   6.624
 3644POPC   C3A47453   7.339   7.907   6.957
 3644POPC   C4A47454   7.140   8.131   7.283
 3644POPC   C1B47455   7.910   8.072   6.218
 3644POPC   C2B47456   7.777   8.114   6.643
 3644POPC   C3B47457   7.693   8.253   7.033
 3644POPC   C4B47458   7.532   8.556   7.216
 3645POPC   NC347459  24.056  28.309   5.362
 3645POPC   PO447460  23.624  28.796   5.504
 3645POPC   GL147461  23.815  28.485   5.802
 3645POPC   GL247462  24.168  28.349   5.852
 3645POPC   C1A47463  23.735  28.273   6.199
 3645POPC   D2A47464  23.405  28.292   6.525
 3645POPC   C3A47465  23.549  28.408   6.952
 3645POPC   C4A47466  23.443  28.297   7.376
 3645POPC   C1B47467  24.113  28.631   6.201
 3645POPC   C2B47468  23.925  28.585   6.603
 3645POPC   C3B47469  24.070  28.331   6.958
 3645POPC   C4B47470  23.928  28.409   7.342
 3646POPC   NC347471  31.290   2.566   5.254
 3646POPC   PO447472  31.146   3.201   5.321
 3646POPC   GL147473  31.402   2.911   5.740
 3646POPC   GL247474  31.321   2.560   5.776
 3646POPC   C1A47475  31.514   3.002   6.210
 3646POPC   D2A47476  31.689   2.912   6.655
 3646POPC   C3A47477  31.490   3.096   7.021
 3646POPC   C4A47478  31.398   2.899   7.425
 3646POPC   C1B47479  31.511   2.485   6.190
 3646POPC   C2B47480  31.382   2.409   6.628
 3646POPC   C3B47481  31.504   2.560   7.030
 3646POPC   C4B47482  31.736   2.518   7.430
 3647POPC   NC347483  31.340  14.621   5.078
 3647POPC   PO447484  31.594  14.124   5.428
 3647POPC   GL147485  31.395  14.217   5.795
 3647POPC   GL247486  31.556  14.517   5.888
 3647POPC   C1A47487  31.307  14.238   6.240
 3647POPC   D2A47488  31.568  14.377   6.583
 3647POPC   C3A47489  31.477  14.154   6.966
 3647POPC   C4A47490  31.451  14.220   7.406
 3647POPC   C1B47491  31.457  14.763   6.225
 3647POPC   C2B47492  31.360  14.864   6.637
 3647POPC   C3B47493  31.486  14.671   7.012
 3647POPC   C4B47494  31.717  14.660   7.418
 3648POPC   NC347495  33.832   1.399   5.351
 3648POPC   PO447496  33.674   0.870   5.193
 3648POPC   GL147497  33.654   1.042   5.673
 3648POPC   GL247498  33.973   1.167   5.851
 3648POPC   C1A47499  33.513   1.092   6.134
 3648POPC   D2A47500  33.697   1.079   6.588
 3648POPC   C3A47501  33.465   1.121   6.946
 3648POPC   C4A47502  33.655   1.473   7.201
 3648POPC   C1B47503  34.155   1.146   6.284
 3648POPC   C2B47504  34.224   1.088   6.747
 3648POPC   C3B47505  33.950   1.052   7.119
 3648POPC   C4B47506  33.654   1.037   7.443
 3649POPC   NC347507  17.768  16.944   5.106
 3649POPC   PO447508  17.459  16.405   5.260
 3649POPC   GL147509  17.508  16.677   5.641
 3649POPC   GL247510  17.624  17.033   5.711
 3649POPC   C1A47511  17.470  16.681   6.094
 3649POPC   D2A47512  17.455  16.513   6.532
 3649POPC   C3A47513  17.675  16.639   6.882
 3649POPC   C4A47514  17.572  16.645   7.322
 3649POPC   C1B47515  17.606  17.188   6.170
 3649POPC   C2B47516  17.653  17.119   6.632
 3649POPC   C3B47517  17.685  17.102   7.079
 3649POPC   C4B47518  17.896  17.008   7.467
 3650POPC   NC347519  38.928   1.562   5.342
 3650POPC   PO447520  38.988   0.865   5.350
 3650POPC   GL147521  39.088   1.192   5.711
 3650POPC   GL247522  39.397   1.433   5.727
 3650POPC   C1A47523  39.241   1.220   6.167
 3650POPC   D2A47524  39.326   1.026   6.574
 3650POPC   C3A47525  39.239   1.233   6.984
 3650POPC   C4A47526  39.228   1.071   7.424
 3650POPC   C1B47527  39.513   1.652   6.150
 3650POPC   C2B47528  39.469   1.514   6.595
 3650POPC   C3B47529  39.608   1.603   7.039
 3650POPC   C4B47530  39.319   1.553   7.393
 3651POPC   NC347531  35.035  25.550   5.513
 3651POPC   PO447532  35.571  25.170   5.515
 3651POPC   GL147533  35.543  25.287   5.886
 3651POPC   GL247534  35.541  25.666   5.843
 3651POPC   C1A47535  35.452  25.046   6.283
 3651POPC   D2A47536  35.226  24.959   6.699
 3651POPC   C3A47537  35.414  25.065   7.098
 3651POPC   C4A47538  35.543  24.887   7.524
 3651POPC   C1B47539  35.236  25.551   6.203
 3651POPC   C2B47540  35.004  25.422   6.583
 3651POPC   C3B47541  35.156  25.494   7.001
 3651POPC   C4B47542  35.546  25.717   7.096
 3652POPC   NC347543  18.182  35.866   5.291
 3652POPC   PO447544  18.015  36.406   5.605
 3652POPC   GL147545  18.410  36.255   5.802
 3652POPC   GL247546  18.213  35.982   5.855
 3652POPC   C1A47547  18.557  36.016   6.232
 3652POPC   D2A47548  18.518  35.867   6.690
 3652POPC   C3A47549  18.529  36.191   7.048
 3652POPC   C4A47550  18.210  36.538   7.219
 3652POPC   C1B47551  18.121  36.291   6.225
 3652POPC   C2B47552  18.297  36.351   6.616
 3652POPC   C3B47553  18.028  36.173   6.914
 3652POPC   C4B47554  17.778  36.233   7.271
 3653POPC   NC347555  25.810  12.264   5.488
 3653POPC   PO447556  26.398  12.030   5.392
 3653POPC   GL147557  26.176  12.062   5.793
 3653POPC   GL247558  25.859  11.877   5.852
 3653POPC   C1A47559  26.000  12.188   6.218
 3653POPC   D2A47560  25.956  11.899   6.561
 3653POPC   C3A47561  25.869  12.072   6.927
 3653POPC   C4A47562  26.007  12.293   7.239
 3653POPC   C1B47563  25.592  11.802   6.213
 3653POPC   C2B47564  25.526  11.644   6.651
 3653POPC   C3B47565  25.767  11.549   7.025
 3653POPC   C4B47566  25.730  11.638   7.484
 3654POPC   NC347567  36.111  42.186   5.448
 3654POPC   PO447568  36.651  42.576   5.392
 3654POPC   GL147569  36.349  42.496   5.807
 3654POPC   GL247570  35.945  42.517   5.831
 3654POPC   C1A47571  36.210  42.484   6.271
 3654POPC   D2A47572  36.281  42.645   6.665
 3654POPC   C3A47573  36.129  42.380   6.999
 3654POPC   C4A47574  36.254  42.050   7.220
 3654POPC   C1B47575  35.914  42.112   6.096
 3654POPC   C2B47576  35.940  42.011   6.555
 3654POPC   C3B47577  35.768  41.969   6.993
 3654POPC   C4B47578  35.799  42.159   7.409
 3655POPC   NC347579  26.330  31.665   5.730
 3655POPC   PO447580  26.059  32.217   5.421
 3655POPC   GL147581  26.151  32.293   5.817
 3655POPC   GL247582  26.379  32.539   5.806
 3655POPC   C1A47583  25.988  32.436   6.204
 3655POPC   D2A47584  25.874  32.212   6.574
 3655POPC   C3A47585  25.853  32.421   6.948
 3655POPC   C4A47586  25.757  32.297   7.361
 3655POPC   C1B47587  26.506  32.686   6.194
 3655POPC   C2B47588  26.336  32.579   6.583
 3655POPC   C3B47589  26.404  32.451   6.978
 3655POPC   C4B47590  26.219  32.147   7.226
 3656POPC   NC347591  15.142  37.135   5.298
 3656POPC   PO447592  15.399  36.506   5.087
 3656POPC   GL147593  15.239  36.659   5.599
 3656POPC   GL247594  15.015  36.936   5.770
 3656POPC   C1A47595  15.333  36.659   6.117
 3656POPC   D2A47596  15.147  36.548   6.571
 3656POPC   C3A47597  15.175  36.711   7.014
 3656POPC   C4A47598  15.235  36.844   7.439
 3656POPC   C1B47599  15.039  37.061   6.228
 3656POPC   C2B47600  15.116  37.091   6.691
 3656POPC   C3B47601  14.907  37.137   7.159
 3656POPC   C4B47602  14.972  37.220   7.663
 3657POPC   NC347603  18.085  18.926   5.437
 3657POPC   PO447604  18.546  19.391   5.449
 3657POPC   GL147605  18.295  19.251   5.830
 3657POPC   GL247606  18.064  18.964   5.950
 3657POPC   C1A47607  18.311  19.281   6.289
 3657POPC   D2A47608  18.529  19.038   6.622
 3657POPC   C3A47609  18.312  19.074   6.983
 3657POPC   C4A47610  18.446  19.211   7.335
 3657POPC   C1B47611  18.386  18.665   6.173
 3657POPC   C2B47612  18.534  18.456   6.582
 3657POPC   C3B47613  18.486  18.542   7.044
 3657POPC   C4B47614  18.174  18.720   7.338
 3658POPC   NC347615  39.093  43.416   5.386
 3658POPC   PO447616  39.465  42.990   5.682
 3658POPC   GL147617  39.165  43.205   5.902
 3658POPC   GL247618  39.285  43.560   5.886
 3658POPC   C1A47619  39.099  42.984   6.299
 3658POPC   D2A47620  39.376  42.706   6.550
 3658POPC   C3A47621  39.284  42.782   6.983
 3658POPC   C4A47622  39.437  42.881   7.382
 3658POPC   C1B47623  39.477  43.384   6.268
 3658POPC   C2B47624  39.446  43.196   6.662
 3658POPC   C3B47625  39.331  43.298   7.042
 3658POPC   C4B47626  39.112  43.644   7.185
 3659POPC   NC347627   7.664  30.352   5.447
 3659POPC   PO447628   7.296  30.863   5.628
 3659POPC   GL147629   7.505  30.617   5.907
 3659POPC   GL247630   7.286  30.362   5.839
 3659POPC   C1A47631   7.739  30.548   6.322
 3659POPC   D2A47632   7.825  30.724   6.772
 3659POPC   C3A47633   7.503  30.644   7.087
 3659POPC   C4A47634   7.248  30.942   7.334
 3659POPC   C1B47635   7.121  30.487   6.222
 3659POPC   C2B47636   7.298  30.519   6.619
 3659POPC   C3B47637   7.028  30.507   6.957
 3659POPC   C4B47638   7.115  30.451   7.390
 3660POPC   NC347639  29.348  30.093   5.468
 3660POPC   PO447640  29.083  29.506   5.466
 3660POPC   GL147641  29.197  29.665   5.892
 3660POPC   GL247642  29.380  29.971   5.951
 3660POPC   C1A47643  29.105  29.822   6.334
 3660POPC   D2A47644  29.363  29.940   6.666
 3660POPC   C3A47645  29.089  29.806   7.012
 3660POPC   C4A47646  29.116  29.946   7.437
 3660POPC   C1B47647  29.297  30.298   6.264
 3660POPC   C2B47648  29.124  30.414   6.644
 3660POPC   C3B47649  29.279  30.283   7.039
 3660POPC   C4B47650  29.431  30.346   7.446
 3661POPC   NC347651  18.820  10.101   5.464
 3661POPC   PO447652  19.338   9.660   5.296
 3661POPC   GL147653  19.229   9.673   5.732
 3661POPC   GL247654  19.072   9.997   5.901
 3661POPC   C1A47655  19.054   9.525   6.116
 3661POPC   D2A47656  19.067   9.757   6.489
 3661POPC   C3A47657  18.926   9.595   6.856
 3661POPC   C4A47658  19.064   9.619   7.270
 3661POPC   C1B47659  18.937  10.244   6.290
 3661POPC   C2B47660  18.981  10.366   6.722
 3661POPC   C3B47661  18.901  10.077   7.081
 3661POPC   C4B47662  18.629   9.927   7.411
 3662POPC   NC347663   9.377   5.202   5.603
 3662POPC   PO447664   8.709   5.322   5.568
 3662POPC   GL147665   8.950   5.016   5.857
 3662POPC   GL247666   9.242   4.745   5.815
 3662POPC   C1A47667   9.163   5.121   6.253
 3662POPC   D2A47668   9.075   5.329   6.625
 3662POPC   C3A47669   9.072   5.161   7.045
 3662POPC   C4A47670   8.991   5.063   7.478
 3662POPC   C1B47671   9.236   4.623   6.263
 3662POPC   C2B47672   9.294   4.814   6.690
 3662POPC   C3B47673   9.181   4.674   7.135
 3662POPC   C4B47674   8.870   4.582   7.499
 3663POPC   NC347675   5.301  39.188   5.301
 3663POPC   PO447676   5.964  39.031   5.325
 3663POPC   GL147677   5.914  39.201   5.715
 3663POPC   GL247678   5.608  39.360   5.705
 3663POPC   C1A47679   6.000  39.051   6.123
 3663POPC   D2A47680   5.892  39.219   6.528
 3663POPC   C3A47681   5.857  38.968   6.910
 3663POPC   C4A47682   5.913  39.224   7.265
 3663POPC   C1B47683   5.585  39.385   6.127
 3663POPC   C2B47684   5.524  39.595   6.516
 3663POPC   C3B47685   5.606  39.461   6.929
 3663POPC   C4B47686   5.468  39.438   7.359
 3664POPC   NC347687  17.229  21.123   5.541
 3664POPC   PO447688  17.398  21.748   5.327
 3664POPC   GL147689  17.537  21.566   5.751
 3664POPC   GL247690  17.748  21.285   5.647
 3664POPC   C1A47691  17.471  21.580   6.232
 3664POPC   D2A47692  17.489  21.741   6.691
 3664POPC   C3A47693  17.398  21.476   7.064
 3664POPC   C4A47694  17.346  21.522   7.519
 3664POPC   C1B47695  17.749  21.167   6.077
 3664POPC   C2B47696  17.695  21.222   6.532
 3664POPC   C3B47697  17.831  21.234   6.938
 3664POPC   C4B47698  17.803  21.352   7.362
 3665POPC   NC347699  35.509  28.808   5.513
 3665POPC   PO447700  35.160  29.384   5.379
 3665POPC   GL147701  35.169  29.157   5.761
 3665POPC   GL247702  35.482  29.253   5.820
 3665POPC   C1A47703  35.110  28.999   6.183
 3665POPC   D2A47704  35.236  28.944   6.616
 3665POPC   C3A47705  34.999  29.031   7.006
 3665POPC   C4A47706  35.240  29.133   7.378
 3665POPC   C1B47707  35.620  29.292   6.229
 3665POPC   C2B47708  35.609  29.304   6.646
 3665POPC   C3B47709  35.652  29.220   7.075
 3665POPC   C4B47710  35.667  29.413   7.491
 3666POPC   NC347711  38.377  42.751   5.597
 3666POPC   PO447712  38.667  43.260   5.200
 3666POPC   GL147713  38.695  43.226   5.672
 3666POPC   GL247714  38.781  43.562   5.822
 3666POPC   C1A47715  38.615  43.130   6.134
 3666POPC   D2A47716  38.285  42.955   6.450
 3666POPC   C3A47717  38.408  42.801   6.884
 3666POPC   C4A47718  38.421  42.984   7.296
 3666POPC   C1B47719  38.948  43.517   6.281
 3666POPC   C2B47720  38.922  43.286   6.698
 3666POPC   C3B47721  38.865  43.184   7.159
 3666POPC   C4B47722  38.771  43.416   7.581
 3667POPC   NC347723   8.610  31.296   5.624
 3667POPC   PO447724   9.127  31.799   5.529
 3667POPC   GL147725   9.126  31.638   5.924
 3667POPC   GL247726   8.947  31.337   6.010
 3667POPC   C1A47727   9.067  31.756   6.332
 3667POPC   D2A47728   9.040  31.488   6.669
 3667POPC   C3A47729   9.023  31.716   7.024
 3667POPC   C4A47730   9.180  31.632   7.403
 3667POPC   C1B47731   8.936  30.982   6.301
 3667POPC   C2B47732   8.917  30.966   6.756
 3667POPC   C3B47733   8.995  31.222   7.120
 3667POPC   C4B47734   8.945  31.193   7.549
 3668POPC   NC347735  20.213  33.971   5.539
 3668POPC   PO447736  19.831  33.484   5.503
 3668POPC   GL147737  19.944  33.697   5.897
 3668POPC   GL247738  19.817  34.032   5.856
 3668POPC   C1A47739  20.022  33.786   6.353
 3668POPC   D2A47740  20.224  33.691   6.765
 3668POPC   C3A47741  19.920  33.807   7.048
 3668POPC   C4A47742  19.580  33.521   7.175
 3668POPC   C1B47743  19.530  33.867   6.160
 3668POPC   C2B47744  19.526  33.708   6.558
 3668POPC   C3B47745  19.438  33.910   6.896
 3668POPC   C4B47746  19.500  34.106   7.217
 3669POPC   NC347747  17.470  43.397   5.451
 3669POPC   PO447748  17.729  42.722   5.598
 3669POPC   GL147749  17.515  43.037   5.823
 3669POPC   GL247750  17.781  43.286   5.844
 3669POPC   C1A47751  17.313  43.285   6.165
 3669POPC   D2A47752  17.448  43.447   6.589
 3669POPC   C3A47753  17.247  43.367   6.944
 3669POPC   C4A47754  17.411  43.035   7.209
 3669POPC   C1B47755  17.815  43.403   6.257
 3669POPC   C2B47756  17.952  43.203   6.638
 3669POPC   C3B47757  17.788  43.331   7.040
 3669POPC   C4B47758  17.925  43.491   7.425
 3670POPC   NC347759  27.949  36.935   5.532
 3670POPC   PO447760  27.282  37.147   5.432
 3670POPC   GL147761  27.488  36.909   5.796
 3670POPC   GL247762  27.713  37.087   5.974
 3670POPC   C1A47763  27.466  36.677   6.216
 3670POPC   D2A47764  27.620  36.466   6.619
 3670POPC   C3A47765  27.612  36.645   7.023
 3670POPC   C4A47766  27.214  36.778   7.178
 3670POPC   C1B47767  27.357  37.177   6.248
 3670POPC   C2B47768  27.345  36.998   6.657
 3670POPC   C3B47769  27.537  37.153   7.018
 3670POPC   C4B47770  27.654  37.302   7.394
 3671POPC   NC347771  38.423   5.383   5.502
 3671POPC   PO447772  38.117   4.781   5.586
 3671POPC   GL147773  38.348   5.075   5.927
 3671POPC   GL247774  38.533   5.446   5.984
 3671POPC   C1A47775  38.498   5.098   6.372
 3671POPC   D2A47776  38.758   5.198   6.717
 3671POPC   C3A47777  38.606   5.128   7.104
 3671POPC   C4A47778  38.273   4.910   7.283
 3671POPC   C1B47779  38.156   5.454   6.239
 3671POPC   C2B47780  38.070   5.223   6.633
 3671POPC   C3B47781  38.134   5.339   7.040
 3671POPC   C4B47782  38.424   5.580   7.222
 3672POPC   NC347783   2.982  36.905   5.003
 3672POPC   PO447784   2.598  36.953   5.527
 3672POPC   GL147785   2.711  36.779   5.913
 3672POPC   GL247786   2.584  36.420   5.865
 3672POPC   C1A47787   2.838  37.067   6.252
 3672POPC   D2A47788   2.705  37.223   6.669
 3672POPC   C3A47789   2.954  37.208   7.084
 3672POPC   C4A47790   2.860  37.196   7.535
 3672POPC   C1B47791   2.439  36.578   6.260
 3672POPC   C2B47792   2.726  36.708   6.585
 3672POPC   C3B47793   2.655  36.807   6.996
 3672POPC   C4B47794   2.890  36.677   7.331
 3673POPC   NC347795  20.711  30.488   5.190
 3673POPC   PO447796  20.314  31.031   5.411
 3673POPC   GL147797  20.477  30.667   5.630
 3673POPC   GL247798  20.769  30.787   5.821
 3673POPC   C1A47799  20.315  30.512   6.040
 3673POPC   D2A47800  20.380  30.804   6.381
 3673POPC   C3A47801  20.386  30.755   6.821
 3673POPC   C4A47802  20.486  31.079   7.157
 3673POPC   C1B47803  20.806  30.511   6.180
 3673POPC   C2B47804  20.834  30.654   6.595
 3673POPC   C3B47805  20.848  30.707   7.030
 3673POPC   C4B47806  20.925  30.436   7.364
 3674POPC   NC347807  24.846  31.926   5.531
 3674POPC   PO447808  24.181  32.078   5.590
 3674POPC   GL147809  24.472  32.069   5.936
 3674POPC   GL247810  24.811  32.203   5.950
 3674POPC   C1A47811  24.591  32.043   6.373
 3674POPC   D2A47812  24.629  31.987   6.786
 3674POPC   C3A47813  24.418  32.249   7.056
 3674POPC   C4A47814  24.182  32.059   7.387
 3674POPC   C1B47815  24.967  32.428   6.318
 3674POPC   C2B47816  24.929  32.396   6.771
 3674POPC   C3B47817  24.880  32.421   7.193
 3674POPC   C4B47818  24.620  32.730   7.228
 3675POPC   NC347819   9.673  12.961   5.400
 3675POPC   PO447820  10.222  12.542   5.552
 3675POPC   GL147821   9.832  12.607   5.827
 3675POPC   GL247822   9.870  12.939   5.875
 3675POPC   C1A47823   9.494  12.786   6.169
 3675POPC   D2A47824   9.419  12.983   6.587
 3675POPC   C3A47825   9.513  12.743   6.998
 3675POPC   C4A47826   9.389  12.738   7.449
 3675POPC   C1B47827   9.959  12.951   6.314
 3675POPC   C2B47828   9.931  12.913   6.745
 3675POPC   C3B47829   9.853  13.142   7.105
 3675POPC   C4B47830  10.148  12.886   7.303
 3676POPC   NC347831  31.958   4.753   5.751
 3676POPC   PO447832  31.857   4.070   5.475
 3676POPC   GL147833  32.122   4.254   5.793
 3676POPC   GL247834  32.473   4.331   5.693
 3676POPC   C1A47835  32.187   4.148   6.229
 3676POPC   D2A47836  32.360   4.118   6.647
 3676POPC   C3A47837  32.137   4.328   6.976
 3676POPC   C4A47838  32.005   3.966   7.153
 3676POPC   C1B47839  32.632   4.376   6.113
 3676POPC   C2B47840  32.464   4.583   6.452
 3676POPC   C3B47841  32.608   4.526   6.868
 3676POPC   C4B47842  32.537   4.685   7.251
 3677POPC   NC347843  16.554  27.603   5.602
 3677POPC   PO447844  17.006  27.092   5.601
 3677POPC   GL147845  16.850  27.268   5.929
 3677POPC   GL247846  17.022  27.556   5.851
 3677POPC   C1A47847  16.667  27.482   6.285
 3677POPC   D2A47848  16.609  27.597   6.716
 3677POPC   C3A47849  16.830  27.376   7.024
 3677POPC   C4A47850  16.717  27.513   7.390
 3677POPC   C1B47851  17.104  27.753   6.224
 3677POPC   C2B47852  17.085  28.125   6.484
 3677POPC   C3B47853  17.042  28.168   6.921
 3677POPC   C4B47854  17.114  27.819   7.198
 3678POPC   NC347855  16.307  21.564   5.465
 3678POPC   PO447856  16.721  21.026   5.467
 3678POPC   GL147857  16.785  21.452   5.729
 3678POPC   GL247858  16.536  21.710   5.886
 3678POPC   C1A47859  16.927  21.575   6.172
 3678POPC   D2A47860  17.091  21.382   6.543
 3678POPC   C3A47861  16.945  21.591   6.874
 3678POPC   C4A47862  16.913  21.520   7.267
 3678POPC   C1B47863  16.385  21.497   6.244
 3678POPC   C2B47864  16.536  21.396   6.635
 3678POPC   C3B47865  16.429  21.467   7.036
 3678POPC   C4B47866  16.484  21.743   7.376
 3679POPC   NC347867  24.531  27.923   5.508
 3679POPC   PO447868  24.774  27.260   5.458
 3679POPC   GL147869  24.504  27.373   5.847
 3679POPC   GL247870  24.455  27.719   5.962
 3679POPC   C1A47871  24.303  27.349   6.299
 3679POPC   D2A47872  24.455  27.262   6.724
 3679POPC   C3A47873  24.217  27.266   7.088
 3679POPC   C4A47874  24.449  27.324   7.509
 3679POPC   C1B47875  24.189  27.992   6.226
 3679POPC   C2B47876  24.348  28.068   6.617
 3679POPC   C3B47877  24.662  27.839   6.815
 3679POPC   C4B47878  24.504  27.674   7.153
 3680POPC   NC347879   3.967  40.879   5.611
 3680POPC   PO447880   3.622  40.436   5.189
 3680POPC   GL147881   3.488  40.608   5.676
 3680POPC   GL247882   3.507  40.912   5.836
 3680POPC   C1A47883   3.395  40.563   6.188
 3680POPC   D2A47884   3.196  40.810   6.582
 3680POPC   C3A47885   3.234  40.588   7.022
 3680POPC   C4A47886   3.375  40.621   7.474
 3680POPC   C1B47887   3.646  41.007   6.260
 3680POPC   C2B47888   3.716  40.774   6.653
 3680POPC   C3B47889   3.684  40.828   7.103
 3680POPC   C4B47890   3.678  41.026   7.499
 3681POPC   NC347891   5.999   4.690   5.513
 3681POPC   PO447892   5.673   5.277   5.407
 3681POPC   GL147893   6.031   5.264   5.706
 3681POPC   GL247894   5.800   5.361   5.924
 3681POPC   C1A47895   6.204   5.147   6.160
 3681POPC   D2A47896   6.250   4.826   6.525
 3681POPC   C3A47897   6.103   4.990   6.926
 3681POPC   C4A47898   6.215   5.334   7.185
 3681POPC   C1B47899   5.534   5.364   6.278
 3681POPC   C2B47900   5.649   5.519   6.687
 3681POPC   C3B47901   5.709   5.310   7.060
 3681POPC   C4B47902   5.631   4.864   7.115
 3682POPC   NC347903  34.646  26.048   5.213
 3682POPC   PO447904  35.281  25.946   5.446
 3682POPC   GL147905  35.296  26.167   5.855
 3682POPC   GL247906  35.568  26.418   5.948
 3682POPC   C1A47907  35.164  26.069   6.272
 3682POPC   D2A47908  35.299  25.875   6.658
 3682POPC   C3A47909  35.075  25.997   7.054
 3682POPC   C4A47910  35.118  25.784   7.444
 3682POPC   C1B47911  35.656  26.212   6.349
 3682POPC   C2B47912  35.811  26.288   6.785
 3682POPC   C3B47913  35.561  26.241   7.153
 3682POPC   C4B47914  35.454  26.603   7.413
 3683POPC   NC347915  29.778  32.789   5.506
 3683POPC   PO447916  30.313  33.194   5.572
 3683POPC   GL147917  30.073  32.986   5.880
 3683POPC   GL247918  29.718  33.145   5.885
 3683POPC   C1A47919  30.089  33.064   6.294
 3683POPC   D2A47920  29.838  33.114   6.607
 3683POPC   C3A47921  29.899  32.969   7.007
 3683POPC   C4A47922  29.780  33.234   7.304
 3683POPC   C1B47923  29.678  32.789   6.185
 3683POPC   C2B47924  29.708  32.609   6.577
 3683POPC   C3B47925  29.478  32.710   6.913
 3683POPC   C4B47926  29.390  32.907   7.292
 3684POPC   NC347927  10.799  27.118   5.353
 3684POPC   PO447928  10.309  26.685   5.374
 3684POPC   GL147929  10.334  26.967   5.745
 3684POPC   GL247930  10.694  27.051   5.854
 3684POPC   C1A47931  10.238  26.954   6.220
 3684POPC   D2A47932  10.415  26.882   6.656
 3684POPC   C3A47933  10.258  26.805   7.092
 3684POPC   C4A47934  10.343  26.763   7.578
 3684POPC   C1B47935  10.708  27.190   6.322
 3684POPC   C2B47936  10.829  27.162   6.768
 3684POPC   C3B47937  10.725  26.973   7.201
 3684POPC   C4B47938  10.786  27.064   7.645
 3685POPC   NC347939  43.641  26.134   5.313
 3685POPC   PO447940  44.284  26.231   5.502
 3685POPC   GL147941  43.950  26.054   5.792
 3685POPC   GL247942  43.696  26.345   5.821
 3685POPC   C1A47943  43.927  25.780   6.225
 3685POPC   D2A47944  43.703  25.680   6.652
 3685POPC   C3A47945  43.784  25.905   7.055
 3685POPC   C4A47946  43.726  25.857   7.539
 3685POPC   C1B47947  43.888  26.302   6.230
 3685POPC   C2B47948  43.741  26.204   6.616
 3685POPC   C3B47949  43.484  26.335   6.941
 3685POPC   C4B47950  43.688  26.324   7.345
 3686POPC   NC347951  43.578   4.153   5.299
 3686POPC   PO447952  44.112   4.512   5.429
 3686POPC   GL147953  44.042   4.305   5.836
 3686POPC   GL247954  43.722   4.098   5.788
 3686POPC   C1A47955  44.098   4.455   6.280
 3686POPC   D2A47956  43.950   4.240   6.642
 3686POPC   C3A47957  44.105   4.307   7.010
 3686POPC   C4A47958  44.152   4.664   7.204
 3686POPC   C1B47959  43.665   4.165   6.218
 3686POPC   C2B47960  43.443   4.158   6.632
 3686POPC   C3B47961  43.633   4.091   7.025
 3686POPC   C4B47962  43.749   4.357   7.373
 3687POPC   NC347963  16.826  10.152   5.600
 3687POPC   PO447964  16.848   9.562   5.294
 3687POPC   GL147965  16.982   9.579   5.705
 3687POPC   GL247966  16.671   9.409   5.804
 3687POPC   C1A47967  16.880   9.744   6.122
 3687POPC   D2A47968  16.685   9.669   6.512
 3687POPC   C3A47969  16.831   9.932   6.840
 3687POPC   C4A47970  17.011   9.780   7.205
 3687POPC   C1B47971  16.475   9.312   6.186
 3687POPC   C2B47972  16.534   9.187   6.615
 3687POPC   C3B47973  16.579   9.461   6.983
 3687POPC   C4B47974  16.414   9.505   7.402
 3688POPC   NC347975  42.304  32.527   5.146
 3688POPC   PO447976  42.564  33.097   5.500
 3688POPC   GL147977  42.294  33.096   5.825
 3688POPC   GL247978  42.562  33.109   6.017
 3688POPC   C1A47979  42.015  33.181   6.181
 3688POPC   D2A47980  41.763  33.238   6.565
 3688POPC   C3A47981  42.039  33.107   6.891
 3688POPC   C4A47982  42.157  33.077   7.330
 3688POPC   C1B47983  42.620  33.121   6.432
 3688POPC   C2B47984  42.548  33.058   6.866
 3688POPC   C3B47985  42.678  33.219   7.252
 3688POPC   C4B47986  42.663  33.033   7.686
 3689POPC   NC347987   2.214  15.311   5.031
 3689POPC   PO447988   1.911  15.646   5.568
 3689POPC   GL147989   1.917  15.441   5.925
 3689POPC   GL247990   1.879  15.097   5.908
 3689POPC   C1A47991   2.035  15.314   6.315
 3689POPC   D2A47992   2.128  15.048   6.595
 3689POPC   C3A47993   2.140  15.264   6.940
 3689POPC   C4A47994   1.880  15.207   7.272
 3689POPC   C1B47995   1.642  14.930   6.270
 3689POPC   C2B47996   1.398  14.840   6.656
 3689POPC   C3B47997   1.553  14.824   7.088
 3689POPC   C4B47998   1.801  14.724   7.479
 3690POPC   NC347999  16.378   0.044   5.288
 3690POPC   PO448000  16.968   0.458   5.394
 3690POPC   GL148001  16.728   0.415   5.770
 3690POPC   GL248002  16.723   0.774   5.834
 3690POPC   C1A48003  16.492   0.442   6.171
 3690POPC   D2A48004  16.725   0.423   6.542
 3690POPC   C3A48005  16.562   0.485   6.930
 3690POPC   C4A48006  16.614   0.338   7.332
 3690POPC   C1B48007  16.813   0.905   6.232
 3690POPC   C2B48008  17.020   0.822   6.617
 3690POPC   C3B48009  16.881   0.924   7.023
 3690POPC   C4B48010  16.997   0.700   7.355
 3691POPC   NC348011  11.935  30.989   5.317
 3691POPC   PO448012  12.273  30.465   5.605
 3691POPC   GL148013  12.315  30.825   5.837
 3691POPC   GL248014  12.001  30.735   5.936
 3691POPC   C1A48015  12.280  30.977   6.270
 3691POPC   D2A48016  12.108  30.806   6.641
 3691POPC   C3A48017  12.347  31.018   6.916
 3691POPC   C4A48018  12.329  30.899   7.322
 3691POPC   C1B48019  11.889  30.503   6.286
 3691POPC   C2B48020  11.781  30.400   6.684
 3691POPC   C3B48021  12.021  30.397   7.064
 3691POPC   C4B48022  12.121  30.418   7.521
 3692POPC   NC348023   4.797  43.141   5.501
 3692POPC   PO448024   5.321  42.801   5.435
 3692POPC   GL148025   5.145  42.954   5.844
 3692POPC   GL248026   5.186  43.303   5.794
 3692POPC   C1A48027   4.891  43.166   6.195
 3692POPC   D2A48028   4.890  43.250   6.646
 3692POPC   C3A48029   4.759  42.993   6.995
 3692POPC   C4A48030   5.092  42.992   7.302
 3692POPC   C1B48031   5.497  43.272   6.086
 3692POPC   C2B48032   5.393  43.242   6.496
 3692POPC   C3B48033   5.355  43.232   6.929
 3692POPC   C4B48034   5.551  43.279   7.332
 3693POPC   NC348035  13.405  21.756   5.352
 3693POPC   PO448036  13.536  21.081   5.447
 3693POPC   GL148037  13.502  21.446   5.784
 3693POPC   GL248038  13.813  21.610   5.925
 3693POPC   C1A48039  13.483  21.442   6.254
 3693POPC   D2A48040  13.709  21.154   6.499
 3693POPC   C3A48041  13.626  21.083   6.947
 3693POPC   C4A48042  13.344  21.290   7.245
 3693POPC   C1B48043  14.000  21.525   6.282
 3693POPC   C2B48044  13.791  21.661   6.638
 3693POPC   C3B48045  13.774  21.546   7.066
 3693POPC   C4B48046  13.915  21.695   7.444
 3694POPC   NC348047  10.734   1.716   5.449
 3694POPC   PO448048  10.141   1.722   5.739
 3694POPC   GL148049  10.348   1.952   6.026
 3694POPC   GL248050  10.618   2.030   5.876
 3694POPC   C1A48051  10.547   1.861   6.377
 3694POPC   D2A48052  10.503   1.490   6.606
 3694POPC   C3A48053  10.423   1.643   7.007
 3694POPC   C4A48054  10.419   2.063   7.137
 3694POPC   C1B48055  10.909   2.181   6.165
 3694POPC   C2B48056  10.853   2.271   6.578
 3694POPC   C3B48057  10.809   1.931   6.829
 3694POPC   C4B48058  10.917   2.040   7.226
 3695POPC   NC348059  19.384  25.570   5.493
 3695POPC   PO448060  18.850  25.097   5.441
 3695POPC   GL148061  19.099  25.233   5.778
 3695POPC   GL248062  18.901  25.497   5.821
 3695POPC   C1A48063  19.379  25.391   6.146
 3695POPC   D2A48064  19.300  25.553   6.561
 3695POPC   C3A48065  19.475  25.398   6.937
 3695POPC   C4A48066  19.340  25.159   7.307
 3695POPC   C1B48067  18.877  25.359   6.229
 3695POPC   C2B48068  18.789  25.507   6.593
 3695POPC   C3B48069  18.974  25.424   6.966
 3695POPC   C4B48070  18.856  25.338   7.362
 3696POPC   NC348071  29.005  41.122   5.464
 3696POPC   PO448072  29.416  41.689   5.498
 3696POPC   GL148073  29.232  41.561   5.841
 3696POPC   GL248074  28.920  41.717   5.936
 3696POPC   C1A48075  29.336  41.691   6.275
 3696POPC   D2A48076  29.317  41.365   6.570
 3696POPC   C3A48077  29.486  41.308   6.967
 3696POPC   C4A48078  29.344  41.567   7.255
 3696POPC   C1B48079  28.928  41.330   6.173
 3696POPC   C2B48080  28.816  41.197   6.554
 3696POPC   C3B48081  28.956  41.249   6.982
 3696POPC   C4B48082  28.839  41.532   7.312
 3697POPC   NC348083  29.270  20.046   5.456
 3697POPC   PO448084  28.687  19.663   5.632
 3697POPC   GL148085  29.047  19.774   5.817
 3697POPC   GL248086  28.910  20.059   5.858
 3697POPC   C1A48087  29.293  19.929   6.174
 3697POPC   D2A48088  29.314  19.734   6.576
 3697POPC   C3A48089  29.442  20.080   6.798
 3697POPC   C4A48090  29.347  20.159   7.246
 3697POPC   C1B48091  28.792  19.906   6.261
 3697POPC   C2B48092  28.951  20.114   6.598
 3697POPC   C3B48093  28.975  19.904   6.981
 3697POPC   C4B48094  28.868  20.005   7.379
 3698POPC   NC348095  21.348  10.134   5.483
 3698POPC   PO448096  21.708   9.473   5.374
 3698POPC   GL148097  21.460   9.677   5.731
 3698POPC   GL248098  21.158   9.473   5.747
 3698POPC   C1A48099  21.526   9.808   6.183
 3698POPC   D2A48100  21.701   9.992   6.578
 3698POPC   C3A48101  21.513   9.765   6.938
 3698POPC   C4A48102  21.391   9.939   7.345
 3698POPC   C1B48103  21.271   9.288   6.146
 3698POPC   C2B48104  21.242   9.445   6.552
 3698POPC   C3B48105  21.070   9.440   6.941
 3698POPC   C4B48106  21.240   9.460   7.322
 3699POPC   NC348107  20.284   4.952   5.452
 3699POPC   PO448108  19.671   5.046   5.235
 3699POPC   GL148109  19.863   5.102   5.681
 3699POPC   GL248110  19.695   5.272   5.907
 3699POPC   C1A48111  20.006   4.883   6.079
 3699POPC   D2A48112  20.059   4.938   6.530
 3699POPC   C3A48113  19.677   4.886   6.787
 3699POPC   C4A48114  19.600   4.920   7.221
 3699POPC   C1B48115  19.956   5.378   6.211
 3699POPC   C2B48116  19.821   5.383   6.621
 3699POPC   C3B48117  19.977   5.237   7.003
 3699POPC   C4B48118  19.857   5.336   7.404
 3700POPC   NC348119   3.230  28.736   5.108
 3700POPC   PO448120   3.843  28.557   5.387
 3700POPC   GL148121   3.722  28.442   5.792
 3700POPC   GL248122   3.601  28.739   5.892
 3700POPC   C1A48123   3.500  28.276   6.184
 3700POPC   D2A48124   3.304  28.408   6.579
 3700POPC   C3A48125   3.417  28.171   6.955
 3700POPC   C4A48126   3.339  28.052   7.411
 3700POPC   C1B48127   3.831  28.752   6.285
 3700POPC   C2B48128   3.699  28.770   6.714
 3700POPC   C3B48129   3.768  28.521   7.073
 3700POPC   C4B48130   3.737  28.559   7.518
 3701POPC   NC348131  24.435  18.954   5.355
 3701POPC   PO448132  24.572  19.515   5.627
 3701POPC   GL148133  24.564  19.192   5.935
 3701POPC   GL248134  24.871  18.961   5.930
 3701POPC   C1A48135  24.450  19.145   6.390
 3701POPC   D2A48136  24.687  18.991   6.761
 3701POPC   C3A48137  24.390  18.947   7.078
 3701POPC   C4A48138  24.030  19.091   7.259
 3701POPC   C1B48139  24.931  19.240   6.322
 3701POPC   C2B48140  24.755  19.488   6.693
 3701POPC   C3B48141  24.597  19.406   7.106
 3701POPC   C4B48142  24.562  19.212   7.514
 3702POPC   NC348143  12.083   3.978   5.676
 3702POPC   PO448144  11.722   3.465   5.394
 3702POPC   GL148145  11.878   3.521   5.829
 3702POPC   GL248146  12.247   3.538   5.856
 3702POPC   C1A48147  11.808   3.699   6.258
 3702POPC   D2A48148  11.765   3.496   6.671
 3702POPC   C3A48149  11.904   3.680   7.043
 3702POPC   C4A48150  11.870   3.527   7.489
 3702POPC   C1B48151  12.330   3.788   6.238
 3702POPC   C2B48152  12.210   3.751   6.620
 3702POPC   C3B48153  12.436   3.691   6.949
 3702POPC   C4B48154  12.348   3.771   7.331
 3703POPC   NC348155   7.032  17.364   5.631
 3703POPC   PO448156   6.506  17.858   5.536
 3703POPC   GL148157   6.554  17.628   5.910
 3703POPC   GL248158   6.568  17.277   5.912
 3703POPC   C1A48159   6.843  17.601   6.248
 3703POPC   D2A48160   6.966  17.837   6.590
 3703POPC   C3A48161   6.889  17.602   6.989
 3703POPC   C4A48162   6.838  17.860   7.317
 3703POPC   C1B48163   6.403  17.330   6.325
 3703POPC   C2B48164   6.506  17.655   6.646
 3703POPC   C3B48165   6.377  17.693   7.084
 3703POPC   C4B48166   6.241  17.287   7.164
 3704POPC   NC348167   8.456   4.935   5.464
 3704POPC   PO448168   7.869   5.244   5.476
 3704POPC   GL148169   8.071   5.066   5.827
 3704POPC   GL248170   8.424   5.093   5.954
 3704POPC   C1A48171   7.951   4.991   6.242
 3704POPC   D2A48172   8.168   4.807   6.561
 3704POPC   C3A48173   8.207   5.012   6.954
 3704POPC   C4A48174   7.970   5.060   7.311
 3704POPC   C1B48175   8.674   4.859   6.267
 3704POPC   C2B48176   8.782   4.873   6.701
 3704POPC   C3B48177   8.667   4.850   7.119
 3704POPC   C4B48178   8.479   5.048   7.491
 3705POPC   NC348179  28.066   4.275   5.306
 3705POPC   PO448180  28.573   4.675   5.470
 3705POPC   GL148181  28.465   4.415   5.806
 3705POPC   GL248182  28.690   4.144   5.897
 3705POPC   C1A48183  28.406   4.368   6.248
 3705POPC   D2A48184  28.550   4.289   6.623
 3705POPC   C3A48185  28.197   4.382   6.865
 3705POPC   C4A48186  28.220   4.479   7.283
 3705POPC   C1B48187  28.653   3.905   6.276
 3705POPC   C2B48188  28.663   3.783   6.692
 3705POPC   C3B48189  28.518   4.043   7.064
 3705POPC   C4B48190  28.572   4.074   7.517
 3706POPC   NC348191  33.413  40.769   5.431
 3706POPC   PO448192  34.003  40.411   5.486
 3706POPC   GL148193  33.732  40.547   5.849
 3706POPC   GL248194  33.632  40.922   5.886
 3706POPC   C1A48195  33.826  40.628   6.293
 3706POPC   D2A48196  33.720  40.842   6.675
 3706POPC   C3A48197  33.981  40.764   6.996
 3706POPC   C4A48198  33.880  40.611   7.355
 3706POPC   C1B48199  33.754  41.155   6.274
 3706POPC   C2B48200  34.069  41.319   6.578
 3706POPC   C3B48201  33.881  41.259   6.996
 3706POPC   C4B48202  33.558  40.979   7.184
 3707POPC   NC348203  44.405  43.511   5.679
 3707POPC   PO448204   0.005  43.647   5.464
 3707POPC   GL148205  44.757  43.855   5.792
 3707POPC   GL248206  44.708  44.210   5.702
 3707POPC   C1A48207  44.597  43.804   6.245
 3707POPC   D2A48208  44.790  43.543   6.544
 3707POPC   C3A48209  44.768  43.783   6.896
 3707POPC   C4A48210  44.956  43.867   7.314
 3707POPC   C1B48211  44.885  44.202   6.122
 3707POPC   C2B48212  44.822  44.225   6.559
 3707POPC   C3B48213  44.830  44.268   7.004
 3707POPC   C4B48214  44.609  44.263   7.381
 3708POPC   NC348215  26.459  36.420   5.368
 3708POPC   PO448216  25.782  36.540   5.647
 3708POPC   GL148217  26.076  36.283   5.857
 3708POPC   GL248218  26.365  36.111   5.766
 3708POPC   C1A48219  26.117  35.991   6.211
 3708POPC   D2A48220  25.807  35.982   6.545
 3708POPC   C3A48221  25.956  35.928   6.945
 3708POPC   C4A48222  25.687  35.937   7.316
 3708POPC   C1B48223  26.480  36.355   6.165
 3708POPC   C2B48224  26.267  36.334   6.588
 3708POPC   C3B48225  26.427  36.198   6.992
 3708POPC   C4B48226  26.475  36.393   7.375
 3709POPC   NC348227  13.017   5.481   5.592
 3709POPC   PO448228  12.868   4.787   5.456
 3709POPC   GL148229  12.634   5.066   5.761
 3709POPC   GL248230  12.608   4.751   5.944
 3709POPC   C1A48231  12.556   5.298   6.180
 3709POPC   D2A48232  12.577   5.227   6.629
 3709POPC   C3A48233  12.840   5.502   6.889
 3709POPC   C4A48234  12.911   5.411   7.327
 3709POPC   C1B48235  12.977   5.002   6.129
 3709POPC   C2B48236  13.108   5.041   6.568
 3709POPC   C3B48237  12.930   5.012   6.993
 3709POPC   C4B48238  13.039   4.940   7.422
 3710POPC   NC348239  15.320  42.000   5.396
 3710POPC   PO448240  14.862  42.453   5.661
 3710POPC   GL148241  15.263  42.413   5.857
 3710POPC   GL248242  15.188  42.100   5.953
 3710POPC   C1A48243  15.493  42.336   6.264
 3710POPC   D2A48244  15.403  42.555   6.642
 3710POPC   C3A48245  15.485  42.390   7.054
 3710POPC   C4A48246  15.234  42.612   7.382
 3710POPC   C1B48247  14.982  42.349   6.290
 3710POPC   C2B48248  14.868  42.595   6.612
 3710POPC   C3B48249  14.957  42.486   6.995
 3710POPC   C4B48250  15.083  42.109   7.209
 3711POPC   NC348251   1.554  28.950   5.600
 3711POPC   PO448252   2.105  29.224   5.427
 3711POPC   GL148253   2.085  28.991   5.788
 3711POPC   GL248254   2.439  29.047   5.810
 3711POPC   C1A48255   2.009  29.089   6.222
 3711POPC   D2A48256   1.816  29.065   6.627
 3711POPC   C3A48257   2.061  29.141   6.969
 3711POPC   C4A48258   2.075  29.193   7.404
 3711POPC   C1B48259   2.415  28.769   6.157
 3711POPC   C2B48260   2.173  28.690   6.502
 3711POPC   C3B48261   2.318  28.723   6.921
 3711POPC   C4B48262   2.414  28.793   7.318
 3712POPC   NC348263  17.322  15.409   5.609
 3712POPC   PO448264  17.790  15.047   5.396
 3712POPC   GL148265  17.642  15.140   5.861
 3712POPC   GL248266  17.325  15.078   6.056
 3712POPC   C1A48267  17.726  15.298   6.270
 3712POPC   D2A48268  17.566  15.128   6.661
 3712POPC   C3A48269  17.749  15.217   7.070
 3712POPC   C4A48270  17.727  14.944   7.410
 3712POPC   C1B48271  17.147  15.433   6.274
 3712POPC   C2B48272  17.073  15.558   6.700
 3712POPC   C3B48273  17.227  15.504   7.126
 3712POPC   C4B48274  17.444  15.354   7.496
 3713POPC   NC348275  42.615  23.175   5.577
 3713POPC   PO448276  42.224  22.665   5.324
 3713POPC   GL148277  42.264  22.825   5.746
 3713POPC   GL248278  42.596  22.683   5.777
 3713POPC   C1A48279  42.242  23.039   6.178
 3713POPC   D2A48280  42.230  22.849   6.597
 3713POPC   C3A48281  42.120  23.089   6.957
 3713POPC   C4A48282  42.531  23.165   7.048
 3713POPC   C1B48283  42.442  22.550   6.201
 3713POPC   C2B48284  42.449  22.362   6.633
 3713POPC   C3B48285  42.466  22.490   7.102
 3713POPC   C4B48286  42.442  22.573   7.588
 3714POPC   NC348287  35.905  22.392   5.354
 3714POPC   PO448288  36.407  21.928   5.358
 3714POPC   GL148289  36.112  22.006   5.715
 3714POPC   GL248290  36.211  22.317   5.750
 3714POPC   C1A48291  36.033  21.862   6.173
 3714POPC   D2A48292  35.965  21.644   6.588
 3714POPC   C3A48293  36.061  21.909   6.959
 3714POPC   C4A48294  35.864  22.078   7.326
 3714POPC   C1B48295  36.104  22.381   6.153
 3714POPC   C2B48296  36.252  22.191   6.537
 3714POPC   C3B48297  36.425  22.334   6.912
 3714POPC   C4B48298  36.286  22.444   7.306
 3715POPC   NC348299  43.681  43.755   5.484
 3715POPC   PO448300  44.391  43.917   5.419
 3715POPC   GL148301  44.088  43.895   5.762
 3715POPC   GL248302  44.278  44.070   5.943
 3715POPC   C1A48303  44.004  43.702   6.205
 3715POPC   D2A48304  44.111  43.633   6.666
 3715POPC   C3A48305  43.840  43.807   7.000
 3715POPC   C4A48306  43.659  44.084   7.318
 3715POPC   C1B48307  44.389  44.300   6.294
 3715POPC   C2B48308  44.351  44.086   6.678
 3715POPC   C3B48309  44.323  43.967   7.083
 3715POPC   C4B48310  44.141  44.071   7.460
 3716POPC   NC348311  39.825  16.482   5.493
 3716POPC   PO448312  40.215  16.997   5.266
 3716POPC   GL148313  39.959  16.965   5.750
 3716POPC   GL248314  40.021  16.673   5.974
 3716POPC   C1A48315  39.853  17.094   6.203
 3716POPC   D2A48316  40.015  17.017   6.654
 3716POPC   C3A48317  39.786  16.917   7.065
 3716POPC   C4A48318  39.780  16.982   7.553
 3716POPC   C1B48319  40.101  16.420   6.377
 3716POPC   C2B48320  40.008  16.487   6.838
 3716POPC   C3B48321  40.078  16.293   7.240
 3716POPC   C4B48322  40.347  16.318   7.587
 3717POPC   NC348323  37.605  35.517   5.276
 3717POPC   PO448324  38.132  35.762   5.549
 3717POPC   GL148325  37.748  35.649   5.763
 3717POPC   GL248326  37.631  35.284   5.735
 3717POPC   C1A48327  37.663  35.579   6.201
 3717POPC   D2A48328  37.866  35.499   6.606
 3717POPC   C3A48329  37.847  35.778   6.956
 3717POPC   C4A48330  37.733  35.596   7.349
 3717POPC   C1B48331  37.824  35.088   6.107
 3717POPC   C2B48332  37.820  34.981   6.550
 3717POPC   C3B48333  37.698  35.126   6.986
 3717POPC   C4B48334  37.573  35.090   7.428
 3718POPC   NC348335   0.071   7.090   5.636
 3718POPC   PO448336   0.283   6.459   5.385
 3718POPC   GL148337   0.331   6.642   5.781
 3718POPC   GL248338   0.672   6.511   5.825
 3718POPC   C1A48339   0.353   6.595   6.207
 3718POPC   D2A48340   0.627   6.398   6.459
 3718POPC   C3A48341   0.481   6.590   6.824
 3718POPC   C4A48342   0.575   6.419   7.206
 3718POPC   C1B48343   0.846   6.790   6.184
 3718POPC   C2B48344   0.938   6.783   6.625
 3718POPC   C3B48345   0.897   6.790   7.055
 3718POPC   C4B48346   0.503   6.946   7.215
 3719POPC   NC348347   0.009   0.739   5.653
 3719POPC   PO448348   0.411   0.268   5.345
 3719POPC   GL148349   0.444   0.478   5.811
 3719POPC   GL248350   0.763   0.574   6.011
 3719POPC   C1A48351   0.280   0.601   6.256
 3719POPC   D2A48352   0.172   0.773   6.682
 3719POPC   C3A48353   0.307   0.612   7.062
 3719POPC   C4A48354   0.241   0.443   7.452
 3719POPC   C1B48355   0.655   0.244   6.276
 3719POPC   C2B48356   0.664   0.402   6.675
 3719POPC   C3B48357   0.792   0.710   6.947
 3719POPC   C4B48358   0.746   0.451   7.310
 3720POPC   NC348359  16.315  37.200   5.494
 3720POPC   PO448360  15.675  36.974   5.556
 3720POPC   GL148361  15.944  37.012   5.849
 3720POPC   GL248362  16.231  36.781   5.781
 3720POPC   C1A48363  15.865  36.710   6.166
 3720POPC   D2A48364  15.670  36.579   6.559
 3720POPC   C3A48365  15.672  36.878   6.940
 3720POPC   C4A48366  15.751  37.040   7.379
 3720POPC   C1B48367  16.329  36.990   6.169
 3720POPC   C2B48368  16.141  36.870   6.547
 3720POPC   C3B48369  16.204  36.894   6.950
 3720POPC   C4B48370  16.221  37.188   7.278
 3721POPC   NC348371   7.402  42.926   5.595
 3721POPC   PO448372   7.634  43.531   5.493
 3721POPC   GL148373   7.424  43.372   5.874
 3721POPC   GL248374   7.666  43.109   5.976
 3721POPC   C1A48375   7.351  43.284   6.324
 3721POPC   D2A48376   7.217  43.087   6.717
 3721POPC   C3A48377   7.430  43.321   7.070
 3721POPC   C4A48378   7.656  43.304   7.475
 3721POPC   C1B48379   7.610  42.827   6.327
 3721POPC   C2B48380   7.884  42.823   6.669
 3721POPC   C3B48381   7.796  42.946   7.093
 3721POPC   C4B48382   7.859  42.820   7.531
 3722POPC   NC348383   6.341  12.298   5.545
 3722POPC   PO448384   6.894  12.534   5.208
 3722POPC   GL148385   6.868  12.337   5.703
 3722POPC   GL248386   6.699  12.044   5.887
 3722POPC   C1A48387   6.823  12.410   6.215
 3722POPC   D2A48388   6.580  12.398   6.659
 3722POPC   C3A48389   6.850  12.375   7.025
 3722POPC   C4A48390   6.878  12.183   7.436
 3722POPC   C1B48391   6.528  12.001   6.316
 3722POPC   C2B48392   6.581  11.726   6.690
 3722POPC   C3B48393   6.620  11.881   7.104
 3722POPC   C4B48394   6.379  12.261   7.238
 3723POPC   NC348395  35.936  23.452   5.236
 3723POPC   PO448396  36.320  23.960   5.405
 3723POPC   GL148397  36.057  23.807   5.716
 3723POPC   GL248398  36.365  23.739   5.873
 3723POPC   C1A48399  35.947  23.707   6.166
 3723POPC   D2A48400  35.785  23.527   6.526
 3723POPC   C3A48401  35.933  23.616   6.932
 3723POPC   C4A48402  35.847  23.983   7.187
 3723POPC   C1B48403  36.442  23.550   6.232
 3723POPC   C2B48404  36.334  23.736   6.570
 3723POPC   C3B48405  36.562  23.824   6.896
 3723POPC   C4B48406  36.325  23.768   7.230
 3724POPC   NC348407  30.799   6.060   5.447
 3724POPC   PO448408  30.734   5.467   5.754
 3724POPC   GL148409  30.550   5.855   5.894
 3724POPC   GL248410  30.827   6.045   5.944
 3724POPC   C1A48411  30.520   6.083   6.329
 3724POPC   D2A48412  30.492   6.290   6.733
 3724POPC   C3A48413  30.742   6.074   7.039
 3724POPC   C4A48414  30.555   5.862   7.394
 3724POPC   C1B48415  30.915   5.756   6.300
 3724POPC   C2B48416  31.051   5.639   6.708
 3724POPC   C3B48417  30.959   5.604   7.147
 3724POPC   C4B48418  31.060   5.924   7.434
 3725POPC   NC348419  15.279  26.549   5.467
 3725POPC   PO448420  15.176  27.187   5.420
 3725POPC   GL148421  15.312  26.958   5.801
 3725POPC   GL248422  15.082  26.675   5.909
 3725POPC   C1A48423  15.373  26.919   6.252
 3725POPC   D2A48424  15.152  27.021   6.654
 3725POPC   C3A48425  15.231  26.645   6.904
 3725POPC   C4A48426  15.507  26.445   7.237
 3725POPC   C1B48427  14.929  26.665   6.343
 3725POPC   C2B48428  14.632  26.917   6.612
 3725POPC   C3B48429  14.660  27.022   7.050
 3725POPC   C4B48430  15.035  26.997   7.264
 3726POPC   NC348431  19.505  12.223   5.185
 3726POPC   PO448432  20.002  11.971   5.482
 3726POPC   GL148433  19.927  11.955   5.878
 3726POPC   GL248434  19.567  11.944   5.914
 3726POPC   C1A48435  19.973  12.103   6.280
 3726POPC   D2A48436  20.227  12.128   6.661
 3726POPC   C3A48437  19.986  12.169   6.998
 3726POPC   C4A48438  20.137  11.924   7.319
 3726POPC   C1B48439  19.454  12.210   6.247
 3726POPC   C2B48440  19.566  12.308   6.658
 3726POPC   C3B48441  19.426  12.327   7.072
 3726POPC   C4B48442  19.677  12.187   7.418
 3727POPC   NC348443  21.437   3.619   5.406
 3727POPC   PO448444  20.973   4.008   5.422
 3727POPC   GL148445  21.203   3.838   5.822
 3727POPC   GL248446  21.588   3.820   5.839
 3727POPC   C1A48447  21.364   3.863   6.286
 3727POPC   D2A48448  21.082   3.698   6.568
 3727POPC   C3A48449  21.158   3.399   6.885
 3727POPC   C4A48450  21.280   3.526   7.250
 3727POPC   C1B48451  21.416   3.417   6.054
 3727POPC   C2B48452  21.493   3.386   6.508
 3727POPC   C3B48453  21.524   3.749   6.833
 3727POPC   C4B48454  21.732   3.771   7.242
 3728POPC   NC348455  13.336  29.987   5.375
 3728POPC   PO448456  12.752  30.247   5.249
 3728POPC   GL148457  12.878  29.986   5.626
 3728POPC   GL248458  13.137  30.058   5.857
 3728POPC   C1A48459  12.714  29.910   6.094
 3728POPC   D2A48460  12.710  30.006   6.561
 3728POPC   C3A48461  12.742  29.679   6.911
 3728POPC   C4A48462  12.625  29.766   7.346
 3728POPC   C1B48463  13.062  30.284   6.266
 3728POPC   C2B48464  13.009  30.415   6.708
 3728POPC   C3B48465  12.836  30.168   7.061
 3728POPC   C4B48466  12.971  30.122   7.478
 3729POPC   NC348467  44.989  22.567   5.106
 3729POPC   PO448468  44.525  22.864   5.386
 3729POPC   GL148469  44.565  22.834   5.844
 3729POPC   GL248470  44.417  22.499   5.900
 3729POPC   C1A48471  44.573  23.091   6.247
 3729POPC   D2A48472  44.639  23.277   6.668
 3729POPC   C3A48473  44.597  23.025   7.016
 3729POPC   C4A48474  44.945  22.921   7.294
 3729POPC   C1B48475  44.534  22.538   6.312
 3729POPC   C2B48476  44.686  22.584   6.749
 3729POPC   C3B48477  44.632  22.523   7.191
 3729POPC   C4B48478  44.642  22.619   7.638
 3730POPC   NC348479  40.178  18.308   5.402
 3730POPC   PO448480  39.708  17.742   5.302
 3730POPC   GL148481  39.786  17.880   5.733
 3730POPC   GL248482  39.765  18.244   5.733
 3730POPC   C1A48483  40.020  17.989   6.131
 3730POPC   D2A48484  39.886  18.166   6.534
 3730POPC   C3A48485  40.018  17.998   6.907
 3730POPC   C4A48486  40.196  18.148   7.252
 3730POPC   C1B48487  39.924  18.499   6.086
 3730POPC   C2B48488  39.921  18.670   6.494
 3730POPC   C3B48489  39.960  18.577   6.923
 3730POPC   C4B48490  40.313  18.651   7.163
 3731POPC   NC348491  30.631  36.527   5.630
 3731POPC   PO448492  30.375  35.900   5.358
 3731POPC   GL148493  30.462  36.075   5.801
 3731POPC   GL248494  30.826  36.110   5.854
 3731POPC   C1A48495  30.488  35.982   6.231
 3731POPC   D2A48496  30.485  36.262   6.551
 3731POPC   C3A48497  30.550  36.057   6.891
 3731POPC   C4A48498  30.576  36.006   7.302
 3731POPC   C1B48499  30.973  36.214   6.268
 3731POPC   C2B48500  31.042  36.109   6.687
 3731POPC   C3B48501  30.968  36.274   7.068
 3731POPC   C4B48502  31.216  36.519   7.348
 3732POPC   NC348503  19.998  34.800   5.395
 3732POPC   PO448504  19.297  34.766   5.472
 3732POPC   GL148505  19.662  34.829   5.768
 3732POPC   GL248506  19.919  34.550   5.837
 3732POPC   C1A48507  19.858  34.977   6.153
 3732POPC   D2A48508  19.891  34.733   6.545
 3732POPC   C3A48509  19.862  34.866   6.971
 3732POPC   C4A48510  20.084  34.724   7.381
 3732POPC   C1B48511  19.975  34.318   6.235
 3732POPC   C2B48512  19.738  34.234   6.624
 3732POPC   C3B48513  19.906  34.349   7.043
 3732POPC   C4B48514  20.163  34.213   7.398
 3733POPC   NC348515  10.660   6.986   5.130
 3733POPC   PO448516  10.207   6.542   5.563
 3733POPC   GL148517  10.413   6.658   5.932
 3733POPC   GL248518  10.785   6.634   5.833
 3733POPC   C1A48519  10.387   6.675   6.380
 3733POPC   D2A48520  10.390   6.458   6.751
 3733POPC   C3A48521  10.626   6.571   7.052
 3733POPC   C4A48522  10.378   6.836   7.280
 3733POPC   C1B48523  10.793   6.936   6.187
 3733POPC   C2B48524  10.803   6.867   6.631
 3733POPC   C3B48525  10.803   7.051   7.036
 3733POPC   C4B48526  10.890   7.114   7.468
 3734POPC   NC348527  12.769  22.397   5.368
 3734POPC   PO448528  12.755  23.106   5.397
 3734POPC   GL148529  12.934  22.990   5.785
 3734POPC   GL248530  13.254  22.800   5.815
 3734POPC   C1A48531  12.960  23.031   6.215
 3734POPC   D2A48532  12.865  22.847   6.600
 3734POPC   C3A48533  12.836  23.046   6.970
 3734POPC   C4A48534  12.682  22.944   7.370
 3734POPC   C1B48535  13.214  22.573   6.242
 3734POPC   C2B48536  13.339  22.647   6.655
 3734POPC   C3B48537  13.144  22.591   7.067
 3734POPC   C4B48538  13.262  22.300   7.397
 3735POPC   NC348539   7.638  41.955   5.552
 3735POPC   PO448540   7.498  42.573   5.312
 3735POPC   GL148541   7.291  42.405   5.687
 3735POPC   GL248542   7.043  42.638   5.803
 3735POPC   C1A48543   7.379  42.371   6.156
 3735POPC   D2A48544   7.702  42.345   6.537
 3735POPC   C3A48545   7.628  42.136   6.959
 3735POPC   C4A48546   7.813  42.196   7.368
 3735POPC   C1B48547   7.079  42.802   6.211
 3735POPC   C2B48548   7.139  42.579   6.575
 3735POPC   C3B48549   7.431  42.636   6.882
 3735POPC   C4B48550   7.498  42.570   7.291
 3736POPC   NC348551  25.065  34.267   5.480
 3736POPC   PO448552  25.065  34.899   5.553
 3736POPC   GL148553  25.411  34.649   5.748
 3736POPC   GL248554  25.478  34.272   5.797
 3736POPC   C1A48555  25.448  34.643   6.181
 3736POPC   D2A48556  25.110  34.726   6.451
 3736POPC   C3A48557  25.217  34.677   6.890
 3736POPC   C4A48558  25.514  34.652   7.196
 3736POPC   C1B48559  25.177  34.222   6.135
 3736POPC   C2B48560  25.253  34.240   6.561
 3736POPC   C3B48561  25.156  34.184   6.966
 3736POPC   C4B48562  25.430  34.143   7.296
 3737POPC   NC348563  16.479  20.928   5.089
 3737POPC   PO448564  16.619  20.415   5.511
 3737POPC   GL148565  16.664  20.710   5.895
 3737POPC   GL248566  16.473  21.093   5.916
 3737POPC   C1A48567  16.598  20.511   6.285
 3737POPC   D2A48568  16.804  20.429   6.663
 3737POPC   C3A48569  16.607  20.602   7.025
 3737POPC   C4A48570  16.981  20.631   7.212
 3737POPC   C1B48571  16.697  21.072   6.256
 3737POPC   C2B48572  16.608  20.905   6.622
 3737POPC   C3B48573  16.863  21.064   6.929
 3737POPC   C4B48574  16.661  21.078   7.267
 3738POPC   NC348575  36.359  26.417   5.417
 3738POPC   PO448576  36.271  25.810   5.447
 3738POPC   GL148577  36.034  25.900   5.820
 3738POPC   GL248578  36.045  26.240   5.884
 3738POPC   C1A48579  36.074  25.913   6.282
 3738POPC   D2A48580  35.834  25.808   6.648
 3738POPC   C3A48581  36.081  25.741   6.957
 3738POPC   C4A48582  36.013  25.939   7.293
 3738POPC   C1B48583  36.100  26.463   6.310
 3738POPC   C2B48584  36.306  26.445   6.736
 3738POPC   C3B48585  36.199  26.442   7.199
 3738POPC   C4B48586  36.307  26.474   7.648
 3739POPC   NC348587  24.024   7.294   5.377
 3739POPC   PO448588  24.575   7.713   5.413
 3739POPC   GL148589  24.378   7.465   5.728
 3739POPC   GL248590  24.053   7.608   5.794
 3739POPC   C1A48591  24.475   7.413   6.169
 3739POPC   D2A48592  24.697   7.245   6.537
 3739POPC   C3A48593  24.493   7.023   6.881
 3739POPC   C4A48594  24.430   7.202   7.264
 3739POPC   C1B48595  24.019   7.697   6.234
 3739POPC   C2B48596  24.236   7.853   6.596
 3739POPC   C3B48597  24.339   7.657   6.983
 3739POPC   C4B48598  24.049   7.529   7.315
 3740POPC   NC348599  37.591   0.532   5.078
 3740POPC   PO448600  37.921   0.218   5.577
 3740POPC   GL148601  37.682   0.443   5.870
 3740POPC   GL248602  37.880   0.736   6.000
 3740POPC   C1A48603  37.436   0.625   6.220
 3740POPC   D2A48604  37.403   0.408   6.611
 3740POPC   C3A48605  37.634   0.526   6.999
 3740POPC   C4A48606  37.444   0.445   7.368
 3740POPC   C1B48607  37.894   0.395   6.324
 3740POPC   C2B48608  37.950   0.222   6.709
 3740POPC   C3B48609  38.158   0.367   7.032
 3740POPC   C4B48610  38.099   0.778   7.238
 3741POPC   NC348611  12.157  16.050   5.553
 3741POPC   PO448612  12.113  15.380   5.375
 3741POPC   GL148613  12.119  15.562   5.820
 3741POPC   GL248614  12.087  15.892   6.014
 3741POPC   C1A48615  12.253  15.495   6.264
 3741POPC   D2A48616  12.229  15.841   6.553
 3741POPC   C3A48617  12.170  15.667   6.961
 3741POPC   C4A48618  12.115  15.875   7.322
 3741POPC   C1B48619  12.315  16.247   6.183
 3741POPC   C2B48620  12.346  16.418   6.578
 3741POPC   C3B48621  12.239  16.215   6.946
 3741POPC   C4B48622  12.201  16.379   7.363
 3742POPC   NC348623  31.927   5.045   5.253
 3742POPC   PO448624  32.397   4.885   5.685
 3742POPC   GL148625  32.291   5.190   5.956
 3742POPC   GL248626  31.982   5.246   5.807
 3742POPC   C1A48627  32.191   5.093   6.403
 3742POPC   D2A48628  32.011   4.762   6.681
 3742POPC   C3A48629  32.122   4.904   7.079
 3742POPC   C4A48630  32.486   5.198   7.201
 3742POPC   C1B48631  31.906   5.486   6.174
 3742POPC   C2B48632  32.082   5.599   6.551
 3742POPC   C3B48633  32.111   5.435   6.949
 3742POPC   C4B48634  32.096   5.646   7.336
 3743POPC   NC348635  10.492  17.892   5.435
 3743POPC   PO448636  10.647  17.197   5.394
 3743POPC   GL148637  10.505  17.451   5.710
 3743POPC   GL248638  10.820  17.582   5.738
 3743POPC   C1A48639  10.470  17.686   6.119
 3743POPC   D2A48640  10.282  17.702   6.535
 3743POPC   C3A48641  10.529  17.770   6.927
 3743POPC   C4A48642  10.337  17.547   7.225
 3743POPC   C1B48643  10.945  17.509   6.172
 3743POPC   C2B48644  10.763  17.475   6.589
 3743POPC   C3B48645  10.726  17.283   7.022
 3743POPC   C4B48646  10.720  17.310   7.503
 3744POPC   NC348647  38.434   3.614   5.401
 3744POPC   PO448648  38.198   2.966   5.284
 3744POPC   GL148649  38.438   3.168   5.729
 3744POPC   GL248650  38.435   3.532   5.889
 3744POPC   C1A48651  38.474   3.205   6.260
 3744POPC   D2A48652  38.433   3.107   6.719
 3744POPC   C3A48653  38.618   3.429   7.007
 3744POPC   C4A48654  38.574   3.744   7.332
 3744POPC   C1B48655  38.186   3.674   6.261
 3744POPC   C2B48656  38.238   3.666   6.711
 3744POPC   C3B48657  38.090   3.833   7.104
 3744POPC   C4B48658  37.969   4.127   7.442
 3745POPC   NC348659  28.053   5.874   5.602
 3745POPC   PO448660  27.370   5.903   5.540
 3745POPC   GL148661  27.618   5.800   5.873
 3745POPC   GL248662  27.779   5.469   5.780
 3745POPC   C1A48663  27.525   5.944   6.295
 3745POPC   D2A48664  27.184   5.859   6.585
 3745POPC   C3A48665  27.306   5.752   7.010
 3745POPC   C4A48666  27.421   6.009   7.369
 3745POPC   C1B48667  27.899   5.550   6.239
 3745POPC   C2B48668  27.704   5.609   6.657
 3745POPC   C3B48669  27.815   5.710   7.078
 3745POPC   C4B48670  28.058   6.060   7.200
 3746POPC   NC348671  26.555  13.981   5.507
 3746POPC   PO448672  27.055  14.452   5.240
 3746POPC   GL148673  26.939  14.544   5.702
 3746POPC   GL248674  27.098  14.866   5.864
 3746POPC   C1A48675  26.763  14.392   6.101
 3746POPC   D2A48676  26.890  14.184   6.493
 3746POPC   C3A48677  26.624  14.310   6.860
 3746POPC   C4A48678  26.816  14.225   7.238
 3746POPC   C1B48679  27.109  14.734   6.241
 3746POPC   C2B48680  26.838  14.675   6.570
 3746POPC   C3B48681  26.823  14.811   6.969
 3746POPC   C4B48682  26.580  14.681   7.289
 3747POPC   NC348683  19.995  28.951   5.298
 3747POPC   PO448684  19.928  29.595   5.366
 3747POPC   GL148685  19.720  29.255   5.643
 3747POPC   GL248686  19.879  28.929   5.795
 3747POPC   C1A48687  19.643  29.272   6.096
 3747POPC   D2A48688  19.798  29.453   6.489
 3747POPC   C3A48689  19.651  29.229   6.840
 3747POPC   C4A48690  19.356  29.104   7.175
 3747POPC   C1B48691  19.727  28.771   6.196
 3747POPC   C2B48692  19.496  28.688   6.564
 3747POPC   C3B48693  19.605  28.708   6.964
 3747POPC   C4B48694  19.890  28.952   7.193
 3748POPC   NC348695  31.920  26.881   5.481
 3748POPC   PO448696  32.570  26.812   5.495
 3748POPC   GL148697  32.337  26.524   5.834
 3748POPC   GL248698  31.972  26.427   5.773
 3748POPC   C1A48699  32.366  26.470   6.318
 3748POPC   D2A48700  32.421  26.799   6.602
 3748POPC   C3A48701  32.332  26.667   7.001
 3748POPC   C4A48702  32.363  27.063   7.194
 3748POPC   C1B48703  31.968  26.736   6.149
 3748POPC   C2B48704  31.927  26.686   6.603
 3748POPC   C3B48705  31.910  26.931   6.979
 3748POPC   C4B48706  31.907  26.829   7.411
 3749POPC   NC348707  14.227   5.453   5.468
 3749POPC   PO448708  14.570   4.821   5.431
 3749POPC   GL148709  14.346   4.928   5.809
 3749POPC   GL248710  13.985   5.009   5.752
 3749POPC   C1A48711  14.353   5.201   6.171
 3749POPC   D2A48712  14.503   5.341   6.584
 3749POPC   C3A48713  14.490   5.065   6.942
 3749POPC   C4A48714  14.584   5.302   7.310
 3749POPC   C1B48715  13.922   4.882   6.169
 3749POPC   C2B48716  14.162   4.861   6.546
 3749POPC   C3B48717  14.087   4.727   6.955
 3749POPC   C4B48718  14.187   4.937   7.350
 3750POPC   NC348719  28.819   7.518   5.395
 3750POPC   PO448720  29.478   7.645   5.407
 3750POPC   GL148721  29.318   7.593   5.820
 3750POPC   GL248722  28.999   7.399   5.854
 3750POPC   C1A48723  29.401   7.531   6.254
 3750POPC   D2A48724  29.183   7.559   6.625
 3750POPC   C3A48725  29.366   7.632   7.012
 3750POPC   C4A48726  29.239   7.498   7.401
 3750POPC   C1B48727  28.876   7.280   6.262
 3750POPC   C2B48728  28.776   7.239   6.681
 3750POPC   C3B48729  28.755   7.056   7.088
 3750POPC   C4B48730  28.814   7.230   7.505
 3751POPC   NC348731  17.078  26.653   5.526
 3751POPC   PO448732  16.491  26.472   5.479
 3751POPC   GL148733  16.664  26.741   5.848
 3751POPC   GL248734  16.994  26.726   6.004
 3751POPC   C1A48735  16.596  26.955   6.251
 3751POPC   D2A48736  16.421  26.898   6.661
 3751POPC   C3A48737  16.575  26.933   7.073
 3751POPC   C4A48738  16.367  27.134   7.386
 3751POPC   C1B48739  16.947  26.624   6.421
 3751POPC   C2B48740  16.982  26.914   6.761
 3751POPC   C3B48741  17.090  26.811   7.184
 3751POPC   C4B48742  17.091  26.477   7.534
 3752POPC   NC348743  15.526  31.773   5.578
 3752POPC   PO448744  14.967  31.594   5.261
 3752POPC   GL148745  15.094  31.527   5.788
 3752POPC   GL248746  15.109  31.169   5.870
 3752POPC   C1A48747  15.210  31.825   6.244
 3752POPC   D2A48748  15.546  31.705   6.598
 3752POPC   C3A48749  15.383  31.716   7.017
 3752POPC   C4A48750  15.414  31.582   7.468
 3752POPC   C1B48751  15.128  31.326   6.297
 3752POPC   C2B48752  15.236  31.263   6.747
 3752POPC   C3B48753  15.044  31.359   7.152
 3752POPC   C4B48754  14.677  31.600   7.215
 3753POPC   NC348755  30.458  27.079   5.364
 3753POPC   PO448756  30.125  26.545   5.496
 3753POPC   GL148757  30.220  26.859   5.777
 3753POPC   GL248758  29.893  27.004   5.787
 3753POPC   C1A48759  30.199  26.951   6.229
 3753POPC   D2A48760  29.915  27.106   6.587
 3753POPC   C3A48761  29.818  26.820   6.923
 3753POPC   C4A48762  30.071  26.729   7.226
 3753POPC   C1B48763  29.661  26.873   6.193
 3753POPC   C2B48764  29.404  26.885   6.612
 3753POPC   C3B48765  29.337  26.941   7.093
 3753POPC   C4B48766  29.547  26.874   7.504
 3754POPC   NC348767  13.968   2.249   5.399
 3754POPC   PO448768  13.403   1.864   5.564
 3754POPC   GL148769  13.466   2.083   5.919
 3754POPC   GL248770  13.841   2.063   5.886
 3754POPC   C1A48771  13.264   2.195   6.323
 3754POPC   D2A48772  13.223   2.118   6.762
 3754POPC   C3A48773  13.639   2.064   6.915
 3754POPC   C4A48774  13.880   2.338   7.138
 3754POPC   C1B48775  13.777   2.111   6.339
 3754POPC   C2B48776  13.954   1.799   6.589
 3754POPC   C3B48777  14.119   1.829   6.973
 3754POPC   C4B48778  13.908   1.823   7.331
 3755POPC   NC348779  34.581  44.199   5.335
 3755POPC   PO448780  34.330  43.531   5.458
 3755POPC   GL148781  34.366  43.767   5.866
 3755POPC   GL248782  34.655  44.004   5.888
 3755POPC   C1A48783  34.501  43.783   6.322
 3755POPC   D2A48784  34.706  43.601   6.663
 3755POPC   C3A48785  34.503  43.873   6.899
 3755POPC   C4A48786  34.452  43.961   7.280
 3755POPC   C1B48787  34.821  44.166   6.295
 3755POPC   C2B48788  34.923  44.145   6.740
 3755POPC   C3B48789  34.802  44.344   7.126
 3755POPC   C4B48790  34.810  44.161   7.557
 3756POPC   NC348791  19.851   6.612   5.233
 3756POPC   PO448792  19.722   5.964   5.382
 3756POPC   GL148793  19.871   6.277   5.741
 3756POPC   GL248794  19.897   6.691   5.753
 3756POPC   C1A48795  19.875   6.421   6.198
 3756POPC   D2A48796  19.660   6.698   6.511
 3756POPC   C3A48797  19.842   6.658   6.908
 3756POPC   C4A48798  20.257   6.821   7.020
 3756POPC   C1B48799  19.622   6.976   6.078
 3756POPC   C2B48800  19.606   7.226   6.523
 3756POPC   C3B48801  19.896   7.202   6.912
 3756POPC   C4B48802  19.873   6.953   7.327
 3757POPC   NC348803  13.619  31.043   5.487
 3757POPC   PO448804  13.937  30.553   5.225
 3757POPC   GL148805  13.823  30.626   5.765
 3757POPC   GL248806  13.534  30.437   6.054
 3757POPC   C1A48807  13.725  30.884   6.153
 3757POPC   D2A48808  13.769  30.735   6.579
 3757POPC   C3A48809  13.480  30.641   6.905
 3757POPC   C4A48810  13.549  30.789   7.317
 3757POPC   C1B48811  13.877  30.255   6.199
 3757POPC   C2B48812  14.019  30.293   6.606
 3757POPC   C3B48813  13.838  30.212   7.007
 3757POPC   C4B48814  13.913  30.350   7.438
 3758POPC   NC348815  32.971  33.659   5.364
 3758POPC   PO448816  32.978  33.002   5.141
 3758POPC   GL148817  33.060  33.095   5.646
 3758POPC   GL248818  33.034  32.771   5.835
 3758POPC   C1A48819  32.986  33.153   6.149
 3758POPC   D2A48820  33.125  33.052   6.602
 3758POPC   C3A48821  33.006  33.156   7.065
 3758POPC   C4A48822  33.169  33.068   7.523
 3758POPC   C1B48823  32.669  32.749   6.173
 3758POPC   C2B48824  32.650  32.874   6.612
 3758POPC   C3B48825  32.658  32.682   7.029
 3758POPC   C4B48826  32.723  32.846   7.406
 3759POPC   NC348827  14.883  27.539   5.357
 3759POPC   PO448828  14.273  27.814   5.342
 3759POPC   GL148829  14.448  27.540   5.687
 3759POPC   GL248830  14.561  27.784   5.849
 3759POPC   C1A48831  14.539  27.387   6.162
 3759POPC   D2A48832  14.343  27.388   6.611
 3759POPC   C3A48833  14.333  27.409   7.078
 3759POPC   C4A48834  14.420  27.208   7.505
 3759POPC   C1B48835  14.358  27.985   6.209
 3759POPC   C2B48836  14.145  27.957   6.590
 3759POPC   C3B48837  14.203  27.913   7.036
 3759POPC   C4B48838  14.188  27.695   7.471
 3760POPC   NC348839  17.995  35.159   5.396
 3760POPC   PO448840  18.493  35.548   5.415
 3760POPC   GL148841  18.410  35.502   5.839
 3760POPC   GL248842  18.242  35.174   5.857
 3760POPC   C1A48843  18.435  35.470   6.284
 3760POPC   D2A48844  18.387  35.053   6.457
 3760POPC   C3A48845  18.366  35.083   6.892
 3760POPC   C4A48846  18.467  35.436   7.186
 3760POPC   C1B48847  17.980  35.251   6.208
 3760POPC   C2B48848  18.007  35.373   6.618
 3760POPC   C3B48849  17.898  35.226   6.999
 3760POPC   C4B48850  18.036  35.230   7.395
 3761POPC   NC348851  44.447  23.287   5.539
 3761POPC   PO448852  44.887  23.794   5.449
 3761POPC   GL148853  44.560  23.793   5.760
 3761POPC   GL248854  44.623  23.509   5.948
 3761POPC   C1A48855  44.372  23.901   6.178
 3761POPC   D2A48856  44.587  24.065   6.520
 3761POPC   C3A48857  44.643  23.780   6.812
 3761POPC   C4A48858  44.525  23.863   7.209
 3761POPC   C1B48859  44.787  23.631   6.319
 3761POPC   C2B48860   0.101  23.610   6.614
 3761POPC   C3B48861   0.052  23.383   6.969
 3761POPC   C4B48862  44.774  23.425   7.253
 3762POPC   NC348863  15.377   1.711   5.544
 3762POPC   PO448864  15.044   2.364   5.571
 3762POPC   GL148865  15.301   2.136   5.853
 3762POPC   GL248866  15.162   1.841   5.970
 3762POPC   C1A48867  15.432   2.114   6.313
 3762POPC   D2A48868  15.268   2.323   6.710
 3762POPC   C3A48869  15.356   2.169   7.159
 3762POPC   C4A48870  15.168   2.290   7.552
 3762POPC   C1B48871  15.103   1.702   6.381
 3762POPC   C2B48872  15.168   1.812   6.823
 3762POPC   C3B48873  15.174   1.615   7.238
 3762POPC   C4B48874  15.342   1.609   7.673
 3763POPC   NC348875  42.812  27.639   5.424
 3763POPC   PO448876  43.390  27.396   5.529
 3763POPC   GL148877  43.276  27.647   5.849
 3763POPC   GL248878  43.016  27.907   5.829
 3763POPC   C1A48879  43.208  27.459   6.221
 3763POPC   D2A48880  42.950  27.405   6.537
 3763POPC   C3A48881  43.237  27.398   6.889
 3763POPC   C4A48882  43.164  27.269   7.302
 3763POPC   C1B48883  42.818  27.816   6.247
 3763POPC   C2B48884  42.948  27.867   6.691
 3763POPC   C3B48885  42.938  27.733   7.110
 3763POPC   C4B48886  42.905  27.898   7.459
 3764POPC   NC348887  36.500  15.934   5.504
 3764POPC   PO448888  35.788  15.830   5.497
 3764POPC   GL148889  36.008  15.855   5.895
 3764POPC   GL248890  36.327  16.035   5.965
 3764POPC   C1A48891  36.162  15.654   6.277
 3764POPC   D2A48892  36.393  15.804   6.642
 3764POPC   C3A48893  36.177  15.724   7.034
 3764POPC   C4A48894  35.896  15.749   7.401
 3764POPC   C1B48895  36.455  16.418   6.159
 3764POPC   C2B48896  36.264  16.524   6.542
 3764POPC   C3B48897  36.213  16.252   6.901
 3764POPC   C4B48898  36.200  16.143   7.331
 3765POPC   NC348899  32.304  18.830   5.417
 3765POPC   PO448900  31.692  18.980   5.485
 3765POPC   GL148901  31.998  18.845   5.858
 3765POPC   GL248902  32.396  18.938   5.895
 3765POPC   C1A48903  32.141  18.862   6.333
 3765POPC   D2A48904  32.343  18.793   6.743
 3765POPC   C3A48905  32.097  18.916   7.110
 3765POPC   C4A48906  31.966  19.342   7.152
 3765POPC   C1B48907  32.452  19.275   6.201
 3765POPC   C2B48908  32.235  19.306   6.599
 3765POPC   C3B48909  32.430  19.295   6.976
 3765POPC   C4B48910  32.449  19.232   7.395
 3766POPC   NC348911  16.579  16.074   5.684
 3766POPC   PO448912  16.963  15.625   5.406
 3766POPC   GL148913  16.966  15.700   5.862
 3766POPC   GL248914  16.633  15.609   5.952
 3766POPC   C1A48915  16.912  15.914   6.291
 3766POPC   D2A48916  16.867  16.237   6.636
 3766POPC   C3A48917  16.936  15.956   7.015
 3766POPC   C4A48918  16.729  15.632   7.258
 3766POPC   C1B48919  16.378  15.811   6.282
 3766POPC   C2B48920  16.511  15.876   6.711
 3766POPC   C3B48921  16.451  16.097   7.099
 3766POPC   C4B48922  16.295  15.943   7.511
 3767POPC   NC348923  27.030  18.377   5.523
 3767POPC   PO448924  26.527  17.899   5.533
 3767POPC   GL148925  26.729  18.024   5.891
 3767POPC   GL248926  27.061  18.127   5.989
 3767POPC   C1A48927  26.660  18.254   6.264
 3767POPC   D2A48928  26.797  18.390   6.654
 3767POPC   C3A48929  26.832  18.088   6.992
 3767POPC   C4A48930  26.655  18.161   7.417
 3767POPC   C1B48931  27.147  18.515   6.219
 3767POPC   C2B48932  27.273  18.616   6.634
 3767POPC   C3B48933  27.108  18.513   7.031
 3767POPC   C4B48934  27.177  18.167   7.351
 3768POPC   NC348935  33.379  15.431   5.560
 3768POPC   PO448936  32.951  14.981   5.355
 3768POPC   GL148937  32.998  15.081   5.803
 3768POPC   GL248938  32.909  15.388   5.970
 3768POPC   C1A48939  32.952  14.892   6.228
 3768POPC   D2A48940  32.875  15.051   6.638
 3768POPC   C3A48941  33.233  15.040   6.909
 3768POPC   C4A48942  33.260  14.832   7.327
 3768POPC   C1B48943  32.672  15.543   6.357
 3768POPC   C2B48944  32.533  15.690   6.763
 3768POPC   C3B48945  32.579  15.466   7.123
 3768POPC   C4B48946  32.887  15.189   7.244
 3769POPC   NC348947  18.134  20.663   5.577
 3769POPC   PO448948  18.833  20.697   5.312
 3769POPC   GL148949  18.639  20.625   5.839
 3769POPC   GL248950  18.349  20.818   6.038
 3769POPC   C1A48951  18.406  20.373   6.232
 3769POPC   D2A48952  18.113  20.383   6.604
 3769POPC   C3A48953  18.389  20.446   6.974
 3769POPC   C4A48954  18.337  20.486   7.411
 3769POPC   C1B48955  18.073  20.844   6.362
 3769POPC   C2B48956  18.184  20.890   6.791
 3769POPC   C3B48957  18.013  20.823   7.180
 3769POPC   C4B48958  18.096  20.932   7.580
 3770POPC   NC348959  21.463  20.766   5.244
 3770POPC   PO448960  21.798  20.169   5.492
 3770POPC   GL148961  21.529  20.497   5.708
 3770POPC   GL248962  21.191  20.595   5.692
 3770POPC   C1A48963  21.524  20.805   6.106
 3770POPC   D2A48964  21.350  20.825   6.540
 3770POPC   C3A48965  21.603  20.749   6.916
 3770POPC   C4A48966  21.525  20.913   7.326
 3770POPC   C1B48967  21.243  20.368   6.103
 3770POPC   C2B48968  21.048  20.414   6.482
 3770POPC   C3B48969  21.211  20.414   6.853
 3770POPC   C4B48970  21.223  20.478   7.252
 3771POPC   NC348971   7.749  21.138   5.186
 3771POPC   PO448972   8.382  21.315   5.514
 3771POPC   GL148973   8.244  21.411   5.902
 3771POPC   GL248974   7.938  21.551   5.808
 3771POPC   C1A48975   8.233  21.366   6.345
 3771POPC   D2A48976   8.176  21.528   6.753
 3771POPC   C3A48977   8.430  21.428   7.103
 3771POPC   C4A48978   8.402  21.529   7.548
 3771POPC   C1B48979   7.751  21.507   6.216
 3771POPC   C2B48980   7.776  21.227   6.566
 3771POPC   C3B48981   7.737  21.393   6.988
 3771POPC   C4B48982   8.000  21.226   7.300
 3772POPC   NC348983  20.609  39.726   5.278
 3772POPC   PO448984  20.168  39.421   5.700
 3772POPC   GL148985  20.541  39.597   5.905
 3772POPC   GL248986  20.882  39.606   5.744
 3772POPC   C1A48987  20.630  39.438   6.324
 3772POPC   D2A48988  20.511  39.142   6.653
 3772POPC   C3A48989  20.474  39.262   7.063
 3772POPC   C4A48990  20.147  39.343   7.354
 3772POPC   C1B48991  21.101  39.376   6.133
 3772POPC   C2B48992  21.041  39.234   6.590
 3772POPC   C3B48993  20.988  39.401   7.006
 3772POPC   C4B48994  20.729  39.673   7.231
 3773POPC   NC348995  27.207  36.672   5.444
 3773POPC   PO448996  26.827  36.135   5.282
 3773POPC   GL148997  26.839  35.931   5.716
 3773POPC   GL248998  26.853  36.275   5.812
 3773POPC   C1A48999  26.752  35.924   6.191
 3773POPC   D2A49000  26.757  36.172   6.573
 3773POPC   C3A49001  26.873  35.941   6.920
 3773POPC   C4A49002  26.724  35.857   7.323
 3773POPC   C1B49003  27.003  36.441   6.187
 3773POPC   C2B49004  27.117  36.536   6.606
 3773POPC   C3B49005  27.228  36.313   6.948
 3773POPC   C4B49006  26.956  36.303   7.277
 3774POPC   NC349007  42.908  26.143   5.408
 3774POPC   PO449008  43.454  25.691   5.358
 3774POPC   GL149009  43.454  25.892   5.767
 3774POPC   GL249010  43.120  26.008   5.846
 3774POPC   C1A49011  43.440  25.934   6.237
 3774POPC   D2A49012  43.102  26.082   6.502
 3774POPC   C3A49013  43.024  25.955   6.917
 3774POPC   C4A49014  43.314  25.957   7.272
 3774POPC   C1B49015  43.032  26.381   6.091
 3774POPC   C2B49016  42.963  26.589   6.497
 3774POPC   C3B49017  42.853  26.455   6.882
 3774POPC   C4B49018  43.009  26.352   7.257
 3775POPC   NC349019  43.333  21.780   5.370
 3775POPC   PO449020  42.986  21.205   5.462
 3775POPC   GL149021  43.107  21.231   5.857
 3775POPC   GL249022  43.334  21.496   5.801
 3775POPC   C1A49023  43.070  21.082   6.275
 3775POPC   D2A49024  42.977  21.326   6.630
 3775POPC   C3A49025  42.945  21.195   7.042
 3775POPC   C4A49026  42.757  21.509   7.289
 3775POPC   C1B49027  43.491  21.363   6.216
 3775POPC   C2B49028  43.478  21.104   6.564
 3775POPC   C3B49029  43.456  21.198   6.955
 3775POPC   C4B49030  43.352  21.198   7.346
 3776POPC   NC349031  44.961  19.777   5.271
 3776POPC   PO449032   0.598  19.864   5.304
 3776POPC   GL149033   0.409  19.813   5.696
 3776POPC   GL249034   0.712  19.982   5.801
 3776POPC   C1A49035   0.294  19.731   6.128
 3776POPC   D2A49036   0.103  19.812   6.535
 3776POPC   C3A49037   0.308  19.710   6.912
 3776POPC   C4A49038   0.565  19.759   7.238
 3776POPC   C1B49039   0.639  20.121   6.194
 3776POPC   C2B49040   0.634  19.941   6.570
 3776POPC   C3B49041   0.598  20.165   6.947
 3776POPC   C4B49042   0.436  20.319   7.301
 3777POPC   NC349043   5.564  12.740   5.399
 3777POPC   PO449044   5.889  12.182   5.509
 3777POPC   GL149045   5.893  12.155   5.903
 3777POPC   GL249046   6.189  11.940   5.889
 3777POPC   C1A49047   5.736  12.338   6.294
 3777POPC   D2A49048   5.498  12.216   6.661
 3777POPC   C3A49049   5.696  12.102   7.056
 3777POPC   C4A49050   5.845  12.310   7.382
 3777POPC   C1B49051   6.028  11.892   6.306
 3777POPC   C2B49052   6.059  12.119   6.666
 3777POPC   C3B49053   6.132  11.832   6.961
 3777POPC   C4B49054   6.092  11.841   7.355
 3778POPC   NC349055  29.045  20.800   5.303
 3778POPC   PO449056  28.819  20.189   5.338
 3778POPC   GL149057  28.897  20.528   5.718
 3778POPC   GL249058  29.101  20.838   5.796
 3778POPC   C1A49059  29.057  20.449   6.163
 3778POPC   D2A49060  29.356  20.527   6.500
 3778POPC   C3A49061  29.185  20.501   6.894
 3778POPC   C4A49062  28.930  20.475   7.221
 3778POPC   C1B49063  29.299  20.944   6.160
 3778POPC   C2B49064  29.303  21.139   6.532
 3778POPC   C3B49065  29.445  20.950   6.880
 3778POPC   C4B49066  29.100  20.947   7.146
 3779POPC   NC349067  14.567  31.521   5.445
 3779POPC   PO449068  13.957  31.358   5.464
 3779POPC   GL149069  14.247  31.498   5.833
 3779POPC   GL249070  14.593  31.321   5.897
 3779POPC   C1A49071  14.447  31.810   6.117
 3779POPC   D2A49072  14.501  31.759   6.574
 3779POPC   C3A49073  14.274  31.425   6.785
 3779POPC   C4A49074  14.162  31.559   7.173
 3779POPC   C1B49075  14.691  31.054   6.217
 3779POPC   C2B49076  14.734  31.245   6.621
 3779POPC   C3B49077  14.627  31.107   6.998
 3779POPC   C4B49078  14.274  31.078   7.235
 3780POPC   NC349079   2.186  12.994   5.411
 3780POPC   PO449080   1.739  12.528   5.462
 3780POPC   GL149081   1.828  12.815   5.816
 3780POPC   GL249082   2.175  12.908   5.950
 3780POPC   C1A49083   1.778  12.923   6.266
 3780POPC   D2A49084   2.124  13.080   6.554
 3780POPC   C3A49085   2.048  13.025   6.989
 3780POPC   C4A49086   1.684  12.981   7.244
 3780POPC   C1B49087   2.179  12.608   6.359
 3780POPC   C2B49088   1.933  12.509   6.757
 3780POPC   C3B49089   1.992  12.568   7.241
 3780POPC   C4B49090   2.414  12.650   7.434
 3781POPC   NC349091   6.290  21.552   5.548
 3781POPC   PO449092   5.761  21.321   5.277
 3781POPC   GL149093   5.891  21.285   5.712
 3781POPC   GL249094   5.779  21.661   5.697
 3781POPC   C1A49095   6.206  21.293   6.126
 3781POPC   D2A49096   6.358  21.391   6.545
 3781POPC   C3A49097   6.144  21.385   6.893
 3781POPC   C4A49098   6.096  21.151   7.318
 3781POPC   C1B49099   5.739  21.482   6.137
 3781POPC   C2B49100   5.777  21.307   6.518
 3781POPC   C3B49101   5.635  21.450   6.914
 3781POPC   C4B49102   5.886  21.602   7.273
 3782POPC   NC349103   7.460  16.306   5.222
 3782POPC   PO449104   7.714  15.707   5.524
 3782POPC   GL149105   7.547  15.899   5.836
 3782POPC   GL249106   7.222  16.032   5.787
 3782POPC   C1A49107   7.624  15.902   6.239
 3782POPC   D2A49108   7.375  15.991   6.549
 3782POPC   C3A49109   7.619  16.034   6.903
 3782POPC   C4A49110   7.541  16.155   7.317
 3782POPC   C1B49111   7.106  15.734   6.141
 3782POPC   C2B49112   7.038  15.600   6.570
 3782POPC   C3B49113   7.130  15.801   6.962
 3782POPC   C4B49114   7.002  16.033   7.317
 3783POPC   NC349115  36.378  43.686   5.428
 3783POPC   PO449116  35.999  44.167   5.542
 3783POPC   GL149117  36.204  43.942   5.871
 3783POPC   GL249118  36.066  43.629   5.836
 3783POPC   C1A49119  36.194  44.005   6.320
 3783POPC   D2A49120  36.427  44.281   6.599
 3783POPC   C3A49121  36.200  44.138   6.933
 3783POPC   C4A49122  36.247  43.765   7.148
 3783POPC   C1B49123  36.081  43.483   6.247
 3783POPC   C2B49124  36.119  43.523   6.687
 3783POPC   C3B49125  35.873  43.438   7.045
 3783POPC   C4B49126  36.073  43.321   7.407
 3784POPC   NC349127  14.865  13.971   5.228
 3784POPC   PO449128  15.474  14.360   5.384
 3784POPC   GL149129  15.296  14.340   5.798
 3784POPC   GL249130  15.157  14.013   5.830
 3784POPC   C1A49131  15.052  14.448   6.179
 3784POPC   D2A49132  15.035  14.312   6.607
 3784POPC   C3A49133  14.993  14.519   6.995
 3784POPC   C4A49134  15.293  14.367   7.217
 3784POPC   C1B49135  14.994  13.918   6.216
 3784POPC   C2B49136  14.866  13.819   6.612
 3784POPC   C3B49137  14.810  14.034   6.981
 3784POPC   C4B49138  14.994  13.989   7.362
 3785POPC   NC349139  30.227  31.904   5.389
 3785POPC   PO449140  29.651  32.325   5.485
 3785POPC   GL149141  29.889  32.421   5.851
 3785POPC   GL249142  30.197  32.223   5.822
 3785POPC   C1A49143  30.111  32.527   6.236
 3785POPC   D2A49144  30.130  32.282   6.616
 3785POPC   C3A49145  30.015  32.479   6.982
 3785POPC   C4A49146  29.745  32.559   7.321
 3785POPC   C1B49147  29.996  32.020   6.194
 3785POPC   C2B49148  29.932  31.810   6.594
 3785POPC   C3B49149  30.059  31.941   6.981
 3785POPC   C4B49150  29.958  32.099   7.350
 3786POPC   NC349151  18.486   8.573   5.450
 3786POPC   PO449152  18.496   9.278   5.429
 3786POPC   GL149153  18.226   9.067   5.742
 3786POPC   GL249154  18.297   8.725   5.897
 3786POPC   C1A49155  18.246   9.152   6.187
 3786POPC   D2A49156  18.378   8.904   6.532
 3786POPC   C3A49157  18.065   8.891   6.846
 3786POPC   C4A49158  18.180   9.142   7.168
 3786POPC   C1B49159  18.623   8.584   6.184
 3786POPC   C2B49160  18.716   8.530   6.642
 3786POPC   C3B49161  18.528   8.699   7.030
 3786POPC   C4B49162  18.190   8.667   7.299
 3787POPC   NC349163  35.332   1.459   5.660
 3787POPC   PO449164  35.239   2.019   5.280
 3787POPC   GL149165  35.171   2.047   5.719
 3787POPC   GL249166  34.925   1.835   5.839
 3787POPC   C1A49167  35.420   2.218   6.070
 3787POPC   D2A49168  35.634   2.131   6.465
 3787POPC   C3A49169  35.430   2.120   6.858
 3787POPC   C4A49170  35.501   1.833   7.153
 3787POPC   C1B49171  34.958   2.056   6.221
 3787POPC   C2B49172  34.966   1.956   6.650
 3787POPC   C3B49173  35.004   1.805   7.060
 3787POPC   C4B49174  35.089   1.899   7.459
 3788POPC   NC349175  36.831   4.792   5.524
 3788POPC   PO449176  37.270   5.304   5.492
 3788POPC   GL149177  37.000   5.161   5.817
 3788POPC   GL249178  37.206   4.876   5.862
 3788POPC   C1A49179  36.836   5.027   6.216
 3788POPC   D2A49180  36.932   5.216   6.609
 3788POPC   C3A49181  36.647   5.288   6.915
 3788POPC   C4A49182  36.814   5.279   7.299
 3788POPC   C1B49183  37.130   4.605   6.218
 3788POPC   C2B49184  36.957   4.698   6.613
 3788POPC   C3B49185  36.934   4.868   7.010
 3788POPC   C4B49186  37.195   4.650   7.289
 3789POPC   NC349187  11.488  33.015   5.360
 3789POPC   PO449188  10.824  32.841   5.539
 3789POPC   GL149189  11.090  32.927   5.900
 3789POPC   GL249190  11.436  32.925   5.869
 3789POPC   C1A49191  11.043  33.058   6.321
 3789POPC   D2A49192  10.997  33.250   6.713
 3789POPC   C3A49193  11.125  33.068   7.059
 3789POPC   C4A49194  11.350  32.953   7.389
 3789POPC   C1B49195  11.546  33.025   6.303
 3789POPC   C2B49196  11.500  33.304   6.677
 3789POPC   C3B49197  11.657  33.290   7.115
 3789POPC   C4B49198  11.685  33.279   7.602
 3790POPC   NC349199   7.838  32.751   5.439
 3790POPC   PO449200   7.411  33.202   5.166
 3790POPC   GL149201   7.547  33.216   5.668
 3790POPC   GL249202   7.567  32.882   5.832
 3790POPC   C1A49203   7.297  33.174   6.101
 3790POPC   D2A49204   7.279  33.180   6.542
 3790POPC   C3A49205   7.110  33.001   6.929
 3790POPC   C4A49206   7.383  32.920   7.242
 3790POPC   C1B49207   7.558  32.763   6.275
 3790POPC   C2B49208   7.523  32.720   6.737
 3790POPC   C3B49209   7.806  32.688   7.113
 3790POPC   C4B49210   7.749  32.780   7.577
 3791POPC   NC349211  17.572   8.549   5.452
 3791POPC   PO449212  17.586   9.298   5.376
 3791POPC   GL149213  17.621   9.027   5.696
 3791POPC   GL249214  17.286   9.101   5.795
 3791POPC   C1A49215  17.714   9.086   6.131
 3791POPC   D2A49216  17.572   9.315   6.494
 3791POPC   C3A49217  17.509   9.087   6.884
 3791POPC   C4A49218  17.699   9.080   7.281
 3791POPC   C1B49219  17.312   8.739   6.105
 3791POPC   C2B49220  17.152   8.604   6.528
 3791POPC   C3B49221  17.255   8.641   6.974
 3791POPC   C4B49222  17.183   8.952   7.344
 3792POPC   NC349223  44.605  43.520   5.221
 3792POPC   PO449224  44.440  42.951   5.671
 3792POPC   GL149225  44.632  42.995   6.021
 3792POPC   GL249226  44.706  43.358   6.029
 3792POPC   C1A49227  44.629  42.869   6.438
 3792POPC   D2A49228  44.885  43.052   6.712
 3792POPC   C3A49229  44.772  43.002   7.071
 3792POPC   C4A49230  44.779  43.391   7.202
 3792POPC   C1B49231  44.368  43.309   6.341
 3792POPC   C2B49232  44.416  43.250   6.792
 3792POPC   C3B49233  44.250  43.455   7.152
 3792POPC   C4B49234  44.453  43.667   7.515
 3793POPC   NC349235  15.440   9.611   5.222
 3793POPC   PO449236  14.788   9.663   5.350
 3793POPC   GL149237  15.070   9.652   5.758
 3793POPC   GL249238  15.431   9.574   5.726
 3793POPC   C1A49239  15.171   9.482   6.198
 3793POPC   D2A49240  15.064   9.292   6.619
 3793POPC   C3A49241  14.934   9.593   6.952
 3793POPC   C4A49242  14.931   9.575   7.391
 3793POPC   C1B49243  15.573   9.835   6.056
 3793POPC   C2B49244  15.622   9.778   6.490
 3793POPC   C3B49245  15.430   9.620   6.861
 3793POPC   C4B49246  15.412   9.718   7.286
 3794POPC   NC349247  12.648  42.290   5.358
 3794POPC   PO449248  13.334  42.370   5.379
 3794POPC   GL149249  12.980  42.350   5.743
 3794POPC   GL249250  12.695  42.085   5.826
 3794POPC   C1A49251  12.891  42.466   6.186
 3794POPC   D2A49252  12.882  42.661   6.613
 3794POPC   C3A49253  12.913  42.314   6.923
 3794POPC   C4A49254  13.002  42.175   7.352
 3794POPC   C1B49255  12.436  42.435   5.991
 3794POPC   C2B49256  12.396  42.572   6.402
 3794POPC   C3B49257  12.450  42.610   6.873
 3794POPC   C4B49258  12.577  42.491   7.264
 3795POPC   NC349259  20.827  16.616   5.486
 3795POPC   PO449260  20.363  17.104   5.636
 3795POPC   GL149261  20.413  16.877   5.961
 3795POPC   GL249262  20.498  16.557   5.862
 3795POPC   C1A49263  20.335  16.823   6.375
 3795POPC   D2A49264  20.578  17.037   6.649
 3795POPC   C3A49265  20.529  16.949   7.037
 3795POPC   C4A49266  20.343  17.218   7.320
 3795POPC   C1B49267  20.769  16.583   6.245
 3795POPC   C2B49268  20.626  16.518   6.688
 3795POPC   C3B49269  20.818  16.516   7.089
 3795POPC   C4B49270  20.959  16.479   7.494
 3796POPC   NC349271   0.715   6.101   5.421
 3796POPC   PO449272   0.593   5.484   5.653
 3796POPC   GL149273   0.443   5.821   5.838
 3796POPC   GL249274   0.126   5.624   5.871
 3796POPC   C1A49275   0.213   6.095   6.118
 3796POPC   D2A49276   0.119   6.246   6.541
 3796POPC   C3A49277   0.428   6.089   6.826
 3796POPC   C4A49278   0.433   5.887   7.193
 3796POPC   C1B49279   0.310   5.586   6.291
 3796POPC   C2B49280   0.492   5.592   6.724
 3796POPC   C3B49281   0.219   5.457   7.058
 3796POPC   C4B49282   0.063   5.542   7.482
 3797POPC   NC349283   4.414  29.783   5.408
 3797POPC   PO449284   3.772  29.923   5.395
 3797POPC   GL149285   4.101  30.105   5.764
 3797POPC   GL249286   4.496  30.076   5.801
 3797POPC   C1A49287   4.261  30.251   6.199
 3797POPC   D2A49288   4.322  29.988   6.583
 3797POPC   C3A49289   4.352  30.189   7.007
 3797POPC   C4A49290   4.194  30.118   7.439
 3797POPC   C1B49291   4.625  29.792   6.166
 3797POPC   C2B49292   4.617  29.552   6.572
 3797POPC   C3B49293   4.434  29.657   6.982
 3797POPC   C4B49294   4.628  29.876   7.338
 3798POPC   NC349295  35.943  18.115   5.492
 3798POPC   PO449296  35.981  18.704   5.164
 3798POPC   GL149297  36.234  18.612   5.635
 3798POPC   GL249298  36.284  18.283   5.809
 3798POPC   C1A49299  36.185  18.597   6.165
 3798POPC   D2A49300  36.281  18.345   6.559
 3798POPC   C3A49301  36.228  18.517   6.978
 3798POPC   C4A49302  35.917  18.461   7.277
 3798POPC   C1B49303  36.555  18.185   6.150
 3798POPC   C2B49304  36.545  17.893   6.465
 3798POPC   C3B49305  36.458  17.968   6.895
 3798POPC   C4B49306  36.273  17.742   7.213
 3799POPC   NC349307  40.364   9.085   5.474
 3799POPC   PO449308  40.939   8.781   5.346
 3799POPC   GL149309  40.794   8.927   5.738
 3799POPC   GL249310  40.474   8.754   5.833
 3799POPC   C1A49311  40.917   8.756   6.137
 3799POPC   D2A49312  41.090   8.685   6.555
 3799POPC   C3A49313  40.906   8.773   6.964
 3799POPC   C4A49314  40.780   9.057   7.264
 3799POPC   C1B49315  40.454   9.026   6.161
 3799POPC   C2B49316  40.654   8.952   6.534
 3799POPC   C3B49317  40.465   9.045   6.884
 3799POPC   C4B49318  40.266   9.012   7.267
 3800POPC   NC349319   9.361  19.950   5.589
 3800POPC   PO449320   9.707  19.514   5.308
 3800POPC   GL149321   9.747  19.733   5.828
 3800POPC   GL249322   9.501  19.722   6.121
 3800POPC   C1A49323   9.998  19.764   6.205
 3800POPC   D2A49324   9.742  19.865   6.584
 3800POPC   C3A49325   9.946  19.781   6.946
 3800POPC   C4A49326   9.855  19.630   7.359
 3800POPC   C1B49327   9.681  20.165   6.162
 3800POPC   C2B49328   9.637  20.377   6.549
 3800POPC   C3B49329   9.466  20.204   6.907
 3800POPC   C4B49330   9.739  20.122   7.250
 3801POPC   NC349331   7.462   1.071   5.430
 3801POPC   PO449332   7.123   1.436   5.858
 3801POPC   GL149333   7.548   1.316   5.896
 3801POPC   GL249334   7.571   0.938   5.904
 3801POPC   C1A49335   7.738   1.228   6.280
 3801POPC   D2A49336   7.527   1.162   6.641
 3801POPC   C3A49337   7.732   1.235   6.978
 3801POPC   C4A49338   7.582   1.316   7.358
 3801POPC   C1B49339   7.280   0.897   6.241
 3801POPC   C2B49340   7.200   0.769   6.678
 3801POPC   C3B49341   7.267   1.004   7.087
 3801POPC   C4B49342   7.124   0.892   7.562
 3802POPC   NC349343   7.889   6.794   5.348
 3802POPC   PO449344   7.274   6.443   5.223
 3802POPC   GL149345   7.268   6.721   5.680
 3802POPC   GL249346   7.595   6.839   5.815
 3802POPC   C1A49347   7.079   6.765   6.144
 3802POPC   D2A49348   7.167   6.638   6.621
 3802POPC   C3A49349   7.198   6.793   7.088
 3802POPC   C4A49350   7.451   6.717   7.489
 3802POPC   C1B49351   7.579   6.702   6.248
 3802POPC   C2B49352   7.741   6.830   6.640
 3802POPC   C3B49353   7.698   6.673   7.028
 3802POPC   C4B49354   7.781   6.335   7.289
 3803POPC   NC349355  40.392  39.742   5.527
 3803POPC   PO449356  41.055  40.039   5.404
 3803POPC   GL149357  40.877  40.099   5.812
 3803POPC   GL249358  40.547  40.215   5.928
 3803POPC   C1A49359  40.998  40.253   6.197
 3803POPC   D2A49360  40.837  40.319   6.586
 3803POPC   C3A49361  40.721  40.010   6.827
 3803POPC   C4A49362  40.756  40.125   7.231
 3803POPC   C1B49363  40.419  39.892   6.259
 3803POPC   C2B49364  40.394  39.611   6.646
 3803POPC   C3B49365  40.560  39.594   7.078
 3803POPC   C4B49366  40.632  39.716   7.500
 3804POPC   NC349367  33.317  25.723   5.581
 3804POPC   PO449368  33.860  26.205   5.449
 3804POPC   GL149369  33.951  26.227   5.854
 3804POPC   GL249370  33.848  25.887   5.930
 3804POPC   C1A49371  33.844  26.214   6.303
 3804POPC   D2A49372  33.680  26.035   6.657
 3804POPC   C3A49373  33.806  26.165   7.055
 3804POPC   C4A49374  33.437  26.074   7.289
 3804POPC   C1B49375  33.561  25.726   6.242
 3804POPC   C2B49376  33.531  25.516   6.658
 3804POPC   C3B49377  33.649  25.663   7.047
 3804POPC   C4B49378  34.093  25.760   7.172
 3805POPC   NC349379  23.498  26.432   5.336
 3805POPC   PO449380  23.921  26.952   5.468
 3805POPC   GL149381  23.738  26.799   5.809
 3805POPC   GL249382  23.740  26.464   5.807
 3805POPC   C1A49383  23.508  26.737   6.182
 3805POPC   D2A49384  23.306  26.800   6.555
 3805POPC   C3A49385  23.558  26.982   6.865
 3805POPC   C4A49386  23.787  27.038   7.206
 3805POPC   C1B49387  23.814  26.329   6.270
 3805POPC   C2B49388  23.720  26.504   6.698
 3805POPC   C3B49389  23.463  26.515   7.096
 3805POPC   C4B49390  23.328  26.352   7.524
 3806POPC   NC349391   0.884  42.600   5.469
 3806POPC   PO449392   1.420  42.956   5.575
 3806POPC   GL149393   1.320  42.541   5.796
 3806POPC   GL249394   1.167  42.205   5.801
 3806POPC   C1A49395   1.162  42.460   6.231
 3806POPC   D2A49396   1.445  42.321   6.535
 3806POPC   C3A49397   1.275  42.470   6.911
 3806POPC   C4A49398   1.226  42.320   7.280
 3806POPC   C1B49399   1.010  41.960   6.189
 3806POPC   C2B49400   0.966  42.086   6.602
 3806POPC   C3B49401   0.841  42.135   7.012
 3806POPC   C4B49402   0.698  41.809   7.278
 3807POPC   NC349403  30.125  10.570   5.283
 3807POPC   PO449404  29.532  10.224   5.406
 3807POPC   GL149405  29.768  10.422   5.712
 3807POPC   GL249406  30.124  10.568   5.807
 3807POPC   C1A49407  29.753  10.474   6.150
 3807POPC   D2A49408  29.717  10.378   6.570
 3807POPC   C3A49409  29.846  10.711   6.841
 3807POPC   C4A49410  30.045  10.498   7.143
 3807POPC   C1B49411  30.250  10.528   6.248
 3807POPC   C2B49412  30.243  10.858   6.548
 3807POPC   C3B49413  30.396  10.815   6.956
 3807POPC   C4B49414  30.196  10.920   7.331
 3808POPC   NC349415  38.534  19.505   5.613
 3808POPC   PO449416  38.149  18.901   5.493
 3808POPC   GL149417  38.366  19.062   5.832
 3808POPC   GL249418  38.122  19.345   5.933
 3808POPC   C1A49419  38.454  18.878   6.234
 3808POPC   D2A49420  38.402  19.148   6.551
 3808POPC   C3A49421  38.460  19.070   6.961
 3808POPC   C4A49422  38.657  19.145   7.353
 3808POPC   C1B49423  37.969  18.970   6.168
 3808POPC   C2B49424  38.060  18.770   6.596
 3808POPC   C3B49425  37.943  18.970   7.014
 3808POPC   C4B49426  38.155  19.116   7.422
 3809POPC   NC349427  17.820  11.285   5.101
 3809POPC   PO449428  17.298  11.124   5.403
 3809POPC   GL149429  17.546  11.012   5.792
 3809POPC   GL249430  17.573  11.341   5.912
 3809POPC   C1A49431  17.664  11.021   6.278
 3809POPC   D2A49432  17.554  11.287   6.654
 3809POPC   C3A49433  17.708  11.272   7.048
 3809POPC   C4A49434  17.598  11.073   7.441
 3809POPC   C1B49435  17.314  11.486   6.254
 3809POPC   C2B49436  17.237  11.832   6.570
 3809POPC   C3B49437  17.319  11.732   6.981
 3809POPC   C4B49438  17.373  11.514   7.348
 3810POPC   NC349439   2.192  17.778   5.571
 3810POPC   PO449440   1.957  17.202   5.414
 3810POPC   GL149441   1.980  17.385   5.815
 3810POPC   GL249442   2.320  17.369   5.876
 3810POPC   C1A49443   1.989  17.697   6.180
 3810POPC   D2A49444   2.138  17.685   6.547
 3810POPC   C3A49445   2.007  17.861   6.898
 3810POPC   C4A49446   1.828  17.705   7.261
 3810POPC   C1B49447   2.145  17.186   6.243
 3810POPC   C2B49448   2.005  17.138   6.631
 3810POPC   C3B49449   2.107  17.363   6.955
 3810POPC   C4B49450   2.113  17.264   7.313
 3811POPC   NC349451  17.670  33.584   5.465
 3811POPC   PO449452  17.067  33.487   5.441
 3811POPC   GL149453  17.260  33.750   5.782
 3811POPC   GL249454  17.590  33.941   5.804
 3811POPC   C1A49455  17.322  33.853   6.222
 3811POPC   D2A49456  17.395  33.632   6.594
 3811POPC   C3A49457  17.316  33.903   6.948
 3811POPC   C4A49458  17.052  34.263   7.083
 3811POPC   C1B49459  17.795  33.649   6.124
 3811POPC   C2B49460  17.899  33.717   6.556
 3811POPC   C3B49461  17.775  33.528   6.943
 3811POPC   C4B49462  17.692  33.795   7.272
 3812POPC   NC349463  42.511  22.300   5.339
 3812POPC   PO449464  42.257  21.727   5.433
 3812POPC   GL149465  42.233  22.093   5.740
 3812POPC   GL249466  42.583  22.154   5.850
 3812POPC   C1A49467  42.192  22.107   6.204
 3812POPC   D2A49468  42.248  21.909   6.598
 3812POPC   C3A49469  42.084  22.145   6.909
 3812POPC   C4A49470  42.065  22.155   7.321
 3812POPC   C1B49471  42.652  21.923   6.261
 3812POPC   C2B49472  42.819  21.875   6.668
 3812POPC   C3B49473  42.554  21.918   7.031
 3812POPC   C4B49474  42.541  22.086   7.446
 3813POPC   NC349475  44.851  30.549   5.444
 3813POPC   PO449476  44.505  31.127   5.337
 3813POPC   GL149477  44.587  30.916   5.755
 3813POPC   GL249478  44.923  30.795   5.888
 3813POPC   C1A49479  44.541  31.006   6.202
 3813POPC   D2A49480  44.496  30.779   6.625
 3813POPC   C3A49481  44.737  30.882   6.992
 3813POPC   C4A49482  44.667  30.958   7.423
 3813POPC   C1B49483  44.665  30.504   6.178
 3813POPC   C2B49484  44.717  30.228   6.547
 3813POPC   C3B49485  44.714  30.357   6.987
 3813POPC   C4B49486  44.896  30.229   7.375
 3814POPC   NC349487  18.646  26.245   5.520
 3814POPC   PO449488  18.100  25.758   5.459
 3814POPC   GL149489  18.210  26.027   5.764
 3814POPC   GL249490  18.488  25.840   5.804
 3814POPC   C1A49491  18.316  26.211   6.162
 3814POPC   D2A49492  18.050  26.277   6.554
 3814POPC   C3A49493  18.318  26.200   6.914
 3814POPC   C4A49494  18.240  25.978   7.276
 3814POPC   C1B49495  18.563  25.760   6.184
 3814POPC   C2B49496  18.361  25.846   6.544
 3814POPC   C3B49497  18.500  25.730   6.929
 3814POPC   C4B49498  18.771  25.824   7.239
 3815POPC   NC349499  31.039  19.874   5.517
 3815POPC   PO449500  30.455  20.252   5.527
 3815POPC   GL149501  30.604  20.080   5.951
 3815POPC   GL249502  30.949  20.069   5.997
 3815POPC   C1A49503  30.386  19.853   6.318
 3815POPC   D2A49504  30.199  19.987   6.716
 3815POPC   C3A49505  30.550  19.983   7.052
 3815POPC   C4A49506  30.416  19.965   7.494
 3815POPC   C1B49507  30.855  19.662   6.214
 3815POPC   C2B49508  30.833  19.513   6.600
 3815POPC   C3B49509  30.735  19.496   7.019
 3815POPC   C4B49510  30.765  19.631   7.416
 3816POPC   NC349511   3.701  31.347   5.634
 3816POPC   PO449512   3.069  31.277   5.438
 3816POPC   GL149513   3.233  31.387   5.812
 3816POPC   GL249514   3.393  31.730   5.791
 3816POPC   C1A49515   3.390  31.353   6.256
 3816POPC   D2A49516   3.313  31.125   6.646
 3816POPC   C3A49517   3.638  31.108   6.944
 3816POPC   C4A49518   3.606  31.177   7.374
 3816POPC   C1B49519   3.679  31.771   6.194
 3816POPC   C2B49520   3.725  31.580   6.638
 3816POPC   C3B49521   3.617  31.615   7.089
 3816POPC   C4B49522   3.590  31.660   7.542
 3817POPC   NC349523  38.611   7.008   5.607
 3817POPC   PO449524  38.369   6.476   5.304
 3817POPC   GL149525  38.326   6.570   5.756
 3817POPC   GL249526  38.165   6.901   5.833
 3817POPC   C1A49527  38.545   6.464   6.152
 3817POPC   D2A49528  38.717   6.672   6.539
 3817POPC   C3A49529  38.503   6.489   6.890
 3817POPC   C4A49530  38.389   6.587   7.297
 3817POPC   C1B49531  38.390   6.973   6.221
 3817POPC   C2B49532  38.255   6.887   6.624
 3817POPC   C3B49533  38.413   7.034   6.993
 3817POPC   C4B49534  38.257   7.065   7.392
 3818POPC   NC349535  17.919  31.371   5.464
 3818POPC   PO449536  17.237  31.531   5.531
 3818POPC   GL149537  17.475  31.602   5.910
 3818POPC   GL249538  17.789  31.742   5.863
 3818POPC   C1A49539  17.538  31.527   6.357
 3818POPC   D2A49540  17.406  31.787   6.704
 3818POPC   C3A49541  17.438  31.585   7.070
 3818POPC   C4A49542  17.278  31.167   7.139
 3818POPC   C1B49543  17.852  31.928   6.249
 3818POPC   C2B49544  17.904  31.748   6.665
 3818POPC   C3B49545  17.927  31.776   7.124
 3818POPC   C4B49546  17.712  31.628   7.511
 3819POPC   NC349547   3.098  20.226   5.445
 3819POPC   PO449548   3.712  20.391   5.505
 3819POPC   GL149549   3.427  20.364   5.863
 3819POPC   GL249550   3.263  20.048   5.894
 3819POPC   C1A49551   3.555  20.259   6.310
 3819POPC   D2A49552   3.797  20.435   6.669
 3819POPC   C3A49553   3.567  20.581   7.016
 3819POPC   C4A49554   3.256  20.882   7.197
 3819POPC   C1B49555   3.057  20.275   6.244
 3819POPC   C2B49556   3.209  20.351   6.687
 3819POPC   C3B49557   3.135  20.364   7.138
 3819POPC   C4B49558   2.916  20.589   7.478
 3820POPC   NC349559  34.989  28.192   5.613
 3820POPC   PO449560  35.675  28.395   5.636
 3820POPC   GL149561  35.347  28.459   5.888
 3820POPC   GL249562  35.353  28.094   5.971
 3820POPC   C1A49563  35.240  28.508   6.315
 3820POPC   D2A49564  35.479  28.387   6.681
 3820POPC   C3A49565  35.391  28.681   7.037
 3820POPC   C4A49566  35.203  28.630   7.442
 3820POPC   C1B49567  35.048  28.037   6.287
 3820POPC   C2B49568  35.001  28.217   6.703
 3820POPC   C3B49569  35.198  28.217   7.093
 3820POPC   C4B49570  35.062  28.108   7.474
 3821POPC   NC349571  25.026   7.863   5.567
 3821POPC   PO449572  25.555   8.214   5.333
 3821POPC   GL149573  25.490   8.304   5.794
 3821POPC   GL249574  25.175   8.186   6.029
 3821POPC   C1A49575  25.599   8.356   6.251
 3821POPC   D2A49576  25.358   8.144   6.606
 3821POPC   C3A49577  25.557   8.072   7.028
 3821POPC   C4A49578  25.520   8.368   7.388
 3821POPC   C1B49579  24.789   7.943   6.205
 3821POPC   C2B49580  24.748   7.747   6.608
 3821POPC   C3B49581  25.031   7.863   6.920
 3821POPC   C4B49582  25.086   8.171   7.217
 3822POPC   NC349583   8.777  21.086   5.448
 3822POPC   PO449584   8.831  20.352   5.427
 3822POPC   GL149585   8.877  20.485   5.834
 3822POPC   GL249586   9.046  20.803   5.839
 3822POPC   C1A49587   8.950  20.527   6.268
 3822POPC   D2A49588   9.175  20.574   6.623
 3822POPC   C3A49589   8.976  20.560   7.015
 3822POPC   C4A49590   9.032  20.372   7.458
 3822POPC   C1B49591   9.106  21.005   6.262
 3822POPC   C2B49592   8.992  21.048   6.680
 3822POPC   C3B49593   9.130  21.072   7.074
 3822POPC   C4B49594   9.041  20.876   7.409
 3823POPC   NC349595  38.730  44.344   5.254
 3823POPC   PO449596  38.106  44.650   5.410
 3823POPC   GL149597  38.278  44.733   5.830
 3823POPC   GL249598  38.674  44.872   5.835
 3823POPC   C1A49599  38.139  44.791   6.231
 3823POPC   D2A49600  38.375  44.721   6.582
 3823POPC   C3A49601  38.184  44.817   6.964
 3823POPC   C4A49602  38.045  44.576   7.318
 3823POPC   C1B49603  38.766  44.612   6.226
 3823POPC   C2B49604  38.864  44.452   6.631
 3823POPC   C3B49605  38.688  44.653   6.968
 3823POPC   C4B49606  38.547  44.542   7.311
 3824POPC   NC349607  41.656  24.532   5.344
 3824POPC   PO449608  41.199  24.749   5.747
 3824POPC   GL149609  41.367  24.428   5.940
 3824POPC   GL249610  41.714  24.464   5.836
 3824POPC   C1A49611  41.352  24.381   6.393
 3824POPC   D2A49612  41.581  24.657   6.696
 3824POPC   C3A49613  41.377  24.611   7.078
 3824POPC   C4A49614  41.350  24.289   7.321
 3824POPC   C1B49615  41.824  24.481   6.245
 3824POPC   C2B49616  41.794  24.174   6.575
 3824POPC   C3B49617  41.781  24.267   7.006
 3824POPC   C4B49618  41.906  24.650   7.210
 3825POPC   NC349619  10.724   9.995   5.398
 3825POPC   PO449620  10.269   9.650   5.469
 3825POPC   GL149621  10.384   9.769   5.839
 3825POPC   GL249622  10.045   9.771   5.925
 3825POPC   C1A49623  10.501   9.966   6.233
 3825POPC   D2A49624  10.445  10.222   6.655
 3825POPC   C3A49625  10.610  10.015   7.028
 3825POPC   C4A49626  10.551   9.620   7.229
 3825POPC   C1B49627  10.180   9.560   6.286
 3825POPC   C2B49628  10.312   9.706   6.699
 3825POPC   C3B49629  10.120   9.833   7.094
 3825POPC   C4B49630  10.140   9.631   7.531
 3826POPC   NC349631   9.477  33.187   5.508
 3826POPC   PO449632  10.045  32.886   5.280
 3826POPC   GL149633   9.873  33.002   5.761
 3826POPC   GL249634   9.773  32.728   5.951
 3826POPC   C1A49635   9.837  33.095   6.263
 3826POPC   D2A49636   9.816  32.808   6.665
 3826POPC   C3A49637   9.899  33.038   7.055
 3826POPC   C4A49638  10.031  33.468   7.186
 3826POPC   C1B49639   9.456  32.680   6.310
 3826POPC   C2B49640   9.296  32.635   6.736
 3826POPC   C3B49641   9.399  32.855   7.107
 3826POPC   C4B49642   9.664  32.751   7.435
 3827POPC   NC349643  37.468  21.524   5.043
 3827POPC   PO449644  36.871  21.595   5.449
 3827POPC   GL149645  36.922  21.424   5.928
 3827POPC   GL249646  37.213  21.173   6.032
 3827POPC   C1A49647  36.881  21.319   6.390
 3827POPC   D2A49648  36.982  21.583   6.734
 3827POPC   C3A49649  36.894  21.489   7.178
 3827POPC   C4A49650  36.609  21.192   7.368
 3827POPC   C1B49651  37.175  20.851   6.317
 3827POPC   C2B49652  37.224  20.947   6.707
 3827POPC   C3B49653  37.192  21.085   7.094
 3827POPC   C4B49654  37.103  21.125   7.501
 3828POPC   NC349655  12.891  14.163   5.427
 3828POPC   PO449656  12.849  14.781   5.419
 3828POPC   GL149657  12.793  14.566   5.829
 3828POPC   GL249658  12.675  14.239   5.864
 3828POPC   C1A49659  12.703  14.548   6.273
 3828POPC   D2A49660  12.798  14.725   6.642
 3828POPC   C3A49661  12.578  14.685   7.006
 3828POPC   C4A49662  12.787  14.761   7.342
 3828POPC   C1B49663  12.644  14.035   6.267
 3828POPC   C2B49664  12.617  14.194   6.672
 3828POPC   C3B49665  12.390  14.198   7.032
 3828POPC   C4B49666  12.584  14.306   7.394
 3829POPC   NC349667  21.762  11.594   5.460
 3829POPC   PO449668  21.383  11.094   5.417
 3829POPC   GL149669  21.287  11.190   5.817
 3829POPC   GL249670  21.368  11.490   5.840
 3829POPC   C1A49671  21.349  11.076   6.224
 3829POPC   D2A49672  21.115  10.907   6.555
 3829POPC   C3A49673  21.200  11.096   6.947
 3829POPC   C4A49674  21.419  11.092   7.335
 3829POPC   C1B49675  21.235  11.587   6.241
 3829POPC   C2B49676  21.202  11.568   6.660
 3829POPC   C3B49677  21.406  11.568   7.062
 3829POPC   C4B49678  21.559  11.572   7.477
 3830POPC   NC349679  39.593  21.724   5.478
 3830POPC   PO449680  39.660  21.075   5.648
 3830POPC   GL149681  39.436  21.168   6.015
 3830POPC   GL249682  39.109  21.253   5.950
 3830POPC   C1A49683  39.352  21.577   6.259
 3830POPC   D2A49684  39.041  21.804   6.547
 3830POPC   C3A49685  39.176  21.773   6.983
 3830POPC   C4A49686  39.347  21.458   7.198
 3830POPC   C1B49687  38.998  21.229   6.394
 3830POPC   C2B49688  38.959  21.350   6.797
 3830POPC   C3B49689  38.935  21.189   7.185
 3830POPC   C4B49690  39.277  20.973   7.388
 3831POPC   NC349691   5.255   8.301   5.332
 3831POPC   PO449692   4.529   8.434   5.309
 3831POPC   GL149693   4.883   8.323   5.666
 3831POPC   GL249694   4.829   7.987   5.856
 3831POPC   C1A49695   5.042   8.356   6.119
 3831POPC   D2A49696   5.011   8.178   6.550
 3831POPC   C3A49697   5.251   8.379   6.829
 3831POPC   C4A49698   5.183   8.380   7.250
 3831POPC   C1B49699   5.148   7.848   6.207
 3831POPC   C2B49700   5.211   7.706   6.629
 3831POPC   C3B49701   5.123   7.918   7.014
 3831POPC   C4B49702   5.255   7.815   7.422
 3832POPC   NC349703  40.108  10.693   5.418
 3832POPC   PO449704  39.930  10.086   5.548
 3832POPC   GL149705  40.041  10.425   5.847
 3832POPC   GL249706  40.365  10.578   5.865
 3832POPC   C1A49707  40.016  10.445   6.287
 3832POPC   D2A49708  39.942  10.141   6.630
 3832POPC   C3A49709  39.872  10.337   7.024
 3832POPC   C4A49710  39.843  10.794   7.091
 3832POPC   C1B49711  40.413  10.781   6.251
 3832POPC   C2B49712  40.194  10.750   6.665
 3832POPC   C3B49713  40.324  10.636   7.050
 3832POPC   C4B49714  40.473  10.782   7.428
 3833POPC   NC349715   1.213  26.117   5.441
 3833POPC   PO449716   0.788  25.616   5.751
 3833POPC   GL149717   1.100  25.948   5.948
 3833POPC   GL249718   1.399  26.181   5.895
 3833POPC   C1A49719   1.171  26.188   6.349
 3833POPC   D2A49720   1.243  26.011   6.755
 3833POPC   C3A49721   1.138  26.194   7.135
 3833POPC   C4A49722   1.184  26.269   7.575
 3833POPC   C1B49723   1.545  25.867   6.211
 3833POPC   C2B49724   1.711  25.898   6.618
 3833POPC   C3B49725   1.728  26.095   7.018
 3833POPC   C4B49726   1.736  25.825   7.361
 3834POPC   NC349727  14.850   9.230   5.515
 3834POPC   PO449728  15.533   9.188   5.389
 3834POPC   GL149729  15.377   9.031   5.785
 3834POPC   GL249730  15.096   8.793   5.723
 3834POPC   C1A49731  15.540   8.815   6.189
 3834POPC   D2A49732  15.326   8.839   6.586
 3834POPC   C3A49733  15.330   8.775   7.006
 3834POPC   C4A49734  15.207   9.192   7.177
 3834POPC   C1B49735  15.017   8.946   6.156
 3834POPC   C2B49736  14.815   8.801   6.531
 3834POPC   C3B49737  14.780   8.945   6.941
 3834POPC   C4B49738  14.915   8.755   7.306
 3835POPC   NC349739  43.854  38.828   5.369
 3835POPC   PO449740  43.689  38.155   5.380
 3835POPC   GL149741  43.704  38.439   5.724
 3835POPC   GL249742  43.759  38.170   5.921
 3835POPC   C1A49743  43.696  38.582   6.188
 3835POPC   D2A49744  43.903  38.736   6.564
 3835POPC   C3A49745  43.657  38.660   6.928
 3835POPC   C4A49746  44.009  38.635   7.167
 3835POPC   C1B49747  44.006  38.077   6.276
 3835POPC   C2B49748  43.941  38.239   6.678
 3835POPC   C3B49749  44.145  38.158   7.032
 3835POPC   C4B49750  44.017  37.913   7.328
 3836POPC   NC349751  43.485  18.486   5.077
 3836POPC   PO449752  43.023  18.091   5.529
 3836POPC   GL149753  43.158  18.188   5.921
 3836POPC   GL249754  43.061  18.503   5.926
 3836POPC   C1A49755  43.339  18.308   6.320
 3836POPC   D2A49756  43.198  18.354   6.722
 3836POPC   C3A49757  43.461  18.507   7.018
 3836POPC   C4A49758  43.260  18.380   7.406
 3836POPC   C1B49759  42.896  18.573   6.332
 3836POPC   C2B49760  42.726  18.531   6.725
 3836POPC   C3B49761  42.828  18.546   7.171
 3836POPC   C4B49762  42.812  18.505   7.633
 3837POPC   NC349763  20.769  44.220   5.358
 3837POPC   PO449764  20.551  43.585   5.511
 3837POPC   GL149765  20.783  43.862   5.789
 3837POPC   GL249766  20.528  44.094   5.806
 3837POPC   C1A49767  20.752  43.997   6.260
 3837POPC   D2A49768  20.762  44.034   6.735
 3837POPC   C3A49769  20.966  43.671   6.969
 3837POPC   C4A49770  21.167  43.597   7.409
 3837POPC   C1B49771  20.283  43.822   6.130
 3837POPC   C2B49772  20.188  43.648   6.578
 3837POPC   C3B49773  20.414  43.740   6.989
 3837POPC   C4B49774  20.541  44.184   7.210
 3838POPC   NC349775  25.770  29.065   5.411
 3838POPC   PO449776  25.161  29.122   5.628
 3838POPC   GL149777  25.501  29.147   5.869
 3838POPC   GL249778  25.611  29.481   5.763
 3838POPC   C1A49779  25.370  29.056   6.274
 3838POPC   D2A49780  25.129  29.322   6.495
 3838POPC   C3A49781  25.134  29.157   6.874
 3838POPC   C4A49782  25.025  29.220   7.254
 3838POPC   C1B49783  25.690  29.468   6.241
 3838POPC   C2B49784  25.593  29.310   6.686
 3838POPC   C3B49785  25.638  29.453   7.109
 3838POPC   C4B49786  25.568  29.307   7.536
 3839POPC   NC349787   9.222  21.954   5.213
 3839POPC   PO449788   8.622  21.944   5.356
 3839POPC   GL149789   8.880  22.127   5.688
 3839POPC   GL249790   9.234  22.245   5.694
 3839POPC   C1A49791   8.829  22.158   6.129
 3839POPC   D2A49792   8.810  22.307   6.566
 3839POPC   C3A49793   9.014  22.059   6.858
 3839POPC   C4A49794   9.121  21.916   7.260
 3839POPC   C1B49795   9.285  22.388   6.175
 3839POPC   C2B49796   9.282  22.525   6.652
 3839POPC   C3B49797   9.316  22.390   7.117
 3839POPC   C4B49798   9.389  22.453   7.587
 3840POPC   NC349799  26.694  12.380   5.451
 3840POPC   PO449800  27.142  11.723   5.415
 3840POPC   GL149801  27.022  11.861   5.795
 3840POPC   GL249802  26.708  11.991   5.789
 3840POPC   C1A49803  27.058  12.033   6.212
 3840POPC   D2A49804  26.913  12.098   6.632
 3840POPC   C3A49805  27.089  11.805   6.920
 3840POPC   C4A49806  27.015  11.922   7.339
 3840POPC   C1B49807  26.522  12.151   6.184
 3840POPC   C2B49808  26.418  12.317   6.632
 3840POPC   C3B49809  26.487  12.158   7.071
 3840POPC   C4B49810  26.394  12.201   7.540
 3841POPC   NC349811  44.239  34.627   5.186
 3841POPC   PO449812  43.585  34.824   5.327
 3841POPC   GL149813  43.767  34.806   5.778
 3841POPC   GL249814  43.981  34.491   5.737
 3841POPC   C1A49815  43.955  34.753   6.222
 3841POPC   D2A49816  43.981  34.549   6.636
 3841POPC   C3A49817  43.777  34.726   7.015
 3841POPC   C4A49818  43.919  34.803   7.472
 3841POPC   C1B49819  43.721  34.304   6.061
 3841POPC   C2B49820  43.608  34.231   6.491
 3841POPC   C3B49821  43.796  34.128   6.899
 3841POPC   C4B49822  43.827  34.322   7.296
 3842POPC   NC349823  10.090  19.598   5.521
 3842POPC   PO449824  10.604  19.940   5.429
 3842POPC   GL149825  10.459  19.804   5.821
 3842POPC   GL249826  10.481  19.433   5.880
 3842POPC   C1A49827  10.510  19.777   6.256
 3842POPC   D2A49828  10.329  19.694   6.635
 3842POPC   C3A49829  10.625  19.761   6.940
 3842POPC   C4A49830  10.711  20.104   7.210
 3842POPC   C1B49831  10.366  19.266   6.326
 3842POPC   C2B49832  10.279  19.201   6.812
 3842POPC   C3B49833  10.314  19.437   7.188
 3842POPC   C4B49834  10.286  19.861   7.314
 3843POPC   NC349835  31.405   1.070   5.361
 3843POPC   PO449836  31.881   0.792   5.668
 3843POPC   GL149837  31.567   1.062   5.871
 3843POPC   GL249838  31.391   1.371   5.762
 3843POPC   C1A49839  31.597   1.283   6.257
 3843POPC   D2A49840  31.778   1.262   6.696
 3843POPC   C3A49841  31.496   1.022   7.008
 3843POPC   C4A49842  31.547   0.760   7.369
 3843POPC   C1B49843  31.141   1.591   6.056
 3843POPC   C2B49844  31.352   1.673   6.454
 3843POPC   C3B49845  31.336   1.495   6.828
 3843POPC   C4B49846  31.166   1.394   7.203
 3844POPC   NC349847  27.949  22.351   5.478
 3844POPC   PO449848  27.461  21.862   5.448
 3844POPC   GL149849  27.321  22.004   5.883
 3844POPC   GL249850  27.344  22.405   5.896
 3844POPC   C1A49851  27.374  21.826   6.291
 3844POPC   D2A49852  27.567  22.107   6.585
 3844POPC   C3A49853  27.566  22.059   7.023
 3844POPC   C4A49854  27.733  21.904   7.399
 3844POPC   C1B49855  27.717  22.408   6.152
 3844POPC   C2B49856  27.927  22.470   6.536
 3844POPC   C3B49857  27.763  22.498   6.912
 3844POPC   C4B49858  27.777  22.448   7.350
 3845POPC   NC349859  41.849  19.929   5.648
 3845POPC   PO449860  41.405  19.584   5.319
 3845POPC   GL149861  41.406  19.671   5.813
 3845POPC   GL249862  41.719  19.634   6.035
 3845POPC   C1A49863  41.353  19.810   6.308
 3845POPC   D2A49864  41.447  20.077   6.666
 3845POPC   C3A49865  41.568  19.829   6.997
 3845POPC   C4A49866  41.652  19.364   7.049
 3845POPC   C1B49867  41.812  20.029   6.281
 3845POPC   C2B49868  41.961  20.114   6.673
 3845POPC   C3B49869  41.846  20.274   7.063
 3845POPC   C4B49870  41.496  20.309   7.309
 3846POPC   NC349871  19.501  21.030   5.391
 3846POPC   PO449872  19.027  21.678   5.318
 3846POPC   GL149873  18.994  21.519   5.764
 3846POPC   GL249874  18.657  21.555   5.782
 3846POPC   C1A49875  19.240  21.458   6.179
 3846POPC   D2A49876  19.044  21.291   6.547
 3846POPC   C3A49877  19.224  21.189   6.933
 3846POPC   C4A49878  19.336  21.387   7.287
 3846POPC   C1B49879  18.675  21.315   6.174
 3846POPC   C2B49880  18.558  21.156   6.583
 3846POPC   C3B49881  18.727  21.321   6.961
 3846POPC   C4B49882  18.838  21.440   7.356
 3847POPC   NC349883  29.945  20.786   5.394
 3847POPC   PO449884  29.396  20.515   5.444
 3847POPC   GL149885  29.642  20.775   5.825
 3847POPC   GL249886  30.008  20.914   5.868
 3847POPC   C1A49887  29.774  20.787   6.309
 3847POPC   D2A49888  29.879  20.512   6.680
 3847POPC   C3A49889  29.853  20.705   7.102
 3847POPC   C4A49890  29.460  20.640   7.315
 3847POPC   C1B49891  30.222  21.039   6.251
 3847POPC   C2B49892  30.287  20.854   6.661
 3847POPC   C3B49893  30.350  20.884   7.112
 3847POPC   C4B49894  30.319  20.861   7.595
 3848POPC   NC349895  24.629   3.809   5.354
 3848POPC   PO449896  24.399   4.540   5.365
 3848POPC   GL149897  24.522   4.228   5.686
 3848POPC   GL249898  24.459   4.486   5.923
 3848POPC   C1A49899  24.356   4.034   6.110
 3848POPC   D2A49900  24.285   4.258   6.523
 3848POPC   C3A49901  24.429   4.056   6.922
 3848POPC   C4A49902  24.237   3.980   7.317
 3848POPC   C1B49903  24.534   4.782   6.240
 3848POPC   C2B49904  24.782   4.808   6.611
 3848POPC   C3B49905  24.544   4.585   6.862
 3848POPC   C4B49906  24.514   4.479   7.238
 3849POPC   NC349907  16.285   7.097   5.558
 3849POPC   PO449908  15.915   7.663   5.247
 3849POPC   GL149909  15.964   7.578   5.712
 3849POPC   GL249910  16.329   7.620   5.754
 3849POPC   C1A49911  15.775   7.510   6.166
 3849POPC   D2A49912  15.751   7.379   6.629
 3849POPC   C3A49913  15.850   7.417   7.091
 3849POPC   C4A49914  16.222   7.210   7.301
 3849POPC   C1B49915  16.270   7.398   6.149
 3849POPC   C2B49916  16.293   7.312   6.589
 3849POPC   C3B49917  16.295   7.573   6.936
 3849POPC   C4B49918  16.371   7.696   7.341
 3850POPC   NC349919  20.130  21.449   5.424
 3850POPC   PO449920  19.442  21.453   5.551
 3850POPC   GL149921  19.784  21.245   5.803
 3850POPC   GL249922  20.160  21.153   5.836
 3850POPC   C1A49923  19.875  21.549   6.139
 3850POPC   D2A49924  19.625  21.692   6.509
 3850POPC   C3A49925  19.672  21.462   6.901
 3850POPC   C4A49926  19.934  21.299   7.230
 3850POPC   C1B49927  20.039  21.094   6.290
 3850POPC   C2B49928  20.112  21.127   6.741
 3850POPC   C3B49929  20.138  20.829   7.095
 3850POPC   C4B49930  20.057  20.926   7.533
 3851POPC   NC349931  40.275  11.583   5.279
 3851POPC   PO449932  39.832  11.073   5.416
 3851POPC   GL149933  40.035  10.994   5.823
 3851POPC   GL249934  40.120  11.339   5.873
 3851POPC   C1A49935  39.951  10.992   6.275
 3851POPC   D2A49936  40.089  11.241   6.652
 3851POPC   C3A49937  39.980  11.291   7.082
 3851POPC   C4A49938  39.952  11.512   7.478
 3851POPC   C1B49939  40.389  11.289   6.239
 3851POPC   C2B49940  40.605  11.164   6.623
 3851POPC   C3B49941  40.480  11.136   7.041
 3851POPC   C4B49942  40.402  11.306   7.447
 3852POPC   NC349943   8.890  36.353   5.497
 3852POPC   PO449944   9.121  35.715   5.574
 3852POPC   GL149945   9.086  36.012   5.863
 3852POPC   GL249946   8.725  36.014   5.930
 3852POPC   C1A49947   9.089  35.852   6.277
 3852POPC   D2A49948   8.842  35.737   6.624
 3852POPC   C3A49949   9.057  35.898   6.974
 3852POPC   C4A49950   8.842  36.025   7.304
 3852POPC   C1B49951   8.639  36.373   6.211
 3852POPC   C2B49952   8.665  36.482   6.673
 3852POPC   C3B49953   8.511  36.368   7.090
 3852POPC   C4B49954   8.692  36.455   7.506
 3853POPC   NC349955  22.837  12.320   5.125
 3853POPC   PO449956  23.131  11.800   5.487
 3853POPC   GL149957  22.985  12.042   5.850
 3853POPC   GL249958  22.710  12.262   5.772
 3853POPC   C1A49959  22.934  12.062   6.305
 3853POPC   D2A49960  23.080  11.842   6.666
 3853POPC   C3A49961  22.819  11.967   6.997
 3853POPC   C4A49962  22.984  11.823   7.356
 3853POPC   C1B49963  22.575  12.493   6.167
 3853POPC   C2B49964  22.573  12.655   6.607
 3853POPC   C3B49965  22.693  12.518   7.057
 3853POPC   C4B49966  22.662  12.217   7.417
 3854POPC   NC349967  38.764   9.224   5.647
 3854POPC   PO449968  38.261   8.794   5.476
 3854POPC   GL149969  38.427   8.816   5.830
 3854POPC   GL249970  38.726   8.704   5.704
 3854POPC   C1A49971  38.276   8.682   6.222
 3854POPC   D2A49972  38.261   8.917   6.590
 3854POPC   C3A49973  38.382   8.732   6.945
 3854POPC   C4A49974  38.552   9.042   7.208
 3854POPC   C1B49975  38.771   8.586   6.134
 3854POPC   C2B49976  38.747   8.754   6.543
 3854POPC   C3B49977  38.908   8.721   6.943
 3854POPC   C4B49978  39.000   8.856   7.342
 3855POPC   NC349979  26.270  42.912   5.479
 3855POPC   PO449980  25.597  42.993   5.303
 3855POPC   GL149981  25.761  43.193   5.756
 3855POPC   GL249982  26.096  43.071   5.916
 3855POPC   C1A49983  25.850  43.392   6.217
 3855POPC   D2A49984  25.792  43.579   6.660
 3855POPC   C3A49985  25.913  43.352   7.070
 3855POPC   C4A49986  26.255  43.353   7.384
 3855POPC   C1B49987  26.276  43.075   6.330
 3855POPC   C2B49988  25.973  43.082   6.629
 3855POPC   C3B49989  25.860  42.817   6.950
 3855POPC   C4B49990  25.978  42.838   7.371
 3856POPC   NC349991  16.345   7.514   5.233
 3856POPC   PO449992  16.787   7.150   5.474
 3856POPC   GL149993  16.708   7.269   5.866
 3856POPC   GL249994  16.839   7.600   5.909
 3856POPC   C1A49995  16.743   7.255   6.302
 3856POPC   D2A49996  16.813   6.999   6.635
 3856POPC   C3A49997  16.677   7.242   6.977
 3856POPC   C4A49998  16.716   7.299   7.408
 3856POPC   C1B49999  16.631   7.766   6.252
 3856POPC   C2B50000  16.705   7.727   6.684
 3856POPC   C3B50001  16.831   7.722   7.126
 3856POPC   C4B50002  16.817   7.781   7.603
 3857POPC   NC350003  28.154  24.012   5.459
 3857POPC   PO450004  28.543  23.437   5.351
 3857POPC   GL150005  28.531  23.581   5.850
 3857POPC   GL250006  28.308  23.815   5.882
 3857POPC   C1A50007  28.334  23.729   6.361
 3857POPC   D2A50008  28.590  23.909   6.718
 3857POPC   C3A50009  28.487  23.756   7.146
 3857POPC   C4A50010  28.198  23.634   7.485
 3857POPC   C1B50011  27.995  24.030   6.132
 3857POPC   C2B50012  27.942  24.087   6.554
 3857POPC   C3B50013  28.148  24.096   6.929
 3857POPC   C4B50014  28.204  24.120   7.367
 3858POPC   NC350015   4.249  42.578   5.483
 3858POPC   PO450016   4.140  41.929   5.483
 3858POPC   GL150017   4.302  42.190   5.842
 3858POPC   GL250018   4.068  42.476   5.937
 3858POPC   C1A50019   4.354  42.243   6.299
 3858POPC   D2A50020   4.074  42.125   6.636
 3858POPC   C3A50021   4.256  42.128   7.019
 3858POPC   C4A50022   4.370  42.388   7.326
 3858POPC   C1B50023   4.411  42.737   6.159
 3858POPC   C2B50024   4.672  42.623   6.531
 3858POPC   C3B50025   4.728  42.380   6.914
 3858POPC   C4B50026   4.849  42.548   7.304
 3859POPC   NC350027  17.954   1.092   5.556
 3859POPC   PO450028  17.476   1.518   5.410
 3859POPC   GL150029  17.415   1.159   5.728
 3859POPC   GL250030  17.093   1.225   5.838
 3859POPC   C1A50031  17.346   0.980   6.197
 3859POPC   D2A50032  17.374   1.181   6.636
 3859POPC   C3A50033  17.388   0.949   7.045
 3859POPC   C4A50034  17.595   1.082   7.428
 3859POPC   C1B50035  17.011   1.394   6.250
 3859POPC   C2B50036  16.985   1.635   6.639
 3859POPC   C3B50037  17.084   1.427   7.048
 3859POPC   C4B50038  17.126   1.293   7.472
 3860POPC   NC350039  41.947  36.906   5.543
 3860POPC   PO450040  42.587  36.877   5.563
 3860POPC   GL150041  42.437  37.140   5.904
 3860POPC   GL250042  42.141  37.350   5.842
 3860POPC   C1A50043  42.224  36.958   6.274
 3860POPC   D2A50044  42.383  36.677   6.618
 3860POPC   C3A50045  42.530  36.922   6.949
 3860POPC   C4A50046  42.261  37.003   7.289
 3860POPC   C1B50047  41.933  37.401   6.269
 3860POPC   C2B50048  41.842  37.179   6.671
 3860POPC   C3B50049  41.919  37.332   7.111
 3860POPC   C4B50050  41.941  37.246   7.590
 3861POPC   NC350051  37.873  37.817   5.369
 3861POPC   PO450052  37.362  37.496   5.337
 3861POPC   GL150053  37.586  37.449   5.748
 3861POPC   GL250054  37.610  37.793   5.831
 3861POPC   C1A50055  37.870  37.501   6.161
 3861POPC   D2A50056  37.944  37.780   6.566
 3861POPC   C3A50057  37.843  37.638   7.021
 3861POPC   C4A50058  37.638  37.386   7.365
 3861POPC   C1B50059  37.404  37.691   6.241
 3861POPC   C2B50060  37.446  37.676   6.681
 3861POPC   C3B50061  37.276  37.565   7.059
 3861POPC   C4B50062  37.475  37.873   7.302
 3862POPC   NC350063  23.595   8.777   5.464
 3862POPC   PO450064  23.383   9.412   5.575
 3862POPC   GL150065  23.504   9.094   5.872
 3862POPC   GL250066  23.875   8.974   5.827
 3862POPC   C1A50067  23.428   9.059   6.307
 3862POPC   D2A50068  23.601   9.240   6.658
 3862POPC   C3A50069  23.685   8.886   6.856
 3862POPC   C4A50070  23.806   8.782   7.209
 3862POPC   C1B50071  23.921   9.169   6.200
 3862POPC   C2B50072  24.065   9.050   6.559
 3862POPC   C3B50073  24.047   9.242   6.949
 3862POPC   C4B50074  23.717   9.367   7.171
 3863POPC   NC350075  27.972  34.409   5.430
 3863POPC   PO450076  27.416  34.845   5.414
 3863POPC   GL150077  27.470  34.623   5.759
 3863POPC   GL250078  27.765  34.704   5.865
 3863POPC   C1A50079  27.379  34.666   6.189
 3863POPC   D2A50080  27.522  34.491   6.546
 3863POPC   C3A50081  27.324  34.651   6.898
 3863POPC   C4A50082  27.559  34.824   7.184
 3863POPC   C1B50083  27.780  34.277   6.095
 3863POPC   C2B50084  28.054  34.083   6.448
 3863POPC   C3B50085  28.040  34.129   6.919
 3863POPC   C4B50086  27.633  34.312   7.114
 3864POPC   NC350087  10.168  11.315   5.397
 3864POPC   PO450088  10.833  11.079   5.469
 3864POPC   GL150089  10.498  11.134   5.812
 3864POPC   GL250090  10.315  11.463   5.862
 3864POPC   C1A50091  10.385  11.172   6.274
 3864POPC   D2A50092  10.368  11.255   6.732
 3864POPC   C3A50093  10.644  11.011   6.976
 3864POPC   C4A50094  10.677  10.902   7.413
 3864POPC   C1B50095  10.736  11.523   6.111
 3864POPC   C2B50096  10.836  11.656   6.568
 3864POPC   C3B50097  10.774  11.537   7.031
 3864POPC   C4B50098  10.465  11.368   7.320
 3865POPC   NC350099  38.606  13.819   5.427
 3865POPC   PO450100  38.453  13.204   5.507
 3865POPC   GL150101  38.454  13.520   5.818
 3865POPC   GL250102  38.176  13.800   5.799
 3865POPC   C1A50103  38.685  13.597   6.209
 3865POPC   D2A50104  38.785  13.483   6.631
 3865POPC   C3A50105  38.736  13.746   6.959
 3865POPC   C4A50106  38.668  13.646   7.372
 3865POPC   C1B50107  38.174  13.667   6.258
 3865POPC   C2B50108  38.289  13.622   6.714
 3865POPC   C3B50109  38.150  13.717   7.167
 3865POPC   C4B50110  37.888  13.563   7.565
 3866POPC   NC350111  31.901  22.364   5.326
 3866POPC   PO450112  31.311  22.028   5.377
 3866POPC   GL150113  31.625  22.051   5.706
 3866POPC   GL250114  31.389  22.152   5.965
 3866POPC   C1A50115  31.790  21.934   6.145
 3866POPC   D2A50116  31.455  21.846   6.462
 3866POPC   C3A50117  31.564  21.951   6.885
 3866POPC   C4A50118  31.648  22.044   7.298
 3866POPC   C1B50119  31.150  22.327   6.281
 3866POPC   C2B50120  31.070  22.554   6.621
 3866POPC   C3B50121  31.098  22.383   7.019
 3866POPC   C4B50122  31.211  22.360   7.459
 3867POPC   NC350123  29.479  17.665   5.503
 3867POPC   PO450124  28.913  18.139   5.513
 3867POPC   GL150125  29.007  18.046   5.906
 3867POPC   GL250126  29.379  17.989   5.896
 3867POPC   C1A50127  28.797  18.203   6.301
 3867POPC   D2A50128  28.905  18.569   6.569
 3867POPC   C3A50129  29.044  18.457   7.000
 3867POPC   C4A50130  29.417  18.565   7.228
 3867POPC   C1B50131  29.343  18.286   6.221
 3867POPC   C2B50132  29.215  18.135   6.604
 3867POPC   C3B50133  29.403  18.017   6.960
 3867POPC   C4B50134  29.215  18.051   7.344
 3868POPC   NC350135  41.662   4.174   5.422
 3868POPC   PO450136  41.542   4.761   5.752
 3868POPC   GL150137  41.601   4.328   5.903
 3868POPC   GL250138  41.737   3.980   5.872
 3868POPC   C1A50139  41.464   4.174   6.275
 3868POPC   D2A50140  41.418   4.466   6.614
 3868POPC   C3A50141  41.355   4.278   6.993
 3868POPC   C4A50142  41.693   4.239   7.238
 3868POPC   C1B50143  41.864   3.793   6.260
 3868POPC   C2B50144  41.775   3.679   6.674
 3868POPC   C3B50145  41.607   3.775   7.071
 3868POPC   C4B50146  41.615   3.806   7.536
 3869POPC   NC350147  31.159  43.074   5.422
 3869POPC   PO450148  30.520  42.984   5.273
 3869POPC   GL150149  30.665  43.050   5.696
 3869POPC   GL250150  30.839  42.724   5.707
 3869POPC   C1A50151  30.544  43.294   6.106
 3869POPC   D2A50152  30.528  43.559   6.515
 3869POPC   C3A50153  30.588  43.365   6.942
 3869POPC   C4A50154  30.510  42.922   7.132
 3869POPC   C1B50155  30.863  42.864   6.147
 3869POPC   C2B50156  30.763  43.065   6.543
 3869POPC   C3B50157  30.969  43.027   6.935
 3869POPC   C4B50158  30.950  42.702   7.256
 3870POPC   NC350159  10.522  32.723   5.204
 3870POPC   PO450160  10.309  33.238   5.637
 3870POPC   GL150161  10.316  33.057   6.019
 3870POPC   GL250162  10.568  32.845   5.970
 3870POPC   C1A50163  10.183  32.710   6.288
 3870POPC   D2A50164  10.289  32.587   6.676
 3870POPC   C3A50165  10.378  32.961   6.842
 3870POPC   C4A50166  10.405  33.136   7.218
 3870POPC   C1B50167  10.703  32.679   6.344
 3870POPC   C2B50168  10.837  32.742   6.773
 3870POPC   C3B50169  10.752  32.694   7.223
 3870POPC   C4B50170  10.961  32.706   7.658
 3871POPC   NC350171  12.405  33.361   5.167
 3871POPC   PO450172  11.964  33.040   5.231
 3871POPC   GL150173  11.911  32.897   5.676
 3871POPC   GL250174  11.938  32.551   5.787
 3871POPC   C1A50175  12.025  32.967   6.132
 3871POPC   D2A50176  11.984  33.220   6.531
 3871POPC   C3A50177  12.129  33.102   6.945
 3871POPC   C4A50178  12.492  32.913   7.143
 3871POPC   C1B50179  12.032  32.453   6.198
 3871POPC   C2B50180  12.180  32.654   6.563
 3871POPC   C3B50181  12.116  32.585   6.985
 3871POPC   C4B50182  11.798  32.790   7.211
 3872POPC   NC350183   5.214  26.172   5.473
 3872POPC   PO450184   4.598  25.874   5.551
 3872POPC   GL150185   4.835  26.143   5.868
 3872POPC   GL250186   5.191  26.088   5.962
 3872POPC   C1A50187   4.863  26.145   6.337
 3872POPC   D2A50188   5.068  26.184   6.763
 3872POPC   C3A50189   4.825  26.200   7.124
 3872POPC   C4A50190   4.722  26.607   7.238
 3872POPC   C1B50191   5.359  26.064   6.369
 3872POPC   C2B50192   5.337  25.764   6.691
 3872POPC   C3B50193   5.240  25.845   7.122
 3872POPC   C4B50194   5.413  26.068   7.451
 3873POPC   NC350195  31.286  41.963   5.435
 3873POPC   PO450196  31.310  42.641   5.510
 3873POPC   GL150197  31.306  42.373   5.850
 3873POPC   GL250198  31.640  42.207   5.736
 3873POPC   C1A50199  31.095  42.377   6.274
 3873POPC   D2A50200  30.986  42.527   6.692
 3873POPC   C3A50201  31.281  42.402   6.989
 3873POPC   C4A50202  31.396  42.459   7.387
 3873POPC   C1B50203  31.697  42.275   6.168
 3873POPC   C2B50204  31.644  42.352   6.590
 3873POPC   C3B50205  31.705  42.083   6.934
 3873POPC   C4B50206  31.796  42.150   7.340
 3874POPC   NC350207  25.405   2.341   5.250
 3874POPC   PO450208  25.099   1.744   5.125
 3874POPC   GL150209  25.342   1.922   5.532
 3874POPC   GL250210  25.356   1.707   5.719
 3874POPC   C1A50211  25.186   2.060   6.028
 3874POPC   D2A50212  25.422   2.060   6.456
 3874POPC   C3A50213  25.214   2.138   6.856
 3874POPC   C4A50214  25.198   2.325   7.259
 3874POPC   C1B50215  25.354   1.596   6.146
 3874POPC   C2B50216  25.113   1.658   6.515
 3874POPC   C3B50217  25.336   1.637   6.885
 3874POPC   C4B50218  25.362   1.825   7.282
 3875POPC   NC350219  24.412  26.931   5.466
 3875POPC   PO450220  24.644  26.279   5.317
 3875POPC   GL150221  24.613  26.485   5.721
 3875POPC   GL250222  24.251  26.582   5.804
 3875POPC   C1A50223  24.703  26.782   6.064
 3875POPC   D2A50224  24.518  26.817   6.462
 3875POPC   C3A50225  24.712  26.812   6.853
 3875POPC   C4A50226  24.595  26.961   7.207
 3875POPC   C1B50227  24.083  26.769   6.197
 3875POPC   C2B50228  24.053  26.897   6.655
 3875POPC   C3B50229  24.156  26.720   7.061
 3875POPC   C4B50230  24.187  26.878   7.507
 3876POPC   NC350231  20.191   5.948   5.475
 3876POPC   PO450232  20.904   5.850   5.432
 3876POPC   GL150233  20.609   5.719   5.767
 3876POPC   GL250234  20.603   6.060   5.809
 3876POPC   C1A50235  20.390   5.816   6.191
 3876POPC   D2A50236  20.596   5.861   6.608
 3876POPC   C3A50237  20.388   5.974   6.998
 3876POPC   C4A50238  20.603   5.736   7.296
 3876POPC   C1B50239  20.899   5.939   6.166
 3876POPC   C2B50240  20.971   6.214   6.553
 3876POPC   C3B50241  20.888   6.084   7.010
 3876POPC   C4B50242  20.867   6.106   7.495
 3877POPC   NC350243  43.402  22.684   5.096
 3877POPC   PO450244  43.052  23.030   5.500
 3877POPC   GL150245  43.251  22.942   5.875
 3877POPC   GL250246  43.101  22.607   5.844
 3877POPC   C1A50247  43.438  22.703   6.223
 3877POPC   D2A50248  43.298  22.726   6.648
 3877POPC   C3A50249  43.425  23.073   6.895
 3877POPC   C4A50250  43.342  22.966   7.296
 3877POPC   C1B50251  42.908  22.802   6.227
 3877POPC   C2B50252  42.760  22.743   6.647
 3877POPC   C3B50253  42.929  22.776   7.046
 3877POPC   C4B50254  42.796  22.926   7.447
 3878POPC   NC350255  20.859  32.179   5.501
 3878POPC   PO450256  20.250  32.576   5.526
 3878POPC   GL150257  20.450  32.226   5.884
 3878POPC   GL250258  20.746  31.963   5.951
 3878POPC   C1A50259  20.412  32.237   6.361
 3878POPC   D2A50260  20.396  32.613   6.675
 3878POPC   C3A50261  20.398  32.452   7.078
 3878POPC   C4A50262  20.362  32.024   7.172
 3878POPC   C1B50263  20.902  32.053   6.386
 3878POPC   C2B50264  20.783  32.258   6.782
 3878POPC   C3B50265  20.846  32.211   7.234
 3878POPC   C4B50266  21.016  32.074   7.623
 3879POPC   NC350267  15.172  28.395   5.437
 3879POPC   PO450268  15.874  28.373   5.299
 3879POPC   GL150269  15.564  28.261   5.711
 3879POPC   GL250270  15.230  28.059   5.798
 3879POPC   C1A50271  15.336  28.466   6.087
 3879POPC   D2A50272  15.392  28.529   6.533
 3879POPC   C3A50273  15.054  28.514   6.828
 3879POPC   C4A50274  15.127  28.394   7.243
 3879POPC   C1B50275  15.368  27.947   6.178
 3879POPC   C2B50276  15.141  28.082   6.512
 3879POPC   C3B50277  15.169  28.012   6.893
 3879POPC   C4B50278  15.078  27.899   7.286
 3880POPC   NC350279  35.571  29.626   5.473
 3880POPC   PO450280  35.289  30.199   5.476
 3880POPC   GL150281  35.238  30.021   5.849
 3880POPC   GL250282  35.077  29.722   5.751
 3880POPC   C1A50283  35.414  30.094   6.256
 3880POPC   D2A50284  35.465  30.167   6.684
 3880POPC   C3A50285  35.173  30.010   6.957
 3880POPC   C4A50286  35.429  30.157   7.270
 3880POPC   C1B50287  35.191  29.562   6.140
 3880POPC   C2B50288  35.281  29.684   6.550
 3880POPC   C3B50289  35.233  29.487   6.933
 3880POPC   C4B50290  35.250  29.653   7.312
 3881POPC   NC350291  28.441  13.280   5.634
 3881POPC   PO450292  28.162  13.835   5.287
 3881POPC   GL150293  28.144  13.713   5.753
 3881POPC   GL250294  28.108  14.004   5.930
 3881POPC   C1A50295  28.239  13.588   6.227
 3881POPC   D2A50296  28.597  13.638   6.563
 3881POPC   C3A50297  28.542  13.345   6.909
 3881POPC   C4A50298  28.215  13.354   7.250
 3881POPC   C1B50299  28.459  14.050   6.264
 3881POPC   C2B50300  28.405  14.134   6.689
 3881POPC   C3B50301  28.317  13.836   6.991
 3881POPC   C4B50302  28.586  13.701   7.274
 3882POPC   NC350303  30.268  18.325   5.433
 3882POPC   PO450304  29.582  18.106   5.449
 3882POPC   GL150305  29.846  18.327   5.767
 3882POPC   GL250306  30.151  18.163   5.890
 3882POPC   C1A50307  29.867  18.457   6.200
 3882POPC   D2A50308  29.746  18.241   6.561
 3882POPC   C3A50309  29.834  18.363   6.958
 3882POPC   C4A50310  29.723  18.168   7.330
 3882POPC   C1B50311  30.277  18.178   6.286
 3882POPC   C2B50312  30.220  18.025   6.694
 3882POPC   C3B50313  30.290  18.160   7.116
 3882POPC   C4B50314  30.160  18.490   7.365
 3883POPC   NC350315  26.735   8.854   5.473
 3883POPC   PO450316  26.457   9.446   5.362
 3883POPC   GL150317  26.782   9.286   5.743
 3883POPC   GL250318  27.034   8.962   5.862
 3883POPC   C1A50319  26.689   9.081   6.173
 3883POPC   D2A50320  27.014   9.168   6.449
 3883POPC   C3A50321  26.900   9.145   6.868
 3883POPC   C4A50322  26.645   9.060   7.207
 3883POPC   C1B50323  27.253   8.781   6.213
 3883POPC   C2B50324  27.411   8.878   6.642
 3883POPC   C3B50325  27.226   8.807   7.063
 3883POPC   C4B50326  27.028   8.833   7.456
 3884POPC   NC350327  13.309  12.618   5.373
 3884POPC   PO450328  12.733  12.434   5.594
 3884POPC   GL150329  12.727  12.854   5.801
 3884POPC   GL250330  13.053  12.856   5.802
 3884POPC   C1A50331  12.913  13.076   6.216
 3884POPC   D2A50332  13.125  12.861   6.572
 3884POPC   C3A50333  13.040  13.082   6.941
 3884POPC   C4A50334  12.705  13.031   7.165
 3884POPC   C1B50335  12.773  12.596   6.223
 3884POPC   C2B50336  12.640  12.646   6.656
 3884POPC   C3B50337  12.892  12.580   6.989
 3884POPC   C4B50338  12.811  12.254   7.216
 3885POPC   NC350339   4.103   6.269   5.546
 3885POPC   PO450340   4.670   6.182   5.219
 3885POPC   GL150341   4.501   5.915   5.628
 3885POPC   GL250342   4.160   5.831   5.787
 3885POPC   C1A50343   4.565   5.841   6.106
 3885POPC   D2A50344   4.648   5.602   6.459
 3885POPC   C3A50345   4.426   5.728   6.784
 3885POPC   C4A50346   4.355   5.767   7.201
 3885POPC   C1B50347   4.016   5.898   6.232
 3885POPC   C2B50348   4.234   6.149   6.516
 3885POPC   C3B50349   4.333   6.216   6.951
 3885POPC   C4B50350   4.076   6.174   7.293
 3886POPC   NC350351   4.876   3.175   5.275
 3886POPC   PO450352   5.097   3.739   5.384
 3886POPC   GL150353   5.165   3.682   5.812
 3886POPC   GL250354   5.018   3.375   5.836
 3886POPC   C1A50355   5.351   3.516   6.206
 3886POPC   D2A50356   5.205   3.300   6.591
 3886POPC   C3A50357   5.241   3.459   6.998
 3886POPC   C4A50358   5.305   3.673   7.372
 3886POPC   C1B50359   4.853   3.529   6.284
 3886POPC   C2B50360   4.794   3.593   6.776
 3886POPC   C3B50361   4.787   3.495   7.246
 3886POPC   C4B50362   4.736   3.357   7.705
 3887POPC   NC350363  31.685   8.672   5.255
 3887POPC   PO450364  31.303   9.264   5.141
 3887POPC   GL150365  31.412   9.015   5.563
 3887POPC   GL250366  31.722   8.863   5.739
 3887POPC   C1A50367  31.312   8.959   6.024
 3887POPC   D2A50368  31.524   8.862   6.453
 3887POPC   C3A50369  31.417   8.786   6.901
 3887POPC   C4A50370  31.198   8.974   7.249
 3887POPC   C1B50371  31.864   8.643   6.132
 3887POPC   C2B50372  32.025   8.669   6.587
 3887POPC   C3B50373  31.925   8.762   7.050
 3887POPC   C4B50374  32.051   8.705   7.514
 3888POPC   NC350375  18.746  14.649   5.405
 3888POPC   PO450376  18.995  14.021   5.436
 3888POPC   GL150377  19.054  14.363   5.749
 3888POPC   GL250378  19.256  14.661   5.629
 3888POPC   C1A50379  18.960  14.400   6.195
 3888POPC   D2A50380  19.126  14.236   6.585
 3888POPC   C3A50381  18.865  14.292   6.923
 3888POPC   C4A50382  18.901  13.992   7.231
 3888POPC   C1B50383  19.357  14.742   6.067
 3888POPC   C2B50384  19.155  14.787   6.482
 3888POPC   C3B50385  19.223  14.671   6.898
 3888POPC   C4B50386  19.147  14.768   7.350
 3889POPC   NC350387  10.382   3.802   5.071
 3889POPC   PO450388  10.640   3.318   5.443
 3889POPC   GL150389  10.538   3.377   5.890
 3889POPC   GL250390  10.668   3.749   6.044
 3889POPC   C1A50391  10.398   3.438   6.300
 3889POPC   D2A50392  10.346   3.800   6.519
 3889POPC   C3A50393  10.351   3.581   6.881
 3889POPC   C4A50394  10.538   3.448   7.210
 3889POPC   C1B50395  10.855   3.772   6.437
 3889POPC   C2B50396  10.837   3.807   6.885
 3889POPC   C3B50397  10.949   3.733   7.309
 3889POPC   C4B50398  10.849   3.685   7.804
 3890POPC   NC350399  39.222  21.177   5.468
 3890POPC   PO450400  39.176  20.440   5.343
 3890POPC   GL150401  39.164  20.705   5.725
 3890POPC   GL250402  39.459  20.653   5.889
 3890POPC   C1A50403  39.029  20.794   6.132
 3890POPC   D2A50404  38.911  20.618   6.514
 3890POPC   C3A50405  39.034  20.770   6.914
 3890POPC   C4A50406  38.924  20.587   7.306
 3890POPC   C1B50407  39.673  20.685   6.283
 3890POPC   C2B50408  39.711  20.507   6.701
 3890POPC   C3B50409  39.454  20.519   7.068
 3890POPC   C4B50410  39.475  20.537   7.517
 3891POPC   NC350411   9.487  35.486   5.420
 3891POPC   PO450412   9.994  35.017   5.394
 3891POPC   GL150413   9.762  35.167   5.757
 3891POPC   GL250414   9.893  35.522   5.750
 3891POPC   C1A50415   9.764  35.158   6.219
 3891POPC   D2A50416   9.707  35.082   6.629
 3891POPC   C3A50417   9.940  34.970   6.982
 3891POPC   C4A50418   9.729  35.050   7.365
 3891POPC   C1B50419   9.759  35.674   6.136
 3891POPC   C2B50420   9.643  35.585   6.545
 3891POPC   C3B50421   9.850  35.474   6.927
 3891POPC   C4B50422   9.679  35.566   7.296
 3892POPC   NC350423   6.757   8.274   5.626
 3892POPC   PO450424   6.183   7.902   5.567
 3892POPC   GL150425   6.396   8.113   5.926
 3892POPC   GL250426   6.793   8.127   6.096
 3892POPC   C1A50427   6.381   8.330   6.285
 3892POPC   D2A50428   6.719   8.438   6.520
 3892POPC   C3A50429   6.553   8.560   6.867
 3892POPC   C4A50430   6.674   8.183   7.033
 3892POPC   C1B50431   7.042   7.781   6.232
 3892POPC   C2B50432   7.110   7.593   6.615
 3892POPC   C3B50433   6.884   7.704   6.999
 3892POPC   C4B50434   6.720   7.859   7.409
 3893POPC   NC350435  40.623  43.500   5.558
 3893POPC   PO450436  41.008  44.112   5.338
 3893POPC   GL150437  40.937  43.891   5.732
 3893POPC   GL250438  40.593  43.988   5.799
 3893POPC   C1A50439  41.116  43.850   6.156
 3893POPC   D2A50440  41.006  43.613   6.544
 3893POPC   C3A50441  40.814  43.776   6.911
 3893POPC   C4A50442  41.018  43.862   7.295
 3893POPC   C1B50443  40.578  43.859   6.242
 3893POPC   C2B50444  40.370  43.696   6.615
 3893POPC   C3B50445  40.366  43.527   7.016
 3893POPC   C4B50446  40.511  43.791   7.360
 3894POPC   NC350447   3.116  29.926   5.455
 3894POPC   PO450448   2.526  30.025   5.595
 3894POPC   GL150449   2.570  29.948   6.009
 3894POPC   GL250450   2.938  29.929   5.946
 3894POPC   C1A50451   2.433  29.947   6.450
 3894POPC   D2A50452   2.611  30.088   6.832
 3894POPC   C3A50453   2.647  29.728   7.053
 3894POPC   C4A50454   2.714  29.632   7.480
 3894POPC   C1B50455   2.931  30.082   6.378
 3894POPC   C2B50456   3.115  29.881   6.730
 3894POPC   C3B50457   3.108  29.905   7.175
 3894POPC   C4B50458   2.963  30.043   7.560
 3895POPC   NC350459  40.654   8.396   5.412
 3895POPC   PO450460  41.268   8.109   5.569
 3895POPC   GL150461  40.913   8.042   5.885
 3895POPC   GL250462  40.703   8.306   5.904
 3895POPC   C1A50463  40.837   8.075   6.351
 3895POPC   D2A50464  41.065   8.090   6.751
 3895POPC   C3A50465  40.861   8.255   7.115
 3895POPC   C4A50466  41.021   8.249   7.538
 3895POPC   C1B50467  40.497   8.472   6.264
 3895POPC   C2B50468  40.595   8.450   6.685
 3895POPC   C3B50469  40.427   8.570   7.068
 3895POPC   C4B50470  40.595   8.536   7.470
 3896POPC   NC350471  27.349  25.603   5.315
 3896POPC   PO450472  27.639  25.001   5.415
 3896POPC   GL150473  27.605  25.076   5.857
 3896POPC   GL250474  27.926  24.896   5.900
 3896POPC   C1A50475  27.533  25.363   6.255
 3896POPC   D2A50476  27.647  25.627   6.679
 3896POPC   C3A50477  27.360  25.735   7.042
 3896POPC   C4A50478  27.307  25.874   7.515
 3896POPC   C1B50479  27.752  24.896   6.316
 3896POPC   C2B50480  27.699  25.109   6.671
 3896POPC   C3B50481  27.591  25.250   7.053
 3896POPC   C4B50482  27.904  25.236   7.398
 3897POPC   NC350483  12.932  16.845   5.437
 3897POPC   PO450484  12.548  16.280   5.358
 3897POPC   GL150485  12.732  16.471   5.759
 3897POPC   GL250486  12.849  16.822   5.941
 3897POPC   C1A50487  12.821  16.392   6.177
 3897POPC   D2A50488  12.831  16.671   6.530
 3897POPC   C3A50489  12.891  16.539   6.949
 3897POPC   C4A50490  12.677  16.225   7.210
 3897POPC   C1B50491  13.099  17.046   6.294
 3897POPC   C2B50492  13.222  16.957   6.722
 3897POPC   C3B50493  13.185  17.190   7.112
 3897POPC   C4B50494  12.895  16.900   7.334
 3898POPC   NC350495  40.308   0.001   5.196
 3898POPC   PO450496  39.692   0.322   5.427
 3898POPC   GL150497  39.793   0.548   5.811
 3898POPC   GL250498  40.122   0.712   5.799
 3898POPC   C1A50499  39.826   0.397   6.221
 3898POPC   D2A50500  40.068   0.211   6.505
 3898POPC   C3A50501  39.984   0.320   6.897
 3898POPC   C4A50502  39.778   0.466   7.236
 3898POPC   C1B50503  40.316   0.564   6.198
 3898POPC   C2B50504  40.538   0.430   6.575
 3898POPC   C3B50505  40.505   0.294   6.955
 3898POPC   C4B50506  40.331   0.482   7.273
 3899POPC   NC350507   8.985  44.161   5.460
 3899POPC   PO450508   8.629  43.600   5.555
 3899POPC   GL150509   8.835  43.868   5.890
 3899POPC   GL250510   9.157  44.119   5.944
 3899POPC   C1A50511   8.775  43.879   6.330
 3899POPC   D2A50512   8.690  44.148   6.675
 3899POPC   C3A50513   8.844  44.073   7.075
 3899POPC   C4A50514   8.781  43.766   7.369
 3899POPC   C1B50515   9.170  44.182   6.421
 3899POPC   C2B50516   9.336  43.992   6.801
 3899POPC   C3B50517   9.302  43.905   7.234
 3899POPC   C4B50518   9.131  44.090   7.550
 3900POPC   NC350519  22.531  34.217   5.392
 3900POPC   PO450520  22.387  33.448   5.456
 3900POPC   GL150521  22.228  33.739   5.816
 3900POPC   GL250522  22.396  34.064   5.857
 3900POPC   C1A50523  22.080  33.907   6.229
 3900POPC   D2A50524  21.930  33.857   6.651
 3900POPC   C3A50525  22.053  33.961   7.046
 3900POPC   C4A50526  22.008  33.612   7.276
 3900POPC   C1B50527  22.540  34.071   6.289
 3900POPC   C2B50528  22.383  34.166   6.699
 3900POPC   C3B50529  22.533  34.129   7.132
 3900POPC   C4B50530  22.572  33.924   7.546
 3901POPC   NC350531  16.717  23.905   5.466
 3901POPC   PO450532  16.329  23.419   5.752
 3901POPC   GL150533  16.713  23.575   5.897
 3901POPC   GL250534  16.714  23.890   5.970
 3901POPC   C1A50535  16.753  23.507   6.318
 3901POPC   D2A50536  16.526  23.499   6.703
 3901POPC   C3A50537  16.824  23.605   7.002
 3901POPC   C4A50538  16.935  23.393   7.371
 3901POPC   C1B50539  16.699  24.057   6.349
 3901POPC   C2B50540  16.385  24.086   6.660
 3901POPC   C3B50541  16.462  24.143   7.090
 3901POPC   C4B50542  16.625  23.828   7.400
 3902POPC   NC350543  27.451  41.263   5.170
 3902POPC   PO450544  27.789  41.799   5.474
 3902POPC   GL150545  27.714  41.586   5.835
 3902POPC   GL250546  27.721  41.255   5.733
 3902POPC   C1A50547  27.640  41.699   6.260
 3902POPC   D2A50548  27.521  41.505   6.619
 3902POPC   C3A50549  27.735  41.580   6.969
 3902POPC   C4A50550  27.604  41.781   7.311
 3902POPC   C1B50551  27.493  41.212   6.173
 3902POPC   C2B50552  27.303  41.054   6.608
 3902POPC   C3B50553  27.344  41.244   7.071
 3902POPC   C4B50554  27.473  41.323   7.545
 3903POPC   NC350555  37.247  21.326   5.561
 3903POPC   PO450556  37.879  21.484   5.251
 3903POPC   GL150557  37.863  21.519   5.808
 3903POPC   GL250558  37.534  21.566   5.902
 3903POPC   C1A50559  37.885  21.444   6.256
 3903POPC   D2A50560  37.666  21.232   6.579
 3903POPC   C3A50561  37.884  21.239   6.980
 3903POPC   C4A50562  37.627  21.150   7.349
 3903POPC   C1B50563  37.313  21.649   6.241
 3903POPC   C2B50564  37.470  21.717   6.629
 3903POPC   C3B50565  37.438  21.496   6.969
 3903POPC   C4B50566  37.358  21.581   7.355
 3904POPC   NC350567  12.754  20.236   5.442
 3904POPC   PO450568  12.542  20.980   5.425
 3904POPC   GL150569  12.662  20.679   5.800
 3904POPC   GL250570  12.816  20.340   5.931
 3904POPC   C1A50571  12.806  20.733   6.246
 3904POPC   D2A50572  12.951  20.544   6.625
 3904POPC   C3A50573  12.671  20.490   6.970
 3904POPC   C4A50574  12.602  20.605   7.403
 3904POPC   C1B50575  13.115  20.179   6.272
 3904POPC   C2B50576  13.312  20.195   6.700
 3904POPC   C3B50577  13.183  20.321   7.156
 3904POPC   C4B50578  13.196  20.055   7.539
 3905POPC   NC350579  14.785  17.529   5.714
 3905POPC   PO450580  14.124  17.454   5.474
 3905POPC   GL150581  14.090  17.621   5.859
 3905POPC   GL250582  14.363  17.445   6.023
 3905POPC   C1A50583  14.133  17.882   6.228
 3905POPC   D2A50584  14.365  17.796   6.596
 3905POPC   C3A50585  14.083  17.780   6.954
 3905POPC   C4A50586  14.276  17.485   7.259
 3905POPC   C1B50587  14.704  17.149   6.199
 3905POPC   C2B50588  14.870  17.143   6.599
 3905POPC   C3B50589  14.768  17.508   6.832
 3905POPC   C4B50590  14.791  17.534   7.263
 3906POPC   NC350591   9.968  10.533   5.380
 3906POPC   PO450592   9.349  10.467   5.508
 3906POPC   GL150593   9.614  10.548   5.868
 3906POPC   GL250594   9.646  10.900   6.052
 3906POPC   C1A50595   9.677  10.452   6.286
 3906POPC   D2A50596   9.640  10.764   6.578
 3906POPC   C3A50597   9.684  10.665   6.983
 3906POPC   C4A50598   9.519  10.432   7.288
 3906POPC   C1B50599  10.070  10.749   6.240
 3906POPC   C2B50600  10.254  10.737   6.683
 3906POPC   C3B50601  10.134  10.870   7.127
 3906POPC   C4B50602   9.687  10.985   7.371
 3907POPC   NC350603  15.994  10.250   5.612
 3907POPC   PO450604  15.701  10.852   5.405
 3907POPC   GL150605  15.823  10.764   5.823
 3907POPC   GL250606  15.581  10.505   5.777
 3907POPC   C1A50607  16.124  10.758   6.185
 3907POPC   D2A50608  16.318  10.578   6.582
 3907POPC   C3A50609  16.080  10.393   6.926
 3907POPC   C4A50610  16.207  10.376   7.343
 3907POPC   C1B50611  15.658  10.374   6.188
 3907POPC   C2B50612  15.770  10.594   6.540
 3907POPC   C3B50613  15.578  10.657   6.915
 3907POPC   C4B50614  15.716  10.512   7.286
 3908POPC   NC350615  41.798  28.557   5.309
 3908POPC   PO450616  41.406  27.985   5.390
 3908POPC   GL150617  41.549  28.248   5.761
 3908POPC   GL250618  41.763  28.549   5.838
 3908POPC   C1A50619  41.401  28.461   6.164
 3908POPC   D2A50620  41.542  28.603   6.571
 3908POPC   C3A50621  41.494  28.296   6.876
 3908POPC   C4A50622  41.372  28.411   7.267
 3908POPC   C1B50623  41.884  28.326   6.267
 3908POPC   C2B50624  41.997  28.262   6.738
 3908POPC   C3B50625  41.885  28.518   7.129
 3908POPC   C4B50626  41.661  28.758   7.484
 3909POPC   NC350627   4.179  28.799   5.162
 3909POPC   PO450628   4.404  29.320   5.497
 3909POPC   GL150629   4.322  29.303   5.895
 3909POPC   GL250630   4.206  29.628   5.902
 3909POPC   C1A50631   4.359  29.022   6.268
 3909POPC   D2A50632   4.644  29.051   6.619
 3909POPC   C3A50633   4.439  29.120   6.984
 3909POPC   C4A50634   4.154  28.836   7.164
 3909POPC   C1B50635   4.162  29.503   6.331
 3909POPC   C2B50636   3.927  29.212   6.553
 3909POPC   C3B50637   3.854  29.231   6.974
 3909POPC   C4B50638   4.129  29.389   7.282
 3910POPC   NC350639  42.024  35.656   5.624
 3910POPC   PO450640  42.549  35.895   5.381
 3910POPC   GL150641  42.516  36.233   5.729
 3910POPC   GL250642  42.293  35.994   5.891
 3910POPC   C1A50643  42.389  36.400   6.182
 3910POPC   D2A50644  42.393  36.146   6.603
 3910POPC   C3A50645  42.263  36.316   7.014
 3910POPC   C4A50646  41.883  36.357   7.232
 3910POPC   C1B50647  42.241  35.723   6.244
 3910POPC   C2B50648  42.365  35.619   6.621
 3910POPC   C3B50649  42.250  35.790   6.985
 3910POPC   C4B50650  42.451  35.767   7.331
 3911POPC   NC350651  36.113  32.983   5.512
 3911POPC   PO450652  35.517  32.708   5.531
 3911POPC   GL150653  35.862  32.667   5.921
 3911POPC   GL250654  36.254  32.748   5.958
 3911POPC   C1A50655  35.973  32.621   6.419
 3911POPC   D2A50656  35.988  32.954   6.808
 3911POPC   C3A50657  36.019  32.933   7.274
 3911POPC   C4A50658  36.223  32.684   7.612
 3911POPC   C1B50659  36.394  33.120   6.232
 3911POPC   C2B50660  36.246  33.370   6.617
 3911POPC   C3B50661  36.146  33.416   7.086
 3911POPC   C4B50662  36.394  33.554   7.454
 3912POPC   NC350663  38.560  35.603   5.631
 3912POPC   PO450664  38.049  35.392   5.187
 3912POPC   GL150665  38.139  35.300   5.723
 3912POPC   GL250666  38.405  35.131   5.873
 3912POPC   C1A50667  38.171  35.462   6.187
 3912POPC   D2A50668  38.363  35.343   6.613
 3912POPC   C3A50669  38.198  35.390   7.003
 3912POPC   C4A50670  38.092  35.213   7.357
 3912POPC   C1B50671  38.671  35.308   6.223
 3912POPC   C2B50672  38.882  35.244   6.600
 3912POPC   C3B50673  38.773  35.407   6.998
 3912POPC   C4B50674  38.587  35.339   7.397
 3913POPC   NC350675   1.656  15.275   5.491
 3913POPC   PO450676   0.998  15.306   5.343
 3913POPC   GL150677   1.000  15.204   5.798
 3913POPC   GL250678   1.359  15.239   5.889
 3913POPC   C1A50679   1.086  15.061   6.256
 3913POPC   D2A50680   1.140  15.295   6.613
 3913POPC   C3A50681   1.009  15.083   6.969
 3913POPC   C4A50682   1.024  15.313   7.337
 3913POPC   C1B50683   1.510  15.418   6.261
 3913POPC   C2B50684   1.660  15.288   6.669
 3913POPC   C3B50685   1.446  15.329   7.037
 3913POPC   C4B50686   1.465  15.609   7.373
 3914POPC   NC350687  42.334  17.103   5.465
 3914POPC   PO450688  42.624  16.668   5.104
 3914POPC   GL150689  42.446  16.639   5.625
 3914POPC   GL250690  42.137  16.640   5.815
 3914POPC   C1A50691  42.526  16.688   6.119
 3914POPC   D2A50692  42.287  16.617   6.524
 3914POPC   C3A50693  42.435  16.763   6.921
 3914POPC   C4A50694  42.635  16.513   7.221
 3914POPC   C1B50695  41.978  16.386   6.177
 3914POPC   C2B50696  42.045  16.158   6.576
 3914POPC   C3B50697  42.181  16.270   7.004
 3914POPC   C4B50698  42.114  16.614   7.306
 3915POPC   NC350699  26.681  41.560   5.306
 3915POPC   PO450700  27.258  41.356   5.582
 3915POPC   GL150701  27.018  41.593   5.892
 3915POPC   GL250702  26.660  41.558   5.838
 3915POPC   C1A50703  27.088  41.479   6.295
 3915POPC   D2A50704  26.993  41.437   6.718
 3915POPC   C3A50705  26.889  41.636   7.072
 3915POPC   C4A50706  27.125  41.654   7.408
 3915POPC   C1B50707  26.668  41.773   6.280
 3915POPC   C2B50708  26.481  41.673   6.711
 3915POPC   C3B50709  26.447  41.433   7.112
 3915POPC   C4B50710  26.624  41.614   7.530
 3916POPC   NC350711  40.073  42.567   5.296
 3916POPC   PO450712  39.745  42.147   5.654
 3916POPC   GL150713  40.123  42.262   5.843
 3916POPC   GL250714  40.169  42.564   5.814
 3916POPC   C1A50715  40.259  42.370   6.270
 3916POPC   D2A50716  40.199  42.144   6.628
 3916POPC   C3A50717  40.205  42.382   6.981
 3916POPC   C4A50718  40.285  42.136   7.308
 3916POPC   C1B50719  39.841  42.621   6.142
 3916POPC   C2B50720  39.844  42.509   6.589
 3916POPC   C3B50721  39.802  42.724   6.979
 3916POPC   C4B50722  40.001  42.683   7.373
 3917POPC   NC350723  16.123  18.229   5.499
 3917POPC   PO450724  16.839  18.171   5.549
 3917POPC   GL150725  16.624  18.308   5.900
 3917POPC   GL250726  16.418  18.604   5.813
 3917POPC   C1A50727  16.846  18.155   6.254
 3917POPC   D2A50728  17.035  17.926   6.553
 3917POPC   C3A50729  16.869  18.160   6.890
 3917POPC   C4A50730  16.903  18.164   7.318
 3917POPC   C1B50731  16.320  18.593   6.263
 3917POPC   C2B50732  16.466  18.337   6.600
 3917POPC   C3B50733  16.457  18.425   7.066
 3917POPC   C4B50734  16.424  18.388   7.529
 3918POPC   NC350735  27.421  30.917   5.440
 3918POPC   PO450736  27.913  30.431   5.602
 3918POPC   GL150737  27.791  30.696   5.910
 3918POPC   GL250738  27.476  30.716   5.902
 3918POPC   C1A50739  27.764  30.914   6.296
 3918POPC   D2A50740  27.723  30.721   6.682
 3918POPC   C3A50741  27.854  30.850   7.090
 3918POPC   C4A50742  27.912  30.556   7.391
 3918POPC   C1B50743  27.346  30.568   6.272
 3918POPC   C2B50744  27.384  30.338   6.653
 3918POPC   C3B50745  27.609  30.365   7.021
 3918POPC   C4B50746  27.411  30.454   7.398
 3919POPC   NC350747  21.099   4.556   5.600
 3919POPC   PO450748  20.391   4.336   5.298
 3919POPC   GL150749  20.459   4.360   5.823
 3919POPC   GL250750  20.800   4.250   5.856
 3919POPC   C1A50751  20.601   4.454   6.296
 3919POPC   D2A50752  20.830   4.520   6.728
 3919POPC   C3A50753  20.582   4.608   7.103
 3919POPC   C4A50754  20.553   4.494   7.547
 3919POPC   C1B50755  20.894   4.023   6.202
 3919POPC   C2B50756  20.651   3.976   6.553
 3919POPC   C3B50757  20.568   4.107   6.968
 3919POPC   C4B50758  20.476   4.009   7.406
 3920POPC   NC350759  40.489  22.251   5.683
 3920POPC   PO450760  41.058  21.953   5.600
 3920POPC   GL150761  40.875  22.057   5.979
 3920POPC   GL250762  40.605  21.824   5.915
 3920POPC   C1A50763  40.781  22.440   6.249
 3920POPC   D2A50764  40.684  22.778   6.557
 3920POPC   C3A50765  40.712  22.542   6.939
 3920POPC   C4A50766  41.051  22.291   7.146
 3920POPC   C1B50767  40.536  21.868   6.370
 3920POPC   C2B50768  40.442  21.937   6.824
 3920POPC   C3B50769  40.537  22.123   7.225
 3920POPC   C4B50770  40.638  21.847   7.584
 3921POPC   NC350771   9.564  37.031   5.581
 3921POPC   PO450772  10.031  36.485   5.540
 3921POPC   GL150773   9.767  36.609   5.872
 3921POPC   GL250774   9.898  36.918   5.954
 3921POPC   C1A50775   9.660  36.655   6.326
 3921POPC   D2A50776   9.618  36.479   6.761
 3921POPC   C3A50777   9.532  36.792   7.097
 3921POPC   C4A50778   9.544  37.064   7.465
 3921POPC   C1B50779  10.131  37.218   6.217
 3921POPC   C2B50780  10.256  37.133   6.637
 3921POPC   C3B50781  10.013  37.114   7.029
 3921POPC   C4B50782   9.985  37.355   7.406
 3922POPC   NC350783  12.592  15.158   5.533
 3922POPC   PO450784  12.245  14.700   5.227
 3922POPC   GL150785  12.082  14.921   5.635
 3922POPC   GL250786  11.791  15.167   5.744
 3922POPC   C1A50787  12.100  14.939   6.112
 3922POPC   D2A50788  11.960  15.031   6.544
 3922POPC   C3A50789  12.246  15.106   6.915
 3922POPC   C4A50790  12.379  15.039   7.389
 3922POPC   C1B50791  11.768  15.356   6.173
 3922POPC   C2B50792  11.808  15.521   6.592
 3922POPC   C3B50793  11.774  15.332   6.959
 3922POPC   C4B50794  11.969  15.308   7.306
 3923POPC   NC350795  43.068   2.683   5.339
 3923POPC   PO450796  42.820   3.285   5.483
 3923POPC   GL150797  43.050   3.098   5.845
 3923POPC   GL250798  43.171   2.744   5.823
 3923POPC   C1A50799  43.142   2.942   6.300
 3923POPC   D2A50800  43.297   2.623   6.637
 3923POPC   C3A50801  43.264   2.725   7.113
 3923POPC   C4A50802  43.301   2.758   7.579
 3923POPC   C1B50803  42.945   2.492   6.102
 3923POPC   C2B50804  42.782   2.604   6.498
 3923POPC   C3B50805  42.845   2.514   6.916
 3923POPC   C4B50806  42.798   2.658   7.327
 3924POPC   NC350807  11.614  27.611   5.354
 3924POPC   PO450808  11.061  27.400   5.604
 3924POPC   GL150809  11.208  27.705   5.900
 3924POPC   GL250810  11.582  27.789   5.872
 3924POPC   C1A50811  11.006  27.893   6.261
 3924POPC   D2A50812  11.127  27.894   6.711
 3924POPC   C3A50813  11.195  27.481   6.948
 3924POPC   C4A50814  11.167  27.340   7.380
 3924POPC   C1B50815  11.516  27.796   6.359
 3924POPC   C2B50816  11.627  27.774   6.829
 3924POPC   C3B50817  11.630  27.563   7.247
 3924POPC   C4B50818  11.667  27.258   7.619
 3925POPC   NC350819  39.635  33.017   5.648
 3925POPC   PO450820  40.287  33.315   5.543
 3925POPC   GL150821  40.095  33.078   5.914
 3925POPC   GL250822  39.998  32.731   5.935
 3925POPC   C1A50823  39.920  32.994   6.356
 3925POPC   D2A50824  39.749  32.842   6.764
 3925POPC   C3A50825  39.886  33.055   7.166
 3925POPC   C4A50826  39.934  33.020   7.634
 3925POPC   C1B50827  40.351  32.701   6.185
 3925POPC   C2B50828  40.397  32.914   6.578
 3925POPC   C3B50829  40.310  32.780   7.023
 3925POPC   C4B50830  40.024  32.596   7.337
 3926POPC   NC350831  23.099  10.545   5.342
 3926POPC   PO450832  22.511  10.882   5.525
 3926POPC   GL150833  22.902  10.729   5.795
 3926POPC   GL250834  23.062  10.380   5.820
 3926POPC   C1A50835  23.107  10.661   6.229
 3926POPC   D2A50836  23.023  10.357   6.588
 3926POPC   C3A50837  22.784  10.591   6.888
 3926POPC   C4A50838  22.887  10.623   7.297
 3926POPC   C1B50839  22.737  10.289   6.156
 3926POPC   C2B50840  22.467  10.141   6.499
 3926POPC   C3B50841  22.614  10.114   6.908
 3926POPC   C4B50842  22.488  10.302   7.247
 3927POPC   NC350843  21.041  19.243   5.611
 3927POPC   PO450844  20.412  18.899   5.502
 3927POPC   GL150845  20.541  19.281   5.800
 3927POPC   GL250846  20.251  19.489   5.915
 3927POPC   C1A50847  20.753  19.277   6.238
 3927POPC   D2A50848  20.896  18.870   6.444
 3927POPC   C3A50849  20.794  18.723   6.868
 3927POPC   C4A50850  20.689  18.834   7.290
 3927POPC   C1B50851  20.273  19.099   6.206
 3927POPC   C2B50852  20.436  19.058   6.623
 3927POPC   C3B50853  20.294  19.074   7.007
 3927POPC   C4B50854  20.514  19.358   7.170
 3928POPC   NC350855  21.305  33.214   5.391
 3928POPC   PO450856  21.131  32.562   5.611
 3928POPC   GL150857  21.360  32.919   5.850
 3928POPC   GL250858  21.518  33.272   5.860
 3928POPC   C1A50859  21.475  32.922   6.292
 3928POPC   D2A50860  21.561  32.852   6.735
 3928POPC   C3A50861  21.338  33.060   7.078
 3928POPC   C4A50862  21.338  32.984   7.526
 3928POPC   C1B50863  21.296  33.390   6.233
 3928POPC   C2B50864  21.135  33.242   6.640
 3928POPC   C3B50865  21.093  33.495   7.050
 3928POPC   C4B50866  21.334  33.486   7.471
 3929POPC   NC350867  17.372  39.640   5.708
 3929POPC   PO450868  16.845  39.212   5.434
 3929POPC   GL150869  16.712  39.347   5.832
 3929POPC   GL250870  16.959  39.568   6.007
 3929POPC   C1A50871  16.693  39.215   6.258
 3929POPC   D2A50872  16.970  39.305   6.575
 3929POPC   C3A50873  16.768  39.218   6.945
 3929POPC   C4A50874  16.883  38.896   7.208
 3929POPC   C1B50875  17.189  39.721   6.373
 3929POPC   C2B50876  17.102  39.750   6.823
 3929POPC   C3B50877  16.851  39.670   7.166
 3929POPC   C4B50878  16.819  39.361   7.497
 3930POPC   NC350879  18.617  21.480   5.262
 3930POPC   PO450880  18.446  21.020   5.609
 3930POPC   GL150881  18.222  21.294   5.883
 3930POPC   GL250882  18.112  21.646   5.812
 3930POPC   C1A50883  18.161  21.349   6.306
 3930POPC   D2A50884  17.968  21.678   6.484
 3930POPC   C3A50885  18.120  21.640   6.890
 3930POPC   C4A50886  18.281  21.309   7.205
 3930POPC   C1B50887  18.395  21.773   6.169
 3930POPC   C2B50888  18.587  21.676   6.601
 3930POPC   C3B50889  18.566  21.797   7.074
 3930POPC   C4B50890  18.201  21.781   7.367
 3931POPC   NC350891  25.335  18.893   5.321
 3931POPC   PO450892  24.809  19.315   5.168
 3931POPC   GL150893  25.121  19.268   5.599
 3931POPC   GL250894  25.020  19.470   5.874
 3931POPC   C1A50895  25.384  19.125   6.031
 3931POPC   D2A50896  25.336  19.043   6.543
 3931POPC   C3A50897  25.536  18.966   6.980
 3931POPC   C4A50898  25.362  18.728   7.370
 3931POPC   C1B50899  25.289  19.587   6.230
 3931POPC   C2B50900  25.263  19.532   6.660
 3931POPC   C3B50901  25.122  19.284   6.996
 3931POPC   C4B50902  25.021  19.441   7.383
 3932POPC   NC350903  32.680  27.579   5.498
 3932POPC   PO450904  32.140  27.732   5.236
 3932POPC   GL150905  32.123  27.696   5.663
 3932POPC   GL250906  31.945  27.983   5.724
 3932POPC   C1A50907  32.177  27.433   6.049
 3932POPC   D2A50908  32.373  27.371   6.477
 3932POPC   C3A50909  32.104  27.434   6.857
 3932POPC   C4A50910  32.206  27.538   7.289
 3932POPC   C1B50911  32.230  27.945   6.103
 3932POPC   C2B50912  32.263  27.872   6.556
 3932POPC   C3B50913  32.238  27.960   7.007
 3932POPC   C4B50914  32.044  27.989   7.453
 3933POPC   NC350915  19.737  37.376   5.339
 3933POPC   PO450916  20.327  37.621   5.482
 3933POPC   GL150917  19.951  37.749   5.740
 3933POPC   GL250918  19.594  37.949   5.787
 3933POPC   C1A50919  19.891  37.786   6.179
 3933POPC   D2A50920  19.968  37.555   6.554
 3933POPC   C3A50921  19.869  37.716   6.941
 3933POPC   C4A50922  19.779  37.459   7.272
 3933POPC   C1B50923  19.401  37.817   6.226
 3933POPC   C2B50924  19.431  37.662   6.639
 3933POPC   C3B50925  19.384  37.758   7.089
 3933POPC   C4B50926  19.386  37.724   7.561
 3934POPC   NC350927   7.884  27.942   5.542
 3934POPC   PO450928   8.439  27.574   5.550
 3934POPC   GL150929   8.170  27.452   5.887
 3934POPC   GL250930   8.042  27.750   5.989
 3934POPC   C1A50931   8.272  27.335   6.312
 3934POPC   D2A50932   8.089  27.334   6.709
 3934POPC   C3A50933   8.374  27.495   7.005
 3934POPC   C4A50934   8.707  27.244   7.178
 3934POPC   C1B50935   7.857  27.655   6.376
 3934POPC   C2B50936   7.925  27.849   6.805
 3934POPC   C3B50937   7.738  27.861   7.227
 3934POPC   C4B50938   7.923  27.598   7.590
 3935POPC   NC350939  14.800  13.165   5.611
 3935POPC   PO450940  15.368  12.725   5.417
 3935POPC   GL150941  15.355  12.704   5.857
 3935POPC   GL250942  15.105  12.931   5.928
 3935POPC   C1A50943  15.358  12.758   6.322
 3935POPC   D2A50944  15.550  13.015   6.644
 3935POPC   C3A50945  15.438  12.892   7.024
 3935POPC   C4A50946  15.360  13.064   7.422
 3935POPC   C1B50947  14.851  12.996   6.298
 3935POPC   C2B50948  14.983  12.922   6.704
 3935POPC   C3B50949  14.968  13.083   7.111
 3935POPC   C4B50950  14.824  13.134   7.532
 3936POPC   NC350951  15.641  37.419   5.638
 3936POPC   PO450952  16.251  37.697   5.482
 3936POPC   GL150953  16.093  37.519   5.864
 3936POPC   GL250954  15.774  37.623   6.070
 3936POPC   C1A50955  16.261  37.514   6.243
 3936POPC   D2A50956  16.336  37.789   6.532
 3936POPC   C3A50957  16.023  37.797   6.827
 3936POPC   C4A50958  16.123  37.710   7.286
 3936POPC   C1B50959  15.824  37.245   6.301
 3936POPC   C2B50960  15.946  37.290   6.716
 3936POPC   C3B50961  15.767  37.426   7.061
 3936POPC   C4B50962  15.607  37.838   7.117
 3937POPC   NC350963   6.088  33.055   5.412
 3937POPC   PO450964   5.498  33.429   5.456
 3937POPC   GL150965   5.712  33.157   5.847
 3937POPC   GL250966   6.089  33.137   5.893
 3937POPC   C1A50967   5.650  32.866   6.258
 3937POPC   D2A50968   5.919  32.667   6.632
 3937POPC   C3A50969   5.859  32.838   7.063
 3937POPC   C4A50970   5.676  32.863   7.525
 3937POPC   C1B50971   6.139  32.940   6.248
 3937POPC   C2B50972   6.074  33.179   6.613
 3937POPC   C3B50973   6.233  33.243   7.009
 3937POPC   C4B50974   5.982  33.280   7.388
 3938POPC   NC350975  17.195  19.382   5.449
 3938POPC   PO450976  17.718  19.800   5.567
 3938POPC   GL150977  17.478  19.714   5.935
 3938POPC   GL250978  17.289  20.003   5.914
 3938POPC   C1A50979  17.431  19.824   6.393
 3938POPC   D2A50980  17.708  20.029   6.711
 3938POPC   C3A50981  17.774  19.820   7.075
 3938POPC   C4A50982  17.535  19.604   7.348
 3938POPC   C1B50983  17.025  20.141   6.249
 3938POPC   C2B50984  16.993  19.950   6.668
 3938POPC   C3B50985  17.262  19.937   7.041
 3938POPC   C4B50986  17.480  20.113   7.420
 3939POPC   NC350987  26.769  42.550   5.512
 3939POPC   PO450988  26.853  41.929   5.519
 3939POPC   GL150989  26.547  42.074   5.807
 3939POPC   GL250990  26.833  42.255   5.957
 3939POPC   C1A50991  26.411  42.231   6.225
 3939POPC   D2A50992  26.787  42.297   6.489
 3939POPC   C3A50993  26.808  42.111   6.899
 3939POPC   C4A50994  26.732  42.307   7.305
 3939POPC   C1B50995  27.119  42.573   6.140
 3939POPC   C2B50996  27.212  42.705   6.561
 3939POPC   C3B50997  27.075  42.550   6.959
 3939POPC   C4B50998  27.020  42.721   7.371
 3940POPC   NC350999  40.751  40.427   5.428
 3940POPC   PO451000  40.378  41.004   5.392
 3940POPC   GL151001  40.498  40.748   5.789
 3940POPC   GL251002  40.867  40.693   5.857
 3940POPC   C1A51003  40.556  40.604   6.256
 3940POPC   D2A51004  40.711  40.791   6.661
 3940POPC   C3A51005  40.606  40.583   7.051
 3940POPC   C4A51006  40.732  40.627   7.512
 3940POPC   C1B51007  41.110  40.747   6.248
 3940POPC   C2B51008  41.296  40.544   6.625
 3940POPC   C3B51009  41.113  40.613   7.037
 3940POPC   C4B51010  41.220  40.854   7.414
 3941POPC   NC351011  41.127  21.560   5.344
 3941POPC   PO451012  40.534  21.211   5.182
 3941POPC   GL151013  40.633  21.364   5.635
 3941POPC   GL251014  40.963  21.406   5.797
 3941POPC   C1A51015  40.514  21.372   6.095
 3941POPC   D2A51016  40.431  21.218   6.493
 3941POPC   C3A51017  40.597  21.350   6.880
 3941POPC   C4A51018  40.502  21.137   7.236
 3941POPC   C1B51019  40.968  21.586   6.196
 3941POPC   C2B51020  40.970  21.357   6.541
 3941POPC   C3B51021  41.092  21.441   6.940
 3941POPC   C4B51022  40.900  21.786   7.132
 3942POPC   NC351023  35.469   9.591   5.475
 3942POPC   PO451024  35.025  10.130   5.436
 3942POPC   GL151025  35.217   9.924   5.834
 3942POPC   GL251026  35.055   9.624   5.807
 3942POPC   C1A51027  35.385   9.629   6.215
 3942POPC   D2A51028  35.485   9.410   6.643
 3942POPC   C3A51029  35.378   9.659   6.992
 3942POPC   C4A51030  35.531   9.905   7.315
 3942POPC   C1B51031  34.874   9.767   6.190
 3942POPC   C2B51032  35.039   9.679   6.593
 3942POPC   C3B51033  34.834   9.586   6.980
 3942POPC   C4B51034  35.012   9.626   7.370
 3943POPC   NC351035  29.743  40.454   5.555
 3943POPC   PO451036  30.111  40.971   5.473
 3943POPC   GL151037  29.959  40.847   5.849
 3943POPC   GL251038  30.133  40.534   5.879
 3943POPC   C1A51039  29.715  41.001   6.188
 3943POPC   D2A51040  29.651  40.982   6.615
 3943POPC   C3A51041  29.848  40.679   6.818
 3943POPC   C4A51042  29.780  40.498   7.192
 3943POPC   C1B51043  30.074  40.638   6.332
 3943POPC   C2B51044  30.291  40.458   6.686
 3943POPC   C3B51045  30.285  40.572   7.124
 3943POPC   C4B51046  30.573  40.557   7.470
 3944POPC   NC351047  17.011   0.915   5.423
 3944POPC   PO451048  16.730   1.477   5.586
 3944POPC   GL151049  16.575   1.284   5.905
 3944POPC   GL251050  16.323   1.133   5.727
 3944POPC   C1A51051  16.505   1.344   6.315
 3944POPC   D2A51052  16.704   1.219   6.644
 3944POPC   C3A51053  16.580   1.429   6.962
 3944POPC   C4A51054  16.611   1.343   7.357
 3944POPC   C1B51055  16.252   0.923   6.118
 3944POPC   C2B51056  16.392   0.830   6.532
 3944POPC   C3B51057  16.371   0.962   6.955
 3944POPC   C4B51058  16.502   0.846   7.370
 3945POPC   NC351059  44.107  22.950   5.195
 3945POPC   PO451060  43.560  22.814   5.498
 3945POPC   GL151061  43.772  23.023   5.789
 3945POPC   GL251062  44.091  22.966   5.725
 3945POPC   C1A51063  43.710  23.153   6.190
 3945POPC   D2A51064  43.774  22.932   6.556
 3945POPC   C3A51065  43.950  23.113   6.917
 3945POPC   C4A51066  43.799  23.240   7.274
 3945POPC   C1B51067  44.125  22.855   6.163
 3945POPC   C2B51068  44.270  22.860   6.592
 3945POPC   C3B51069  44.216  22.682   6.965
 3945POPC   C4B51070  44.223  22.913   7.342
 3946POPC   NC351071   8.245  28.870   5.632
 3946POPC   PO451072   8.271  28.218   5.578
 3946POPC   GL151073   8.134  28.278   5.954
 3946POPC   GL251074   8.393  28.091   6.108
 3946POPC   C1A51075   7.920  28.187   6.337
 3946POPC   D2A51076   7.787  28.365   6.740
 3946POPC   C3A51077   8.004  28.297   7.152
 3946POPC   C4A51078   8.141  28.047   7.509
 3946POPC   C1B51079   8.362  28.478   6.386
 3946POPC   C2B51080   8.300  28.590   6.834
 3946POPC   C3B51081   8.419  28.591   7.283
 3946POPC   C4B51082   8.541  28.763   7.721
 3947POPC   NC351083  44.155  21.782   5.147
 3947POPC   PO451084  43.831  22.368   5.291
 3947POPC   GL151085  43.880  22.160   5.769
 3947POPC   GL251086  43.899  22.503   5.860
 3947POPC   C1A51087  43.610  21.974   6.119
 3947POPC   D2A51088  43.769  21.933   6.532
 3947POPC   C3A51089  43.586  22.061   6.943
 3947POPC   C4A51090  43.763  22.130   7.347
 3947POPC   C1B51091  44.025  22.332   6.264
 3947POPC   C2B51092  43.829  22.434   6.665
 3947POPC   C3B51093  43.723  22.675   7.031
 3947POPC   C4B51094  43.766  22.750   7.483
 3948POPC   NC351095  17.136   3.384   5.476
 3948POPC   PO451096  16.585   3.751   5.515
 3948POPC   GL151097  16.753   3.723   5.907
 3948POPC   GL251098  17.115   3.825   5.813
 3948POPC   C1A51099  16.695   3.351   6.186
 3948POPC   D2A51100  16.788   3.213   6.591
 3948POPC   C3A51101  16.486   3.296   6.879
 3948POPC   C4A51102  16.491   3.513   7.261
 3948POPC   C1B51103  17.159   3.583   6.197
 3948POPC   C2B51104  17.041   3.724   6.618
 3948POPC   C3B51105  16.936   3.550   7.008
 3948POPC   C4B51106  17.188   3.412   7.347
 3949POPC   NC351107  15.036  15.589   5.488
 3949POPC   PO451108  15.363  16.187   5.373
 3949POPC   GL151109  15.181  16.168   5.780
 3949POPC   GL251110  15.144  15.870   5.877
 3949POPC   C1A51111  15.341  16.226   6.197
 3949POPC   D2A51112  15.151  16.073   6.566
 3949POPC   C3A51113  15.321  16.280   6.918
 3949POPC   C4A51114  15.227  16.374   7.349
 3949POPC   C1B51115  14.955  15.763   6.218
 3949POPC   C2B51116  14.760  15.696   6.600
 3949POPC   C3B51117  14.837  15.633   7.018
 3949POPC   C4B51118  15.232  15.822   7.138
 3950POPC   NC351119  39.213  31.004   5.455
 3950POPC   PO451120  38.892  30.389   5.503
 3950POPC   GL151121  38.965  30.675   5.822
 3950POPC   GL251122  39.326  30.666   5.843
 3950POPC   C1A51123  39.042  30.780   6.261
 3950POPC   D2A51124  39.041  30.938   6.669
 3950POPC   C3A51125  39.041  30.617   6.960
 3950POPC   C4A51126  38.998  30.817   7.315
 3950POPC   C1B51127  39.548  30.821   6.189
 3950POPC   C2B51128  39.538  31.059   6.563
 3950POPC   C3B51129  39.469  30.901   6.965
 3950POPC   C4B51130  39.572  30.603   7.230
 3951POPC   NC351131  13.236  29.090   5.618
 3951POPC   PO451132  12.688  29.523   5.543
 3951POPC   GL151133  12.802  29.282   5.909
 3951POPC   GL251134  12.769  28.941   5.864
 3951POPC   C1A51135  12.828  29.143   6.359
 3951POPC   D2A51136  13.183  29.031   6.631
 3951POPC   C3A51137  13.130  29.208   7.031
 3951POPC   C4A51138  12.760  29.295   7.267
 3951POPC   C1B51139  12.534  28.750   6.231
 3951POPC   C2B51140  12.741  28.671   6.609
 3951POPC   C3B51141  12.719  28.891   6.957
 3951POPC   C4B51142  12.416  28.909   7.284
 3952POPC   NC351143   1.653  19.433   5.505
 3952POPC   PO451144   2.061  18.914   5.334
 3952POPC   GL151145   2.113  18.998   5.770
 3952POPC   GL251146   1.784  19.087   5.885
 3952POPC   C1A51147   2.187  18.795   6.152
 3952POPC   D2A51148   1.912  18.704   6.510
 3952POPC   C3A51149   2.054  18.893   6.908
 3952POPC   C4A51150   1.951  18.906   7.347
 3952POPC   C1B51151   1.901  19.194   6.316
 3952POPC   C2B51152   1.990  19.363   6.735
 3952POPC   C3B51153   1.764  19.322   7.116
 3952POPC   C4B51154   1.657  19.279   7.531
 3953POPC   NC351155   0.147  39.767   5.497
 3953POPC   PO451156   0.642  40.256   5.527
 3953POPC   GL151157   0.507  40.074   5.881
 3953POPC   GL251158   0.738  40.356   6.030
 3953POPC   C1A51159   0.240  39.819   6.181
 3953POPC   D2A51160   0.038  39.869   6.601
 3953POPC   C3A51161   0.120  39.628   6.969
 3953POPC   C4A51162   0.252  39.927   7.224
 3953POPC   C1B51163   0.670  40.019   6.362
 3953POPC   C2B51164   0.615  39.859   6.794
 3953POPC   C3B51165   0.882  39.989   7.163
 3953POPC   C4B51166   0.954  40.441   7.275
 3954POPC   NC351167  14.937  22.448   5.466
 3954POPC   PO451168  14.840  21.833   5.532
 3954POPC   GL151169  15.013  22.130   5.868
 3954POPC   GL251170  15.370  22.289   5.797
 3954POPC   C1A51171  15.170  22.251   6.301
 3954POPC   D2A51172  15.118  22.283   6.758
 3954POPC   C3A51173  15.043  21.933   7.020
 3954POPC   C4A51174  15.188  22.059   7.424
 3954POPC   C1B51175  15.517  22.625   6.107
 3954POPC   C2B51176  15.403  22.693   6.565
 3954POPC   C3B51177  15.442  22.619   7.047
 3954POPC   C4B51178  15.404  22.511   7.520
 3955POPC   NC351179  16.009  34.001   5.433
 3955POPC   PO451180  15.470  33.544   5.418
 3955POPC   GL151181  15.722  33.757   5.784
 3955POPC   GL251182  16.074  33.671   5.844
 3955POPC   C1A51183  15.841  33.896   6.225
 3955POPC   D2A51184  15.811  33.616   6.576
 3955POPC   C3A51185  15.999  33.618   6.946
 3955POPC   C4A51186  16.114  33.972   7.183
 3955POPC   C1B51187  16.285  33.590   6.261
 3955POPC   C2B51188  16.432  33.524   6.700
 3955POPC   C3B51189  16.439  33.572   7.191
 3955POPC   C4B51190  16.088  33.455   7.446
 3956POPC   NC351191  31.720  15.463   5.462
 3956POPC   PO451192  31.386  14.818   5.489
 3956POPC   GL151193  31.437  15.106   5.841
 3956POPC   GL251194  31.767  15.160   5.871
 3956POPC   C1A51195  31.516  15.265   6.283
 3956POPC   D2A51196  31.293  15.389   6.646
 3956POPC   C3A51197  31.527  15.296   7.001
 3956POPC   C4A51198  31.397  15.051   7.308
 3956POPC   C1B51199  31.953  14.965   6.231
 3956POPC   C2B51200  31.873  14.857   6.664
 3956POPC   C3B51201  31.943  14.990   7.093
 3956POPC   C4B51202  31.842  15.260   7.455
 3957POPC   NC351203  29.773   5.447   5.199
 3957POPC   PO451204  30.257   5.918   5.430
 3957POPC   GL151205  30.021   5.813   5.782
 3957POPC   GL251206  29.785   5.548   5.732
 3957POPC   C1A51207  30.147   5.790   6.204
 3957POPC   D2A51208  30.029   5.953   6.621
 3957POPC   C3A51209  30.130   5.695   7.000
 3957POPC   C4A51210  29.911   5.806   7.399
 3957POPC   C1B51211  29.663   5.713   6.177
 3957POPC   C2B51212  29.621   5.594   6.600
 3957POPC   C3B51213  29.629   5.577   7.029
 3957POPC   C4B51214  29.370   5.423   7.339
 3958POPC   NC351215  24.949  31.157   5.341
 3958POPC   PO451216  25.568  31.447   5.518
 3958POPC   GL151217  25.221  31.300   5.781
 3958POPC   GL251218  24.936  31.468   5.762
 3958POPC   C1A51219  25.201  31.329   6.239
 3958POPC   D2A51220  25.092  31.453   6.662
 3958POPC   C3A51221  25.399  31.346   7.008
 3958POPC   C4A51222  25.788  31.375   7.265
 3958POPC   C1B51223  24.793  31.128   6.017
 3958POPC   C2B51224  24.732  31.123   6.450
 3958POPC   C3B51225  24.751  31.135   6.892
 3958POPC   C4B51226  24.955  31.323   7.261
 3959POPC   NC351227  25.244  27.349   5.404
 3959POPC   PO451228  25.334  28.045   5.459
 3959POPC   GL151229  25.262  27.736   5.827
 3959POPC   GL251230  25.021  27.436   5.872
 3959POPC   C1A51231  25.318  27.559   6.270
 3959POPC   D2A51232  25.548  27.672   6.661
 3959POPC   C3A51233  25.298  27.615   7.012
 3959POPC   C4A51234  24.988  27.855   7.226
 3959POPC   C1B51235  24.821  27.286   6.279
 3959POPC   C2B51236  24.974  27.280   6.723
 3959POPC   C3B51237  24.891  27.351   7.163
 3959POPC   C4B51238  24.943  27.192   7.580
 3960POPC   NC351239  29.509  11.349   5.402
 3960POPC   PO451240  30.125  11.057   5.339
 3960POPC   GL151241  29.933  11.175   5.717
 3960POPC   GL251242  29.743  10.909   5.839
 3960POPC   C1A51243  30.014  11.202   6.166
 3960POPC   D2A51244  29.883  11.333   6.565
 3960POPC   C3A51245  30.050  11.206   6.932
 3960POPC   C4A51246  29.977  11.551   7.237
 3960POPC   C1B51247  29.565  10.966   6.282
 3960POPC   C2B51248  29.358  11.217   6.622
 3960POPC   C3B51249  29.562  11.346   6.977
 3960POPC   C4B51250  29.692  11.053   7.275
 3961POPC   NC351251  27.212  32.881   5.347
 3961POPC   PO451252  26.517  32.725   5.333
 3961POPC   GL151253  26.736  32.906   5.736
 3961POPC   GL251254  27.086  32.804   5.834
 3961POPC   C1A51255  26.730  33.161   6.137
 3961POPC   D2A51256  26.805  33.168   6.586
 3961POPC   C3A51257  27.074  33.196   6.923
 3961POPC   C4A51258  26.961  33.148   7.335
 3961POPC   C1B51259  27.088  32.795   6.284
 3961POPC   C2B51260  26.901  32.648   6.663
 3961POPC   C3B51261  26.819  32.738   7.067
 3961POPC   C4B51262  27.091  32.626   7.346
 3962POPC   NC351263   4.555  34.729   5.515
 3962POPC   PO451264   3.933  34.770   5.636
 3962POPC   GL151265   4.223  34.644   5.893
 3962POPC   GL251266   4.280  34.338   5.683
 3962POPC   C1A51267   4.193  34.640   6.335
 3962POPC   D2A51268   3.957  34.495   6.691
 3962POPC   C3A51269   4.091  34.717   7.026
 3962POPC   C4A51270   4.471  34.788   7.209
 3962POPC   C1B51271   4.320  34.200   6.109
 3962POPC   C2B51272   4.487  34.214   6.536
 3962POPC   C3B51273   4.421  34.280   6.986
 3962POPC   C4B51274   4.720  34.329   7.325
 3963POPC   NC351275  29.768  38.278   5.107
 3963POPC   PO451276  30.230  38.611   5.461
 3963POPC   GL151277  29.971  38.459   5.805
 3963POPC   GL251278  29.724  38.246   5.703
 3963POPC   C1A51279  29.969  38.424   6.241
 3963POPC   D2A51280  29.912  38.262   6.657
 3963POPC   C3A51281  30.030  38.479   7.027
 3963POPC   C4A51282  30.422  38.699   7.089
 3963POPC   C1B51283  29.532  38.150   6.107
 3963POPC   C2B51284  29.444  38.129   6.552
 3963POPC   C3B51285  29.572  38.006   6.971
 3963POPC   C4B51286  29.536  38.239   7.358
 3964POPC   NC351287  37.797   3.156   5.159
 3964POPC   PO451288  37.522   3.684   5.452
 3964POPC   GL151289  37.679   3.505   5.783
 3964POPC   GL251290  37.982   3.385   5.592
 3964POPC   C1A51291  37.665   3.536   6.254
 3964POPC   D2A51292  37.753   3.853   6.599
 3964POPC   C3A51293  37.594   3.765   7.033
 3964POPC   C4A51294  37.626   3.414   7.334
 3964POPC   C1B51295  38.025   3.251   6.024
 3964POPC   C2B51296  37.999   3.216   6.476
 3964POPC   C3B51297  37.877   3.336   6.885
 3964POPC   C4B51298  38.146   3.343   7.222
 3965POPC   NC351299  41.653  34.097   5.292
 3965POPC   PO451300  41.619  33.518   5.424
 3965POPC   GL151301  41.467  33.710   5.801
 3965POPC   GL251302  41.492  34.082   5.781
 3965POPC   C1A51303  41.582  33.625   6.235
 3965POPC   D2A51304  41.840  33.748   6.585
 3965POPC   C3A51305  41.781  33.556   6.984
 3965POPC   C4A51306  41.418  33.506   7.191
 3965POPC   C1B51307  41.568  34.129   6.225
 3965POPC   C2B51308  41.379  33.974   6.603
 3965POPC   C3B51309  41.501  34.006   7.037
 3965POPC   C4B51310  41.741  34.316   7.262
 3966POPC   NC351311  31.799   2.244   5.600
 3966POPC   PO451312  31.544   1.941   5.093
 3966POPC   GL151313  31.442   1.852   5.568
 3966POPC   GL251314  31.205   2.052   5.789
 3966POPC   C1A51315  31.592   1.816   6.034
 3966POPC   D2A51316  31.679   2.055   6.413
 3966POPC   C3A51317  31.543   1.978   6.858
 3966POPC   C4A51318  31.585   1.678   7.236
 3966POPC   C1B51319  31.161   2.104   6.247
 3966POPC   C2B51320  31.024   1.968   6.682
 3966POPC   C3B51321  31.107   1.895   7.113
 3966POPC   C4B51322  31.386   2.152   7.328
 3967POPC   NC351323  43.882  19.253   5.449
 3967POPC   PO451324  43.982  19.904   5.497
 3967POPC   GL151325  43.838  19.648   5.807
 3967POPC   GL251326  44.139  19.413   5.852
 3967POPC   C1A51327  43.685  19.860   6.165
 3967POPC   D2A51328  43.530  19.753   6.543
 3967POPC   C3A51329  43.719  19.865   6.889
 3967POPC   C4A51330  43.604  19.720   7.293
 3967POPC   C1B51331  44.198  19.684   6.213
 3967POPC   C2B51332  44.167  19.661   6.662
 3967POPC   C3B51333  44.209  19.909   7.030
 3967POPC   C4B51334  43.920  20.153   7.279
 3968POPC   NC351335   6.123  18.979   5.730
 3968POPC   PO451336   5.645  19.344   5.422
 3968POPC   GL151337   5.745  19.216   5.915
 3968POPC   GL251338   6.099  19.304   6.114
 3968POPC   C1A51339   5.790  18.883   6.265
 3968POPC   D2A51340   5.781  18.561   6.586
 3968POPC   C3A51341   5.872  18.750   6.972
 3968POPC   C4A51342   6.006  18.582   7.374
 3968POPC   C1B51343   5.766  19.506   6.351
 3968POPC   C2B51344   5.553  19.423   6.742
 3968POPC   C3B51345   5.703  19.332   7.181
 3968POPC   C4B51346   6.055  19.084   7.319
 3969POPC   NC351347   5.640  16.081   5.407
 3969POPC   PO451348   6.338  16.179   5.433
 3969POPC   GL151349   6.063  15.956   5.682
 3969POPC   GL251350   5.945  16.291   5.797
 3969POPC   C1A51351   6.022  15.877   6.121
 3969POPC   D2A51352   6.120  15.866   6.555
 3969POPC   C3A51353   5.805  15.806   6.868
 3969POPC   C4A51354   5.800  15.635   7.276
 3969POPC   C1B51355   5.644  16.325   6.143
 3969POPC   C2B51356   5.585  16.196   6.582
 3969POPC   C3B51357   5.635  16.277   7.032
 3969POPC   C4B51358   5.564  16.072   7.454
 3970POPC   NC351359   8.320  30.976   5.096
 3970POPC   PO451360   8.202  31.485   5.497
 3970POPC   GL151361   8.221  31.691   5.874
 3970POPC   GL251362   8.593  31.794   5.826
 3970POPC   C1A51363   8.017  31.448   6.215
 3970POPC   D2A51364   8.079  31.187   6.569
 3970POPC   C3A51365   8.056  31.364   6.986
 3970POPC   C4A51366   8.055  31.374   7.449
 3970POPC   C1B51367   8.541  31.559   6.221
 3970POPC   C2B51368   8.579  31.309   6.532
 3970POPC   C3B51369   8.565  31.400   6.933
 3970POPC   C4B51370   8.598  31.521   7.336
 3971POPC   NC351371  38.679  27.944   5.396
 3971POPC   PO451372  38.316  27.317   5.501
 3971POPC   GL151373  38.517  27.303   5.870
 3971POPC   GL251374  38.537  27.668   5.829
 3971POPC   C1A51375  38.485  27.372   6.286
 3971POPC   D2A51376  38.692  27.485   6.631
 3971POPC   C3A51377  38.459  27.447   6.981
 3971POPC   C4A51378  38.146  27.383   7.245
 3971POPC   C1B51379  38.763  27.825   6.159
 3971POPC   C2B51380  38.857  27.976   6.554
 3971POPC   C3B51381  38.684  27.907   6.916
 3971POPC   C4B51382  38.635  27.812   7.321
 3972POPC   NC351383   5.247  22.447   5.429
 3972POPC   PO451384   5.503  21.883   5.269
 3972POPC   GL151385   5.230  21.917   5.674
 3972POPC   GL251386   4.967  22.175   5.761
 3972POPC   C1A51387   5.128  21.831   6.146
 3972POPC   D2A51388   5.019  21.743   6.599
 3972POPC   C3A51389   5.265  21.837   6.996
 3972POPC   C4A51390   5.168  21.923   7.447
 3972POPC   C1B51391   5.250  22.337   6.136
 3972POPC   C2B51392   5.381  22.259   6.592
 3972POPC   C3B51393   5.438  22.334   7.048
 3972POPC   C4B51394   5.258  22.422   7.471
 3973POPC   NC351395  23.662   3.300   5.289
 3973POPC   PO451396  24.177   3.699   5.521
 3973POPC   GL151397  23.829   3.672   5.807
 3973POPC   GL251398  23.816   3.350   5.844
 3973POPC   C1A51399  23.591   3.703   6.239
 3973POPC   D2A51400  23.452   3.562   6.689
 3973POPC   C3A51401  23.640   3.812   7.071
 3973POPC   C4A51402  23.546   3.796   7.547
 3973POPC   C1B51403  24.075   3.522   6.230
 3973POPC   C2B51404  23.961   3.591   6.671
 3973POPC   C3B51405  23.834   3.269   6.976
 3973POPC   C4B51406  24.090   2.985   7.243
 3974POPC   NC351407  35.893  41.149   5.446
 3974POPC   PO451408  36.292  41.750   5.420
 3974POPC   GL151409  36.156  41.744   5.809
 3974POPC   GL251410  36.322  41.419   5.858
 3974POPC   C1A51411  35.979  41.591   6.189
 3974POPC   D2A51412  36.188  41.394   6.514
 3974POPC   C3A51413  36.173  41.657   6.864
 3974POPC   C4A51414  36.208  41.550   7.271
 3974POPC   C1B51415  36.582  41.195   6.176
 3974POPC   C2B51416  36.569  41.033   6.601
 3974POPC   C3B51417  36.453  41.207   6.965
 3974POPC   C4B51418  36.674  41.340   7.298
 3975POPC   NC351419  18.138   7.041   5.567
 3975POPC   PO451420  18.771   7.239   5.417
 3975POPC   GL151421  18.484   7.316   5.808
 3975POPC   GL251422  18.347   7.679   5.800
 3975POPC   C1A51423  18.165   7.357   6.152
 3975POPC   D2A51424  18.159   7.459   6.583
 3975POPC   C3A51425  18.040   7.261   6.968
 3975POPC   C4A51426  18.134   7.342   7.397
 3975POPC   C1B51427  18.190   7.858   6.205
 3975POPC   C2B51428  18.287   7.959   6.626
 3975POPC   C3B51429  18.211   7.745   7.027
 3975POPC   C4B51430  18.388   7.784   7.440
 3976POPC   NC351431  27.474  33.494   5.426
 3976POPC   PO451432  27.870  33.955   5.454
 3976POPC   GL151433  27.674  33.770   5.846
 3976POPC   GL251434  27.323  33.633   5.888
 3976POPC   C1A51435  27.561  33.837   6.291
 3976POPC   D2A51436  27.597  34.018   6.691
 3976POPC   C3A51437  27.631  33.805   7.076
 3976POPC   C4A51438  27.470  33.853   7.494
 3976POPC   C1B51439  27.136  33.493   6.297
 3976POPC   C2B51440  27.317  33.596   6.709
 3976POPC   C3B51441  27.136  33.668   7.135
 3976POPC   C4B51442  27.122  33.530   7.632
 3977POPC   NC351443  33.479  26.044   5.240
 3977POPC   PO451444  32.851  25.855   5.560
 3977POPC   GL151445  33.069  26.083   5.856
 3977POPC   GL251446  33.435  26.163   5.768
 3977POPC   C1A51447  33.105  25.963   6.279
 3977POPC   D2A51448  33.175  25.886   6.714
 3977POPC   C3A51449  32.909  26.107   7.002
 3977POPC   C4A51450  32.909  26.056   7.438
 3977POPC   C1B51451  33.397  26.367   6.121
 3977POPC   C2B51452  33.293  26.355   6.514
 3977POPC   C3B51453  33.334  26.389   6.906
 3977POPC   C4B51454  33.099  26.495   7.260
 3978POPC   NC351455   0.682  24.788   5.511
 3978POPC   PO451456   0.490  24.153   5.434
 3978POPC   GL151457   0.373  24.465   5.791
 3978POPC   GL251458   0.582  24.286   5.990
 3978POPC   C1A51459   0.263  24.693   6.213
 3978POPC   D2A51460   0.428  24.760   6.666
 3978POPC   C3A51461   0.225  24.598   7.072
 3978POPC   C4A51462   0.303  24.636   7.542
 3978POPC   C1B51463   0.461  24.277   6.424
 3978POPC   C2B51464   0.584  24.057   6.759
 3978POPC   C3B51465   0.496  24.180   7.181
 3978POPC   C4B51466   0.554  24.207   7.651
 3979POPC   NC351467  20.137  43.777   5.341
 3979POPC   PO451468  19.518  43.960   5.344
 3979POPC   GL151469  19.785  43.879   5.720
 3979POPC   GL251470  20.023  44.120   5.794
 3979POPC   C1A51471  19.767  43.776   6.174
 3979POPC   D2A51472  19.496  43.914   6.517
 3979POPC   C3A51473  19.663  43.831   6.918
 3979POPC   C4A51474  19.582  43.920   7.329
 3979POPC   C1B51475  20.187  44.333   6.113
 3979POPC   C2B51476  20.106  44.156   6.499
 3979POPC   C3B51477  20.073  44.140   6.923
 3979POPC   C4B51478  20.103  43.954   7.334
 3980POPC   NC351479  35.550  26.347   5.438
 3980POPC   PO451480  35.139  26.906   5.205
 3980POPC   GL151481  35.197  26.679   5.617
 3980POPC   GL251482  35.512  26.856   5.675
 3980POPC   C1A51483  35.164  26.715   6.097
 3980POPC   D2A51484  35.251  27.081   6.399
 3980POPC   C3A51485  35.201  27.162   6.846
 3980POPC   C4A51486  35.115  26.920   7.217
 3980POPC   C1B51487  35.632  26.934   6.099
 3980POPC   C2B51488  35.688  26.728   6.489
 3980POPC   C3B51489  35.505  26.708   6.887
 3980POPC   C4B51490  35.602  27.021   7.148
 3981POPC   NC351491  11.027  37.170   5.419
 3981POPC   PO451492  10.918  36.585   5.623
 3981POPC   GL151493  11.124  36.841   5.886
 3981POPC   GL251494  10.892  36.734   6.109
 3981POPC   C1A51495  11.195  37.145   6.225
 3981POPC   D2A51496  11.265  37.268   6.644
 3981POPC   C3A51497  11.498  37.067   6.946
 3981POPC   C4A51498  11.485  36.740   7.213
 3981POPC   C1B51499  11.196  36.614   6.365
 3981POPC   C2B51500  11.124  36.746   6.761
 3981POPC   C3B51501  10.989  36.566   7.134
 3981POPC   C4B51502  11.102  36.535   7.571
 3982POPC   NC351503  41.188   2.650   5.053
 3982POPC   PO451504  41.770   2.478   5.346
 3982POPC   GL151505  41.616   2.716   5.712
 3982POPC   GL251506  41.595   2.432   5.908
 3982POPC   C1A51507  41.431   2.857   6.160
 3982POPC   D2A51508  41.134   2.989   6.541
 3982POPC   C3A51509  41.335   2.995   6.945
 3982POPC   C4A51510  41.607   2.926   7.298
 3982POPC   C1B51511  41.436   2.359   6.289
 3982POPC   C2B51512  41.426   2.583   6.634
 3982POPC   C3B51513  41.476   2.504   7.013
 3982POPC   C4B51514  41.747   2.422   7.310
 3983POPC   NC351515  44.199  44.536   5.398
 3983POPC   PO451516  43.490  44.235   5.512
 3983POPC   GL151517  43.844  44.362   5.803
 3983POPC   GL251518  44.166  44.568   5.903
 3983POPC   C1A51519  43.874  44.256   6.234
 3983POPC   D2A51520  43.999  44.466   6.601
 3983POPC   C3A51521  43.948  44.358   7.005
 3983POPC   C4A51522  43.685  44.646   7.243
 3983POPC   C1B51523  43.936  44.799   6.209
 3983POPC   C2B51524  43.835  44.975   6.597
 3983POPC   C3B51525  44.061  44.887   6.956
 3983POPC   C4B51526  44.046   0.027   7.339
 3984POPC   NC351527   6.790  20.805   5.441
 3984POPC   PO451528   6.660  20.181   5.388
 3984POPC   GL151529   6.562  20.467   5.761
 3984POPC   GL251530   6.825  20.685   5.920
 3984POPC   C1A51531   6.400  20.656   6.171
 3984POPC   D2A51532   6.414  20.512   6.592
 3984POPC   C3A51533   6.300  20.691   6.983
 3984POPC   C4A51534   6.635  20.560   7.204
 3984POPC   C1B51535   6.908  20.601   6.349
 3984POPC   C2B51536   6.961  20.582   6.789
 3984POPC   C3B51537   7.124  20.698   7.178
 3984POPC   C4B51538   7.080  20.368   7.472
 3985POPC   NC351539  15.951  23.340   5.528
 3985POPC   PO451540  15.969  22.747   5.253
 3985POPC   GL151541  15.831  22.865   5.721
 3985POPC   GL251542  16.162  22.913   5.848
 3985POPC   C1A51543  15.802  23.062   6.192
 3985POPC   D2A51544  15.679  23.125   6.665
 3985POPC   C3A51545  15.935  23.080   7.058
 3985POPC   C4A51546  15.920  23.360   7.433
 3985POPC   C1B51547  16.108  22.651   6.232
 3985POPC   C2B51548  15.919  22.628   6.659
 3985POPC   C3B51549  16.117  22.612   7.085
 3985POPC   C4B51550  15.918  22.543   7.483
 3986POPC   NC351551  41.065   7.675   5.555
 3986POPC   PO451552  40.650   7.111   5.423
 3986POPC   GL151553  40.715   7.366   5.792
 3986POPC   GL251554  40.420   7.498   5.957
 3986POPC   C1A51555  40.824   7.260   6.212
 3986POPC   D2A51556  40.587   7.175   6.569
 3986POPC   C3A51557  40.550   7.396   6.963
 3986POPC   C4A51558  40.837   7.128   7.166
 3986POPC   C1B51559  40.514   7.651   6.377
 3986POPC   C2B51560  40.908   7.591   6.641
 3986POPC   C3B51561  40.970   7.668   7.093
 3986POPC   C4B51562  40.704   7.862   7.408
 3987POPC   NC351563  32.778   2.393   5.738
 3987POPC   PO451564  33.052   3.016   5.622
 3987POPC   GL151565  33.009   2.811   6.003
 3987POPC   GL251566  32.696   2.888   6.066
 3987POPC   C1A51567  33.179   2.579   6.336
 3987POPC   D2A51568  32.981   2.519   6.731
 3987POPC   C3A51569  33.219   2.526   7.074
 3987POPC   C4A51570  33.310   2.817   7.347
 3987POPC   C1B51571  32.437   2.911   6.424
 3987POPC   C2B51572  32.509   2.820   6.858
 3987POPC   C3B51573  32.737   2.625   7.186
 3987POPC   C4B51574  32.871   2.778   7.570
 3988POPC   NC351575  44.243  34.918   5.648
 3988POPC   PO451576  44.841  35.056   5.268
 3988POPC   GL151577  44.699  35.217   5.694
 3988POPC   GL251578  44.865  35.537   5.832
 3988POPC   C1A51579  44.697  35.108   6.143
 3988POPC   D2A51580  44.424  35.229   6.456
 3988POPC   C3A51581  44.484  35.219   6.899
 3988POPC   C4A51582  44.373  35.214   7.321
 3988POPC   C1B51583  44.976  35.521   6.294
 3988POPC   C2B51584  44.962  35.369   6.758
 3988POPC   C3B51585  44.817  35.460   7.206
 3988POPC   C4B51586  44.981  35.641   7.612
 3989POPC   NC351587  12.422  18.577   5.301
 3989POPC   PO451588  11.765  18.359   5.384
 3989POPC   GL151589  12.041  18.303   5.767
 3989POPC   GL251590  12.154  17.945   5.897
 3989POPC   C1A51591  12.119  18.412   6.206
 3989POPC   D2A51592  12.374  18.275   6.573
 3989POPC   C3A51593  12.220  18.187   6.967
 3989POPC   C4A51594  12.119  18.520   7.221
 3989POPC   C1B51595  11.769  18.009   6.110
 3989POPC   C2B51596  11.659  18.012   6.516
 3989POPC   C3B51597  11.743  18.289   6.844
 3989POPC   C4B51598  11.711  18.221   7.272
 3990POPC   NC351599  23.788  35.471   5.179
 3990POPC   PO451600  23.443  34.916   5.496
 3990POPC   GL151601  23.636  35.211   5.820
 3990POPC   GL251602  23.870  35.517   5.755
 3990POPC   C1A51603  23.679  35.388   6.253
 3990POPC   D2A51604  23.814  35.456   6.689
 3990POPC   C3A51605  23.553  35.578   7.010
 3990POPC   C4A51606  23.441  35.330   7.311
 3990POPC   C1B51607  24.104  35.705   6.122
 3990POPC   C2B51608  24.049  35.881   6.537
 3990POPC   C3B51609  23.977  35.881   6.982
 3990POPC   C4B51610  24.113  35.470   7.134
 3991POPC   NC351611  42.523  40.614   5.274
 3991POPC   PO451612  41.887  40.583   5.515
 3991POPC   GL151613  42.162  40.752   5.867
 3991POPC   GL251614  42.511  40.642   5.816
 3991POPC   C1A51615  42.218  41.023   6.257
 3991POPC   D2A51616  42.392  41.225   6.654
 3991POPC   C3A51617  42.285  41.066   7.058
 3991POPC   C4A51618  42.156  40.657   7.214
 3991POPC   C1B51619  42.560  40.642   6.280
 3991POPC   C2B51620  42.443  40.678   6.724
 3991POPC   C3B51621  42.651  40.685   7.140
 3991POPC   C4B51622  42.525  40.412   7.494
 3992POPC   NC351623  37.061  33.566   5.435
 3992POPC   PO451624  37.829  33.787   5.399
 3992POPC   GL151625  37.735  33.902   5.827
 3992POPC   GL251626  37.426  33.741   5.739
 3992POPC   C1A51627  37.771  34.015   6.280
 3992POPC   D2A51628  37.804  33.950   6.705
 3992POPC   C3A51629  37.997  34.171   7.026
 3992POPC   C4A51630  37.882  33.911   7.324
 3992POPC   C1B51631  37.348  33.702   6.152
 3992POPC   C2B51632  37.391  33.670   6.586
 3992POPC   C3B51633  37.573  33.562   6.979
 3992POPC   C4B51634  37.377  33.765   7.322
 3993POPC   NC351635   4.502  26.331   5.504
 3993POPC   PO451636   4.067  26.931   5.352
 3993POPC   GL151637   4.180  26.986   5.805
 3993POPC   GL251638   4.311  26.638   5.881
 3993POPC   C1A51639   4.350  26.998   6.256
 3993POPC   D2A51640   4.648  26.931   6.608
 3993POPC   C3A51641   4.439  26.961   6.996
 3993POPC   C4A51642   4.049  26.810   7.108
 3993POPC   C1B51643   4.646  26.582   6.213
 3993POPC   C2B51644   4.620  26.429   6.677
 3993POPC   C3B51645   4.328  26.385   7.010
 3993POPC   C4B51646   4.261  26.458   7.445
 3994POPC   NC351647   6.022  44.067   5.419
 3994POPC   PO451648   5.503  43.705   5.432
 3994POPC   GL151649   5.619  44.017   5.725
 3994POPC   GL251650   5.605  43.759   5.955
 3994POPC   C1A51651   5.837  44.234   6.066
 3994POPC   D2A51652   5.853  44.343   6.506
 3994POPC   C3A51653   5.987  44.034   6.802
 3994POPC   C4A51654   6.046  43.888   7.219
 3994POPC   C1B51655   5.599  43.877   6.379
 3994POPC   C2B51656   5.678  43.618   6.717
 3994POPC   C3B51657   5.525  43.716   7.086
 3994POPC   C4B51658   5.587  44.059   7.318
 3995POPC   NC351659  10.895  33.611   5.112
 3995POPC   PO451660  11.257  33.386   5.623
 3995POPC   GL151661  11.168  33.613   5.971
 3995POPC   GL251662  10.971  33.912   5.888
 3995POPC   C1A51663  10.965  33.590   6.344
 3995POPC   D2A51664  10.906  33.813   6.730
 3995POPC   C3A51665  11.233  33.633   6.983
 3995POPC   C4A51666  11.255  33.462   7.372
 3995POPC   C1B51667  10.967  34.121   6.306
 3995POPC   C2B51668  11.177  34.289   6.678
 3995POPC   C3B51669  11.249  34.132   7.084
 3995POPC   C4B51670  10.924  33.908   7.302
 3996POPC   NC351671  13.427  40.973   5.337
 3996POPC   PO451672  13.764  40.431   5.334
 3996POPC   GL151673  13.533  40.582   5.712
 3996POPC   GL251674  13.590  40.952   5.827
 3996POPC   C1A51675  13.654  40.474   6.135
 3996POPC   D2A51676  13.916  40.580   6.486
 3996POPC   C3A51677  13.716  40.854   6.791
 3996POPC   C4A51678  13.879  40.812   7.183
 3996POPC   C1B51679  13.311  40.855   6.168
 3996POPC   C2B51680  13.263  40.656   6.575
 3996POPC   C3B51681  13.184  40.889   6.947
 3996POPC   C4B51682  13.424  40.950   7.309
 3997POPC   NC351683  19.015  11.449   5.088
 3997POPC   PO451684  18.888  11.320   5.706
 3997POPC   GL151685  19.023  11.356   6.069
 3997POPC   GL251686  19.339  11.240   5.951
 3997POPC   C1A51687  18.982  11.420   6.493
 3997POPC   D2A51688  18.953  11.161   6.820
 3997POPC   C3A51689  18.749  11.333   7.137
 3997POPC   C4A51690  18.856  11.405   7.525
 3997POPC   C1B51691  19.432  11.558   6.271
 3997POPC   C2B51692  19.481  11.405   6.679
 3997POPC   C3B51693  19.388  11.248   7.054
 3997POPC   C4B51694  19.347  11.437   7.436
 3998POPC   NC351695   2.806  14.568   5.331
 3998POPC   PO451696   2.261  14.911   5.609
 3998POPC   GL151697   2.522  14.561   5.943
 3998POPC   GL251698   2.388  14.198   5.962
 3998POPC   C1A51699   2.842  14.379   6.230
 3998POPC   D2A51700   2.985  14.595   6.628
 3998POPC   C3A51701   2.770  14.376   6.958
 3998POPC   C4A51702   2.907  14.255   7.381
 3998POPC   C1B51703   2.351  14.242   6.391
 3998POPC   C2B51704   2.429  13.975   6.732
 3998POPC   C3B51705   2.464  14.014   7.148
 3998POPC   C4B51706   2.498  14.068   7.564
 3999POPC   NC351707  20.410  26.889   5.464
 3999POPC   PO451708  20.982  26.589   5.481
 3999POPC   GL151709  20.728  26.718   5.880
 3999POPC   GL251710  20.594  27.077   5.899
 3999POPC   C1A51711  20.772  26.748   6.351
 3999POPC   D2A51712  20.917  26.485   6.701
 3999POPC   C3A51713  20.702  26.659   7.067
 3999POPC   C4A51714  20.808  27.067   7.277
 3999POPC   C1B51715  20.543  27.192   6.319
 3999POPC   C2B51716  20.757  27.126   6.721
 3999POPC   C3B51717  20.483  27.342   7.003
 3999POPC   C4B51718  20.183  27.326   7.285
 4000POPC   NC351719  29.024   4.097   5.533
 4000POPC   PO451720  29.304   4.699   5.507
 4000POPC   GL151721  29.024   4.556   5.833
 4000POPC   GL251722  29.286   4.303   5.918
 4000POPC   C1A51723  28.951   4.375   6.277
 4000POPC   D2A51724  29.067   4.094   6.615
 4000POPC   C3A51725  28.963   4.325   6.981
 4000POPC   C4A51726  29.062   4.726   7.086
 4000POPC   C1B51727  29.507   4.082   6.286
 4000POPC   C2B51728  29.545   3.841   6.700
 4000POPC   C3B51729  29.474   3.940   7.156
 4000POPC   C4B51730  29.514   4.014   7.636
 4001POPC   NC351731  42.337  41.671   5.373
 4001POPC   PO451732  42.381  41.010   5.446
 4001POPC   GL151733  42.313  41.303   5.811
 4001POPC   GL251734  42.160  41.667   5.851
 4001POPC   C1A51735  42.497  41.482   6.212
 4001POPC   D2A51736  42.616  41.703   6.616
 4001POPC   C3A51737  42.438  41.603   7.037
 4001POPC   C4A51738  42.295  41.835   7.398
 4001POPC   C1B51739  42.096  41.864   6.260
 4001POPC   C2B51740  42.073  41.640   6.634
 4001POPC   C3B51741  41.922  41.504   7.023
 4001POPC   C4B51742  42.050  41.362   7.411
 4002POPC   NC351743  36.705   0.594   5.536
 4002POPC   PO451744  37.293   0.223   5.302
 4002POPC   GL151745  37.154   0.414   5.776
 4002POPC   GL251746  37.073   0.811   5.854
 4002POPC   C1A51747  36.956   0.461   6.229
 4002POPC   D2A51748  36.986   0.732   6.602
 4002POPC   C3A51749  37.070   0.524   6.999
 4002POPC   C4A51750  36.793   0.335   7.312
 4002POPC   C1B51751  36.718   0.926   6.183
 4002POPC   C2B51752  36.491   0.888   6.614
 4002POPC   C3B51753  36.637   0.841   7.044
 4002POPC   C4B51754  36.507   0.737   7.460
 4003POPC   NC351755  31.314  10.685   5.296
 4003POPC   PO451756  31.990  10.499   5.163
 4003POPC   GL151757  31.739  10.639   5.623
 4003POPC   GL251758  31.404  10.507   5.777
 4003POPC   C1A51759  31.694  10.811   6.083
 4003POPC   D2A51760  31.779  10.689   6.536
 4003POPC   C3A51761  31.563  10.645   6.935
 4003POPC   C4A51762  31.642  10.292   7.219
 4003POPC   C1B51763  31.396  10.404   6.237
 4003POPC   C2B51764  31.130  10.280   6.594
 4003POPC   C3B51765  31.153  10.318   7.046
 4003POPC   C4B51766  31.111  10.150   7.462
 4004POPC   NC351767   1.130  43.522   5.170
 4004POPC   PO451768   1.518  43.852   5.645
 4004POPC   GL151769   1.302  43.751   5.986
 4004POPC   GL251770   0.967  43.692   5.837
 4004POPC   C1A51771   1.383  43.775   6.399
 4004POPC   D2A51772   1.138  43.761   6.746
 4004POPC   C3A51773   1.332  44.016   7.052
 4004POPC   C4A51774   1.505  43.746   7.347
 4004POPC   C1B51775   0.858  43.852   6.252
 4004POPC   C2B51776   0.738  44.096   6.597
 4004POPC   C3B51777   0.729  43.949   6.978
 4004POPC   C4B51778   0.987  43.714   7.269
 4005POPC   NC351779  39.748   4.484   5.261
 4005POPC   PO451780  39.709   3.878   5.487
 4005POPC   GL151781  39.965   4.216   5.676
 4005POPC   GL251782  39.771   4.512   5.767
 4005POPC   C1A51783  39.997   4.259   6.151
 4005POPC   D2A51784  39.735   4.203   6.540
 4005POPC   C3A51785  39.924   4.286   6.958
 4005POPC   C4A51786  40.095   4.061   7.312
 4005POPC   C1B51787  39.583   4.575   6.175
 4005POPC   C2B51788  39.622   4.742   6.615
 4005POPC   C3B51789  39.623   4.727   7.072
 4005POPC   C4B51790  39.890   4.806   7.444
 4006POPC   NC351791   6.811  14.107   5.163
 4006POPC   PO451792   6.747  13.471   5.364
 4006POPC   GL151793   6.651  13.511   5.803
 4006POPC   GL251794   6.934  13.497   5.930
 4006POPC   C1A51795   6.431  13.658   6.175
 4006POPC   D2A51796   6.256  13.464   6.545
 4006POPC   C3A51797   6.252  13.717   6.920
 4006POPC   C4A51798   6.475  13.857   7.281
 4006POPC   C1B51799   6.951  13.817   6.246
 4006POPC   C2B51800   7.117  14.023   6.603
 4006POPC   C3B51801   6.899  13.880   6.969
 4006POPC   C4B51802   6.874  13.563   7.321
 4007POPC   NC351803  35.151  44.768   5.390
 4007POPC   PO451804  35.003  44.082   5.524
 4007POPC   GL151805  35.123  44.488   5.834
 4007POPC   GL251806  35.477  44.698   5.787
 4007POPC   C1A51807  35.232  44.754   6.217
 4007POPC   D2A51808  35.510  44.758   6.582
 4007POPC   C3A51809  35.256  44.577   6.909
 4007POPC   C4A51810  35.174  44.741   7.306
 4007POPC   C1B51811  35.615  44.417   6.131
 4007POPC   C2B51812  35.481  44.254   6.534
 4007POPC   C3B51813  35.718  44.366   6.903
 4007POPC   C4B51814  35.642  44.437   7.309
 4008POPC   NC351815   9.561  34.769   5.277
 4008POPC   PO451816   9.914  34.119   5.379
 4008POPC   GL151817   9.903  34.476   5.713
 4008POPC   GL251818   9.568  34.628   5.758
 4008POPC   C1A51819   9.872  34.656   6.167
 4008POPC   D2A51820  10.082  34.648   6.568
 4008POPC   C3A51821  10.138  34.282   6.817
 4008POPC   C4A51822   9.939  34.475   7.142
 4008POPC   C1B51823   9.368  34.876   6.070
 4008POPC   C2B51824   9.391  34.730   6.472
 4008POPC   C3B51825   9.435  34.780   6.931
 4008POPC   C4B51826   9.491  34.611   7.320
 4009POPC   NC351827   6.246   8.430   5.382
 4009POPC   PO451828   5.670   8.122   5.197
 4009POPC   GL151829   5.808   8.278   5.678
 4009POPC   GL251830   5.498   8.235   5.882
 4009POPC   C1A51831   5.929   8.092   6.147
 4009POPC   D2A51832   6.123   7.999   6.584
 4009POPC   C3A51833   6.133   8.182   7.030
 4009POPC   C4A51834   5.954   8.521   7.276
 4009POPC   C1B51835   5.485   8.236   6.351
 4009POPC   C2B51836   5.615   8.023   6.722
 4009POPC   C3B51837   5.616   8.175   7.132
 4009POPC   C4B51838   5.537   8.204   7.600
 4010POPC   NC351839  25.852  38.062   5.571
 4010POPC   PO451840  26.178  37.494   5.333
 4010POPC   GL151841  26.155  37.668   5.764
 4010POPC   GL251842  26.433  37.921   5.754
 4010POPC   C1A51843  25.940  37.686   6.215
 4010POPC   D2A51844  25.789  37.838   6.649
 4010POPC   C3A51845  25.898  37.639   7.051
 4010POPC   C4A51846  25.821  37.710   7.504
 4010POPC   C1B51847  26.456  37.690   6.175
 4010POPC   C2B51848  26.348  37.832   6.608
 4010POPC   C3B51849  26.294  37.991   7.037
 4010POPC   C4B51850  26.347  37.618   7.308
 4011POPC   NC351851  21.189  13.094   5.558
 4011POPC   PO451852  21.664  12.659   5.444
 4011POPC   GL151853  21.424  12.749   5.839
 4011POPC   GL251854  21.504  12.437   5.926
 4011POPC   C1A51855  21.204  12.957   6.229
 4011POPC   D2A51856  21.361  13.019   6.680
 4011POPC   C3A51857  21.188  12.946   7.101
 4011POPC   C4A51858  20.950  12.791   7.455
 4011POPC   C1B51859  21.336  12.473   6.286
 4011POPC   C2B51860  21.588  12.544   6.610
 4011POPC   C3B51861  21.424  12.504   6.965
 4011POPC   C4B51862  21.356  12.518   7.372
 4012POPC   NC351863  29.945  13.988   5.340
 4012POPC   PO451864  29.907  14.630   5.342
 4012POPC   GL151865  29.852  14.419   5.770
 4012POPC   GL251866  30.142  14.176   5.795
 4012POPC   C1A51867  29.649  14.486   6.178
 4012POPC   D2A51868  29.492  14.323   6.564
 4012POPC   C3A51869  29.586  14.553   6.927
 4012POPC   C4A51870  29.751  14.537   7.330
 4012POPC   C1B51871  30.092  14.232   6.254
 4012POPC   C2B51872  29.996  14.569   6.567
 4012POPC   C3B51873  30.126  14.585   6.991
 4012POPC   C4B51874  30.138  14.207   7.243
 4013POPC   NC351875  42.916   8.015   5.489
 4013POPC   PO451876  43.437   8.388   5.514
 4013POPC   GL151877  43.205   8.195   5.899
 4013POPC   GL251878  42.804   8.223   5.931
 4013POPC   C1A51879  43.382   8.068   6.335
 4013POPC   D2A51880  43.361   8.072   6.796
 4013POPC   C3A51881  43.181   8.375   7.099
 4013POPC   C4A51882  43.160   8.362   7.557
 4013POPC   C1B51883  42.887   8.085   6.364
 4013POPC   C2B51884  42.857   8.042   6.818
 4013POPC   C3B51885  42.843   8.059   7.273
 4013POPC   C4B51886  42.682   8.155   7.719
 4014POPC   NC351887   6.286  19.108   5.287
 4014POPC   PO451888   6.919  18.823   5.462
 4014POPC   GL151889   6.670  19.112   5.728
 4014POPC   GL251890   6.583  18.818   5.867
 4014POPC   C1A51891   6.678  19.144   6.207
 4014POPC   D2A51892   6.815  18.837   6.507
 4014POPC   C3A51893   6.642  19.040   6.845
 4014POPC   C4A51894   6.687  19.146   7.246
 4014POPC   C1B51895   6.422  18.614   6.230
 4014POPC   C2B51896   6.282  18.727   6.633
 4014POPC   C3B51897   6.431  18.615   7.039
 4014POPC   C4B51898   6.480  18.747   7.466
 4015POPC   NC351899   0.625  14.872   5.448
 4015POPC   PO451900   0.224  14.243   5.422
 4015POPC   GL151901   0.287  14.362   5.814
 4015POPC   GL251902  44.929  14.296   5.859
 4015POPC   C1A51903   0.569  14.417   6.168
 4015POPC   D2A51904   0.625  14.234   6.550
 4015POPC   C3A51905   0.593  14.439   6.907
 4015POPC   C4A51906   0.705  14.392   7.312
 4015POPC   C1B51907   0.053  14.388   6.288
 4015POPC   C2B51908   0.125  14.262   6.722
 4015POPC   C3B51909   0.210  14.258   7.181
 4015POPC   C4B51910   0.263  14.632   7.443
 4016POPC   NC351911  17.838  12.979   5.281
 4016POPC   PO451912  17.234  12.651   5.389
 4016POPC   GL151913  17.474  12.779   5.708
 4016POPC   GL251914  17.285  13.035   5.847
 4016POPC   C1A51915  17.683  12.627   6.084
 4016POPC   D2A51916  17.802  12.770   6.496
 4016POPC   C3A51917  17.536  12.701   6.852
 4016POPC   C4A51918  17.608  12.781   7.277
 4016POPC   C1B51919  17.518  13.098   6.201
 4016POPC   C2B51920  17.456  13.174   6.631
 4016POPC   C3B51921  17.596  13.238   7.032
 4016POPC   C4B51922  17.702  13.253   7.449
 4017POPC   NC351923  13.029  20.961   5.499
 4017POPC   PO451924  12.875  21.600   5.340
 4017POPC   GL151925  12.991  21.447   5.746
 4017POPC   GL251926  12.778  21.172   5.890
 4017POPC   C1A51927  12.965  21.530   6.200
 4017POPC   D2A51928  12.680  21.263   6.457
 4017POPC   C3A51929  12.579  21.490   6.827
 4017POPC   C4A51930  12.859  21.373   7.129
 4017POPC   C1B51931  13.170  21.065   6.140
 4017POPC   C2B51932  13.186  21.150   6.596
 4017POPC   C3B51933  13.095  20.905   6.970
 4017POPC   C4B51934  12.970  20.964   7.391
 4018POPC   NC351935   7.775   3.005   5.154
 4018POPC   PO451936   7.310   2.826   5.613
 4018POPC   GL151937   7.258   2.709   6.008
 4018POPC   GL251938   7.581   2.550   5.968
 4018POPC   C1A51939   7.448   2.832   6.388
 4018POPC   D2A51940   7.671   3.049   6.691
 4018POPC   C3A51941   7.580   3.152   7.110
 4018POPC   C4A51942   7.258   3.122   7.418
 4018POPC   C1B51943   7.687   2.339   6.351
 4018POPC   C2B51944   7.616   2.504   6.730
 4018POPC   C3B51945   7.353   2.696   6.982
 4018POPC   C4B51946   7.478   2.672   7.361
 4019POPC   NC351947  38.397  36.936   5.637
 4019POPC   PO451948  38.425  36.318   5.179
 4019POPC   GL151949  38.644  36.530   5.603
 4019POPC   GL251950  38.338  36.473   5.851
 4019POPC   C1A51951  38.741  36.636   6.095
 4019POPC   D2A51952  38.638  36.952   6.437
 4019POPC   C3A51953  38.730  36.974   6.885
 4019POPC   C4A51954  38.805  37.016   7.352
 4019POPC   C1B51955  38.365  36.321   6.276
 4019POPC   C2B51956  38.538  36.453   6.639
 4019POPC   C3B51957  38.276  36.746   6.827
 4019POPC   C4B51958  38.329  36.902   7.215
 4020POPC   NC351959  23.320  43.623   5.611
 4020POPC   PO451960  22.704  43.550   5.454
 4020POPC   GL151961  22.881  43.670   5.871
 4020POPC   GL251962  22.901  43.984   5.738
 4020POPC   C1A51963  23.175  43.652   6.246
 4020POPC   D2A51964  23.432  43.651   6.616
 4020POPC   C3A51965  23.169  43.506   6.913
 4020POPC   C4A51966  22.868  43.595   7.209
 4020POPC   C1B51967  22.787  44.173   6.152
 4020POPC   C2B51968  22.668  44.158   6.590
 4020POPC   C3B51969  22.875  44.055   6.982
 4020POPC   C4B51970  22.841  44.054   7.450
 4021POPC   NC351971   5.384   1.469   5.543
 4021POPC   PO451972   4.711   1.384   5.401
 4021POPC   GL151973   4.904   1.105   5.729
 4021POPC   GL251974   5.250   1.003   5.833
 4021POPC   C1A51975   4.854   1.118   6.171
 4021POPC   D2A51976   4.980   1.346   6.583
 4021POPC   C3A51977   4.941   1.331   7.056
 4021POPC   C4A51978   5.061   1.192   7.501
 4021POPC   C1B51979   5.348   1.114   6.278
 4021POPC   C2B51980   5.398   1.118   6.741
 4021POPC   C3B51981   5.455   1.196   7.157
 4021POPC   C4B51982   5.579   1.164   7.593
 4022POPC   NC351983  22.679  24.137   5.574
 4022POPC   PO451984  22.558  24.860   5.446
 4022POPC   GL151985  22.834  24.731   5.864
 4022POPC   GL251986  22.873  24.377   5.978
 4022POPC   C1A51987  23.118  24.716   6.247
 4022POPC   D2A51988  23.264  24.573   6.651
 4022POPC   C3A51989  23.007  24.753   6.983
 4022POPC   C4A51990  23.040  24.935   7.374
 4022POPC   C1B51991  22.987  24.191   6.358
 4022POPC   C2B51992  22.814  23.889   6.650
 4022POPC   C3B51993  22.951  24.083   7.010
 4022POPC   C4B51994  23.284  24.341   7.127
 4023POPC   NC351995  26.326  24.361   5.382
 4023POPC   PO451996  25.685  24.472   5.543
 4023POPC   GL151997  26.003  24.424   5.821
 4023POPC   GL251998  26.260  24.720   5.739
 4023POPC   C1A51999  25.918  24.247   6.255
 4023POPC   D2A52000  25.743  24.385   6.673
 4023POPC   C3A52001  25.980  24.500   7.056
 4023POPC   C4A52002  26.142  24.507   7.492
 4023POPC   C1B52003  26.200  24.706   6.192
 4023POPC   C2B52004  26.242  24.604   6.629
 4023POPC   C3B52005  26.490  24.474   7.005
 4023POPC   C4B52006  26.624  24.816   7.235
 4024POPC   NC352007  19.317  43.466   5.421
 4024POPC   PO452008  19.175  42.707   5.366
 4024POPC   GL152009  19.126  42.951   5.720
 4024POPC   GL252010  18.767  42.807   5.761
 4024POPC   C1A52011  19.246  43.131   6.122
 4024POPC   D2A52012  19.088  43.175   6.539
 4024POPC   C3A52013  19.212  43.052   6.965
 4024POPC   C4A52014  19.093  43.203   7.366
 4024POPC   C1B52015  18.708  43.038   6.139
 4024POPC   C2B52016  18.679  42.905   6.546
 4024POPC   C3B52017  18.628  43.029   6.961
 4024POPC   C4B52018  18.771  42.767   7.271
 4025POPC   NC352019  44.047  17.789   5.043
 4025POPC   PO452020  43.743  18.000   5.592
 4025POPC   GL152021  43.910  17.643   5.776
 4025POPC   GL252022  43.631  17.439   5.857
 4025POPC   C1A52023  44.044  17.468   6.166
 4025POPC   D2A52024  44.210  17.320   6.547
 4025POPC   C3A52025  44.048  17.411   6.916
 4025POPC   C4A52026  43.998  17.236   7.282
 4025POPC   C1B52027  43.451  17.335   6.230
 4025POPC   C2B52028  43.663  17.394   6.586
 4025POPC   C3B52029  43.557  17.530   6.967
 4025POPC   C4B52030  43.505  17.472   7.372
 4026POPC   NC352031  12.693  30.666   5.469
 4026POPC   PO452032  13.435  30.373   5.586
 4026POPC   GL152033  13.065  30.563   5.825
 4026POPC   GL252034  12.731  30.391   5.882
 4026POPC   C1A52035  12.960  30.789   6.227
 4026POPC   D2A52036  13.158  30.956   6.622
 4026POPC   C3A52037  12.886  30.859   6.964
 4026POPC   C4A52038  13.077  30.609   7.228
 4026POPC   C1B52039  12.506  30.501   6.218
 4026POPC   C2B52040  12.584  30.654   6.591
 4026POPC   C3B52041  12.496  30.530   6.986
 4026POPC   C4B52042  12.627  30.495   7.400
 4027POPC   NC352043  14.406   0.079   5.143
 4027POPC   PO452044  14.460   0.561   5.585
 4027POPC   GL152045  14.252   0.288   5.852
 4027POPC   GL252046  14.568   0.268   6.072
 4027POPC   C1A52047  14.114   0.445   6.216
 4027POPC   D2A52048  14.247   0.543   6.583
 4027POPC   C3A52049  14.258   0.170   6.756
 4027POPC   C4A52050  14.273   0.148   7.179
 4027POPC   C1B52051  14.740   0.499   6.443
 4027POPC   C2B52052  14.631   0.473   6.900
 4027POPC   C3B52053  14.668   0.473   7.339
 4027POPC   C4B52054  14.982   0.690   7.598
 4028POPC   NC352055  34.097  28.277   5.533
 4028POPC   PO452056  33.453  28.535   5.488
 4028POPC   GL152057  33.721  28.475   5.832
 4028POPC   GL252058  33.558  28.180   5.901
 4028POPC   C1A52059  33.749  28.480   6.294
 4028POPC   D2A52060  33.654  28.277   6.674
 4028POPC   C3A52061  33.793  28.499   6.992
 4028POPC   C4A52062  33.509  28.556   7.250
 4028POPC   C1B52063  33.655  27.972   6.255
 4028POPC   C2B52064  34.055  28.017   6.483
 4028POPC   C3B52065  34.083  28.078   6.922
 4028POPC   C4B52066  33.729  28.021   7.230
 4029POPC   NC352067  25.051  37.494   5.406
 4029POPC   PO452068  25.391  38.075   5.540
 4029POPC   GL152069  25.381  37.664   5.754
 4029POPC   GL252070  25.026  37.566   5.898
 4029POPC   C1A52071  25.444  37.457   6.151
 4029POPC   D2A52072  25.201  37.486   6.535
 4029POPC   C3A52073  25.408  37.536   6.930
 4029POPC   C4A52074  25.475  37.911   7.167
 4029POPC   C1B52075  25.173  37.897   6.174
 4029POPC   C2B52076  25.298  38.010   6.594
 4029POPC   C3B52077  25.029  37.913   6.926
 4029POPC   C4B52078  24.953  37.913   7.345
 4030POPC   NC352079  24.366  22.914   5.301
 4030POPC   PO452080  24.271  23.472   5.637
 4030POPC   GL152081  24.487  23.120   5.818
 4030POPC   GL252082  24.327  22.822   5.790
 4030POPC   C1A52083  24.660  22.893   6.185
 4030POPC   D2A52084  24.905  22.807   6.538
 4030POPC   C3A52085  24.741  23.036   6.867
 4030POPC   C4A52086  24.584  23.015   7.257
 4030POPC   C1B52087  24.148  22.861   6.182
 4030POPC   C2B52088  24.202  22.701   6.567
 4030POPC   C3B52089  24.298  22.670   6.963
 4030POPC   C4B52090  24.170  22.746   7.370
 4031POPC   NC352091  38.386  24.746   5.320
 4031POPC   PO452092  38.176  24.096   5.532
 4031POPC   GL152093  38.405  24.215   5.861
 4031POPC   GL252094  38.475  24.563   5.872
 4031POPC   C1A52095  38.573  24.141   6.252
 4031POPC   D2A52096  38.511  24.030   6.685
 4031POPC   C3A52097  38.399  24.428   6.899
 4031POPC   C4A52098  38.328  24.672   7.290
 4031POPC   C1B52099  38.810  24.679   6.198
 4031POPC   C2B52100  38.966  24.872   6.605
 4031POPC   C3B52101  38.846  24.708   6.999
 4031POPC   C4B52102  38.907  24.457   7.339
 4032POPC   NC352103  22.728  33.444   5.137
 4032POPC   PO452104  23.020  34.027   5.338
 4032POPC   GL152105  22.913  33.963   5.794
 4032POPC   GL252106  22.737  33.637   5.810
 4032POPC   C1A52107  22.980  33.820   6.250
 4032POPC   D2A52108  22.855  33.953   6.701
 4032POPC   C3A52109  22.983  33.924   7.164
 4032POPC   C4A52110  22.998  34.219   7.551
 4032POPC   C1B52111  22.497  33.528   6.194
 4032POPC   C2B52112  22.416  33.663   6.609
 4032POPC   C3B52113  22.474  33.640   7.052
 4032POPC   C4B52114  22.766  33.500   7.365
 4033POPC   NC352115  35.292  30.535   5.163
 4033POPC   PO452116  35.809  31.009   5.289
 4033POPC   GL152117  35.558  30.656   5.602
 4033POPC   GL252118  35.188  30.681   5.665
 4033POPC   C1A52119  35.606  30.557   6.066
 4033POPC   D2A52120  35.408  30.660   6.489
 4033POPC   C3A52121  35.586  30.613   6.927
 4033POPC   C4A52122  35.374  30.683   7.301
 4033POPC   C1B52123  35.089  30.484   6.074
 4033POPC   C2B52124  35.006  30.337   6.512
 4033POPC   C3B52125  35.094  30.505   6.917
 4033POPC   C4B52126  34.987  30.371   7.363
 4034POPC   NC352127   6.131   4.098   5.242
 4034POPC   PO452128   5.548   4.495   5.399
 4034POPC   GL152129   5.746   4.250   5.683
 4034POPC   GL252130   5.587   3.928   5.554
 4034POPC   C1A52131   5.929   4.298   6.137
 4034POPC   D2A52132   6.138   4.222   6.601
 4034POPC   C3A52133   6.072   4.433   7.037
 4034POPC   C4A52134   6.002   4.682   7.425
 4034POPC   C1B52135   5.585   3.917   6.012
 4034POPC   C2B52136   5.646   4.008   6.447
 4034POPC   C3B52137   5.657   4.252   6.797
 4034POPC   C4B52138   5.645   4.215   7.223
 4035POPC   NC352139  26.947  15.741   5.534
 4035POPC   PO452140  26.531  16.180   5.289
 4035POPC   GL152141  26.743  16.135   5.803
 4035POPC   GL252142  27.011  15.863   6.004
 4035POPC   C1A52143  26.910  16.244   6.293
 4035POPC   D2A52144  27.045  16.057   6.721
 4035POPC   C3A52145  26.806  16.191   7.099
 4035POPC   C4A52146  26.842  16.375   7.534
 4035POPC   C1B52147  26.810  15.700   6.374
 4035POPC   C2B52148  26.772  15.535   6.790
 4035POPC   C3B52149  26.974  15.718   7.115
 4035POPC   C4B52150  26.909  15.865   7.508
 4036POPC   NC352151  41.785  25.355   5.495
 4036POPC   PO452152  41.267  25.021   5.237
 4036POPC   GL152153  41.441  25.158   5.770
 4036POPC   GL252154  41.468  25.449   5.958
 4036POPC   C1A52155  41.398  25.065   6.274
 4036POPC   D2A52156  41.422  25.271   6.686
 4036POPC   C3A52157  41.584  25.072   7.065
 4036POPC   C4A52158  41.842  25.120   7.427
 4036POPC   C1B52159  41.835  25.400   6.242
 4036POPC   C2B52160  41.934  25.400   6.695
 4036POPC   C3B52161  41.787  25.544   7.124
 4036POPC   C4B52162  41.854  25.609   7.599
 4037POPC   NC352163  24.322   1.086   5.595
 4037POPC   PO452164  24.858   1.552   5.603
 4037POPC   GL152165  24.566   1.416   5.932
 4037POPC   GL252166  24.196   1.507   5.877
 4037POPC   C1A52167  24.507   1.175   6.306
 4037POPC   D2A52168  24.509   0.831   6.620
 4037POPC   C3A52169  24.511   0.974   7.035
 4037POPC   C4A52170  24.564   0.863   7.468
 4037POPC   C1B52171  24.258   1.662   6.272
 4037POPC   C2B52172  24.481   1.615   6.628
 4037POPC   C3B52173  24.328   1.589   7.027
 4037POPC   C4B52174  24.303   1.325   7.368
 4038POPC   NC352175  21.080  26.150   5.538
 4038POPC   PO452176  20.519  25.703   5.446
 4038POPC   GL152177  20.710  25.791   5.802
 4038POPC   GL252178  20.636  26.144   5.802
 4038POPC   C1A52179  20.562  25.789   6.225
 4038POPC   D2A52180  20.728  25.907   6.593
 4038POPC   C3A52181  20.679  26.089   6.941
 4038POPC   C4A52182  20.763  25.881   7.287
 4038POPC   C1B52183  20.713  26.269   6.224
 4038POPC   C2B52184  20.433  26.394   6.566
 4038POPC   C3B52185  20.269  26.365   6.982
 4038POPC   C4B52186  20.460  26.276   7.416
 4039POPC   NC352187  23.979  22.055   5.257
 4039POPC   PO452188  23.485  22.246   5.690
 4039POPC   GL152189  23.851  22.105   5.857
 4039POPC   GL252190  23.978  22.446   5.816
 4039POPC   C1A52191  23.808  21.908   6.287
 4039POPC   D2A52192  23.452  22.011   6.564
 4039POPC   C3A52193  23.525  21.955   6.998
 4039POPC   C4A52194  23.762  21.952   7.382
 4039POPC   C1B52195  23.914  22.406   6.269
 4039POPC   C2B52196  23.949  22.260   6.702
 4039POPC   C3B52197  23.841  22.387   7.121
 4039POPC   C4B52198  23.924  22.368   7.601
 4040POPC   NC352199  32.282  28.161   5.322
 4040POPC   PO452200  31.878  28.756   5.338
 4040POPC   GL152201  32.014  28.483   5.663
 4040POPC   GL252202  32.362  28.355   5.783
 4040POPC   C1A52203  31.959  28.367   6.078
 4040POPC   D2A52204  32.153  28.366   6.467
 4040POPC   C3A52205  31.919  28.335   6.839
 4040POPC   C4A52206  32.163  28.424   7.215
 4040POPC   C1B52207  32.616  28.293   6.174
 4040POPC   C2B52208  32.654  28.251   6.615
 4040POPC   C3B52209  32.651  28.333   7.042
 4040POPC   C4B52210  32.535  28.094   7.435
 4041POPC   NC352211   8.121  25.331   5.370
 4041POPC   PO452212   8.767  25.344   5.494
 4041POPC   GL152213   8.617  25.326   5.904
 4041POPC   GL252214   8.365  25.602   5.872
 4041POPC   C1A52215   8.490  25.281   6.348
 4041POPC   D2A52216   8.300  25.512   6.709
 4041POPC   C3A52217   8.197  25.358   7.091
 4041POPC   C4A52218   8.040  25.000   7.265
 4041POPC   C1B52219   8.089  25.621   6.240
 4041POPC   C2B52220   7.837  25.701   6.634
 4041POPC   C3B52221   7.804  25.701   7.093
 4041POPC   C4B52222   7.914  25.504   7.493
 4042POPC   NC352223  13.974  42.728   5.654
 4042POPC   PO452224  13.466  43.061   5.361
 4042POPC   GL152225  13.648  43.182   5.775
 4042POPC   GL252226  13.596  42.875   5.941
 4042POPC   C1A52227  13.784  43.280   6.228
 4042POPC   D2A52228  13.702  43.539   6.609
 4042POPC   C3A52229  13.702  43.316   7.011
 4042POPC   C4A52230  13.471  43.319   7.391
 4042POPC   C1B52231  13.822  42.766   6.301
 4042POPC   C2B52232  13.847  42.904   6.702
 4042POPC   C3B52233  13.780  42.731   7.081
 4042POPC   C4B52234  13.546  42.825   7.369
 4043POPC   NC352235  15.885  14.611   5.406
 4043POPC   PO452236  16.260  14.039   5.512
 4043POPC   GL152237  15.936  14.233   5.796
 4043POPC   GL252238  15.978  14.619   5.918
 4043POPC   C1A52239  16.071  14.227   6.224
 4043POPC   D2A52240  16.068  14.427   6.602
 4043POPC   C3A52241  16.249  14.246   6.955
 4043POPC   C4A52242  16.068  14.083   7.311
 4043POPC   C1B52243  15.618  14.465   6.184
 4043POPC   C2B52244  15.554  14.292   6.598
 4043POPC   C3B52245  15.743  14.357   6.990
 4043POPC   C4B52246  16.041  14.701   7.120
 4044POPC   NC352247  14.966  36.291   5.058
 4044POPC   PO452248  15.387  36.043   5.487
 4044POPC   GL152249  15.407  36.211   5.876
 4044POPC   GL252250  15.069  36.275   5.915
 4044POPC   C1A52251  15.388  36.149   6.332
 4044POPC   D2A52252  15.399  35.915   6.709
 4044POPC   C3A52253  15.254  36.217   6.985
 4044POPC   C4A52254  15.435  36.370   7.341
 4044POPC   C1B52255  14.884  36.189   6.313
 4044POPC   C2B52256  14.886  35.969   6.728
 4044POPC   C3B52257  14.715  36.119   7.118
 4044POPC   C4B52258  14.931  36.409   7.361
 4045POPC   NC352259  43.844  36.371   5.436
 4045POPC   PO452260  43.475  35.772   5.308
 4045POPC   GL152261  43.584  35.981   5.724
 4045POPC   GL252262  43.954  36.027   5.819
 4045POPC   C1A52263  43.607  36.215   6.138
 4045POPC   D2A52264  43.819  36.417   6.487
 4045POPC   C3A52265  43.736  36.209   6.887
 4045POPC   C4A52266  43.618  36.076   7.307
 4045POPC   C1B52267  44.146  36.159   6.174
 4045POPC   C2B52268  44.223  36.078   6.573
 4045POPC   C3B52269  44.353  36.144   6.944
 4045POPC   C4B52270  44.117  36.101   7.247
 4046POPC   NC352271  44.900  15.561   5.445
 4046POPC   PO452272  44.526  14.959   5.449
 4046POPC   GL152273  44.579  15.206   5.807
 4046POPC   GL252274  44.911  15.213   5.836
 4046POPC   C1A52275  44.585  15.179   6.263
 4046POPC   D2A52276  44.388  15.000   6.625
 4046POPC   C3A52277  44.670  15.113   6.916
 4046POPC   C4A52278  44.745  15.414   7.229
 4046POPC   C1B52279   0.074  14.998   6.168
 4046POPC   C2B52280   0.091  15.215   6.545
 4046POPC   C3B52281   0.147  15.290   6.939
 4046POPC   C4B52282   0.195  15.139   7.310
 4047POPC   NC352283  24.807  22.050   5.401
 4047POPC   PO452284  24.246  22.450   5.252
 4047POPC   GL152285  24.451  22.328   5.672
 4047POPC   GL252286  24.358  22.020   5.867
 4047POPC   C1A52287  24.436  22.435   6.143
 4047POPC   D2A52288  24.627  22.391   6.565
 4047POPC   C3A52289  24.442  22.152   6.878
 4047POPC   C4A52290  24.276  22.232   7.270
 4047POPC   C1B52291  24.306  21.985   6.367
 4047POPC   C2B52292  24.112  21.771   6.755
 4047POPC   C3B52293  24.255  21.734   7.192
 4047POPC   C4B52294  24.658  21.907   7.289
 4048POPC   NC352295  20.410   2.150   5.554
 4048POPC   PO452296  20.984   1.758   5.373
 4048POPC   GL152297  20.800   1.835   5.771
 4048POPC   GL252298  20.481   1.643   5.745
 4048POPC   C1A52299  20.821   2.032   6.206
 4048POPC   D2A52300  20.692   1.869   6.631
 4048POPC   C3A52301  20.727   2.053   7.040
 4048POPC   C4A52302  20.293   2.178   7.114
 4048POPC   C1B52303  20.346   1.814   6.174
 4048POPC   C2B52304  20.167   1.818   6.614
 4048POPC   C3B52305  20.283   1.668   7.028
 4048POPC   C4B52306  20.193   1.455   7.417
 4049POPC   NC352307  37.627   4.998   5.544
 4049POPC   PO452308  37.948   5.627   5.519
 4049POPC   GL152309  37.835   5.348   5.867
 4049POPC   GL252310  37.489   5.325   5.952
 4049POPC   C1A52311  37.873   5.003   6.207
 4049POPC   D2A52312  37.858   4.745   6.624
 4049POPC   C3A52313  37.795   4.964   7.060
 4049POPC   C4A52314  37.727   5.093   7.532
 4049POPC   C1B52315  37.356   5.087   6.322
 4049POPC   C2B52316  37.374   4.988   6.767
 4049POPC   C3B52317  37.321   5.132   7.209
 4049POPC   C4B52318  37.233   5.336   7.606
 4050POPC   NC352319  37.197  16.853   5.433
 4050POPC   PO452320  36.669  16.370   5.418
 4050POPC   GL152321  36.801  16.669   5.729
 4050POPC   GL252322  37.113  16.544   5.830
 4050POPC   C1A52323  36.868  16.927   6.110
 4050POPC   D2A52324  36.653  16.853   6.510
 4050POPC   C3A52325  36.668  16.677   6.925
 4050POPC   C4A52326  36.661  16.922   7.309
 4050POPC   C1B52327  36.985  16.453   6.262
 4050POPC   C2B52328  37.120  16.558   6.700
 4050POPC   C3B52329  37.109  16.506   7.156
 4050POPC   C4B52330  37.128  16.777   7.517
 4051POPC   NC352331  37.663  44.858   5.427
 4051POPC   PO452332  37.609  44.194   5.406
 4051POPC   GL152333  37.692  44.510   5.799
 4051POPC   GL252334  37.765  44.883   5.917
 4051POPC   C1A52335  37.581  44.553   6.256
 4051POPC   D2A52336  37.802  44.761   6.593
 4051POPC   C3A52337  37.695  44.590   6.953
 4051POPC   C4A52338  37.298  44.532   7.113
 4051POPC   C1B52339  37.481   0.056   6.234
 4051POPC   C2B52340  37.311  44.855   6.620
 4051POPC   C3B52341  37.502   0.045   6.966
 4051POPC   C4B52342  37.828   0.049   7.285
 4052POPC   NC352343  32.049  21.031   5.463
 4052POPC   PO452344  32.071  21.651   5.426
 4052POPC   GL152345  32.208  21.437   5.797
 4052POPC   GL252346  32.544  21.280   5.768
 4052POPC   C1A52347  32.301  21.580   6.202
 4052POPC   D2A52348  32.286  21.369   6.563
 4052POPC   C3A52349  32.240  21.489   6.967
 4052POPC   C4A52350  32.134  21.273   7.353
 4052POPC   C1B52351  32.735  21.303   6.185
 4052POPC   C2B52352  32.823  21.477   6.566
 4052POPC   C3B52353  32.683  21.259   6.898
 4052POPC   C4B52354  32.619  21.392   7.328
 4053POPC   NC352355  23.884  43.595   5.144
 4053POPC   PO452356  23.646  43.947   5.616
 4053POPC   GL152357  23.515  43.925   5.982
 4053POPC   GL252358  23.281  44.127   6.021
 4053POPC   C1A52359  23.687  43.991   6.335
 4053POPC   D2A52360  23.954  43.791   6.601
 4053POPC   C3A52361  23.774  43.697   7.004
 4053POPC   C4A52362  23.824  43.789   7.437
 4053POPC   C1B52363  23.209  44.140   6.449
 4053POPC   C2B52364  23.477  44.151   6.781
 4053POPC   C3B52365  23.349  43.961   7.135
 4053POPC   C4B52366  23.348  44.022   7.546
 4054POPC   NC352367  30.473  42.539   5.358
 4054POPC   PO452368  30.759  41.996   5.060
 4054POPC   GL152369  30.706  42.112   5.566
 4054POPC   GL252370  30.397  42.270   5.777
 4054POPC   C1A52371  30.783  42.029   6.033
 4054POPC   D2A52372  30.637  42.080   6.471
 4054POPC   C3A52373  30.794  42.047   6.897
 4054POPC   C4A52374  30.913  42.204   7.301
 4054POPC   C1B52375  30.319  42.397   6.223
 4054POPC   C2B52376  30.473  42.538   6.658
 4054POPC   C3B52377  30.445  42.401   7.088
 4054POPC   C4B52378  30.542  42.495   7.529
 4055POPC   NC352379  44.075  26.643   5.598
 4055POPC   PO452380  43.654  26.968   5.256
 4055POPC   GL152381  43.682  27.061   5.770
 4055POPC   GL252382  43.989  27.064   5.896
 4055POPC   C1A52383  43.696  27.142   6.285
 4055POPC   D2A52384  43.703  26.763   6.611
 4055POPC   C3A52385  43.819  26.799   7.060
 4055POPC   C4A52386  43.645  27.132   7.327
 4055POPC   C1B52387  44.083  26.776   6.226
 4055POPC   C2B52388  44.153  26.560   6.613
 4055POPC   C3B52389  44.092  26.373   7.017
 4055POPC   C4B52390  44.116  26.578   7.427
 4056POPC   NC352391  22.397  10.418   5.620
 4056POPC   PO452392  21.835  10.485   5.236
 4056POPC   GL152393  21.929  10.657   5.702
 4056POPC   GL252394  21.655  10.819   5.868
 4056POPC   C1A52395  22.102  10.542   6.165
 4056POPC   D2A52396  22.397  10.635   6.521
 4056POPC   C3A52397  22.186  10.421   6.865
 4056POPC   C4A52398  21.940  10.284   7.268
 4056POPC   C1B52399  21.849  10.959   6.253
 4056POPC   C2B52400  22.021  10.938   6.671
 4056POPC   C3B52401  21.844  10.751   7.035
 4056POPC   C4B52402  21.873  10.889   7.436
 4057POPC   NC352403  14.815  32.374   5.523
 4057POPC   PO452404  14.132  32.112   5.450
 4057POPC   GL152405  14.145  32.275   5.870
 4057POPC   GL252406  14.461  32.496   5.927
 4057POPC   C1A52407  14.047  32.182   6.305
 4057POPC   D2A52408  14.293  32.264   6.656
 4057POPC   C3A52409  14.361  32.037   7.041
 4057POPC   C4A52410  14.756  32.120   7.280
 4057POPC   C1B52411  14.569  32.699   6.347
 4057POPC   C2B52412  14.524  32.693   6.797
 4057POPC   C3B52413  14.249  32.543   7.112
 4057POPC   C4B52414  14.131  32.743   7.482
 4058POPC   NC352415  42.211   2.676   5.308
 4058POPC   PO452416  42.785   2.391   5.141
 4058POPC   GL152417  42.648   2.640   5.635
 4058POPC   GL252418  42.282   2.760   5.782
 4058POPC   C1A52419  42.634   2.896   6.086
 4058POPC   D2A52420  42.323   2.899   6.461
 4058POPC   C3A52421  42.516   2.938   6.876
 4058POPC   C4A52422  42.589   3.109   7.296
 4058POPC   C1B52423  41.962   2.763   6.087
 4058POPC   C2B52424  41.907   2.565   6.463
 4058POPC   C3B52425  41.931   2.702   6.896
 4058POPC   C4B52426  42.112   2.943   7.248
 4059POPC   NC352427  33.656  27.392   5.388
 4059POPC   PO452428  33.722  28.030   5.437
 4059POPC   GL152429  33.811  27.755   5.778
 4059POPC   GL252430  33.508  27.617   5.869
 4059POPC   C1A52431  33.985  27.598   6.189
 4059POPC   D2A52432  33.820  27.576   6.608
 4059POPC   C3A52433  34.056  27.581   6.980
 4059POPC   C4A52434  33.964  27.529   7.373
 4059POPC   C1B52435  33.590  27.266   6.159
 4059POPC   C2B52436  33.521  27.170   6.609
 4059POPC   C3B52437  33.605  27.333   7.041
 4059POPC   C4B52438  33.608  27.170   7.455
 4060POPC   NC352439  37.725  14.582   5.447
 4060POPC   PO452440  37.374  14.120   5.290
 4060POPC   GL152441  37.475  14.254   5.744
 4060POPC   GL252442  37.847  14.251   5.835
 4060POPC   C1A52443  37.373  14.358   6.191
 4060POPC   D2A52444  37.556  14.308   6.621
 4060POPC   C3A52445  37.293  14.327   6.969
 4060POPC   C4A52446  37.376  14.253   7.393
 4060POPC   C1B52447  37.772  14.022   6.236
 4060POPC   C2B52448  37.839  13.871   6.673
 4060POPC   C3B52449  37.797  14.096   7.060
 4060POPC   C4B52450  37.834  14.062   7.505
 4061POPC   NC352451  13.329  39.502   5.389
 4061POPC   PO452452  13.985  39.265   5.623
 4061POPC   GL152453  13.623  39.357   5.781
 4061POPC   GL252454  13.411  39.110   5.758
 4061POPC   C1A52455  13.592  39.454   6.177
 4061POPC   D2A52456  13.809  39.601   6.530
 4061POPC   C3A52457  13.672  39.440   6.915
 4061POPC   C4A52458  13.464  39.407   7.262
 4061POPC   C1B52459  13.355  39.002   6.157
 4061POPC   C2B52460  13.409  39.154   6.567
 4061POPC   C3B52461  13.393  38.990   6.962
 4061POPC   C4B52462  13.512  38.864   7.344
 4062POPC   NC352463  22.044   8.271   5.179
 4062POPC   PO452464  22.312   7.871   5.600
 4062POPC   GL152465  22.366   8.260   5.793
 4062POPC   GL252466  22.044   8.261   5.828
 4062POPC   C1A52467  22.450   8.218   6.228
 4062POPC   D2A52468  22.238   8.260   6.612
 4062POPC   C3A52469  22.415   8.347   7.021
 4062POPC   C4A52470  22.440   8.100   7.418
 4062POPC   C1B52471  21.890   8.044   6.202
 4062POPC   C2B52472  21.722   8.104   6.618
 4062POPC   C3B52473  21.901   8.229   7.003
 4062POPC   C4B52474  22.015   8.370   7.381
 4063POPC   NC352475  23.365   7.985   5.547
 4063POPC   PO452476  23.894   8.433   5.544
 4063POPC   GL152477  23.878   8.442   5.942
 4063POPC   GL252478  23.808   8.073   5.955
 4063POPC   C1A52479  23.751   8.670   6.305
 4063POPC   D2A52480  23.377   8.592   6.572
 4063POPC   C3A52481  23.549   8.368   6.928
 4063POPC   C4A52482  23.807   8.305   7.307
 4063POPC   C1B52483  23.449   8.229   6.203
 4063POPC   C2B52484  23.208   8.103   6.583
 4063POPC   C3B52485  23.260   7.886   6.939
 4063POPC   C4B52486  23.374   8.072   7.305
 4064POPC   NC352487  39.064  15.648   5.563
 4064POPC   PO452488  39.447  16.215   5.425
 4064POPC   GL152489  39.396  15.959   5.814
 4064POPC   GL252490  39.046  16.038   5.922
 4064POPC   C1A52491  39.280  15.697   6.202
 4064POPC   D2A52492  39.210  15.933   6.557
 4064POPC   C3A52493  39.368  15.874   6.963
 4064POPC   C4A52494  39.595  16.172   7.172
 4064POPC   C1B52495  38.763  15.816   6.257
 4064POPC   C2B52496  38.741  15.861   6.714
 4064POPC   C3B52497  38.927  16.197   6.940
 4064POPC   C4B52498  39.107  16.216   7.364
 4065POPC   NC352499  27.230  24.775   5.491
 4065POPC   PO452500  27.739  24.259   5.425
 4065POPC   GL152501  27.618  24.202   5.839
 4065POPC   GL252502  27.541  24.558   5.828
 4065POPC   C1A52503  27.639  24.387   6.277
 4065POPC   D2A52504  27.420  24.389   6.630
 4065POPC   C3A52505  27.662  24.278   6.962
 4065POPC   C4A52506  27.597  24.407   7.345
 4065POPC   C1B52507  27.281  24.787   6.158
 4065POPC   C2B52508  27.253  24.880   6.606
 4065POPC   C3B52509  27.490  24.762   6.998
 4065POPC   C4B52510  27.508  24.911   7.449
 4066POPC   NC352511  41.844  37.690   5.526
 4066POPC   PO452512  41.214  37.447   5.358
 4066POPC   GL152513  41.389  37.664   5.783
 4066POPC   GL252514  41.537  37.986   5.822
 4066POPC   C1A52515  41.510  37.693   6.242
 4066POPC   D2A52516  41.372  37.918   6.614
 4066POPC   C3A52517  41.447  37.654   6.963
 4066POPC   C4A52518  41.601  37.624   7.366
 4066POPC   C1B52519  41.937  37.957   6.117
 4066POPC   C2B52520  41.905  37.927   6.558
 4066POPC   C3B52521  41.948  37.838   6.988
 4066POPC   C4B52522  41.910  38.021   7.371
 4067POPC   NC352523  21.896   1.248   5.232
 4067POPC   PO452524  22.551   1.107   5.456
 4067POPC   GL152525  22.240   1.243   5.782
 4067POPC   GL252526  21.913   1.124   5.736
 4067POPC   C1A52527  22.029   1.346   6.196
 4067POPC   D2A52528  21.948   1.301   6.647
 4067POPC   C3A52529  22.228   1.048   6.880
 4067POPC   C4A52530  22.274   1.193   7.286
 4067POPC   C1B52531  21.941   0.813   6.090
 4067POPC   C2B52532  21.947   0.725   6.546
 4067POPC   C3B52533  21.744   0.907   6.929
 4067POPC   C4B52534  21.801   0.969   7.375
 4068POPC   NC352535  29.755   2.752   5.439
 4068POPC   PO452536  29.634   2.168   5.790
 4068POPC   GL152537  29.798   2.581   5.933
 4068POPC   GL252538  29.712   2.948   5.897
 4068POPC   C1A52539  30.037   2.795   6.260
 4068POPC   D2A52540  30.328   2.586   6.515
 4068POPC   C3A52541  30.087   2.590   6.828
 4068POPC   C4A52542  30.199   2.519   7.202
 4068POPC   C1B52543  29.557   3.026   6.294
 4068POPC   C2B52544  29.768   2.973   6.697
 4068POPC   C3B52545  29.924   2.965   7.139
 4068POPC   C4B52546  29.723   3.084   7.554
 4069POPC   NC352547  43.329  14.894   5.437
 4069POPC   PO452548  43.057  14.304   5.233
 4069POPC   GL152549  43.073  14.444   5.704
 4069POPC   GL252550  43.150  14.759   5.877
 4069POPC   C1A52551  43.027  14.388   6.196
 4069POPC   D2A52552  43.222  14.136   6.555
 4069POPC   C3A52553  43.040  14.214   6.987
 4069POPC   C4A52554  42.843  14.563   7.228
 4069POPC   C1B52555  43.503  14.818   6.145
 4069POPC   C2B52556  43.416  14.635   6.526
 4069POPC   C3B52557  43.261  14.709   6.907
 4069POPC   C4B52558  43.348  14.503   7.277
 4070POPC   NC352559   4.563  14.666   5.455
 4070POPC   PO452560   3.963  14.251   5.452
 4070POPC   GL152561   4.200  14.255   5.822
 4070POPC   GL252562   4.414  14.551   5.918
 4070POPC   C1A52563   4.095  14.363   6.257
 4070POPC   D2A52564   4.380  14.480   6.579
 4070POPC   C3A52565   4.206  14.439   6.975
 4070POPC   C4A52566   4.356  14.576   7.341
 4070POPC   C1B52567   4.586  14.217   6.183
 4070POPC   C2B52568   4.655  13.962   6.543
 4070POPC   C3B52569   4.647  14.170   6.947
 4070POPC   C4B52570   4.491  14.083   7.367
 4071POPC   NC352571  21.388  40.127   5.414
 4071POPC   PO452572  21.828  39.725   5.578
 4071POPC   GL152573  21.535  40.007   5.910
 4071POPC   GL252574  21.169  40.078   5.886
 4071POPC   C1A52575  21.331  40.065   6.375
 4071POPC   D2A52576  21.583  40.141   6.754
 4071POPC   C3A52577  21.543  40.086   7.233
 4071POPC   C4A52578  21.598  39.919   7.694
 4071POPC   C1B52579  20.923  39.842   6.187
 4071POPC   C2B52580  20.952  39.760   6.621
 4071POPC   C3B52581  21.106  39.938   7.003
 4071POPC   C4B52582  21.166  39.824   7.442
 4072POPC   NC352583   4.171  39.308   5.014
 4072POPC   PO452584   4.269  38.992   5.591
 4072POPC   GL152585   4.322  39.241   5.922
 4072POPC   GL252586   4.632  39.371   6.025
 4072POPC   C1A52587   4.288  39.085   6.317
 4072POPC   D2A52588   4.115  39.087   6.660
 4072POPC   C3A52589   4.253  38.884   6.997
 4072POPC   C4A52590   4.207  39.252   7.197
 4072POPC   C1B52591   4.785  39.011   6.248
 4072POPC   C2B52592   4.648  38.931   6.682
 4072POPC   C3B52593   4.701  39.191   7.068
 4072POPC   C4B52594   4.610  39.213   7.541
 4073POPC   NC352595  32.725  11.233   5.392
 4073POPC   PO452596  33.217  11.662   5.428
 4073POPC   GL152597  33.188  11.429   5.832
 4073POPC   GL252598  32.982  11.141   5.864
 4073POPC   C1A52599  33.308  11.247   6.253
 4073POPC   D2A52600  33.559  11.267   6.621
 4073POPC   C3A52601  33.273  11.359   6.944
 4073POPC   C4A52602  33.332  11.470   7.384
 4073POPC   C1B52603  32.803  11.142   6.299
 4073POPC   C2B52604  32.818  11.042   6.720
 4073POPC   C3B52605  32.780  11.257   7.109
 4073POPC   C4B52606  32.907  11.270   7.543
 4074POPC   NC352607  25.981   2.407   5.580
 4074POPC   PO452608  26.379   2.927   5.466
 4074POPC   GL152609  26.240   2.774   5.867
 4074POPC   GL252610  26.527   2.559   5.854
 4074POPC   C1A52611  26.012   2.749   6.283
 4074POPC   D2A52612  25.803   2.886   6.687
 4074POPC   C3A52613  25.890   2.608   7.075
 4074POPC   C4A52614  26.105   2.782   7.503
 4074POPC   C1B52615  26.379   2.345   6.208
 4074POPC   C2B52616  26.336   2.495   6.636
 4074POPC   C3B52617  26.379   2.568   7.075
 4074POPC   C4B52618  26.195   2.318   7.400
 4075POPC   NC352619  16.153  25.388   5.457
 4075POPC   PO452620  15.706  24.932   5.519
 4075POPC   GL152621  15.908  25.149   5.856
 4075POPC   GL252622  16.198  24.998   5.778
 4075POPC   C1A52623  15.830  25.360   6.262
 4075POPC   D2A52624  15.721  25.294   6.703
 4075POPC   C3A52625  15.938  25.432   7.071
 4075POPC   C4A52626  15.770  25.188   7.387
 4075POPC   C1B52627  16.204  24.818   6.167
 4075POPC   C2B52628  16.072  24.974   6.546
 4075POPC   C3B52629  15.990  24.922   6.977
 4075POPC   C4B52630  16.298  25.039   7.303
 4076POPC   NC352631  13.322   4.839   5.293
 4076POPC   PO452632  13.784   5.322   5.379
 4076POPC   GL152633  13.497   5.173   5.704
 4076POPC   GL252634  13.491   5.502   5.816
 4076POPC   C1A52635  13.469   5.139   6.186
 4076POPC   D2A52636  13.654   4.977   6.602
 4076POPC   C3A52637  13.449   5.052   6.985
 4076POPC   C4A52638  13.518   4.841   7.372
 4076POPC   C1B52639  13.873   5.408   6.064
 4076POPC   C2B52640  13.982   5.363   6.498
 4076POPC   C3B52641  14.003   5.239   6.913
 4076POPC   C4B52642  13.805   5.255   7.294
 4077POPC   NC352643  24.231  40.743   5.419
 4077POPC   PO452644  24.700  41.111   5.639
 4077POPC   GL152645  24.593  41.078   6.029
 4077POPC   GL252646  24.380  40.810   5.964
 4077POPC   C1A52647  24.427  41.061   6.427
 4077POPC   D2A52648  24.476  40.763   6.735
 4077POPC   C3A52649  24.334  40.922   7.103
 4077POPC   C4A52650  24.689  40.966   7.330
 4077POPC   C1B52651  24.462  40.482   6.281
 4077POPC   C2B52652  24.476  40.257   6.688
 4077POPC   C3B52653  24.463  40.274   7.136
 4077POPC   C4B52654  24.712  40.195   7.510
 4078POPC   NC352655   4.960   5.823   5.290
 4078POPC   PO452656   4.789   6.321   5.733
 4078POPC   GL152657   4.988   5.910   5.816
 4078POPC   GL252658   5.328   5.812   5.744
 4078POPC   C1A52659   5.038   5.591   6.129
 4078POPC   D2A52660   5.152   5.554   6.565
 4078POPC   C3A52661   4.957   5.797   6.873
 4078POPC   C4A52662   4.851   5.670   7.274
 4078POPC   C1B52663   5.446   5.868   6.211
 4078POPC   C2B52664   5.400   5.992   6.639
 4078POPC   C3B52665   5.497   5.846   7.044
 4078POPC   C4B52666   5.244   5.982   7.324
 4079POPC   NC352667  11.997  41.823   5.405
 4079POPC   PO452668  11.545  41.224   5.317
 4079POPC   GL152669  11.704  41.442   5.712
 4079POPC   GL252670  12.039  41.564   5.832
 4079POPC   C1A52671  11.693  41.235   6.129
 4079POPC   D2A52672  11.526  41.416   6.537
 4079POPC   C3A52673  11.792  41.393   6.880
 4079POPC   C4A52674  11.964  41.303   7.263
 4079POPC   C1B52675  11.949  41.627   6.289
 4079POPC   C2B52676  12.129  41.706   6.672
 4079POPC   C3B52677  12.366  41.497   6.965
 4079POPC   C4B52678  12.496  41.605   7.390
 4080POPC   NC352679  13.529   9.383   5.467
 4080POPC   PO452680  13.898   8.789   5.480
 4080POPC   GL152681  13.718   9.015   5.820
 4080POPC   GL252682  13.899   9.328   5.859
 4080POPC   C1A52683  13.466   8.981   6.212
 4080POPC   D2A52684  13.282   8.869   6.638
 4080POPC   C3A52685  13.397   8.815   7.069
 4080POPC   C4A52686  13.482   8.438   7.307
 4080POPC   C1B52687  13.838   9.378   6.309
 4080POPC   C2B52688  13.484   9.335   6.579
 4080POPC   C3B52689  13.356   9.329   6.985
 4080POPC   C4B52690  13.691   9.211   7.204
 4081POPC   NC352691  43.069   5.010   5.221
 4081POPC   PO452692  43.562   5.300   5.591
 4081POPC   GL152693  43.185   5.149   5.786
 4081POPC   GL252694  42.981   4.832   5.685
 4081POPC   C1A52695  43.208   5.191   6.227
 4081POPC   D2A52696  43.325   5.025   6.605
 4081POPC   C3A52697  43.233   5.312   6.888
 4081POPC   C4A52698  43.441   5.301   7.245
 4081POPC   C1B52699  42.901   4.799   6.124
 4081POPC   C2B52700  42.813   4.916   6.554
 4081POPC   C3B52701  42.971   4.875   6.995
 4081POPC   C4B52702  43.019   4.760   7.436
 4082POPC   NC352703  40.558   2.690   5.476
 4082POPC   PO452704  41.150   3.082   5.258
 4082POPC   GL152705  41.134   2.934   5.714
 4082POPC   GL252706  41.116   2.560   5.774
 4082POPC   C1A52707  40.872   2.878   6.110
 4082POPC   D2A52708  40.596   2.993   6.479
 4082POPC   C3A52709  40.547   2.723   6.840
 4082POPC   C4A52710  40.607   2.763   7.269
 4082POPC   C1B52711  40.947   2.352   6.130
 4082POPC   C2B52712  40.926   2.518   6.526
 4082POPC   C3B52713  40.917   2.374   6.928
 4082POPC   C4B52714  41.041   2.520   7.263
 4083POPC   NC352715  38.199  15.435   5.665
 4083POPC   PO452716  38.021  14.882   5.265
 4083POPC   GL152717  37.709  15.018   5.696
 4083POPC   GL252718  37.670  14.746   5.914
 4083POPC   C1A52719  37.667  15.268   6.110
 4083POPC   D2A52720  37.854  15.417   6.526
 4083POPC   C3A52721  37.695  15.209   6.903
 4083POPC   C4A52722  37.368  15.251   7.230
 4083POPC   C1B52723  37.826  14.573   6.260
 4083POPC   C2B52724  37.807  14.745   6.668
 4083POPC   C3B52725  37.775  14.602   7.081
 4083POPC   C4B52726  37.790  14.930   7.339
 4084POPC   NC352727  44.124  13.573   5.365
 4084POPC   PO452728  43.419  13.399   5.454
 4084POPC   GL152729  43.651  13.662   5.799
 4084POPC   GL252730  44.035  13.674   5.857
 4084POPC   C1A52731  43.742  13.822   6.242
 4084POPC   D2A52732  43.743  13.618   6.658
 4084POPC   C3A52733  43.779  13.717   7.126
 4084POPC   C4A52734  43.622  13.608   7.585
 4084POPC   C1B52735  44.234  13.678   6.277
 4084POPC   C2B52736  44.178  13.907   6.685
 4084POPC   C3B52737  44.342  13.920   7.107
 4084POPC   C4B52738  44.292  13.508   7.300
 4085POPC   NC352739  37.514  39.521   5.266
 4085POPC   PO452740  37.836  38.988   5.449
 4085POPC   GL152741  37.557  39.208   5.787
 4085POPC   GL252742  37.328  39.540   5.768
 4085POPC   C1A52743  37.775  39.379   6.181
 4085POPC   D2A52744  37.865  39.196   6.603
 4085POPC   C3A52745  37.771  39.393   7.031
 4085POPC   C4A52746  37.972  39.617   7.393
 4085POPC   C1B52747  37.308  39.532   6.249
 4085POPC   C2B52748  37.361  39.433   6.708
 4085POPC   C3B52749  37.255  39.413   7.171
 4085POPC   C4B52750  37.528  39.381   7.527
 4086POPC   NC352751  33.927  29.717   5.472
 4086POPC   PO452752  33.325  29.962   5.560
 4086POPC   GL152753  33.627  29.760   5.887
 4086POPC   GL252754  34.046  29.703   5.946
 4086POPC   C1A52755  33.771  30.000   6.257
 4086POPC   D2A52756  34.013  30.047   6.613
 4086POPC   C3A52757  33.818  30.200   6.976
 4086POPC   C4A52758  34.125  30.122   7.270
 4086POPC   C1B52759  33.848  29.459   6.245
 4086POPC   C2B52760  33.971  29.489   6.665
 4086POPC   C3B52761  33.778  29.453   7.031
 4086POPC   C4B52762  33.756  29.796   7.301
 4087POPC   NC352763   1.714  44.913   5.351
 4087POPC   PO452764   2.114  44.424   5.475
 4087POPC   GL152765   2.087  44.439   5.897
 4087POPC   GL252766   2.380  44.330   5.995
 4087POPC   C1A52767   1.980  44.661   6.251
 4087POPC   D2A52768   1.961  44.981   6.531
 4087POPC   C3A52769   1.907  44.849   6.951
 4087POPC   C4A52770   1.986  44.972   7.371
 4087POPC   C1B52771   2.247  44.222   6.373
 4087POPC   C2B52772   2.135  44.461   6.725
 4087POPC   C3B52773   2.204  44.441   7.152
 4087POPC   C4B52774   2.505  44.433   7.496
 4088POPC   NC352775  14.044  17.950   5.462
 4088POPC   PO452776  14.289  18.594   5.349
 4088POPC   GL152777  14.509  18.488   5.796
 4088POPC   GL252778  14.844  18.653   5.850
 4088POPC   C1A52779  14.503  18.268   6.256
 4088POPC   D2A52780  14.453  18.272   6.739
 4088POPC   C3A52781  14.541  17.951   7.069
 4088POPC   C4A52782  14.227  17.970   7.412
 4088POPC   C1B52783  14.649  18.756   6.240
 4088POPC   C2B52784  14.712  18.690   6.674
 4088POPC   C3B52785  14.569  18.790   7.070
 4088POPC   C4B52786  14.382  18.417   7.233
 4089POPC   NC352787  21.075  29.356   5.443
 4089POPC   PO452788  20.458  29.099   5.214
 4089POPC   GL152789  20.562  29.212   5.639
 4089POPC   GL252790  20.228  29.326   5.760
 4089POPC   C1A52791  20.653  29.196   6.103
 4089POPC   D2A52792  20.521  29.325   6.542
 4089POPC   C3A52793  20.738  29.183   6.960
 4089POPC   C4A52794  20.748  29.334   7.394
 4089POPC   C1B52795  20.134  29.131   6.181
 4089POPC   C2B52796  20.066  29.001   6.614
 4089POPC   C3B52797  20.225  29.236   6.971
 4089POPC   C4B52798  20.265  29.185   7.463
 4090POPC   NC352799  10.759   8.434   5.702
 4090POPC   PO452800  10.171   8.175   5.510
 4090POPC   GL152801  10.455   8.043   5.895
 4090POPC   GL252802  10.412   8.375   6.063
 4090POPC   C1A52803  10.574   8.032   6.375
 4090POPC   D2A52804  10.356   8.346   6.610
 4090POPC   C3A52805  10.376   8.307   7.034
 4090POPC   C4A52806  10.347   7.928   7.280
 4090POPC   C1B52807  10.739   8.560   6.332
 4090POPC   C2B52808  10.790   8.575   6.753
 4090POPC   C3B52809  10.894   8.277   7.022
 4090POPC   C4B52810  10.784   8.426   7.390
 4091POPC   NC352811   0.726  41.394   5.452
 4091POPC   PO452812   0.846  42.063   5.453
 4091POPC   GL152813   0.758  41.740   5.817
 4091POPC   GL252814   0.396  41.675   5.869
 4091POPC   C1A52815   0.713  41.347   6.136
 4091POPC   D2A52816   0.511  41.228   6.567
 4091POPC   C3A52817   0.638  41.326   7.018
 4091POPC   C4A52818   0.564  41.351   7.482
 4091POPC   C1B52819   0.528  41.799   6.305
 4091POPC   C2B52820   0.518  41.774   6.765
 4091POPC   C3B52821   0.229  41.662   7.089
 4091POPC   C4B52822   0.208  41.746   7.540
 4092POPC   NC352823  35.793  15.443   5.229
 4092POPC   PO452824  36.157  15.031   5.025
 4092POPC   GL152825  36.094  15.169   5.547
 4092POPC   GL252826  35.827  15.377   5.759
 4092POPC   C1A52827  36.099  14.986   6.014
 4092POPC   D2A52828  35.855  14.875   6.425
 4092POPC   C3A52829  36.040  14.892   6.854
 4092POPC   C4A52830  36.315  15.218   7.078
 4092POPC   C1B52831  35.730  15.304   6.198
 4092POPC   C2B52832  35.869  15.363   6.637
 4092POPC   C3B52833  35.749  15.407   7.068
 4092POPC   C4B52834  35.608  15.366   7.522
 4093POPC   NC352835  34.630  14.025   5.032
 4093POPC   PO452836  34.757  14.560   5.493
 4093POPC   GL152837  34.562  14.464   5.862
 4093POPC   GL252838  34.353  14.155   5.808
 4093POPC   C1A52839  34.575  14.649   6.257
 4093POPC   D2A52840  34.415  14.842   6.576
 4093POPC   C3A52841  34.575  14.718   6.950
 4093POPC   C4A52842  34.417  14.512   7.250
 4093POPC   C1B52843  34.521  14.117   6.234
 4093POPC   C2B52844  34.540  14.295   6.649
 4093POPC   C3B52845  34.505  14.073   7.021
 4093POPC   C4B52846  34.767  13.855   7.299
 4094POPC   NC352847  10.771  10.658   5.669
 4094POPC   PO452848  10.312  10.231   5.377
 4094POPC   GL152849  10.392  10.283   5.806
 4094POPC   GL252850  10.063  10.288   5.932
 4094POPC   C1A52851  10.489  10.478   6.213
 4094POPC   D2A52852  10.724  10.798   6.412
 4094POPC   C3A52853  10.841  10.581   6.755
 4094POPC   C4A52854  10.553  10.514   7.094
 4094POPC   C1B52855  10.018  10.084   6.345
 4094POPC   C2B52856   9.933  10.300   6.730
 4094POPC   C3B52857  10.074  10.351   7.158
 4094POPC   C4B52858  10.356  10.101   7.458
 4095POPC   NC352859   8.896  12.671   5.453
 4095POPC   PO452860   9.279  13.308   5.319
 4095POPC   GL152861   9.198  13.084   5.766
 4095POPC   GL252862   9.050  12.749   5.931
 4095POPC   C1A52863   9.057  13.169   6.214
 4095POPC   D2A52864   8.980  13.327   6.647
 4095POPC   C3A52865   9.092  13.056   6.980
 4095POPC   C4A52866   8.879  12.919   7.295
 4095POPC   C1B52867   8.730  12.743   6.280
 4095POPC   C2B52868   8.689  12.792   6.736
 4095POPC   C3B52869   8.764  12.482   7.045
 4095POPC   C4B52870   9.162  12.399   7.159
 4096POPC   NC352871  36.479  27.430   4.963
 4096POPC   PO452872  35.948  27.465   5.390
 4096POPC   GL152873  36.141  27.669   5.746
 4096POPC   GL252874  36.264  27.439   6.000
 4096POPC   C1A52875  36.101  27.883   6.157
 4096POPC   D2A52876  35.851  27.871   6.541
 4096POPC   C3A52877  36.051  27.617   6.854
 4096POPC   C4A52878  36.143  27.685   7.288
 4096POPC   C1B52879  36.556  27.242   6.228
 4096POPC   C2B52880  36.491  27.414   6.616
 4096POPC   C3B52881  36.554  27.603   6.968
 4096POPC   C4B52882  36.589  27.425   7.343
 4097POPC   NC352883  25.252   1.358   5.349
 4097POPC   PO452884  25.822   1.095   5.192
 4097POPC   GL152885  25.609   1.283   5.719
 4097POPC   GL252886  25.205   1.223   5.839
 4097POPC   C1A52887  25.566   1.102   6.156
 4097POPC   D2A52888  25.474   1.278   6.541
 4097POPC   C3A52889  25.560   1.113   6.925
 4097POPC   C4A52890  25.388   1.309   7.271
 4097POPC   C1B52891  25.020   1.209   6.283
 4097POPC   C2B52892  24.856   1.268   6.745
 4097POPC   C3B52893  24.880   1.270   7.219
 4097POPC   C4B52894  25.038   1.009   7.579
 4098POPC   NC352895   9.129  18.320   5.297
 4098POPC   PO452896   8.892  17.865   5.663
 4098POPC   GL152897   8.998  18.185   5.945
 4098POPC   GL252898   9.136  18.523   5.853
 4098POPC   C1A52899   8.874  18.130   6.354
 4098POPC   D2A52900   9.025  18.241   6.735
 4098POPC   C3A52901   8.700  18.353   6.972
 4098POPC   C4A52902   8.524  18.308   7.363
 4098POPC   C1B52903   9.100  18.619   6.323
 4098POPC   C2B52904   9.155  18.733   6.778
 4098POPC   C3B52905   9.227  18.458   7.175
 4098POPC   C4B52906   8.975  18.451   7.578
 4099POPC   NC352907  10.502  41.042   5.432
 4099POPC   PO452908  10.816  40.541   5.301
 4099POPC   GL152909  10.751  40.718   5.743
 4099POPC   GL252910  10.383  40.674   5.791
 4099POPC   C1A52911  10.639  40.836   6.203
 4099POPC   D2A52912  10.630  40.634   6.618
 4099POPC   C3A52913  10.760  40.934   6.927
 4099POPC   C4A52914  10.789  40.977   7.346
 4099POPC   C1B52915  10.151  40.640   6.189
 4099POPC   C2B52916  10.143  40.798   6.616
 4099POPC   C3B52917  10.297  40.783   7.048
 4099POPC   C4B52918  10.304  41.083   7.371
 4100POPC   NC352919  11.434  14.028   5.573
 4100POPC   PO452920  11.010  13.524   5.433
 4100POPC   GL152921  11.262  13.531   5.848
 4100POPC   GL252922  11.552  13.275   5.831
 4100POPC   C1A52923  11.380  13.823   6.225
 4100POPC   D2A52924  11.660  13.800   6.622
 4100POPC   C3A52925  11.425  13.800   6.980
 4100POPC   C4A52926  11.319  13.679   7.399
 4100POPC   C1B52927  11.566  13.363   6.271
 4100POPC   C2B52928  11.278  13.458   6.591
 4100POPC   C3B52929  11.116  13.389   6.973
 4100POPC   C4B52930  11.440  13.226   7.179
 4101POPC   NC352931   7.938  24.553   5.673
 4101POPC   PO452932   7.434  24.855   5.368
 4101POPC   GL152933   7.466  24.688   5.822
 4101POPC   GL252934   7.366  24.376   5.907
 4101POPC   C1A52935   7.513  24.642   6.309
 4101POPC   D2A52936   7.770  24.726   6.655
 4101POPC   C3A52937   7.608  24.687   7.059
 4101POPC   C4A52938   7.641  24.783   7.476
 4101POPC   C1B52939   7.570  24.145   6.252
 4101POPC   C2B52940   7.580  24.194   6.691
 4101POPC   C3B52941   7.541  24.168   7.126
 4101POPC   C4B52942   7.409  24.349   7.531
 4102POPC   NC352943   8.300  27.118   5.505
 4102POPC   PO452944   7.978  26.545   5.406
 4102POPC   GL152945   7.960  26.771   5.818
 4102POPC   GL252946   7.785  27.090   5.746
 4102POPC   C1A52947   8.243  26.821   6.211
 4102POPC   D2A52948   8.461  26.962   6.636
 4102POPC   C3A52949   8.454  26.763   7.087
 4102POPC   C4A52950   8.294  26.713   7.538
 4102POPC   C1B52951   7.826  27.146   6.197
 4102POPC   C2B52952   7.896  26.873   6.584
 4102POPC   C3B52953   7.944  26.861   7.042
 4102POPC   C4B52954   7.734  26.993   7.418
 4103POPC   NC352955  24.033  21.408   5.300
 4103POPC   PO452956  23.329  21.477   5.389
 4103POPC   GL152957  23.458  21.291   5.802
 4103POPC   GL252958  23.805  21.159   5.736
 4103POPC   C1A52959  23.550  21.458   6.251
 4103POPC   D2A52960  23.825  21.361   6.611
 4103POPC   C3A52961  23.758  21.500   7.055
 4103POPC   C4A52962  23.519  21.517   7.441
 4103POPC   C1B52963  23.941  21.054   6.154
 4103POPC   C2B52964  23.825  20.835   6.517
 4103POPC   C3B52965  23.826  20.973   6.955
 4103POPC   C4B52966  23.852  21.106   7.377
 4104POPC   NC352967  15.750  16.365   5.201
 4104POPC   PO452968  16.139  15.940   5.619
 4104POPC   GL152969  15.931  15.891   5.954
 4104POPC   GL252970  15.640  15.963   5.827
 4104POPC   C1A52971  15.857  16.097   6.330
 4104POPC   D2A52972  16.126  16.262   6.646
 4104POPC   C3A52973  15.956  16.088   6.990
 4104POPC   C4A52974  15.658  16.118   7.274
 4104POPC   C1B52975  15.492  15.721   6.218
 4104POPC   C2B52976  15.534  15.783   6.681
 4104POPC   C3B52977  15.705  15.635   7.057
 4104POPC   C4B52978  15.859  15.695   7.469
 4105POPC   NC352979  17.929  42.536   5.235
 4105POPC   PO452980  17.408  42.139   5.509
 4105POPC   GL152981  17.591  42.275   5.845
 4105POPC   GL252982  17.450  42.567   6.044
 4105POPC   C1A52983  17.534  42.081   6.210
 4105POPC   D2A52984  17.436  42.206   6.604
 4105POPC   C3A52985  17.701  42.215   6.935
 4105POPC   C4A52986  17.637  42.197   7.365
 4105POPC   C1B52987  17.708  42.873   6.263
 4105POPC   C2B52988  17.762  42.698   6.652
 4105POPC   C3B52989  17.400  42.628   6.893
 4105POPC   C4B52990  17.211  42.569   7.269
 4106POPC   NC352991   4.725  36.470   5.475
 4106POPC   PO452992   4.417  35.823   5.294
 4106POPC   GL152993   4.288  35.980   5.751
 4106POPC   GL252994   4.336  36.353   5.798
 4106POPC   C1A52995   4.407  35.911   6.196
 4106POPC   D2A52996   4.216  35.979   6.589
 4106POPC   C3A52997   4.385  36.014   7.007
 4106POPC   C4A52998   4.110  36.038   7.376
 4106POPC   C1B52999   4.352  36.408   6.250
 4106POPC   C2B53000   4.230  36.482   6.676
 4106POPC   C3B53001   4.183  36.473   7.125
 4106POPC   C4B53002   4.372  36.434   7.581
 4107POPC   NC353003  35.202  14.748   5.454
 4107POPC   PO453004  35.713  14.268   5.495
 4107POPC   GL153005  35.487  14.528   5.851
 4107POPC   GL253006  35.115  14.598   5.920
 4107POPC   C1A53007  35.490  14.477   6.314
 4107POPC   D2A53008  35.533  14.636   6.745
 4107POPC   C3A53009  35.392  14.402   7.095
 4107POPC   C4A53010  35.253  14.029   7.374
 4107POPC   C1B53011  34.990  14.355   6.234
 4107POPC   C2B53012  35.069  14.414   6.633
 4107POPC   C3B53013  35.012  14.116   6.894
 4107POPC   C4B53014  34.896  14.363   7.192
 4108POPC   NC353015  28.948  33.342   5.436
 4108POPC   PO453016  29.111  34.047   5.501
 4108POPC   GL153017  28.960  33.705   5.791
 4108POPC   GL253018  29.294  33.539   5.845
 4108POPC   C1A53019  28.958  33.501   6.228
 4108POPC   D2A53020  28.931  33.803   6.555
 4108POPC   C3A53021  29.113  33.746   6.934
 4108POPC   C4A53022  28.895  33.731   7.311
 4108POPC   C1B53023  29.225  33.935   6.149
 4108POPC   C2B53024  29.326  34.135   6.558
 4108POPC   C3B53025  29.551  34.036   6.930
 4108POPC   C4B53026  29.797  34.133   7.280
 4109POPC   NC353027  22.996   4.004   5.534
 4109POPC   PO453028  22.946   4.664   5.566
 4109POPC   GL153029  22.807   4.404   5.899
 4109POPC   GL253030  23.110   4.301   5.952
 4109POPC   C1A53031  22.829   4.446   6.362
 4109POPC   D2A53032  22.617   4.725   6.636
 4109POPC   C3A53033  22.853   4.647   6.999
 4109POPC   C4A53034  22.813   4.252   7.223
 4109POPC   C1B53035  23.275   4.143   6.344
 4109POPC   C2B53036  23.150   4.251   6.772
 4109POPC   C3B53037  23.335   4.232   7.182
 4109POPC   C4B53038  23.355   4.250   7.642
 4110POPC   NC353039  39.557  26.638   5.530
 4110POPC   PO453040  40.219  26.428   5.448
 4110POPC   GL153041  40.170  26.651   5.823
 4110POPC   GL253042  39.912  26.900   5.787
 4110POPC   C1A53043  40.099  26.737   6.265
 4110POPC   D2A53044  40.403  26.663   6.605
 4110POPC   C3A53045  40.222  26.789   6.980
 4110POPC   C4A53046  40.011  26.845   7.322
 4110POPC   C1B53047  39.673  27.093   6.114
 4110POPC   C2B53048  39.711  27.026   6.561
 4110POPC   C3B53049  39.418  27.079   6.894
 4110POPC   C4B53050  39.580  27.136   7.295
 4111POPC   NC353051  22.692  19.432   5.404
 4111POPC   PO453052  23.088  18.856   5.307
 4111POPC   GL153053  23.009  19.101   5.703
 4111POPC   GL253054  22.636  19.087   5.766
 4111POPC   C1A53055  23.132  19.127   6.170
 4111POPC   D2A53056  23.223  19.230   6.636
 4111POPC   C3A53057  23.022  19.075   7.034
 4111POPC   C4A53058  23.053  18.847   7.452
 4111POPC   C1B53059  22.670  19.336   6.132
 4111POPC   C2B53060  22.697  19.244   6.588
 4111POPC   C3B53061  22.528  19.218   7.034
 4111POPC   C4B53062  22.737  19.261   7.429
 4112POPC   NC353063  44.862  11.689   5.439
 4112POPC   PO453064   0.051  10.970   5.368
 4112POPC   GL153065  44.810  11.257   5.745
 4112POPC   GL253066  44.964  11.574   5.925
 4112POPC   C1A53067  44.540  11.413   6.148
 4112POPC   D2A53068  44.703  11.536   6.595
 4112POPC   C3A53069  44.512  11.441   6.977
 4112POPC   C4A53070  44.541  11.288   7.426
 4112POPC   C1B53071  44.990  11.245   6.258
 4112POPC   C2B53072  44.941  11.088   6.698
 4112POPC   C3B53073  44.982  11.238   7.131
 4112POPC   C4B53074  44.996  11.096   7.576
 4113POPC   NC353075  38.521  28.709   5.375
 4113POPC   PO453076  38.169  28.123   5.269
 4113POPC   GL153077  38.291  28.169   5.736
 4113POPC   GL253078  38.478  28.460   5.847
 4113POPC   C1A53079  38.325  28.154   6.221
 4113POPC   D2A53080  38.479  28.359   6.620
 4113POPC   C3A53081  38.388  28.284   7.053
 4113POPC   C4A53082  38.808  28.303   7.216
 4113POPC   C1B53083  38.319  28.675   6.250
 4113POPC   C2B53084  38.099  28.765   6.640
 4113POPC   C3B53085  38.230  28.752   7.069
 4113POPC   C4B53086  38.052  28.551   7.450
 4114POPC   NC353087  22.773  22.826   5.369
 4114POPC   PO453088  23.339  23.121   5.566
 4114POPC   GL153089  23.084  23.016   5.892
 4114POPC   GL253090  22.809  22.760   5.870
 4114POPC   C1A53091  23.139  22.902   6.300
 4114POPC   D2A53092  22.892  22.782   6.633
 4114POPC   C3A53093  23.088  22.901   7.017
 4114POPC   C4A53094  23.005  23.217   7.295
 4114POPC   C1B53095  22.635  23.022   6.203
 4114POPC   C2B53096  22.410  22.992   6.594
 4114POPC   C3B53097  22.584  22.969   7.015
 4114POPC   C4B53098  22.681  22.834   7.448
 4115POPC   NC353099  22.652  11.376   5.493
 4115POPC   PO453100  23.258  11.057   5.350
 4115POPC   GL153101  23.188  11.193   5.789
 4115POPC   GL253102  23.015  11.498   5.878
 4115POPC   C1A53103  23.279  11.194   6.241
 4115POPC   D2A53104  23.397  11.321   6.658
 4115POPC   C3A53105  23.138  11.064   6.925
 4115POPC   C4A53106  23.119  11.062   7.350
 4115POPC   C1B53107  22.674  11.624   6.158
 4115POPC   C2B53108  22.609  11.627   6.618
 4115POPC   C3B53109  22.822  11.464   6.997
 4115POPC   C4B53110  22.738  11.371   7.415
 4116POPC   NC353111   5.729  20.835   5.405
 4116POPC   PO453112   5.905  20.199   5.502
 4116POPC   GL153113   6.052  20.442   5.837
 4116POPC   GL253114   6.144  20.799   5.734
 4116POPC   C1A53115   6.007  20.358   6.273
 4116POPC   D2A53116   5.885  20.512   6.644
 4116POPC   C3A53117   5.975  20.285   6.982
 4116POPC   C4A53118   5.630  20.285   7.218
 4116POPC   C1B53119   5.931  20.872   6.130
 4116POPC   C2B53120   6.126  20.942   6.530
 4116POPC   C3B53121   5.878  20.962   6.894
 4116POPC   C4B53122   5.834  20.730   7.250
 4117POPC   NC353123  37.748  28.310   5.382
 4117POPC   PO453124  38.162  28.800   5.647
 4117POPC   GL153125  37.919  28.526   5.909
 4117POPC   GL253126  37.773  28.197   5.878
 4117POPC   C1A53127  37.858  28.404   6.333
 4117POPC   D2A53128  37.984  28.223   6.695
 4117POPC   C3A53129  37.791  28.441   7.013
 4117POPC   C4A53130  37.535  28.413   7.368
 4117POPC   C1B53131  37.460  28.071   6.214
 4117POPC   C2B53132  37.494  27.998   6.653
 4117POPC   C3B53133  37.330  28.056   7.058
 4117POPC   C4B53134  37.365  27.874   7.495
 4118POPC   NC353135  41.372  29.938   5.210
 4118POPC   PO453136  42.082  29.687   5.208
 4118POPC   GL153137  41.780  29.806   5.595
 4118POPC   GL253138  41.664  30.169   5.678
 4118POPC   C1A53139  41.510  29.795   6.000
 4118POPC   D2A53140  41.586  29.890   6.444
 4118POPC   C3A53141  41.543  29.591   6.803
 4118POPC   C4A53142  41.580  29.705   7.234
 4118POPC   C1B53143  41.397  30.278   6.089
 4118POPC   C2B53144  41.193  30.203   6.532
 4118POPC   C3B53145  41.195  30.246   6.988
 4118POPC   C4B53146  41.607  30.212   7.226
 4119POPC   NC353147  21.531  28.541   5.482
 4119POPC   PO453148  21.511  27.890   5.381
 4119POPC   GL153149  21.362  28.175   5.776
 4119POPC   GL253150  21.267  28.559   5.905
 4119POPC   C1A53151  21.282  28.167   6.218
 4119POPC   D2A53152  21.521  28.130   6.553
 4119POPC   C3A53153  21.308  28.177   6.949
 4119POPC   C4A53154  21.173  27.937   7.292
 4119POPC   C1B53155  21.609  28.616   6.244
 4119POPC   C2B53156  21.711  28.577   6.709
 4119POPC   C3B53157  21.531  28.612   7.141
 4119POPC   C4B53158  21.088  28.613   7.257
 4120POPC   NC353159  42.628  28.251   5.625
 4120POPC   PO453160  42.356  28.726   5.171
 4120POPC   GL153161  42.224  28.542   5.633
 4120POPC   GL253162  42.145  28.183   5.808
 4120POPC   C1A53163  42.300  28.585   6.136
 4120POPC   D2A53164  42.480  28.493   6.591
 4120POPC   C3A53165  42.391  28.412   7.063
 4120POPC   C4A53166  42.575  28.687   7.408
 4120POPC   C1B53167  42.352  28.070   6.246
 4120POPC   C2B53168  42.459  27.997   6.697
 4120POPC   C3B53169  42.442  27.914   7.145
 4120POPC   C4B53170  42.075  28.023   7.385
 4121POPC   NC353171  38.840  36.169   5.324
 4121POPC   PO453172  39.483  36.274   5.368
 4121POPC   GL153173  39.261  36.027   5.676
 4121POPC   GL253174  39.046  36.287   5.839
 4121POPC   C1A53175  39.323  35.959   6.139
 4121POPC   D2A53176  39.366  36.198   6.541
 4121POPC   C3A53177  39.334  36.028   6.963
 4121POPC   C4A53178  39.420  36.377   7.195
 4121POPC   C1B53179  38.878  36.182   6.277
 4121POPC   C2B53180  38.870  36.042   6.696
 4121POPC   C3B53181  38.890  36.264   7.051
 4121POPC   C4B53182  38.710  36.545   7.257
 4122POPC   NC353183   6.643  37.880   5.461
 4122POPC   PO453184   6.593  37.333   5.168
 4122POPC   GL153185   6.797  37.420   5.657
 4122POPC   GL253186   6.619  37.714   5.924
 4122POPC   C1A53187   6.896  37.365   6.119
 4122POPC   D2A53188   6.707  37.660   6.474
 4122POPC   C3A53189   6.811  37.543   6.903
 4122POPC   C4A53190   6.981  37.686   7.287
 4122POPC   C1B53191   6.363  37.965   6.193
 4122POPC   C2B53192   6.267  38.008   6.596
 4122POPC   C3B53193   6.327  37.715   6.919
 4122POPC   C4B53194   6.477  37.671   7.311
 4123POPC   NC353195  22.470  44.131   5.479
 4123POPC   PO453196  21.882  43.800   5.535
 4123POPC   GL153197  22.075  43.995   5.825
 4123POPC   GL253198  22.408  43.882   5.919
 4123POPC   C1A53199  22.007  43.822   6.240
 4123POPC   D2A53200  22.128  43.588   6.579
 4123POPC   C3A53201  21.953  43.796   6.922
 4123POPC   C4A53202  22.039  43.745   7.332
 4123POPC   C1B53203  22.278  44.252   6.202
 4123POPC   C2B53204  22.134  44.178   6.621
 4123POPC   C3B53205  22.365  44.109   7.035
 4123POPC   C4B53206  22.326  44.180   7.491
 4124POPC   NC353207  21.755   4.813   5.329
 4124POPC   PO453208  21.132   4.995   5.409
 4124POPC   GL153209  21.404   5.012   5.788
 4124POPC   GL253210  21.682   5.277   5.760
 4124POPC   C1A53211  21.390   4.981   6.261
 4124POPC   D2A53212  21.128   4.963   6.660
 4124POPC   C3A53213  21.297   5.102   7.057
 4124POPC   C4A53214  21.752   5.085   7.159
 4124POPC   C1B53215  21.581   5.477   6.177
 4124POPC   C2B53216  21.487   5.374   6.628
 4124POPC   C3B53217  21.529   5.548   7.049
 4124POPC   C4B53218  21.512   5.467   7.482
 4125POPC   NC353219   7.297  15.469   5.572
 4125POPC   PO453220   7.656  14.937   5.515
 4125POPC   GL153221   7.507  15.125   5.879
 4125POPC   GL253222   7.663  15.405   5.954
 4125POPC   C1A53223   7.138  15.072   6.125
 4125POPC   D2A53224   7.124  14.911   6.525
 4125POPC   C3A53225   7.172  15.195   6.863
 4125POPC   C4A53226   7.481  15.154   7.185
 4125POPC   C1B53227   7.469  15.412   6.359
 4125POPC   C2B53228   7.558  15.534   6.795
 4125POPC   C3B53229   7.521  15.651   7.250
 4125POPC   C4B53230   7.577  15.392   7.646
 4126POPC   NC353231  37.969  24.582   5.648
 4126POPC   PO453232  37.274  24.715   5.652
 4126POPC   GL153233  37.545  24.422   5.920
 4126POPC   GL253234  37.883  24.199   5.972
 4126POPC   C1A53235  37.561  24.463   6.372
 4126POPC   D2A53236  37.276  24.605   6.707
 4126POPC   C3A53237  37.422  24.510   7.102
 4126POPC   C4A53238  37.688  24.854   7.149
 4126POPC   C1B53239  38.086  24.398   6.355
 4126POPC   C2B53240  37.886  24.467   6.799
 4126POPC   C3B53241  37.901  24.396   7.258
 4126POPC   C4B53242  37.989  24.361   7.706
 4127POPC   NC353243  22.322  18.553   5.353
 4127POPC   PO453244  22.191  19.254   5.402
 4127POPC   GL153245  22.149  19.239   5.853
 4127POPC   GL253246  22.132  18.894   5.820
 4127POPC   C1A53247  22.264  19.072   6.295
 4127POPC   D2A53248  22.370  18.843   6.688
 4127POPC   C3A53249  22.120  18.883   7.057
 4127POPC   C4A53250  21.990  19.316   7.115
 4127POPC   C1B53251  21.843  18.784   6.151
 4127POPC   C2B53252  21.865  18.607   6.570
 4127POPC   C3B53253  21.622  18.692   6.914
 4127POPC   C4B53254  21.651  18.931   7.266
 4128POPC   NC353255   9.920  29.438   5.457
 4128POPC   PO453256   9.494  28.984   5.374
 4128POPC   GL153257   9.641  28.957   5.797
 4128POPC   GL253258   9.977  28.997   5.759
 4128POPC   C1A53259   9.504  28.975   6.232
 4128POPC   D2A53260   9.659  29.111   6.631
 4128POPC   C3A53261   9.682  28.908   7.052
 4128POPC   C4A53262   9.534  28.980   7.490
 4128POPC   C1B53263  10.002  29.117   6.214
 4128POPC   C2B53264  10.163  28.981   6.610
 4128POPC   C3B53265  10.132  29.130   7.041
 4128POPC   C4B53266  10.003  29.316   7.446
 4129POPC   NC353267  38.540   4.608   5.424
 4129POPC   PO453268  38.168   3.979   5.331
 4129POPC   GL153269  38.228   4.042   5.784
 4129POPC   GL253270  38.351   4.406   5.882
 4129POPC   C1A53271  38.558   4.005   6.114
 4129POPC   D2A53272  38.723   4.211   6.473
 4129POPC   C3A53273  38.642   3.984   6.855
 4129POPC   C4A53274  38.432   4.196   7.161
 4129POPC   C1B53275  38.333   4.604   6.319
 4129POPC   C2B53276  38.432   4.734   6.760
 4129POPC   C3B53277  38.698   4.637   7.120
 4129POPC   C4B53278  38.752   4.830   7.540
 4130POPC   NC353279  34.589  31.752   5.525
 4130POPC   PO453280  34.288  31.161   5.758
 4130POPC   GL153281  34.641  31.407   5.943
 4130POPC   GL253282  34.857  31.726   5.963
 4130POPC   C1A53283  34.558  31.511   6.370
 4130POPC   D2A53284  34.427  31.273   6.712
 4130POPC   C3A53285  34.569  31.265   7.120
 4130POPC   C4A53286  34.525  31.459   7.493
 4130POPC   C1B53287  35.044  31.601   6.374
 4130POPC   C2B53288  34.918  31.467   6.782
 4130POPC   C3B53289  34.877  31.700   7.176
 4130POPC   C4B53290  34.971  32.137   7.312
 4131POPC   NC353291  13.724  10.966   5.285
 4131POPC   PO453292  13.213  10.603   5.438
 4131POPC   GL153293  13.572  10.593   5.653
 4131POPC   GL253294  13.370  10.458   5.909
 4131POPC   C1A53295  13.782  10.742   6.036
 4131POPC   D2A53296  13.839  10.497   6.418
 4131POPC   C3A53297  13.649  10.636   6.772
 4131POPC   C4A53298  13.787  10.676   7.192
 4131POPC   C1B53299  13.421  10.221   6.289
 4131POPC   C2B53300  13.237  10.267   6.671
 4131POPC   C3B53301  13.427  10.283   7.050
 4131POPC   C4B53302  13.358  10.514   7.418
 4132POPC   NC353303  35.376   5.969   5.429
 4132POPC   PO453304  35.993   6.096   5.712
 4132POPC   GL153305  35.605   5.951   5.940
 4132POPC   GL253306  35.268   5.789   5.889
 4132POPC   C1A53307  35.357   6.130   6.290
 4132POPC   D2A53308  35.391   6.279   6.719
 4132POPC   C3A53309  35.453   5.939   7.063
 4132POPC   C4A53310  35.602   5.963   7.514
 4132POPC   C1B53311  35.067   5.708   6.289
 4132POPC   C2B53312  34.960   5.939   6.665
 4132POPC   C3B53313  34.968   5.807   7.081
 4132POPC   C4B53314  35.139   5.765   7.482
 4133POPC   NC353315  23.410  19.939   5.584
 4133POPC   PO453316  23.855  19.477   5.469
 4133POPC   GL153317  23.817  19.703   5.922
 4133POPC   GL253318  24.013  20.010   6.044
 4133POPC   C1A53319  23.620  19.902   6.335
 4133POPC   D2A53320  23.366  19.818   6.717
 4133POPC   C3A53321  23.655  19.828   7.101
 4133POPC   C4A53322  23.729  19.467   7.440
 4133POPC   C1B53323  24.054  20.190   6.413
 4133POPC   C2B53324  24.030  19.949   6.763
 4133POPC   C3B53325  24.091  20.081   7.157
 4133POPC   C4B53326  23.735  20.329   7.266
 4134POPC   NC353327  41.810  11.689   5.366
 4134POPC   PO453328  41.275  11.252   5.531
 4134POPC   GL153329  41.504  11.576   5.768
 4134POPC   GL253330  41.871  11.497   5.845
 4134POPC   C1A53331  41.515  11.582   6.208
 4134POPC   D2A53332  41.498  11.331   6.567
 4134POPC   C3A53333  41.624  11.355   6.996
 4134POPC   C4A53334  41.327  11.617   7.205
 4134POPC   C1B53335  41.959  11.327   6.283
 4134POPC   C2B53336  42.043  11.216   6.710
 4134POPC   C3B53337  42.012  10.991   7.108
 4134POPC   C4B53338  41.695  10.865   7.392
 4135POPC   NC353339  11.660  28.534   5.474
 4135POPC   PO453340  12.350  28.641   5.505
 4135POPC   GL153341  12.194  28.312   5.759
 4135POPC   GL253342  11.835  28.252   5.868
 4135POPC   C1A53343  12.280  28.286   6.195
 4135POPC   D2A53344  12.101  28.550   6.495
 4135POPC   C3A53345  12.291  28.601   6.885
 4135POPC   C4A53346  12.134  28.463   7.275
 4135POPC   C1B53347  11.699  28.614   6.129
 4135POPC   C2B53348  11.641  28.782   6.547
 4135POPC   C3B53349  11.781  28.647   6.913
 4135POPC   C4B53350  11.630  28.604   7.284
 4136POPC   NC353351  28.324  10.179   5.568
 4136POPC   PO453352  28.811  10.498   5.269
 4136POPC   GL153353  28.443  10.651   5.699
 4136POPC   GL253354  28.287  11.005   5.706
 4136POPC   C1A53355  28.097  10.487   6.079
 4136POPC   D2A53356  27.975  10.285   6.510
 4136POPC   C3A53357  28.350  10.275   6.785
 4136POPC   C4A53358  28.558  10.326   7.197
 4136POPC   C1B53359  28.218  10.966   6.154
 4136POPC   C2B53360  28.112  10.787   6.549
 4136POPC   C3B53361  28.372  10.776   6.907
 4136POPC   C4B53362  28.234  10.737   7.303
 4137POPC   NC353363  40.050  15.525   5.676
 4137POPC   PO453364  40.290  14.848   5.455
 4137POPC   GL153365  40.035  14.987   5.803
 4137POPC   GL253366  39.675  14.947   5.910
 4137POPC   C1A53367  40.065  15.075   6.232
 4137POPC   D2A53368  40.087  15.348   6.571
 4137POPC   C3A53369  40.080  15.014   6.853
 4137POPC   C4A53370  40.028  15.105   7.229
 4137POPC   C1B53371  39.683  15.385   6.193
 4137POPC   C2B53372  39.593  15.559   6.611
 4137POPC   C3B53373  39.599  15.343   7.020
 4137POPC   C4B53374  39.563  15.274   7.490
 4138POPC   NC353375  26.025   5.497   5.518
 4138POPC   PO453376  25.985   6.167   5.429
 4138POPC   GL153377  25.887   6.103   5.896
 4138POPC   GL253378  25.890   5.743   5.944
 4138POPC   C1A53379  25.961   6.009   6.379
 4138POPC   D2A53380  26.159   5.789   6.736
 4138POPC   C3A53381  26.038   5.945   7.149
 4138POPC   C4A53382  26.165   6.031   7.581
 4138POPC   C1B53383  25.637   5.639   6.304
 4138POPC   C2B53384  25.647   5.767   6.770
 4138POPC   C3B53385  25.531   5.882   7.185
 4138POPC   C4B53386  25.697   5.790   7.604
 4139POPC   NC353387  12.621  39.517   5.485
 4139POPC   PO453388  13.119  39.044   5.344
 4139POPC   GL153389  12.898  39.120   5.717
 4139POPC   GL253390  13.014  39.429   5.806
 4139POPC   C1A53391  12.853  39.090   6.194
 4139POPC   D2A53392  12.755  39.213   6.622
 4139POPC   C3A53393  12.858  38.970   7.000
 4139POPC   C4A53394  12.701  38.965   7.444
 4139POPC   C1B53395  13.098  39.613   6.194
 4139POPC   C2B53396  13.303  39.651   6.561
 4139POPC   C3B53397  13.107  39.437   6.909
 4139POPC   C4B53398  12.669  39.449   7.101
 4140POPC   NC353399  26.571  29.293   5.404
 4140POPC   PO453400  26.068  28.723   5.434
 4140POPC   GL153401  25.938  28.864   5.861
 4140POPC   GL253402  26.024  29.222   5.902
 4140POPC   C1A53403  25.868  28.972   6.300
 4140POPC   D2A53404  26.057  29.139   6.607
 4140POPC   C3A53405  25.958  29.027   6.995
 4140POPC   C4A53406  26.065  29.266   7.368
 4140POPC   C1B53407  26.391  29.429   6.065
 4140POPC   C2B53408  26.480  29.388   6.514
 4140POPC   C3B53409  26.360  29.394   6.942
 4140POPC   C4B53410  26.601  29.299   7.324
 4141POPC   NC353411  42.913  19.241   5.202
 4141POPC   PO453412  43.071  18.577   5.305
 4141POPC   GL153413  43.222  18.902   5.646
 4141POPC   GL253414  43.431  19.233   5.702
 4141POPC   C1A53415  43.383  18.868   6.092
 4141POPC   D2A53416  43.438  18.779   6.537
 4141POPC   C3A53417  43.117  18.867   6.851
 4141POPC   C4A53418  43.193  18.875   7.288
 4141POPC   C1B53419  43.480  19.378   6.156
 4141POPC   C2B53420  43.288  19.301   6.595
 4141POPC   C3B53421  43.394  19.290   7.063
 4141POPC   C4B53422  43.091  19.427   7.407
 4142POPC   NC353423  14.687  29.646   5.178
 4142POPC   PO453424  14.411  30.205   5.442
 4142POPC   GL153425  14.254  30.026   5.819
 4142POPC   GL253426  14.279  29.714   5.681
 4142POPC   C1A53427  14.367  30.162   6.198
 4142POPC   D2A53428  14.522  30.320   6.575
 4142POPC   C3A53429  14.363  30.211   6.965
 4142POPC   C4A53430  14.585  30.145   7.328
 4142POPC   C1B53431  14.445  29.639   6.137
 4142POPC   C2B53432  14.351  29.817   6.566
 4142POPC   C3B53433  14.127  29.764   6.936
 4142POPC   C4B53434  14.122  29.910   7.317
 4143POPC   NC353435   4.557   8.802   5.601
 4143POPC   PO453436   5.225   8.986   5.435
 4143POPC   GL153437   5.104   9.157   5.833
 4143POPC   GL253438   4.954   8.822   5.897
 4143POPC   C1A53439   5.139   9.071   6.293
 4143POPC   D2A53440   5.331   9.011   6.682
 4143POPC   C3A53441   5.160   9.266   7.013
 4143POPC   C4A53442   4.732   9.235   7.183
 4143POPC   C1B53443   4.687   8.688   6.242
 4143POPC   C2B53444   4.928   8.672   6.574
 4143POPC   C3B53445   4.931   8.769   6.977
 4143POPC   C4B53446   5.087   8.880   7.346
 4144POPC   NC353447   4.626   6.610   5.421
 4144POPC   PO453448   3.961   6.729   5.573
 4144POPC   GL153449   4.342   6.615   5.862
 4144POPC   GL253450   4.311   6.275   6.006
 4144POPC   C1A53451   4.523   6.593   6.310
 4144POPC   D2A53452   4.280   6.645   6.678
 4144POPC   C3A53453   4.592   6.662   6.959
 4144POPC   C4A53454   4.714   6.635   7.381
 4144POPC   C1B53455   4.008   6.576   6.246
 4144POPC   C2B53456   3.746   6.717   6.606
 4144POPC   C3B53457   3.926   6.900   6.970
 4144POPC   C4B53458   4.187   6.660   7.233
 4145POPC   NC353459  30.792  12.317   5.431
 4145POPC   PO453460  30.303  11.878   5.374
 4145POPC   GL153461  30.519  11.967   5.785
 4145POPC   GL253462  30.887  11.904   5.835
 4145POPC   C1A53463  30.606  12.031   6.240
 4145POPC   D2A53464  30.683  11.801   6.584
 4145POPC   C3A53465  30.716  11.969   6.964
 4145POPC   C4A53466  30.623  11.812   7.366
 4145POPC   C1B53467  31.115  12.060   6.191
 4145POPC   C2B53468  30.967  12.262   6.571
 4145POPC   C3B53469  31.092  12.303   6.987
 4145POPC   C4B53470  30.858  12.245   7.381
 4146POPC   NC353471  42.464  35.433   5.369
 4146POPC   PO453472  41.798  35.260   5.565
 4146POPC   GL153473  42.106  35.284   5.954
 4146POPC   GL253474  42.439  35.438   5.872
 4146POPC   C1A53475  42.354  35.166   6.319
 4146POPC   D2A53476  42.284  34.965   6.717
 4146POPC   C3A53477  42.234  35.278   7.001
 4146POPC   C4A53478  42.077  35.412   7.345
 4146POPC   C1B53479  42.730  35.498   6.208
 4146POPC   C2B53480  42.801  35.354   6.618
 4146POPC   C3B53481  42.725  35.169   7.007
 4146POPC   C4B53482  42.651  35.287   7.436
 4147POPC   NC353483  16.938  31.267   5.298
 4147POPC   PO453484  17.021  30.655   5.305
 4147POPC   GL153485  16.742  30.749   5.691
 4147POPC   GL253486  16.567  31.054   5.594
 4147POPC   C1A53487  16.625  30.604   6.140
 4147POPC   D2A53488  16.790  30.607   6.583
 4147POPC   C3A53489  16.552  30.503   6.956
 4147POPC   C4A53490  16.720  30.455   7.380
 4147POPC   C1B53491  16.568  31.109   6.066
 4147POPC   C2B53492  16.407  30.986   6.481
 4147POPC   C3B53493  16.568  31.024   6.897
 4147POPC   C4B53494  16.433  30.883   7.278
 4148POPC   NC353495  38.346  38.159   5.358
 4148POPC   PO453496  38.696  38.639   5.365
 4148POPC   GL153497  38.583  38.568   5.781
 4148POPC   GL253498  38.250  38.458   5.801
 4148POPC   C1A53499  38.665  38.449   6.206
 4148POPC   D2A53500  38.668  38.333   6.628
 4148POPC   C3A53501  38.306  38.308   6.906
 4148POPC   C4A53502  38.426  38.388   7.335
 4148POPC   C1B53503  38.209  38.717   6.215
 4148POPC   C2B53504  38.123  38.738   6.692
 4148POPC   C3B53505  38.138  38.742   7.165
 4148POPC   C4B53506  38.224  38.752   7.666
 4149POPC   NC353507   1.579  36.911   5.315
 4149POPC   PO453508   0.915  36.978   5.414
 4149POPC   GL153509   1.269  37.022   5.702
 4149POPC   GL253510   1.344  36.643   5.700
 4149POPC   C1A53511   1.459  37.169   6.091
 4149POPC   D2A53512   1.273  37.028   6.481
 4149POPC   C3A53513   1.351  37.089   6.927
 4149POPC   C4A53514   1.033  36.870   7.140
 4149POPC   C1B53515   1.418  36.635   6.136
 4149POPC   C2B53516   1.542  36.568   6.566
 4149POPC   C3B53517   1.411  36.495   6.994
 4149POPC   C4B53518   1.466  36.753   7.386
 4150POPC   NC353519  43.363  40.437   5.699
 4150POPC   PO453520  43.347  39.831   5.660
 4150POPC   GL153521  43.063  40.025   5.924
 4150POPC   GL253522  42.942  40.361   5.992
 4150POPC   C1A53523  43.198  40.096   6.344
 4150POPC   D2A53524  43.155  39.851   6.705
 4150POPC   C3A53525  43.336  40.043   7.035
 4150POPC   C4A53526  43.220  39.894   7.414
 4150POPC   C1B53527  42.703  40.160   6.313
 4150POPC   C2B53528  42.818  40.269   6.728
 4150POPC   C3B53529  42.883  40.229   7.165
 4150POPC   C4B53530  43.080  40.366   7.560
 4151POPC   NC353531  40.431  38.310   5.094
 4151POPC   PO453532  41.022  38.498   5.425
 4151POPC   GL153533  40.890  38.427   5.779
 4151POPC   GL253534  40.517  38.415   5.665
 4151POPC   C1A53535  41.042  38.267   6.167
 4151POPC   D2A53536  40.859  38.412   6.544
 4151POPC   C3A53537  40.987  38.239   6.945
 4151POPC   C4A53538  40.760  38.526   7.240
 4151POPC   C1B53539  40.525  38.343   6.114
 4151POPC   C2B53540  40.401  38.163   6.488
 4151POPC   C3B53541  40.471  38.271   6.905
 4151POPC   C4B53542  40.641  38.036   7.276
 4152POPC   NC353543  18.564  13.856   5.444
 4152POPC   PO453544  18.063  13.388   5.309
 4152POPC   GL153545  18.021  13.624   5.711
 4152POPC   GL253546  18.370  13.633   5.890
 4152POPC   C1A53547  17.925  13.687   6.152
 4152POPC   D2A53548  18.242  13.620   6.477
 4152POPC   C3A53549  18.174  13.654   6.915
 4152POPC   C4A53550  18.415  13.839   7.235
 4152POPC   C1B53551  18.651  13.434   6.227
 4152POPC   C2B53552  18.620  13.243   6.620
 4152POPC   C3B53553  18.519  13.257   7.023
 4152POPC   C4B53554  18.692  13.466   7.391
 4153POPC   NC353555  16.899   9.132   5.443
 4153POPC   PO453556  17.048   8.506   5.353
 4153POPC   GL153557  16.926   8.726   5.767
 4153POPC   GL253558  16.608   8.662   5.937
 4153POPC   C1A53559  16.901   9.039   6.132
 4153POPC   D2A53560  17.057   9.239   6.503
 4153POPC   C3A53561  16.957   9.077   6.908
 4153POPC   C4A53562  16.639   9.006   7.226
 4153POPC   C1B53563  16.508   8.749   6.310
 4153POPC   C2B53564  16.670   8.693   6.701
 4153POPC   C3B53565  16.447   8.565   7.016
 4153POPC   C4B53566  16.364   8.598   7.422
 4154POPC   NC353567  36.902  14.211   5.402
 4154POPC   PO453568  37.303  14.753   5.542
 4154POPC   GL153569  37.033  14.513   5.818
 4154POPC   GL253570  36.985  14.145   5.899
 4154POPC   C1A53571  36.898  14.557   6.227
 4154POPC   D2A53572  36.896  14.348   6.597
 4154POPC   C3A53573  36.866  14.624   6.949
 4154POPC   C4A53574  36.880  14.481   7.356
 4154POPC   C1B53575  36.673  13.968   6.198
 4154POPC   C2B53576  36.486  14.033   6.583
 4154POPC   C3B53577  36.685  14.117   7.013
 4154POPC   C4B53578  36.603  13.980   7.439
 4155POPC   NC353579  13.798  29.193   5.116
 4155POPC   PO453580  13.668  28.892   5.651
 4155POPC   GL153581  13.606  29.232   5.968
 4155POPC   GL253582  13.281  29.150   6.117
 4155POPC   C1A53583  13.626  29.369   6.423
 4155POPC   D2A53584  13.890  29.317   6.786
 4155POPC   C3A53585  13.632  29.255   7.147
 4155POPC   C4A53586  13.693  29.322   7.574
 4155POPC   C1B53587  13.583  28.852   6.315
 4155POPC   C2B53588  13.681  28.837   6.739
 4155POPC   C3B53589  13.419  28.764   7.058
 4155POPC   C4B53590  13.480  28.838   7.460
 4156POPC   NC353591  18.487   2.451   5.512
 4156POPC   PO453592  18.558   3.081   5.316
 4156POPC   GL153593  18.437   2.915   5.745
 4156POPC   GL253594  18.156   2.647   5.834
 4156POPC   C1A53595  18.543   2.756   6.164
 4156POPC   D2A53596  18.440   2.624   6.598
 4156POPC   C3A53597  18.414   2.911   6.971
 4156POPC   C4A53598  18.268   2.863   7.423
 4156POPC   C1B53599  18.129   2.421   6.226
 4156POPC   C2B53600  17.986   2.386   6.666
 4156POPC   C3B53601  18.080   2.529   7.095
 4156POPC   C4B53602  18.052   2.419   7.549
 4157POPC   NC353603  29.699  38.755   5.480
 4157POPC   PO453604  30.074  39.291   5.383
 4157POPC   GL153605  29.886  39.257   5.753
 4157POPC   GL253606  30.058  38.967   5.796
 4157POPC   C1A53607  29.984  39.444   6.164
 4157POPC   D2A53608  30.068  39.285   6.573
 4157POPC   C3A53609  29.925  39.481   6.945
 4157POPC   C4A53610  29.686  39.400   7.274
 4157POPC   C1B53611  29.856  38.944   6.182
 4157POPC   C2B53612  29.823  38.787   6.582
 4157POPC   C3B53613  29.781  38.984   6.961
 4157POPC   C4B53614  29.975  38.892   7.321
 4158POPC   NC353615  12.337   1.366   5.415
 4158POPC   PO453616  12.050   0.765   5.405
 4158POPC   GL153617  12.110   1.081   5.792
 4158POPC   GL253618  12.191   1.472   5.889
 4158POPC   C1A53619  12.039   1.134   6.258
 4158POPC   D2A53620  12.047   0.872   6.642
 4158POPC   C3A53621  11.883   1.036   7.023
 4158POPC   C4A53622  12.006   1.112   7.430
 4158POPC   C1B53623  12.143   1.643   6.306
 4158POPC   C2B53624  11.993   1.448   6.696
 4158POPC   C3B53625  12.100   1.505   7.152
 4158POPC   C4B53626  12.004   1.590   7.630
 4159POPC   NC353627  44.717  42.602   5.517
 4159POPC   PO453628  44.927  41.912   5.556
 4159POPC   GL153629  44.645  42.170   5.792
 4159POPC   GL253630  44.957  42.323   5.896
 4159POPC   C1A53631  44.522  42.401   6.168
 4159POPC   D2A53632  44.754  42.374   6.547
 4159POPC   C3A53633  44.531  42.449   6.920
 4159POPC   C4A53634  44.446  42.171   7.263
 4159POPC   C1B53635   0.029  42.666   6.157
 4159POPC   C2B53636   0.166  42.670   6.576
 4159POPC   C3B53637   0.019  42.548   6.986
 4159POPC   C4B53638  44.718  42.599   7.368
 4160POPC   NC353639  15.719  23.899   5.325
 4160POPC   PO453640  16.357  23.668   5.284
 4160POPC   GL153641  16.268  23.919   5.717
 4160POPC   GL253642  15.939  23.822   5.783
 4160POPC   C1A53643  16.262  23.815   6.223
 4160POPC   D2A53644  16.064  23.462   6.464
 4160POPC   C3A53645  16.015  23.545   6.891
 4160POPC   C4A53646  16.137  23.783   7.235
 4160POPC   C1B53647  15.757  23.753   6.170
 4160POPC   C2B53648  15.870  23.967   6.560
 4160POPC   C3B53649  15.751  23.970   6.991
 4160POPC   C4B53650  15.542  23.645   7.220
 4161POPC   NC353651  39.520   6.944   5.617
 4161POPC   PO453652  39.172   7.348   5.185
 4161POPC   GL153653  39.168   7.494   5.714
 4161POPC   GL253654  38.824   7.491   5.827
 4161POPC   C1A53655  39.425   7.414   6.119
 4161POPC   D2A53656  39.525   7.652   6.505
 4161POPC   C3A53657  39.483   7.530   6.947
 4161POPC   C4A53658  39.187   7.388   7.253
 4161POPC   C1B53659  38.923   7.318   6.247
 4161POPC   C2B53660  39.075   7.361   6.673
 4161POPC   C3B53661  38.925   7.060   6.975
 4161POPC   C4B53662  38.756   6.957   7.372
 4162POPC   NC353663   9.112  10.162   5.741
 4162POPC   PO453664   8.911  10.847   5.561
 4162POPC   GL153665   9.027  10.642   5.922
 4162POPC   GL253666   8.744  10.409   6.016
 4162POPC   C1A53667   9.176  10.491   6.329
 4162POPC   D2A53668   9.375  10.339   6.719
 4162POPC   C3A53669   9.130  10.574   7.030
 4162POPC   C4A53670   8.991  10.414   7.471
 4162POPC   C1B53671   8.852  10.076   6.322
 4162POPC   C2B53672   8.887  10.179   6.726
 4162POPC   C3B53673   8.691  10.346   7.059
 4162POPC   C4B53674   8.391  10.328   7.332
 4163POPC   NC353675  26.954  10.468   5.342
 4163POPC   PO453676  26.691  10.955   5.667
 4163POPC   GL153677  26.679  10.571   5.924
 4163POPC   GL253678  26.969  10.364   5.842
 4163POPC   C1A53679  26.692  10.449   6.383
 4163POPC   D2A53680  27.103  10.539   6.571
 4163POPC   C3A53681  27.176  10.704   6.978
 4163POPC   C4A53682  26.894  10.653   7.293
 4163POPC   C1B53683  27.045  10.143   6.205
 4163POPC   C2B53684  26.974  10.026   6.645
 4163POPC   C3B53685  26.955  10.188   7.078
 4163POPC   C4B53686  27.013  10.240   7.532
 4164POPC   NC353687  44.118  38.117   5.560
 4164POPC   PO453688  44.055  37.437   5.613
 4164POPC   GL153689  43.818  37.499   5.946
 4164POPC   GL253690  43.610  37.717   5.760
 4164POPC   C1A53691  43.952  37.538   6.382
 4164POPC   D2A53692  43.933  37.724   6.789
 4164POPC   C3A53693  44.028  37.444   7.118
 4164POPC   C4A53694  44.240  37.487   7.502
 4164POPC   C1B53695  43.553  37.827   6.227
 4164POPC   C2B53696  43.476  38.000   6.629
 4164POPC   C3B53697  43.598  38.035   7.035
 4164POPC   C4B53698  43.530  37.666   7.269
 4165POPC   NC353699   1.050  19.975   5.398
 4165POPC   PO453700   1.720  19.886   5.390
 4165POPC   GL153701   1.399  19.811   5.750
 4165POPC   GL253702   1.494  19.536   5.972
 4165POPC   C1A53703   1.100  19.820   6.118
 4165POPC   D2A53704   1.245  19.910   6.534
 4165POPC   C3A53705   1.012  19.865   6.898
 4165POPC   C4A53706   0.969  20.038   7.295
 4165POPC   C1B53707   1.363  19.406   6.375
 4165POPC   C2B53708   1.411  19.517   6.805
 4165POPC   C3B53709   1.447  19.782   7.152
 4165POPC   C4B53710   1.323  19.664   7.557
 4166POPC   NC353711  17.857  16.270   5.509
 4166POPC   PO453712  18.367  15.786   5.358
 4166POPC   GL153713  18.248  15.942   5.783
 4166POPC   GL253714  17.929  15.995   5.945
 4166POPC   C1A53715  18.389  16.077   6.208
 4166POPC   D2A53716  18.574  16.331   6.531
 4166POPC   C3A53717  18.334  16.209   6.889
 4166POPC   C4A53718  18.393  16.017   7.271
 4166POPC   C1B53719  17.874  16.266   6.291
 4166POPC   C2B53720  17.809  16.168   6.728
 4166POPC   C3B53721  17.892  16.241   7.147
 4166POPC   C4B53722  18.017  16.442   7.506
 4167POPC   NC353723  31.592  40.327   5.477
 4167POPC   PO453724  31.318  39.765   5.300
 4167POPC   GL153725  31.334  39.801   5.732
 4167POPC   GL253726  31.200  40.113   5.848
 4167POPC   C1A53727  31.542  39.797   6.168
 4167POPC   D2A53728  31.540  39.944   6.614
 4167POPC   C3A53729  31.358  39.698   6.940
 4167POPC   C4A53730  31.110  39.697   7.292
 4167POPC   C1B53731  31.302  40.272   6.278
 4167POPC   C2B53732  31.119  40.213   6.678
 4167POPC   C3B53733  31.264  40.182   7.077
 4167POPC   C4B53734  31.704  40.002   7.129
 4168POPC   NC353735  22.644   8.103   5.387
 4168POPC   PO453736  23.222   8.436   5.432
 4168POPC   GL153737  22.962   8.266   5.795
 4168POPC   GL253738  22.760   7.963   5.865
 4168POPC   C1A53739  22.958   8.406   6.232
 4168POPC   D2A53740  22.790   8.398   6.648
 4168POPC   C3A53741  23.032   8.400   7.043
 4168POPC   C4A53742  22.824   8.444   7.463
 4168POPC   C1B53743  22.935   7.891   6.214
 4168POPC   C2B53744  22.684   7.917   6.570
 4168POPC   C3B53745  22.760   7.970   6.987
 4168POPC   C4B53746  22.910   7.929   7.376
 4169POPC   NC353747  44.090  24.812   5.453
 4169POPC   PO453748  43.721  24.196   5.468
 4169POPC   GL153749  43.800  24.531   5.771
 4169POPC   GL253750  44.150  24.441   5.813
 4169POPC   C1A53751  43.831  24.626   6.220
 4169POPC   D2A53752  43.622  24.501   6.602
 4169POPC   C3A53753  43.849  24.549   6.984
 4169POPC   C4A53754  44.017  24.860   7.275
 4169POPC   C1B53755  43.918  24.139   6.114
 4169POPC   C2B53756  43.899  23.993   6.555
 4169POPC   C3B53757  44.167  24.062   6.897
 4169POPC   C4B53758  44.259  24.367   7.223
 4170POPC   NC353759  15.539  20.593   5.494
 4170POPC   PO453760  14.920  20.340   5.496
 4170POPC   GL153761  15.159  20.452   5.823
 4170POPC   GL253762  15.190  20.808   5.839
 4170POPC   C1A53763  15.108  20.509   6.244
 4170POPC   D2A53764  15.047  20.794   6.546
 4170POPC   C3A53765  15.021  20.544   6.937
 4170POPC   C4A53766  14.923  20.140   7.154
 4170POPC   C1B53767  15.460  20.883   6.173
 4170POPC   C2B53768  15.568  20.819   6.569
 4170POPC   C3B53769  15.417  20.898   6.953
 4170POPC   C4B53770  15.357  20.689   7.326
 4171POPC   NC353771  23.998   1.809   5.469
 4171POPC   PO453772  23.355   2.145   5.584
 4171POPC   GL153773  23.695   2.013   5.832
 4171POPC   GL253774  23.890   2.310   5.885
 4171POPC   C1A53775  23.762   1.676   6.149
 4171POPC   D2A53776  23.727   1.497   6.581
 4171POPC   C3A53777  23.842   1.799   6.915
 4171POPC   C4A53778  23.553   2.007   7.194
 4171POPC   C1B53779  23.759   2.178   6.312
 4171POPC   C2B53780  23.710   2.261   6.746
 4171POPC   C3B53781  23.956   2.305   7.128
 4171POPC   C4B53782  23.838   2.199   7.585
 4172POPC   NC353783  43.506   8.811   5.358
 4172POPC   PO453784  43.141   9.334   5.380
 4172POPC   GL153785  43.221   9.118   5.821
 4172POPC   GL253786  43.291   8.757   5.846
 4172POPC   C1A53787  43.206   9.032   6.319
 4172POPC   D2A53788  42.850   8.847   6.601
 4172POPC   C3A53789  43.007   8.879   7.033
 4172POPC   C4A53790  43.149   9.277   7.176
 4172POPC   C1B53791  43.067   8.565   6.205
 4172POPC   C2B53792  43.241   8.524   6.601
 4172POPC   C3B53793  43.499   8.721   6.916
 4172POPC   C4B53794  43.506   8.705   7.365
 4173POPC   NC353795  18.839   3.616   5.482
 4173POPC   PO453796  19.383   3.216   5.534
 4173POPC   GL153797  19.150   3.426   5.859
 4173POPC   GL253798  19.205   3.798   5.846
 4173POPC   C1A53799  18.966   3.584   6.248
 4173POPC   D2A53800  18.966   3.974   6.491
 4173POPC   C3A53801  18.810   3.908   6.909
 4173POPC   C4A53802  18.834   3.594   7.244
 4173POPC   C1B53803  19.428   3.800   6.260
 4173POPC   C2B53804  19.327   3.643   6.672
 4173POPC   C3B53805  19.289   3.754   7.086
 4173POPC   C4B53806  19.236   3.830   7.520
 4174POPC   NC353807  29.887   1.766   5.547
 4174POPC   PO453808  29.661   2.334   5.272
 4174POPC   GL153809  30.095   2.230   5.636
 4174POPC   GL253810  30.039   1.943   5.989
 4174POPC   C1A53811  30.241   2.374   6.062
 4174POPC   D2A53812  29.910   2.297   6.427
 4174POPC   C3A53813  30.033   2.094   6.855
 4174POPC   C4A53814  29.849   2.158   7.256
 4174POPC   C1B53815  29.700   1.655   6.180
 4174POPC   C2B53816  29.459   1.535   6.536
 4174POPC   C3B53817  29.637   1.486   6.918
 4174POPC   C4B53818  29.666   1.704   7.279
 4175POPC   NC353819  28.446   8.591   5.497
 4175POPC   PO453820  28.056   9.085   5.422
 4175POPC   GL153821  28.153   8.896   5.828
 4175POPC   GL253822  28.506   8.977   5.859
 4175POPC   C1A53823  28.234   8.996   6.284
 4175POPC   D2A53824  28.158   9.311   6.582
 4175POPC   C3A53825  28.155   9.164   7.012
 4175POPC   C4A53826  28.248   8.847   7.308
 4175POPC   C1B53827  28.732   9.058   6.268
 4175POPC   C2B53828  28.573   9.028   6.694
 4175POPC   C3B53829  28.702   8.984   7.091
 4175POPC   C4B53830  28.628   9.172   7.468
 4176POPC   NC353831  17.585   6.839   5.208
 4176POPC   PO453832  17.214   6.376   5.511
 4176POPC   GL153833  17.597   6.544   5.753
 4176POPC   GL253834  17.653   6.901   5.730
 4176POPC   C1A53835  17.740   6.579   6.204
 4176POPC   D2A53836  17.475   6.583   6.601
 4176POPC   C3A53837  17.681   6.408   6.981
 4176POPC   C4A53838  17.712   6.479   7.451
 4176POPC   C1B53839  17.725   7.086   6.137
 4176POPC   C2B53840  17.845   6.944   6.552
 4176POPC   C3B53841  17.654   6.933   6.940
 4176POPC   C4B53842  17.726   7.043   7.342
 4177POPC   NC353843  42.439  15.329   5.445
 4177POPC   PO453844  42.157  14.680   5.287
 4177POPC   GL153845  42.224  14.920   5.732
 4177POPC   GL253846  42.567  15.051   5.874
 4177POPC   C1A53847  42.196  15.281   6.098
 4177POPC   D2A53848  42.063  15.327   6.522
 4177POPC   C3A53849  42.311  15.159   6.815
 4177POPC   C4A53850  42.273  15.131   7.248
 4177POPC   C1B53851  42.814  14.875   6.239
 4177POPC   C2B53852  42.787  14.737   6.688
 4177POPC   C3B53853  42.767  15.039   7.053
 4177POPC   C4B53854  42.702  15.010   7.506
 4178POPC   NC353855  29.714   9.737   5.469
 4178POPC   PO453856  30.244  10.192   5.507
 4178POPC   GL153857  30.039  10.029   5.884
 4178POPC   GL253858  29.954   9.673   5.912
 4178POPC   C1A53859  30.099   9.987   6.328
 4178POPC   D2A53860  30.180  10.206   6.735
 4178POPC   C3A53861  29.914  10.006   7.055
 4178POPC   C4A53862  29.945   9.572   7.189
 4178POPC   C1B53863  29.622   9.453   6.137
 4178POPC   C2B53864  29.574   9.323   6.553
 4178POPC   C3B53865  29.727   9.179   6.930
 4178POPC   C4B53866  29.551   9.274   7.319
 4179POPC   NC353867   2.271   7.162   5.347
 4179POPC   PO453868   1.771   7.526   5.375
 4179POPC   GL153869   2.102   7.415   5.764
 4179POPC   GL253870   2.187   7.705   5.984
 4179POPC   C1A53871   2.068   7.262   6.210
 4179POPC   D2A53872   1.653   7.266   6.447
 4179POPC   C3A53873   1.698   7.123   6.873
 4179POPC   C4A53874   2.042   7.155   7.160
 4179POPC   C1B53875   1.919   7.719   6.353
 4179POPC   C2B53876   1.985   7.531   6.746
 4179POPC   C3B53877   1.971   7.664   7.152
 4179POPC   C4B53878   2.170   7.527   7.542
 4180POPC   NC353879   1.368  33.345   5.504
 4180POPC   PO453880   1.111  32.822   5.176
 4180POPC   GL153881   1.251  32.849   5.637
 4180POPC   GL253882   0.996  32.709   5.823
 4180POPC   C1A53883   1.441  32.908   6.111
 4180POPC   D2A53884   1.247  33.085   6.530
 4180POPC   C3A53885   1.319  32.903   6.960
 4180POPC   C4A53886   1.544  32.722   7.312
 4180POPC   C1B53887   0.859  32.795   6.277
 4180POPC   C2B53888   0.884  32.744   6.733
 4180POPC   C3B53889   0.818  32.903   7.164
 4180POPC   C4B53890   0.628  32.599   7.444
 4181POPC   NC353891  24.220   4.982   5.248
 4181POPC   PO453892  23.644   5.285   5.522
 4181POPC   GL153893  23.745   5.323   5.921
 4181POPC   GL253894  23.736   4.964   5.962
 4181POPC   C1A53895  23.692   5.312   6.342
 4181POPC   D2A53896  23.630   5.031   6.655
 4181POPC   C3A53897  23.818   5.124   7.058
 4181POPC   C4A53898  23.723   5.387   7.416
 4181POPC   C1B53899  23.958   4.711   6.286
 4181POPC   C2B53900  24.045   4.698   6.733
 4181POPC   C3B53901  24.036   4.669   7.184
 4181POPC   C4B53902  23.943   4.939   7.542
 4182POPC   NC353903  37.224   1.421   5.322
 4182POPC   PO453904  36.655   1.108   5.503
 4182POPC   GL153905  36.801   1.345   5.848
 4182POPC   GL253906  37.143   1.475   5.839
 4182POPC   C1A53907  36.815   1.523   6.255
 4182POPC   D2A53908  36.835   1.277   6.614
 4182POPC   C3A53909  36.858   1.545   6.940
 4182POPC   C4A53910  36.689   1.327   7.260
 4182POPC   C1B53911  37.174   1.171   6.228
 4182POPC   C2B53912  37.319   1.111   6.674
 4182POPC   C3B53913  37.128   1.111   7.091
 4182POPC   C4B53914  37.099   1.221   7.567
 4183POPC   NC353915  21.675  30.916   5.535
 4183POPC   PO453916  21.064  30.676   5.394
 4183POPC   GL153917  21.286  30.700   5.831
 4183POPC   GL253918  21.543  30.472   5.975
 4183POPC   C1A53919  21.207  30.825   6.245
 4183POPC   D2A53920  21.291  30.899   6.690
 4183POPC   C3A53921  21.404  30.581   6.989
 4183POPC   C4A53922  21.263  30.870   7.267
 4183POPC   C1B53923  21.733  30.849   6.208
 4183POPC   C2B53924  21.816  31.016   6.629
 4183POPC   C3B53925  21.742  30.968   7.057
 4183POPC   C4B53926  21.734  30.798   7.447
 4184POPC   NC353927  24.668  35.150   5.487
 4184POPC   PO453928  24.181  35.673   5.364
 4184POPC   GL153929  24.439  35.553   5.748
 4184POPC   GL253930  24.687  35.745   5.948
 4184POPC   C1A53931  24.450  35.314   6.155
 4184POPC   D2A53932  24.304  35.389   6.602
 4184POPC   C3A53933  24.410  35.091   6.956
 4184POPC   C4A53934  24.314  35.045   7.389
 4184POPC   C1B53935  24.683  35.692   6.426
 4184POPC   C2B53936  24.768  35.470   6.800
 4184POPC   C3B53937  24.665  35.488   7.209
 4184POPC   C4B53938  24.797  35.716   7.581
 4185POPC   NC353939  37.062  28.711   5.577
 4185POPC   PO453940  36.641  28.177   5.493
 4185POPC   GL153941  36.920  28.224   5.890
 4185POPC   GL253942  37.267  28.307   5.803
 4185POPC   C1A53943  36.998  28.261   6.356
 4185POPC   D2A53944  36.786  28.544   6.666
 4185POPC   C3A53945  36.833  28.546   7.120
 4185POPC   C4A53946  37.025  28.272   7.406
 4185POPC   C1B53947  37.392  28.581   6.152
 4185POPC   C2B53948  37.417  28.525   6.612
 4185POPC   C3B53949  37.313  28.728   7.009
 4185POPC   C4B53950  37.162  28.756   7.455
 4186POPC   NC353951   0.626   6.871   5.436
 4186POPC   PO453952   1.080   6.384   5.459
 4186POPC   GL153953   1.177   6.509   5.850
 4186POPC   GL253954   1.072   6.850   5.733
 4186POPC   C1A53955   1.167   6.422   6.300
 4186POPC   D2A53956   1.372   6.262   6.655
 4186POPC   C3A53957   1.124   6.291   7.030
 4186POPC   C4A53958   1.270   6.475   7.376
 4186POPC   C1B53959   1.381   6.913   6.077
 4186POPC   C2B53960   1.422   6.818   6.505
 4186POPC   C3B53961   1.394   6.722   6.927
 4186POPC   C4B53962   1.302   7.047   7.242
 4187POPC   NC353963  33.638  18.404   5.290
 4187POPC   PO453964  34.224  18.594   5.496
 4187POPC   GL153965  33.861  18.497   5.750
 4187POPC   GL253966  33.699  18.160   5.772
 4187POPC   C1A53967  33.735  18.412   6.198
 4187POPC   D2A53968  33.691  18.108   6.525
 4187POPC   C3A53969  33.845  18.275   6.925
 4187POPC   C4A53970  34.163  18.151   7.262
 4187POPC   C1B53971  33.519  17.830   6.084
 4187POPC   C2B53972  33.436  17.652   6.515
 4187POPC   C3B53973  33.550  17.813   6.930
 4187POPC   C4B53974  33.406  18.151   7.190
 4188POPC   NC353975  17.049  22.256   5.659
 4188POPC   PO453976  16.476  21.995   5.458
 4188POPC   GL153977  16.521  22.239   5.832
 4188POPC   GL253978  16.558  22.578   5.787
 4188POPC   C1A53979  16.730  22.144   6.226
 4188POPC   D2A53980  16.646  21.888   6.564
 4188POPC   C3A53981  16.814  22.073   6.932
 4188POPC   C4A53982  16.819  22.152   7.367
 4188POPC   C1B53983  16.658  22.653   6.235
 4188POPC   C2B53984  16.793  22.512   6.646
 4188POPC   C3B53985  16.621  22.530   7.061
 4188POPC   C4B53986  16.506  22.541   7.513
 4189POPC   NC353987  42.269  13.516   5.510
 4189POPC   PO453988  42.784  14.011   5.686
 4189POPC   GL153989  42.406  13.828   5.921
 4189POPC   GL253990  42.042  13.834   5.835
 4189POPC   C1A53991  42.309  13.483   6.226
 4189POPC   D2A53992  42.471  13.260   6.603
 4189POPC   C3A53993  42.254  13.338   6.992
 4189POPC   C4A53994  42.371  13.454   7.410
 4189POPC   C1B53995  42.002  13.904   6.255
 4189POPC   C2B53996  42.028  13.663   6.629
 4189POPC   C3B53997  42.172  13.833   7.025
 4189POPC   C4B53998  41.994  13.964   7.385
 4190POPC   NC353999  10.925  12.394   5.423
 4190POPC   PO454000  10.508  11.786   5.459
 4190POPC   GL154001  10.513  11.932   5.864
 4190POPC   GL254002  10.582  12.245   5.783
 4190POPC   C1A54003  10.341  11.823   6.268
 4190POPC   D2A54004  10.287  12.083   6.635
 4190POPC   C3A54005  10.641  12.027   6.935
 4190POPC   C4A54006  10.493  11.970   7.329
 4190POPC   C1B54007  10.490  12.336   6.219
 4190POPC   C2B54008  10.648  12.447   6.660
 4190POPC   C3B54009  10.380  12.457   7.060
 4190POPC   C4B54010  10.401  12.486   7.529
 4191POPC   NC354011  24.370  26.094   4.985
 4191POPC   PO454012  24.618  25.619   5.287
 4191POPC   GL154013  24.770  25.772   5.734
 4191POPC   GL254014  24.568  26.005   5.948
 4191POPC   C1A54015  24.951  25.778   6.169
 4191POPC   D2A54016  24.645  25.914   6.478
 4191POPC   C3A54017  24.792  25.918   6.894
 4191POPC   C4A54018  24.511  25.963   7.222
 4191POPC   C1B54019  24.391  26.326   6.208
 4191POPC   C2B54020  24.225  26.393   6.587
 4191POPC   C3B54021  24.479  26.353   6.906
 4191POPC   C4B54022  24.624  26.473   7.262
 4192POPC   NC354023  43.478   5.742   5.698
 4192POPC   PO454024  43.433   6.218   5.217
 4192POPC   GL154025  43.069   6.070   5.678
 4192POPC   GL254026  43.086   5.798   5.997
 4192POPC   C1A54027  42.867   6.223   6.111
 4192POPC   D2A54028  42.947   6.208   6.599
 4192POPC   C3A54029  42.880   5.825   6.878
 4192POPC   C4A54030  43.032   5.595   7.262
 4192POPC   C1B54031  43.430   5.906   6.324
 4192POPC   C2B54032  43.496   6.101   6.710
 4192POPC   C3B54033  43.386   5.879   7.031
 4192POPC   C4B54034  43.342   6.002   7.410
 4193POPC   NC354035  17.844  24.398   5.360
 4193POPC   PO454036  17.501  24.964   5.361
 4193POPC   GL154037  17.772  24.756   5.764
 4193POPC   GL254038  17.666  24.428   5.899
 4193POPC   C1A54039  17.784  24.788   6.289
 4193POPC   D2A54040  17.850  24.793   6.771
 4193POPC   C3A54041  17.551  24.534   7.024
 4193POPC   C4A54042  17.136  24.656   7.194
 4193POPC   C1B54043  17.645  24.133   6.267
 4193POPC   C2B54044  17.501  24.061   6.723
 4193POPC   C3B54045  17.682  24.028   7.145
 4193POPC   C4B54046  17.868  24.237   7.511
 4194POPC   NC354047  29.283  37.908   5.427
 4194POPC   PO454048  28.915  37.385   5.608
 4194POPC   GL154049  29.146  37.693   5.874
 4194POPC   GL254050  29.070  38.080   5.878
 4194POPC   C1A54051  29.212  37.757   6.295
 4194POPC   D2A54052  29.379  37.607   6.668
 4194POPC   C3A54053  29.150  37.477   7.031
 4194POPC   C4A54054  29.339  37.541   7.424
 4194POPC   C1B54055  28.982  38.226   6.308
 4194POPC   C2B54056  28.982  37.996   6.713
 4194POPC   C3B54057  29.090  37.972   7.154
 4194POPC   C4B54058  29.135  37.998   7.599
 4195POPC   NC354059  40.339   7.450   5.450
 4195POPC   PO454060  39.779   7.712   5.498
 4195POPC   GL154061  39.910   7.597   5.875
 4195POPC   GL254062  39.975   7.262   5.805
 4195POPC   C1A54063  39.993   7.550   6.296
 4195POPC   D2A54064  40.124   7.369   6.670
 4195POPC   C3A54065  39.980   7.492   7.062
 4195POPC   C4A54066  39.925   7.754   7.449
 4195POPC   C1B54067  39.817   7.082   6.182
 4195POPC   C2B54068  39.653   7.150   6.560
 4195POPC   C3B54069  39.649   7.004   6.951
 4195POPC   C4B54070  39.673   7.186   7.320
 4196POPC   NC354071  29.406  44.589   5.444
 4196POPC   PO454072  28.793  44.889   5.443
 4196POPC   GL154073  29.125  44.901   5.778
 4196POPC   GL254074  29.503  44.989   5.808
 4196POPC   C1A54075  29.151  44.724   6.202
 4196POPC   D2A54076  28.988  44.645   6.620
 4196POPC   C3A54077  29.261  44.544   6.958
 4196POPC   C4A54078  29.017  44.376   7.276
 4196POPC   C1B54079  29.443   0.140   6.244
 4196POPC   C2B54080  29.438   0.004   6.704
 4196POPC   C3B54081  29.140   0.025   7.072
 4196POPC   C4B54082  29.088   0.063   7.551
 4197POPC   NC354083   8.130  16.963   5.101
 4197POPC   PO454084   8.221  16.501   5.571
 4197POPC   GL154085   8.240  16.704   5.932
 4197POPC   GL254086   8.382  17.041   5.845
 4197POPC   C1A54087   8.006  16.766   6.304
 4197POPC   D2A54088   8.164  16.612   6.693
 4197POPC   C3A54089   7.970  16.823   6.997
 4197POPC   C4A54090   7.845  16.692   7.355
 4197POPC   C1B54091   8.464  16.991   6.274
 4197POPC   C2B54092   8.626  16.802   6.609
 4197POPC   C3B54093   8.508  16.890   7.010
 4197POPC   C4B54094   8.323  16.940   7.374
 4198POPC   NC354095  11.720  15.179   5.220
 4198POPC   PO454096  11.129  15.445   5.543
 4198POPC   GL154097  11.293  15.038   5.765
 4198POPC   GL254098  11.291  15.279   6.011
 4198POPC   C1A54099  11.528  14.887   6.185
 4198POPC   D2A54100  11.463  15.142   6.574
 4198POPC   C3A54101  11.407  14.980   7.000
 4198POPC   C4A54102  11.499  15.155   7.442
 4198POPC   C1B54103  11.293  15.579   6.327
 4198POPC   C2B54104  11.317  15.681   6.725
 4198POPC   C3B54105  11.328  15.508   7.099
 4198POPC   C4B54106  11.144  15.606   7.498
 4199POPC   NC354107  29.247  12.352   5.462
 4199POPC   PO454108  29.457  11.733   5.651
 4199POPC   GL154109  29.159  12.014   5.957
 4199POPC   GL254110  28.925  12.296   5.871
 4199POPC   C1A54111  29.143  12.182   6.396
 4199POPC   D2A54112  29.397  12.310   6.743
 4199POPC   C3A54113  29.199  12.173   7.122
 4199POPC   C4A54114  29.069  12.033   7.525
 4199POPC   C1B54115  28.723  12.417   6.286
 4199POPC   C2B54116  28.743  12.378   6.819
 4199POPC   C3B54117  28.773  12.408   7.306
 4199POPC   C4B54118  28.773  12.359   7.795
 4200POPC   NC354119  30.636  44.689   5.270
 4200POPC   PO454120  31.269  44.512   5.160
 4200POPC   GL154121  31.057  44.583   5.586
 4200POPC   GL254122  30.902  44.911   5.642
 4200POPC   C1A54123  30.908  44.482   6.053
 4200POPC   D2A54124  30.822  44.639   6.493
 4200POPC   C3A54125  30.874  44.498   6.938
 4200POPC   C4A54126  30.601  44.294   7.228
 4200POPC   C1B54127  30.826   0.002   6.072
 4200POPC   C2B54128  30.741   0.132   6.493
 4200POPC   C3B54129  30.562  44.927   6.868
 4200POPC   C4B54130  30.763  44.961   7.267
 4201POPC   NC354131  16.429  39.505   5.403
 4201POPC   PO454132  15.804  39.347   5.431
 4201POPC   GL154133  15.814  39.255   5.852
 4201POPC   GL254134  16.173  39.360   5.833
 4201POPC   C1A54135  15.635  39.249   6.277
 4201POPC   D2A54136  15.823  39.325   6.669
 4201POPC   C3A54137  15.644  39.423   7.039
 4201POPC   C4A54138  15.647  39.038   7.232
 4201POPC   C1B54139  16.162  39.238   6.261
 4201POPC   C2B54140  16.314  39.198   6.666
 4201POPC   C3B54141  16.127  39.201   7.081
 4201POPC   C4B54142  16.436  39.085   7.327
 4202POPC   NC354143  31.520  44.922   5.073
 4202POPC   PO454144  31.457   0.628   5.188
 4202POPC   GL154145  31.393   0.596   5.714
 4202POPC   GL254146  31.088   0.365   5.818
 4202POPC   C1A54147  31.485   0.368   6.140
 4202POPC   D2A54148  31.643   0.243   6.571
 4202POPC   C3A54149  31.504   0.436   6.982
 4202POPC   C4A54150  31.533   0.257   7.454
 4202POPC   C1B54151  30.980   0.528   6.173
 4202POPC   C2B54152  31.159   0.420   6.554
 4202POPC   C3B54153  31.085   0.149   6.886
 4202POPC   C4B54154  31.094   0.355   7.272
 4203POPC   NC354155  26.269  40.659   5.441
 4203POPC   PO454156  25.654  40.816   5.587
 4203POPC   GL154157  26.033  40.837   5.868
 4203POPC   GL254158  26.406  40.980   5.818
 4203POPC   C1A54159  25.911  40.703   6.272
 4203POPC   D2A54160  25.781  40.526   6.669
 4203POPC   C3A54161  25.833  40.765   7.015
 4203POPC   C4A54162  26.128  40.532   7.244
 4203POPC   C1B54163  26.423  40.750   6.223
 4203POPC   C2B54164  26.251  40.758   6.653
 4203POPC   C3B54165  26.311  40.944   7.038
 4203POPC   C4B54166  26.035  41.126   7.323
 4204POPC   NC354167  23.955  30.330   5.116
 4204POPC   PO454168  23.370  30.591   5.441
 4204POPC   GL154169  23.685  30.683   5.786
 4204POPC   GL254170  24.006  30.499   5.829
 4204POPC   C1A54171  23.824  30.858   6.191
 4204POPC   D2A54172  23.686  30.697   6.581
 4204POPC   C3A54173  23.652  30.915   6.977
 4204POPC   C4A54174  23.970  30.826   7.321
 4204POPC   C1B54175  23.738  30.346   6.199
 4204POPC   C2B54176  23.765  30.186   6.659
 4204POPC   C3B54177  23.835  30.448   6.994
 4204POPC   C4B54178  23.577  30.438   7.356
 4205POPC   NC354179  28.529  10.855   5.244
 4205POPC   PO454180  28.211  11.488   5.270
 4205POPC   GL154181  28.268  11.534   5.711
 4205POPC   GL254182  28.040  11.790   5.794
 4205POPC   C1A54183  28.487  11.408   6.130
 4205POPC   D2A54184  28.377  11.246   6.562
 4205POPC   C3A54185  28.520  11.466   6.934
 4205POPC   C4A54186  28.472  11.183   7.237
 4205POPC   C1B54187  28.078  11.702   6.200
 4205POPC   C2B54188  28.316  11.750   6.515
 4205POPC   C3B54189  28.056  11.644   6.848
 4205POPC   C4B54190  28.106  11.550   7.276
 4206POPC   NC354191  41.908  18.950   5.454
 4206POPC   PO454192  42.442  19.379   5.278
 4206POPC   GL154193  42.313  19.182   5.689
 4206POPC   GL254194  42.400  18.842   5.677
 4206POPC   C1A54195  42.132  18.976   6.095
 4206POPC   D2A54196  42.013  18.914   6.534
 4206POPC   C3A54197  42.121  19.236   6.841
 4206POPC   C4A54198  42.193  19.250   7.298
 4206POPC   C1B54199  42.638  18.921   6.055
 4206POPC   C2B54200  42.520  18.954   6.512
 4206POPC   C3B54201  42.423  18.852   6.964
 4206POPC   C4B54202  42.715  19.082   7.214
 4207POPC   NC354203  31.163  40.973   5.504
 4207POPC   PO454204  31.852  40.771   5.608
 4207POPC   GL154205  31.515  40.906   5.885
 4207POPC   GL254206  31.409  40.588   5.896
 4207POPC   C1A54207  31.211  40.862   6.254
 4207POPC   D2A54208  31.323  40.676   6.663
 4207POPC   C3A54209  31.439  40.930   7.018
 4207POPC   C4A54210  31.698  41.165   7.271
 4207POPC   C1B54211  31.728  40.563   6.227
 4207POPC   C2B54212  31.861  40.377   6.615
 4207POPC   C3B54213  31.700  40.481   6.992
 4207POPC   C4B54214  31.515  40.524   7.370
 4208POPC   NC354215   5.238  14.337   5.431
 4208POPC   PO454216   4.593  14.199   5.466
 4208POPC   GL154217   4.897  14.264   5.800
 4208POPC   GL254218   4.996  14.587   5.816
 4208POPC   C1A54219   5.085  14.282   6.244
 4208POPC   D2A54220   4.900  14.464   6.600
 4208POPC   C3A54221   5.103  14.409   6.991
 4208POPC   C4A54222   4.849  14.456   7.359
 4208POPC   C1B54223   5.306  14.733   6.146
 4208POPC   C2B54224   5.388  14.612   6.575
 4208POPC   C3B54225   5.436  14.820   6.966
 4208POPC   C4B54226   5.299  14.698   7.360
 4209POPC   NC354227  11.893   2.183   5.374
 4209POPC   PO454228  11.859   1.471   5.513
 4209POPC   GL154229  11.859   1.868   5.792
 4209POPC   GL254230  12.185   2.070   5.785
 4209POPC   C1A54231  11.888   2.100   6.187
 4209POPC   D2A54232  11.811   1.961   6.576
 4209POPC   C3A54233  12.128   1.915   6.859
 4209POPC   C4A54234  11.943   1.975   7.267
 4209POPC   C1B54235  12.358   2.317   6.150
 4209POPC   C2B54236  12.308   2.339   6.603
 4209POPC   C3B54237  12.184   2.378   7.047
 4209POPC   C4B54238  12.091   2.489   7.479
 4210POPC   NC354239  27.880  18.913   5.380
 4210POPC   PO454240  27.385  19.385   5.272
 4210POPC   GL154241  27.466  19.127   5.670
 4210POPC   GL254242  27.826  19.160   5.831
 4210POPC   C1A54243  27.380  19.028   6.121
 4210POPC   D2A54244  27.594  19.012   6.539
 4210POPC   C3A54245  27.349  19.095   6.916
 4210POPC   C4A54246  27.075  18.993   7.235
 4210POPC   C1B54247  28.038  18.989   6.211
 4210POPC   C2B54248  28.081  18.883   6.641
 4210POPC   C3B54249  28.150  18.796   7.057
 4210POPC   C4B54250  27.985  19.107   7.323
 4211POPC   NC354251   7.223  36.502   5.651
 4211POPC   PO454252   7.017  35.817   5.529
 4211POPC   GL154253   7.238  35.988   5.898
 4211POPC   GL254254   7.594  36.157   5.901
 4211POPC   C1A54255   7.437  35.842   6.287
 4211POPC   D2A54256   7.606  35.849   6.705
 4211POPC   C3A54257   7.294  35.854   7.000
 4211POPC   C4A54258   7.119  36.159   7.239
 4211POPC   C1B54259   7.634  36.339   6.339
 4211POPC   C2B54260   7.432  36.335   6.758
 4211POPC   C3B54261   7.610  36.231   7.147
 4211POPC   C4B54262   7.538  36.376   7.561
 4212POPC   NC354263  33.249  24.074   5.490
 4212POPC   PO454264  32.769  23.606   5.564
 4212POPC   GL154265  33.092  23.706   5.908
 4212POPC   GL254266  33.324  23.422   5.993
 4212POPC   C1A54267  33.110  23.719   6.374
 4212POPC   D2A54268  32.914  23.792   6.785
 4212POPC   C3A54269  33.156  24.055   7.075
 4212POPC   C4A54270  33.068  24.046   7.540
 4212POPC   C1B54271  33.340  23.195   6.344
 4212POPC   C2B54272  33.259  23.344   6.747
 4212POPC   C3B54273  33.234  23.562   7.145
 4212POPC   C4B54274  33.139  23.535   7.606
 4213POPC   NC354275  33.946  24.318   5.464
 4213POPC   PO454276  33.552  24.820   5.639
 4213POPC   GL154277  33.777  24.570   5.881
 4213POPC   GL254278  33.628  24.251   5.865
 4213POPC   C1A54279  33.851  24.609   6.289
 4213POPC   D2A54280  33.625  24.469   6.653
 4213POPC   C3A54281  33.675  24.585   7.089
 4213POPC   C4A54282  33.493  24.324   7.408
 4213POPC   C1B54283  33.762  24.114   6.274
 4213POPC   C2B54284  33.961  24.073   6.699
 4213POPC   C3B54285  33.856  24.090   7.150
 4213POPC   C4B54286  33.950  24.064   7.637
 4214POPC   NC354287  13.922  13.624   5.478
 4214POPC   PO454288  13.289  13.926   5.429
 4214POPC   GL154289  13.537  13.746   5.833
 4214POPC   GL254290  13.715  13.394   5.902
 4214POPC   C1A54291  13.697  13.779   6.277
 4214POPC   D2A54292  13.769  13.994   6.694
 4214POPC   C3A54293  13.416  13.996   6.973
 4214POPC   C4A54294  13.353  13.727   7.319
 4214POPC   C1B54295  14.069  13.356   6.218
 4214POPC   C2B54296  14.141  13.298   6.649
 4214POPC   C3B54297  13.845  13.474   6.918
 4214POPC   C4B54298  13.849  13.786   7.207
 4215POPC   NC354299  26.828  38.261   5.485
 4215POPC   PO454300  26.994  38.972   5.538
 4215POPC   GL154301  26.884  38.629   5.836
 4215POPC   GL254302  26.557  38.427   5.859
 4215POPC   C1A54303  26.817  38.583   6.261
 4215POPC   D2A54304  27.104  38.588   6.573
 4215POPC   C3A54305  26.922  38.788   6.888
 4215POPC   C4A54306  26.662  38.754   7.262
 4215POPC   C1B54307  26.531  38.176   6.251
 4215POPC   C2B54308  26.682  38.271   6.665
 4215POPC   C3B54309  26.749  38.277   7.085
 4215POPC   C4B54310  26.622  38.272   7.490
 4216POPC   NC354311  26.333  21.720   5.154
 4216POPC   PO454312  25.839  21.598   5.603
 4216POPC   GL154313  25.917  21.394   5.960
 4216POPC   GL254314  26.142  21.169   5.831
 4216POPC   C1A54315  26.108  21.543   6.359
 4216POPC   D2A54316  26.310  21.701   6.736
 4216POPC   C3A54317  26.118  21.610   7.142
 4216POPC   C4A54318  26.360  21.637   7.529
 4216POPC   C1B54319  26.195  21.039   6.233
 4216POPC   C2B54320  25.972  21.120   6.625
 4216POPC   C3B54321  26.087  20.962   7.030
 4216POPC   C4B54322  26.186  21.146   7.436
 4217POPC   NC354323  24.187  32.534   5.659
 4217POPC   PO454324  24.617  33.090   5.501
 4217POPC   GL154325  24.466  32.967   5.872
 4217POPC   GL254326  24.703  32.688   5.873
 4217POPC   C1A54327  24.653  32.997   6.269
 4217POPC   D2A54328  24.686  32.831   6.669
 4217POPC   C3A54329  24.565  33.146   6.951
 4217POPC   C4A54330  24.667  33.197   7.395
 4217POPC   C1B54331  24.466  32.524   6.234
 4217POPC   C2B54332  24.169  32.728   6.476
 4217POPC   C3B54333  24.224  32.704   6.892
 4217POPC   C4B54334  24.125  32.584   7.303
 4218POPC   NC354335   4.867  12.807   5.483
 4218POPC   PO454336   5.455  13.155   5.602
 4218POPC   GL154337   5.181  12.900   5.882
 4218POPC   GL254338   5.361  12.606   5.851
 4218POPC   C1A54339   4.882  12.873   6.277
 4218POPC   D2A54340   4.883  13.056   6.696
 4218POPC   C3A54341   5.137  12.963   7.015
 4218POPC   C4A54342   5.078  12.986   7.440
 4218POPC   C1B54343   5.234  12.505   6.268
 4218POPC   C2B54344   5.061  12.554   6.666
 4218POPC   C3B54345   4.794  12.589   6.987
 4218POPC   C4B54346   4.951  12.512   7.371
 4219POPC   NC354347  10.678  15.551   5.464
 4219POPC   PO454348  10.466  14.886   5.390
 4219POPC   GL154349  10.450  15.100   5.773
 4219POPC   GL254350  10.791  15.121   5.786
 4219POPC   C1A54351  10.439  15.027   6.221
 4219POPC   D2A54352  10.491  15.162   6.663
 4219POPC   C3A54353  10.463  15.086   7.100
 4219POPC   C4A54354  10.160  15.396   7.285
 4219POPC   C1B54355  10.812  15.372   6.153
 4219POPC   C2B54356  10.971  15.259   6.551
 4219POPC   C3B54357  10.876  15.365   6.946
 4219POPC   C4B54358  11.015  15.151   7.275
 4220POPC   NC354359   8.590  18.211   5.634
 4220POPC   PO454360   8.135  18.543   5.340
 4220POPC   GL154361   7.955  18.369   5.725
 4220POPC   GL254362   8.084  18.022   5.800
 4220POPC   C1A54363   8.128  18.411   6.158
 4220POPC   D2A54364   8.370  18.332   6.560
 4220POPC   C3A54365   8.172  18.317   6.980
 4220POPC   C4A54366   7.901  18.601   7.236
 4220POPC   C1B54367   8.302  17.943   6.219
 4220POPC   C2B54368   8.171  17.870   6.665
 4220POPC   C3B54369   8.278  17.821   7.124
 4220POPC   C4B54370   8.239  17.933   7.571
 4221POPC   NC354371  10.374  40.320   5.354
 4221POPC   PO454372  10.689  39.765   5.401
 4221POPC   GL154373  10.447  39.929   5.725
 4221POPC   GL254374  10.644  40.217   5.781
 4221POPC   C1A54375  10.320  39.751   6.136
 4221POPC   D2A54376  10.485  39.841   6.548
 4221POPC   C3A54377  10.301  39.776   6.951
 4221POPC   C4A54378  10.558  39.943   7.300
 4221POPC   C1B54379  10.515  40.281   6.206
 4221POPC   C2B54380  10.220  40.281   6.561
 4221POPC   C3B54381  10.379  40.286   6.942
 4221POPC   C4B54382  10.704  40.470   7.172
 4222POPC   NC354383   4.823  41.051   5.514
 4222POPC   PO454384   5.249  40.488   5.685
 4222POPC   GL154385   5.081  40.683   6.037
 4222POPC   GL254386   4.925  40.991   6.004
 4222POPC   C1A54387   5.059  40.704   6.476
 4222POPC   D2A54388   5.237  40.511   6.841
 4222POPC   C3A54389   5.033  40.502   7.243
 4222POPC   C4A54390   4.847  40.820   7.494
 4222POPC   C1B54391   5.205  41.166   6.311
 4222POPC   C2B54392   5.290  41.083   6.756
 4222POPC   C3B54393   4.998  41.157   7.101
 4222POPC   C4B54394   4.936  41.537   7.344
 4223POPC   NC354395  31.332  28.830   5.166
 4223POPC   PO454396  31.533  29.386   5.453
 4223POPC   GL154397  31.359  29.344   5.853
 4223POPC   GL254398  31.129  29.063   5.856
 4223POPC   C1A54399  31.533  29.365   6.277
 4223POPC   D2A54400  31.617  29.106   6.643
 4223POPC   C3A54401  31.512  29.214   7.058
 4223POPC   C4A54402  31.713  29.517   7.296
 4223POPC   C1B54403  31.152  28.933   6.305
 4223POPC   C2B54404  31.183  28.892   6.759
 4223POPC   C3B54405  31.052  29.002   7.139
 4223POPC   C4B54406  31.175  28.878   7.506
 4224POPC   NC354407  26.423   7.306   5.508
 4224POPC   PO454408  27.037   7.482   5.476
 4224POPC   GL154409  26.839   7.232   5.801
 4224POPC   GL254410  26.701   7.498   5.949
 4224POPC   C1A54411  26.726   7.088   6.236
 4224POPC   D2A54412  26.695   7.293   6.656
 4224POPC   C3A54413  26.813   7.121   7.070
 4224POPC   C4A54414  26.706   7.193   7.532
 4224POPC   C1B54415  27.009   7.571   6.257
 4224POPC   C2B54416  27.086   7.720   6.654
 4224POPC   C3B54417  26.712   7.775   6.889
 4224POPC   C4B54418  26.691   7.615   7.257
 4225POPC   NC354419  36.252  27.177   5.586
 4225POPC   PO454420  35.932  26.597   5.505
 4225POPC   GL154421  36.032  26.768   5.856
 4225POPC   GL254422  36.326  26.655   5.884
 4225POPC   C1A54423  36.119  26.983   6.231
 4225POPC   D2A54424  36.055  27.122   6.602
 4225POPC   C3A54425  36.023  26.849   6.919
 4225POPC   C4A54426  36.142  27.191   7.173
 4225POPC   C1B54427  36.559  26.717   6.241
 4225POPC   C2B54428  36.537  26.904   6.622
 4225POPC   C3B54429  36.524  26.842   7.031
 4225POPC   C4B54430  36.452  26.896   7.435
 4226POPC   NC354431  35.982  13.867   5.428
 4226POPC   PO454432  36.620  13.653   5.645
 4226POPC   GL154433  36.265  13.787   5.858
 4226POPC   GL254434  35.997  13.571   5.927
 4226POPC   C1A54435  36.112  14.016   6.196
 4226POPC   D2A54436  35.971  13.905   6.607
 4226POPC   C3A54437  36.196  13.947   6.992
 4226POPC   C4A54438  36.059  13.660   7.278
 4226POPC   C1B54439  36.256  13.544   6.332
 4226POPC   C2B54440  36.427  13.537   6.763
 4226POPC   C3B54441  36.321  13.253   7.110
 4226POPC   C4B54442  36.478  13.272   7.541
 4227POPC   NC354443  29.056  29.189   5.157
 4227POPC   PO454444  29.435  28.840   5.566
 4227POPC   GL154445  29.277  29.011   5.974
 4227POPC   GL254446  29.594  29.096   6.105
 4227POPC   C1A54447  29.020  29.318   6.259
 4227POPC   D2A54448  28.832  29.503   6.671
 4227POPC   C3A54449  29.002  29.261   7.055
 4227POPC   C4A54450  28.906  29.077   7.493
 4227POPC   C1B54451  29.506  29.501   6.286
 4227POPC   C2B54452  29.347  29.446   6.700
 4227POPC   C3B54453  29.532  29.262   7.062
 4227POPC   C4B54454  29.456  28.977   7.378
 4228POPC   NC354455   4.210  31.080   5.183
 4228POPC   PO454456   4.343  30.394   5.389
 4228POPC   GL154457   4.279  30.651   5.765
 4228POPC   GL254458   4.109  30.994   5.697
 4228POPC   C1A54459   4.116  30.757   6.188
 4228POPC   D2A54460   4.274  30.619   6.595
 4228POPC   C3A54461   4.149  30.854   6.931
 4228POPC   C4A54462   4.108  30.585   7.256
 4228POPC   C1B54463   4.444  31.116   6.013
 4228POPC   C2B54464   4.468  31.122   6.489
 4228POPC   C3B54465   4.584  31.186   6.927
 4228POPC   C4B54466   4.446  31.074   7.356
 4229POPC   NC354467  28.777  43.716   5.459
 4229POPC   PO454468  29.280  44.137   5.443
 4229POPC   GL154469  29.206  43.892   5.874
 4229POPC   GL254470  28.904  43.685   5.951
 4229POPC   C1A54471  29.038  44.057   6.320
 4229POPC   D2A54472  28.958  44.150   6.782
 4229POPC   C3A54473  29.301  44.033   7.053
 4229POPC   C4A54474  29.585  43.734   7.146
 4229POPC   C1B54475  29.017  43.548   6.348
 4229POPC   C2B54476  29.209  43.622   6.724
 4229POPC   C3B54477  29.018  43.613   7.085
 4229POPC   C4B54478  28.785  43.923   7.250
 4230POPC   NC354479  10.461  21.770   5.305
 4230POPC   PO454480  10.509  22.417   5.452
 4230POPC   GL154481  10.450  22.186   5.817
 4230POPC   GL254482  10.211  21.961   5.736
 4230POPC   C1A54483  10.650  22.019   6.172
 4230POPC   D2A54484  10.591  21.767   6.519
 4230POPC   C3A54485  10.637  22.055   6.823
 4230POPC   C4A54486  10.694  22.102   7.232
 4230POPC   C1B54487  10.148  21.894   6.185
 4230POPC   C2B54488  10.188  22.129   6.585
 4230POPC   C3B54489  10.200  22.167   7.057
 4230POPC   C4B54490  10.289  22.312   7.521
 4231POPC   NC354491  34.384   7.257   5.543
 4231POPC   PO454492  34.360   7.953   5.371
 4231POPC   GL154493  34.361   7.716   5.823
 4231POPC   GL254494  34.674   7.655   6.063
 4231POPC   C1A54495  34.157   7.604   6.233
 4231POPC   D2A54496  34.149   7.258   6.537
 4231POPC   C3A54497  34.178   7.414   6.957
 4231POPC   C4A54498  34.560   7.409   7.197
 4231POPC   C1B54499  34.993   7.530   6.401
 4231POPC   C2B54500  34.984   7.367   6.869
 4231POPC   C3B54501  34.970   7.125   7.295
 4231POPC   C4B54502  35.115   7.059   7.795
 4232POPC   NC354503  35.643   3.354   5.447
 4232POPC   PO454504  35.160   3.789   5.528
 4232POPC   GL154505  35.285   3.663   5.890
 4232POPC   GL254506  35.420   3.339   5.899
 4232POPC   C1A54507  35.215   3.657   6.320
 4232POPC   D2A54508  35.341   3.487   6.697
 4232POPC   C3A54509  35.210   3.589   7.123
 4232POPC   C4A54510  35.356   3.686   7.556
 4232POPC   C1B54511  35.388   3.149   6.286
 4232POPC   C2B54512  35.207   2.980   6.651
 4232POPC   C3B54513  35.365   3.113   7.065
 4232POPC   C4B54514  35.191   3.210   7.491
 4233POPC   NC354515   4.738  23.120   5.622
 4233POPC   PO454516   5.143  23.633   5.395
 4233POPC   GL154517   5.228  23.743   5.841
 4233POPC   GL254518   4.920  23.542   5.904
 4233POPC   C1A54519   5.147  23.908   6.287
 4233POPC   D2A54520   5.268  24.186   6.653
 4233POPC   C3A54521   5.120  24.080   7.055
 4233POPC   C4A54522   4.718  23.955   7.129
 4233POPC   C1B54523   4.798  23.524   6.342
 4233POPC   C2B54524   4.915  23.707   6.728
 4233POPC   C3B54525   5.149  23.589   7.079
 4233POPC   C4B54526   5.583  23.586   7.234
 4234POPC   NC354527  16.137  31.609   5.380
 4234POPC   PO454528  15.609  31.314   5.682
 4234POPC   GL154529  15.847  31.536   5.933
 4234POPC   GL254530  15.577  31.536   6.124
 4234POPC   C1A54531  16.033  31.488   6.352
 4234POPC   D2A54532  16.095  31.745   6.683
 4234POPC   C3A54533  15.872  31.550   7.016
 4234POPC   C4A54534  16.035  31.188   7.203
 4234POPC   C1B54535  15.609  31.166   6.374
 4234POPC   C2B54536  15.721  31.106   6.789
 4234POPC   C3B54537  15.533  31.171   7.186
 4234POPC   C4B54538  15.681  31.137   7.644
 4235POPC   NC354539   9.562  13.699   5.359
 4235POPC   PO454540  10.015  13.285   5.279
 4235POPC   GL154541   9.648  13.362   5.704
 4235POPC   GL254542   9.681  13.716   5.864
 4235POPC   C1A54543   9.549  13.324   6.176
 4235POPC   D2A54544   9.757  13.368   6.599
 4235POPC   C3A54545   9.863  13.651   6.945
 4235POPC   C4A54546   9.952  13.607   7.375
 4235POPC   C1B54547   9.624  14.014   6.227
 4235POPC   C2B54548   9.731  14.079   6.674
 4235POPC   C3B54549   9.716  14.137   7.130
 4235POPC   C4B54550   9.506  14.178   7.563
 4236POPC   NC354551   7.729   3.013   5.669
 4236POPC   PO454552   7.909   2.445   5.314
 4236POPC   GL154553   8.049   2.606   5.696
 4236POPC   GL254554   8.321   2.847   5.759
 4236POPC   C1A54555   8.080   2.586   6.123
 4236POPC   D2A54556   8.045   2.719   6.534
 4236POPC   C3A54557   8.153   2.420   6.852
 4236POPC   C4A54558   8.225   2.459   7.308
 4236POPC   C1B54559   8.172   3.090   6.156
 4236POPC   C2B54560   8.129   3.234   6.570
 4236POPC   C3B54561   8.106   3.006   6.973
 4236POPC   C4B54562   7.960   2.918   7.412
 4237POPC   NC354563  19.361   5.125   5.585
 4237POPC   PO454564  18.800   4.797   5.377
 4237POPC   GL154565  18.946   4.925   5.820
 4237POPC   GL254566  19.245   4.799   6.031
 4237POPC   C1A54567  18.850   4.999   6.285
 4237POPC   D2A54568  18.859   4.944   6.748
 4237POPC   C3A54569  19.007   5.208   7.115
 4237POPC   C4A54570  18.874   5.170   7.579
 4237POPC   C1B54571  19.519   5.024   6.315
 4237POPC   C2B54572  19.316   5.243   6.654
 4237POPC   C3B54573  19.481   5.381   7.035
 4237POPC   C4B54574  19.354   5.305   7.471
 4238POPC   NC354575  36.322   7.185   5.420
 4238POPC   PO454576  35.672   7.281   5.285
 4238POPC   GL154577  35.799   7.385   5.745
 4238POPC   GL254578  36.176   7.409   5.850
 4238POPC   C1A54579  35.844   7.294   6.196
 4238POPC   D2A54580  35.949   7.443   6.574
 4238POPC   C3A54581  35.972   7.230   6.943
 4238POPC   C4A54582  35.920   7.424   7.332
 4238POPC   C1B54583  36.360   7.532   6.274
 4238POPC   C2B54584  36.440   7.483   6.752
 4238POPC   C3B54585  36.402   7.570   7.228
 4238POPC   C4B54586  36.432   7.408   7.682
 4239POPC   NC354587   1.292  27.840   5.392
 4239POPC   PO454588   0.991  27.293   5.395
 4239POPC   GL154589   1.116  27.516   5.780
 4239POPC   GL254590   1.417  27.663   5.879
 4239POPC   C1A54591   1.083  27.502   6.229
 4239POPC   D2A54592   0.924  27.716   6.579
 4239POPC   C3A54593   0.977  27.409   6.881
 4239POPC   C4A54594   1.202  27.491   7.243
 4239POPC   C1B54595   1.646  27.693   6.263
 4239POPC   C2B54596   1.481  27.571   6.679
 4239POPC   C3B54597   1.616  27.743   7.076
 4239POPC   C4B54598   1.525  27.933   7.492
 4240POPC   NC354599  26.778  16.625   5.454
 4240POPC   PO454600  27.232  16.143   5.640
 4240POPC   GL154601  27.051  16.548   5.894
 4240POPC   GL254602  26.671  16.610   5.985
 4240POPC   C1A54603  26.994  16.750   6.341
 4240POPC   D2A54604  26.822  16.583   6.727
 4240POPC   C3A54605  26.994  16.659   7.133
 4240POPC   C4A54606  26.991  16.861   7.533
 4240POPC   C1B54607  26.551  16.988   6.297
 4240POPC   C2B54608  26.633  17.213   6.686
 4240POPC   C3B54609  26.585  16.965   7.055
 4240POPC   C4B54610  26.419  16.525   7.074
 4241POPC   NC354611  28.132  36.447   5.138
 4241POPC   PO454612  28.433  36.942   5.464
 4241POPC   GL154613  28.352  36.737   5.833
 4241POPC   GL254614  28.220  37.021   5.994
 4241POPC   C1A54615  28.530  36.618   6.238
 4241POPC   D2A54616  28.500  36.882   6.600
 4241POPC   C3A54617  28.492  36.814   7.040
 4241POPC   C4A54618  28.653  37.201   7.208
 4241POPC   C1B54619  28.011  36.664   6.247
 4241POPC   C2B54620  28.104  36.573   6.700
 4241POPC   C3B54621  28.017  36.979   6.910
 4241POPC   C4B54622  28.141  37.200   7.293
 4242POPC   NC354623   6.908   3.470   5.329
 4242POPC   PO454624   7.591   3.391   5.374
 4242POPC   GL154625   7.434   3.526   5.762
 4242POPC   GL254626   7.744   3.643   5.855
 4242POPC   C1A54627   7.309   3.744   6.148
 4242POPC   D2A54628   7.162   3.559   6.522
 4242POPC   C3A54629   7.302   3.551   6.932
 4242POPC   C4A54630   7.303   3.621   7.360
 4242POPC   C1B54631   7.718   3.416   6.266
 4242POPC   C2B54632   7.750   3.554   6.700
 4242POPC   C3B54633   7.757   3.675   7.143
 4242POPC   C4B54634   7.681   3.858   7.597
 4243POPC   NC354635  43.262  24.299   5.524
 4243POPC   PO454636  43.567  24.968   5.468
 4243POPC   GL154637  43.301  24.695   5.828
 4243POPC   GL254638  42.927  24.566   5.840
 4243POPC   C1A54639  43.198  24.541   6.269
 4243POPC   D2A54640  43.169  24.228   6.608
 4243POPC   C3A54641  43.270  24.445   6.975
 4243POPC   C4A54642  43.088  24.694   7.240
 4243POPC   C1B54643  42.791  24.207   6.151
 4243POPC   C2B54644  42.670  24.101   6.603
 4243POPC   C3B54645  42.799  24.229   7.035
 4243POPC   C4B54646  43.035  24.242   7.422
 4244POPC   NC354647  42.819  33.967   5.428
 4244POPC   PO454648  43.270  33.556   5.323
 4244POPC   GL154649  43.045  33.588   5.738
 4244POPC   GL254650  42.883  33.887   5.928
 4244POPC   C1A54651  42.980  33.444   6.166
 4244POPC   D2A54652  43.241  33.594   6.508
 4244POPC   C3A54653  43.161  33.937   6.783
 4244POPC   C4A54654  43.088  33.771   7.198
 4244POPC   C1B54655  42.828  33.906   6.387
 4244POPC   C2B54656  42.706  33.687   6.804
 4244POPC   C3B54657  42.591  33.898   7.232
 4244POPC   C4B54658  42.874  34.011   7.603
 4245POPC   NC354659  14.844   8.414   5.265
 4245POPC   PO454660  15.435   8.143   5.328
 4245POPC   GL154661  15.211   7.995   5.715
 4245POPC   GL254662  15.518   7.874   5.901
 4245POPC   C1A54663  15.029   8.057   6.130
 4245POPC   D2A54664  14.989   7.986   6.581
 4245POPC   C3A54665  14.944   8.387   6.818
 4245POPC   C4A54666  15.049   8.281   7.182
 4245POPC   C1B54667  15.537   8.265   6.107
 4245POPC   C2B54668  15.321   8.353   6.468
 4245POPC   C3B54669  15.452   8.231   6.889
 4245POPC   C4B54670  15.534   8.398   7.323
 4246POPC   NC354671  36.407  21.458   5.402
 4246POPC   PO454672  35.703  21.314   5.419
 4246POPC   GL154673  35.855  21.384   5.848
 4246POPC   GL254674  36.179  21.509   5.840
 4246POPC   C1A54675  36.076  21.210   6.235
 4246POPC   D2A54676  36.312  21.242   6.615
 4246POPC   C3A54677  36.023  21.251   6.986
 4246POPC   C4A54678  35.900  21.154   7.430
 4246POPC   C1B54679  36.464  21.563   6.186
 4246POPC   C2B54680  36.488  21.724   6.603
 4246POPC   C3B54681  36.432  21.556   7.008
 4246POPC   C4B54682  36.189  21.552   7.388
 4247POPC   NC354683  25.832  39.760   5.414
 4247POPC   PO454684  26.277  40.216   5.286
 4247POPC   GL154685  26.271  40.209   5.754
 4247POPC   GL254686  26.185  39.847   5.864
 4247POPC   C1A54687  26.167  40.257   6.197
 4247POPC   D2A54688  25.950  40.045   6.542
 4247POPC   C3A54689  26.247  39.885   6.830
 4247POPC   C4A54690  26.500  40.222   7.064
 4247POPC   C1B54691  25.843  39.674   6.165
 4247POPC   C2B54692  25.626  39.663   6.602
 4247POPC   C3B54693  25.811  39.692   7.035
 4247POPC   C4B54694  26.059  40.005   7.279
 4248POPC   NC354695  36.012   0.276   5.364
 4248POPC   PO454696  36.577   0.161   5.739
 4248POPC   GL154697  36.151   0.196   5.910
 4248POPC   GL254698  36.033   0.506   5.827
 4248POPC   C1A54699  36.099   0.148   6.364
 4248POPC   D2A54700  36.453   0.356   6.607
 4248POPC   C3A54701  36.363   0.385   7.034
 4248POPC   C4A54702  35.951   0.274   7.204
 4248POPC   C1B54703  36.177   0.638   6.253
 4248POPC   C2B54704  36.035   0.636   6.711
 4248POPC   C3B54705  36.068   0.771   7.139
 4248POPC   C4B54706  36.021   0.681   7.586
 4249POPC   NC354707  23.602  29.816   5.135
 4249POPC   PO454708  24.043  30.090   5.510
 4249POPC   GL154709  23.832  29.936   5.863
 4249POPC   GL254710  23.487  29.798   5.792
 4249POPC   C1A54711  23.892  29.876   6.295
 4249POPC   D2A54712  23.643  29.672   6.622
 4249POPC   C3A54713  23.683  29.788   7.054
 4249POPC   C4A54714  23.927  30.058   7.267
 4249POPC   C1B54715  23.371  29.970   6.221
 4249POPC   C2B54716  23.292  30.306   6.538
 4249POPC   C3B54717  23.340  30.216   6.959
 4249POPC   C4B54718  23.245  30.001   7.328
 4250POPC   NC354719  44.444   2.130   5.144
 4250POPC   PO454720   0.017   1.959   5.341
 4250POPC   GL154721  44.669   1.938   5.692
 4250POPC   GL254722  44.363   2.155   5.753
 4250POPC   C1A54723  44.749   1.962   6.177
 4250POPC   D2A54724  44.912   1.745   6.594
 4250POPC   C3A54725  44.766   1.893   7.017
 4250POPC   C4A54726  44.926   2.214   7.285
 4250POPC   C1B54727  44.304   2.204   6.245
 4250POPC   C2B54728  44.235   2.214   6.714
 4250POPC   C3B54729  44.371   2.221   7.144
 4250POPC   C4B54730  44.511   2.184   7.589
 4251POPC   NC354731  32.167  32.064   5.377
 4251POPC   PO454732  32.711  32.511   5.562
 4251POPC   GL154733  32.357  32.350   5.802
 4251POPC   GL254734  31.972  32.355   5.737
 4251POPC   C1A54735  32.328  32.355   6.237
 4251POPC   D2A54736  32.376  32.465   6.641
 4251POPC   C3A54737  32.560  32.179   6.943
 4251POPC   C4A54738  32.358  32.317   7.284
 4251POPC   C1B54739  31.851  32.232   6.148
 4251POPC   C2B54740  31.862  32.448   6.552
 4251POPC   C3B54741  31.961  32.303   6.961
 4251POPC   C4B54742  31.911  32.036   7.342
 4252POPC   NC354743  43.475  22.373   5.597
 4252POPC   PO454744  42.932  22.044   5.382
 4252POPC   GL154745  43.101  22.042   5.774
 4252POPC   GL254746  42.929  21.773   5.885
 4252POPC   C1A54747  43.073  22.219   6.178
 4252POPC   D2A54748  43.324  22.206   6.523
 4252POPC   C3A54749  43.114  22.298   6.904
 4252POPC   C4A54750  43.355  22.437   7.243
 4252POPC   C1B54751  43.125  21.701   6.255
 4252POPC   C2B54752  43.352  21.664   6.623
 4252POPC   C3B54753  43.174  21.667   7.010
 4252POPC   C4B54754  43.011  21.967   7.287
 4253POPC   NC354755  36.196  14.710   5.357
 4253POPC   PO454756  36.449  14.117   5.232
 4253POPC   GL154757  36.491  14.209   5.697
 4253POPC   GL254758  36.166  14.305   5.716
 4253POPC   C1A54759  36.438  14.403   6.127
 4253POPC   D2A54760  36.389  14.713   6.426
 4253POPC   C3A54761  36.394  14.494   6.794
 4253POPC   C4A54762  36.365  14.450   7.207
 4253POPC   C1B54763  35.948  14.491   6.083
 4253POPC   C2B54764  35.968  14.400   6.527
 4253POPC   C3B54765  35.908  14.374   6.966
 4253POPC   C4B54766  35.734  14.047   7.186
 4254POPC   NC354767  14.643  37.392   5.577
 4254POPC   PO454768  15.267  37.571   5.413
 4254POPC   GL154769  15.126  37.505   5.806
 4254POPC   GL254770  14.945  37.810   5.751
 4254POPC   C1A54771  15.302  37.520   6.233
 4254POPC   D2A54772  15.538  37.634   6.614
 4254POPC   C3A54773  15.264  37.500   6.936
 4254POPC   C4A54774  15.331  37.355   7.322
 4254POPC   C1B54775  14.954  37.910   6.161
 4254POPC   C2B54776  15.018  37.815   6.573
 4254POPC   C3B54777  15.176  37.997   6.912
 4254POPC   C4B54778  15.053  37.801   7.299
 4255POPC   NC354779  27.936  14.734   5.436
 4255POPC   PO454780  27.405  15.165   5.530
 4255POPC   GL154781  27.588  15.040   5.912
 4255POPC   GL254782  27.831  15.314   6.013
 4255POPC   C1A54783  27.469  15.128   6.344
 4255POPC   D2A54784  27.721  15.379   6.637
 4255POPC   C3A54785  27.709  15.249   7.084
 4255POPC   C4A54786  27.480  14.982   7.412
 4255POPC   C1B54787  27.934  14.966   6.303
 4255POPC   C2B54788  27.750  14.862   6.712
 4255POPC   C3B54789  27.840  14.724   7.141
 4255POPC   C4B54790  27.974  14.903   7.549
 4256POPC   NC354791   5.617  19.828   5.469
 4256POPC   PO454792   6.243  19.456   5.629
 4256POPC   GL154793   5.921  19.710   5.860
 4256POPC   GL254794   5.509  19.655   5.924
 4256POPC   C1A54795   6.136  19.866   6.220
 4256POPC   D2A54796   6.289  20.028   6.597
 4256POPC   C3A54797   6.185  19.750   6.883
 4256POPC   C4A54798   6.118  19.611   7.267
 4256POPC   C1B54799   5.622  19.996   6.189
 4256POPC   C2B54800   5.772  19.984   6.607
 4256POPC   C3B54801   5.692  19.830   7.021
 4256POPC   C4B54802   5.694  19.835   7.462
 4257POPC   NC354803  35.469   7.670   5.446
 4257POPC   PO454804  34.827   7.500   5.613
 4257POPC   GL154805  35.192   7.433   5.836
 4257POPC   GL254806  35.171   7.778   5.909
 4257POPC   C1A54807  35.350   7.195   6.205
 4257POPC   D2A54808  35.446   7.401   6.611
 4257POPC   C3A54809  35.459   7.201   7.005
 4257POPC   C4A54810  35.425   7.263   7.448
 4257POPC   C1B54811  35.498   7.694   6.168
 4257POPC   C2B54812  35.584   7.894   6.523
 4257POPC   C3B54813  35.284   7.858   6.856
 4257POPC   C4B54814  35.546   7.688   7.148
 4258POPC   NC354815  39.738  43.407   5.579
 4258POPC   PO454816  39.705  42.848   5.199
 4258POPC   GL154817  39.962  42.967   5.630
 4258POPC   GL254818  40.289  43.101   5.743
 4258POPC   C1A54819  39.925  43.138   6.108
 4258POPC   D2A54820  39.904  43.014   6.514
 4258POPC   C3A54821  39.930  43.321   6.811
 4258POPC   C4A54822  39.791  43.207   7.207
 4258POPC   C1B54823  40.343  42.883   6.180
 4258POPC   C2B54824  40.324  42.739   6.629
 4258POPC   C3B54825  40.262  42.999   7.039
 4258POPC   C4B54826  40.196  43.141   7.487
 4259POPC   NC354827  33.068  29.597   5.413
 4259POPC   PO454828  32.681  28.971   5.276
 4259POPC   GL154829  32.697  29.236   5.650
 4259POPC   GL254830  33.037  29.152   5.770
 4259POPC   C1A54831  32.641  29.205   6.106
 4259POPC   D2A54832  32.911  29.161   6.484
 4259POPC   C3A54833  32.729  29.276   6.897
 4259POPC   C4A54834  32.989  29.196   7.262
 4259POPC   C1B54835  33.351  29.313   6.094
 4259POPC   C2B54836  33.448  29.294   6.544
 4259POPC   C3B54837  33.224  29.464   6.891
 4259POPC   C4B54838  33.350  29.521   7.307
 4260POPC   NC354839  19.431   8.278   5.136
 4260POPC   PO454840  19.907   8.510   5.605
 4260POPC   GL154841  19.844   8.157   5.828
 4260POPC   GL254842  20.178   8.002   5.813
 4260POPC   C1A54843  19.682   8.225   6.219
 4260POPC   D2A54844  19.920   8.138   6.557
 4260POPC   C3A54845  19.813   8.346   6.943
 4260POPC   C4A54846  19.737   8.152   7.335
 4260POPC   C1B54847  20.365   8.113   6.212
 4260POPC   C2B54848  20.427   7.955   6.612
 4260POPC   C3B54849  20.165   7.930   6.940
 4260POPC   C4B54850  20.223   8.013   7.323
 4261POPC   NC354851   5.026  40.124   5.521
 4261POPC   PO454852   4.666  39.589   5.248
 4261POPC   GL154853   4.787  39.737   5.714
 4261POPC   GL254854   5.138  39.842   5.907
 4261POPC   C1A54855   4.707  39.923   6.161
 4261POPC   D2A54856   4.769  39.785   6.597
 4261POPC   C3A54857   4.832  40.002   7.003
 4261POPC   C4A54858   4.926  40.009   7.418
 4261POPC   C1B54859   5.183  40.121   6.270
 4261POPC   C2B54860   5.242  40.001   6.688
 4261POPC   C3B54861   5.335  40.087   7.098
 4261POPC   C4B54862   5.517  40.373   7.407
 4262POPC   NC354863  44.399   5.281   4.973
 4262POPC   PO454864  44.775   5.161   5.540
 4262POPC   GL154865  44.547   5.030   5.870
 4262POPC   GL254866  44.766   5.254   6.071
 4262POPC   C1A54867  44.460   4.863   6.270
 4262POPC   D2A54868  44.632   5.108   6.596
 4262POPC   C3A54869  44.483   5.051   6.980
 4262POPC   C4A54870  44.833   5.146   7.224
 4262POPC   C1B54871  44.383   5.393   6.259
 4262POPC   C2B54872  44.146   5.372   6.637
 4262POPC   C3B54873  44.247   5.517   7.030
 4262POPC   C4B54874  44.632   5.621   7.207
 4263POPC   NC354875  37.912  18.486   5.465
 4263POPC   PO454876  37.453  17.988   5.385
 4263POPC   GL154877  37.534  18.253   5.744
 4263POPC   GL254878  37.889  18.178   5.868
 4263POPC   C1A54879  37.458  18.132   6.143
 4263POPC   D2A54880  37.674  17.977   6.486
 4263POPC   C3A54881  37.384  18.005   6.821
 4263POPC   C4A54882  37.405  18.281   7.178
 4263POPC   C1B54883  37.746  18.519   6.186
 4263POPC   C2B54884  37.635  18.481   6.631
 4263POPC   C3B54885  37.880  18.446   7.013
 4263POPC   C4B54886  37.844  18.629   7.428
 4264POPC   NC354887  22.955  32.376   5.096
 4264POPC   PO454888  22.705  31.808   5.385
 4264POPC   GL154889  22.885  32.064   5.695
 4264POPC   GL254890  22.773  32.414   5.676
 4264POPC   C1A54891  23.087  32.173   6.071
 4264POPC   D2A54892  23.287  32.159   6.453
 4264POPC   C3A54893  23.066  32.238   6.805
 4264POPC   C4A54894  23.197  32.060   7.178
 4264POPC   C1B54895  22.591  32.295   6.100
 4264POPC   C2B54896  22.586  32.458   6.538
 4264POPC   C3B54897  22.777  32.673   6.849
 4264POPC   C4B54898  22.879  32.463   7.216
 4265POPC   NC354899  42.098   5.936   5.571
 4265POPC   PO454900  42.711   5.774   5.382
 4265POPC   GL154901  42.587   5.844   5.839
 4265POPC   GL254902  42.317   5.629   5.955
 4265POPC   C1A54903  42.603   5.858   6.329
 4265POPC   D2A54904  42.400   5.669   6.682
 4265POPC   C3A54905  42.356   5.930   7.047
 4265POPC   C4A54906  42.736   6.163   7.232
 4265POPC   C1B54907  42.090   5.906   6.307
 4265POPC   C2B54908  41.909   5.844   6.714
 4265POPC   C3B54909  42.043   5.511   7.023
 4265POPC   C4B54910  42.067   5.594   7.468
 4266POPC   NC354911  33.976  41.594   5.464
 4266POPC   PO454912  33.368  41.252   5.459
 4266POPC   GL154913  33.584  41.442   5.826
 4266POPC   GL254914  33.975  41.431   5.931
 4266POPC   C1A54915  33.462  41.622   6.230
 4266POPC   D2A54916  33.621  41.545   6.617
 4266POPC   C3A54917  33.769  41.753   6.943
 4266POPC   C4A54918  33.529  41.572   7.267
 4266POPC   C1B54919  34.166  41.749   6.183
 4266POPC   C2B54920  34.199  41.858   6.616
 4266POPC   C3B54921  34.285  41.617   6.944
 4266POPC   C4B54922  34.158  41.538   7.322
 4267POPC   NC354923  41.250  13.953   5.089
 4267POPC   PO454924  40.683  13.934   5.357
 4267POPC   GL154925  40.743  13.678   5.720
 4267POPC   GL254926  40.428  13.514   5.802
 4267POPC   C1A54927  40.847  13.545   6.160
 4267POPC   D2A54928  40.938  13.703   6.585
 4267POPC   C3A54929  40.857  13.453   6.967
 4267POPC   C4A54930  41.045  13.407   7.392
 4267POPC   C1B54931  40.454  13.903   6.067
 4267POPC   C2B54932  40.498  14.032   6.498
 4267POPC   C3B54933  40.676  14.034   6.897
 4267POPC   C4B54934  40.704  13.819   7.291
 4268POPC   NC354935  12.953  41.338   5.354
 4268POPC   PO454936  12.528  41.778   5.410
 4268POPC   GL154937  12.573  41.545   5.839
 4268POPC   GL254938  12.919  41.396   5.860
 4268POPC   C1A54939  12.502  41.613   6.312
 4268POPC   D2A54940  12.600  41.906   6.684
 4268POPC   C3A54941  12.854  41.779   7.057
 4268POPC   C4A54942  13.313  41.764   7.182
 4268POPC   C1B54943  12.860  41.214   6.257
 4268POPC   C2B54944  12.812  41.408   6.669
 4268POPC   C3B54945  12.808  41.263   7.063
 4268POPC   C4B54946  13.092  41.312   7.329
 4269POPC   NC354947  10.133  16.188   5.503
 4269POPC   PO454948  10.798  16.014   5.505
 4269POPC   GL154949  10.481  15.962   5.792
 4269POPC   GL254950  10.482  16.332   5.831
 4269POPC   C1A54951  10.399  15.838   6.217
 4269POPC   D2A54952  10.621  15.634   6.561
 4269POPC   C3A54953  10.496  15.707   6.994
 4269POPC   C4A54954  10.539  16.129   7.168
 4269POPC   C1B54955  10.209  16.352   6.172
 4269POPC   C2B54956  10.330  16.202   6.590
 4269POPC   C3B54957  10.095  16.012   6.912
 4269POPC   C4B54958  10.061  16.232   7.305
 4270POPC   NC354959   2.609  31.213   5.455
 4270POPC   PO454960   2.687  31.895   5.290
 4270POPC   GL154961   2.777  31.647   5.727
 4270POPC   GL254962   2.555  31.424   5.918
 4270POPC   C1A54963   2.959  31.602   6.161
 4270POPC   D2A54964   2.895  31.464   6.555
 4270POPC   C3A54965   3.136  31.587   6.891
 4270POPC   C4A54966   3.158  31.389   7.270
 4270POPC   C1B54967   2.491  31.230   6.328
 4270POPC   C2B54968   2.388  31.372   6.727
 4270POPC   C3B54969   2.712  31.305   7.012
 4270POPC   C4B54970   2.681  31.093   7.350
 4271POPC   NC354971   7.202  24.471   5.423
 4271POPC   PO454972   6.529  24.430   5.362
 4271POPC   GL154973   6.667  24.532   5.783
 4271POPC   GL254974   6.945  24.776   5.783
 4271POPC   C1A54975   6.488  24.484   6.193
 4271POPC   D2A54976   6.639  24.206   6.529
 4271POPC   C3A54977   6.630  24.440   6.919
 4271POPC   C4A54978   6.747  24.849   7.083
 4271POPC   C1B54979   6.996  24.551   6.191
 4271POPC   C2B54980   7.119  24.404   6.608
 4271POPC   C3B54981   7.131  24.471   7.058
 4271POPC   C4B54982   6.898  24.489   7.440
 4272POPC   NC354983  14.912  41.250   5.519
 4272POPC   PO454984  14.895  41.901   5.241
 4272POPC   GL154985  15.076  41.693   5.689
 4272POPC   GL254986  15.331  41.448   5.725
 4272POPC   C1A54987  15.055  41.647   6.143
 4272POPC   D2A54988  15.172  41.911   6.502
 4272POPC   C3A54989  15.009  41.712   6.893
 4272POPC   C4A54990  14.721  41.704   7.257
 4272POPC   C1B54991  15.379  41.234   6.141
 4272POPC   C2B54992  15.381  41.441   6.560
 4272POPC   C3B54993  15.385  41.380   7.001
 4272POPC   C4B54994  15.111  41.389   7.318
 4273POPC   NC354995   7.983  39.380   5.585
 4273POPC   PO454996   8.496  39.009   5.433
 4273POPC   GL154997   8.409  38.977   5.867
 4273POPC   GL254998   8.058  38.856   5.912
 4273POPC   C1A54999   8.559  39.149   6.241
 4273POPC   D2A55000   8.412  39.394   6.588
 4273POPC   C3A55001   8.507  39.218   7.007
 4273POPC   C4A55002   8.253  38.922   7.221
 4273POPC   C1B55003   8.005  38.834   6.381
 4273POPC   C2B55004   8.049  39.080   6.789
 4273POPC   C3B55005   8.058  39.409   7.154
 4273POPC   C4B55006   7.925  39.194   7.530
 4274POPC   NC355007  33.291  43.277   5.546
 4274POPC   PO455008  32.836  42.859   5.288
 4274POPC   GL155009  32.869  42.992   5.719
 4274POPC   GL255010  33.142  42.910   5.913
 4274POPC   C1A55011  32.667  43.144   6.096
 4274POPC   D2A55012  32.862  43.019   6.463
 4274POPC   C3A55013  32.731  43.117   6.889
 4274POPC   C4A55014  32.895  42.938   7.241
 4274POPC   C1B55015  33.364  42.911   6.309
 4274POPC   C2B55016  33.249  42.839   6.751
 4274POPC   C3B55017  33.401  43.055   7.111
 4274POPC   C4B55018  33.321  42.934   7.504
 4275POPC   NC355019  17.158  32.759   5.522
 4275POPC   PO455020  17.800  32.823   5.442
 4275POPC   GL155021  17.525  33.099   5.717
 4275POPC   GL255022  17.466  32.815   5.934
 4275POPC   C1A55023  17.407  33.302   6.141
 4275POPC   D2A55024  17.514  33.126   6.575
 4275POPC   C3A55025  17.330  33.274   6.989
 4275POPC   C4A55026  17.511  33.339   7.403
 4275POPC   C1B55027  17.854  32.868   6.193
 4275POPC   C2B55028  17.894  32.740   6.627
 4275POPC   C3B55029  17.757  32.882   7.034
 4275POPC   C4B55030  17.878  32.653   7.419
 4276POPC   NC355031   9.613  27.958   5.374
 4276POPC   PO455032  10.091  27.523   5.396
 4276POPC   GL155033   9.903  27.432   5.770
 4276POPC   GL255034   9.567  27.627   5.804
 4276POPC   C1A55035   9.942  27.634   6.158
 4276POPC   D2A55036   9.713  27.624   6.494
 4276POPC   C3A55037   9.929  27.577   6.830
 4276POPC   C4A55038   9.856  27.633   7.198
 4276POPC   C1B55039   9.586  27.998   6.093
 4276POPC   C2B55040   9.654  28.129   6.526
 4276POPC   C3B55041   9.525  27.915   6.884
 4276POPC   C4B55042   9.345  27.757   7.212
 4277POPC   NC355043  42.398  42.767   5.372
 4277POPC   PO455044  42.309  42.118   5.506
 4277POPC   GL155045  42.229  42.430   5.822
 4277POPC   GL255046  42.577  42.486   5.877
 4277POPC   C1A55047  42.153  42.404   6.286
 4277POPC   D2A55048  42.339  42.165   6.637
 4277POPC   C3A55049  42.079  42.024   6.970
 4277POPC   C4A55050  41.953  42.229   7.327
 4277POPC   C1B55051  42.620  42.713   6.265
 4277POPC   C2B55052  42.439  42.741   6.676
 4277POPC   C3B55053  42.319  42.502   7.050
 4277POPC   C4B55054  42.631  42.187   7.227
 4278POPC   NC355055   6.779  25.713   5.369
 4278POPC   PO455056   6.305  26.150   5.465
 4278POPC   GL155057   6.527  25.902   5.781
 4278POPC   GL255058   6.611  26.188   5.945
 4278POPC   C1A55059   6.767  25.779   6.189
 4278POPC   D2A55060   6.668  25.960   6.579
 4278POPC   C3A55061   6.879  25.934   6.945
 4278POPC   C4A55062   6.669  25.897   7.380
 4278POPC   C1B55063   6.318  26.431   6.231
 4278POPC   C2B55064   6.339  26.356   6.650
 4278POPC   C3B55065   6.537  26.302   7.031
 4278POPC   C4B55066   6.291  26.417   7.372
 4279POPC   NC355067  27.863   1.020   5.390
 4279POPC   PO455068  27.384   1.509   5.438
 4279POPC   GL155069  27.583   1.369   5.831
 4279POPC   GL255070  27.646   1.006   5.840
 4279POPC   C1A55071  27.505   1.224   6.273
 4279POPC   D2A55072  27.283   1.210   6.645
 4279POPC   C3A55073  27.570   1.212   6.973
 4279POPC   C4A55074  27.562   0.811   7.186
 4279POPC   C1B55075  27.908   0.862   6.178
 4279POPC   C2B55076  27.811   0.891   6.616
 4279POPC   C3B55077  28.018   0.984   6.993
 4279POPC   C4B55078  27.959   1.027   7.454
 4280POPC   NC355079   6.907  21.644   5.376
 4280POPC   PO455080   6.452  21.131   5.486
 4280POPC   GL155081   6.668  21.201   5.851
 4280POPC   GL255082   6.705  21.551   5.840
 4280POPC   C1A55083   6.658  21.079   6.288
 4280POPC   D2A55084   6.640  20.965   6.718
 4280POPC   C3A55085   6.571  21.171   7.113
 4280POPC   C4A55086   6.394  21.550   7.292
 4280POPC   C1B55087   6.691  21.640   6.240
 4280POPC   C2B55088   6.849  21.480   6.601
 4280POPC   C3B55089   6.755  21.653   6.961
 4280POPC   C4B55090   6.907  21.660   7.365
 4281POPC   NC355091  17.395  38.126   5.305
 4281POPC   PO455092  17.520  38.777   5.449
 4281POPC   GL155093  17.539  38.648   5.872
 4281POPC   GL255094  17.777  38.378   5.909
 4281POPC   C1A55095  17.403  38.434   6.262
 4281POPC   D2A55096  17.364  38.227   6.680
 4281POPC   C3A55097  17.189  38.538   6.971
 4281POPC   C4A55098  17.390  38.834   7.306
 4281POPC   C1B55099  18.031  38.146   6.208
 4281POPC   C2B55100  18.195  38.188   6.622
 4281POPC   C3B55101  18.014  38.337   7.012
 4281POPC   C4B55102  17.586  38.319   7.156
 4282POPC   NC355103  13.916  37.970   5.239
 4282POPC   PO455104  14.581  37.809   5.401
 4282POPC   GL155105  14.414  37.816   5.832
 4282POPC   GL255106  14.581  38.139   5.924
 4282POPC   C1A55107  14.286  37.638   6.242
 4282POPC   D2A55108  14.305  37.454   6.653
 4282POPC   C3A55109  14.694  37.531   6.895
 4282POPC   C4A55110  14.452  37.659   7.224
 4282POPC   C1B55111  14.393  38.128   6.296
 4282POPC   C2B55112  14.492  37.945   6.669
 4282POPC   C3B55113  14.693  38.059   7.008
 4282POPC   C4B55114  14.600  38.082   7.426
 4283POPC   NC355115  14.403  21.705   5.391
 4283POPC   PO455116  14.091  22.345   5.302
 4283POPC   GL155117  14.392  22.188   5.648
 4283POPC   GL255118  14.142  21.984   5.777
 4283POPC   C1A55119  14.530  22.085   6.105
 4283POPC   D2A55120  14.676  22.267   6.511
 4283POPC   C3A55121  14.559  22.143   6.946
 4283POPC   C4A55122  14.658  22.079   7.401
 4283POPC   C1B55123  13.997  22.026   6.198
 4283POPC   C2B55124  14.243  21.926   6.563
 4283POPC   C3B55125  14.091  21.934   6.984
 4283POPC   C4B55126  14.165  22.162   7.345
 4284POPC   NC355127  37.670  26.448   5.442
 4284POPC   PO455128  37.990  25.842   5.321
 4284POPC   GL155129  37.760  25.984   5.705
 4284POPC   GL255130  38.015  26.195   5.825
 4284POPC   C1A55131  37.557  26.005   6.149
 4284POPC   D2A55132  37.671  25.846   6.585
 4284POPC   C3A55133  37.420  25.895   6.964
 4284POPC   C4A55134  37.361  26.291   7.182
 4284POPC   C1B55135  38.075  25.954   6.197
 4284POPC   C2B55136  38.177  26.098   6.597
 4284POPC   C3B55137  38.124  26.008   6.987
 4284POPC   C4B55138  37.825  26.118   7.224
 4285POPC   NC355139  26.541  25.016   5.275
 4285POPC   PO455140  26.899  25.573   5.312
 4285POPC   GL155141  26.832  25.333   5.755
 4285POPC   GL255142  26.722  24.973   5.768
 4285POPC   C1A55143  27.007  25.266   6.224
 4285POPC   D2A55144  27.200  25.404   6.633
 4285POPC   C3A55145  26.958  25.400   6.987
 4285POPC   C4A55146  27.069  25.023   7.118
 4285POPC   C1B55147  26.535  25.088   6.170
 4285POPC   C2B55148  26.554  25.259   6.601
 4285POPC   C3B55149  26.421  25.332   7.031
 4285POPC   C4B55150  26.463  25.367   7.498
 4286POPC   NC355151  40.932  32.419   5.689
 4286POPC   PO455152  40.290  32.324   5.579
 4286POPC   GL155153  40.463  32.062   5.898
 4286POPC   GL255154  40.789  31.905   5.873
 4286POPC   C1A55155  40.640  32.194   6.283
 4286POPC   D2A55156  40.672  32.484   6.603
 4286POPC   C3A55157  40.656  32.255   6.964
 4286POPC   C4A55158  40.501  32.396   7.329
 4286POPC   C1B55159  41.122  31.966   6.222
 4286POPC   C2B55160  41.013  32.020   6.624
 4286POPC   C3B55161  41.126  32.019   7.020
 4286POPC   C4B55162  41.007  32.309   7.342
 4287POPC   NC355163   0.356  25.776   5.581
 4287POPC   PO455164   0.889  25.849   5.215
 4287POPC   GL155165   0.726  26.131   5.643
 4287POPC   GL255166   0.461  26.375   5.782
 4287POPC   C1A55167   0.662  26.141   6.159
 4287POPC   D2A55168   0.417  26.052   6.548
 4287POPC   C3A55169   0.741  25.965   6.860
 4287POPC   C4A55170   0.772  25.862   7.296
 4287POPC   C1B55171   0.159  26.336   6.121
 4287POPC   C2B55172  44.988  26.399   6.512
 4287POPC   C3B55173   0.047  26.212   6.914
 4287POPC   C4B55174   0.385  26.163   7.193
 4288POPC   NC355175  20.829  31.180   5.486
 4288POPC   PO455176  20.466  31.823   5.499
 4288POPC   GL155177  20.375  31.613   5.878
 4288POPC   GL255178  20.655  31.393   5.901
 4288POPC   C1A55179  20.519  31.633   6.323
 4288POPC   D2A55180  20.508  31.822   6.711
 4288POPC   C3A55181  20.656  31.600   7.065
 4288POPC   C4A55182  20.629  31.721   7.490
 4288POPC   C1B55183  20.777  31.132   6.252
 4288POPC   C2B55184  20.720  31.139   6.681
 4288POPC   C3B55185  20.973  31.208   6.995
 4288POPC   C4B55186  20.930  31.253   7.418
 4289POPC   NC355187  19.188  11.664   5.659
 4289POPC   PO455188  19.074  12.247   5.374
 4289POPC   GL155189  18.792  12.282   5.711
 4289POPC   GL255190  19.068  12.134   5.892
 4289POPC   C1A55191  18.730  12.376   6.179
 4289POPC   D2A55192  19.037  12.358   6.548
 4289POPC   C3A55193  18.931  12.153   6.965
 4289POPC   C4A55194  18.769  11.838   7.270
 4289POPC   C1B55195  19.015  11.908   6.263
 4289POPC   C2B55196  19.246  11.875   6.628
 4289POPC   C3B55197  19.160  11.684   6.986
 4289POPC   C4B55198  19.263  11.914   7.332
 4290POPC   NC355199  32.799  12.913   5.391
 4290POPC   PO455200  33.409  13.166   5.416
 4290POPC   GL155201  33.188  12.992   5.806
 4290POPC   GL255202  33.094  12.635   5.835
 4290POPC   C1A55203  32.934  12.936   6.210
 4290POPC   D2A55204  32.859  13.094   6.608
 4290POPC   C3A55205  32.994  12.926   6.985
 4290POPC   C4A55206  32.979  13.056   7.402
 4290POPC   C1B55207  32.925  12.425   6.210
 4290POPC   C2B55208  32.948  12.566   6.613
 4290POPC   C3B55209  33.141  12.438   6.973
 4290POPC   C4B55210  33.230  12.608   7.344
 4291POPC   NC355211  16.274  32.434   5.634
 4291POPC   PO455212  15.849  32.049   5.375
 4291POPC   GL155213  15.808  32.133   5.832
 4291POPC   GL255214  16.001  32.387   6.067
 4291POPC   C1A55215  15.842  31.958   6.249
 4291POPC   D2A55216  15.886  32.245   6.585
 4291POPC   C3A55217  15.804  32.063   6.939
 4291POPC   C4A55218  15.699  31.975   7.318
 4291POPC   C1B55219  16.332  32.206   6.328
 4291POPC   C2B55220  16.365  32.176   6.782
 4291POPC   C3B55221  16.166  32.408   7.145
 4291POPC   C4B55222  16.291  32.499   7.628
 4292POPC   NC355223  42.625  32.646   5.562
 4292POPC   PO455224  42.193  32.138   5.422
 4292POPC   GL155225  42.264  32.320   5.807
 4292POPC   GL255226  42.130  32.618   5.768
 4292POPC   C1A55227  42.342  32.220   6.247
 4292POPC   D2A55228  42.190  32.151   6.682
 4292POPC   C3A55229  42.485  32.212   7.017
 4292POPC   C4A55230  42.310  32.294   7.407
 4292POPC   C1B55231  42.281  32.718   6.165
 4292POPC   C2B55232  42.406  32.626   6.579
 4292POPC   C3B55233  42.250  32.649   6.978
 4292POPC   C4B55234  42.524  32.737   7.300
 4293POPC   NC355235   6.086   3.129   5.326
 4293POPC   PO455236   5.798   2.569   5.395
 4293POPC   GL155237   5.825   2.755   5.769
 4293POPC   GL255238   5.673   3.013   5.657
 4293POPC   C1A55239   5.879   2.673   6.195
 4293POPC   D2A55240   6.213   2.736   6.501
 4293POPC   C3A55241   6.015   2.820   6.881
 4293POPC   C4A55242   5.776   2.782   7.254
 4293POPC   C1B55243   5.558   3.086   6.076
 4293POPC   C2B55244   5.619   2.997   6.516
 4293POPC   C3B55245   5.517   3.042   6.920
 4293POPC   C4B55246   5.592   3.250   7.320
 4294POPC   NC355247  29.102  39.541   5.320
 4294POPC   PO455248  29.291  38.951   5.408
 4294POPC   GL155249  29.244  39.205   5.732
 4294POPC   GL255250  28.898  39.142   5.789
 4294POPC   C1A55251  29.469  39.300   6.116
 4294POPC   D2A55252  29.564  39.229   6.558
 4294POPC   C3A55253  29.332  39.448   6.901
 4294POPC   C4A55254  28.853  39.410   7.005
 4294POPC   C1B55255  29.028  39.041   6.185
 4294POPC   C2B55256  29.059  39.183   6.566
 4294POPC   C3B55257  29.212  38.970   6.912
 4294POPC   C4B55258  28.908  38.902   7.185
 4295POPC   NC355259  15.343  19.171   5.314
 4295POPC   PO455260  15.171  19.841   5.296
 4295POPC   GL155261  15.190  19.622   5.697
 4295POPC   GL255262  15.078  19.923   5.852
 4295POPC   C1A55263  15.236  19.536   6.164
 4295POPC   D2A55264  15.170  19.740   6.559
 4295POPC   C3A55265  15.466  19.741   6.906
 4295POPC   C4A55266  15.231  19.663   7.275
 4295POPC   C1B55267  15.380  20.063   6.182
 4295POPC   C2B55268  15.353  20.249   6.620
 4295POPC   C3B55269  15.454  20.255   7.066
 4295POPC   C4B55270  15.389  20.159   7.512
 4296POPC   NC355271   7.998  15.308   5.497
 4296POPC   PO455272   8.650  15.038   5.545
 4296POPC   GL155273   8.407  15.289   5.888
 4296POPC   GL255274   8.137  15.577   5.909
 4296POPC   C1A55275   8.059  15.109   6.180
 4296POPC   D2A55276   7.775  15.058   6.565
 4296POPC   C3A55277   7.961  14.942   6.966
 4296POPC   C4A55278   8.239  14.971   7.311
 4296POPC   C1B55279   7.998  15.573   6.377
 4296POPC   C2B55280   8.071  15.457   6.823
 4296POPC   C3B55281   7.939  15.369   7.251
 4296POPC   C4B55282   8.101  15.450   7.653
 4297POPC   NC355283  11.270  13.122   5.398
 4297POPC   PO455284  11.377  12.464   5.366
 4297POPC   GL155285  11.476  12.759   5.736
 4297POPC   GL255286  11.179  12.913   5.858
 4297POPC   C1A55287  11.540  12.829   6.209
 4297POPC   D2A55288  11.465  12.983   6.643
 4297POPC   C3A55289  11.543  12.701   6.989
 4297POPC   C4A55290  11.348  12.519   7.351
 4297POPC   C1B55291  11.110  13.141   6.226
 4297POPC   C2B55292  10.950  13.035   6.644
 4297POPC   C3B55293  11.059  12.880   7.066
 4297POPC   C4B55294  11.106  13.029   7.493
 4298POPC   NC355295  31.026  27.907   5.401
 4298POPC   PO455296  30.677  27.369   5.629
 4298POPC   GL155297  30.872  27.527   5.947
 4298POPC   GL255298  31.115  27.311   6.091
 4298POPC   C1A55299  30.797  27.657   6.346
 4298POPC   D2A55300  30.845  27.503   6.721
 4298POPC   C3A55301  30.765  27.793   7.042
 4298POPC   C4A55302  30.368  27.843   7.221
 4298POPC   C1B55303  30.728  27.133   6.273
 4298POPC   C2B55304  30.426  27.219   6.602
 4298POPC   C3B55305  30.455  27.324   7.021
 4298POPC   C4B55306  30.868  27.280   7.177
 4299POPC   NC355307  38.089  26.987   5.715
 4299POPC   PO455308  37.592  26.958   5.368
 4299POPC   GL155309  37.513  26.852   5.799
 4299POPC   GL255310  37.768  26.638   5.922
 4299POPC   C1A55311  37.525  27.005   6.233
 4299POPC   D2A55312  37.619  26.838   6.644
 4299POPC   C3A55313  37.363  26.980   6.997
 4299POPC   C4A55314  37.385  26.750   7.388
 4299POPC   C1B55315  37.845  26.416   6.314
 4299POPC   C2B55316  37.730  26.334   6.756
 4299POPC   C3B55317  37.784  26.611   7.105
 4299POPC   C4B55318  37.922  26.684   7.535
 4300POPC   NC355319  32.323   2.849   5.411
 4300POPC   PO455320  31.707   2.658   5.424
 4300POPC   GL155321  31.925   2.843   5.793
 4300POPC   GL255322  32.264   2.674   5.889
 4300POPC   C1A55323  31.957   2.747   6.259
 4300POPC   D2A55324  31.933   2.457   6.615
 4300POPC   C3A55325  32.022   2.658   7.005
 4300POPC   C4A55326  32.265   2.707   7.380
 4300POPC   C1B55327  32.356   2.396   6.270
 4300POPC   C2B55328  32.508   2.320   6.705
 4300POPC   C3B55329  32.392   2.250   7.154
 4300POPC   C4B55330  32.590   2.317   7.581
 4301POPC   NC355331  18.934  35.058   5.552
 4301POPC   PO455332  19.191  35.662   5.644
 4301POPC   GL155333  19.084  35.370   5.955
 4301POPC   GL255334  19.233  35.019   5.971
 4301POPC   C1A55335  18.950  35.516   6.359
 4301POPC   D2A55336  18.767  35.356   6.722
 4301POPC   C3A55337  18.986  35.440   7.101
 4301POPC   C4A55338  18.961  35.441   7.554
 4301POPC   C1B55339  18.892  35.008   6.279
 4301POPC   C2B55340  18.784  34.819   6.674
 4301POPC   C3B55341  18.803  34.942   7.111
 4301POPC   C4B55342  19.148  35.016   7.362
 4302POPC   NC355343  24.306  36.860   5.383
 4302POPC   PO455344  24.796  37.151   5.596
 4302POPC   GL155345  24.580  36.792   5.854
 4302POPC   GL255346  24.243  36.875   5.902
 4302POPC   C1A55347  24.432  36.582   6.255
 4302POPC   D2A55348  24.214  36.756   6.608
 4302POPC   C3A55349  24.354  36.679   7.003
 4302POPC   C4A55350  24.379  36.397   7.307
 4302POPC   C1B55351  24.438  37.094   6.283
 4302POPC   C2B55352  24.587  37.137   6.740
 4302POPC   C3B55353  24.377  37.177   7.139
 4302POPC   C4B55354  23.941  36.982   7.140
 4303POPC   NC355355   7.022  42.606   5.273
 4303POPC   PO455356   6.492  42.258   5.340
 4303POPC   GL155357   6.606  42.385   5.736
 4303POPC   GL255358   6.563  42.746   5.669
 4303POPC   C1A55359   6.786  42.310   6.177
 4303POPC   D2A55360   6.559  42.368   6.593
 4303POPC   C3A55361   6.687  42.287   7.020
 4303POPC   C4A55362   7.117  42.271   7.133
 4303POPC   C1B55363   6.558  42.757   6.120
 4303POPC   C2B55364   6.685  42.856   6.557
 4303POPC   C3B55365   6.848  42.778   6.953
 4303POPC   C4B55366   7.134  42.935   7.239
 4304POPC   NC355367  10.678  18.779   5.289
 4304POPC   PO455368  10.225  19.170   5.521
 4304POPC   GL155369  10.489  18.908   5.781
 4304POPC   GL255370  10.179  18.703   5.824
 4304POPC   C1A55371  10.781  18.981   6.156
 4304POPC   D2A55372  10.734  19.051   6.630
 4304POPC   C3A55373  10.837  19.266   7.060
 4304POPC   C4A55374  10.995  19.251   7.552
 4304POPC   C1B55375  10.338  18.711   6.260
 4304POPC   C2B55376  10.360  18.708   6.706
 4304POPC   C3B55377  10.661  18.764   7.071
 4304POPC   C4B55378  10.556  19.040   7.423
 4305POPC   NC355379  12.888  32.263   5.375
 4305POPC   PO455380  13.376  32.502   5.443
 4305POPC   GL155381  13.145  32.272   5.812
 4305POPC   GL255382  12.774  32.204   5.871
 4305POPC   C1A55383  13.183  32.283   6.257
 4305POPC   D2A55384  12.940  32.377   6.627
 4305POPC   C3A55385  13.058  32.216   7.029
 4305POPC   C4A55386  13.189  31.958   7.360
 4305POPC   C1B55387  12.533  32.278   6.270
 4305POPC   C2B55388  12.447  32.235   6.733
 4305POPC   C3B55389  12.571  32.383   7.171
 4305POPC   C4B55390  12.730  32.675   7.516
 4306POPC   NC355391   6.895   0.216   5.228
 4306POPC   PO455392   7.389   0.594   5.394
 4306POPC   GL155393   7.298   0.516   5.833
 4306POPC   GL255394   7.486   0.229   5.853
 4306POPC   C1A55395   7.292   0.386   6.295
 4306POPC   D2A55396   7.521   0.182   6.619
 4306POPC   C3A55397   7.386   0.301   7.009
 4306POPC   C4A55398   7.052   0.553   7.122
 4306POPC   C1B55399   7.759   0.503   6.092
 4306POPC   C2B55400   7.695   0.695   6.487
 4306POPC   C3B55401   7.671   0.735   6.921
 4306POPC   C4B55402   7.519   0.642   7.348
 4307POPC   NC355403  30.617  25.363   5.411
 4307POPC   PO455404  31.257  25.656   5.199
 4307POPC   GL155405  31.106  25.394   5.661
 4307POPC   GL255406  30.892  25.056   5.717
 4307POPC   C1A55407  30.942  25.379   6.148
 4307POPC   D2A55408  30.667  25.443   6.559
 4307POPC   C3A55409  30.784  25.491   7.038
 4307POPC   C4A55410  30.664  25.485   7.528
 4307POPC   C1B55411  30.559  25.031   6.065
 4307POPC   C2B55412  30.476  24.950   6.520
 4307POPC   C3B55413  30.391  25.166   6.887
 4307POPC   C4B55414  30.494  25.104   7.263
 4308POPC   NC355415  16.899  25.851   5.138
 4308POPC   PO455416  16.368  25.771   5.588
 4308POPC   GL155417  16.787  25.875   5.722
 4308POPC   GL255418  16.868  26.245   5.772
 4308POPC   C1A55419  16.889  25.893   6.155
 4308POPC   D2A55420  16.899  26.122   6.516
 4308POPC   C3A55421  16.614  25.970   6.828
 4308POPC   C4A55422  16.878  25.761   7.118
 4308POPC   C1B55423  16.551  26.305   6.121
 4308POPC   C2B55424  16.466  26.404   6.548
 4308POPC   C3B55425  16.725  26.488   6.867
 4308POPC   C4B55426  16.809  26.270   7.189
 4309POPC   NC355427  18.326  13.172   5.609
 4309POPC   PO455428  18.194  12.567   5.363
 4309POPC   GL155429  18.048  12.777   5.774
 4309POPC   GL255430  17.856  13.115   5.804
 4309POPC   C1A55431  18.242  12.707   6.215
 4309POPC   D2A55432  18.319  12.810   6.653
 4309POPC   C3A55433  18.453  12.631   7.037
 4309POPC   C4A55434  18.543  12.878   7.381
 4309POPC   C1B55435  18.035  13.185   6.232
 4309POPC   C2B55436  17.991  13.209   6.687
 4309POPC   C3B55437  18.062  13.004   7.089
 4309POPC   C4B55438  18.208  13.269   7.416
 4310POPC   NC355439  14.989  39.716   5.487
 4310POPC   PO455440  15.364  40.245   5.420
 4310POPC   GL155441  15.257  40.065   5.813
 4310POPC   GL255442  14.969  40.221   5.886
 4310POPC   C1A55443  15.452  39.969   6.215
 4310POPC   D2A55444  15.575  39.763   6.580
 4310POPC   C3A55445  15.494  39.958   6.986
 4310POPC   C4A55446  15.435  39.789   7.369
 4310POPC   C1B55447  15.022  40.220   6.322
 4310POPC   C2B55448  15.071  39.950   6.694
 4310POPC   C3B55449  14.936  39.961   7.143
 4310POPC   C4B55450  14.740  40.233   7.464
 4311POPC   NC355451  41.257  44.484   5.177
 4311POPC   PO455452  41.864  44.731   5.318
 4311POPC   GL155453  41.619  44.795   5.774
 4311POPC   GL255454  41.234  44.880   5.806
 4311POPC   C1A55455  41.582  44.793   6.261
 4311POPC   D2A55456  41.836  44.797   6.653
 4311POPC   C3A55457  41.655  44.713   7.078
 4311POPC   C4A55458  41.754  44.911   7.477
 4311POPC   C1B55459  41.077  44.812   6.244
 4311POPC   C2B55460  41.252  44.838   6.669
 4311POPC   C3B55461  41.125  44.675   7.047
 4311POPC   C4B55462  41.217  44.861   7.419
 4312POPC   NC355463  43.448   6.605   5.518
 4312POPC   PO455464  43.832   7.108   5.443
 4312POPC   GL155465  44.021   6.859   5.778
 4312POPC   GL255466  43.762   6.630   5.933
 4312POPC   C1A55467  44.223   6.898   6.181
 4312POPC   D2A55468  44.113   7.125   6.563
 4312POPC   C3A55469  44.179   6.864   6.914
 4312POPC   C4A55470  44.182   6.471   7.119
 4312POPC   C1B55471  43.759   6.744   6.361
 4312POPC   C2B55472  43.807   6.533   6.747
 4312POPC   C3B55473  43.681   6.669   7.146
 4312POPC   C4B55474  43.577   6.470   7.532
 4313POPC   NC355475  23.793  20.711   5.443
 4313POPC   PO455476  23.828  20.118   5.605
 4313POPC   GL155477  23.761  20.449   5.922
 4313POPC   GL255478  23.535  20.736   5.883
 4313POPC   C1A55479  23.550  20.436   6.322
 4313POPC   D2A55480  23.626  20.267   6.720
 4313POPC   C3A55481  23.972  20.476   6.849
 4313POPC   C4A55482  24.141  20.665   7.210
 4313POPC   C1B55483  23.398  20.984   6.223
 4313POPC   C2B55484  23.401  21.057   6.665
 4313POPC   C3B55485  23.419  20.673   6.958
 4313POPC   C4B55486  23.385  20.667   7.402
 4314POPC   NC355487  32.811   4.728   5.595
 4314POPC   PO455488  33.202   5.382   5.445
 4314POPC   GL155489  33.348   5.190   5.795
 4314POPC   GL255490  33.039   5.067   5.869
 4314POPC   C1A55491  33.272   5.300   6.229
 4314POPC   D2A55492  33.177   5.175   6.635
 4314POPC   C3A55493  32.886   5.410   6.894
 4314POPC   C4A55494  32.995   5.316   7.317
 4314POPC   C1B55495  32.880   4.882   6.249
 4314POPC   C2B55496  32.692   4.991   6.659
 4314POPC   C3B55497  32.921   4.918   7.035
 4314POPC   C4B55498  32.998   4.804   7.472
 4315POPC   NC355499  30.484  36.563   5.144
 4315POPC   PO455500  30.902  36.910   5.608
 4315POPC   GL155501  30.727  36.842   6.011
 4315POPC   GL255502  30.566  36.512   6.116
 4315POPC   C1A55503  30.980  36.729   6.346
 4315POPC   D2A55504  30.830  36.583   6.688
 4315POPC   C3A55505  30.891  36.781   7.039
 4315POPC   C4A55506  30.936  36.974   7.413
 4315POPC   C1B55507  30.296  36.788   6.324
 4315POPC   C2B55508  30.091  36.601   6.638
 4315POPC   C3B55509  30.385  36.585   6.978
 4315POPC   C4B55510  30.454  36.888   7.284
 4316POPC   NC355511  12.166   5.654   5.094
 4316POPC   PO455512  12.180   6.287   5.378
 4316POPC   GL155513  12.040   6.032   5.755
 4316POPC   GL255514  11.716   6.151   5.932
 4316POPC   C1A55515  12.246   5.714   6.051
 4316POPC   D2A55516  12.179   5.556   6.481
 4316POPC   C3A55517  12.335   5.638   6.901
 4316POPC   C4A55518  12.317   5.975   7.209
 4316POPC   C1B55519  11.768   5.786   6.227
 4316POPC   C2B55520  11.661   5.641   6.661
 4316POPC   C3B55521  11.862   5.715   7.082
 4316POPC   C4B55522  11.949   5.439   7.435
 4317POPC   NC355523   0.957  34.696   5.451
 4317POPC   PO455524   1.474  34.250   5.458
 4317POPC   GL155525   1.435  34.647   5.741
 4317POPC   GL255526   1.127  34.804   5.913
 4317POPC   C1A55527   1.539  34.833   6.173
 4317POPC   D2A55528   1.332  34.839   6.581
 4317POPC   C3A55529   1.599  34.810   6.946
 4317POPC   C4A55530   1.543  34.651   7.368
 4317POPC   C1B55531   1.253  34.402   6.147
 4317POPC   C2B55532   1.259  34.331   6.578
 4317POPC   C3B55533   1.260  34.429   6.977
 4317POPC   C4B55534   1.013  34.491   7.316
 4318POPC   NC355535   2.286  16.904   5.524
 4318POPC   PO455536   1.604  16.596   5.514
 4318POPC   GL155537   1.852  16.827   5.840
 4318POPC   GL255538   2.108  16.558   5.857
 4318POPC   C1A55539   1.905  16.732   6.314
 4318POPC   D2A55540   1.831  16.650   6.762
 4318POPC   C3A55541   1.828  16.570   7.188
 4318POPC   C4A55542   1.909  16.870   7.527
 4318POPC   C1B55543   2.392  16.733   6.173
 4318POPC   C2B55544   2.416  16.849   6.603
 4318POPC   C3B55545   2.242  16.846   7.042
 4318POPC   C4B55546   2.421  16.867   7.468
 4319POPC   NC355547  14.211  23.130   5.371
 4319POPC   PO455548  14.745  22.853   5.607
 4319POPC   GL155549  14.603  22.956   5.954
 4319POPC   GL255550  14.423  22.623   5.964
 4319POPC   C1A55551  14.530  23.005   6.362
 4319POPC   D2A55552  14.267  23.296   6.532
 4319POPC   C3A55553  14.201  23.107   6.905
 4319POPC   C4A55554  14.228  23.107   7.338
 4319POPC   C1B55555  14.245  22.456   6.328
 4319POPC   C2B55556  14.326  22.635   6.705
 4319POPC   C3B55557  14.237  22.624   7.113
 4319POPC   C4B55558  14.475  22.640   7.503
 4320POPC   NC355559  27.381   2.798   5.464
 4320POPC   PO455560  27.845   2.329   5.585
 4320POPC   GL155561  27.768   2.697   5.843
 4320POPC   GL255562  27.923   3.009   5.689
 4320POPC   C1A55563  27.508   2.813   6.212
 4320POPC   D2A55564  27.389   2.579   6.596
 4320POPC   C3A55565  27.377   2.745   7.022
 4320POPC   C4A55566  27.227   2.473   7.365
 4320POPC   C1B55567  27.998   3.070   6.140
 4320POPC   C2B55568  27.866   2.954   6.561
 4320POPC   C3B55569  27.917   2.875   6.994
 4320POPC   C4B55570  27.682   3.066   7.298
 4321POPC   NC355571  18.984  15.464   5.120
 4321POPC   PO455572  19.232  16.103   5.082
 4321POPC   GL155573  19.125  16.163   5.621
 4321POPC   GL255574  19.406  16.019   5.885
 4321POPC   C1A55575  18.941  16.142   6.106
 4321POPC   D2A55576  19.050  16.076   6.591
 4321POPC   C3A55577  18.834  16.197   6.999
 4321POPC   C4A55578  18.865  16.014   7.444
 4321POPC   C1B55579  19.281  15.739   6.253
 4321POPC   C2B55580  19.129  15.524   6.648
 4321POPC   C3B55581  19.021  15.716   7.049
 4321POPC   C4B55582  19.321  16.087   7.127
 4322POPC   NC355583   2.516  37.724   5.225
 4322POPC   PO455584   3.077  37.288   5.264
 4322POPC   GL155585   2.838  37.480   5.657
 4322POPC   GL255586   2.916  37.849   5.795
 4322POPC   C1A55587   2.616  37.525   6.098
 4322POPC   D2A55588   2.694  37.766   6.506
 4322POPC   C3A55589   2.657  37.635   6.960
 4322POPC   C4A55590   2.688  37.669   7.434
 4322POPC   C1B55591   3.066  38.031   6.232
 4322POPC   C2B55592   3.059  38.066   6.714
 4322POPC   C3B55593   2.845  38.066   7.137
 4322POPC   C4B55594   3.083  37.950   7.561
 4323POPC   NC355595   4.701  27.865   5.497
 4323POPC   PO455596   5.011  27.247   5.448
 4323POPC   GL155597   4.998  27.551   5.795
 4323POPC   GL255598   5.317  27.748   5.944
 4323POPC   C1A55599   4.854  27.754   6.139
 4323POPC   D2A55600   5.194  27.727   6.441
 4323POPC   C3A55601   5.152  27.726   6.882
 4323POPC   C4A55602   4.914  27.748   7.265
 4323POPC   C1B55603   5.337  27.325   6.153
 4323POPC   C2B55604   5.355  27.037   6.515
 4323POPC   C3B55605   5.507  27.094   6.955
 4323POPC   C4B55606   5.287  27.384   7.247
 4324POPC   NC355607  42.035  29.342   5.495
 4324POPC   PO455608  41.520  28.884   5.477
 4324POPC   GL155609  41.556  29.049   5.871
 4324POPC   GL255610  41.734  29.360   5.891
 4324POPC   C1A55611  41.353  28.969   6.252
 4324POPC   D2A55612  41.319  29.101   6.664
 4324POPC   C3A55613  41.578  28.930   6.988
 4324POPC   C4A55614  41.441  29.188   7.310
 4324POPC   C1B55615  41.641  29.391   6.304
 4324POPC   C2B55616  41.810  29.194   6.614
 4324POPC   C3B55617  41.977  29.276   6.956
 4324POPC   C4B55618  41.907  29.345   7.337
 4325POPC   NC355619  16.380  13.490   5.498
 4325POPC   PO455620  15.635  13.461   5.373
 4325POPC   GL155621  15.911  13.627   5.712
 4325POPC   GL255622  16.030  13.290   5.831
 4325POPC   C1A55623  16.067  13.713   6.155
 4325POPC   D2A55624  16.151  13.883   6.590
 4325POPC   C3A55625  15.843  13.821   6.916
 4325POPC   C4A55626  15.919  13.601   7.302
 4325POPC   C1B55627  16.263  13.239   6.243
 4325POPC   C2B55628  16.137  13.374   6.650
 4325POPC   C3B55629  16.325  13.436   7.039
 4325POPC   C4B55630  16.345  13.182   7.391
 4326POPC   NC355631  18.712   1.742   5.495
 4326POPC   PO455632  18.149   2.164   5.386
 4326POPC   GL155633  18.281   2.066   5.854
 4326POPC   GL255634  18.553   1.799   5.991
 4326POPC   C1A55635  18.160   1.915   6.289
 4326POPC   D2A55636  18.329   1.845   6.687
 4326POPC   C3A55637  18.409   2.184   6.927
 4326POPC   C4A55638  18.094   2.037   7.206
 4326POPC   C1B55639  18.685   2.063   6.370
 4326POPC   C2B55640  18.856   1.894   6.759
 4326POPC   C3B55641  18.857   1.562   7.048
 4326POPC   C4B55642  18.516   1.762   7.174
 4327POPC   NC355643  34.071   8.267   5.579
 4327POPC   PO455644  33.394   8.154   5.536
 4327POPC   GL155645  33.434   8.031   5.934
 4327POPC   GL255646  33.705   8.301   5.957
 4327POPC   C1A55647  33.389   8.201   6.361
 4327POPC   D2A55648  33.702   8.235   6.664
 4327POPC   C3A55649  33.666   8.203   7.088
 4327POPC   C4A55650  33.303   7.998   7.217
 4327POPC   C1B55651  34.004   8.129   6.278
 4327POPC   C2B55652  34.094   7.903   6.713
 4327POPC   C3B55653  34.150   8.008   7.191
 4327POPC   C4B55654  33.944   8.355   7.509
 4328POPC   NC355655  10.989  36.143   5.425
 4328POPC   PO455656  11.552  35.834   5.438
 4328POPC   GL155657  11.393  36.002   5.893
 4328POPC   GL255658  11.135  36.253   5.920
 4328POPC   C1A55659  11.413  36.135   6.382
 4328POPC   D2A55660  11.508  36.419   6.762
 4328POPC   C3A55661  11.425  36.252   7.185
 4328POPC   C4A55662  11.640  36.233   7.607
 4328POPC   C1B55663  10.945  36.004   6.208
 4328POPC   C2B55664  10.904  36.237   6.584
 4328POPC   C3B55665  10.968  36.097   6.963
 4328POPC   C4B55666  11.015  36.063   7.396
 4329POPC   NC355667  39.575  33.402   5.183
 4329POPC   PO455668  39.224  32.861   5.447
 4329POPC   GL155669  39.144  32.996   5.888
 4329POPC   GL255670  39.040  33.326   5.994
 4329POPC   C1A55671  39.378  32.957   6.300
 4329POPC   D2A55672  39.208  32.820   6.715
 4329POPC   C3A55673  39.386  32.926   7.127
 4329POPC   C4A55674  39.534  32.722   7.509
 4329POPC   C1B55675  38.898  33.100   6.324
 4329POPC   C2B55676  38.884  33.238   6.691
 4329POPC   C3B55677  38.898  33.065   7.061
 4329POPC   C4B55678  39.028  33.244   7.447
 4330POPC   NC355679  44.636  31.567   5.346
 4330POPC   PO455680   0.157  31.831   5.619
 4330POPC   GL155681  44.915  31.461   5.791
 4330POPC   GL255682  44.543  31.432   5.827
 4330POPC   C1A55683  44.897  31.443   6.243
 4330POPC   D2A55684   0.033  31.756   6.553
 4330POPC   C3A55685  44.901  31.656   6.978
 4330POPC   C4A55686  44.980  31.288   7.230
 4330POPC   C1B55687  44.394  31.500   6.235
 4330POPC   C2B55688  44.549  31.301   6.636
 4330POPC   C3B55689  44.495  31.345   7.066
 4330POPC   C4B55690  44.405  31.754   7.226
 4331POPC   NC355691  10.132  17.125   5.502
 4331POPC   PO455692   9.505  16.842   5.350
 4331POPC   GL155693   9.684  16.715   5.793
 4331POPC   GL255694   9.977  16.863   5.931
 4331POPC   C1A55695   9.709  16.556   6.248
 4331POPC   D2A55696   9.580  16.769   6.650
 4331POPC   C3A55697   9.695  16.603   7.069
 4331POPC   C4A55698   9.442  16.584   7.444
 4331POPC   C1B55699  10.005  17.014   6.345
 4331POPC   C2B55700   9.962  17.316   6.677
 4331POPC   C3B55701   9.760  17.131   7.015
 4331POPC   C4B55702   9.728  16.996   7.416
 4332POPC   NC355703  29.089  40.321   5.631
 4332POPC   PO455704  29.465  40.844   5.555
 4332POPC   GL155705  29.254  41.028   5.904
 4332POPC   GL255706  28.899  40.885   5.904
 4332POPC   C1A55707  29.226  40.926   6.337
 4332POPC   D2A55708  29.330  40.578   6.628
 4332POPC   C3A55709  29.373  40.779   7.041
 4332POPC   C4A55710  29.323  40.633   7.482
 4332POPC   C1B55711  28.848  40.621   6.277
 4332POPC   C2B55712  28.858  40.741   6.744
 4332POPC   C3B55713  28.888  40.794   7.195
 4332POPC   C4B55714  28.968  41.071   7.526
 4333POPC   NC355715  11.915  38.668   5.444
 4333POPC   PO455716  12.170  38.024   5.416
 4333POPC   GL155717  12.249  38.140   5.834
 4333POPC   GL255718  12.183  38.490   5.852
 4333POPC   C1A55719  12.298  38.210   6.281
 4333POPC   D2A55720  12.225  38.383   6.695
 4333POPC   C3A55721  11.989  38.200   7.032
 4333POPC   C4A55722  12.324  38.091   7.280
 4333POPC   C1B55723  11.983  38.675   6.213
 4333POPC   C2B55724  11.879  38.776   6.644
 4333POPC   C3B55725  11.983  38.718   7.071
 4333POPC   C4B55726  12.099  38.505   7.469
 4334POPC   NC355727   0.956   5.260   5.469
 4334POPC   PO455728   1.540   4.957   5.549
 4334POPC   GL155729   1.162   4.878   5.837
 4334POPC   GL255730   1.219   5.213   5.925
 4334POPC   C1A55731   1.081   4.911   6.319
 4334POPC   D2A55732   1.370   5.088   6.659
 4334POPC   C3A55733   1.609   4.864   7.018
 4334POPC   C4A55734   1.553   4.921   7.471
 4334POPC   C1B55735   1.173   5.439   6.307
 4334POPC   C2B55736   1.053   5.517   6.704
 4334POPC   C3B55737   1.211   5.369   7.083
 4334POPC   C4B55738   1.105   4.961   7.095
 4335POPC   NC355739  17.956   3.772   5.531
 4335POPC   PO455740  17.581   3.292   5.351
 4335POPC   GL155741  17.530   3.346   5.807
 4335POPC   GL255742  17.605   3.638   5.886
 4335POPC   C1A55743  17.561   3.256   6.249
 4335POPC   D2A55744  17.284   3.266   6.598
 4335POPC   C3A55745  17.510   3.222   6.966
 4335POPC   C4A55746  17.705   3.399   7.297
 4335POPC   C1B55747  17.628   3.785   6.282
 4335POPC   C2B55748  17.608   3.655   6.690
 4335POPC   C3B55749  17.402   3.778   7.048
 4335POPC   C4B55750  17.557   3.864   7.449
 4336POPC   NC355751  41.078  29.118   5.521
 4336POPC   PO455752  40.625  29.594   5.201
 4336POPC   GL155753  40.674  29.440   5.680
 4336POPC   GL255754  40.482  29.141   5.854
 4336POPC   C1A55755  40.700  29.506   6.145
 4336POPC   D2A55756  40.890  29.367   6.546
 4336POPC   C3A55757  40.659  29.142   6.872
 4336POPC   C4A55758  40.427  29.242   7.259
 4336POPC   C1B55759  40.826  28.989   6.169
 4336POPC   C2B55760  40.973  28.737   6.550
 4336POPC   C3B55761  41.077  28.798   7.004
 4336POPC   C4B55762  40.949  29.174   7.289
 4337POPC   NC355763  30.661  35.657   5.622
 4337POPC   PO455764  31.024  35.145   5.456
 4337POPC   GL155765  30.913  35.169   5.900
 4337POPC   GL255766  30.546  35.109   5.887
 4337POPC   C1A55767  30.998  35.357   6.338
 4337POPC   D2A55768  30.783  35.669   6.629
 4337POPC   C3A55769  30.719  35.568   7.078
 4337POPC   C4A55770  30.858  35.618   7.531
 4337POPC   C1B55771  30.687  34.944   6.314
 4337POPC   C2B55772  30.592  35.184   6.698
 4337POPC   C3B55773  30.355  35.207   7.082
 4337POPC   C4B55774  30.639  35.160   7.417
 4338POPC   NC355775  36.172  23.298   5.684
 4338POPC   PO455776  36.012  22.829   5.221
 4338POPC   GL155777  36.036  22.791   5.714
 4338POPC   GL255778  36.381  22.798   5.837
 4338POPC   C1A55779  35.878  22.850   6.192
 4338POPC   D2A55780  35.923  22.593   6.596
 4338POPC   C3A55781  36.177  22.800   6.936
 4338POPC   C4A55782  36.101  22.902   7.393
 4338POPC   C1B55783  36.370  22.999   6.260
 4338POPC   C2B55784  36.246  23.229   6.641
 4338POPC   C3B55785  36.288  23.280   7.094
 4338POPC   C4B55786  36.324  23.340   7.545
 4339POPC   NC355787   0.618  19.405   5.435
 4339POPC   PO455788   0.462  18.716   5.435
 4339POPC   GL155789   0.437  19.004   5.791
 4339POPC   GL255790   0.121  19.150   5.897
 4339POPC   C1A55791   0.433  18.956   6.253
 4339POPC   D2A55792   0.258  18.774   6.627
 4339POPC   C3A55793   0.463  18.875   7.004
 4339POPC   C4A55794   0.531  19.259   7.222
 4339POPC   C1B55795   0.052  19.306   6.322
 4339POPC   C2B55796   0.096  19.261   6.769
 4339POPC   C3B55797   0.033  19.373   7.201
 4339POPC   C4B55798   0.244  19.374   7.644
 4340POPC   NC355799  31.396  36.767   5.500
 4340POPC   PO455800  31.360  37.364   5.199
 4340POPC   GL155801  31.360  37.164   5.793
 4340POPC   GL255802  31.657  36.961   5.869
 4340POPC   C1A55803  31.399  37.039   6.290
 4340POPC   D2A55804  31.172  37.061   6.716
 4340POPC   C3A55805  31.382  36.958   7.147
 4340POPC   C4A55806  31.347  36.916   7.663
 4340POPC   C1B55807  31.862  36.770   6.195
 4340POPC   C2B55808  31.765  36.821   6.626
 4340POPC   C3B55809  31.788  36.615   7.006
 4340POPC   C4B55810  31.699  36.645   7.446
 4341POPC   NC355811  17.184  16.037   5.236
 4341POPC   PO455812  17.734  15.779   5.524
 4341POPC   GL155813  17.432  15.952   5.769
 4341POPC   GL255814  17.498  15.681   5.998
 4341POPC   C1A55815  17.363  16.153   6.188
 4341POPC   D2A55816  17.321  16.020   6.656
 4341POPC   C3A55817  17.383  16.169   7.112
 4341POPC   C4A55818  17.231  15.884   7.493
 4341POPC   C1B55819  17.686  15.789   6.381
 4341POPC   C2B55820  17.648  15.646   6.808
 4341POPC   C3B55821  17.678  15.755   7.249
 4341POPC   C4B55822  17.987  15.926   7.532
 4342POPC   NC355823  17.334  41.024   5.371
 4342POPC   PO455824  17.750  40.615   5.217
 4342POPC   GL155825  17.596  40.658   5.706
 4342POPC   GL255826  17.289  40.858   5.848
 4342POPC   C1A55827  17.555  40.626   6.195
 4342POPC   D2A55828  17.632  40.859   6.586
 4342POPC   C3A55829  17.379  40.778   6.933
 4342POPC   C4A55830  17.663  40.769   7.280
 4342POPC   C1B55831  17.370  41.120   6.245
 4342POPC   C2B55832  17.381  41.298   6.708
 4342POPC   C3B55833  17.415  41.224   7.192
 4342POPC   C4B55834  17.273  40.989   7.566
 4343POPC   NC355835  17.773   5.237   5.528
 4343POPC   PO455836  17.159   4.985   5.600
 4343POPC   GL155837  17.460   5.086   5.914
 4343POPC   GL255838  17.651   4.798   5.790
 4343POPC   C1A55839  17.563   5.150   6.369
 4343POPC   D2A55840  17.406   5.134   6.828
 4343POPC   C3A55841  17.623   5.336   7.194
 4343POPC   C4A55842  17.550   5.479   7.640
 4343POPC   C1B55843  17.865   4.758   6.167
 4343POPC   C2B55844  17.947   4.878   6.582
 4343POPC   C3B55845  17.799   4.866   6.981
 4343POPC   C4B55846  17.871   4.654   7.324
 4344POPC   NC355847  42.807  41.161   5.541
 4344POPC   PO455848  43.385  40.839   5.450
 4344POPC   GL155849  43.080  40.840   5.874
 4344POPC   GL255850  42.760  41.039   6.026
 4344POPC   C1A55851  43.109  40.673   6.341
 4344POPC   D2A55852  43.316  40.467   6.715
 4344POPC   C3A55853  43.181  40.650   7.114
 4344POPC   C4A55854  43.366  40.796   7.511
 4344POPC   C1B55855  43.111  41.189   6.281
 4344POPC   C2B55856  43.288  41.050   6.695
 4344POPC   C3B55857  43.167  41.174   7.128
 4344POPC   C4B55858  42.728  41.212   7.273
 4345POPC   NC355859  11.782  39.312   5.567
 4345POPC   PO455860  12.332  38.882   5.418
 4345POPC   GL155861  12.150  39.021   5.834
 4345POPC   GL255862  12.435  39.218   5.925
 4345POPC   C1A55863  11.828  39.181   6.190
 4345POPC   D2A55864  11.741  39.577   6.424
 4345POPC   C3A55865  11.793  39.566   6.854
 4345POPC   C4A55866  11.797  39.223   7.123
 4345POPC   C1B55867  12.307  39.185   6.362
 4345POPC   C2B55868  12.246  39.313   6.804
 4345POPC   C3B55869  12.282  39.098   7.219
 4345POPC   C4B55870  12.250  38.947   7.659
 4346POPC   NC355871  35.628  17.144   5.370
 4346POPC   PO455872  35.611  17.793   5.514
 4346POPC   GL155873  35.547  17.442   5.759
 4346POPC   GL255874  35.206  17.393   5.687
 4346POPC   C1A55875  35.710  17.263   6.123
 4346POPC   D2A55876  35.779  17.541   6.452
 4346POPC   C3A55877  35.471  17.579   6.770
 4346POPC   C4A55878  35.488  17.448   7.190
 4346POPC   C1B55879  35.257  17.560   6.149
 4346POPC   C2B55880  35.032  17.733   6.501
 4346POPC   C3B55881  35.012  17.792   6.937
 4346POPC   C4B55882  34.975  17.473   7.237
 4347POPC   NC355883  43.285  37.933   5.414
 4347POPC   PO455884  43.242  37.357   5.785
 4347POPC   GL155885  43.131  37.736   5.966
 4347POPC   GL255886  43.248  38.070   5.886
 4347POPC   C1A55887  43.083  37.709   6.397
 4347POPC   D2A55888  43.305  37.472   6.719
 4347POPC   C3A55889  42.977  37.331   6.984
 4347POPC   C4A55890  42.974  37.450   7.377
 4347POPC   C1B55891  43.170  38.217   6.277
 4347POPC   C2B55892  42.957  38.116   6.655
 4347POPC   C3B55893  43.096  37.859   7.010
 4347POPC   C4B55894  43.126  37.945   7.460
 4348POPC   NC355895  36.272  31.219   5.350
 4348POPC   PO455896  35.919  31.753   5.512
 4348POPC   GL155897  35.902  31.444   5.796
 4348POPC   GL255898  36.244  31.342   5.849
 4348POPC   C1A55899  35.952  31.583   6.209
 4348POPC   D2A55900  36.126  31.550   6.591
 4348POPC   C3A55901  35.947  31.326   6.927
 4348POPC   C4A55902  35.781  31.464   7.286
 4348POPC   C1B55903  36.238  31.153   6.246
 4348POPC   C2B55904  36.446  31.177   6.644
 4348POPC   C3B55905  36.446  31.421   6.999
 4348POPC   C4B55906  36.305  31.135   7.280
 4349POPC   NC355907  32.839  31.441   5.367
 4349POPC   PO455908  33.491  31.267   5.433
 4349POPC   GL155909  33.177  31.252   5.789
 4349POPC   GL255910  32.931  31.513   5.868
 4349POPC   C1A55911  33.174  31.339   6.258
 4349POPC   D2A55912  33.157  31.590   6.614
 4349POPC   C3A55913  33.227  31.328   6.936
 4349POPC   C4A55914  33.003  31.145   7.245
 4349POPC   C1B55915  32.676  31.556   6.232
 4349POPC   C2B55916  32.655  31.737   6.668
 4349POPC   C3B55917  32.835  31.703   7.094
 4349POPC   C4B55918  32.833  31.829   7.575
 4350POPC   NC355919  37.737   4.106   5.463
 4350POPC   PO455920  37.320   4.652   5.373
 4350POPC   GL155921  37.490   4.451   5.815
 4350POPC   GL255922  37.842   4.431   5.891
 4350POPC   C1A55923  37.536   4.314   6.305
 4350POPC   D2A55924  37.402   4.460   6.745
 4350POPC   C3A55925  37.563   4.292   7.158
 4350POPC   C4A55926  37.493   4.370   7.621
 4350POPC   C1B55927  38.040   4.180   6.253
 4350POPC   C2B55928  38.157   4.214   6.702
 4350POPC   C3B55929  38.043   4.497   7.050
 4350POPC   C4B55930  37.867   4.630   7.437
 4351POPC   NC355931  26.302  21.659   5.699
 4351POPC   PO455932  26.712  21.207   5.354
 4351POPC   GL155933  26.853  21.143   5.785
 4351POPC   GL255934  26.622  21.328   5.909
 4351POPC   C1A55935  27.064  21.271   6.189
 4351POPC   D2A55936  27.047  21.477   6.593
 4351POPC   C3A55937  26.981  21.298   7.009
 4351POPC   C4A55938  26.832  21.657   7.276
 4351POPC   C1B55939  26.586  21.388   6.324
 4351POPC   C2B55940  26.486  21.173   6.662
 4351POPC   C3B55941  26.491  21.292   7.069
 4351POPC   C4B55942  26.669  21.219   7.469
 4352POPC   NC355943  32.175  31.224   5.450
 4352POPC   PO455944  32.504  31.752   5.255
 4352POPC   GL155945  32.463  31.560   5.691
 4352POPC   GL255946  32.368  31.833   5.802
 4352POPC   C1A55947  32.225  31.362   6.076
 4352POPC   D2A55948  32.270  31.426   6.527
 4352POPC   C3A55949  32.012  31.315   6.861
 4352POPC   C4A55950  32.138  31.371   7.295
 4352POPC   C1B55951  32.210  31.852   6.202
 4352POPC   C2B55952  32.209  31.997   6.595
 4352POPC   C3B55953  32.190  31.792   6.961
 4352POPC   C4B55954  32.394  31.810   7.329
 4353POPC   NC355955  32.124  35.373   5.335
 4353POPC   PO455956  32.513  35.802   5.500
 4353POPC   GL155957  32.316  35.506   5.789
 4353POPC   GL255958  32.573  35.561   6.019
 4353POPC   C1A55959  32.055  35.205   6.058
 4353POPC   D2A55960  31.954  35.084   6.496
 4353POPC   C3A55961  32.279  35.102   6.824
 4353POPC   C4A55962  32.286  35.051   7.261
 4353POPC   C1B55963  32.215  35.647   6.308
 4353POPC   C2B55964  31.991  35.552   6.674
 4353POPC   C3B55965  32.153  35.530   7.096
 4353POPC   C4B55966  32.431  35.721   7.406
 4354POPC   NC355967  21.993  41.812   5.310
 4354POPC   PO455968  21.928  41.202   5.448
 4354POPC   GL155969  21.893  41.413   5.852
 4354POPC   GL255970  22.152  41.663   5.859
 4354POPC   C1A55971  21.911  41.506   6.300
 4354POPC   D2A55972  22.194  41.646   6.643
 4354POPC   C3A55973  22.090  41.461   7.029
 4354POPC   C4A55974  21.734  41.438   7.300
 4354POPC   C1B55975  22.408  41.423   6.211
 4354POPC   C2B55976  22.607  41.338   6.642
 4354POPC   C3B55977  22.538  41.210   7.092
 4354POPC   C4B55978  22.693  41.342   7.503
 4355POPC   NC355979  44.767  27.341   5.459
 4355POPC   PO455980  44.297  27.798   5.401
 4355POPC   GL155981  44.644  27.907   5.673
 4355POPC   GL255982  44.586  27.614   5.837
 4355POPC   C1A55983  44.715  27.997   6.119
 4355POPC   D2A55984  44.601  27.741   6.516
 4355POPC   C3A55985  44.448  27.597   6.925
 4355POPC   C4A55986  44.559  27.684   7.372
 4355POPC   C1B55987  44.807  27.437   6.157
 4355POPC   C2B55988  44.688  27.238   6.550
 4355POPC   C3B55989  44.912  27.390   6.895
 4355POPC   C4B55990   0.007  27.374   7.283
 4356POPC   NC355991   2.517  40.473   5.428
 4356POPC   PO455992   1.989  40.941   5.269
 4356POPC   GL155993   2.278  40.867   5.663
 4356POPC   GL255994   2.184  40.522   5.807
 4356POPC   C1A55995   2.446  40.863   6.124
 4356POPC   D2A55996   2.171  40.890   6.497
 4356POPC   C3A55997   2.246  40.914   6.947
 4356POPC   C4A55998   1.842  41.005   7.186
 4356POPC   C1B55999   2.187  40.432   6.252
 4356POPC   C2B56000   2.377  40.418   6.673
 4356POPC   C3B56001   2.268  40.407   7.122
 4356POPC   C4B56002   2.418  40.197   7.509
 4357POPC   NC356003  27.441  30.345   5.563
 4357POPC   PO456004  27.696  29.794   5.298
 4357POPC   GL156005  27.726  29.961   5.750
 4357POPC   GL256006  27.789  29.661   5.909
 4357POPC   C1A56007  27.523  30.084   6.188
 4357POPC   D2A56008  27.361  29.831   6.569
 4357POPC   C3A56009  27.403  29.905   7.042
 4357POPC   C4A56010  27.700  30.030   7.401
 4357POPC   C1B56011  27.944  29.830   6.303
 4357POPC   C2B56012  27.862  29.993   6.713
 4357POPC   C3B56013  27.900  29.722   7.052
 4357POPC   C4B56014  27.589  29.397   7.188
 4358POPC   NC356015  21.614  13.999   5.516
 4358POPC   PO456016  21.522  13.402   5.459
 4358POPC   GL156017  21.528  13.342   5.891
 4358POPC   GL256018  21.493  13.718   5.952
 4358POPC   C1A56019  21.533  13.363   6.332
 4358POPC   D2A56020  21.373  13.594   6.664
 4358POPC   C3A56021  21.440  13.401   7.029
 4358POPC   C4A56022  21.214  13.405   7.409
 4358POPC   C1B56023  21.315  13.995   6.263
 4358POPC   C2B56024  21.368  14.101   6.702
 4358POPC   C3B56025  21.308  13.886   7.103
 4358POPC   C4B56026  21.479  13.832   7.515
 4359POPC   NC356027  11.911   0.255   5.461
 4359POPC   PO456028  11.185   0.445   5.482
 4359POPC   GL156029  11.472   0.377   5.824
 4359POPC   GL256030  11.551   0.725   5.880
 4359POPC   C1A56031  11.396   0.287   6.265
 4359POPC   D2A56032  11.499   0.197   6.694
 4359POPC   C3A56033  11.308   0.119   7.104
 4359POPC   C4A56034  11.590   0.219   7.491
 4359POPC   C1B56035  11.129   0.721   6.099
 4359POPC   C2B56036  11.126   0.672   6.543
 4359POPC   C3B56037  11.418   0.694   6.881
 4359POPC   C4B56038  11.294   0.585   7.269
 4360POPC   NC356039  32.294   3.886   5.441
 4360POPC   PO456040  32.095   3.250   5.449
 4360POPC   GL156041  32.162   3.486   5.795
 4360POPC   GL256042  32.276   3.187   5.961
 4360POPC   C1A56043  32.354   3.664   6.155
 4360POPC   D2A56044  32.548   3.437   6.483
 4360POPC   C3A56045  32.390   3.614   6.877
 4360POPC   C4A56046  32.410   3.563   7.297
 4360POPC   C1B56047  32.006   3.258   6.292
 4360POPC   C2B56048  32.107   3.216   6.697
 4360POPC   C3B56049  32.186   3.143   7.109
 4360POPC   C4B56050  31.866   3.044   7.368
 4361POPC   NC356051  33.620  21.939   5.482
 4361POPC   PO456052  34.161  22.396   5.372
 4361POPC   GL156053  33.955  22.270   5.728
 4361POPC   GL256054  34.127  22.023   5.959
 4361POPC   C1A56055  33.691  22.345   6.057
 4361POPC   D2A56056  33.825  22.163   6.433
 4361POPC   C3A56057  33.582  22.094   6.777
 4361POPC   C4A56058  33.528  22.341   7.108
 4361POPC   C1B56059  34.192  22.440   6.190
 4361POPC   C2B56060  34.108  22.543   6.636
 4361POPC   C3B56061  34.038  22.358   7.041
 4361POPC   C4B56062  33.943  22.557   7.462
 4362POPC   NC356063   8.415  44.423   5.440
 4362POPC   PO456064   8.236  43.891   5.173
 4362POPC   GL156065   8.309  44.005   5.693
 4362POPC   GL256066   8.256  43.742   5.948
 4362POPC   C1A56067   8.380  44.170   6.158
 4362POPC   D2A56068   8.274  43.843   6.502
 4362POPC   C3A56069   8.410  43.800   6.948
 4362POPC   C4A56070   8.302  43.908   7.366
 4362POPC   C1B56071   7.889  43.534   6.124
 4362POPC   C2B56072   7.846  43.292   6.488
 4362POPC   C3B56073   8.095  43.319   6.856
 4362POPC   C4B56074   8.090  43.468   7.263
 4363POPC   NC356075   5.440   2.434   5.640
 4363POPC   PO456076   5.770   1.999   5.178
 4363POPC   GL156077   5.731   1.829   5.673
 4363POPC   GL256078   5.983   1.918   5.887
 4363POPC   C1A56079   5.579   1.751   6.164
 4363POPC   D2A56080   5.631   1.959   6.619
 4363POPC   C3A56081   5.859   1.830   6.996
 4363POPC   C4A56082   5.628   1.630   7.368
 4363POPC   C1B56083   5.879   2.170   6.217
 4363POPC   C2B56084   6.052   2.249   6.612
 4363POPC   C3B56085   5.863   2.334   6.994
 4363POPC   C4B56086   6.193   2.412   7.218
 4364POPC   NC356087  13.377  38.019   5.592
 4364POPC   PO456088  13.989  37.617   5.549
 4364POPC   GL156089  13.604  37.611   5.798
 4364POPC   GL256090  13.761  37.438   6.056
 4364POPC   C1A56091  13.336  37.721   6.192
 4364POPC   D2A56092  13.505  37.851   6.617
 4364POPC   C3A56093  13.450  37.909   7.069
 4364POPC   C4A56094  13.545  37.550   7.327
 4364POPC   C1B56095  13.842  37.881   6.180
 4364POPC   C2B56096  13.998  37.956   6.593
 4364POPC   C3B56097  13.982  37.764   6.993
 4364POPC   C4B56098  13.876  37.940   7.378
 4365POPC   NC356099   1.348  38.600   5.527
 4365POPC   PO456100   1.182  37.937   5.322
 4365POPC   GL156101   1.257  38.158   5.768
 4365POPC   GL256102   1.047  38.453   5.926
 4365POPC   C1A56103   1.358  38.198   6.230
 4365POPC   D2A56104   1.132  38.394   6.593
 4365POPC   C3A56105   1.322  38.269   6.987
 4365POPC   C4A56106   1.584  38.404   7.315
 4365POPC   C1B56107   1.342  38.724   6.228
 4365POPC   C2B56108   1.516  38.722   6.699
 4365POPC   C3B56109   1.282  38.778   7.105
 4365POPC   C4B56110   0.918  38.910   7.332
 4366POPC   NC356111  44.287  11.888   5.136
 4366POPC   PO456112  43.678  11.937   5.320
 4366POPC   GL156113  43.878  12.232   5.677
 4366POPC   GL256114  44.021  11.941   5.781
 4366POPC   C1A56115  44.134  12.288   6.133
 4366POPC   D2A56116  44.205  12.072   6.555
 4366POPC   C3A56117  44.163  12.316   6.952
 4366POPC   C4A56118  43.787  12.385   7.187
 4366POPC   C1B56119  43.738  11.970   6.165
 4366POPC   C2B56120  43.735  11.748   6.549
 4366POPC   C3B56121  43.860  11.875   6.964
 4366POPC   C4B56122  43.579  11.934   7.295
 4367POPC   NC356123  41.090  19.379   5.059
 4367POPC   PO456124  40.818  18.953   5.490
 4367POPC   GL156125  40.899  18.975   5.919
 4367POPC   GL256126  41.184  18.786   5.941
 4367POPC   C1A56127  40.705  19.096   6.326
 4367POPC   D2A56128  40.536  19.490   6.508
 4367POPC   C3A56129  40.592  19.401   6.927
 4367POPC   C4A56130  40.706  18.984   7.114
 4367POPC   C1B56131  41.159  18.867   6.342
 4367POPC   C2B56132  40.991  18.816   6.723
 4367POPC   C3B56133  41.221  18.719   7.090
 4367POPC   C4B56134  41.125  18.910   7.473
 4368POPC   NC356135  30.614  41.642   5.367
 4368POPC   PO456136  30.751  41.028   5.310
 4368POPC   GL156137  30.817  41.266   5.757
 4368POPC   GL256138  30.632  41.567   5.858
 4368POPC   C1A56139  31.003  41.410   6.173
 4368POPC   D2A56140  30.907  41.646   6.538
 4368POPC   C3A56141  30.857  41.475   6.944
 4368POPC   C4A56142  30.817  41.700   7.333
 4368POPC   C1B56143  30.379  41.675   6.198
 4368POPC   C2B56144  30.385  41.637   6.620
 4368POPC   C3B56145  30.404  41.730   7.024
 4368POPC   C4B56146  30.285  41.521   7.390
 4369POPC   NC356147  36.838  22.069   5.428
 4369POPC   PO456148  37.421  21.740   5.433
 4369POPC   GL156149  37.163  21.903   5.785
 4369POPC   GL256150  37.236  22.259   5.696
 4369POPC   C1A56151  36.867  21.897   6.160
 4369POPC   D2A56152  36.792  22.132   6.558
 4369POPC   C3A56153  36.765  21.967   6.988
 4369POPC   C4A56154  36.457  21.975   7.311
 4369POPC   C1B56155  37.148  22.342   6.134
 4369POPC   C2B56156  37.080  22.549   6.524
 4369POPC   C3B56157  37.094  22.364   6.932
 4369POPC   C4B56158  37.373  22.125   7.211
 4370POPC   NC356159  13.283  23.190   5.465
 4370POPC   PO456160  13.397  23.892   5.418
 4370POPC   GL156161  13.525  23.564   5.750
 4370POPC   GL256162  13.891  23.482   5.759
 4370POPC   C1A56163  13.349  23.484   6.180
 4370POPC   D2A56164  13.525  23.682   6.561
 4370POPC   C3A56165  13.551  23.805   7.006
 4370POPC   C4A56166  13.510  23.973   7.427
 4370POPC   C1B56167  13.848  23.373   6.199
 4370POPC   C2B56168  13.774  23.263   6.622
 4370POPC   C3B56169  13.794  23.371   7.024
 4370POPC   C4B56170  13.914  23.630   7.333
 4371POPC   NC356171  33.741   2.047   5.579
 4371POPC   PO456172  33.373   1.496   5.427
 4371POPC   GL156173  33.650   1.561   5.827
 4371POPC   GL256174  33.981   1.776   5.937
 4371POPC   C1A56175  33.755   1.515   6.287
 4371POPC   D2A56176  33.797   1.894   6.512
 4371POPC   C3A56177  33.762   1.889   6.940
 4371POPC   C4A56178  34.012   1.830   7.338
 4371POPC   C1B56179  34.102   2.182   6.174
 4371POPC   C2B56180  34.053   2.349   6.601
 4371POPC   C3B56181  34.150   2.195   6.993
 4371POPC   C4B56182  34.083   2.357   7.384
 4372POPC   NC356183  19.563  38.490   5.361
 4372POPC   PO456184  20.213  38.459   5.427
 4372POPC   GL156185  19.851  38.412   5.777
 4372POPC   GL256186  19.646  38.719   5.854
 4372POPC   C1A56187  19.609  38.298   6.174
 4372POPC   D2A56188  19.734  38.073   6.566
 4372POPC   C3A56189  19.792  38.245   6.981
 4372POPC   C4A56190  19.696  38.054   7.366
 4372POPC   C1B56191  19.775  38.817   6.302
 4372POPC   C2B56192  19.854  38.854   6.777
 4372POPC   C3B56193  20.149  38.841   7.158
 4372POPC   C4B56194  20.270  38.620   7.573
 4373POPC   NC356195  17.011  31.914   5.628
 4373POPC   PO456196  16.607  31.560   5.202
 4373POPC   GL156197  16.688  31.531   5.708
 4373POPC   GL256198  16.344  31.488   5.842
 4373POPC   C1A56199  16.944  31.502   6.158
 4373POPC   D2A56200  17.109  31.361   6.607
 4373POPC   C3A56201  16.929  31.522   7.001
 4373POPC   C4A56202  16.811  31.223   7.322
 4373POPC   C1B56203  16.481  31.696   6.240
 4373POPC   C2B56204  16.549  31.476   6.637
 4373POPC   C3B56205  16.415  31.526   7.073
 4373POPC   C4B56206  16.197  31.891   7.204
 4374POPC   NC356207  14.210   8.470   5.630
 4374POPC   PO456208  14.545   8.055   5.272
 4374POPC   GL156209  14.585   8.080   5.742
 4374POPC   GL256210  14.677   8.420   5.888
 4374POPC   C1A56211  14.493   8.020   6.212
 4374POPC   D2A56212  14.501   8.176   6.665
 4374POPC   C3A56213  14.415   8.003   7.102
 4374POPC   C4A56214  14.725   7.821   7.404
 4374POPC   C1B56215  14.399   8.558   6.269
 4374POPC   C2B56216  14.128   8.509   6.680
 4374POPC   C3B56217  14.370   8.558   7.097
 4374POPC   C4B56218  14.175   8.495   7.525
 4375POPC   NC356219  15.501   7.681   5.439
 4375POPC   PO456220  14.980   7.257   5.414
 4375POPC   GL156221  15.191   7.436   5.769
 4375POPC   GL256222  15.135   7.147   5.930
 4375POPC   C1A56223  15.247   7.587   6.211
 4375POPC   D2A56224  15.507   7.847   6.490
 4375POPC   C3A56225  15.390   7.673   6.898
 4375POPC   C4A56226  15.028   7.502   7.133
 4375POPC   C1B56227  15.432   7.101   6.246
 4375POPC   C2B56228  15.269   7.213   6.640
 4375POPC   C3B56229  15.404   7.147   7.048
 4375POPC   C4B56230  15.115   7.073   7.408
 4376POPC   NC356231  32.573  40.368   5.278
 4376POPC   PO456232  32.001  40.061   5.507
 4376POPC   GL156233  32.163  39.924   5.869
 4376POPC   GL256234  32.483  40.055   5.870
 4376POPC   C1A56235  32.066  39.704   6.253
 4376POPC   D2A56236  32.030  39.853   6.677
 4376POPC   C3A56237  32.076  39.644   7.058
 4376POPC   C4A56238  32.046  39.840   7.472
 4376POPC   C1B56239  32.497  40.037   6.314
 4376POPC   C2B56240  32.379  40.216   6.702
 4376POPC   C3B56241  32.165  40.212   7.085
 4376POPC   C4B56242  32.086  40.555   7.380
 4377POPC   NC356243  16.924  10.879   5.521
 4377POPC   PO456244  16.431  10.402   5.641
 4377POPC   GL156245  16.720  10.578   5.887
 4377POPC   GL256246  16.553  10.934   5.883
 4377POPC   C1A56247  16.948  10.395   6.257
 4377POPC   D2A56248  16.986  10.510   6.706
 4377POPC   C3A56249  16.627  10.396   6.980
 4377POPC   C4A56250  16.697  10.242   7.389
 4377POPC   C1B56251  16.669  10.832   6.302
 4377POPC   C2B56252  16.672  10.980   6.669
 4377POPC   C3B56253  16.743  10.898   7.036
 4377POPC   C4B56254  16.553  10.774   7.406
 4378POPC   NC356255   0.815  38.229   5.352
 4378POPC   PO456256   0.156  38.398   5.327
 4378POPC   GL156257   0.423  38.485   5.712
 4378POPC   GL256258   0.133  38.506   5.926
 4378POPC   C1A56259   0.573  38.596   6.162
 4378POPC   D2A56260   0.308  38.517   6.550
 4378POPC   C3A56261   0.507  38.617   6.949
 4378POPC   C4A56262   0.856  38.451   7.131
 4378POPC   C1B56263   0.296  38.147   6.163
 4378POPC   C2B56264   0.258  37.973   6.551
 4378POPC   C3B56265   0.260  38.161   6.946
 4378POPC   C4B56266   0.411  38.247   7.334
 4379POPC   NC356267  22.953   9.562   5.448
 4379POPC   PO456268  22.764  10.215   5.422
 4379POPC   GL156269  22.804   9.928   5.775
 4379POPC   GL256270  23.200   9.884   5.772
 4379POPC   C1A56271  22.613   9.775   6.174
 4379POPC   D2A56272  22.845   9.811   6.572
 4379POPC   C3A56273  22.728   9.629   6.975
 4379POPC   C4A56274  22.782   9.893   7.380
 4379POPC   C1B56275  23.086   9.622   6.132
 4379POPC   C2B56276  23.125   9.397   6.526
 4379POPC   C3B56277  23.256   9.494   6.940
 4379POPC   C4B56278  23.060   9.463   7.322
 4380POPC   NC356279   6.092  24.591   5.276
 4380POPC   PO456280   5.552  24.223   5.416
 4380POPC   GL156281   5.805  24.360   5.799
 4380POPC   GL256282   6.132  24.575   5.781
 4380POPC   C1A56283   5.823  24.251   6.253
 4380POPC   D2A56284   5.635  24.553   6.549
 4380POPC   C3A56285   5.779  24.562   6.962
 4380POPC   C4A56286   6.129  24.317   7.108
 4380POPC   C1B56287   6.008  24.722   6.198
 4380POPC   C2B56288   6.171  24.578   6.608
 4380POPC   C3B56289   6.242  24.799   6.985
 4380POPC   C4B56290   5.968  24.899   7.316
 4381POPC   NC356291  10.540   9.327   5.308
 4381POPC   PO456292  10.877   8.873   5.633
 4381POPC   GL156293  10.401   8.938   5.656
 4381POPC   GL256294  10.203   9.261   5.790
 4381POPC   C1A56295  10.240   8.845   6.071
 4381POPC   D2A56296  10.456   8.950   6.461
 4381POPC   C3A56297  10.326   8.820   6.874
 4381POPC   C4A56298  10.610   8.861   7.201
 4381POPC   C1B56299  10.575   9.322   6.037
 4381POPC   C2B56300  10.716   9.425   6.455
 4381POPC   C3B56301  10.583   9.274   6.854
 4381POPC   C4B56302  10.186   9.333   7.068
 4382POPC   NC356303   3.920  28.100   5.455
 4382POPC   PO456304   4.448  28.655   5.513
 4382POPC   GL156305   4.283  28.343   5.776
 4382POPC   GL256306   4.618  28.225   5.906
 4382POPC   C1A56307   4.018  28.235   6.139
 4382POPC   D2A56308   3.875  28.296   6.576
 4382POPC   C3A56309   4.205  28.209   6.896
 4382POPC   C4A56310   4.162  28.308   7.345
 4382POPC   C1B56311   4.465  28.375   6.329
 4382POPC   C2B56312   4.314  28.652   6.660
 4382POPC   C3B56313   4.552  28.565   7.033
 4382POPC   C4B56314   4.650  28.365   7.436
 4383POPC   NC356315  22.286  12.118   5.433
 4383POPC   PO456316  21.995  11.786   5.801
 4383POPC   GL156317  22.291  12.013   5.944
 4383POPC   GL256318  22.199  12.337   5.866
 4383POPC   C1A56319  22.417  12.038   6.318
 4383POPC   D2A56320  22.485  12.162   6.675
 4383POPC   C3A56321  22.257  11.879   6.878
 4383POPC   C4A56322  22.416  11.753   7.270
 4383POPC   C1B56323  21.929  12.374   6.182
 4383POPC   C2B56324  21.956  12.185   6.525
 4383POPC   C3B56325  22.078  12.443   6.805
 4383POPC   C4B56326  22.250  12.284   7.146
 4384POPC   NC356327  41.781  30.823   5.412
 4384POPC   PO456328  41.228  30.377   5.357
 4384POPC   GL156329  41.385  30.645   5.722
 4384POPC   GL256330  41.732  30.640   5.887
 4384POPC   C1A56331  41.301  30.780   6.157
 4384POPC   D2A56332  41.192  30.709   6.569
 4384POPC   C3A56333  41.282  30.966   6.930
 4384POPC   C4A56334  41.357  30.661   7.253
 4384POPC   C1B56335  41.745  30.569   6.335
 4384POPC   C2B56336  41.717  30.766   6.736
 4384POPC   C3B56337  41.864  30.661   7.159
 4384POPC   C4B56338  42.078  30.924   7.462
 4385POPC   NC356339   4.818  10.375   5.426
 4385POPC   PO456340   5.400  10.597   5.452
 4385POPC   GL156341   5.214  10.330   5.793
 4385POPC   GL256342   4.881  10.125   5.860
 4385POPC   C1A56343   5.198  10.548   6.201
 4385POPC   D2A56344   4.971  10.482   6.561
 4385POPC   C3A56345   5.050  10.737   6.899
 4385POPC   C4A56346   4.966  10.658   7.295
 4385POPC   C1B56347   5.111  10.063   6.228
 4385POPC   C2B56348   5.350  10.126   6.599
 4385POPC   C3B56349   5.135  10.232   7.019
 4385POPC   C4B56350   4.823  10.167   7.366
 4386POPC   NC356351  25.706  33.589   5.374
 4386POPC   PO456352  26.320  33.947   5.515
 4386POPC   GL156353  26.256  33.842   5.905
 4386POPC   GL256354  26.029  33.589   5.810
 4386POPC   C1A56355  25.938  33.835   6.251
 4386POPC   D2A56356  25.688  33.930   6.613
 4386POPC   C3A56357  25.865  33.685   6.920
 4386POPC   C4A56358  26.045  33.783   7.319
 4386POPC   C1B56359  26.251  33.423   6.170
 4386POPC   C2B56360  26.308  33.629   6.596
 4386POPC   C3B56361  26.343  33.488   6.996
 4386POPC   C4B56362  26.022  33.287   7.210
 4387POPC   NC356363  43.220   3.499   5.392
 4387POPC   PO456364  42.762   3.990   5.327
 4387POPC   GL156365  42.927   3.741   5.721
 4387POPC   GL256366  43.312   3.751   5.820
 4387POPC   C1A56367  42.876   3.538   6.130
 4387POPC   D2A56368  42.704   3.566   6.551
 4387POPC   C3A56369  42.903   3.382   6.930
 4387POPC   C4A56370  42.840   3.604   7.303
 4387POPC   C1B56371  43.273   3.848   6.252
 4387POPC   C2B56372  43.212   3.697   6.663
 4387POPC   C3B56373  43.298   3.711   7.106
 4387POPC   C4B56374  43.674   3.751   7.405
 4388POPC   NC356375   7.510  22.303   5.453
 4388POPC   PO456376   6.914  22.000   5.664
 4388POPC   GL156377   7.267  22.137   5.852
 4388POPC   GL256378   7.233  22.513   5.892
 4388POPC   C1A56379   7.568  22.196   6.175
 4388POPC   D2A56380   7.500  22.470   6.512
 4388POPC   C3A56381   7.447  22.366   6.924
 4388POPC   C4A56382   7.194  22.573   7.217
 4388POPC   C1B56383   7.056  22.291   6.275
 4388POPC   C2B56384   7.060  21.976   6.615
 4388POPC   C3B56385   6.990  22.111   7.044
 4388POPC   C4B56386   7.081  22.134   7.485
 4389POPC   NC356387  21.799  17.079   5.425
 4389POPC   PO456388  21.272  16.704   5.525
 4389POPC   GL156389  21.262  16.867   5.931
 4389POPC   GL256390  21.580  17.038   5.896
 4389POPC   C1A56391  21.257  16.766   6.380
 4389POPC   D2A56392  21.065  16.822   6.783
 4389POPC   C3A56393  21.333  16.713   7.120
 4389POPC   C4A56394  21.461  16.495   7.463
 4389POPC   C1B56395  21.717  17.003   6.335
 4389POPC   C2B56396  21.646  16.944   6.789
 4389POPC   C3B56397  21.830  16.881   7.249
 4389POPC   C4B56398  21.932  17.035   7.703
 4390POPC   NC356399   8.825  38.746   5.241
 4390POPC   PO456400   9.164  38.280   5.584
 4390POPC   GL156401   8.904  38.600   5.735
 4390POPC   GL256402   8.702  38.350   5.880
 4390POPC   C1A56403   8.932  38.772   6.144
 4390POPC   D2A56404   8.958  38.687   6.593
 4390POPC   C3A56405   9.203  38.561   6.953
 4390POPC   C4A56406   8.994  38.490   7.351
 4390POPC   C1B56407   8.903  38.261   6.302
 4390POPC   C2B56408   8.937  38.158   6.750
 4390POPC   C3B56409   8.669  38.121   7.091
 4390POPC   C4B56410   8.746  38.056   7.511
 4391POPC   NC356411   2.197  41.351   5.396
 4391POPC   PO456412   1.763  41.884   5.392
 4391POPC   GL156413   1.834  41.762   5.785
 4391POPC   GL256414   2.174  41.690   5.854
 4391POPC   C1A56415   1.763  41.543   6.163
 4391POPC   D2A56416   1.902  41.599   6.572
 4391POPC   C3A56417   1.617  41.496   6.932
 4391POPC   C4A56418   1.803  41.500   7.328
 4391POPC   C1B56419   2.295  41.366   6.157
 4391POPC   C2B56420   2.383  41.357   6.596
 4391POPC   C3B56421   2.162  41.428   6.985
 4391POPC   C4B56422   2.265  41.220   7.378
 4392POPC   NC356423  25.886  14.711   5.368
 4392POPC   PO456424  26.160  14.142   5.282
 4392POPC   GL156425  26.041  14.317   5.690
 4392POPC   GL256426  26.311  14.540   5.867
 4392POPC   C1A56427  25.948  14.294   6.121
 4392POPC   D2A56428  26.189  14.121   6.477
 4392POPC   C3A56429  26.060  14.162   6.887
 4392POPC   C4A56430  26.143  14.405   7.236
 4392POPC   C1B56431  26.341  14.599   6.366
 4392POPC   C2B56432  26.250  14.689   6.832
 4392POPC   C3B56433  25.983  14.878   7.214
 4392POPC   C4B56434  25.742  14.614   7.516
 4393POPC   NC356435  13.264   0.824   5.436
 4393POPC   PO456436  12.738   1.164   5.305
 4393POPC   GL156437  12.920   1.119   5.732
 4393POPC   GL256438  12.810   1.445   5.819
 4393POPC   C1A56439  13.049   1.129   6.196
 4393POPC   D2A56440  12.810   0.945   6.580
 4393POPC   C3A56441  12.893   1.068   7.012
 4393POPC   C4A56442  13.121   1.187   7.372
 4393POPC   C1B56443  12.559   1.259   6.151
 4393POPC   C2B56444  12.464   1.320   6.576
 4393POPC   C3B56445  12.582   1.473   6.976
 4393POPC   C4B56446  12.505   1.262   7.368
 4394POPC   NC356447   7.795   6.384   5.670
 4394POPC   PO456448   8.268   6.539   5.260
 4394POPC   GL156449   8.291   6.436   5.776
 4394POPC   GL256450   8.038   6.567   6.054
 4394POPC   C1A56451   8.488   6.495   6.232
 4394POPC   D2A56452   8.258   6.686   6.570
 4394POPC   C3A56453   8.400   6.699   7.003
 4394POPC   C4A56454   8.511   7.056   7.258
 4394POPC   C1B56455   7.916   6.320   6.409
 4394POPC   C2B56456   8.045   6.328   6.854
 4394POPC   C3B56457   8.277   6.286   7.279
 4394POPC   C4B56458   8.266   6.236   7.735
 4395POPC   NC356459  39.208  22.586   5.390
 4395POPC   PO456460  39.195  21.957   5.566
 4395POPC   GL156461  39.307  22.312   5.829
 4395POPC   GL256462  39.626  22.497   5.697
 4395POPC   C1A56463  39.246  22.193   6.264
 4395POPC   D2A56464  39.228  22.346   6.670
 4395POPC   C3A56465  39.014  22.235   7.049
 4395POPC   C4A56466  39.060  22.376   7.466
 4395POPC   C1B56467  39.701  22.471   6.148
 4395POPC   C2B56468  39.753  22.369   6.596
 4395POPC   C3B56469  39.596  22.231   7.010
 4395POPC   C4B56470  39.538  22.402   7.400
 4396POPC   NC356471  11.020  40.127   5.408
 4396POPC   PO456472  11.460  39.642   5.422
 4396POPC   GL156473  11.422  39.946   5.794
 4396POPC   GL256474  11.111  40.057   5.905
 4396POPC   C1A56475  11.464  39.995   6.266
 4396POPC   D2A56476  11.304  39.855   6.678
 4396POPC   C3A56477  11.559  39.985   7.039
 4396POPC   C4A56478  11.706  39.715   7.369
 4396POPC   C1B56479  10.933  40.001   6.316
 4396POPC   C2B56480  10.860  40.160   6.747
 4396POPC   C3B56481  11.045  40.088   7.171
 4396POPC   C4B56482  10.941  40.038   7.628
 4397POPC   NC356483  27.729  19.810   5.328
 4397POPC   PO456484  27.116  19.786   5.624
 4397POPC   GL156485  27.417  19.874   5.934
 4397POPC   GL256486  27.490  19.536   5.990
 4397POPC   C1A56487  27.565  19.950   6.390
 4397POPC   D2A56488  27.917  20.197   6.614
 4397POPC   C3A56489  28.103  19.953   6.893
 4397POPC   C4A56490  27.936  19.566   7.039
 4397POPC   C1B56491  27.330  19.466   6.409
 4397POPC   C2B56492  27.460  19.590   6.812
 4397POPC   C3B56493  27.572  19.984   6.969
 4397POPC   C4B56494  27.434  20.164   7.335
 4398POPC   NC356495   8.086  13.102   5.500
 4398POPC   PO456496   8.438  12.532   5.530
 4398POPC   GL156497   8.378  12.778   5.883
 4398POPC   GL256498   8.627  13.013   5.849
 4398POPC   C1A56499   8.061  12.794   6.213
 4398POPC   D2A56500   7.911  12.742   6.634
 4398POPC   C3A56501   8.221  12.942   6.846
 4398POPC   C4A56502   8.394  12.822   7.197
 4398POPC   C1B56503   8.411  13.193   6.222
 4398POPC   C2B56504   8.467  13.392   6.638
 4398POPC   C3B56505   8.574  13.282   7.062
 4398POPC   C4B56506   8.290  13.283   7.431
 4399POPC   NC356507  16.311  19.111   5.068
 4399POPC   PO456508  16.938  18.988   5.353
 4399POPC   GL156509  16.771  19.003   5.771
 4399POPC   GL256510  16.954  18.704   5.856
 4399POPC   C1A56511  16.612  19.115   6.213
 4399POPC   D2A56512  16.458  19.197   6.658
 4399POPC   C3A56513  16.785  19.194   6.979
 4399POPC   C4A56514  17.162  19.302   7.205
 4399POPC   C1B56515  16.824  18.660   6.276
 4399POPC   C2B56516  16.760  18.734   6.718
 4399POPC   C3B56517  16.843  18.718   7.154
 4399POPC   C4B56518  16.525  18.872   7.430
 4400POPC   NC356519  38.635  41.987   5.494
 4400POPC   PO456520  38.042  41.515   5.483
 4400POPC   GL156521  38.265  41.713   5.825
 4400POPC   GL256522  38.555  41.512   5.783
 4400POPC   C1A56523  38.423  41.825   6.263
 4400POPC   D2A56524  38.250  41.675   6.652
 4400POPC   C3A56525  38.283  41.777   7.078
 4400POPC   C4A56526  38.324  41.496   7.461
 4400POPC   C1B56527  38.713  41.411   6.185
 4400POPC   C2B56528  38.777  41.600   6.619
 4400POPC   C3B56529  38.787  41.728   7.055
 4400POPC   C4B56530  38.627  41.892   7.476
 4401POPC   NC356531  28.936   4.959   5.427
 4401POPC   PO456532  28.914   5.614   5.406
 4401POPC   GL156533  29.076   5.320   5.728
 4401POPC   GL256534  29.403   5.204   5.622
 4401POPC   C1A56535  29.048   5.119   6.134
 4401POPC   D2A56536  29.158   5.304   6.533
 4401POPC   C3A56537  28.925   5.163   6.915
 4401POPC   C4A56538  28.884   5.057   7.406
 4401POPC   C1B56539  29.522   5.242   6.060
 4401POPC   C2B56540  29.650   5.095   6.482
 4401POPC   C3B56541  29.451   5.118   6.912
 4401POPC   C4B56542  29.506   4.929   7.321
 4402POPC   NC356543   7.626  38.031   5.558
 4402POPC   PO456544   7.854  37.420   5.370
 4402POPC   GL156545   7.628  37.542   5.776
 4402POPC   GL256546   7.260  37.674   5.759
 4402POPC   C1A56547   7.463  37.564   6.221
 4402POPC   D2A56548   7.182  37.405   6.548
 4402POPC   C3A56549   7.337  37.554   6.929
 4402POPC   C4A56550   7.486  37.410   7.306
 4402POPC   C1B56551   7.054  37.854   6.147
 4402POPC   C2B56552   7.170  37.931   6.582
 4402POPC   C3B56553   7.189  38.076   7.000
 4402POPC   C4B56554   7.061  38.232   7.392
 4403POPC   NC356555  15.631  12.060   5.473
 4403POPC   PO456556  16.209  12.188   5.352
 4403POPC   GL156557  16.066  12.092   5.750
 4403POPC   GL256558  16.225  12.354   5.892
 4403POPC   C1A56559  16.031  11.933   6.177
 4403POPC   D2A56560  15.973  11.691   6.570
 4403POPC   C3A56561  15.726  11.906   6.845
 4403POPC   C4A56562  15.649  11.809   7.263
 4403POPC   C1B56563  16.158  12.422   6.304
 4403POPC   C2B56564  16.159  12.193   6.685
 4403POPC   C3B56565  16.125  12.072   7.123
 4403POPC   C4B56566  16.302  12.165   7.503
 4404POPC   NC356567  24.889  41.495   5.451
 4404POPC   PO456568  25.564  41.808   5.578
 4404POPC   GL156569  25.238  41.660   5.869
 4404POPC   GL256570  24.976  41.424   5.956
 4404POPC   C1A56571  25.374  41.507   6.269
 4404POPC   D2A56572  25.320  41.315   6.635
 4404POPC   C3A56573  25.519  41.503   6.946
 4404POPC   C4A56574  25.556  41.183   7.206
 4404POPC   C1B56575  24.889  41.293   6.377
 4404POPC   C2B56576  24.871  41.104   6.789
 4404POPC   C3B56577  25.052  41.288   7.166
 4404POPC   C4B56578  25.179  41.069   7.576
 4405POPC   NC356579   9.784  30.192   5.553
 4405POPC   PO456580   9.444  29.628   5.392
 4405POPC   GL156581   9.601  29.733   5.804
 4405POPC   GL256582   9.700  29.440   5.942
 4405POPC   C1A56583   9.512  29.965   6.209
 4405POPC   D2A56584   9.640  30.109   6.649
 4405POPC   C3A56585   9.480  29.890   7.036
 4405POPC   C4A56586   9.570  30.049   7.445
 4405POPC   C1B56587   9.926  29.653   6.258
 4405POPC   C2B56588  10.052  29.715   6.689
 4405POPC   C3B56589  10.005  29.990   7.057
 4405POPC   C4B56590  10.017  29.830   7.479
 4406POPC   NC356591  37.051   8.973   5.343
 4406POPC   PO456592  36.577   9.398   5.387
 4406POPC   GL156593  36.828   9.167   5.778
 4406POPC   GL256594  37.122   8.867   5.833
 4406POPC   C1A56595  36.907   9.102   6.248
 4406POPC   D2A56596  36.995   8.850   6.628
 4406POPC   C3A56597  36.895   9.031   7.029
 4406POPC   C4A56598  36.729   9.429   7.177
 4406POPC   C1B56599  37.341   8.720   6.227
 4406POPC   C2B56600  37.478   8.659   6.664
 4406POPC   C3B56601  37.211   8.639   7.067
 4406POPC   C4B56602  37.236   9.010   7.392
 4407POPC   NC356603  15.603  18.101   5.157
 4407POPC   PO456604  16.023  18.703   5.469
 4407POPC   GL156605  15.856  18.406   5.863
 4407POPC   GL256606  15.686  18.086   5.788
 4407POPC   C1A56607  16.043  18.170   6.184
 4407POPC   D2A56608  15.936  18.284   6.583
 4407POPC   C3A56609  16.124  18.092   6.891
 4407POPC   C4A56610  15.997  18.310   7.260
 4407POPC   C1B56611  15.539  18.085   6.196
 4407POPC   C2B56612  15.444  18.096   6.625
 4407POPC   C3B56613  15.648  17.967   7.012
 4407POPC   C4B56614  15.645  18.019   7.464
 4408POPC   NC356615  21.796  23.025   5.381
 4408POPC   PO456616  22.402  23.135   5.218
 4408POPC   GL156617  22.324  22.923   5.675
 4408POPC   GL256618  22.027  22.700   5.683
 4408POPC   C1A56619  22.127  22.988   6.125
 4408POPC   D2A56620  21.969  23.271   6.475
 4408POPC   C3A56621  22.002  23.100   6.911
 4408POPC   C4A56622  22.196  22.988   7.315
 4408POPC   C1B56623  21.871  22.550   6.081
 4408POPC   C2B56624  22.106  22.496   6.485
 4408POPC   C3B56625  22.205  22.613   6.912
 4408POPC   C4B56626  21.866  22.625   7.218
 4409POPC   NC356627  26.100   3.322   5.421
 4409POPC   PO456628  25.766   3.962   5.482
 4409POPC   GL156629  26.021   3.697   5.816
 4409POPC   GL256630  26.137   3.312   5.918
 4409POPC   C1A56631  25.990   3.642   6.275
 4409POPC   D2A56632  26.135   3.269   6.523
 4409POPC   C3A56633  26.151   3.430   6.937
 4409POPC   C4A56634  25.969   3.800   7.147
 4409POPC   C1B56635  25.750   3.209   6.155
 4409POPC   C2B56636  25.517   3.383   6.521
 4409POPC   C3B56637  25.610   3.397   6.956
 4409POPC   C4B56638  25.855   3.099   7.194
 4410POPC   NC356639  39.461  42.551   5.505
 4410POPC   PO456640  38.854  42.324   5.235
 4410POPC   GL156641  39.112  42.210   5.692
 4410POPC   GL256642  39.359  42.024   5.940
 4410POPC   C1A56643  39.144  42.437   6.147
 4410POPC   D2A56644  38.925  42.467   6.567
 4410POPC   C3A56645  39.132  42.285   6.934
 4410POPC   C4A56646  39.013  42.491   7.323
 4410POPC   C1B56647  39.695  42.084   6.295
 4410POPC   C2B56648  39.691  42.029   6.749
 4410POPC   C3B56649  39.775  42.132   7.145
 4410POPC   C4B56650  39.516  42.389   7.347
 4411POPC   NC356651  14.213  40.341   5.400
 4411POPC   PO456652  14.635  40.923   5.322
 4411POPC   GL156653  14.611  40.949   5.784
 4411POPC   GL256654  14.694  40.632   5.791
 4411POPC   C1A56655  14.504  40.944   6.246
 4411POPC   D2A56656  14.557  41.038   6.694
 4411POPC   C3A56657  14.355  40.816   7.040
 4411POPC   C4A56658  14.238  41.010   7.485
 4411POPC   C1B56659  14.588  40.449   6.172
 4411POPC   C2B56660  14.438  40.458   6.604
 4411POPC   C3B56661  14.680  40.424   6.980
 4411POPC   C4B56662  14.897  40.678   7.274
 4412POPC   NC356663  12.928  31.638   5.458
 4412POPC   PO456664  12.387  31.158   5.441
 4412POPC   GL156665  12.631  31.347   5.779
 4412POPC   GL256666  12.604  31.699   5.879
 4412POPC   C1A56667  12.853  31.319   6.171
 4412POPC   D2A56668  12.698  31.137   6.541
 4412POPC   C3A56669  12.752  31.348   6.907
 4412POPC   C4A56670  12.549  31.352   7.263
 4412POPC   C1B56671  13.018  31.814   6.089
 4412POPC   C2B56672  13.154  31.831   6.519
 4412POPC   C3B56673  13.091  31.710   6.943
 4412POPC   C4B56674  12.678  31.855   7.188
 4413POPC   NC356675  35.583   8.468   5.415
 4413POPC   PO456676  35.614   9.155   5.503
 4413POPC   GL156677  35.416   9.238   5.881
 4413POPC   GL256678  35.087   9.104   5.800
 4413POPC   C1A56679  35.447   9.060   6.290
 4413POPC   D2A56680  35.633   8.776   6.582
 4413POPC   C3A56681  35.474   8.789   7.021
 4413POPC   C4A56682  35.574   9.221   7.218
 4413POPC   C1B56683  34.988   9.274   6.209
 4413POPC   C2B56684  34.902   9.193   6.610
 4413POPC   C3B56685  35.135   9.181   6.938
 4413POPC   C4B56686  35.091   8.998   7.282
 4414POPC   NC356687   3.140   0.619   5.297
 4414POPC   PO456688   2.470   0.330   5.246
 4414POPC   GL156689   2.520   0.187   5.699
 4414POPC   GL256690   2.891   0.175   5.808
 4414POPC   C1A56691   2.539   0.321   6.148
 4414POPC   D2A56692   2.751   0.457   6.548
 4414POPC   C3A56693   2.699   0.301   6.970
 4414POPC   C4A56694   2.723   0.588   7.321
 4414POPC   C1B56695   2.992   0.093   6.247
 4414POPC   C2B56696   2.963  44.951   6.684
 4414POPC   C3B56697   3.143   0.075   7.062
 4414POPC   C4B56698   2.974   0.153   7.471
 4415POPC   NC356699  16.943   6.714   5.269
 4415POPC   PO456700  16.335   6.769   5.243
 4415POPC   GL156701  16.603   6.708   5.666
 4415POPC   GL256702  16.972   6.778   5.775
 4415POPC   C1A56703  16.563   6.787   6.112
 4415POPC   D2A56704  16.488   6.613   6.510
 4415POPC   C3A56705  16.362   6.856   6.852
 4415POPC   C4A56706  16.547   6.797   7.246
 4415POPC   C1B56707  17.034   6.535   6.155
 4415POPC   C2B56708  16.954   6.408   6.575
 4415POPC   C3B56709  17.009   6.632   6.963
 4415POPC   C4B56710  17.315   6.719   7.258
 4416POPC   NC356711  14.557  10.074   5.301
 4416POPC   PO456712  14.072   9.621   5.465
 4416POPC   GL156713  14.216   9.760   5.842
 4416POPC   GL256714  14.550   9.698   5.804
 4416POPC   C1A56715  14.317   9.571   6.247
 4416POPC   D2A56716  14.541   9.439   6.640
 4416POPC   C3A56717  14.431   9.657   7.010
 4416POPC   C4A56718  14.156   9.940   7.191
 4416POPC   C1B56719  14.773   9.836   6.194
 4416POPC   C2B56720  14.811  10.019   6.625
 4416POPC   C3B56721  14.603  10.178   6.991
 4416POPC   C4B56722  14.657  10.158   7.417
 4417POPC   NC356723  23.299  34.459   5.413
 4417POPC   PO456724  22.655  34.696   5.330
 4417POPC   GL156725  22.861  34.488   5.726
 4417POPC   GL256726  23.216  34.641   5.876
 4417POPC   C1A56727  22.911  34.387   6.175
 4417POPC   D2A56728  23.076  34.608   6.523
 4417POPC   C3A56729  22.846  34.440   6.870
 4417POPC   C4A56730  22.702  34.606   7.231
 4417POPC   C1B56731  23.437  34.888   6.200
 4417POPC   C2B56732  23.503  35.056   6.616
 4417POPC   C3B56733  23.416  34.885   7.020
 4417POPC   C4B56734  23.206  34.578   7.241
 4418POPC   NC356735   7.005   6.124   5.450
 4418POPC   PO456736   6.415   5.666   5.383
 4418POPC   GL156737   6.636   5.895   5.706
 4418POPC   GL256738   6.924   5.740   5.809
 4418POPC   C1A56739   6.559   5.936   6.130
 4418POPC   D2A56740   6.377   5.828   6.508
 4418POPC   C3A56741   6.478   5.982   6.883
 4418POPC   C4A56742   6.538   5.836   7.290
 4418POPC   C1B56743   7.040   5.944   6.210
 4418POPC   C2B56744   6.889   5.771   6.580
 4418POPC   C3B56745   6.971   5.897   6.980
 4418POPC   C4B56746   7.006   5.996   7.385
 4419POPC   NC356747  39.943   8.178   5.466
 4419POPC   PO456748  40.591   7.856   5.499
 4419POPC   GL156749  40.288   7.980   5.853
 4419POPC   GL256750  40.186   8.314   5.878
 4419POPC   C1A56751  40.129   8.055   6.306
 4419POPC   D2A56752  39.954   7.890   6.703
 4419POPC   C3A56753  40.296   7.881   7.009
 4419POPC   C4A56754  40.299   8.153   7.334
 4419POPC   C1B56755  39.740   8.322   6.084
 4419POPC   C2B56756  39.751   8.489   6.515
 4419POPC   C3B56757  39.955   8.428   6.898
 4419POPC   C4B56758  39.813   8.291   7.281
 4420POPC   NC356759  23.142   6.377   5.427
 4420POPC   PO456760  22.841   7.023   5.613
 4420POPC   GL156761  23.021   6.678   5.825
 4420POPC   GL256762  22.873   6.342   5.847
 4420POPC   C1A56763  23.187   6.643   6.245
 4420POPC   D2A56764  23.097   6.864   6.634
 4420POPC   C3A56765  23.045   6.685   7.022
 4420POPC   C4A56766  23.096   6.752   7.467
 4420POPC   C1B56767  22.630   6.218   6.190
 4420POPC   C2B56768  22.747   6.378   6.592
 4420POPC   C3B56769  22.807   6.218   6.976
 4420POPC   C4B56770  22.816   6.359   7.357
 4421POPC   NC356771   7.443  25.305   5.244
 4421POPC   PO456772   7.980  24.881   5.324
 4421POPC   GL156773   7.727  25.123   5.685
 4421POPC   GL256774   7.323  25.189   5.731
 4421POPC   C1A56775   7.666  25.320   6.111
 4421POPC   D2A56776   7.462  25.293   6.527
 4421POPC   C3A56777   7.716  25.224   6.884
 4421POPC   C4A56778   7.542  25.258   7.269
 4421POPC   C1B56779   7.239  25.020   6.129
 4421POPC   C2B56780   7.069  24.936   6.536
 4421POPC   C3B56781   7.230  25.012   6.930
 4421POPC   C4B56782   7.173  24.905   7.349
 4422POPC   NC356783   5.980  38.562   5.295
 4422POPC   PO456784   5.600  38.015   5.266
 4422POPC   GL156785   5.690  38.343   5.656
 4422POPC   GL256786   6.054  38.499   5.794
 4422POPC   C1A56787   5.616  38.704   5.949
 4422POPC   D2A56788   5.722  38.730   6.399
 4422POPC   C3A56789   5.543  38.553   6.759
 4422POPC   C4A56790   5.676  38.471   7.176
 4422POPC   C1B56791   6.213  38.506   6.248
 4422POPC   C2B56792   6.089  38.514   6.700
 4422POPC   C3B56793   6.221  38.473   7.121
 4422POPC   C4B56794   6.044  38.289   7.505
 4423POPC   NC356795   3.782  41.729   5.727
 4423POPC   PO456796   4.111  41.304   5.272
 4423POPC   GL156797   4.255  41.496   5.722
 4423POPC   GL256798   4.258  41.300   6.046
 4423POPC   C1A56799   4.421  41.766   6.112
 4423POPC   D2A56800   4.469  41.788   6.588
 4423POPC   C3A56801   4.116  41.657   6.892
 4423POPC   C4A56802   4.185  41.653   7.345
 4423POPC   C1B56803   4.566  41.142   6.325
 4423POPC   C2B56804   4.432  41.271   6.697
 4423POPC   C3B56805   4.542  41.435   7.058
 4423POPC   C4B56806   4.546  41.232   7.441
 4424POPC   NC356807  15.876   5.663   5.539
 4424POPC   PO456808  16.332   6.265   5.577
 4424POPC   GL156809  16.016   6.097   5.837
 4424POPC   GL256810  16.171   5.789   5.960
 4424POPC   C1A56811  15.733   6.042   6.201
 4424POPC   D2A56812  15.935   5.975   6.594
 4424POPC   C3A56813  15.711   5.963   6.966
 4424POPC   C4A56814  15.903   6.072   7.294
 4424POPC   C1B56815  15.856   5.528   6.214
 4424POPC   C2B56816  15.807   5.475   6.663
 4424POPC   C3B56817  16.056   5.586   7.009
 4424POPC   C4B56818  15.802   5.580   7.332
 4425POPC   NC356819   8.723  40.806   5.346
 4425POPC   PO456820   9.377  40.650   5.298
 4425POPC   GL156821   9.126  40.658   5.679
 4425POPC   GL256822   8.771  40.520   5.761
 4425POPC   C1A56823   9.233  40.628   6.099
 4425POPC   D2A56824   9.143  40.806   6.494
 4425POPC   C3A56825   9.290  40.725   6.911
 4425POPC   C4A56826   9.143  40.446   7.216
 4425POPC   C1B56827   8.718  40.769   6.136
 4425POPC   C2B56828   8.641  40.930   6.528
 4425POPC   C3B56829   8.789  40.679   6.874
 4425POPC   C4B56830   8.685  40.637   7.293
 4426POPC   NC356831   0.307  33.763   5.432
 4426POPC   PO456832   0.923  33.518   5.341
 4426POPC   GL156833   0.705  33.702   5.765
 4426POPC   GL256834   0.541  34.042   5.780
 4426POPC   C1A56835   0.402  33.696   6.156
 4426POPC   D2A56836   0.287  33.541   6.594
 4426POPC   C3A56837   0.533  33.720   6.950
 4426POPC   C4A56838   0.365  33.668   7.381
 4426POPC   C1B56839   0.376  34.228   6.179
 4426POPC   C2B56840   0.334  34.135   6.632
 4426POPC   C3B56841   0.126  34.025   7.026
 4426POPC   C4B56842   0.138  34.137   7.463
 4427POPC   NC356843  23.583   2.552   5.559
 4427POPC   PO456844  24.024   2.992   5.364
 4427POPC   GL156845  23.948   2.843   5.814
 4427POPC   GL256846  23.602   2.897   5.944
 4427POPC   C1A56847  23.909   2.665   6.264
 4427POPC   D2A56848  24.018   2.659   6.704
 4427POPC   C3A56849  23.694   2.749   7.003
 4427POPC   C4A56850  23.702   2.663   7.432
 4427POPC   C1B56851  23.672   3.146   6.310
 4427POPC   C2B56852  23.410   2.997   6.636
 4427POPC   C3B56853  23.236   3.076   7.014
 4427POPC   C4B56854  23.395   3.413   7.224
 4428POPC   NC356855  15.398  44.951   5.114
 4428POPC   PO456856  14.911  44.670   5.541
 4428POPC   GL156857  15.076  44.658   5.929
 4428POPC   GL256858  15.389  44.790   5.878
 4428POPC   C1A56859  15.056  44.564   6.363
 4428POPC   D2A56860  14.949  44.480   6.775
 4428POPC   C3A56861  15.249  44.538   7.111
 4428POPC   C4A56862  15.170  44.805   7.463
 4428POPC   C1B56863  15.519  44.853   6.258
 4428POPC   C2B56864  15.349  44.873   6.665
 4428POPC   C3B56865  15.444  44.996   7.049
 4428POPC   C4B56866  15.663  44.901   7.412
 4429POPC   NC356867  44.566   4.489   5.524
 4429POPC   PO456868  44.625   3.877   5.339
 4429POPC   GL156869  44.543   4.026   5.748
 4429POPC   GL256870  44.865   4.194   5.832
 4429POPC   C1A56871  44.498   4.162   6.173
 4429POPC   D2A56872  44.673   4.302   6.555
 4429POPC   C3A56873  44.581   4.147   6.957
 4429POPC   C4A56874  44.515   4.295   7.337
 4429POPC   C1B56875  44.885   4.558   6.137
 4429POPC   C2B56876  44.970   4.716   6.571
 4429POPC   C3B56877  44.814   4.644   7.003
 4429POPC   C4B56878   0.097   4.627   7.358
 4430POPC   NC356879   4.022  24.336   5.578
 4430POPC   PO456880   4.626  24.489   5.400
 4430POPC   GL156881   4.446  24.620   5.793
 4430POPC   GL256882   4.609  24.945   5.793
 4430POPC   C1A56883   4.286  24.506   6.224
 4430POPC   D2A56884   4.114  24.434   6.648
 4430POPC   C3A56885   4.295  24.587   7.000
 4430POPC   C4A56886   4.141  24.493   7.441
 4430POPC   C1B56887   4.670  24.863   6.249
 4430POPC   C2B56888   4.745  24.926   6.719
 4430POPC   C3B56889   4.664  24.893   7.175
 4430POPC   C4B56890   4.497  24.824   7.590
 4431POPC   NC356891  31.778  29.782   5.559
 4431POPC   PO456892  31.166  30.054   5.469
 4431POPC   GL156893  31.296  29.865   5.836
 4431POPC   GL256894  31.523  30.120   5.870
 4431POPC   C1A56895  31.341  29.899   6.307
 4431POPC   D2A56896  31.189  30.065   6.718
 4431POPC   C3A56897  31.350  29.833   7.071
 4431POPC   C4A56898  31.428  29.887   7.499
 4431POPC   C1B56899  31.662  30.329   6.224
 4431POPC   C2B56900  31.527  30.448   6.643
 4431POPC   C3B56901  31.510  30.315   7.100
 4431POPC   C4B56902  31.784  30.287   7.454
 4432POPC   NC356903  34.979  39.125   5.526
 4432POPC   PO456904  34.350  39.476   5.418
 4432POPC   GL156905  34.548  39.348   5.789
 4432POPC   GL256906  34.487  39.015   5.726
 4432POPC   C1A56907  34.392  39.264   6.197
 4432POPC   D2A56908  34.336  39.413   6.597
 4432POPC   C3A56909  34.593  39.273   6.904
 4432POPC   C4A56910  34.462  39.203   7.302
 4432POPC   C1B56911  34.762  38.938   6.102
 4432POPC   C2B56912  34.695  38.910   6.557
 4432POPC   C3B56913  34.899  38.878   6.992
 4432POPC   C4B56914  34.835  38.927   7.477
 4433POPC   NC356915  33.659  11.620   5.505
 4433POPC   PO456916  34.182  11.226   5.526
 4433POPC   GL156917  33.811  11.153   5.771
 4433POPC   GL256918  33.682  11.414   5.946
 4433POPC   C1A56919  33.789  11.026   6.224
 4433POPC   D2A56920  34.147  11.026   6.506
 4433POPC   C3A56921  34.019  11.118   6.913
 4433POPC   C4A56922  33.660  11.098   7.119
 4433POPC   C1B56923  33.595  11.693   6.246
 4433POPC   C2B56924  33.406  11.771   6.629
 4433POPC   C3B56925  33.591  11.779   7.029
 4433POPC   C4B56926  33.834  11.542   7.315
 4434POPC   NC356927  23.456  40.806   5.350
 4434POPC   PO456928  23.990  40.409   5.581
 4434POPC   GL156929  23.884  40.741   5.850
 4434POPC   GL256930  23.587  40.949   5.852
 4434POPC   C1A56931  23.974  40.739   6.292
 4434POPC   D2A56932  24.001  40.917   6.705
 4434POPC   C3A56933  23.863  40.660   7.066
 4434POPC   C4A56934  23.818  40.340   7.427
 4434POPC   C1B56935  23.729  41.188   6.245
 4434POPC   C2B56936  23.614  41.218   6.696
 4434POPC   C3B56937  23.768  41.184   7.132
 4434POPC   C4B56938  23.615  41.247   7.562
 4435POPC   NC356939  13.742  20.250   5.595
 4435POPC   PO456940  13.377  19.614   5.487
 4435POPC   GL156941  13.460  19.739   5.898
 4435POPC   GL256942  13.817  19.828   5.903
 4435POPC   C1A56943  13.466  19.756   6.342
 4435POPC   D2A56944  13.691  19.798   6.712
 4435POPC   C3A56945  13.475  19.878   7.086
 4435POPC   C4A56946  13.617  19.735   7.481
 4435POPC   C1B56947  13.695  20.177   6.219
 4435POPC   C2B56948  13.803  20.315   6.608
 4435POPC   C3B56949  13.889  20.192   7.030
 4435POPC   C4B56950  13.668  20.275   7.420
 4436POPC   NC356951   1.716  35.328   5.605
 4436POPC   PO456952   2.172  34.950   5.305
 4436POPC   GL156953   2.186  34.993   5.768
 4436POPC   GL256954   2.204  35.356   5.859
 4436POPC   C1A56955   2.004  35.034   6.192
 4436POPC   D2A56956   1.757  35.114   6.542
 4436POPC   C3A56957   1.994  35.151   6.886
 4436POPC   C4A56958   1.873  35.087   7.290
 4436POPC   C1B56959   1.984  35.566   6.228
 4436POPC   C2B56960   1.810  35.591   6.678
 4436POPC   C3B56961   1.955  35.586   7.144
 4436POPC   C4B56962   2.404  35.486   7.242
 4437POPC   NC356963  29.163  24.066   5.436
 4437POPC   PO456964  29.429  24.732   5.378
 4437POPC   GL156965  29.314  24.477   5.753
 4437POPC   GL256966  28.979  24.471   5.760
 4437POPC   C1A56967  29.336  24.319   6.207
 4437POPC   D2A56968  29.092  24.392   6.617
 4437POPC   C3A56969  29.283  24.447   7.034
 4437POPC   C4A56970  29.389  24.045   7.115
 4437POPC   C1B56971  28.840  24.543   6.181
 4437POPC   C2B56972  28.815  24.818   6.552
 4437POPC   C3B56973  28.888  24.750   7.003
 4437POPC   C4B56974  28.902  24.574   7.435
 4438POPC   NC356975  23.736  12.677   4.871
 4438POPC   PO456976  23.969  13.132   5.373
 4438POPC   GL156977  23.861  12.900   5.741
 4438POPC   GL256978  23.594  12.685   5.612
 4438POPC   C1A56979  23.895  13.001   6.204
 4438POPC   D2A56980  23.764  13.251   6.579
 4438POPC   C3A56981  23.499  13.087   6.912
 4438POPC   C4A56982  23.611  12.961   7.320
 4438POPC   C1B56983  23.540  12.666   6.082
 4438POPC   C2B56984  23.599  12.745   6.538
 4438POPC   C3B56985  23.697  12.584   6.959
 4438POPC   C4B56986  23.653  12.450   7.386
 4439POPC   NC356987  37.424  37.043   5.431
 4439POPC   PO456988  38.017  36.753   5.476
 4439POPC   GL156989  37.840  36.979   5.818
 4439POPC   GL256990  37.533  36.843   5.902
 4439POPC   C1A56991  37.859  36.999   6.280
 4439POPC   D2A56992  37.789  37.270   6.644
 4439POPC   C3A56993  37.909  37.092   7.041
 4439POPC   C4A56994  37.847  36.934   7.488
 4439POPC   C1B56995  37.392  37.185   6.142
 4439POPC   C2B56996  37.291  37.183   6.561
 4439POPC   C3B56997  37.424  37.037   6.975
 4439POPC   C4B56998  37.265  37.045   7.390
 4440POPC   NC356999   3.941  19.982   5.420
 4440POPC   PO457000   3.301  19.782   5.403
 4440POPC   GL157001   3.617  19.696   5.745
 4440POPC   GL257002   3.781  20.002   5.882
 4440POPC   C1A57003   3.538  19.720   6.229
 4440POPC   D2A57004   3.256  19.854   6.549
 4440POPC   C3A57005   3.431  19.971   6.948
 4440POPC   C4A57006   3.555  19.879   7.350
 4440POPC   C1B57007   4.004  20.057   6.229
 4440POPC   C2B57008   3.869  19.939   6.656
 4440POPC   C3B57009   3.933  20.133   7.095
 4440POPC   C4B57010   3.976  20.025   7.559
 4441POPC   NC357011  44.069  16.132   5.447
 4441POPC   PO457012  43.759  15.591   5.459
 4441POPC   GL157013  43.768  15.868   5.801
 4441POPC   GL257014  43.610  16.193   5.722
 4441POPC   C1A57015  44.054  15.949   6.177
 4441POPC   D2A57016  44.260  15.796   6.576
 4441POPC   C3A57017  44.035  15.823   6.979
 4441POPC   C4A57018  43.676  15.561   7.069
 4441POPC   C1B57019  43.565  16.140   6.181
 4441POPC   C2B57020  43.730  15.955   6.582
 4441POPC   C3B57021  43.589  16.068   7.004
 4441POPC   C4B57022  43.587  16.233   7.405
 4442POPC   NC357023   6.975   6.799   5.277
 4442POPC   PO457024   6.548   6.308   5.414
 4442POPC   GL157025   6.749   6.573   5.703
 4442POPC   GL257026   6.899   6.336   5.895
 4442POPC   C1A57027   6.578   6.878   6.016
 4442POPC   D2A57028   6.483   6.909   6.481
 4442POPC   C3A57029   6.441   6.742   6.924
 4442POPC   C4A57030   6.316   6.947   7.328
 4442POPC   C1B57031   6.652   6.423   6.228
 4442POPC   C2B57032   6.773   6.278   6.591
 4442POPC   C3B57033   6.848   6.399   6.984
 4442POPC   C4B57034   6.542   6.338   7.249
 4443POPC   NC357035   6.353  27.406   5.497
 4443POPC   PO457036   6.729  27.897   5.302
 4443POPC   GL157037   6.605  27.783   5.730
 4443POPC   GL257038   6.801  27.471   5.796
 4443POPC   C1A57039   6.697  27.922   6.159
 4443POPC   D2A57040   6.978  27.827   6.515
 4443POPC   C3A57041   6.790  27.863   6.931
 4443POPC   C4A57042   6.764  27.556   7.268
 4443POPC   C1B57043   6.549  27.429   6.158
 4443POPC   C2B57044   6.526  27.600   6.548
 4443POPC   C3B57045   6.527  27.343   6.867
 4443POPC   C4B57046   6.418  27.195   7.249
 4444POPC   NC357047  31.504  35.139   5.479
 4444POPC   PO457048  31.813  35.750   5.348
 4444POPC   GL157049  31.649  35.564   5.739
 4444POPC   GL257050  31.849  35.669   5.971
 4444POPC   C1A57051  31.519  35.277   6.130
 4444POPC   D2A57052  31.459  35.187   6.585
 4444POPC   C3A57053  31.099  35.286   6.859
 4444POPC   C4A57054  31.130  35.263   7.289
 4444POPC   C1B57055  31.430  35.784   6.185
 4444POPC   C2B57056  31.313  35.676   6.623
 4444POPC   C3B57057  31.574  35.515   6.987
 4444POPC   C4B57058  31.761  35.720   7.342
 4445POPC   NC357059  23.657  25.540   5.414
 4445POPC   PO457060  23.489  24.856   5.306
 4445POPC   GL157061  23.816  24.900   5.686
 4445POPC   GL257062  23.757  25.223   5.820
 4445POPC   C1A57063  24.081  24.961   6.122
 4445POPC   D2A57064  24.118  25.184   6.556
 4445POPC   C3A57065  23.774  25.096   6.858
 4445POPC   C4A57066  23.792  25.192   7.324
 4445POPC   C1B57067  23.831  25.432   6.213
 4445POPC   C2B57068  23.603  25.552   6.584
 4445POPC   C3B57069  23.698  25.592   7.013
 4445POPC   C4B57070  24.097  25.656   7.179
 4446POPC   NC357071  44.218  30.789   5.400
 4446POPC   PO457072  43.584  30.824   5.414
 4446POPC   GL157073  43.775  30.703   5.835
 4446POPC   GL257074  44.164  30.623   5.881
 4446POPC   C1A57075  43.610  30.606   6.257
 4446POPC   D2A57076  43.741  30.394   6.662
 4446POPC   C3A57077  43.618  30.629   7.041
 4446POPC   C4A57078  43.778  30.886   7.375
 4446POPC   C1B57079  44.078  30.803   6.303
 4446POPC   C2B57080  43.992  30.847   6.756
 4446POPC   C3B57081  44.231  30.895   7.154
 4446POPC   C4B57082  44.218  31.057   7.620
 4447POPC   NC357083  35.398  32.308   5.333
 4447POPC   PO457084  34.688  32.481   5.529
 4447POPC   GL157085  35.044  32.233   5.794
 4447POPC   GL257086  35.379  32.359   5.845
 4447POPC   C1A57087  35.275  32.040   6.212
 4447POPC   D2A57088  35.317  31.947   6.665
 4447POPC   C3A57089  35.621  32.026   7.037
 4447POPC   C4A57090  35.492  32.259   7.438
 4447POPC   C1B57091  35.504  32.505   6.242
 4447POPC   C2B57092  35.561  32.391   6.673
 4447POPC   C3B57093  35.264  32.377   6.991
 4447POPC   C4B57094  35.149  32.626   7.373
 4448POPC   NC357095  40.250  33.775   5.429
 4448POPC   PO457096  39.673  33.846   5.176
 4448POPC   GL157097  39.757  33.674   5.627
 4448POPC   GL257098  39.948  33.939   5.793
 4448POPC   C1A57099  39.895  33.532   6.093
 4448POPC   D2A57100  39.988  33.758   6.520
 4448POPC   C3A57101  40.050  33.532   6.970
 4448POPC   C4A57102  39.994  33.482   7.433
 4448POPC   C1B57103  40.131  34.154   6.125
 4448POPC   C2B57104  40.278  34.191   6.542
 4448POPC   C3B57105  40.159  34.036   6.933
 4448POPC   C4B57106  40.057  33.969   7.339
 4449POPC   NC357107  35.513  27.308   5.344
 4449POPC   PO457108  34.998  27.720   5.569
 4449POPC   GL157109  35.295  27.569   5.875
 4449POPC   GL257110  35.636  27.665   5.804
 4449POPC   C1A57111  35.286  27.595   6.325
 4449POPC   D2A57112  35.350  27.848   6.704
 4449POPC   C3A57113  35.096  27.717   7.053
 4449POPC   C4A57114  35.225  27.411   7.357
 4449POPC   C1B57115  35.777  27.437   6.193
 4449POPC   C2B57116  35.625  27.373   6.624
 4449POPC   C3B57117  35.594  27.512   7.027
 4449POPC   C4B57118  35.745  27.385   7.442
 4450POPC   NC357119   4.129  40.537   5.219
 4450POPC   PO457120   4.401  40.995   5.692
 4450POPC   GL157121   4.306  40.628   5.921
 4450POPC   GL257122   3.929  40.616   6.056
 4450POPC   C1A57123   4.627  40.485   6.224
 4450POPC   D2A57124   4.784  40.303   6.618
 4450POPC   C3A57125   4.550  40.409   7.048
 4450POPC   C4A57126   4.129  40.577   7.070
 4450POPC   C1B57127   4.184  40.795   6.384
 4450POPC   C2B57128   4.541  40.755   6.664
 4450POPC   C3B57129   4.525  40.916   7.054
 4450POPC   C4B57130   4.114  41.136   7.160
 4451POPC   NC357131  39.211  39.364   5.294
 4451POPC   PO457132  39.537  38.847   5.558
 4451POPC   GL157133  39.250  39.121   5.848
 4451POPC   GL257134  39.059  39.438   5.786
 4451POPC   C1A57135  39.147  39.209   6.274
 4451POPC   D2A57136  39.238  39.179   6.708
 4451POPC   C3A57137  38.887  39.168   6.996
 4451POPC   C4A57138  39.019  38.880   7.318
 4451POPC   C1B57139  39.433  39.581   6.031
 4451POPC   C2B57140  39.549  39.514   6.462
 4451POPC   C3B57141  39.547  39.543   6.912
 4451POPC   C4B57142  39.312  39.308   7.231
 4452POPC   NC357143   5.572  25.258   5.656
 4452POPC   PO457144   6.127  25.040   5.405
 4452POPC   GL157145   6.105  25.091   5.854
 4452POPC   GL257146   6.443  24.969   5.937
 4452POPC   C1A57147   5.908  25.347   6.222
 4452POPC   D2A57148   5.670  25.400   6.623
 4452POPC   C3A57149   5.620  25.074   6.938
 4452POPC   C4A57150   5.620  25.281   7.342
 4452POPC   C1B57151   6.406  24.989   6.369
 4452POPC   C2B57152   6.074  25.105   6.631
 4452POPC   C3B57153   6.065  25.311   7.012
 4452POPC   C4B57154   6.416  25.202   7.265
 4453POPC   NC357155  32.619  16.080   5.543
 4453POPC   PO457156  32.023  15.826   5.485
 4453POPC   GL157157  32.224  15.938   5.848
 4453POPC   GL257158  32.523  15.741   5.918
 4453POPC   C1A57159  32.071  16.046   6.230
 4453POPC   D2A57160  32.081  15.850   6.597
 4453POPC   C3A57161  31.965  16.107   6.915
 4453POPC   C4A57162  32.128  16.012   7.281
 4453POPC   C1B57163  32.580  16.057   6.243
 4453POPC   C2B57164  32.451  16.201   6.646
 4453POPC   C3B57165  32.606  16.123   7.059
 4453POPC   C4B57166  32.616  15.914   7.442
 4454POPC   NC357167   9.179  11.948   5.373
 4454POPC   PO457168   9.362  12.615   5.525
 4454POPC   GL157169   9.180  12.276   5.800
 4454POPC   GL257170   9.179  11.916   5.879
 4454POPC   C1A57171   9.038  12.274   6.261
 4454POPC   D2A57172   8.653  12.241   6.526
 4454POPC   C3A57173   8.623  11.991   6.926
 4454POPC   C4A57174   8.766  12.008   7.379
 4454POPC   C1B57175   9.329  11.853   6.289
 4454POPC   C2B57176   9.157  11.858   6.730
 4454POPC   C3B57177   9.237  11.917   7.201
 4454POPC   C4B57178   9.160  11.781   7.648
 4455POPC   NC357179  34.672  18.757   5.406
 4455POPC   PO457180  34.383  19.323   5.497
 4455POPC   GL157181  34.641  19.118   5.774
 4455POPC   GL257182  34.399  18.914   5.889
 4455POPC   C1A57183  34.935  18.938   6.054
 4455POPC   D2A57184  35.093  19.104   6.447
 4455POPC   C3A57185  34.903  18.950   6.815
 4455POPC   C4A57186  34.772  19.005   7.223
 4455POPC   C1B57187  34.508  19.068   6.310
 4455POPC   C2B57188  34.379  19.000   6.736
 4455POPC   C3B57189  34.306  19.165   7.145
 4455POPC   C4B57190  34.211  19.009   7.556
 4456POPC   NC357191  40.689  44.438   5.245
 4456POPC   PO457192  40.639   0.019   5.540
 4456POPC   GL157193  40.716  44.709   5.861
 4456POPC   GL257194  40.948  44.425   5.755
 4456POPC   C1A57195  40.564  44.736   6.298
 4456POPC   D2A57196  40.723  44.929   6.664
 4456POPC   C3A57197  40.616  44.758   7.074
 4456POPC   C4A57198  40.767  44.644   7.502
 4456POPC   C1B57199  40.854  44.312   6.202
 4456POPC   C2B57200  40.802  44.420   6.657
 4456POPC   C3B57201  40.784  44.272   7.073
 4456POPC   C4B57202  40.449  44.313   7.322
 4457POPC   NC357203  13.865  44.589   5.438
 4457POPC   PO457204  13.170  44.551   5.521
 4457POPC   GL157205  13.453  44.832   5.793
 4457POPC   GL257206  13.838  44.840   5.892
 4457POPC   C1A57207  13.449  44.705   6.232
 4457POPC   D2A57208  13.673  44.555   6.587
 4457POPC   C3A57209  13.432  44.700   6.921
 4457POPC   C4A57210  13.468  44.744   7.345
 4457POPC   C1B57211  13.851   0.005   6.333
 4457POPC   C2B57212  13.766   0.055   6.761
 4457POPC   C3B57213  13.924  44.803   7.091
 4457POPC   C4B57214  14.002  44.874   7.552
 4458POPC   NC357215  22.321  26.840   5.297
 4458POPC   PO457216  21.776  26.520   5.184
 4458POPC   GL157217  21.897  26.615   5.673
 4458POPC   GL257218  22.262  26.679   5.793
 4458POPC   C1A57219  21.919  26.777   6.155
 4458POPC   D2A57220  22.241  26.922   6.505
 4458POPC   C3A57221  22.227  27.018   6.961
 4458POPC   C4A57222  22.015  26.817   7.312
 4458POPC   C1B57223  22.447  26.565   6.230
 4458POPC   C2B57224  22.503  26.405   6.680
 4458POPC   C3B57225  22.458  26.596   7.081
 4458POPC   C4B57226  22.428  26.660   7.536
 4459POPC   NC357227  43.483  10.625   5.377
 4459POPC   PO457228  44.101  10.533   5.240
 4459POPC   GL157229  43.837  10.480   5.704
 4459POPC   GL257230  43.992  10.696   6.004
 4459POPC   C1A57231  43.543  10.530   6.079
 4459POPC   D2A57232  43.750  10.629   6.455
 4459POPC   C3A57233  43.534  10.729   6.793
 4459POPC   C4A57234  43.563  10.577   7.207
 4459POPC   C1B57235  44.247  10.613   6.359
 4459POPC   C2B57236  44.219  10.375   6.719
 4459POPC   C3B57237  44.102  10.463   7.130
 4459POPC   C4B57238  44.371  10.418   7.512
 4460POPC   NC357239  18.616  23.816   5.615
 4460POPC   PO457240  19.120  23.354   5.423
 4460POPC   GL157241  19.197  23.632   5.797
 4460POPC   GL257242  19.023  23.985   5.857
 4460POPC   C1A57243  19.043  23.630   6.233
 4460POPC   D2A57244  18.893  23.406   6.601
 4460POPC   C3A57245  19.153  23.550   6.949
 4460POPC   C4A57246  19.260  23.907   7.239
 4460POPC   C1B57247  18.720  24.043   6.232
 4460POPC   C2B57248  18.869  23.931   6.643
 4460POPC   C3B57249  18.736  23.831   7.045
 4460POPC   C4B57250  18.787  24.063   7.384
 4461POPC   NC357251  10.993  39.385   5.397
 4461POPC   PO457252  11.516  38.913   5.566
 4461POPC   GL157253  11.286  39.247   5.802
 4461POPC   GL257254  10.937  39.103   5.851
 4461POPC   C1A57255  11.288  39.494   6.203
 4461POPC   D2A57256  11.354  39.318   6.647
 4461POPC   C3A57257  11.333  39.495   7.066
 4461POPC   C4A57258  11.424  39.274   7.466
 4461POPC   C1B57259  10.977  39.084   6.323
 4461POPC   C2B57260  11.198  38.823   6.666
 4461POPC   C3B57261  11.226  38.977   7.080
 4461POPC   C4B57262  10.836  39.000   7.294
 4462POPC   NC357263  16.140  11.029   5.483
 4462POPC   PO457264  15.814  11.638   5.514
 4462POPC   GL157265  15.853  11.319   5.805
 4462POPC   GL257266  16.214  11.397   5.839
 4462POPC   C1A57267  15.842  11.256   6.255
 4462POPC   D2A57268  15.688  11.094   6.664
 4462POPC   C3A57269  15.711  11.357   7.031
 4462POPC   C4A57270  15.774  11.351   7.506
 4462POPC   C1B57271  16.313  11.486   6.248
 4462POPC   C2B57272  16.226  11.195   6.595
 4462POPC   C3B57273  16.221  11.145   7.047
 4462POPC   C4B57274  16.159  11.572   7.193
 4463POPC   NC357275  23.461  19.178   5.365
 4463POPC   PO457276  24.011  18.737   5.332
 4463POPC   GL157277  23.911  19.037   5.726
 4463POPC   GL257278  23.579  19.233   5.857
 4463POPC   C1A57279  23.980  19.113   6.190
 4463POPC   D2A57280  24.012  19.025   6.670
 4463POPC   C3A57281  23.631  18.981   6.919
 4463POPC   C4A57282  23.528  18.996   7.340
 4463POPC   C1B57283  23.572  19.405   6.289
 4463POPC   C2B57284  23.707  19.453   6.735
 4463POPC   C3B57285  23.373  19.426   7.084
 4463POPC   C4B57286  23.215  19.364   7.516
 4464POPC   NC357287  11.534  30.133   4.975
 4464POPC   PO457288  11.117  29.863   5.427
 4464POPC   GL157289  11.415  29.929   5.763
 4464POPC   GL257290  11.256  30.209   5.849
 4464POPC   C1A57291  11.624  29.974   6.182
 4464POPC   D2A57292  11.468  29.975   6.596
 4464POPC   C3A57293  11.620  30.032   6.993
 4464POPC   C4A57294  11.382  29.907   7.298
 4464POPC   C1B57295  11.097  29.937   6.175
 4464POPC   C2B57296  10.975  30.075   6.548
 4464POPC   C3B57297  11.053  30.037   6.941
 4464POPC   C4B57298  11.131  30.353   7.206
 4465POPC   NC357299  12.592  37.831   5.501
 4465POPC   PO457300  13.144  38.011   5.188
 4465POPC   GL157301  13.033  37.664   5.704
 4465POPC   GL257302  12.737  37.486   5.854
 4465POPC   C1A57303  12.736  37.828   6.208
 4465POPC   D2A57304  12.566  37.947   6.660
 4465POPC   C3A57305  12.706  37.726   7.071
 4465POPC   C4A57306  13.063  37.742   7.371
 4465POPC   C1B57307  12.935  37.377   6.264
 4465POPC   C2B57308  13.022  37.656   6.620
 4465POPC   C3B57309  13.169  37.463   6.978
 4465POPC   C4B57310  12.914  37.166   7.234
 4466POPC   NC357311  10.433   2.914   5.527
 4466POPC   PO457312  10.646   2.276   5.449
 4466POPC   GL157313  10.441   2.519   5.818
 4466POPC   GL257314  10.742   2.593   5.939
 4466POPC   C1A57315  10.389   2.870   6.182
 4466POPC   D2A57316  10.675   2.839   6.555
 4466POPC   C3A57317  10.554   2.974   7.003
 4466POPC   C4A57318  10.534   2.916   7.476
 4466POPC   C1B57319  10.450   2.379   6.286
 4466POPC   C2B57320  10.271   2.534   6.656
 4466POPC   C3B57321  10.278   2.545   7.065
 4466POPC   C4B57322  10.691   2.500   7.233
 4467POPC   NC357323   0.153  28.152   5.428
 4467POPC   PO457324   0.881  28.088   5.456
 4467POPC   GL157325   0.542  28.154   5.779
 4467POPC   GL257326   0.399  28.506   5.732
 4467POPC   C1A57327   0.358  28.273   6.195
 4467POPC   D2A57328   0.208  28.383   6.635
 4467POPC   C3A57329   0.363  28.284   7.064
 4467POPC   C4A57330   0.698  27.977   7.175
 4467POPC   C1B57331   0.767  28.558   6.029
 4467POPC   C2B57332   0.817  28.792   6.414
 4467POPC   C3B57333   0.678  28.621   6.796
 4467POPC   C4B57334   0.843  28.488   7.196
 4468POPC   NC357335  39.085  38.737   5.582
 4468POPC   PO457336  39.096  38.138   5.609
 4468POPC   GL157337  39.095  38.379   5.931
 4468POPC   GL257338  39.442  38.481   5.908
 4468POPC   C1A57339  39.154  38.684   6.267
 4468POPC   D2A57340  39.303  38.669   6.700
 4468POPC   C3A57341  39.036  38.452   6.956
 4468POPC   C4A57342  38.926  38.363   7.360
 4468POPC   C1B57343  39.560  38.386   6.314
 4468POPC   C2B57344  39.520  38.201   6.705
 4468POPC   C3B57345  39.505  38.360   7.118
 4468POPC   C4B57346  39.516  38.743   7.316
 4469POPC   NC357347  12.567  21.914   5.526
 4469POPC   PO457348  13.234  22.231   5.327
 4469POPC   GL157349  13.030  22.206   5.772
 4469POPC   GL257350  12.849  22.508   5.921
 4469POPC   C1A57351  12.959  22.121   6.232
 4469POPC   D2A57352  12.923  22.338   6.647
 4469POPC   C3A57353  13.034  22.084   6.988
 4469POPC   C4A57354  12.861  21.833   7.313
 4469POPC   C1B57355  12.589  22.525   6.313
 4469POPC   C2B57356  12.435  22.582   6.763
 4469POPC   C3B57357  12.540  22.481   7.223
 4469POPC   C4B57358  12.477  22.621   7.691
 4470POPC   NC357359  13.885  27.574   5.435
 4470POPC   PO457360  13.299  27.975   5.501
 4470POPC   GL157361  13.648  27.967   5.811
 4470POPC   GL257362  14.017  27.851   5.832
 4470POPC   C1A57363  13.621  27.819   6.259
 4470POPC   D2A57364  13.317  27.536   6.491
 4470POPC   C3A57365  13.291  27.507   6.945
 4470POPC   C4A57366  13.416  27.306   7.342
 4470POPC   C1B57367  14.065  27.582   6.223
 4470POPC   C2B57368  13.828  27.555   6.651
 4470POPC   C3B57369  13.810  27.556   7.115
 4470POPC   C4B57370  13.914  27.232   7.454
 4471POPC   NC357371   9.431   3.671   5.540
 4471POPC   PO457372   8.729   3.606   5.469
 4471POPC   GL157373   8.993   3.392   5.784
 4471POPC   GL257374   9.105   3.665   5.971
 4471POPC   C1A57375   9.140   3.209   6.199
 4471POPC   D2A57376   9.071   3.462   6.570
 4471POPC   C3A57377   9.073   3.443   7.019
 4471POPC   C4A57378   9.189   3.353   7.462
 4471POPC   C1B57379   8.738   3.815   6.219
 4471POPC   C2B57380   8.677   3.949   6.650
 4471POPC   C3B57381   8.662   3.786   7.062
 4471POPC   C4B57382   8.938   3.810   7.379
 4472POPC   NC357383  11.184  15.872   5.700
 4472POPC   PO457384  11.757  16.199   5.737
 4472POPC   GL157385  11.457  16.148   6.025
 4472POPC   GL257386  11.584  15.785   5.996
 4472POPC   C1A57387  11.171  16.087   6.402
 4472POPC   D2A57388  10.837  16.052   6.729
 4472POPC   C3A57389  10.978  15.878   7.084
 4472POPC   C4A57390  11.275  16.060   7.318
 4472POPC   C1B57391  11.738  15.961   6.374
 4472POPC   C2B57392  11.596  16.129   6.714
 4472POPC   C3B57393  11.688  15.888   7.044
 4472POPC   C4B57394  11.655  15.676   7.427
 4473POPC   NC357395   1.329  14.208   5.356
 4473POPC   PO457396   0.785  14.449   5.532
 4473POPC   GL157397   0.992  14.220   5.883
 4473POPC   GL257398   1.354  14.140   5.875
 4473POPC   C1A57399   1.098  14.510   6.250
 4473POPC   D2A57400   0.899  14.717   6.601
 4473POPC   C3A57401   1.087  14.571   6.998
 4473POPC   C4A57402   1.092  14.746   7.415
 4473POPC   C1B57403   1.320  14.062   6.303
 4473POPC   C2B57404   1.376  14.276   6.669
 4473POPC   C3B57405   1.628  14.306   7.003
 4473POPC   C4B57406   1.440  14.390   7.340
 4474POPC   NC357407  31.110  27.213   5.579
 4474POPC   PO457408  30.757  26.721   5.288
 4474POPC   GL157409  30.739  26.837   5.720
 4474POPC   GL257410  31.046  26.824   5.886
 4474POPC   C1A57411  30.629  26.643   6.116
 4474POPC   D2A57412  30.756  26.666   6.557
 4474POPC   C3A57413  30.488  26.791   6.897
 4474POPC   C4A57414  30.564  26.902   7.310
 4474POPC   C1B57415  31.168  26.859   6.296
 4474POPC   C2B57416  31.064  27.047   6.691
 4474POPC   C3B57417  31.015  26.806   7.044
 4474POPC   C4B57418  31.054  26.896   7.481
 4475POPC   NC357419   6.380  41.112   5.433
 4475POPC   PO457420   6.737  40.601   5.686
 4475POPC   GL157421   6.801  40.921   5.925
 4475POPC   GL257422   6.442  40.975   5.906
 4475POPC   C1A57423   6.680  40.895   6.356
 4475POPC   D2A57424   6.632  40.608   6.646
 4475POPC   C3A57425   6.827  40.783   6.993
 4475POPC   C4A57426   6.649  40.536   7.256
 4475POPC   C1B57427   6.133  40.927   6.196
 4475POPC   C2B57428   6.225  40.922   6.619
 4475POPC   C3B57429   6.327  40.872   7.012
 4475POPC   C4B57430   6.183  41.040   7.318
 4476POPC   NC357431  42.238  27.199   5.344
 4476POPC   PO457432  42.400  27.882   5.427
 4476POPC   GL157433  42.495  27.731   5.833
 4476POPC   GL257434  42.799  27.449   5.882
 4476POPC   C1A57435  42.103  27.640   6.089
 4476POPC   D2A57436  41.893  27.843   6.450
 4476POPC   C3A57437  42.024  27.725   6.883
 4476POPC   C4A57438  42.081  27.515   7.283
 4476POPC   C1B57439  42.541  27.383   6.187
 4476POPC   C2B57440  42.357  27.522   6.521
 4476POPC   C3B57441  42.556  27.513   6.871
 4476POPC   C4B57442  42.592  27.364   7.285
 4477POPC   NC357443  25.443  35.193   5.514
 4477POPC   PO457444  24.916  35.550   5.495
 4477POPC   GL157445  25.016  35.333   5.883
 4477POPC   GL257446  25.305  35.101   5.989
 4477POPC   C1A57447  25.027  35.333   6.338
 4477POPC   D2A57448  25.153  35.152   6.720
 4477POPC   C3A57449  25.298  35.378   7.057
 4477POPC   C4A57450  25.225  35.430   7.497
 4477POPC   C1B57451  25.578  35.121   6.362
 4477POPC   C2B57452  25.634  34.992   6.786
 4477POPC   C3B57453  25.709  35.128   7.207
 4477POPC   C4B57454  25.539  35.040   7.610
 4478POPC   NC357455  35.009  42.495   5.503
 4478POPC   PO457456  35.665  42.418   5.402
 4478POPC   GL157457  35.404  42.309   5.776
 4478POPC   GL257458  35.269  42.603   5.957
 4478POPC   C1A57459  35.151  42.125   6.131
 4478POPC   D2A57460  35.088  42.359   6.541
 4478POPC   C3A57461  35.039  42.134   6.939
 4478POPC   C4A57462  35.323  42.037   7.284
 4478POPC   C1B57463  35.554  42.419   6.290
 4478POPC   C2B57464  35.741  42.513   6.705
 4478POPC   C3B57465  35.564  42.520   7.150
 4478POPC   C4B57466  35.688  42.611   7.609
 4479POPC   NC357467  43.715   4.875   5.459
 4479POPC   PO457468  44.093   5.482   5.310
 4479POPC   GL157469  44.035   5.220   5.788
 4479POPC   GL257470  44.073   4.831   5.834
 4479POPC   C1A57471  43.968   5.068   6.260
 4479POPC   D2A57472  44.061   4.852   6.672
 4479POPC   C3A57473  43.919   5.088   7.057
 4479POPC   C4A57474  44.210   5.145   7.397
 4479POPC   C1B57475  43.693   4.674   6.062
 4479POPC   C2B57476  43.629   4.620   6.480
 4479POPC   C3B57477  43.662   4.597   6.908
 4479POPC   C4B57478  43.477   4.789   7.234
 4480POPC   NC357479  11.601   5.244   5.043
 4480POPC   PO457480  11.104   4.853   5.155
 4480POPC   GL157481  11.152   4.896   5.642
 4480POPC   GL257482  11.479   4.956   5.812
 4480POPC   C1A57483  11.113   4.704   6.070
 4480POPC   D2A57484  11.061   4.770   6.513
 4480POPC   C3A57485  11.375   4.668   6.807
 4480POPC   C4A57486  11.245   4.704   7.222
 4480POPC   C1B57487  11.330   5.131   6.240
 4480POPC   C2B57488  11.383   5.197   6.716
 4480POPC   C3B57489  11.216   5.214   7.175
 4480POPC   C4B57490  11.300   5.326   7.632
 4481POPC   NC357491  44.531   7.717   5.386
 4481POPC   PO457492   0.062   8.129   5.283
 4481POPC   GL157493  44.791   8.011   5.727
 4481POPC   GL257494  44.884   8.190   5.954
 4481POPC   C1A57495  44.613   7.951   6.265
 4481POPC   D2A57496  44.697   8.229   6.621
 4481POPC   C3A57497  44.738   8.001   6.996
 4481POPC   C4A57498  44.393   7.996   7.270
 4481POPC   C1B57499   0.108   8.352   6.255
 4481POPC   C2B57500   0.078   8.661   6.505
 4481POPC   C3B57501  44.987   8.569   6.886
 4481POPC   C4B57502   0.146   8.367   7.220
 4482POPC   NC357503  35.074  20.471   5.605
 4482POPC   PO457504  35.674  20.315   5.382
 4482POPC   GL157505  35.580  20.324   5.833
 4482POPC   GL257506  35.477  20.644   5.910
 4482POPC   C1A57507  35.380  20.308   6.270
 4482POPC   D2A57508  35.212  20.454   6.661
 4482POPC   C3A57509  35.407  20.395   7.071
 4482POPC   C4A57510  35.073  20.513   7.342
 4482POPC   C1B57511  35.306  20.833   6.271
 4482POPC   C2B57512  35.492  20.910   6.660
 4482POPC   C3B57513  35.360  20.897   7.043
 4482POPC   C4B57514  35.150  21.012   7.379
 4483POPC   NC357515   4.581  13.746   5.294
 4483POPC   PO457516   5.264  13.919   5.229
 4483POPC   GL157517   5.049  13.805   5.599
 4483POPC   GL257518   4.979  13.433   5.704
 4483POPC   C1A57519   5.085  13.814   6.047
 4483POPC   D2A57520   5.382  13.817   6.387
 4483POPC   C3A57521   5.165  13.968   6.751
 4483POPC   C4A57522   5.291  13.962   7.179
 4483POPC   C1B57523   5.096  13.318   6.156
 4483POPC   C2B57524   5.003  13.523   6.534
 4483POPC   C3B57525   5.096  13.492   6.966
 4483POPC   C4B57526   4.835  13.773   7.180
 4484POPC   NC357527  43.434  23.316   5.529
 4484POPC   PO457528  42.955  23.937   5.522
 4484POPC   GL157529  43.153  23.904   5.925
 4484POPC   GL257530  43.264  23.555   5.947
 4484POPC   C1A57531  43.033  23.777   6.363
 4484POPC   D2A57532  43.200  23.634   6.755
 4484POPC   C3A57533  43.251  23.936   7.071
 4484POPC   C4A57534  43.618  24.164   7.220
 4484POPC   C1B57535  43.219  23.264   6.296
 4484POPC   C2B57536  42.975  23.187   6.654
 4484POPC   C3B57537  43.017  23.284   7.084
 4484POPC   C4B57538  43.358  23.481   7.268
 4485POPC   NC357539  41.058   6.872   5.418
 4485POPC   PO457540  40.809   6.322   5.393
 4485POPC   GL157541  40.751   6.504   5.807
 4485POPC   GL257542  40.808   6.862   5.864
 4485POPC   C1A57543  40.485   6.562   6.173
 4485POPC   D2A57544  40.612   6.662   6.590
 4485POPC   C3A57545  40.562   6.465   6.979
 4485POPC   C4A57546  40.760   6.617   7.350
 4485POPC   C1B57547  40.973   6.722   6.234
 4485POPC   C2B57548  41.086   6.481   6.593
 4485POPC   C3B57549  41.119   6.665   6.989
 4485POPC   C4B57550  41.249   6.531   7.403
 4486POPC   NC357551   4.172  25.706   5.475
 4486POPC   PO457552   4.038  26.354   5.501
 4486POPC   GL157553   4.229  26.102   5.867
 4486POPC   GL257554   4.470  25.832   6.035
 4486POPC   C1A57555   4.280  26.219   6.297
 4486POPC   D2A57556   4.462  25.926   6.564
 4486POPC   C3A57557   4.377  25.885   6.984
 4486POPC   C4A57558   4.002  26.033   7.236
 4486POPC   C1B57559   4.101  25.732   6.251
 4486POPC   C2B57560   3.957  25.816   6.693
 4486POPC   C3B57561   4.032  25.546   7.113
 4486POPC   C4B57562   4.100  25.639   7.604
 4487POPC   NC357563  39.502  29.405   5.125
 4487POPC   PO457564  39.841  29.116   5.596
 4487POPC   GL157565  39.960  29.150   5.950
 4487POPC   GL257566  40.064  29.510   5.860
 4487POPC   C1A57567  39.970  28.878   6.302
 4487POPC   D2A57568  40.268  28.978   6.606
 4487POPC   C3A57569  40.166  28.858   6.998
 4487POPC   C4A57570  39.780  28.970   7.184
 4487POPC   C1B57571  39.796  29.507   6.258
 4487POPC   C2B57572  39.783  29.261   6.620
 4487POPC   C3B57573  40.027  29.358   6.953
 4487POPC   C4B57574  39.932  29.439   7.360
 4488POPC   NC357575  23.314  29.196   5.426
 4488POPC   PO457576  23.887  29.447   5.271
 4488POPC   GL157577  23.742  29.336   5.736
 4488POPC   GL257578  23.852  29.000   5.911
 4488POPC   C1A57579  23.813  29.393   6.205
 4488POPC   D2A57580  23.773  29.142   6.585
 4488POPC   C3A57581  23.869  29.301   7.009
 4488POPC   C4A57582  23.866  29.402   7.448
 4488POPC   C1B57583  23.577  28.787   6.208
 4488POPC   C2B57584  23.400  28.794   6.618
 4488POPC   C3B57585  23.397  29.088   6.962
 4488POPC   C4B57586  23.617  28.943   7.325
 4489POPC   NC357587  22.676  29.637   5.455
 4489POPC   PO457588  22.890  28.965   5.569
 4489POPC   GL157589  23.095  29.090   5.880
 4489POPC   GL257590  23.091  29.435   5.809
 4489POPC   C1A57591  23.064  29.021   6.280
 4489POPC   D2A57592  22.952  28.997   6.686
 4489POPC   C3A57593  22.779  29.312   6.846
 4489POPC   C4A57594  22.925  29.178   7.211
 4489POPC   C1B57595  23.316  29.462   6.166
 4489POPC   C2B57596  23.228  29.402   6.575
 4489POPC   C3B57597  23.215  29.593   6.957
 4489POPC   C4B57598  23.357  29.471   7.351
 4490POPC   NC357599   3.203  13.241   5.291
 4490POPC   PO457600   3.595  12.783   5.455
 4490POPC   GL157601   3.519  13.150   5.719
 4490POPC   GL257602   3.826  13.302   5.749
 4490POPC   C1A57603   3.403  13.236   6.174
 4490POPC   D2A57604   3.490  13.083   6.617
 4490POPC   C3A57605   3.363  12.697   6.810
 4490POPC   C4A57606   3.364  12.720   7.266
 4490POPC   C1B57607   3.825  12.946   6.119
 4490POPC   C2B57608   3.869  12.724   6.541
 4490POPC   C3B57609   3.817  12.866   6.974
 4490POPC   C4B57610   3.874  12.767   7.409
 4491POPC   NC357611  36.244   4.675   5.726
 4491POPC   PO457612  35.983   4.074   5.490
 4491POPC   GL157613  36.166   4.169   5.836
 4491POPC   GL257614  35.858   4.353   5.931
 4491POPC   C1A57615  36.217   4.137   6.254
 4491POPC   D2A57616  35.931   4.218   6.580
 4491POPC   C3A57617  36.080   4.031   6.930
 4491POPC   C4A57618  36.321   4.273   7.187
 4491POPC   C1B57619  35.612   4.520   6.291
 4491POPC   C2B57620  35.671   4.722   6.663
 4491POPC   C3B57621  36.003   4.606   6.926
 4491POPC   C4B57622  35.807   4.334   7.234
 4492POPC   NC357623   4.450  32.991   5.317
 4492POPC   PO457624   3.922  33.126   5.536
 4492POPC   GL157625   4.276  33.130   5.802
 4492POPC   GL257626   4.451  32.839   5.835
 4492POPC   C1A57627   4.460  33.302   6.183
 4492POPC   D2A57628   4.562  33.163   6.578
 4492POPC   C3A57629   4.216  33.290   6.834
 4492POPC   C4A57630   4.336  33.336   7.270
 4492POPC   C1B57631   4.305  32.824   6.247
 4492POPC   C2B57632   4.480  32.650   6.608
 4492POPC   C3B57633   4.413  32.830   6.981
 4492POPC   C4B57634   4.015  32.926   7.113
 4493POPC   NC357635  23.972   0.196   5.497
 4493POPC   PO457636  23.295   0.553   5.392
 4493POPC   GL157637  23.630   0.557   5.713
 4493POPC   GL257638  23.615   0.252   5.878
 4493POPC   C1A57639  23.785   0.629   6.168
 4493POPC   D2A57640  23.633   0.397   6.534
 4493POPC   C3A57641  23.615   0.550   6.956
 4493POPC   C4A57642  23.835   0.419   7.330
 4493POPC   C1B57643  23.719   0.002   6.223
 4493POPC   C2B57644  23.910  44.922   6.622
 4493POPC   C3B57645  23.648   0.038   6.997
 4493POPC   C4B57646  23.672  44.966   7.464
 4494POPC   NC357647  26.193  35.134   5.432
 4494POPC   PO457648  25.742  35.630   5.470
 4494POPC   GL157649  25.980  35.509   5.857
 4494POPC   GL257650  25.834  35.195   5.900
 4494POPC   C1A57651  25.947  35.516   6.339
 4494POPC   D2A57652  25.751  35.487   6.758
 4494POPC   C3A57653  26.081  35.443   7.077
 4494POPC   C4A57654  26.266  35.301   7.461
 4494POPC   C1B57655  26.170  35.085   6.207
 4494POPC   C2B57656  26.159  35.103   6.682
 4494POPC   C3B57657  26.406  34.995   7.081
 4494POPC   C4B57658  26.457  34.831   7.526
 4495POPC   NC357659  22.359  31.831   5.685
 4495POPC   PO457660  22.006  31.275   5.470
 4495POPC   GL157661  21.959  31.198   5.880
 4495POPC   GL257662  22.256  31.383   5.915
 4495POPC   C1A57663  21.896  31.387   6.283
 4495POPC   D2A57664  22.035  31.573   6.654
 4495POPC   C3A57665  21.934  31.439   7.068
 4495POPC   C4A57666  21.915  31.265   7.489
 4495POPC   C1B57667  22.421  31.564   6.295
 4495POPC   C2B57668  22.651  31.524   6.663
 4495POPC   C3B57669  22.431  31.483   7.008
 4495POPC   C4B57670  22.401  31.661   7.372
 4496POPC   NC357671  32.062  10.921   5.364
 4496POPC   PO457672  32.443  11.594   5.219
 4496POPC   GL157673  32.289  11.360   5.634
 4496POPC   GL257674  32.557  11.446   5.876
 4496POPC   C1A57675  32.071  11.195   6.033
 4496POPC   D2A57676  31.826  11.241   6.421
 4496POPC   C3A57677  31.876  11.146   6.860
 4496POPC   C4A57678  31.885  10.942   7.236
 4496POPC   C1B57679  32.397  11.477   6.316
 4496POPC   C2B57680  32.377  11.359   6.770
 4496POPC   C3B57681  32.281  11.307   7.241
 4496POPC   C4B57682  32.437  11.357   7.684
 4497POPC   NC357683  17.552  36.402   5.461
 4497POPC   PO457684  17.690  35.730   5.342
 4497POPC   GL157685  17.524  35.947   5.738
 4497POPC   GL257686  17.292  36.226   5.843
 4497POPC   C1A57687  17.512  35.976   6.207
 4497POPC   D2A57688  17.686  36.274   6.520
 4497POPC   C3A57689  17.449  36.220   6.889
 4497POPC   C4A57690  17.374  35.898   7.225
 4497POPC   C1B57691  17.262  36.439   6.223
 4497POPC   C2B57692  17.079  36.506   6.612
 4497POPC   C3B57693  17.194  36.663   7.007
 4497POPC   C4B57694  17.327  36.438   7.363
 4498POPC   NC357695  10.812  16.743   5.379
 4498POPC   PO457696  10.120  16.647   5.491
 4498POPC   GL157697  10.469  16.850   5.783
 4498POPC   GL257698  10.786  17.044   5.844
 4498POPC   C1A57699  10.625  16.691   6.186
 4498POPC   D2A57700  10.811  16.515   6.542
 4498POPC   C3A57701  10.622  16.591   6.936
 4498POPC   C4A57702  10.840  16.518   7.326
 4498POPC   C1B57703  10.524  17.182   6.219
 4498POPC   C2B57704  10.424  17.051   6.670
 4498POPC   C3B57705  10.282  17.021   7.142
 4498POPC   C4B57706  10.399  16.896   7.595
 4499POPC   NC357707  32.328  13.738   5.079
 4499POPC   PO457708  32.140  13.387   5.563
 4499POPC   GL157709  32.436  13.492   5.879
 4499POPC   GL257710  32.361  13.823   5.868
 4499POPC   C1A57711  32.449  13.582   6.339
 4499POPC   D2A57712  32.650  13.539   6.731
 4499POPC   C3A57713  32.351  13.597   7.023
 4499POPC   C4A57714  32.436  13.976   7.193
 4499POPC   C1B57715  32.452  14.081   6.234
 4499POPC   C2B57716  32.370  13.988   6.676
 4499POPC   C3B57717  31.976  13.949   6.924
 4499POPC   C4B57718  31.728  13.808   7.288
 4500POPC   NC357719  15.343   6.948   5.507
 4500POPC   PO457720  14.790   6.495   5.481
 4500POPC   GL157721  14.991   6.662   5.811
 4500POPC   GL257722  15.337   6.523   5.830
 4500POPC   C1A57723  15.060   6.751   6.224
 4500POPC   D2A57724  15.166   6.644   6.590
 4500POPC   C3A57725  15.061   6.810   6.917
 4500POPC   C4A57726  15.182   6.602   7.200
 4500POPC   C1B57727  15.556   6.541   6.234
 4500POPC   C2B57728  15.534   6.312   6.624
 4500POPC   C3B57729  15.629   6.456   7.032
 4500POPC   C4B57730  15.527   6.338   7.451
 4501POPC   NC357731  13.912  30.192   5.496
 4501POPC   PO457732  13.603  29.611   5.256
 4501POPC   GL157733  13.769  29.656   5.685
 4501POPC   GL257734  13.635  29.946   5.825
 4501POPC   C1A57735  13.933  29.682   6.134
 4501POPC   D2A57736  13.838  29.832   6.540
 4501POPC   C3A57737  13.594  29.718   6.902
 4501POPC   C4A57738  13.634  29.791   7.348
 4501POPC   C1B57739  13.461  29.941   6.226
 4501POPC   C2B57740  13.487  30.215   6.586
 4501POPC   C3B57741  13.332  30.144   7.001
 4501POPC   C4B57742  13.429  30.283   7.369
 4502POPC   NC357743  24.816  43.798   5.443
 4502POPC   PO457744  24.148  43.930   5.311
 4502POPC   GL157745  24.270  43.753   5.739
 4502POPC   GL257746  24.005  43.772   5.972
 4502POPC   C1A57747  24.461  43.700   6.195
 4502POPC   D2A57748  24.428  43.547   6.638
 4502POPC   C3A57749  24.674  43.717   6.990
 4502POPC   C4A57750  24.665  44.112   7.221
 4502POPC   C1B57751  24.164  44.116   6.197
 4502POPC   C2B57752  24.372  44.092   6.610
 4502POPC   C3B57753  24.202  44.003   7.024
 4502POPC   C4B57754  24.208  44.113   7.468
 4503POPC   NC357755  13.892  23.910   5.462
 4503POPC   PO457756  14.526  23.499   5.385
 4503POPC   GL157757  14.408  23.442   5.782
 4503POPC   GL257758  14.365  23.808   5.808
 4503POPC   C1A57759  14.587  23.477   6.181
 4503POPC   D2A57760  14.522  23.740   6.570
 4503POPC   C3A57761  14.286  23.615   6.935
 4503POPC   C4A57762  14.513  23.512   7.259
 4503POPC   C1B57763  14.163  23.767   6.197
 4503POPC   C2B57764  14.006  23.873   6.605
 4503POPC   C3B57765  14.015  24.053   7.030
 4503POPC   C4B57766  14.392  24.007   7.265
 4504POPC   NC357767  41.780  32.313   5.530
 4504POPC   PO457768  41.183  32.019   5.592
 4504POPC   GL157769  41.523  31.992   5.867
 4504POPC   GL257770  41.395  32.325   5.978
 4504POPC   C1A57771  41.805  32.143   6.206
 4504POPC   D2A57772  41.590  32.351   6.532
 4504POPC   C3A57773  41.705  32.223   6.944
 4504POPC   C4A57774  41.947  31.982   7.213
 4504POPC   C1B57775  41.125  32.466   6.340
 4504POPC   C2B57776  41.157  32.508   6.800
 4504POPC   C3B57777  41.355  32.619   7.172
 4504POPC   C4B57778  41.405  32.553   7.613
 4505POPC   NC357779  27.014  13.153   5.460
 4505POPC   PO457780  26.423  12.766   5.431
 4505POPC   GL157781  26.735  12.786   5.806
 4505POPC   GL257782  26.895  12.459   5.911
 4505POPC   C1A57783  27.037  12.947   6.149
 4505POPC   D2A57784  27.124  13.133   6.566
 4505POPC   C3A57785  26.989  13.057   6.997
 4505POPC   C4A57786  26.966  12.896   7.429
 4505POPC   C1B57787  26.852  12.507   6.319
 4505POPC   C2B57788  27.056  12.634   6.668
 4505POPC   C3B57789  26.812  12.574   6.998
 4505POPC   C4B57790  26.822  12.419   7.368
 4506POPC   NC357791  26.194  34.401   5.576
 4506POPC   PO457792  25.789  34.887   5.485
 4506POPC   GL157793  25.920  34.694   5.918
 4506POPC   GL257794  26.269  34.599   6.054
 4506POPC   C1A57795  25.898  34.689   6.392
 4506POPC   D2A57796  25.722  34.481   6.740
 4506POPC   C3A57797  25.994  34.709   7.004
 4506POPC   C4A57798  25.969  34.751   7.417
 4506POPC   C1B57799  26.475  34.215   6.183
 4506POPC   C2B57800  26.550  34.112   6.599
 4506POPC   C3B57801  26.224  34.054   6.920
 4506POPC   C4B57802  25.922  34.261   7.212
 4507POPC   NC357803  38.801  22.186   5.679
 4507POPC   PO457804  38.291  21.809   5.689
 4507POPC   GL157805  38.405  22.174   5.990
 4507POPC   GL257806  38.363  22.543   5.901
 4507POPC   C1A57807  38.703  22.393   6.290
 4507POPC   D2A57808  38.627  22.373   6.719
 4507POPC   C3A57809  38.589  21.938   6.814
 4507POPC   C4A57810  38.668  21.842   7.216
 4507POPC   C1B57811  38.172  22.468   6.344
 4507POPC   C2B57812  38.119  22.211   6.733
 4507POPC   C3B57813  38.272  22.174   7.149
 4507POPC   C4B57814  38.213  22.414   7.534
 4508POPC   NC357815  13.469   8.567   5.549
 4508POPC   PO457816  13.950   8.099   5.758
 4508POPC   GL157817  13.630   8.319   5.974
 4508POPC   GL257818  13.369   8.114   5.847
 4508POPC   C1A57819  13.612   8.511   6.382
 4508POPC   D2A57820  13.610   8.436   6.812
 4508POPC   C3A57821  13.926   8.268   7.122
 4508POPC   C4A57822  13.819   8.153   7.573
 4508POPC   C1B57823  13.240   7.926   6.250
 4508POPC   C2B57824  13.244   8.070   6.661
 4508POPC   C3B57825  13.443   8.007   7.063
 4508POPC   C4B57826  13.330   7.970   7.468
 4509POPC   NC357827  32.821  41.161   5.437
 4509POPC   PO457828  33.012  40.512   5.396
 4509POPC   GL157829  33.037  40.841   5.743
 4509POPC   GL257830  33.210  40.630   5.897
 4509POPC   C1A57831  32.825  40.922   6.110
 4509POPC   D2A57832  32.869  40.898   6.533
 4509POPC   C3A57833  32.737  41.045   6.941
 4509POPC   C4A57834  33.026  40.831   7.222
 4509POPC   C1B57835  33.312  40.696   6.306
 4509POPC   C2B57836  33.425  40.401   6.594
 4509POPC   C3B57837  33.517  40.485   7.000
 4509POPC   C4B57838  33.388  40.492   7.413
 4510POPC   NC357839  16.610  40.336   5.419
 4510POPC   PO457840  17.130  39.847   5.376
 4510POPC   GL157841  16.937  40.016   5.723
 4510POPC   GL257842  16.638  39.849   5.722
 4510POPC   C1A57843  16.785  40.055   6.163
 4510POPC   D2A57844  16.432  40.118   6.432
 4510POPC   C3A57845  16.665  40.098   6.830
 4510POPC   C4A57846  16.861  40.180   7.230
 4510POPC   C1B57847  16.449  39.682   6.120
 4510POPC   C2B57848  16.611  39.645   6.552
 4510POPC   C3B57849  16.414  39.612   6.952
 4510POPC   C4B57850  16.413  39.932   7.251
 4511POPC   NC357851  29.698  23.535   5.565
 4511POPC   PO457852  30.408  23.430   5.418
 4511POPC   GL157853  30.174  23.486   5.789
 4511POPC   GL257854  30.094  23.843   5.886
 4511POPC   C1A57855  30.050  23.410   6.206
 4511POPC   D2A57856  30.122  23.723   6.529
 4511POPC   C3A57857  30.230  23.547   6.936
 4511POPC   C4A57858  29.895  23.453   7.232
 4511POPC   C1B57859  29.721  23.794   6.180
 4511POPC   C2B57860  29.628  23.876   6.623
 4511POPC   C3B57861  29.873  23.910   6.981
 4511POPC   C4B57862  29.802  24.033   7.390
 4512POPC   NC357863  21.642   6.741   5.612
 4512POPC   PO457864  20.933   6.849   5.443
 4512POPC   GL157865  21.155   6.681   5.830
 4512POPC   GL257866  20.997   6.387   5.962
 4512POPC   C1A57867  21.404   6.529   6.227
 4512POPC   D2A57868  21.620   6.775   6.531
 4512POPC   C3A57869  21.571   6.636   6.957
 4512POPC   C4A57870  21.433   6.877   7.301
 4512POPC   C1B57871  20.926   6.689   6.310
 4512POPC   C2B57872  21.115   6.727   6.710
 4512POPC   C3B57873  21.080   6.545   7.111
 4512POPC   C4B57874  21.249   6.403   7.482
 4513POPC   NC357875  37.546  43.298   5.497
 4513POPC   PO457876  38.015  42.960   5.775
 4513POPC   GL157877  37.624  42.980   5.983
 4513POPC   GL257878  37.444  43.274   6.002
 4513POPC   C1A57879  37.693  43.013   6.440
 4513POPC   D2A57880  37.894  42.691   6.705
 4513POPC   C3A57881  37.946  42.830   7.138
 4513POPC   C4A57882  37.998  43.281   7.241
 4513POPC   C1B57883  37.207  43.411   6.356
 4513POPC   C2B57884  37.390  43.365   6.699
 4513POPC   C3B57885  37.546  43.124   6.995
 4513POPC   C4B57886  37.512  43.290   7.360
 4514POPC   NC357887  26.870   9.598   5.213
 4514POPC   PO457888  27.226  10.066   5.510
 4514POPC   GL157889  26.987   9.818   5.807
 4514POPC   GL257890  26.705   9.794   5.672
 4514POPC   C1A57891  26.802   9.631   6.190
 4514POPC   D2A57892  26.673   9.539   6.619
 4514POPC   C3A57893  26.743   9.633   7.053
 4514POPC   C4A57894  26.529   9.513   7.445
 4514POPC   C1B57895  26.569  10.064   6.010
 4514POPC   C2B57896  26.469   9.973   6.434
 4514POPC   C3B57897  26.494  10.053   6.866
 4514POPC   C4B57898  26.500  10.434   7.071
 4515POPC   NC357899   9.344  24.035   5.413
 4515POPC   PO457900   8.874  24.460   5.169
 4515POPC   GL157901   8.912  24.455   5.674
 4515POPC   GL257902   9.240  24.466   5.767
 4515POPC   C1A57903   8.983  24.387   6.182
 4515POPC   D2A57904   8.910  24.484   6.640
 4515POPC   C3A57905   9.041  24.725   6.995
 4515POPC   C4A57906   9.042  24.499   7.321
 4515POPC   C1B57907   9.462  24.237   6.129
 4515POPC   C2B57908   9.413  24.378   6.538
 4515POPC   C3B57909   9.375  24.299   6.964
 4515POPC   C4B57910   9.687  24.175   7.266
 4516POPC   NC357911  15.714  34.800   5.601
 4516POPC   PO457912  15.588  34.205   5.524
 4516POPC   GL157913  15.927  34.278   5.842
 4516POPC   GL257914  16.157  34.559   5.754
 4516POPC   C1A57915  15.930  34.429   6.250
 4516POPC   D2A57916  15.809  34.575   6.636
 4516POPC   C3A57917  15.995  34.452   7.019
 4516POPC   C4A57918  15.701  34.703   7.239
 4516POPC   C1B57919  16.327  34.718   6.126
 4516POPC   C2B57920  16.301  34.702   6.551
 4516POPC   C3B57921  16.097  34.939   6.882
 4516POPC   C4B57922  16.202  34.878   7.319
 4517POPC   NC357923  16.069   3.711   5.525
 4517POPC   PO457924  15.701   3.118   5.550
 4517POPC   GL157925  15.927   3.338   5.894
 4517POPC   GL257926  15.795   3.614   6.127
 4517POPC   C1A57927  16.106   3.207   6.299
 4517POPC   D2A57928  16.006   3.478   6.635
 4517POPC   C3A57929  16.024   3.347   7.065
 4517POPC   C4A57930  16.060   3.339   7.492
 4517POPC   C1B57931  16.259   3.660   6.163
 4517POPC   C2B57932  16.509   3.698   6.541
 4517POPC   C3B57933  16.283   3.808   6.896
 4517POPC   C4B57934  16.106   3.842   7.264
 4518POPC   NC357935  22.888   8.747   5.300
 4518POPC   PO457936  23.030   9.331   5.038
 4518POPC   GL157937  22.982   9.104   5.611
 4518POPC   GL257938  22.804   8.764   5.786
 4518POPC   C1A57939  22.969   9.122   6.089
 4518POPC   D2A57940  22.927   8.876   6.482
 4518POPC   C3A57941  23.163   8.980   6.842
 4518POPC   C4A57942  23.338   9.037   7.230
 4518POPC   C1B57943  22.548   8.707   6.163
 4518POPC   C2B57944  22.417   8.737   6.605
 4518POPC   C3B57945  22.688   8.786   6.968
 4518POPC   C4B57946  22.748   9.070   7.299
 4519POPC   NC357947   2.583  13.517   5.294
 4519POPC   PO457948   2.725  14.174   5.554
 4519POPC   GL157949   2.835  13.935   5.907
 4519POPC   GL257950   2.549  13.690   5.881
 4519POPC   C1A57951   2.774  13.854   6.352
 4519POPC   D2A57952   2.597  13.489   6.605
 4519POPC   C3A57953   2.779  13.469   7.011
 4519POPC   C4A57954   2.911  13.802   7.188
 4519POPC   C1B57955   2.285  13.743   6.265
 4519POPC   C2B57956   2.081  13.594   6.644
 4519POPC   C3B57957   2.276  13.502   7.053
 4519POPC   C4B57958   2.447  13.154   7.317
 4520POPC   NC357959  13.664   5.777   5.335
 4520POPC   PO457960  13.105   5.960   5.684
 4520POPC   GL157961  13.533   5.982   5.943
 4520POPC   GL257962  13.907   5.889   5.835
 4520POPC   C1A57963  13.595   5.777   6.318
 4520POPC   D2A57964  13.465   5.455   6.597
 4520POPC   C3A57965  13.588   5.581   6.985
 4520POPC   C4A57966  13.685   5.996   7.143
 4520POPC   C1B57967  14.105   5.810   6.271
 4520POPC   C2B57968  13.936   5.840   6.704
 4520POPC   C3B57969  14.103   5.709   7.122
 4520POPC   C4B57970  14.091   5.980   7.483
 4521POPC   NC357971  38.375  43.610   5.034
 4521POPC   PO457972  38.580  43.981   5.514
 4521POPC   GL157973  38.570  44.021   5.913
 4521POPC   GL257974  38.626  44.366   5.833
 4521POPC   C1A57975  38.462  43.784   6.260
 4521POPC   D2A57976  38.095  43.791   6.537
 4521POPC   C3A57977  38.246  43.790   6.955
 4521POPC   C4A57978  38.457  43.485   7.188
 4521POPC   C1B57979  38.333  44.334   6.195
 4521POPC   C2B57980  38.432  44.196   6.570
 4521POPC   C3B57981  38.314  44.305   6.939
 4521POPC   C4B57982  38.267  44.126   7.345
 4522POPC   NC357983  24.705  23.560   5.571
 4522POPC   PO457984  24.128  24.010   5.596
 4522POPC   GL157985  24.420  23.892   5.925
 4522POPC   GL257986  24.553  23.570   6.051
 4522POPC   C1A57987  24.330  23.931   6.328
 4522POPC   D2A57988  24.271  23.694   6.663
 4522POPC   C3A57989  24.433  23.896   6.974
 4522POPC   C4A57990  24.466  23.918   7.400
 4522POPC   C1B57991  24.631  23.351   6.419
 4522POPC   C2B57992  24.759  23.547   6.761
 4522POPC   C3B57993  24.699  23.502   7.158
 4522POPC   C4B57994  24.274  23.456   7.208
 4523POPC   NC357995   8.432  22.540   5.396
 4523POPC   PO457996   8.109  23.236   5.463
 4523POPC   GL157997   8.351  23.130   5.818
 4523POPC   GL257998   8.378  22.783   5.850
 4523POPC   C1A57999   8.526  23.132   6.230
 4523POPC   D2A58000   8.304  23.101   6.621
 4523POPC   C3A58001   8.487  23.200   6.990
 4523POPC   C4A58002   8.324  23.188   7.385
 4523POPC   C1B58003   8.177  22.742   6.250
 4523POPC   C2B58004   8.357  22.585   6.649
 4523POPC   C3B58005   8.323  22.726   7.040
 4523POPC   C4B58006   8.148  22.666   7.450
 4524POPC   NC358007  14.252  28.313   5.255
 4524POPC   PO458008  14.789  28.648   5.536
 4524POPC   GL158009  14.426  28.546   5.721
 4524POPC   GL258010  14.359  28.225   5.745
 4524POPC   C1A58011  14.306  28.568   6.137
 4524POPC   D2A58012  14.050  28.611   6.475
 4524POPC   C3A58013  14.243  28.408   6.804
 4524POPC   C4A58014  14.233  28.445   7.228
 4524POPC   C1B58015  14.743  28.250   6.049
 4524POPC   C2B58016  14.667  28.304   6.498
 4524POPC   C3B58017  14.680  28.157   6.920
 4524POPC   C4B58018  14.592  28.078   7.320
 4525POPC   NC358019  39.165  41.132   5.492
 4525POPC   PO458020  39.374  40.424   5.538
 4525POPC   GL158021  39.204  40.720   5.817
 4525POPC   GL258022  39.518  40.912   5.814
 4525POPC   C1A58023  39.003  40.695   6.215
 4525POPC   D2A58024  38.960  40.350   6.519
 4525POPC   C3A58025  39.055  40.594   6.868
 4525POPC   C4A58026  39.069  40.838   7.231
 4525POPC   C1B58027  39.530  40.798   6.228
 4525POPC   C2B58028  39.423  40.949   6.620
 4525POPC   C3B58029  39.518  40.971   7.037
 4525POPC   C4B58030  39.477  41.099   7.450
 4526POPC   NC358031  38.168   1.590   5.606
 4526POPC   PO458032  38.627   1.929   5.283
 4526POPC   GL158033  38.534   1.985   5.737
 4526POPC   GL258034  38.322   2.285   5.825
 4526POPC   C1A58035  38.696   2.141   6.156
 4526POPC   D2A58036  38.708   1.874   6.531
 4526POPC   C3A58037  38.654   2.000   6.938
 4526POPC   C4A58038  38.650   2.289   7.293
 4526POPC   C1B58039  38.225   1.980   6.194
 4526POPC   C2B58040  38.198   1.882   6.648
 4526POPC   C3B58041  38.168   2.000   7.088
 4526POPC   C4B58042  38.024   2.317   7.335
 4527POPC   NC358043   9.422  37.910   5.505
 4527POPC   PO458044  10.043  38.206   5.494
 4527POPC   GL158045   9.876  37.837   5.770
 4527POPC   GL258046   9.879  37.428   5.777
 4527POPC   C1A58047   9.895  37.716   6.200
 4527POPC   D2A58048  10.023  37.584   6.586
 4527POPC   C3A58049   9.955  37.928   6.805
 4527POPC   C4A58050   9.773  37.754   7.151
 4527POPC   C1B58051   9.632  37.285   6.191
 4527POPC   C2B58052   9.703  37.138   6.612
 4527POPC   C3B58053   9.552  37.317   7.005
 4527POPC   C4B58054   9.373  37.543   7.354
 4528POPC   NC358055  29.596  25.162   5.450
 4528POPC   PO458056  30.271  25.006   5.427
 4528POPC   GL158057  30.086  24.891   5.830
 4528POPC   GL258058  29.732  24.783   5.800
 4528POPC   C1A58059  30.068  25.114   6.234
 4528POPC   D2A58060  30.107  25.439   6.573
 4528POPC   C3A58061  29.952  25.380   7.021
 4528POPC   C4A58062  30.176  25.508   7.396
 4528POPC   C1B58063  29.756  24.708   6.241
 4528POPC   C2B58064  29.860  24.906   6.656
 4528POPC   C3B58065  29.702  24.919   7.067
 4528POPC   C4B58066  29.890  25.046   7.441
 4529POPC   NC358067  35.385  43.797   5.450
 4529POPC   PO458068  35.377  44.408   5.199
 4529POPC   GL158069  35.498  44.215   5.674
 4529POPC   GL258070  35.673  43.948   5.854
 4529POPC   C1A58071  35.266  44.056   6.104
 4529POPC   D2A58072  35.168  43.766   6.451
 4529POPC   C3A58073  35.329  43.867   6.851
 4529POPC   C4A58074  35.268  44.144   7.181
 4529POPC   C1B58075  35.687  43.817   6.294
 4529POPC   C2B58076  35.812  43.905   6.713
 4529POPC   C3B58077  35.745  43.919   7.168
 4529POPC   C4B58078  35.641  43.609   7.476
 4530POPC   NC358079  32.117  22.983   5.387
 4530POPC   PO458080  31.730  22.544   5.704
 4530POPC   GL158081  31.973  22.878   5.892
 4530POPC   GL258082  32.366  22.938   5.851
 4530POPC   C1A58083  31.899  22.969   6.341
 4530POPC   D2A58084  31.863  22.877   6.805
 4530POPC   C3A58085  32.109  23.131   7.063
 4530POPC   C4A58086  32.296  23.002   7.445
 4530POPC   C1B58087  32.581  22.912   6.274
 4530POPC   C2B58088  32.459  22.962   6.712
 4530POPC   C3B58089  32.682  22.815   7.086
 4530POPC   C4B58090  32.601  22.600   7.461
 4531POPC   NC358091   4.295   8.043   5.222
 4531POPC   PO458092   4.020   8.553   5.538
 4531POPC   GL158093   4.166   8.270   5.873
 4531POPC   GL258094   4.457   8.380   5.908
 4531POPC   C1A58095   4.025   8.032   6.220
 4531POPC   D2A58096   4.182   7.922   6.639
 4531POPC   C3A58097   4.215   8.125   7.065
 4531POPC   C4A58098   4.371   8.201   7.495
 4531POPC   C1B58099   4.559   8.136   6.278
 4531POPC   C2B58100   4.540   8.305   6.688
 4531POPC   C3B58101   4.722   8.285   7.062
 4531POPC   C4B58102   4.703   8.560   7.399
 4532POPC   NC358103   9.305   9.039   5.241
 4532POPC   PO458104   9.919   9.066   5.416
 4532POPC   GL158105   9.677   9.135   5.785
 4532POPC   GL258106   9.598   8.808   5.852
 4532POPC   C1A58107   9.835   9.103   6.214
 4532POPC   D2A58108  10.042   9.189   6.605
 4532POPC   C3A58109   9.826   9.001   6.927
 4532POPC   C4A58110   9.601   9.081   7.286
 4532POPC   C1B58111   9.758   8.578   6.169
 4532POPC   C2B58112   9.990   8.675   6.500
 4532POPC   C3B58113   9.899   8.511   6.865
 4532POPC   C4B58114   9.524   8.588   7.124
 4533POPC   NC358115  37.020  39.774   5.343
 4533POPC   PO458116  36.609  40.264   5.398
 4533POPC   GL158117  36.780  40.216   5.815
 4533POPC   GL258118  37.044  39.992   5.792
 4533POPC   C1A58119  36.678  40.175   6.230
 4533POPC   D2A58120  36.802  39.931   6.569
 4533POPC   C3A58121  36.608  40.057   6.940
 4533POPC   C4A58122  36.677  40.334   7.251
 4533POPC   C1B58123  37.172  40.048   6.187
 4533POPC   C2B58124  37.337  39.946   6.554
 4533POPC   C3B58125  37.205  39.878   6.904
 4533POPC   C4B58126  36.977  39.903   7.240
 4534POPC   NC358127  19.563  15.083   5.475
 4534POPC   PO458128  19.775  15.716   5.571
 4534POPC   GL158129  19.974  15.361   5.797
 4534POPC   GL258130  19.770  15.083   5.944
 4534POPC   C1A58131  20.187  15.259   6.197
 4534POPC   D2A58132  20.011  15.273   6.626
 4534POPC   C3A58133  20.000  15.392   7.047
 4534POPC   C4A58134  20.023  15.044   7.320
 4534POPC   C1B58135  19.832  14.883   6.342
 4534POPC   C2B58136  19.832  14.802   6.823
 4534POPC   C3B58137  19.710  14.653   7.240
 4534POPC   C4B58138  19.595  14.821   7.610
 4535POPC   NC358139  23.126   1.716   5.541
 4535POPC   PO458140  22.558   2.107   5.499
 4535POPC   GL158141  22.707   1.893   5.839
 4535POPC   GL258142  22.947   2.129   5.887
 4535POPC   C1A58143  22.753   1.894   6.296
 4535POPC   D2A58144  23.050   2.130   6.549
 4535POPC   C3A58145  23.077   1.978   6.977
 4535POPC   C4A58146  23.111   2.112   7.411
 4535POPC   C1B58147  22.715   2.391   6.184
 4535POPC   C2B58148  22.586   2.326   6.603
 4535POPC   C3B58149  22.758   2.369   7.012
 4535POPC   C4B58150  22.627   2.060   7.303
 4536POPC   NC358151  36.491  38.971   5.585
 4536POPC   PO458152  37.055  39.329   5.216
 4536POPC   GL158153  36.971  39.177   5.627
 4536POPC   GL258154  36.779  39.470   5.721
 4536POPC   C1A58155  36.940  39.104   6.090
 4536POPC   D2A58156  37.210  39.023   6.429
 4536POPC   C3A58157  37.052  39.048   6.852
 4536POPC   C4A58158  36.910  39.011   7.249
 4536POPC   C1B58159  36.834  39.630   6.119
 4536POPC   C2B58160  36.879  39.425   6.515
 4536POPC   C3B58161  36.826  39.539   6.925
 4536POPC   C4B58162  36.743  39.473   7.369
 4537POPC   NC358163  26.240  44.150   5.397
 4537POPC   PO458164  25.666  43.975   5.478
 4537POPC   GL158165  25.951  44.100   5.839
 4537POPC   GL258166  26.270  43.946   5.854
 4537POPC   C1A58167  25.989  43.942   6.296
 4537POPC   D2A58168  26.042  44.185   6.694
 4537POPC   C3A58169  25.757  44.172   7.036
 4537POPC   C4A58170  25.585  43.778   7.108
 4537POPC   C1B58171  26.326  43.560   6.093
 4537POPC   C2B58172  26.317  43.537   6.534
 4537POPC   C3B58173  26.413  43.591   6.957
 4537POPC   C4B58174  26.169  43.900   7.187
 4538POPC   NC358175  12.737   4.293   5.452
 4538POPC   PO458176  13.221   3.859   5.339
 4538POPC   GL158177  13.032   4.028   5.784
 4538POPC   GL258178  13.060   4.416   5.855
 4538POPC   C1A58179  12.762   4.085   6.171
 4538POPC   D2A58180  12.703   3.971   6.579
 4538POPC   C3A58181  12.655   4.166   6.956
 4538POPC   C4A58182  12.832   4.043   7.322
 4538POPC   C1B58183  12.919   4.538   6.299
 4538POPC   C2B58184  12.834   4.598   6.716
 4538POPC   C3B58185  12.961   4.524   7.145
 4538POPC   C4B58186  12.613   4.620   7.428
 4539POPC   NC358187   5.301  34.829   5.433
 4539POPC   PO458188   4.796  34.352   5.352
 4539POPC   GL158189   4.788  34.380   5.808
 4539POPC   GL258190   5.086  34.580   5.823
 4539POPC   C1A58191   4.694  34.660   6.178
 4539POPC   D2A58192   4.598  34.884   6.585
 4539POPC   C3A58193   4.831  34.626   6.890
 4539POPC   C4A58194   5.177  34.412   7.102
 4539POPC   C1B58195   5.227  34.791   6.197
 4539POPC   C2B58196   5.282  34.647   6.626
 4539POPC   C3B58197   5.295  34.886   7.008
 4539POPC   C4B58198   5.464  34.775   7.387
 4540POPC   NC358199   8.648  14.559   5.365
 4540POPC   PO458200   8.061  14.233   5.472
 4540POPC   GL158201   8.297  14.235   5.840
 4540POPC   GL258202   8.534  14.532   5.866
 4540POPC   C1A58203   8.072  14.288   6.222
 4540POPC   D2A58204   7.961  14.563   6.598
 4540POPC   C3A58205   8.146  14.463   7.013
 4540POPC   C4A58206   8.205  14.130   7.288
 4540POPC   C1B58207   8.372  14.688   6.287
 4540POPC   C2B58208   8.455  14.774   6.730
 4540POPC   C3B58209   8.615  14.688   7.151
 4540POPC   C4B58210   8.540  14.614   7.626
 4541POPC   NC358211  44.062  42.724   5.523
 4541POPC   PO458212  44.015  43.417   5.464
 4541POPC   GL158213  43.978  43.144   5.823
 4541POPC   GL258214  43.668  42.935   5.807
 4541POPC   C1A58215  44.003  42.906   6.223
 4541POPC   D2A58216  43.957  43.075   6.637
 4541POPC   C3A58217  44.111  42.932   7.073
 4541POPC   C4A58218  43.961  43.115   7.479
 4541POPC   C1B58219  43.575  43.266   6.156
 4541POPC   C2B58220  43.626  43.474   6.595
 4541POPC   C3B58221  43.720  43.289   7.023
 4541POPC   C4B58222  43.452  43.097   7.343
 4542POPC   NC358223  44.460  40.485   5.455
 4542POPC   PO458224  44.486  41.047   5.795
 4542POPC   GL158225  44.504  40.655   6.006
 4542POPC   GL258226  44.797  40.508   5.853
 4542POPC   C1A58227  44.458  40.707   6.470
 4542POPC   D2A58228  44.677  40.767   6.873
 4542POPC   C3A58229  44.499  40.566   7.246
 4542POPC   C4A58230  44.399  40.708   7.653
 4542POPC   C1B58231  44.996  40.776   6.182
 4542POPC   C2B58232   0.220  40.781   6.571
 4542POPC   C3B58233   0.183  40.691   6.967
 4542POPC   C4B58234  44.983  40.759   7.314
 4543POPC   NC358235   6.071  14.527   5.420
 4543POPC   PO458236   5.566  14.145   5.690
 4543POPC   GL158237   5.975  14.280   5.922
 4543POPC   GL258238   6.045  14.629   5.935
 4543POPC   C1A58239   6.020  14.282   6.393
 4543POPC   D2A58240   5.656  14.159   6.659
 4543POPC   C3A58241   5.640  14.333   7.051
 4543POPC   C4A58242   6.007  14.225   7.308
 4543POPC   C1B58243   5.832  14.747   6.303
 4543POPC   C2B58244   5.868  14.679   6.734
 4543POPC   C3B58245   5.940  14.738   7.175
 4543POPC   C4B58246   5.751  14.662   7.583
 4544POPC   NC358247  42.649   0.301   5.682
 4544POPC   PO458248  43.269   0.167   5.761
 4544POPC   GL158249  43.173   0.576   5.920
 4544POPC   GL258250  42.832   0.604   6.075
 4544POPC   C1A58251  43.267   0.638   6.364
 4544POPC   D2A58252  43.151   0.311   6.627
 4544POPC   C3A58253  43.315   0.280   6.991
 4544POPC   C4A58254  43.195   0.536   7.277
 4544POPC   C1B58255  42.735   0.219   6.346
 4544POPC   C2B58256  42.702  44.974   6.742
 4544POPC   C3B58257  42.656   0.018   7.190
 4544POPC   C4B58258  42.817   0.262   7.557
 4545POPC   NC358259  30.953  14.152   5.535
 4545POPC   PO458260  30.869  14.669   5.074
 4545POPC   GL158261  30.792  14.663   5.600
 4545POPC   GL258262  31.053  14.716   5.869
 4545POPC   C1A58263  30.577  14.462   6.035
 4545POPC   D2A58264  30.608  14.177   6.459
 4545POPC   C3A58265  30.584  14.284   6.937
 4545POPC   C4A58266  30.650  14.314   7.409
 4545POPC   C1B58267  30.968  14.625   6.320
 4545POPC   C2B58268  31.060  14.404   6.679
 4545POPC   C3B58269  31.045  14.441   7.094
 4545POPC   C4B58270  30.832  14.793   7.240
 4546POPC   NC358271   2.426  29.575   5.549
 4546POPC   PO458272   1.930  29.965   5.297
 4546POPC   GL158273   1.860  29.823   5.723
 4546POPC   GL258274   2.000  29.505   5.841
 4546POPC   C1A58275   1.967  29.906   6.169
 4546POPC   D2A58276   1.840  29.977   6.598
 4546POPC   C3A58277   2.120  30.024   6.969
 4546POPC   C4A58278   1.876  30.017   7.358
 4546POPC   C1B58279   2.271  29.509   6.224
 4546POPC   C2B58280   2.073  29.530   6.634
 4546POPC   C3B58281   1.894  29.595   7.069
 4546POPC   C4B58282   2.239  29.663   7.351
 4547POPC   NC358283  20.336  24.085   5.506
 4547POPC   PO458284  20.730  23.482   5.416
 4547POPC   GL158285  20.731  23.675   5.791
 4547POPC   GL258286  20.388  23.659   5.806
 4547POPC   C1A58287  20.759  23.512   6.212
 4547POPC   D2A58288  20.955  23.660   6.606
 4547POPC   C3A58289  20.750  23.492   6.945
 4547POPC   C4A58290  20.595  23.638   7.306
 4547POPC   C1B58291  20.372  23.959   6.141
 4547POPC   C2B58292  20.469  23.810   6.520
 4547POPC   C3B58293  20.393  23.889   6.915
 4547POPC   C4B58294  20.251  24.001   7.299
 4548POPC   NC358295  36.388   6.309   5.562
 4548POPC   PO458296  36.014   6.925   5.635
 4548POPC   GL158297  36.337   6.734   5.864
 4548POPC   GL258298  36.562   7.023   5.897
 4548POPC   C1A58299  36.291   6.486   6.273
 4548POPC   D2A58300  36.021   6.388   6.664
 4548POPC   C3A58301  36.128   6.546   7.104
 4548POPC   C4A58302  35.797   6.422   7.421
 4548POPC   C1B58303  36.293   7.031   6.264
 4548POPC   C2B58304  36.211   6.868   6.641
 4548POPC   C3B58305  36.429   6.979   6.973
 4548POPC   C4B58306  36.269   7.069   7.346
 4549POPC   NC358307  29.222  40.233   5.063
 4549POPC   PO458308  28.954  39.890   5.579
 4549POPC   GL158309  29.070  39.665   5.906
 4549POPC   GL258310  29.239  39.994   5.991
 4549POPC   C1A58311  29.150  39.646   6.342
 4549POPC   D2A58312  29.269  40.032   6.530
 4549POPC   C3A58313  29.105  39.884   6.859
 4549POPC   C4A58314  29.096  39.799   7.255
 4549POPC   C1B58315  28.840  40.070   6.224
 4549POPC   C2B58316  28.813  40.244   6.621
 4549POPC   C3B58317  29.037  40.348   7.003
 4549POPC   C4B58318  28.795  40.240   7.309
 4550POPC   NC358319  20.889  24.648   5.440
 4550POPC   PO458320  20.226  24.549   5.486
 4550POPC   GL158321  20.542  24.478   5.785
 4550POPC   GL258322  20.778  24.191   5.765
 4550POPC   C1A58323  20.602  24.430   6.217
 4550POPC   D2A58324  20.355  24.315   6.584
 4550POPC   C3A58325  20.550  24.361   7.002
 4550POPC   C4A58326  20.528  24.666   7.291
 4550POPC   C1B58327  20.910  24.012   6.172
 4550POPC   C2B58328  20.844  24.161   6.600
 4550POPC   C3B58329  20.892  23.986   7.003
 4550POPC   C4B58330  20.745  24.092   7.439
 4551POPC   NC358331  34.241  19.666   5.230
 4551POPC   PO458332  33.568  19.647   5.253
 4551POPC   GL158333  33.874  19.710   5.604
 4551POPC   GL258334  33.946  19.424   5.822
 4551POPC   C1A58335  33.959  19.882   6.040
 4551POPC   D2A58336  33.902  19.835   6.481
 4551POPC   C3A58337  33.921  20.188   6.757
 4551POPC   C4A58338  33.993  20.183   7.204
 4551POPC   C1B58339  34.069  19.370   6.278
 4551POPC   C2B58340  34.085  19.437   6.750
 4551POPC   C3B58341  34.159  19.667   7.141
 4551POPC   C4B58342  34.260  19.512   7.549
 4552POPC   NC358343  17.011  17.755   5.433
 4552POPC   PO458344  16.639  17.245   5.230
 4552POPC   GL158345  16.728  17.410   5.686
 4552POPC   GL258346  16.538  17.231   5.876
 4552POPC   C1A58347  16.712  17.650   6.129
 4552POPC   D2A58348  16.535  17.795   6.551
 4552POPC   C3A58349  16.762  17.674   6.947
 4552POPC   C4A58350  16.517  17.516   7.249
 4552POPC   C1B58351  16.864  17.156   6.173
 4552POPC   C2B58352  16.857  17.332   6.590
 4552POPC   C3B58353  16.819  17.151   7.034
 4552POPC   C4B58354  16.925  16.882   7.397
 4553POPC   NC358355  25.530  44.434   5.412
 4553POPC   PO458356  25.087  44.966   5.244
 4553POPC   GL158357  25.045  44.715   5.609
 4553POPC   GL258358  25.158   0.006   5.800
 4553POPC   C1A58359  25.047  44.578   6.076
 4553POPC   D2A58360  24.967  44.439   6.527
 4553POPC   C3A58361  25.192  44.598   6.922
 4553POPC   C4A58362  25.347  44.371   7.279
 4553POPC   C1B58363  25.027   0.112   6.226
 4553POPC   C2B58364  24.954  44.959   6.643
 4553POPC   C3B58365  25.065   0.113   7.056
 4553POPC   C4B58366  25.297  44.859   7.372
 4554POPC   NC358367  18.656  10.989   5.478
 4554POPC   PO458368  19.157  10.459   5.501
 4554POPC   GL158369  19.069  10.526   5.894
 4554POPC   GL258370  18.994  10.857   5.921
 4554POPC   C1A58371  19.318  10.601   6.254
 4554POPC   D2A58372  19.308  10.939   6.533
 4554POPC   C3A58373  19.352  10.758   6.930
 4554POPC   C4A58374  19.169  10.487   7.203
 4554POPC   C1B58375  18.817  10.772   6.348
 4554POPC   C2B58376  18.560  10.859   6.746
 4554POPC   C3B58377  18.762  10.808   7.170
 4554POPC   C4B58378  18.743  10.890   7.629
 4555POPC   NC358379   7.687  19.522   5.424
 4555POPC   PO458380   8.124  20.070   5.419
 4555POPC   GL158381   8.206  19.843   5.797
 4555POPC   GL258382   7.927  19.587   5.881
 4555POPC   C1A58383   8.473  19.981   6.149
 4555POPC   D2A58384   8.340  20.139   6.558
 4555POPC   C3A58385   8.407  19.915   6.940
 4555POPC   C4A58386   8.226  19.935   7.315
 4555POPC   C1B58387   8.167  19.565   6.266
 4555POPC   C2B58388   8.045  19.708   6.661
 4555POPC   C3B58389   7.893  19.628   7.085
 4555POPC   C4B58390   7.886  19.640   7.576
 4556POPC   NC358391   8.988  39.573   5.503
 4556POPC   PO458392   9.206  38.963   5.400
 4556POPC   GL158393   9.087  39.169   5.828
 4556POPC   GL258394   9.256  39.518   5.920
 4556POPC   C1A58395   9.069  39.239   6.299
 4556POPC   D2A58396   8.882  39.196   6.664
 4556POPC   C3A58397   9.158  39.279   6.968
 4556POPC   C4A58398   9.176  38.972   7.264
 4556POPC   C1B58399   8.825  39.636   6.112
 4556POPC   C2B58400   8.835  39.691   6.518
 4556POPC   C3B58401   8.886  39.712   6.928
 4556POPC   C4B58402   8.832  39.480   7.294
 4557POPC   NC358403  44.743  25.003   5.416
 4557POPC   PO458404  44.961  25.577   5.471
 4557POPC   GL158405  44.754  25.398   5.834
 4557POPC   GL258406  44.866  25.071   5.891
 4557POPC   C1A58407  44.539  25.282   6.247
 4557POPC   D2A58408  44.510  25.007   6.626
 4557POPC   C3A58409  44.423  25.195   7.058
 4557POPC   C4A58410  44.526  25.526   7.350
 4557POPC   C1B58411   0.044  25.181   6.266
 4557POPC   C2B58412   0.034  25.102   6.674
 4557POPC   C3B58413  44.992  25.277   7.052
 4557POPC   C4B58414   0.133  25.060   7.341
 4558POPC   NC358415  13.002  13.568   5.420
 4558POPC   PO458416  12.620  13.147   5.352
 4558POPC   GL158417  12.752  13.387   5.805
 4558POPC   GL258418  12.961  13.771   5.877
 4558POPC   C1A58419  12.677  13.533   6.233
 4558POPC   D2A58420  12.493  13.644   6.615
 4558POPC   C3A58421  12.689  13.512   6.965
 4558POPC   C4A58422  12.920  13.496   7.302
 4558POPC   C1B58423  13.157  13.762   6.282
 4558POPC   C2B58424  13.001  13.813   6.702
 4558POPC   C3B58425  12.916  14.002   7.114
 4558POPC   C4B58426  12.976  13.980   7.590
 4559POPC   NC358427  33.430  20.605   5.274
 4559POPC   PO458428  34.078  20.816   5.099
 4559POPC   GL158429  33.895  20.789   5.577
 4559POPC   GL258430  33.678  20.501   5.726
 4559POPC   C1A58431  33.898  20.816   6.068
 4559POPC   D2A58432  33.915  20.688   6.524
 4559POPC   C3A58433  33.704  20.785   6.911
 4559POPC   C4A58434  33.842  20.774   7.338
 4559POPC   C1B58435  33.444  20.545   6.149
 4559POPC   C2B58436  33.435  20.440   6.605
 4559POPC   C3B58437  33.511  20.306   7.043
 4559POPC   C4B58438  33.552  20.232   7.485
 4560POPC   NC358439  11.070   9.131   5.284
 4560POPC   PO458440  11.671   8.884   5.371
 4560POPC   GL158441  11.533   8.881   5.842
 4560POPC   GL258442  11.341   9.200   5.867
 4560POPC   C1A58443  11.355   8.907   6.292
 4560POPC   D2A58444  11.014   9.019   6.620
 4560POPC   C3A58445  11.139   8.857   7.034
 4560POPC   C4A58446  11.587   8.846   7.125
 4560POPC   C1B58447  11.321   9.424   6.293
 4560POPC   C2B58448  11.495   9.276   6.697
 4560POPC   C3B58449  11.354   9.368   7.096
 4560POPC   C4B58450  10.933   9.278   7.260
 4561POPC   NC358451   8.837   9.254   5.479
 4561POPC   PO458452   9.289   8.643   5.460
 4561POPC   GL158453   9.129   8.954   5.765
 4561POPC   GL258454   8.772   8.975   5.896
 4561POPC   C1A58455   9.297   9.070   6.184
 4561POPC   D2A58456   9.498   8.844   6.534
 4561POPC   C3A58457   9.309   8.983   6.888
 4561POPC   C4A58458   9.066   8.979   7.254
 4561POPC   C1B58459   8.824   8.830   6.307
 4561POPC   C2B58460   8.830   8.895   6.750
 4561POPC   C3B58461   8.715   9.242   7.003
 4561POPC   C4B58462   8.755   9.371   7.438
 4562POPC   NC358463  30.290  33.647   5.539
 4562POPC   PO458464  29.888  33.982   5.127
 4562POPC   GL158465  29.801  33.671   5.641
 4562POPC   GL258466  30.080  33.508   5.957
 4562POPC   C1A58467  29.685  33.754   6.113
 4562POPC   D2A58468  29.453  33.605   6.506
 4562POPC   C3A58469  29.736  33.546   6.864
 4562POPC   C4A58470  30.001  33.667   7.183
 4562POPC   C1B58471  30.070  33.583   6.425
 4562POPC   C2B58472  30.026  33.943   6.722
 4562POPC   C3B58473  30.266  34.094   7.088
 4562POPC   C4B58474  30.260  33.916   7.526
 4563POPC   NC358475   5.472   6.868   5.334
 4563POPC   PO458476   5.637   6.256   5.208
 4563POPC   GL158477   5.839   6.671   5.602
 4563POPC   GL258478   5.589   6.732   5.824
 4563POPC   C1A58479   6.033   6.747   6.087
 4563POPC   D2A58480   5.971   6.981   6.530
 4563POPC   C3A58481   5.925   6.807   6.999
 4563POPC   C4A58482   6.004   6.564   7.423
 4563POPC   C1B58483   5.532   6.919   6.235
 4563POPC   C2B58484   5.480   6.888   6.697
 4563POPC   C3B58485   5.493   7.099   7.108
 4563POPC   C4B58486   5.691   6.940   7.471
 4564POPC   NC358487  43.439  18.424   5.566
 4564POPC   PO458488  44.003  18.232   5.193
 4564POPC   GL158489  44.010  18.395   5.722
 4564POPC   GL258490  43.687  18.328   5.973
 4564POPC   C1A58491  44.095  18.192   6.185
 4564POPC   D2A58492  43.812  18.317   6.585
 4564POPC   C3A58493  44.012  18.481   7.023
 4564POPC   C4A58494  44.094  18.490   7.528
 4564POPC   C1B58495  43.701  17.885   6.210
 4564POPC   C2B58496  43.984  17.813   6.551
 4564POPC   C3B58497  43.870  17.956   6.933
 4564POPC   C4B58498  43.895  17.758   7.275
 4565POPC   NC358499  41.241  19.168   5.570
 4565POPC   PO458500  41.862  19.437   5.589
 4565POPC   GL158501  41.683  19.111   5.868
 4565POPC   GL258502  41.442  19.209   6.045
 4565POPC   C1A58503  41.650  18.770   6.194
 4565POPC   D2A58504  41.529  18.779   6.662
 4565POPC   C3A58505  41.807  18.809   7.012
 4565POPC   C4A58506  41.610  18.954   7.382
 4565POPC   C1B58507  41.112  19.368   6.218
 4565POPC   C2B58508  41.024  19.375   6.641
 4565POPC   C3B58509  41.134  19.253   7.054
 4565POPC   C4B58510  41.262  19.382   7.453
 4566POPC   NC358511   5.922  25.866   5.410
 4566POPC   PO458512   5.610  26.447   5.491
 4566POPC   GL158513   5.693  26.105   5.799
 4566POPC   GL258514   6.058  26.147   5.900
 4566POPC   C1A58515   5.770  25.866   6.200
 4566POPC   D2A58516   5.847  26.209   6.540
 4566POPC   C3A58517   5.619  26.123   6.903
 4566POPC   C4A58518   5.722  25.702   7.076
 4566POPC   C1B58519   6.259  25.924   6.267
 4566POPC   C2B58520   6.059  25.765   6.649
 4566POPC   C3B58521   6.110  26.038   6.989
 4566POPC   C4B58522   5.894  26.130   7.342
 4567POPC   NC358523   0.097  37.999   5.556
 4567POPC   PO458524   0.576  37.543   5.508
 4567POPC   GL158525   0.505  37.772   5.867
 4567POPC   GL258526   0.697  38.072   5.834
 4567POPC   C1A58527   0.539  37.631   6.285
 4567POPC   D2A58528   0.305  37.464   6.621
 4567POPC   C3A58529   0.487  37.674   6.940
 4567POPC   C4A58530   0.551  37.637   7.335
 4567POPC   C1B58531   0.817  38.083   6.274
 4567POPC   C2B58532   0.736  38.088   6.732
 4567POPC   C3B58533   0.909  37.955   7.135
 4567POPC   C4B58534   0.827  38.090   7.569
 4568POPC   NC358535   2.217  33.944   5.392
 4568POPC   PO458536   1.684  33.629   5.316
 4568POPC   GL158537   1.833  33.775   5.748
 4568POPC   GL258538   2.207  33.700   5.840
 4568POPC   C1A58539   1.808  33.810   6.223
 4568POPC   D2A58540   1.691  33.542   6.608
 4568POPC   C3A58541   1.962  33.610   6.980
 4568POPC   C4A58542   1.950  33.907   7.318
 4568POPC   C1B58543   2.341  33.823   6.279
 4568POPC   C2B58544   2.240  33.982   6.728
 4568POPC   C3B58545   2.312  34.204   7.139
 4568POPC   C4B58546   2.345  34.045   7.597
 4569POPC   NC358547  22.072  13.804   5.026
 4569POPC   PO458548  22.360  13.371   5.410
 4569POPC   GL158549  22.333  13.571   5.807
 4569POPC   GL258550  22.286  13.930   5.761
 4569POPC   C1A58551  21.987  13.649   6.083
 4569POPC   D2A58552  21.767  13.809   6.417
 4569POPC   C3A58553  21.892  13.589   6.772
 4569POPC   C4A58554  21.864  13.740   7.160
 4569POPC   C1B58555  22.439  13.938   6.192
 4569POPC   C2B58556  22.215  13.999   6.567
 4569POPC   C3B58557  22.330  13.900   6.976
 4569POPC   C4B58558  22.363  13.706   7.361
 4570POPC   NC358559  19.322  26.429   5.472
 4570POPC   PO458560  18.894  25.863   5.434
 4570POPC   GL158561  18.966  25.990   5.863
 4570POPC   GL258562  19.027  26.289   5.865
 4570POPC   C1A58563  19.034  25.906   6.292
 4570POPC   D2A58564  18.879  26.025   6.703
 4570POPC   C3A58565  19.221  25.893   6.956
 4570POPC   C4A58566  19.263  25.689   7.315
 4570POPC   C1B58567  18.905  26.408   6.269
 4570POPC   C2B58568  19.249  26.405   6.578
 4570POPC   C3B58569  19.164  26.394   7.000
 4570POPC   C4B58570  18.767  26.322   7.236
 4571POPC   NC358571  17.818  26.180   5.350
 4571POPC   PO458572  17.332  25.643   5.353
 4571POPC   GL158573  17.323  25.949   5.724
 4571POPC   GL258574  17.660  26.077   5.818
 4571POPC   C1A58575  17.266  26.221   6.107
 4571POPC   D2A58576  17.500  26.228   6.501
 4571POPC   C3A58577  17.232  26.305   6.868
 4571POPC   C4A58578  17.331  26.087   7.219
 4571POPC   C1B58579  17.875  25.953   6.181
 4571POPC   C2B58580  17.821  25.801   6.565
 4571POPC   C3B58581  17.805  25.968   6.939
 4571POPC   C4B58582  17.784  25.704   7.247
 4572POPC   NC358583  41.038   0.328   5.556
 4572POPC   PO458584  40.409   0.524   5.360
 4572POPC   GL158585  40.610   0.488   5.779
 4572POPC   GL258586  40.627   0.811   5.877
 4572POPC   C1A58587  40.772   0.237   6.168
 4572POPC   D2A58588  41.063   0.293   6.547
 4572POPC   C3A58589  41.009   0.186   7.007
 4572POPC   C4A58590  40.768   0.143   7.382
 4572POPC   C1B58591  40.806   0.749   6.279
 4572POPC   C2B58592  41.230   0.756   6.453
 4572POPC   C3B58593  41.138   0.695   6.898
 4572POPC   C4B58594  40.835   0.626   7.253
 4573POPC   NC358595  26.971  19.374   5.467
 4573POPC   PO458596  26.630  18.741   5.514
 4573POPC   GL158597  26.692  19.099   5.848
 4573POPC   GL258598  26.990  19.337   5.965
 4573POPC   C1A58599  26.710  18.974   6.312
 4573POPC   D2A58600  26.877  18.909   6.738
 4573POPC   C3A58601  26.652  18.740   7.082
 4573POPC   C4A58602  26.608  18.999   7.436
 4573POPC   C1B58603  26.823  19.463   6.358
 4573POPC   C2B58604  26.933  19.412   6.775
 4573POPC   C3B58605  26.849  19.439   7.200
 4573POPC   C4B58606  27.183  19.480   7.473
 4574POPC   NC358607  36.091   9.243   5.429
 4574POPC   PO458608  36.047   8.552   5.341
 4574POPC   GL158609  35.981   8.816   5.719
 4574POPC   GL258610  36.306   8.989   5.824
 4574POPC   C1A58611  35.936   8.879   6.174
 4574POPC   D2A58612  36.151   8.832   6.585
 4574POPC   C3A58613  35.934   8.961   6.955
 4574POPC   C4A58614  35.899   8.843   7.373
 4574POPC   C1B58615  36.368   9.171   6.250
 4574POPC   C2B58616  36.538   9.149   6.672
 4574POPC   C3B58617  36.404   9.024   7.083
 4574POPC   C4B58618  36.221   9.274   7.389
 4575POPC   NC358619  30.161  16.375   5.397
 4575POPC   PO458620  29.871  17.050   5.556
 4575POPC   GL158621  29.831  16.761   5.878
 4575POPC   GL258622  30.166  16.655   5.835
 4575POPC   C1A58623  29.836  16.803   6.329
 4575POPC   D2A58624  30.080  16.993   6.647
 4575POPC   C3A58625  29.965  16.818   7.019
 4575POPC   C4A58626  30.165  16.655   7.352
 4575POPC   C1B58627  30.135  16.415   6.204
 4575POPC   C2B58628  30.168  16.482   6.632
 4575POPC   C3B58629  30.404  16.405   6.987
 4575POPC   C4B58630  30.316  16.136   7.296
 4576POPC   NC358631  28.762   0.349   5.532
 4576POPC   PO458632  29.252   0.691   5.225
 4576POPC   GL158633  29.232   0.429   5.691
 4576POPC   GL258634  29.576   0.517   5.787
 4576POPC   C1A58635  28.961   0.241   6.108
 4576POPC   D2A58636  28.976   0.142   6.530
 4576POPC   C3A58637  28.869   0.419   6.849
 4576POPC   C4A58638  28.943   0.461   7.284
 4576POPC   C1B58639  29.557   0.662   6.216
 4576POPC   C2B58640  29.335   0.518   6.583
 4576POPC   C3B58641  29.367   0.505   6.998
 4576POPC   C4B58642  29.677   0.673   7.247
 4577POPC   NC358643  27.563  32.530   5.678
 4577POPC   PO458644  27.665  33.071   5.328
 4577POPC   GL158645  27.520  33.106   5.783
 4577POPC   GL258646  27.564  32.833   6.076
 4577POPC   C1A58647  27.589  33.323   6.185
 4577POPC   D2A58648  27.451  33.111   6.578
 4577POPC   C3A58649  27.672  33.298   6.933
 4577POPC   C4A58650  27.474  33.367   7.301
 4577POPC   C1B58651  27.951  32.578   6.212
 4577POPC   C2B58652  28.071  32.565   6.632
 4577POPC   C3B58653  27.810  32.807   6.904
 4577POPC   C4B58654  27.434  32.893   7.121
 4578POPC   NC358655  11.726   3.042   5.624
 4578POPC   PO458656  12.131   2.559   5.505
 4578POPC   GL158657  12.065   2.691   5.906
 4578POPC   GL258658  12.157   3.041   5.909
 4578POPC   C1A58659  12.091   2.782   6.349
 4578POPC   D2A58660  11.780   2.971   6.630
 4578POPC   C3A58661  11.947   2.836   7.027
 4578POPC   C4A58662  12.385   2.831   7.179
 4578POPC   C1B58663  12.128   3.297   6.304
 4578POPC   C2B58664  12.204   3.239   6.741
 4578POPC   C3B58665  12.189   3.292   7.166
 4578POPC   C4B58666  12.350   3.317   7.597
 4579POPC   NC358667  19.943  17.253   5.461
 4579POPC   PO458668  19.652  17.808   5.641
 4579POPC   GL158669  19.676  17.435   5.880
 4579POPC   GL258670  20.030  17.347   5.939
 4579POPC   C1A58671  19.661  17.426   6.320
 4579POPC   D2A58672  19.894  17.219   6.649
 4579POPC   C3A58673  19.842  17.294   7.060
 4579POPC   C4A58674  19.899  17.386   7.485
 4579POPC   C1B58675  20.188  17.443   6.300
 4579POPC   C2B58676  20.017  17.743   6.574
 4579POPC   C3B58677  19.755  17.865   6.909
 4579POPC   C4B58678  19.863  17.872   7.351
 4580POPC   NC358679  25.584  21.203   5.569
 4580POPC   PO458680  25.129  21.684   5.347
 4580POPC   GL158681  25.184  21.460   5.746
 4580POPC   GL258682  25.430  21.662   5.896
 4580POPC   C1A58683  25.265  21.230   6.166
 4580POPC   D2A58684  25.430  21.239   6.600
 4580POPC   C3A58685  25.173  21.310   6.957
 4580POPC   C4A58686  25.194  21.239   7.401
 4580POPC   C1B58687  25.612  21.603   6.305
 4580POPC   C2B58688  25.757  21.620   6.754
 4580POPC   C3B58689  25.602  21.507   7.190
 4580POPC   C4B58690  25.446  21.616   7.631
 4581POPC   NC358691  37.103  16.199   5.400
 4581POPC   PO458692  36.882  15.656   5.458
 4581POPC   GL158693  37.097  15.834   5.798
 4581POPC   GL258694  36.859  16.107   5.848
 4581POPC   C1A58695  37.197  15.726   6.249
 4581POPC   D2A58696  36.982  15.790   6.669
 4581POPC   C3A58697  37.159  15.699   7.075
 4581POPC   C4A58698  37.361  15.847   7.461
 4581POPC   C1B58699  36.749  15.997   6.253
 4581POPC   C2B58700  36.691  16.226   6.628
 4581POPC   C3B58701  36.672  16.040   7.023
 4581POPC   C4B58702  36.663  16.321   7.304
 4582POPC   NC358703  30.133  15.656   5.401
 4582POPC   PO458704  29.638  16.159   5.324
 4582POPC   GL158705  29.819  15.962   5.669
 4582POPC   GL258706  29.837  16.238   5.838
 4582POPC   C1A58707  30.015  15.807   6.062
 4582POPC   D2A58708  29.967  16.003   6.475
 4582POPC   C3A58709  30.027  15.765   6.877
 4582POPC   C4A58710  30.177  15.598   7.284
 4582POPC   C1B58711  29.616  16.314   6.238
 4582POPC   C2B58712  29.671  16.393   6.672
 4582POPC   C3B58713  29.885  16.316   7.060
 4582POPC   C4B58714  29.668  16.417   7.455
 4583POPC   NC358715   3.802  16.701   5.408
 4583POPC   PO458716   3.396  17.205   5.327
 4583POPC   GL158717   3.479  16.940   5.733
 4583POPC   GL258718   3.218  17.054   5.887
 4583POPC   C1A58719   3.361  16.631   6.123
 4583POPC   D2A58720   3.138  16.530   6.522
 4583POPC   C3A58721   3.319  16.572   6.947
 4583POPC   C4A58722   3.528  16.588   7.373
 4583POPC   C1B58723   3.534  17.090   6.237
 4583POPC   C2B58724   3.435  17.178   6.672
 4583POPC   C3B58725   3.385  17.048   7.081
 4583POPC   C4B58726   3.605  17.181   7.420
 4584POPC   NC358727  11.047  38.681   5.514
 4584POPC   PO458728  11.334  38.205   5.137
 4584POPC   GL158729  11.498  38.305   5.592
 4584POPC   GL258730  11.248  38.385   5.860
 4584POPC   C1A58731  11.704  38.253   6.038
 4584POPC   D2A58732  11.509  38.437   6.430
 4584POPC   C3A58733  11.504  38.375   6.879
 4584POPC   C4A58734  11.606  38.465   7.294
 4584POPC   C1B58735  11.074  38.604   6.201
 4584POPC   C2B58736  10.741  38.641   6.490
 4584POPC   C3B58737  10.752  38.631   6.923
 4584POPC   C4B58738  11.061  38.512   7.210
 4585POPC   NC358739   0.024  24.240   5.489
 4585POPC   PO458740  44.491  24.602   5.357
 4585POPC   GL158741  44.670  24.602   5.786
 4585POPC   GL258742  44.640  24.280   5.948
 4585POPC   C1A58743  44.746  24.727   6.241
 4585POPC   D2A58744  44.923  24.603   6.637
 4585POPC   C3A58745  44.766  24.807   7.027
 4585POPC   C4A58746  44.808  24.662   7.446
 4585POPC   C1B58747  44.330  24.434   6.292
 4585POPC   C2B58748  44.428  24.497   6.747
 4585POPC   C3B58749  44.729  24.301   7.070
 4585POPC   C4B58750  44.601  24.216   7.565
 4586POPC   NC358751  33.326  19.301   5.060
 4586POPC   PO458752  32.723  19.074   5.397
 4586POPC   GL158753  32.914  19.024   5.827
 4586POPC   GL258754  32.882  18.685   5.941
 4586POPC   C1A58755  33.043  19.168   6.230
 4586POPC   D2A58756  33.249  19.032   6.637
 4586POPC   C3A58757  33.167  19.313   6.985
 4586POPC   C4A58758  32.927  19.346   7.355
 4586POPC   C1B58759  32.671  18.801   6.311
 4586POPC   C2B58760  32.731  19.110   6.625
 4586POPC   C3B58761  32.808  18.954   7.024
 4586POPC   C4B58762  33.119  18.891   7.346
 4587POPC   NC358763  33.243  17.764   5.233
 4587POPC   PO458764  32.759  17.255   5.395
 4587POPC   GL158765  32.848  17.515   5.719
 4587POPC   GL258766  33.199  17.630   5.732
 4587POPC   C1A58767  32.676  17.539   6.125
 4587POPC   D2A58768  32.937  17.682   6.459
 4587POPC   C3A58769  32.891  17.685   6.884
 4587POPC   C4A58770  32.732  17.556   7.282
 4587POPC   C1B58771  33.178  17.386   6.131
 4587POPC   C2B58772  32.944  17.131   6.457
 4587POPC   C3B58773  33.006  17.178   6.909
 4587POPC   C4B58774  33.236  17.473   7.194
 4588POPC   NC358775  31.024  16.924   5.499
 4588POPC   PO458776  30.584  16.411   5.597
 4588POPC   GL158777  30.647  16.847   5.868
 4588POPC   GL258778  31.004  17.028   5.990
 4588POPC   C1A58779  30.427  16.842   6.275
 4588POPC   D2A58780  30.669  16.556   6.577
 4588POPC   C3A58781  30.838  16.681   6.991
 4588POPC   C4A58782  30.679  16.642   7.425
 4588POPC   C1B58783  30.900  16.975   6.385
 4588POPC   C2B58784  30.584  17.161   6.658
 4588POPC   C3B58785  30.455  17.048   7.066
 4588POPC   C4B58786  30.674  17.144   7.449
 4589POPC   NC358787  29.903  35.829   5.494
 4589POPC   PO458788  30.218  36.376   5.467
 4589POPC   GL158789  29.979  36.212   5.812
 4589POPC   GL258790  29.644  36.204   5.772
 4589POPC   C1A58791  30.069  36.277   6.223
 4589POPC   D2A58792  30.060  36.003   6.560
 4589POPC   C3A58793  30.062  36.191   6.942
 4589POPC   C4A58794  30.052  35.979   7.305
 4589POPC   C1B58795  29.611  36.038   6.181
 4589POPC   C2B58796  29.591  36.153   6.607
 4589POPC   C3B58797  29.656  35.885   6.950
 4589POPC   C4B58798  29.545  35.837   7.374
 4590POPC   NC358799   1.508  30.141   5.322
 4590POPC   PO458800   0.907  30.192   5.534
 4590POPC   GL158801   1.216  29.946   5.756
 4590POPC   GL258802   1.462  30.142   5.824
 4590POPC   C1A58803   1.254  29.784   6.164
 4590POPC   D2A58804   1.275  29.950   6.580
 4590POPC   C3A58805   1.125  29.703   6.939
 4590POPC   C4A58806   0.910  29.805   7.306
 4590POPC   C1B58807   1.580  30.235   6.223
 4590POPC   C2B58808   1.531  30.398   6.620
 4590POPC   C3B58809   1.539  30.133   6.987
 4590POPC   C4B58810   1.404  30.221   7.381
 4591POPC   NC358811  23.297   4.952   5.632
 4591POPC   PO458812  22.817   5.345   5.407
 4591POPC   GL158813  22.898   5.244   5.821
 4591POPC   GL258814  23.226   5.403   5.866
 4591POPC   C1A58815  22.859   4.920   6.172
 4591POPC   D2A58816  23.103   4.889   6.577
 4591POPC   C3A58817  22.858   5.155   6.861
 4591POPC   C4A58818  22.649   5.047   7.250
 4591POPC   C1B58819  23.202   5.275   6.254
 4591POPC   C2B58820  23.271   5.442   6.634
 4591POPC   C3B58821  23.348   5.291   7.013
 4591POPC   C4B58822  23.165   5.035   7.245
 4592POPC   NC358823  17.538  34.650   5.502
 4592POPC   PO458824  17.131  34.252   5.635
 4592POPC   GL158825  17.387  34.422   5.969
 4592POPC   GL258826  17.741  34.414   5.906
 4592POPC   C1A58827  17.541  34.591   6.378
 4592POPC   D2A58828  17.453  34.543   6.835
 4592POPC   C3A58829  17.706  34.776   7.129
 4592POPC   C4A58830  17.624  34.914   7.555
 4592POPC   C1B58831  17.785  34.151   6.260
 4592POPC   C2B58832  17.875  34.222   6.694
 4592POPC   C3B58833  17.802  34.267   7.130
 4592POPC   C4B58834  17.946  34.499   7.493
 4593POPC   NC358835   3.965  32.046   5.262
 4593POPC   PO458836   4.256  32.579   5.447
 4593POPC   GL158837   4.180  32.404   5.812
 4593POPC   GL258838   4.257  32.071   5.727
 4593POPC   C1A58839   4.387  32.332   6.197
 4593POPC   D2A58840   4.561  32.060   6.516
 4593POPC   C3A58841   4.405  32.221   6.908
 4593POPC   C4A58842   4.515  32.082   7.306
 4593POPC   C1B58843   4.166  31.900   6.152
 4593POPC   C2B58844   4.025  32.007   6.580
 4593POPC   C3B58845   4.063  31.867   7.031
 4593POPC   C4B58846   3.956  32.024   7.428
 4594POPC   NC358847  14.599  42.082   5.547
 4594POPC   PO458848  14.175  42.594   5.264
 4594POPC   GL158849  14.388  42.507   5.773
 4594POPC   GL258850  14.390  42.211   5.992
 4594POPC   C1A58851  14.528  42.637   6.223
 4594POPC   D2A58852  14.257  42.568   6.583
 4594POPC   C3A58853  14.263  42.747   6.972
 4594POPC   C4A58854  14.209  42.547   7.360
 4594POPC   C1B58855  14.656  41.972   6.278
 4594POPC   C2B58856  14.718  42.100   6.684
 4594POPC   C3B58857  14.491  42.300   6.973
 4594POPC   C4B58858  14.607  42.209   7.341
 4595POPC   NC358859   6.107  18.154   5.528
 4595POPC   PO458860   5.746  18.760   5.573
 4595POPC   GL158861   5.810  18.460   5.865
 4595POPC   GL258862   5.672  18.137   5.782
 4595POPC   C1A58863   5.994  18.279   6.208
 4595POPC   D2A58864   6.265  18.230   6.553
 4595POPC   C3A58865   6.053  18.271   6.919
 4595POPC   C4A58866   5.924  17.989   7.201
 4595POPC   C1B58867   5.487  18.083   6.156
 4595POPC   C2B58868   5.630  18.034   6.546
 4595POPC   C3B58869   5.471  18.072   6.933
 4595POPC   C4B58870   5.586  18.373   7.184
 4596POPC   NC358871  20.681   0.674   5.641
 4596POPC   PO458872  20.355   0.099   5.284
 4596POPC   GL158873  20.532   0.109   5.735
 4596POPC   GL258874  20.382   0.349   5.919
 4596POPC   C1A58875  20.763   0.085   6.171
 4596POPC   D2A58876  20.979   0.235   6.588
 4596POPC   C3A58877  20.761   0.460   6.902
 4596POPC   C4A58878  20.607   0.251   7.222
 4596POPC   C1B58879  20.529   0.551   6.314
 4596POPC   C2B58880  20.372   0.734   6.698
 4596POPC   C3B58881  20.215   0.589   7.112
 4596POPC   C4B58882  20.388   0.592   7.546
 4597POPC   NC358883  35.117  13.249   5.301
 4597POPC   PO458884  35.765  13.413   5.425
 4597POPC   GL158885  35.510  13.628   5.791
 4597POPC   GL258886  35.210  13.392   5.794
 4597POPC   C1A58887  35.581  13.954   6.188
 4597POPC   D2A58888  35.500  14.090   6.654
 4597POPC   C3A58889  35.535  13.703   6.892
 4597POPC   C4A58890  35.533  13.576   7.325
 4597POPC   C1B58891  35.028  13.382   6.207
 4597POPC   C2B58892  35.133  13.703   6.529
 4597POPC   C3B58893  35.045  13.618   6.943
 4597POPC   C4B58894  35.042  13.371   7.256
 4598POPC   NC358895  41.869  10.953   5.160
 4598POPC   PO458896  42.313  10.554   5.551
 4598POPC   GL158897  42.360  10.439   5.924
 4598POPC   GL258898  42.697  10.514   5.951
 4598POPC   C1A58899  42.332  10.592   6.317
 4598POPC   D2A58900  42.102  10.722   6.637
 4598POPC   C3A58901  42.367  10.647   6.953
 4598POPC   C4A58902  42.297  10.579   7.351
 4598POPC   C1B58903  42.665  10.209   6.301
 4598POPC   C2B58904  42.711  10.349   6.699
 4598POPC   C3B58905  42.734  10.289   7.128
 4598POPC   C4B58906  42.849  10.330   7.579
 4599POPC   NC358907   1.313   8.497   5.411
 4599POPC   PO458908   1.029   7.880   5.323
 4599POPC   GL158909   1.088   7.980   5.776
 4599POPC   GL258910   1.365   8.216   5.837
 4599POPC   C1A58911   1.081   8.032   6.231
 4599POPC   D2A58912   0.975   8.102   6.662
 4599POPC   C3A58913   1.322   8.240   6.900
 4599POPC   C4A58914   1.495   8.008   7.236
 4599POPC   C1B58915   0.986   8.465   5.993
 4599POPC   C2B58916   0.947   8.557   6.430
 4599POPC   C3B58917   0.934   8.583   6.878
 4599POPC   C4B58918   1.102   8.505   7.291
 4600POPC   NC358919  21.474  35.575   5.410
 4600POPC   PO458920  21.054  35.075   5.671
 4600POPC   GL158921  21.188  35.465   5.864
 4600POPC   GL258922  21.569  35.481   5.901
 4600POPC   C1A58923  21.185  35.372   6.303
 4600POPC   D2A58924  21.278  35.004   6.524
 4600POPC   C3A58925  21.297  35.164   6.930
 4600POPC   C4A58926  21.178  35.452   7.212
 4600POPC   C1B58927  21.692  35.253   6.261
 4600POPC   C2B58928  21.887  35.382   6.623
 4600POPC   C3B58929  21.756  35.561   7.011
 4600POPC   C4B58930  21.649  35.342   7.372
 4601POPC   NC358931  16.322  24.655   5.422
 4601POPC   PO458932  15.687  24.409   5.243
 4601POPC   GL158933  15.949  24.338   5.630
 4601POPC   GL258934  15.859  24.600   5.857
 4601POPC   C1A58935  16.162  24.289   6.082
 4601POPC   D2A58936  15.969  24.471   6.466
 4601POPC   C3A58937  16.018  24.374   6.881
 4601POPC   C4A58938  16.107  24.523   7.266
 4601POPC   C1B58939  15.682  24.827   6.210
 4601POPC   C2B58940  15.581  24.779   6.643
 4601POPC   C3B58941  15.574  24.574   7.020
 4601POPC   C4B58942  15.633  24.703   7.396
 4602POPC   NC358943  41.178  12.429   5.588
 4602POPC   PO458944  41.432  11.902   5.185
 4602POPC   GL158945  41.566  12.075   5.619
 4602POPC   GL258946  41.890  12.016   5.764
 4602POPC   C1A58947  41.504  12.096   6.100
 4602POPC   D2A58948  41.389  11.934   6.533
 4602POPC   C3A58949  41.609  12.153   6.849
 4602POPC   C4A58950  41.395  12.139   7.209
 4602POPC   C1B58951  41.957  11.858   6.223
 4602POPC   C2B58952  41.839  11.721   6.665
 4602POPC   C3B58953  41.831  11.805   7.158
 4602POPC   C4B58954  42.007  11.782   7.602
 4603POPC   NC358955  16.531  42.759   5.433
 4603POPC   PO458956  17.168  43.032   5.444
 4603POPC   GL158957  16.903  42.916   5.776
 4603POPC   GL258958  16.605  43.162   5.775
 4603POPC   C1A58959  16.951  42.768   6.196
 4603POPC   D2A58960  17.057  43.032   6.555
 4603POPC   C3A58961  16.967  42.914   6.967
 4603POPC   C4A58962  16.936  43.199   7.314
 4603POPC   C1B58963  16.486  43.047   6.207
 4603POPC   C2B58964  16.501  43.164   6.652
 4603POPC   C3B58965  16.497  43.027   7.085
 4603POPC   C4B58966  16.383  43.299   7.431
 4604POPC   NC358967  22.107  17.761   5.207
 4604POPC   PO458968  22.229  17.172   5.542
 4604POPC   GL158969  22.010  17.437   5.858
 4604POPC   GL258970  21.885  17.778   6.016
 4604POPC   C1A58971  22.049  17.409   6.306
 4604POPC   D2A58972  21.886  17.563   6.674
 4604POPC   C3A58973  22.006  17.273   6.970
 4604POPC   C4A58974  22.248  17.214   7.323
 4604POPC   C1B58975  22.260  17.880   6.336
 4604POPC   C2B58976  22.358  17.878   6.795
 4604POPC   C3B58977  22.112  17.748   7.114
 4604POPC   C4B58978  21.918  17.974   7.428
 4605POPC   NC358979  41.142  27.506   5.444
 4605POPC   PO458980  40.676  27.922   5.564
 4605POPC   GL158981  40.700  27.578   5.843
 4605POPC   GL258982  41.047  27.543   5.957
 4605POPC   C1A58983  40.536  27.482   6.261
 4605POPC   D2A58984  40.308  27.654   6.623
 4605POPC   C3A58985  40.504  27.408   6.912
 4605POPC   C4A58986  40.475  27.322   7.319
 4605POPC   C1B58987  40.887  27.855   6.261
 4605POPC   C2B58988  40.786  27.856   6.696
 4605POPC   C3B58989  40.780  27.765   7.115
 4605POPC   C4B58990  41.009  27.408   7.227
 4606POPC   NC358991  30.689   7.876   5.656
 4606POPC   PO458992  30.998   7.401   5.335
 4606POPC   GL158993  30.861   7.291   5.782
 4606POPC   GL258994  30.521   7.389   5.950
 4606POPC   C1A58995  30.955   7.367   6.217
 4606POPC   D2A58996  30.593   7.416   6.491
 4606POPC   C3A58997  30.624   7.287   6.897
 4606POPC   C4A58998  30.895   7.442   7.184
 4606POPC   C1B58999  30.322   7.749   6.229
 4606POPC   C2B59000  30.185   7.762   6.670
 4606POPC   C3B59001  30.365   7.723   7.115
 4606POPC   C4B59002  30.452   7.430   7.448
 4607POPC   NC359003  26.218  11.603   5.351
 4607POPC   PO459004  25.784  11.125   5.558
 4607POPC   GL159005  25.730  11.370   5.883
 4607POPC   GL259006  26.110  11.421   5.846
 4607POPC   C1A59007  25.848  11.374   6.316
 4607POPC   D2A59008  26.228  11.345   6.540
 4607POPC   C3A59009  26.198  11.171   6.942
 4607POPC   C4A59010  26.093  11.292   7.339
 4607POPC   C1B59011  26.220  11.715   6.166
 4607POPC   C2B59012  26.462  11.806   6.557
 4607POPC   C3B59013  26.261  11.698   6.924
 4607POPC   C4B59014  26.179  11.805   7.308
 4608POPC   NC359015  18.592  24.696   5.421
 4608POPC   PO459016  18.183  24.068   5.405
 4608POPC   GL159017  18.175  24.395   5.740
 4608POPC   GL259018  18.490  24.409   5.840
 4608POPC   C1A59019  18.114  24.415   6.215
 4608POPC   D2A59020  17.952  24.269   6.663
 4608POPC   C3A59021  18.067  24.416   7.064
 4608POPC   C4A59022  18.319  24.774   7.052
 4608POPC   C1B59023  18.606  24.582   6.219
 4608POPC   C2B59024  18.446  24.482   6.622
 4608POPC   C3B59025  18.564  24.319   7.001
 4608POPC   C4B59026  18.604  24.530   7.398
 4609POPC   NC359027  15.349  11.481   5.551
 4609POPC   PO459028  14.757  11.176   5.474
 4609POPC   GL159029  15.025  11.205   5.864
 4609POPC   GL259030  15.356  11.007   5.787
 4609POPC   C1A59031  15.159  11.535   6.216
 4609POPC   D2A59032  15.453  11.542   6.580
 4609POPC   C3A59033  15.231  11.559   6.993
 4609POPC   C4A59034  15.281  11.429   7.433
 4609POPC   C1B59035  15.365  11.070   6.245
 4609POPC   C2B59036  15.099  11.155   6.609
 4609POPC   C3B59037  15.161  11.050   7.039
 4609POPC   C4B59038  15.510  10.979   7.316
 4610POPC   NC359039  37.862  21.890   5.505
 4610POPC   PO459040  37.792  22.569   5.590
 4610POPC   GL159041  37.900  22.268   5.932
 4610POPC   GL259042  37.646  22.049   5.930
 4610POPC   C1A59043  38.034  21.949   6.287
 4610POPC   D2A59044  37.988  21.695   6.691
 4610POPC   C3A59045  37.775  21.864   7.033
 4610POPC   C4A59046  37.878  22.012   7.409
 4610POPC   C1B59047  37.555  22.113   6.333
 4610POPC   C2B59048  37.587  22.226   6.741
 4610POPC   C3B59049  37.792  22.401   7.112
 4610POPC   C4B59050  37.696  22.436   7.601
 4611POPC   NC359051  26.591   4.818   5.426
 4611POPC   PO459052  27.143   5.245   5.312
 4611POPC   GL159053  26.906   5.148   5.720
 4611POPC   GL259054  26.683   5.405   5.899
 4611POPC   C1A59055  27.015   5.041   6.171
 4611POPC   D2A59056  27.235   4.793   6.501
 4611POPC   C3A59057  27.108   4.948   6.907
 4611POPC   C4A59058  27.011   5.323   7.147
 4611POPC   C1B59059  26.508   5.093   6.209
 4611POPC   C2B59060  26.675   4.903   6.610
 4611POPC   C3B59061  26.631   4.992   7.077
 4611POPC   C4B59062  26.616   5.122   7.539
 4612POPC   NC359063  33.726   0.443   5.029
 4612POPC   PO459064  34.097   0.810   5.500
 4612POPC   GL159065  33.979   0.645   5.920
 4612POPC   GL259066  33.710   0.345   5.976
 4612POPC   C1A59067  33.813   0.714   6.280
 4612POPC   D2A59068  33.631   0.461   6.574
 4612POPC   C3A59069  33.700   0.649   6.951
 4612POPC   C4A59070  33.850   0.573   7.347
 4612POPC   C1B59071  34.043   0.230   6.244
 4612POPC   C2B59072  33.979   0.087   6.640
 4612POPC   C3B59073  33.894   0.169   7.034
 4612POPC   C4B59074  34.244   0.214   7.283
 4613POPC   NC359075  13.779   1.567   5.537
 4613POPC   PO459076  13.602   0.899   5.733
 4613POPC   GL159077  13.636   1.223   5.934
 4613POPC   GL259078  13.354   1.423   5.839
 4613POPC   C1A59079  13.545   1.193   6.367
 4613POPC   D2A59080  13.254   1.215   6.669
 4613POPC   C3A59081  13.447   1.048   6.991
 4613POPC   C4A59082  13.891   1.046   7.088
 4613POPC   C1B59083  13.585   1.663   6.172
 4613POPC   C2B59084  13.448   1.703   6.567
 4613POPC   C3B59085  13.652   1.529   6.905
 4613POPC   C4B59086  13.527   1.478   7.278
 4614POPC   NC359087   0.641  14.010   5.516
 4614POPC   PO459088   0.199  13.478   5.589
 4614POPC   GL159089   0.268  13.835   5.840
 4614POPC   GL259090   0.613  13.687   5.921
 4614POPC   C1A59091   0.317  13.940   6.267
 4614POPC   D2A59092   0.509  13.687   6.597
 4614POPC   C3A59093   0.258  13.549   6.921
 4614POPC   C4A59094   0.274  13.683   7.310
 4614POPC   C1B59095   0.862  13.850   6.256
 4614POPC   C2B59096   0.974  13.909   6.696
 4614POPC   C3B59097   0.637  13.949   7.031
 4614POPC   C4B59098   0.713  13.901   7.480
 4615POPC   NC359099   2.083   7.867   5.512
 4615POPC   PO459100   1.779   8.518   5.496
 4615POPC   GL159101   1.883   8.302   5.900
 4615POPC   GL259102   2.254   8.228   5.863
 4615POPC   C1A59103   1.680   8.177   6.328
 4615POPC   D2A59104   1.744   7.992   6.767
 4615POPC   C3A59105   1.961   8.180   7.140
 4615POPC   C4A59106   2.013   8.419   7.532
 4615POPC   C1B59107   2.209   8.139   6.299
 4615POPC   C2B59108   2.241   8.044   6.715
 4615POPC   C3B59109   2.408   7.921   7.070
 4615POPC   C4B59110   2.360   8.031   7.488
 4616POPC   NC359111  37.489   8.491   5.544
 4616POPC   PO459112  37.912   8.022   5.389
 4616POPC   GL159113  37.763   8.124   5.810
 4616POPC   GL259114  37.958   8.454   5.799
 4616POPC   C1A59115  37.577   7.970   6.246
 4616POPC   D2A59116  37.452   8.002   6.723
 4616POPC   C3A59117  37.737   7.830   7.058
 4616POPC   C4A59118  37.922   8.017   7.431
 4616POPC   C1B59119  37.795   8.442   6.216
 4616POPC   C2B59120  37.969   8.505   6.622
 4616POPC   C3B59121  37.768   8.359   6.963
 4616POPC   C4B59122  37.478   8.248   7.228
 4617POPC   NC359123  18.596  26.933   5.003
 4617POPC   PO459124  19.147  26.853   5.404
 4617POPC   GL159125  19.005  26.794   5.837
 4617POPC   GL259126  18.648  26.647   5.856
 4617POPC   C1A59127  19.184  26.839   6.276
 4617POPC   D2A59128  19.324  26.917   6.713
 4617POPC   C3A59129  19.127  26.896   7.122
 4617POPC   C4A59130  19.185  26.571   7.468
 4617POPC   C1B59131  18.671  26.954   6.195
 4617POPC   C2B59132  18.801  26.963   6.609
 4617POPC   C3B59133  18.720  26.697   6.909
 4617POPC   C4B59134  18.651  26.812   7.309
 4618POPC   NC359135   0.671   4.341   5.440
 4618POPC   PO459136   0.255   3.935   5.603
 4618POPC   GL159137   0.381   4.309   5.924
 4618POPC   GL259138   0.751   4.495   5.927
 4618POPC   C1A59139   0.265   4.323   6.399
 4618POPC   D2A59140   0.112   4.259   6.849
 4618POPC   C3A59141   0.422   4.262   7.205
 4618POPC   C4A59142   0.469   3.874   7.493
 4618POPC   C1B59143   0.603   4.715   6.320
 4618POPC   C2B59144   0.526   4.611   6.767
 4618POPC   C3B59145   0.647   4.740   7.209
 4618POPC   C4B59146   0.536   4.736   7.654
 4619POPC   NC359147  24.543  24.177   5.525
 4619POPC   PO459148  24.272  24.702   5.241
 4619POPC   GL159149  24.350  24.642   5.735
 4619POPC   GL259150  24.714  24.543   5.831
 4619POPC   C1A59151  24.370  24.466   6.197
 4619POPC   D2A59152  24.360  24.323   6.657
 4619POPC   C3A59153  24.312  24.613   7.004
 4619POPC   C4A59154  24.064  24.738   7.377
 4619POPC   C1B59155  24.806  24.182   6.162
 4619POPC   C2B59156  24.784  24.035   6.609
 4619POPC   C3B59157  24.767  24.266   7.027
 4619POPC   C4B59158  24.933  24.166   7.440
 4620POPC   NC359159   2.958  41.968   5.491
 4620POPC   PO459160   2.881  42.598   5.543
 4620POPC   GL159161   2.816  42.478   5.910
 4620POPC   GL259162   3.155  42.642   6.011
 4620POPC   C1A59163   2.526  42.342   6.257
 4620POPC   D2A59164   2.575  42.350   6.723
 4620POPC   C3A59165   2.793  42.189   7.091
 4620POPC   C4A59166   2.494  42.222   7.451
 4620POPC   C1B59167   2.920  42.680   6.350
 4620POPC   C2B59168   2.872  42.811   6.682
 4620POPC   C3B59169   2.979  42.672   7.024
 4620POPC   C4B59170   2.718  42.662   7.319
 4621POPC   NC359171  44.730  38.282   5.166
 4621POPC   PO459172  44.236  38.618   5.529
 4621POPC   GL159173  44.642  38.572   5.736
 4621POPC   GL259174  44.703  38.229   5.802
 4621POPC   C1A59175  44.690  38.595   6.193
 4621POPC   D2A59176  44.376  38.430   6.474
 4621POPC   C3A59177  44.463  38.543   6.883
 4621POPC   C4A59178  44.453  38.453   7.319
 4621POPC   C1B59179  44.784  38.087   6.227
 4621POPC   C2B59180  44.834  38.247   6.637
 4621POPC   C3B59181  44.744  38.153   7.052
 4621POPC   C4B59182  44.908  38.299   7.440
 4622POPC   NC359183  27.570  38.671   5.457
 4622POPC   PO459184  27.210  38.131   5.272
 4622POPC   GL159185  27.280  38.303   5.737
 4622POPC   GL259186  27.637  38.289   5.814
 4622POPC   C1A59187  27.373  38.640   6.107
 4622POPC   D2A59188  27.653  38.680   6.500
 4622POPC   C3A59189  27.461  38.682   6.915
 4622POPC   C4A59190  27.273  38.436   7.250
 4622POPC   C1B59191  27.795  38.223   6.234
 4622POPC   C2B59192  27.982  38.296   6.629
 4622POPC   C3B59193  27.744  38.265   7.009
 4622POPC   C4B59194  27.739  38.434   7.461
 4623POPC   NC359195  30.298  29.446   5.337
 4623POPC   PO459196  30.935  29.088   5.353
 4623POPC   GL159197  30.630  29.143   5.731
 4623POPC   GL259198  30.410  29.396   5.825
 4623POPC   C1A59199  30.665  29.122   6.191
 4623POPC   D2A59200  30.771  29.164   6.640
 4623POPC   C3A59201  30.568  28.923   6.976
 4623POPC   C4A59202  30.663  28.784   7.394
 4623POPC   C1B59203  30.504  29.609   6.219
 4623POPC   C2B59204  30.388  29.606   6.652
 4623POPC   C3B59205  30.502  29.529   7.066
 4623POPC   C4B59206  30.673  29.279   7.362
 4624POPC   NC359207  31.627  25.929   5.398
 4624POPC   PO459208  31.558  26.614   5.361
 4624POPC   GL159209  31.457  26.273   5.742
 4624POPC   GL259210  31.252  25.925   5.743
 4624POPC   C1A59211  31.676  26.029   6.087
 4624POPC   D2A59212  31.641  25.782   6.494
 4624POPC   C3A59213  31.486  26.012   6.868
 4624POPC   C4A59214  31.473  26.069   7.326
 4624POPC   C1B59215  31.225  25.799   6.185
 4624POPC   C2B59216  31.112  25.710   6.640
 4624POPC   C3B59217  31.026  25.931   7.060
 4624POPC   C4B59218  31.059  25.805   7.480
 4625POPC   NC359219  44.371  12.361   5.541
 4625POPC   PO459220  44.386  11.656   5.515
 4625POPC   GL159221  44.548  11.910   5.847
 4625POPC   GL259222  44.625  12.272   5.943
 4625POPC   C1A59223  44.621  11.916   6.284
 4625POPC   D2A59224  44.859  12.036   6.656
 4625POPC   C3A59225  44.544  11.961   6.947
 4625POPC   C4A59226  44.510  11.792   7.342
 4625POPC   C1B59227  44.791  12.426   6.302
 4625POPC   C2B59228  44.840  12.581   6.719
 4625POPC   C3B59229  44.864  12.361   7.080
 4625POPC   C4B59230  44.509  12.309   7.339
 4626POPC   NC359231   5.572  23.760   5.411
 4626POPC   PO459232   6.181  23.452   5.312
 4626POPC   GL159233   5.907  23.484   5.729
 4626POPC   GL259234   5.787  23.831   5.868
 4626POPC   C1A59235   6.052  23.385   6.165
 4626POPC   D2A59236   6.213  23.238   6.581
 4626POPC   C3A59237   6.051  23.515   6.920
 4626POPC   C4A59238   6.034  23.837   7.264
 4626POPC   C1B59239   5.638  23.732   6.278
 4626POPC   C2B59240   5.506  23.729   6.716
 4626POPC   C3B59241   5.630  24.058   7.018
 4626POPC   C4B59242   5.497  24.064   7.437
 4627POPC   NC359243  38.802  27.100   5.491
 4627POPC   PO459244  38.232  26.580   5.556
 4627POPC   GL159245  38.462  26.762   5.915
 4627POPC   GL259246  38.776  26.722   5.855
 4627POPC   C1A59247  38.241  26.880   6.321
 4627POPC   D2A59248  38.146  26.645   6.684
 4627POPC   C3A59249  38.169  26.923   7.001
 4627POPC   C4A59250  38.355  26.911   7.345
 4627POPC   C1B59251  38.755  26.920   6.282
 4627POPC   C2B59252  38.574  26.992   6.692
 4627POPC   C3B59253  38.755  27.066   7.097
 4627POPC   C4B59254  38.619  27.323   7.483
 4628POPC   NC359255  22.443   3.271   5.509
 4628POPC   PO459256  21.873   3.606   5.242
 4628POPC   GL159257  22.065   3.625   5.695
 4628POPC   GL259258  21.991   3.256   5.797
 4628POPC   C1A59259  22.298   3.805   6.117
 4628POPC   D2A59260  22.469   3.752   6.557
 4628POPC   C3A59261  22.287   3.676   6.991
 4628POPC   C4A59262  22.477   3.884   7.346
 4628POPC   C1B59263  21.901   3.503   6.172
 4628POPC   C2B59264  21.961   3.615   6.593
 4628POPC   C3B59265  21.842   3.356   6.957
 4628POPC   C4B59266  21.949   3.318   7.398
 4629POPC   NC359267  32.482  30.053   5.430
 4629POPC   PO459268  31.877  30.322   5.526
 4629POPC   GL159269  32.037  30.080   5.906
 4629POPC   GL259270  32.392  29.997   5.929
 4629POPC   C1A59271  32.064  29.700   6.198
 4629POPC   D2A59272  32.471  29.586   6.417
 4629POPC   C3A59273  32.516  29.764   6.839
 4629POPC   C4A59274  32.401  29.597   7.242
 4629POPC   C1B59275  32.335  30.099   6.361
 4629POPC   C2B59276  31.996  30.236   6.616
 4629POPC   C3B59277  32.036  30.386   7.024
 4629POPC   C4B59278  32.349  30.129   7.246
 4630POPC   NC359279  16.928  36.618   5.272
 4630POPC   PO459280  16.794  37.253   5.484
 4630POPC   GL159281  16.744  36.901   5.784
 4630POPC   GL259282  17.032  36.676   5.812
 4630POPC   C1A59283  16.649  36.575   6.134
 4630POPC   D2A59284  16.638  36.749   6.543
 4630POPC   C3A59285  16.680  36.598   6.944
 4630POPC   C4A59286  16.490  36.750   7.329
 4630POPC   C1B59287  17.049  36.900   6.231
 4630POPC   C2B59288  17.020  37.109   6.642
 4630POPC   C3B59289  16.766  37.086   7.024
 4630POPC   C4B59290  16.975  36.931   7.386
 4631POPC   NC359291  25.309   3.717   5.455
 4631POPC   PO459292  25.612   3.089   5.371
 4631POPC   GL159293  25.615   3.392   5.704
 4631POPC   GL259294  25.279   3.334   5.799
 4631POPC   C1A59295  25.500   3.691   6.093
 4631POPC   D2A59296  25.193   3.814   6.461
 4631POPC   C3A59297  25.334   3.861   6.889
 4631POPC   C4A59298  25.236   3.644   7.267
 4631POPC   C1B59299  25.103   3.366   6.187
 4631POPC   C2B59300  24.977   3.333   6.604
 4631POPC   C3B59301  25.090   3.223   7.000
 4631POPC   C4B59302  25.360   3.152   7.332
 4632POPC   NC359303  33.607   4.906   5.324
 4632POPC   PO459304  34.181   5.185   5.392
 4632POPC   GL159305  33.873   5.131   5.739
 4632POPC   GL259306  33.703   4.795   5.811
 4632POPC   C1A59307  33.803   5.171   6.178
 4632POPC   D2A59308  33.655   5.379   6.528
 4632POPC   C3A59309  33.787   5.266   6.868
 4632POPC   C4A59310  33.625   5.185   7.229
 4632POPC   C1B59311  33.435   4.818   6.179
 4632POPC   C2B59312  33.582   4.854   6.571
 4632POPC   C3B59313  33.420   4.837   6.950
 4632POPC   C4B59314  33.474   4.680   7.327
 4633POPC   NC359315  23.026  24.864   5.403
 4633POPC   PO459316  22.837  25.503   5.396
 4633POPC   GL159317  22.864  25.222   5.748
 4633POPC   GL259318  23.227  25.097   5.813
 4633POPC   C1A59319  22.848  25.144   6.207
 4633POPC   D2A59320  22.695  25.329   6.600
 4633POPC   C3A59321  22.815  25.259   7.024
 4633POPC   C4A59322  22.989  25.557   7.312
 4633POPC   C1B59323  23.380  25.170   6.239
 4633POPC   C2B59324  23.231  25.137   6.674
 4633POPC   C3B59325  23.335  25.238   7.106
 4633POPC   C4B59326  23.360  25.293   7.589
 4634POPC   NC359327   6.815  26.389   5.505
 4634POPC   PO459328   6.682  27.066   5.498
 4634POPC   GL159329   6.515  27.010   5.849
 4634POPC   GL259330   6.505  26.668   5.818
 4634POPC   C1A59331   6.404  26.947   6.265
 4634POPC   D2A59332   6.639  26.904   6.606
 4634POPC   C3A59333   6.428  26.791   6.952
 4634POPC   C4A59334   6.660  26.755   7.322
 4634POPC   C1B59335   6.806  26.595   6.189
 4634POPC   C2B59336   6.849  26.441   6.609
 4634POPC   C3B59337   6.982  26.582   6.979
 4634POPC   C4B59338   6.949  26.327   7.337
 4635POPC   NC359339  33.160  23.359   5.534
 4635POPC   PO459340  33.292  22.710   5.450
 4635POPC   GL159341  33.349  22.880   5.859
 4635POPC   GL259342  33.004  22.997   5.894
 4635POPC   C1A59343  33.224  22.706   6.263
 4635POPC   D2A59344  32.996  22.882   6.603
 4635POPC   C3A59345  33.226  22.780   6.948
 4635POPC   C4A59346  33.058  22.477   7.219
 4635POPC   C1B59347  32.869  23.308   6.172
 4635POPC   C2B59348  32.772  23.349   6.568
 4635POPC   C3B59349  32.805  23.297   7.009
 4635POPC   C4B59350  33.103  23.104   7.305
 4636POPC   NC359351   8.016  42.623   5.172
 4636POPC   PO459352   8.094  42.046   5.454
 4636POPC   GL159353   8.253  42.122   5.851
 4636POPC   GL259354   8.529  41.889   5.923
 4636POPC   C1A59355   8.122  42.405   6.212
 4636POPC   D2A59356   8.287  42.428   6.628
 4636POPC   C3A59357   8.030  42.467   6.988
 4636POPC   C4A59358   8.223  42.488   7.370
 4636POPC   C1B59359   8.335  41.948   6.325
 4636POPC   C2B59360   8.055  41.943   6.678
 4636POPC   C3B59361   8.200  41.995   7.077
 4636POPC   C4B59362   8.565  42.007   7.255
 4637POPC   NC359363   5.623  40.458   5.423
 4637POPC   PO459364   5.909  41.050   5.350
 4637POPC   GL159365   5.767  40.883   5.753
 4637POPC   GL259366   5.416  41.016   5.784
 4637POPC   C1A59367   5.769  40.569   6.115
 4637POPC   D2A59368   5.631  40.650   6.542
 4637POPC   C3A59369   5.752  40.421   6.923
 4637POPC   C4A59370   5.962  40.589   7.291
 4637POPC   C1B59371   5.667  41.232   6.118
 4637POPC   C2B59372   5.786  41.149   6.543
 4637POPC   C3B59373   5.807  40.963   6.942
 4637POPC   C4B59374   5.469  40.834   7.185
 4638POPC   NC359375  32.541  17.451   5.031
 4638POPC   PO459376  32.148  17.549   5.528
 4638POPC   GL159377  32.101  17.630   5.931
 4638POPC   GL259378  32.265  17.936   5.987
 4638POPC   C1A59379  32.191  17.467   6.318
 4638POPC   D2A59380  32.536  17.408   6.602
 4638POPC   C3A59381  32.380  17.537   6.920
 4638POPC   C4A59382  32.011  17.330   6.966
 4638POPC   C1B59383  31.916  17.960   6.286
 4638POPC   C2B59384  31.953  17.765   6.653
 4638POPC   C3B59385  32.089  17.943   6.964
 4638POPC   C4B59386  32.182  17.747   7.336
 4639POPC   NC359387  27.604  16.413   5.530
 4639POPC   PO459388  27.182  16.934   5.376
 4639POPC   GL159389  27.433  16.881   5.777
 4639POPC   GL259390  27.796  16.866   5.802
 4639POPC   C1A59391  27.460  16.680   6.195
 4639POPC   D2A59392  27.344  16.447   6.586
 4639POPC   C3A59393  27.487  16.611   6.986
 4639POPC   C4A59394  27.379  16.965   7.227
 4639POPC   C1B59395  27.928  16.554   6.122
 4639POPC   C2B59396  27.848  16.528   6.567
 4639POPC   C3B59397  27.966  16.810   6.942
 4639POPC   C4B59398  27.818  16.816   7.365
 4640POPC   NC359399  18.150  19.666   5.498
 4640POPC   PO459400  18.402  20.274   5.588
 4640POPC   GL159401  18.166  19.995   5.908
 4640POPC   GL259402  17.989  19.641   5.974
 4640POPC   C1A59403  18.403  19.810   6.230
 4640POPC   D2A59404  18.468  19.649   6.634
 4640POPC   C3A59405  18.662  19.897   6.990
 4640POPC   C4A59406  18.639  19.699   7.404
 4640POPC   C1B59407  17.932  19.672   6.404
 4640POPC   C2B59408  18.004  19.445   6.771
 4640POPC   C3B59409  18.230  19.599   7.107
 4640POPC   C4B59410  18.247  20.010   7.265
 4641POPC   NC359411  20.143  40.785   5.322
 4641POPC   PO459412  19.498  40.949   5.055
 4641POPC   GL159413  19.587  40.795   5.566
 4641POPC   GL259414  19.866  40.961   5.730
 4641POPC   C1A59415  19.473  40.883   6.073
 4641POPC   D2A59416  19.446  41.055   6.541
 4641POPC   C3A59417  19.589  40.862   6.967
 4641POPC   C4A59418  19.890  41.023   7.257
 4641POPC   C1B59419  20.008  40.887   6.182
 4641POPC   C2B59420  19.914  40.731   6.609
 4641POPC   C3B59421  20.121  40.619   7.022
 4641POPC   C4B59422  20.267  40.354   7.392
 4642POPC   NC359423  28.647  15.409   5.452
 4642POPC   PO459424  28.068  15.153   5.233
 4642POPC   GL159425  28.286  15.205   5.776
 4642POPC   GL259426  28.588  15.465   5.963
 4642POPC   C1A59427  28.399  15.093   6.232
 4642POPC   D2A59428  28.230  15.211   6.629
 4642POPC   C3A59429  28.426  15.034   6.900
 4642POPC   C4A59430  28.360  14.764   7.208
 4642POPC   C1B59431  28.220  15.582   6.271
 4642POPC   C2B59432  28.116  15.695   6.716
 4642POPC   C3B59433  28.448  15.590   7.017
 4642POPC   C4B59434  28.860  15.710   7.178
 4643POPC   NC359435   4.065  28.881   5.662
 4643POPC   PO459436   3.469  29.092   5.292
 4643POPC   GL159437   3.481  29.227   5.797
 4643POPC   GL259438   3.818  29.223   5.967
 4643POPC   C1A59439   3.335  29.024   6.242
 4643POPC   D2A59440   3.156  28.924   6.677
 4643POPC   C3A59441   3.393  29.004   7.069
 4643POPC   C4A59442   3.364  28.930   7.534
 4643POPC   C1B59443   3.588  29.463   6.256
 4643POPC   C2B59444   3.417  29.403   6.634
 4643POPC   C3B59445   3.482  29.596   6.991
 4643POPC   C4B59446   3.509  29.417   7.347
 4644POPC   NC359447   2.213  38.109   5.427
 4644POPC   PO459448   1.806  38.632   5.440
 4644POPC   GL159449   1.732  38.458   5.846
 4644POPC   GL259450   2.085  38.369   5.863
 4644POPC   C1A59451   1.802  38.509   6.285
 4644POPC   D2A59452   2.143  38.554   6.539
 4644POPC   C3A59453   1.989  38.470   6.932
 4644POPC   C4A59454   2.096  38.479   7.362
 4644POPC   C1B59455   2.377  38.100   6.091
 4644POPC   C2B59456   2.259  38.035   6.510
 4644POPC   C3B59457   2.400  38.157   6.897
 4644POPC   C4B59458   2.331  38.019   7.311
 4645POPC   NC359459  32.152   6.950   5.407
 4645POPC   PO459460  31.927   6.261   5.525
 4645POPC   GL159461  32.000   6.618   5.771
 4645POPC   GL259462  32.331   6.591   5.730
 4645POPC   C1A59463  31.996   6.808   6.167
 4645POPC   D2A59464  32.016   6.551   6.543
 4645POPC   C3A59465  32.062   6.641   6.980
 4645POPC   C4A59466  32.221   6.527   7.369
 4645POPC   C1B59467  32.417   6.498   6.164
 4645POPC   C2B59468  32.528   6.624   6.582
 4645POPC   C3B59469  32.584   6.489   6.988
 4645POPC   C4B59470  32.829   6.766   7.246
 4646POPC   NC359471   8.573  19.923   5.347
 4646POPC   PO459472   8.758  19.308   5.286
 4646POPC   GL159473   8.797  19.539   5.700
 4646POPC   GL259474   8.878  19.916   5.773
 4646POPC   C1A59475   8.827  19.573   6.165
 4646POPC   D2A59476   8.616  19.672   6.542
 4646POPC   C3A59477   8.827  19.591   6.922
 4646POPC   C4A59478   8.626  19.629   7.320
 4646POPC   C1B59479   9.040  20.034   6.209
 4646POPC   C2B59480   8.857  20.139   6.644
 4646POPC   C3B59481   8.879  20.061   7.096
 4646POPC   C4B59482   9.260  19.892   7.300
 4647POPC   NC359483  19.695  20.299   5.485
 4647POPC   PO459484  20.029  20.933   5.367
 4647POPC   GL159485  19.931  20.685   5.750
 4647POPC   GL259486  20.155  20.359   5.772
 4647POPC   C1A59487  19.694  20.720   6.144
 4647POPC   D2A59488  19.848  20.711   6.578
 4647POPC   C3A59489  19.673  20.946   6.894
 4647POPC   C4A59490  19.574  20.940   7.288
 4647POPC   C1B59491  20.046  20.356   6.227
 4647POPC   C2B59492  19.823  20.217   6.609
 4647POPC   C3B59493  19.798  20.439   7.037
 4647POPC   C4B59494  19.775  20.527   7.504
 4648POPC   NC359495  20.300  23.218   5.399
 4648POPC   PO459496  20.693  22.630   5.437
 4648POPC   GL159497  20.596  22.801   5.809
 4648POPC   GL259498  20.615  23.160   5.806
 4648POPC   C1A59499  20.595  22.626   6.213
 4648POPC   D2A59500  20.702  22.770   6.583
 4648POPC   C3A59501  20.527  22.566   6.903
 4648POPC   C4A59502  20.614  22.705   7.291
 4648POPC   C1B59503  20.384  23.095   6.180
 4648POPC   C2B59504  20.454  23.249   6.588
 4648POPC   C3B59505  20.425  23.095   7.006
 4648POPC   C4B59506  20.686  23.176   7.411
 4649POPC   NC359507  44.899  17.258   5.258
 4649POPC   PO459508  44.286  17.503   5.321
 4649POPC   GL159509  44.452  17.565   5.761
 4649POPC   GL259510  44.817  17.547   5.708
 4649POPC   C1A59511  44.580  17.455   6.188
 4649POPC   D2A59512  44.704  17.240   6.580
 4649POPC   C3A59513  44.558  17.348   7.007
 4649POPC   C4A59514  44.517  17.185   7.429
 4649POPC   C1B59515   0.008  17.756   6.071
 4649POPC   C2B59516   0.068  17.609   6.496
 4649POPC   C3B59517  44.985  17.620   6.915
 4649POPC   C4B59518  44.757  17.798   7.242
 4650POPC   NC359519  33.253   1.052   5.291
 4650POPC   PO459520  32.621   1.387   5.356
 4650POPC   GL159521  32.812   1.303   5.786
 4650POPC   GL259522  33.145   1.181   5.794
 4650POPC   C1A59523  32.907   1.404   6.251
 4650POPC   D2A59524  32.909   1.530   6.684
 4650POPC   C3A59525  32.795   1.412   7.095
 4650POPC   C4A59526  33.190   1.266   7.334
 4650POPC   C1B59527  32.903   0.917   6.133
 4650POPC   C2B59528  32.780   1.020   6.589
 4650POPC   C3B59529  32.931   0.942   7.011
 4650POPC   C4B59530  32.837   0.936   7.470
 4651POPC   NC359531  23.621   9.787   5.428
 4651POPC   PO459532  24.276   9.641   5.373
 4651POPC   GL159533  24.069   9.792   5.741
 4651POPC   GL259534  23.810   9.523   5.841
 4651POPC   C1A59535  23.983   9.848   6.180
 4651POPC   D2A59536  24.012   9.578   6.526
 4651POPC   C3A59537  23.750   9.739   6.830
 4651POPC   C4A59538  23.918   9.841   7.210
 4651POPC   C1B59539  23.570   9.560   6.251
 4651POPC   C2B59540  23.354   9.883   6.527
 4651POPC   C3B59541  23.240  10.011   6.963
 4651POPC   C4B59542  23.438   9.812   7.341
 4652POPC   NC359543  14.591  38.930   5.476
 4652POPC   PO459544  14.626  39.597   5.228
 4652POPC   GL159545  14.519  39.390   5.725
 4652POPC   GL259546  14.358  39.086   5.907
 4652POPC   C1A59547  14.672  39.368   6.198
 4652POPC   D2A59548  14.803  39.516   6.625
 4652POPC   C3A59549  14.526  39.319   6.936
 4652POPC   C4A59550  14.408  39.069   7.293
 4652POPC   C1B59551  14.084  39.227   6.254
 4652POPC   C2B59552  14.047  39.167   6.702
 4652POPC   C3B59553  13.957  38.932   7.041
 4652POPC   C4B59554  13.912  39.202   7.369
 4653POPC   NC359555   4.821  25.354   5.528
 4653POPC   PO459556   5.472  25.696   5.497
 4653POPC   GL159557   5.180  25.583   5.842
 4653POPC   GL259558   4.907  25.340   6.024
 4653POPC   C1A59559   5.343  25.522   6.241
 4653POPC   D2A59560   5.156  25.242   6.542
 4653POPC   C3A59561   5.175  25.347   6.963
 4653POPC   C4A59562   5.176  25.005   7.213
 4653POPC   C1B59563   4.856  25.637   6.360
 4653POPC   C2B59564   4.845  25.725   6.802
 4653POPC   C3B59565   4.778  25.686   7.220
 4653POPC   C4B59566   4.838  25.329   7.355
 4654POPC   NC359567   1.995  30.944   5.462
 4654POPC   PO459568   1.821  31.596   5.507
 4654POPC   GL159569   2.032  31.474   5.863
 4654POPC   GL259570   1.887  31.179   5.907
 4654POPC   C1A59571   2.127  31.590   6.286
 4654POPC   D2A59572   1.962  31.847   6.599
 4654POPC   C3A59573   2.090  31.746   7.004
 4654POPC   C4A59574   2.287  31.429   7.245
 4654POPC   C1B59575   1.814  31.175   6.320
 4654POPC   C2B59576   1.840  31.359   6.706
 4654POPC   C3B59577   1.803  31.326   7.124
 4654POPC   C4B59578   1.902  31.277   7.545
 4655POPC   NC359579  40.151  25.136   5.548
 4655POPC   PO459580  39.532  25.334   5.434
 4655POPC   GL159581  39.724  25.303   5.839
 4655POPC   GL259582  40.012  25.549   5.828
 4655POPC   C1A59583  39.739  25.035   6.242
 4655POPC   D2A59584  39.631  24.873   6.694
 4655POPC   C3A59585  39.828  25.117   7.065
 4655POPC   C4A59586  40.191  25.057   7.379
 4655POPC   C1B59587  40.159  25.353   6.222
 4655POPC   C2B59588  40.183  25.221   6.674
 4655POPC   C3B59589  40.207  25.478   7.060
 4655POPC   C4B59590  39.853  25.742   7.203
 4656POPC   NC359591   7.176  10.594   5.413
 4656POPC   PO459592   6.617  10.726   5.455
 4656POPC   GL159593   6.762  10.666   5.875
 4656POPC   GL259594   7.084  10.824   5.877
 4656POPC   C1A59595   6.576  10.711   6.310
 4656POPC   D2A59596   6.424  10.398   6.603
 4656POPC   C3A59597   6.525  10.444   7.026
 4656POPC   C4A59598   6.488  10.691   7.376
 4656POPC   C1B59599   7.083  10.630   6.278
 4656POPC   C2B59600   6.912  10.539   6.677
 4656POPC   C3B59601   6.975  10.744   7.067
 4656POPC   C4B59602   6.890  11.006   7.398
 4657POPC   NC359603  34.021  26.658   5.448
 4657POPC   PO459604  33.519  26.987   5.234
 4657POPC   GL159605  33.730  26.992   5.696
 4657POPC   GL259606  33.613  26.642   5.739
 4657POPC   C1A59607  34.067  27.096   6.051
 4657POPC   D2A59608  34.215  26.957   6.459
 4657POPC   C3A59609  33.984  27.084   6.804
 4657POPC   C4A59610  34.052  27.013   7.260
 4657POPC   C1B59611  33.775  26.706   6.144
 4657POPC   C2B59612  33.685  26.678   6.557
 4657POPC   C3B59613  33.766  26.664   6.961
 4657POPC   C4B59614  33.598  26.569   7.315
 4658POPC   NC359615   3.495  39.983   5.205
 4658POPC   PO459616   3.930  40.380   5.609
 4658POPC   GL159617   3.585  40.073   5.710
 4658POPC   GL259618   3.263  40.191   5.825
 4658POPC   C1A59619   3.502  39.786   6.076
 4658POPC   D2A59620   3.538  39.887   6.530
 4658POPC   C3A59621   3.828  39.686   6.841
 4658POPC   C4A59622   3.593  39.795   7.188
 4658POPC   C1B59623   3.096  40.125   6.213
 4658POPC   C2B59624   3.189  40.280   6.602
 4658POPC   C3B59625   3.187  40.032   6.962
 4658POPC   C4B59626   3.280  40.142   7.376
 4659POPC   NC359627  26.731   2.572   5.361
 4659POPC   PO459628  27.200   3.153   5.200
 4659POPC   GL159629  26.946   2.986   5.645
 4659POPC   GL259630  26.662   3.079   5.878
 4659POPC   C1A59631  26.989   2.719   6.061
 4659POPC   D2A59632  26.826   2.494   6.446
 4659POPC   C3A59633  26.909   2.584   6.888
 4659POPC   C4A59634  26.803   2.746   7.286
 4659POPC   C1B59635  26.534   2.913   6.306
 4659POPC   C2B59636  26.523   2.947   6.782
 4659POPC   C3B59637  26.457   3.104   7.213
 4659POPC   C4B59638  26.620   3.079   7.668
 4660POPC   NC359639  42.360  38.178   5.411
 4660POPC   PO459640  42.409  38.970   5.406
 4660POPC   GL159641  42.405  38.631   5.689
 4660POPC   GL259642  42.583  38.821   5.904
 4660POPC   C1A59643  42.318  38.354   6.046
 4660POPC   D2A59644  42.056  38.396   6.401
 4660POPC   C3A59645  42.116  38.320   6.850
 4660POPC   C4A59646  42.347  38.268   7.237
 4660POPC   C1B59647  42.278  38.873   6.209
 4660POPC   C2B59648  42.287  38.815   6.646
 4660POPC   C3B59649  42.285  38.762   7.095
 4660POPC   C4B59650  42.089  38.949   7.447
 4661POPC   NC359651   0.329   7.754   5.216
 4661POPC   PO459652   0.480   8.350   5.589
 4661POPC   GL159653   0.416   8.106   5.900
 4661POPC   GL259654   0.247   7.851   5.764
 4661POPC   C1A59655   0.571   8.128   6.313
 4661POPC   D2A59656   0.499   8.380   6.639
 4661POPC   C3A59657   0.591   8.212   6.999
 4661POPC   C4A59658   0.640   8.314   7.392
 4661POPC   C1B59659   0.114   7.835   6.218
 4661POPC   C2B59660   0.174   7.995   6.666
 4661POPC   C3B59661   0.221   7.868   7.125
 4661POPC   C4B59662   0.360   7.883   7.559
 4662POPC   NC359663  14.993  21.427   5.414
 4662POPC   PO459664  15.542  21.121   5.554
 4662POPC   GL159665  15.255  21.314   5.859
 4662POPC   GL259666  14.942  21.521   5.912
 4662POPC   C1A59667  15.195  21.300   6.299
 4662POPC   D2A59668  15.485  21.326   6.594
 4662POPC   C3A59669  15.258  21.403   6.965
 4662POPC   C4A59670  15.163  21.205   7.353
 4662POPC   C1B59671  15.281  21.770   6.117
 4662POPC   C2B59672  15.320  21.813   6.564
 4662POPC   C3B59673  15.537  21.812   6.956
 4662POPC   C4B59674  15.472  21.634   7.372
 4663POPC   NC359675  40.336  23.576   5.528
 4663POPC   PO459676  40.943  23.545   5.301
 4663POPC   GL159677  40.825  23.535   5.733
 4663POPC   GL259678  40.656  23.867   5.791
 4663POPC   C1A59679  41.026  23.435   6.138
 4663POPC   D2A59680  41.024  23.623   6.548
 4663POPC   C3A59681  41.055  23.508   6.967
 4663POPC   C4A59682  41.125  23.834   7.273
 4663POPC   C1B59683  40.620  23.740   6.238
 4663POPC   C2B59684  40.537  23.784   6.685
 4663POPC   C3B59685  40.629  23.780   7.125
 4663POPC   C4B59686  40.409  23.973   7.458
 4664POPC   NC359687  32.184  10.255   5.525
 4664POPC   PO459688  32.544   9.680   5.441
 4664POPC   GL159689  32.414   9.943   5.849
 4664POPC   GL259690  32.566  10.298   5.871
 4664POPC   C1A59691  32.099   9.949   6.230
 4664POPC   D2A59692  31.996   9.727   6.629
 4664POPC   C3A59693  32.395   9.506   6.772
 4664POPC   C4A59694  32.496   9.485   7.202
 4664POPC   C1B59695  32.542  10.247   6.269
 4664POPC   C2B59696  32.462   9.982   6.602
 4664POPC   C3B59697  32.611  10.125   6.975
 4664POPC   C4B59698  32.410  10.059   7.314
 4665POPC   NC359699   4.868  17.184   5.444
 4665POPC   PO459700   4.277  16.839   5.507
 4665POPC   GL159701   4.260  16.679   5.873
 4665POPC   GL259702   4.050  16.422   5.810
 4665POPC   C1A59703   4.388  16.685   6.277
 4665POPC   D2A59704   4.201  16.649   6.639
 4665POPC   C3A59705   4.328  16.895   6.982
 4665POPC   C4A59706   4.500  16.826   7.379
 4665POPC   C1B59707   3.866  16.614   6.186
 4665POPC   C2B59708   3.654  16.674   6.562
 4665POPC   C3B59709   3.813  16.687   6.963
 4665POPC   C4B59710   3.996  16.734   7.348
 4666POPC   NC359711  39.450  18.921   5.488
 4666POPC   PO459712  38.880  19.185   5.590
 4666POPC   GL159713  39.094  18.904   5.870
 4666POPC   GL259714  38.843  18.715   5.971
 4666POPC   C1A59715  39.359  18.716   6.200
 4666POPC   D2A59716  39.407  18.902   6.592
 4666POPC   C3A59717  39.420  18.841   6.997
 4666POPC   C4A59718  39.252  19.158   7.315
 4666POPC   C1B59719  38.935  19.004   6.364
 4666POPC   C2B59720  38.967  19.067   6.839
 4666POPC   C3B59721  38.937  18.775   7.202
 4666POPC   C4B59722  39.020  18.838   7.667
 4667POPC   NC359723  35.938  30.538   5.287
 4667POPC   PO459724  36.546  30.845   5.417
 4667POPC   GL159725  36.249  30.793   5.774
 4667POPC   GL259726  35.950  30.930   5.769
 4667POPC   C1A59727  36.119  30.655   6.210
 4667POPC   D2A59728  35.867  30.456   6.539
 4667POPC   C3A59729  35.985  30.300   6.952
 4667POPC   C4A59730  36.336  30.394   7.240
 4667POPC   C1B59731  35.754  31.054   6.143
 4667POPC   C2B59732  35.838  30.983   6.557
 4667POPC   C3B59733  36.065  30.827   6.913
 4667POPC   C4B59734  35.826  30.935   7.272
 4668POPC   NC359735   9.952   5.476   5.413
 4668POPC   PO459736   9.680   4.882   5.455
 4668POPC   GL159737   9.809   4.967   5.846
 4668POPC   GL259738   9.782   5.320   5.884
 4668POPC   C1A59739   9.645   4.917   6.248
 4668POPC   D2A59740   9.815   4.752   6.612
 4668POPC   C3A59741   9.698   4.899   7.008
 4668POPC   C4A59742   9.493   5.062   7.375
 4668POPC   C1B59743   9.592   5.445   6.237
 4668POPC   C2B59744   9.596   5.269   6.634
 4668POPC   C3B59745   9.475   5.454   6.995
 4668POPC   C4B59746   9.316   5.535   7.369
 4669POPC   NC359747  24.306   2.607   5.129
 4669POPC   PO459748  24.943   2.494   5.279
 4669POPC   GL159749  24.786   2.483   5.728
 4669POPC   GL259750  24.478   2.709   5.785
 4669POPC   C1A59751  24.764   2.424   6.205
 4669POPC   D2A59752  24.489   2.470   6.600
 4669POPC   C3A59753  24.417   2.605   7.066
 4669POPC   C4A59754  24.214   2.536   7.508
 4669POPC   C1B59755  24.366   2.882   6.204
 4669POPC   C2B59756  24.416   2.977   6.654
 4669POPC   C3B59757  24.580   3.101   7.071
 4669POPC   C4B59758  24.565   2.889   7.498
 4670POPC   NC359759  13.066   7.724   5.658
 4670POPC   PO459760  13.052   8.341   5.484
 4670POPC   GL159761  12.895   8.307   5.864
 4670POPC   GL259762  12.556   8.245   5.841
 4670POPC   C1A59763  13.105   8.422   6.235
 4670POPC   D2A59764  12.931   8.512   6.617
 4670POPC   C3A59765  13.088   8.417   6.991
 4670POPC   C4A59766  12.941   8.049   7.154
 4670POPC   C1B59767  12.701   8.057   6.262
 4670POPC   C2B59768  12.745   7.941   6.693
 4670POPC   C3B59769  12.633   7.671   7.040
 4670POPC   C4B59770  12.532   7.872   7.443
 4671POPC   NC359771  34.447   5.507   5.161
 4671POPC   PO459772  34.751   4.953   5.455
 4671POPC   GL159773  34.714   4.998   5.875
 4671POPC   GL259774  34.361   4.976   5.833
 4671POPC   C1A59775  34.622   4.784   6.259
 4671POPC   D2A59776  34.605   4.987   6.620
 4671POPC   C3A59777  34.890   4.927   6.943
 4671POPC   C4A59778  34.733   4.968   7.363
 4671POPC   C1B59779  34.314   5.188   6.198
 4671POPC   C2B59780  34.184   5.353   6.550
 4671POPC   C3B59781  34.284   5.189   6.937
 4671POPC   C4B59782  34.130   5.261   7.275
 4672POPC   NC359783  18.145  37.543   5.212
 4672POPC   PO459784  18.502  37.895   5.563
 4672POPC   GL159785  18.190  37.746   5.860
 4672POPC   GL259786  17.968  37.495   5.690
 4672POPC   C1A59787  18.307  37.704   6.297
 4672POPC   D2A59788  18.286  37.709   6.739
 4672POPC   C3A59789  18.383  37.506   7.089
 4672POPC   C4A59790  18.226  37.897   7.235
 4672POPC   C1B59791  17.893  37.449   6.141
 4672POPC   C2B59792  18.036  37.309   6.527
 4672POPC   C3B59793  17.893  37.420   6.926
 4672POPC   C4B59794  17.893  37.537   7.350
 4673POPC   NC359795  36.792  23.969   5.280
 4673POPC   PO459796  36.411  23.385   5.298
 4673POPC   GL159797  36.741  23.472   5.660
 4673POPC   GL259798  36.944  23.798   5.720
 4673POPC   C1A59799  36.945  23.485   6.104
 4673POPC   D2A59800  36.888  23.752   6.482
 4673POPC   C3A59801  37.077  23.638   6.888
 4673POPC   C4A59802  36.838  23.604   7.264
 4673POPC   C1B59803  37.045  24.112   6.012
 4673POPC   C2B59804  37.081  24.219   6.450
 4673POPC   C3B59805  36.990  24.163   6.886
 4673POPC   C4B59806  37.207  24.012   7.250
 4674POPC   NC359807  25.446   6.798   5.489
 4674POPC   PO459808  25.040   6.230   5.414
 4674POPC   GL159809  25.137   6.370   5.828
 4674POPC   GL259810  25.493   6.443   5.845
 4674POPC   C1A59811  25.132   6.469   6.288
 4674POPC   D2A59812  25.315   6.598   6.708
 4674POPC   C3A59813  25.091   6.835   7.046
 4674POPC   C4A59814  24.987   6.686   7.465
 4674POPC   C1B59815  25.658   6.560   6.235
 4674POPC   C2B59816  25.853   6.496   6.634
 4674POPC   C3B59817  25.680   6.373   7.028
 4674POPC   C4B59818  25.477   6.655   7.321
 4675POPC   NC359819  11.981  42.652   5.571
 4675POPC   PO459820  11.957  43.277   5.268
 4675POPC   GL159821  12.176  43.130   5.653
 4675POPC   GL259822  11.867  43.099   5.829
 4675POPC   C1A59823  12.276  43.202   6.119
 4675POPC   D2A59824  11.998  43.295   6.506
 4675POPC   C3A59825  12.111  43.221   6.953
 4675POPC   C4A59826  11.791  43.134   7.276
 4675POPC   C1B59827  11.906  42.866   6.218
 4675POPC   C2B59828  12.011  42.791   6.641
 4675POPC   C3B59829  11.996  42.731   7.062
 4675POPC   C4B59830  12.255  42.891   7.355
 4676POPC   NC359831   5.945   5.680   5.388
 4676POPC   PO459832   5.657   6.228   5.713
 4676POPC   GL159833   5.830   5.863   5.867
 4676POPC   GL259834   6.155   5.818   5.839
 4676POPC   C1A59835   5.935   5.707   6.285
 4676POPC   D2A59836   5.913   5.971   6.651
 4676POPC   C3A59837   6.021   5.776   7.031
 4676POPC   C4A59838   5.839   5.653   7.423
 4676POPC   C1B59839   6.133   6.189   6.171
 4676POPC   C2B59840   6.255   6.372   6.585
 4676POPC   C3B59841   6.095   6.294   7.014
 4676POPC   C4B59842   6.131   6.080   7.457
 4677POPC   NC359843  40.878  17.662   5.551
 4677POPC   PO459844  41.204  17.063   5.396
 4677POPC   GL159845  41.163  17.356   5.826
 4677POPC   GL259846  40.805  17.448   5.995
 4677POPC   C1A59847  41.180  17.507   6.297
 4677POPC   D2A59848  40.801  17.552   6.554
 4677POPC   C3A59849  40.920  17.670   6.978
 4677POPC   C4A59850  41.005  17.404   7.346
 4677POPC   C1B59851  40.526  17.780   6.125
 4677POPC   C2B59852  40.366  17.889   6.519
 4677POPC   C3B59853  40.407  17.655   6.892
 4677POPC   C4B59854  40.499  17.719   7.311
 4678POPC   NC359855  35.259  38.169   5.611
 4678POPC   PO459856  35.665  38.682   5.508
 4678POPC   GL159857  35.482  38.589   5.859
 4678POPC   GL259858  35.164  38.668   5.839
 4678POPC   C1A59859  35.584  38.400   6.229
 4678POPC   D2A59860  35.405  38.333   6.619
 4678POPC   C3A59861  35.565  38.539   6.976
 4678POPC   C4A59862  35.629  38.267   7.284
 4678POPC   C1B59863  35.069  38.521   6.232
 4678POPC   C2B59864  34.890  38.451   6.623
 4678POPC   C3B59865  35.059  38.366   6.988
 4678POPC   C4B59866  35.170  38.585   7.323
 4679POPC   NC359867   9.980  44.255   5.500
 4679POPC   PO459868   9.373  43.887   5.443
 4679POPC   GL159869   9.649  43.912   5.793
 4679POPC   GL259870   9.450  43.689   5.965
 4679POPC   C1A59871   9.643  44.122   6.216
 4679POPC   D2A59872   9.676  44.370   6.608
 4679POPC   C3A59873   9.938  44.106   6.873
 4679POPC   C4A59874   9.800  43.879   7.225
 4679POPC   C1B59875   9.758  43.629   6.289
 4679POPC   C2B59876   9.724  43.643   6.721
 4679POPC   C3B59877   9.987  43.469   6.983
 4679POPC   C4B59878  10.081  43.452   7.351
 4680POPC   NC359879  10.382   0.052   5.084
 4680POPC   PO459880  10.397   0.605   5.579
 4680POPC   GL159881  10.553   0.720   5.959
 4680POPC   GL259882  10.549   0.360   6.005
 4680POPC   C1A59883  10.388   0.678   6.363
 4680POPC   D2A59884  10.590   0.471   6.676
 4680POPC   C3A59885  10.833   0.617   7.006
 4680POPC   C4A59886  10.689   0.447   7.397
 4680POPC   C1B59887  10.427   0.096   6.348
 4680POPC   C2B59888  10.286   0.060   6.788
 4680POPC   C3B59889  10.329   0.085   7.242
 4680POPC   C4B59890  10.078   0.022   7.608
 4681POPC   NC359891  38.371  26.136   5.401
 4681POPC   PO459892  38.821  25.758   5.685
 4681POPC   GL159893  38.487  25.902   5.884
 4681POPC   GL259894  38.534  26.250   5.865
 4681POPC   C1A59895  38.601  25.951   6.302
 4681POPC   D2A59896  38.555  25.770   6.658
 4681POPC   C3A59897  38.624  26.032   6.947
 4681POPC   C4A59898  38.516  25.909   7.344
 4681POPC   C1B59899  38.374  26.396   6.238
 4681POPC   C2B59900  38.633  26.441   6.594
 4681POPC   C3B59901  38.603  26.567   7.011
 4681POPC   C4B59902  38.311  26.406   7.302
 4682POPC   NC359903  38.733  20.500   5.480
 4682POPC   PO459904  38.060  20.334   5.284
 4682POPC   GL159905  38.292  20.405   5.711
 4682POPC   GL259906  38.368  20.778   5.729
 4682POPC   C1A59907  38.590  20.486   6.100
 4682POPC   D2A59908  38.406  20.562   6.496
 4682POPC   C3A59909  38.584  20.504   6.899
 4682POPC   C4A59910  38.375  20.468   7.258
 4682POPC   C1B59911  38.112  20.737   6.097
 4682POPC   C2B59912  38.094  20.965   6.485
 4682POPC   C3B59913  38.125  20.776   6.876
 4682POPC   C4B59914  37.963  20.798   7.254
 4683POPC   NC359915  15.772  15.530   5.566
 4683POPC   PO459916  16.209  14.969   5.393
 4683POPC   GL159917  15.996  15.117   5.755
 4683POPC   GL259918  16.168  15.427   5.859
 4683POPC   C1A59919  15.728  15.052   6.116
 4683POPC   D2A59920  15.832  14.870   6.506
 4683POPC   C3A59921  15.894  15.160   6.842
 4683POPC   C4A59922  15.885  15.200   7.267
 4683POPC   C1B59923  15.955  15.493   6.271
 4683POPC   C2B59924  16.027  15.700   6.656
 4683POPC   C3B59925  16.214  15.636   7.060
 4683POPC   C4B59926  16.299  15.433   7.428
 4684POPC   NC359927  43.884   8.235   5.395
 4684POPC   PO459928  44.310   7.943   5.715
 4684POPC   GL159929  44.048   8.217   5.898
 4684POPC   GL259930  43.708   8.090   5.867
 4684POPC   C1A59931  44.143   8.276   6.310
 4684POPC   D2A59932  44.179   8.050   6.684
 4684POPC   C3A59933  44.193   8.366   6.965
 4684POPC   C4A59934  44.093   8.411   7.381
 4684POPC   C1B59935  43.660   8.450   6.180
 4684POPC   C2B59936  43.750   8.370   6.643
 4684POPC   C3B59937  43.692   8.282   7.111
 4684POPC   C4B59938  43.659   8.268   7.593
 4685POPC   NC359939  21.313  12.347   5.477
 4685POPC   PO459940  21.318  11.723   5.377
 4685POPC   GL159941  21.507  11.957   5.745
 4685POPC   GL259942  21.183  11.997   5.840
 4685POPC   C1A59943  21.552  11.995   6.228
 4685POPC   D2A59944  21.655  11.782   6.629
 4685POPC   C3A59945  21.681  12.057   6.948
 4685POPC   C4A59946  21.840  12.070   7.338
 4685POPC   C1B59947  21.036  12.039   6.233
 4685POPC   C2B59948  21.195  12.113   6.635
 4685POPC   C3B59949  21.090  11.959   7.014
 4685POPC   C4B59950  21.348  12.024   7.346
 4686POPC   NC359951  18.903  21.053   5.584
 4686POPC   PO459952  19.355  20.606   5.547
 4686POPC   GL159953  19.134  20.671   5.873
 4686POPC   GL259954  19.081  20.997   6.048
 4686POPC   C1A59955  19.217  20.545   6.254
 4686POPC   D2A59956  19.294  20.806   6.582
 4686POPC   C3A59957  19.300  20.602   6.980
 4686POPC   C4A59958  18.960  20.470   7.237
 4686POPC   C1B59959  18.780  20.777   6.303
 4686POPC   C2B59960  18.860  20.505   6.647
 4686POPC   C3B59961  18.843  20.828   6.905
 4686POPC   C4B59962  18.556  20.890   7.207
 4687POPC   NC359963  26.983  34.968   5.338
 4687POPC   PO459964  26.437  34.788   5.624
 4687POPC   GL159965  26.747  34.567   5.802
 4687POPC   GL259966  26.999  34.831   5.828
 4687POPC   C1A59967  26.909  34.478   6.197
 4687POPC   D2A59968  26.955  34.690   6.557
 4687POPC   C3A59969  26.580  34.620   6.783
 4687POPC   C4A59970  26.417  34.453   7.181
 4687POPC   C1B59971  26.749  35.002   6.161
 4687POPC   C2B59972  26.666  35.155   6.575
 4687POPC   C3B59973  26.915  35.052   6.938
 4687POPC   C4B59974  26.891  34.683   7.192
 4688POPC   NC359975   5.203  44.178   5.462
 4688POPC   PO459976   4.975  43.534   5.376
 4688POPC   GL159977   5.094  43.791   5.785
 4688POPC   GL259978   5.199  44.088   5.993
 4688POPC   C1A59979   5.161  43.631   6.219
 4688POPC   D2A59980   5.181  43.679   6.671
 4688POPC   C3A59981   4.980  43.851   7.014
 4688POPC   C4A59982   5.062  43.514   7.276
 4688POPC   C1B59983   5.140  44.125   6.438
 4688POPC   C2B59984   5.364  44.177   6.850
 4688POPC   C3B59985   5.151  44.312   7.255
 4688POPC   C4B59986   4.920  44.367   7.636
 4689POPC   NC359987   1.149  16.486   5.522
 4689POPC   PO459988   1.029  17.093   5.383
 4689POPC   GL159989   1.120  16.964   5.811
 4689POPC   GL259990   0.999  16.662   5.987
 4689POPC   C1A59991   1.421  16.901   6.171
 4689POPC   D2A59992   1.503  17.015   6.628
 4689POPC   C3A59993   1.380  16.819   7.049
 4689POPC   C4A59994   1.423  16.957   7.504
 4689POPC   C1B59995   0.984  16.292   6.260
 4689POPC   C2B59996   1.073  16.137   6.685
 4689POPC   C3B59997   0.987  16.292   7.109
 4689POPC   C4B59998   0.863  16.723   7.236
 4690POPC   NC359999  22.499   0.662   5.626
 4690POPC   PO460000  21.904   0.354   5.498
 4690POPC   GL160001  22.164   0.313   5.815
 4690POPC   GL260002  22.407   0.075   5.781
 4690POPC   C1A60003  22.289   0.371   6.221
 4690POPC   D2A60004  22.145   0.205   6.574
 4690POPC   C3A60005  22.238   0.501   6.897
 4690POPC   C4A60006  22.205   0.687   7.264
 4690POPC   C1B60007  22.713   0.044   6.135
 4690POPC   C2B60008  22.748   0.037   6.599
 4690POPC   C3B60009  22.434   0.030   6.935
 4690POPC   C4B60010  22.160   0.171   7.297
 4691POPC   NC360011  12.525  40.512   4.990
 4691POPC   PO460012  12.955  40.872   5.421
 4691POPC   GL160013  12.908  40.857   5.863
 4691POPC   GL260014  12.586  41.001   5.832
 4691POPC   C1A60015  12.903  40.531   6.230
 4691POPC   D2A60016  12.713  40.426   6.645
 4691POPC   C3A60017  13.011  40.412   7.019
 4691POPC   C4A60018  13.477  40.457   7.013
 4691POPC   C1B60019  12.505  40.833   6.241
 4691POPC   C2B60020  12.598  40.951   6.635
 4691POPC   C3B60021  12.658  40.782   7.005
 4691POPC   C4B60022  12.896  40.821   7.355
 4692POPC   NC360023  17.784  21.952   5.477
 4692POPC   PO460024  18.387  21.880   5.255
 4692POPC   GL160025  18.463  22.038   5.714
 4692POPC   GL260026  18.169  22.177   5.844
 4692POPC   C1A60027  18.627  22.262   6.124
 4692POPC   D2A60028  18.750  22.163   6.579
 4692POPC   C3A60029  18.661  22.298   7.024
 4692POPC   C4A60030  18.548  22.183   7.450
 4692POPC   C1B60031  18.138  22.190   6.305
 4692POPC   C2B60032  17.975  22.132   6.723
 4692POPC   C3B60033  18.149  22.225   7.118
 4692POPC   C4B60034  18.150  22.502   7.466
 4693POPC   NC360035   6.414   3.513   5.726
 4693POPC   PO460036   6.975   3.885   5.519
 4693POPC   GL160037   6.911   3.589   5.860
 4693POPC   GL260038   7.000   3.231   5.811
 4693POPC   C1A60039   6.725   3.599   6.276
 4693POPC   D2A60040   6.673   3.507   6.694
 4693POPC   C3A60041   6.368   3.658   6.957
 4693POPC   C4A60042   6.541   3.556   7.328
 4693POPC   C1B60043   7.031   3.119   6.272
 4693POPC   C2B60044   7.139   3.108   6.739
 4693POPC   C3B60045   6.910   3.266   7.095
 4693POPC   C4B60046   6.751   3.019   7.456
 4694POPC   NC360047   8.648  17.482   5.506
 4694POPC   PO460048   9.202  17.786   5.220
 4694POPC   GL160049   9.281  17.558   5.707
 4694POPC   GL260050   8.991  17.417   5.903
 4694POPC   C1A60051   9.307  17.742   6.156
 4694POPC   D2A60052   9.254  17.808   6.605
 4694POPC   C3A60053   9.076  17.582   6.987
 4694POPC   C4A60054   8.781  17.817   7.277
 4694POPC   C1B60055   8.854  17.572   6.324
 4694POPC   C2B60056   8.677  17.738   6.698
 4694POPC   C3B60057   8.580  17.414   6.997
 4694POPC   C4B60058   8.749  17.224   7.365
 4695POPC   NC360059  10.136  12.086   5.538
 4695POPC   PO460060   9.624  11.731   5.402
 4695POPC   GL160061   9.701  11.933   5.844
 4695POPC   GL260062  10.013  12.127   6.016
 4695POPC   C1A60063   9.553  12.278   6.137
 4695POPC   D2A60064   9.450  12.288   6.585
 4695POPC   C3A60065   9.771  12.181   6.890
 4695POPC   C4A60066   9.683  12.296   7.315
 4695POPC   C1B60067   9.830  11.931   6.396
 4695POPC   C2B60068  10.029  11.626   6.628
 4695POPC   C3B60069  10.243  11.700   6.974
 4695POPC   C4B60070   9.983  11.868   7.286
 4696POPC   NC360071  39.825  37.607   5.466
 4696POPC   PO460072  40.357  37.961   5.395
 4696POPC   GL160073  40.101  37.966   5.766
 4696POPC   GL260074  39.716  38.033   5.809
 4696POPC   C1A60075  40.021  37.769   6.176
 4696POPC   D2A60076  39.963  37.902   6.600
 4696POPC   C3A60077  40.040  37.561   6.880
 4696POPC   C4A60078  39.904  37.464   7.281
 4696POPC   C1B60079  39.535  37.875   6.230
 4696POPC   C2B60080  39.481  37.692   6.659
 4696POPC   C3B60081  39.661  37.855   7.056
 4696POPC   C4B60082  39.729  37.869   7.521
 4697POPC   NC360083  29.932  11.855   5.644
 4697POPC   PO460084  29.699  12.531   5.534
 4697POPC   GL160085  29.949  12.328   5.844
 4697POPC   GL260086  29.638  12.182   5.931
 4697POPC   C1A60087  30.105  12.103   6.222
 4697POPC   D2A60088  30.171  11.835   6.582
 4697POPC   C3A60089  30.204  12.012   7.007
 4697POPC   C4A60090  30.076  12.045   7.440
 4697POPC   C1B60091  29.620  12.016   6.347
 4697POPC   C2B60092  29.690  11.816   6.754
 4697POPC   C3B60093  29.690  12.030   7.121
 4697POPC   C4B60094  29.570  12.135   7.560
 4698POPC   NC360095  20.875  36.326   5.312
 4698POPC   PO460096  20.270  36.139   5.198
 4698POPC   GL160097  20.567  36.082   5.653
 4698POPC   GL260098  20.894  35.922   5.752
 4698POPC   C1A60099  20.483  36.177   6.146
 4698POPC   D2A60100  20.654  36.364   6.565
 4698POPC   C3A60101  20.469  36.280   6.991
 4698POPC   C4A60102  20.443  35.909   7.248
 4698POPC   C1B60103  20.986  36.179   6.143
 4698POPC   C2B60104  21.190  36.241   6.577
 4698POPC   C3B60105  21.005  36.243   7.026
 4698POPC   C4B60106  20.979  35.906   7.358
 4699POPC   NC360107  28.988  41.915   5.469
 4699POPC   PO460108  29.369  42.380   5.394
 4699POPC   GL160109  29.310  42.412   5.816
 4699POPC   GL260110  29.365  42.063   5.875
 4699POPC   C1A60111  29.099  42.508   6.207
 4699POPC   D2A60112  29.100  42.259   6.600
 4699POPC   C3A60113  29.260  42.380   7.019
 4699POPC   C4A60114  29.036  42.393   7.412
 4699POPC   C1B60115  29.529  42.228   6.259
 4699POPC   C2B60116  29.612  42.161   6.681
 4699POPC   C3B60117  29.288  41.840   6.823
 4699POPC   C4B60118  28.948  41.976   7.105
 4700POPC   NC360119   0.907  29.360   5.156
 4700POPC   PO460120   0.249  29.452   5.398
 4700POPC   GL160121   0.349  29.216   5.791
 4700POPC   GL260122   0.634  28.989   5.791
 4700POPC   C1A60123   0.574  29.282   6.208
 4700POPC   D2A60124   0.589  29.241   6.661
 4700POPC   C3A60125   0.187  29.358   6.830
 4700POPC   C4A60126   0.101  29.323   7.266
 4700POPC   C1B60127   0.311  28.831   6.141
 4700POPC   C2B60128   0.167  28.899   6.582
 4700POPC   C3B60129   0.344  28.928   7.018
 4700POPC   C4B60130   0.426  28.712   7.372
 4701POPC   NC360131   7.741  10.919   5.554
 4701POPC   PO460132   7.493  10.246   5.418
 4701POPC   GL160133   7.500  10.483   5.807
 4701POPC   GL260134   7.182  10.311   5.881
 4701POPC   C1A60135   7.611  10.712   6.214
 4701POPC   D2A60136   7.425  10.675   6.660
 4701POPC   C3A60137   7.701  10.728   7.054
 4701POPC   C4A60138   7.729  10.685   7.551
 4701POPC   C1B60139   7.422  10.254   6.260
 4701POPC   C2B60140   7.290  10.199   6.651
 4701POPC   C3B60141   7.490  10.211   7.023
 4701POPC   C4B60142   7.343  10.491   7.324
 4702POPC   NC360143  21.014  23.090   5.464
 4702POPC   PO460144  21.563  22.636   5.434
 4702POPC   GL160145  21.368  22.859   5.764
 4702POPC   GL260146  21.086  22.663   5.905
 4702POPC   C1A60147  21.489  23.040   6.172
 4702POPC   D2A60148  21.702  22.835   6.526
 4702POPC   C3A60149  21.450  22.803   6.913
 4702POPC   C4A60150  21.573  23.075   7.217
 4702POPC   C1B60151  20.955  23.020   6.162
 4702POPC   C2B60152  21.047  23.167   6.574
 4702POPC   C3B60153  20.940  23.006   6.975
 4702POPC   C4B60154  21.117  22.911   7.341
 4703POPC   NC360155  31.738  16.224   5.489
 4703POPC   PO460156  31.285  15.706   5.494
 4703POPC   GL160157  31.505  15.904   5.839
 4703POPC   GL260158  31.769  15.694   5.916
 4703POPC   C1A60159  31.590  16.242   6.179
 4703POPC   D2A60160  31.584  16.397   6.642
 4703POPC   C3A60161  31.423  16.154   7.011
 4703POPC   C4A60162  31.427  16.123   7.465
 4703POPC   C1B60163  31.650  15.748   6.338
 4703POPC   C2B60164  31.612  15.756   6.781
 4703POPC   C3B60165  31.684  15.752   7.216
 4703POPC   C4B60166  31.828  15.789   7.636
 4704POPC   NC360167  21.177   8.438   5.473
 4704POPC   PO460168  21.052   7.773   5.523
 4704POPC   GL160169  21.216   8.047   5.856
 4704POPC   GL260170  21.536   8.212   5.770
 4704POPC   C1A60171  21.352   7.944   6.283
 4704POPC   D2A60172  21.156   7.987   6.687
 4704POPC   C3A60173  21.292   7.796   7.031
 4704POPC   C4A60174  21.492   7.916   7.416
 4704POPC   C1B60175  21.537   8.423   6.152
 4704POPC   C2B60176  21.327   8.445   6.533
 4704POPC   C3B60177  21.405   8.343   6.981
 4704POPC   C4B60178  21.591   8.669   7.247
 4705POPC   NC360179   8.685   3.148   5.408
 4705POPC   PO460180   9.362   3.188   5.493
 4705POPC   GL160181   9.176   2.874   5.789
 4705POPC   GL260182   8.832   2.907   5.835
 4705POPC   C1A60183   9.127   2.636   6.198
 4705POPC   D2A60184   9.269   2.634   6.625
 4705POPC   C3A60185   9.031   2.955   6.811
 4705POPC   C4A60186   8.972   2.953   7.231
 4705POPC   C1B60187   8.596   2.780   6.184
 4705POPC   C2B60188   8.534   2.914   6.583
 4705POPC   C3B60189   8.564   2.727   6.976
 4705POPC   C4B60190   8.463   2.902   7.338
 4706POPC   NC360191  41.728   6.943   5.711
 4706POPC   PO460192  41.803   6.295   5.498
 4706POPC   GL160193  41.637   6.480   5.847
 4706POPC   GL260194  41.303   6.652   5.839
 4706POPC   C1A60195  41.881   6.413   6.219
 4706POPC   D2A60196  42.024   6.537   6.605
 4706POPC   C3A60197  41.952   6.304   6.966
 4706POPC   C4A60198  41.795   6.365   7.377
 4706POPC   C1B60199  41.472   6.707   6.276
 4706POPC   C2B60200  41.602   6.855   6.641
 4706POPC   C3B60201  41.635   6.733   7.044
 4706POPC   C4B60202  41.534   6.908   7.456
 4707POPC   NC360203  13.968  22.502   5.707
 4707POPC   PO460204  13.752  23.076   5.458
 4707POPC   GL160205  13.751  22.969   5.873
 4707POPC   GL260206  14.096  23.023   5.910
 4707POPC   C1A60207  13.510  22.981   6.258
 4707POPC   D2A60208  13.274  23.178   6.584
 4707POPC   C3A60209  13.383  23.045   6.965
 4707POPC   C4A60210  13.185  23.024   7.345
 4707POPC   C1B60211  14.009  22.896   6.350
 4707POPC   C2B60212  13.820  22.792   6.771
 4707POPC   C3B60213  13.786  22.909   7.213
 4707POPC   C4B60214  13.797  23.165   7.599
 4708POPC   NC360215  39.774  44.195   5.451
 4708POPC   PO460216  40.175  43.630   5.610
 4708POPC   GL160217  39.978  43.927   5.870
 4708POPC   GL260218  39.771  43.698   5.980
 4708POPC   C1A60219  40.013  44.130   6.292
 4708POPC   D2A60220  40.304  44.220   6.664
 4708POPC   C3A60221  40.157  44.006   7.046
 4708POPC   C4A60222  39.781  44.126   7.271
 4708POPC   C1B60223  39.942  43.606   6.350
 4708POPC   C2B60224  39.832  43.827   6.697
 4708POPC   C3B60225  39.649  43.688   7.052
 4708POPC   C4B60226  39.539  43.707   7.468
 4709POPC   NC360227  17.232  35.593   5.455
 4709POPC   PO460228  17.664  35.055   5.689
 4709POPC   GL160229  17.596  35.443   5.878
 4709POPC   GL260230  17.901  35.584   5.803
 4709POPC   C1A60231  17.523  35.440   6.325
 4709POPC   D2A60232  17.560  35.062   6.614
 4709POPC   C3A60233  17.396  35.157   7.022
 4709POPC   C4A60234  17.546  35.385   7.357
 4709POPC   C1B60235  17.964  35.759   6.248
 4709POPC   C2B60236  17.729  35.792   6.664
 4709POPC   C3B60237  17.857  35.724   7.088
 4709POPC   C4B60238  17.796  35.786   7.502
 4710POPC   NC360239  20.315  12.310   5.528
 4710POPC   PO460240  20.604  11.719   5.460
 4710POPC   GL160241  20.459  11.929   5.832
 4710POPC   GL260242  20.716  12.226   5.843
 4710POPC   C1A60243  20.515  12.021   6.265
 4710POPC   D2A60244  20.745  11.821   6.604
 4710POPC   C3A60245  20.563  11.897   6.998
 4710POPC   C4A60246  20.648  11.737   7.402
 4710POPC   C1B60247  20.784  12.461   6.238
 4710POPC   C2B60248  20.704  12.342   6.678
 4710POPC   C3B60249  20.927  12.435   7.060
 4710POPC   C4B60250  20.878  12.192   7.439
 4711POPC   NC360251   7.294  28.866   5.336
 4711POPC   PO460252   7.558  28.268   5.524
 4711POPC   GL160253   7.632  28.406   5.918
 4711POPC   GL260254   7.808  28.687   5.820
 4711POPC   C1A60255   7.340  28.483   6.244
 4711POPC   D2A60256   7.126  28.307   6.599
 4711POPC   C3A60257   7.355  28.164   6.942
 4711POPC   C4A60258   7.304  28.325   7.358
 4711POPC   C1B60259   7.878  28.722   6.269
 4711POPC   C2B60260   7.559  28.796   6.578
 4711POPC   C3B60261   7.430  28.676   6.985
 4711POPC   C4B60262   7.696  28.661   7.344
 4712POPC   NC360263  30.478  34.131   5.394
 4712POPC   PO460264  30.760  33.564   5.385
 4712POPC   GL160265  30.808  33.843   5.727
 4712POPC   GL260266  30.495  33.933   5.906
 4712POPC   C1A60267  30.924  33.925   6.158
 4712POPC   D2A60268  30.941  33.972   6.587
 4712POPC   C3A60269  31.050  33.833   6.994
 4712POPC   C4A60270  30.726  33.987   7.256
 4712POPC   C1B60271  30.441  33.960   6.363
 4712POPC   C2B60272  30.508  33.755   6.754
 4712POPC   C3B60273  30.668  33.499   7.078
 4712POPC   C4B60274  30.596  33.554   7.517
 4713POPC   NC360275  15.137  43.586   5.435
 4713POPC   PO460276  15.117  42.909   5.376
 4713POPC   GL160277  15.177  42.922   5.801
 4713POPC   GL260278  15.132  43.271   5.897
 4713POPC   C1A60279  15.075  42.840   6.197
 4713POPC   D2A60280  15.159  43.127   6.495
 4713POPC   C3A60281  15.106  42.986   6.867
 4713POPC   C4A60282  15.161  43.215   7.234
 4713POPC   C1B60283  15.462  43.403   6.181
 4713POPC   C2B60284  15.610  43.524   6.596
 4713POPC   C3B60285  15.632  43.417   7.053
 4713POPC   C4B60286  15.501  43.582   7.458
 4714POPC   NC360287  43.471  32.264   5.373
 4714POPC   PO460288  42.843  32.566   5.107
 4714POPC   GL160289  43.027  32.360   5.612
 4714POPC   GL260290  43.342  32.330   5.849
 4714POPC   C1A60291  42.930  32.200   6.101
 4714POPC   D2A60292  42.757  32.236   6.555
 4714POPC   C3A60293  42.988  32.093   6.948
 4714POPC   C4A60294  43.263  32.017   7.293
 4714POPC   C1B60295  43.283  32.563   6.226
 4714POPC   C2B60296  43.246  32.386   6.607
 4714POPC   C3B60297  43.355  32.524   7.010
 4714POPC   C4B60298  43.455  32.461   7.451
 4715POPC   NC360299   1.015  37.445   5.442
 4715POPC   PO460300   1.696  37.353   5.365
 4715POPC   GL160301   1.408  37.561   5.719
 4715POPC   GL260302   1.055  37.702   5.857
 4715POPC   C1A60303   1.473  37.695   6.138
 4715POPC   D2A60304   1.465  37.505   6.533
 4715POPC   C3A60305   1.379  37.766   6.870
 4715POPC   C4A60306   1.465  37.645   7.265
 4715POPC   C1B60307   1.022  37.458   6.232
 4715POPC   C2B60308   0.933  37.597   6.663
 4715POPC   C3B60309   0.997  37.460   7.089
 4715POPC   C4B60310   1.010  37.629   7.538
 4716POPC   NC360311  14.639   6.956   5.502
 4716POPC   PO460312  14.102   6.822   5.216
 4716POPC   GL160313  14.144   6.766   5.726
 4716POPC   GL260314  14.452   6.647   5.844
 4716POPC   C1A60315  14.133   6.756   6.209
 4716POPC   D2A60316  14.272   6.959   6.600
 4716POPC   C3A60317  14.317   6.717   6.979
 4716POPC   C4A60318  14.262   6.870   7.400
 4716POPC   C1B60319  14.655   6.457   6.192
 4716POPC   C2B60320  14.649   6.527   6.612
 4716POPC   C3B60321  14.740   6.433   7.020
 4716POPC   C4B60322  14.739   6.741   7.371
 4717POPC   NC360323  40.614  36.177   5.498
 4717POPC   PO460324  41.077  35.780   5.108
 4717POPC   GL160325  41.048  35.911   5.663
 4717POPC   GL260326  40.929  36.245   5.875
 4717POPC   C1A60327  41.019  35.821   6.146
 4717POPC   D2A60328  40.718  35.744   6.535
 4717POPC   C3A60329  40.743  36.054   6.846
 4717POPC   C4A60330  40.995  36.109   7.196
 4717POPC   C1B60331  40.712  36.216   6.316
 4717POPC   C2B60332  40.466  36.482   6.639
 4717POPC   C3B60333  40.381  36.585   7.088
 4717POPC   C4B60334  40.557  36.287   7.393
 4718POPC   NC360335  14.658   0.132   5.589
 4718POPC   PO460336  14.270  44.648   5.198
 4718POPC   GL160337  14.340  44.732   5.668
 4718POPC   GL260338  14.548  44.507   5.842
 4718POPC   C1A60339  14.297  44.834   6.138
 4718POPC   D2A60340  14.180  44.687   6.569
 4718POPC   C3A60341  14.470  44.735   6.919
 4718POPC   C4A60342  14.769  44.993   7.195
 4718POPC   C1B60343  14.408  44.279   6.186
 4718POPC   C2B60344  14.629  44.130   6.542
 4718POPC   C3B60345  14.515  44.202   6.975
 4718POPC   C4B60346  14.763  44.483   7.242
 4719POPC   NC360347  10.562  13.686   5.392
 4719POPC   PO460348  10.128  13.382   5.836
 4719POPC   GL160349  10.386  13.757   5.894
 4719POPC   GL260350  10.749  13.702   5.867
 4719POPC   C1A60351  10.497  13.994   6.266
 4719POPC   D2A60352  10.512  14.068   6.729
 4719POPC   C3A60353  10.227  14.003   7.063
 4719POPC   C4A60354  10.426  13.799   7.425
 4719POPC   C1B60355  10.902  13.641   6.283
 4719POPC   C2B60356  10.965  13.838   6.678
 4719POPC   C3B60357  10.818  13.787   7.094
 4719POPC   C4B60358  10.826  13.446   7.406
 4720POPC   NC360359   1.670  24.824   5.449
 4720POPC   PO460360   1.046  24.976   5.321
 4720POPC   GL160361   1.238  25.184   5.718
 4720POPC   GL260362   1.423  24.940   5.912
 4720POPC   C1A60363   1.374  25.407   6.143
 4720POPC   D2A60364   1.178  25.521   6.578
 4720POPC   C3A60365   1.419  25.586   6.999
 4720POPC   C4A60366   1.507  25.326   7.381
 4720POPC   C1B60367   1.065  25.030   6.198
 4720POPC   C2B60368   0.931  25.020   6.638
 4720POPC   C3B60369   1.138  25.084   7.036
 4720POPC   C4B60370   1.023  25.110   7.478
 4721POPC   NC360371   0.750   0.935   5.494
 4721POPC   PO460372   0.171   1.181   5.676
 4721POPC   GL160373   0.482   0.985   5.940
 4721POPC   GL260374   0.531   1.285   6.093
 4721POPC   C1A60375   0.660   0.904   6.392
 4721POPC   D2A60376   0.461   1.203   6.657
 4721POPC   C3A60377   0.481   1.109   7.043
 4721POPC   C4A60378   0.724   1.356   7.280
 4721POPC   C1B60379   0.122   1.114   6.303
 4721POPC   C2B60380  44.928   1.236   6.701
 4721POPC   C3B60381   0.119   1.486   7.031
 4721POPC   C4B60382   0.193   1.375   7.469
 4722POPC   NC360383  20.590   1.718   5.143
 4722POPC   PO460384  20.512   1.074   5.439
 4722POPC   GL160385  20.593   1.135   5.877
 4722POPC   GL260386  20.848   1.361   5.982
 4722POPC   C1A60387  20.524   1.091   6.319
 4722POPC   D2A60388  20.264   1.284   6.618
 4722POPC   C3A60389  20.329   1.141   7.019
 4722POPC   C4A60390  20.535   1.034   7.372
 4722POPC   C1B60391  21.062   1.073   6.249
 4722POPC   C2B60392  20.904   0.826   6.578
 4722POPC   C3B60393  20.840   0.994   6.969
 4722POPC   C4B60394  20.756   1.451   7.039
 4723POPC   NC360395  12.033  20.885   5.547
 4723POPC   PO460396  12.253  20.212   5.509
 4723POPC   GL160397  12.171  20.508   5.889
 4723POPC   GL260398  12.363  20.452   6.183
 4723POPC   C1A60399  11.906  20.768   6.211
 4723POPC   D2A60400  11.783  20.731   6.665
 4723POPC   C3A60401  12.093  20.678   6.981
 4723POPC   C4A60402  12.161  20.872   7.374
 4723POPC   C1B60403  11.995  20.304   6.413
 4723POPC   C2B60404  11.880  20.215   6.843
 4723POPC   C3B60405  11.726  20.371   7.238
 4723POPC   C4B60406  11.846  20.171   7.646
 4724POPC   NC360407   1.320  15.470   5.049
 4724POPC   PO460408   1.222  16.029   5.428
 4724POPC   GL160409   1.162  15.706   5.744
 4724POPC   GL260410   1.491  15.730   5.833
 4724POPC   C1A60411   0.990  15.568   6.170
 4724POPC   D2A60412   0.822  15.706   6.580
 4724POPC   C3A60413   1.066  15.686   6.965
 4724POPC   C4A60414   0.976  15.833   7.367
 4724POPC   C1B60415   1.358  15.920   6.217
 4724POPC   C2B60416   1.453  15.779   6.637
 4724POPC   C3B60417   1.454  16.026   7.010
 4724POPC   C4B60418   1.697  16.062   7.321
 4725POPC   NC360419  37.995  29.198   5.497
 4725POPC   PO460420  37.437  28.801   5.328
 4725POPC   GL160421  37.592  28.921   5.767
 4725POPC   GL260422  37.554  29.277   5.886
 4725POPC   C1A60423  37.782  28.929   6.214
 4725POPC   D2A60424  37.600  29.023   6.623
 4725POPC   C3A60425  37.776  28.986   7.037
 4725POPC   C4A60426  37.693  28.901   7.470
 4725POPC   C1B60427  37.897  29.447   6.135
 4725POPC   C2B60428  37.950  29.594   6.557
 4725POPC   C3B60429  37.677  29.508   6.919
 4725POPC   C4B60430  37.763  29.451   7.348
 4726POPC   NC360431  26.636   7.860   5.514
 4726POPC   PO460432  26.910   8.441   5.553
 4726POPC   GL160433  26.774   8.243   5.881
 4726POPC   GL260434  26.950   7.941   5.914
 4726POPC   C1A60435  26.911   8.386   6.285
 4726POPC   D2A60436  26.948   8.673   6.639
 4726POPC   C3A60437  26.706   8.599   7.005
 4726POPC   C4A60438  26.530   8.213   7.182
 4726POPC   C1B60439  26.613   7.958   6.271
 4726POPC   C2B60440  26.598   8.220   6.656
 4726POPC   C3B60441  27.011   8.203   6.895
 4726POPC   C4B60442  27.119   7.883   7.213
 4727POPC   NC360443  25.091   5.366   5.555
 4727POPC   PO460444  25.198   4.716   5.394
 4727POPC   GL160445  25.215   4.903   5.786
 4727POPC   GL260446  25.399   5.164   5.970
 4727POPC   C1A60447  25.050   4.858   6.182
 4727POPC   D2A60448  25.278   5.035   6.504
 4727POPC   C3A60449  25.229   4.886   6.902
 4727POPC   C4A60450  25.276   5.051   7.320
 4727POPC   C1B60451  25.554   4.748   6.162
 4727POPC   C2B60452  25.708   4.736   6.626
 4727POPC   C3B60453  25.703   4.875   7.074
 4727POPC   C4B60454  25.542   4.619   7.385
 4728POPC   NC360455   5.635   9.221   5.435
 4728POPC   PO460456   6.220   8.888   5.404
 4728POPC   GL160457   5.903   8.938   5.785
 4728POPC   GL260458   5.958   9.304   5.843
 4728POPC   C1A60459   5.631   8.857   6.216
 4728POPC   D2A60460   5.688   8.626   6.651
 4728POPC   C3A60461   5.518   8.749   7.071
 4728POPC   C4A60462   5.521   8.715   7.507
 4728POPC   C1B60463   6.037   9.167   6.236
 4728POPC   C2B60464   5.809   9.192   6.610
 4728POPC   C3B60465   5.680   9.257   7.015
 4728POPC   C4B60466   5.935   9.022   7.261
 4729POPC   NC360467  32.589  42.494   5.129
 4729POPC   PO460468  33.038  42.148   5.456
 4729POPC   GL160469  33.027  42.394   5.864
 4729POPC   GL260470  33.379  42.443   5.972
 4729POPC   C1A60471  32.985  42.528   6.314
 4729POPC   D2A60472  32.944  42.256   6.700
 4729POPC   C3A60473  33.143  42.418   7.079
 4729POPC   C4A60474  33.011  42.497   7.487
 4729POPC   C1B60475  33.283  42.109   6.269
 4729POPC   C2B60476  33.392  42.014   6.701
 4729POPC   C3B60477  33.196  41.900   7.071
 4729POPC   C4B60478  33.268  42.019   7.499
 4730POPC   NC360479  30.244  19.869   5.666
 4730POPC   PO460480  29.660  19.669   5.490
 4730POPC   GL160481  29.774  19.659   5.933
 4730POPC   GL260482  30.068  19.448   5.918
 4730POPC   C1A60483  29.780  19.865   6.366
 4730POPC   D2A60484  29.803  19.632   6.757
 4730POPC   C3A60485  29.680  19.793   7.115
 4730POPC   C4A60486  29.845  20.198   7.132
 4730POPC   C1B60487  30.045  19.440   6.356
 4730POPC   C2B60488  30.320  19.505   6.720
 4730POPC   C3B60489  30.209  19.629   7.118
 4730POPC   C4B60490  29.926  19.404   7.288
 4731POPC   NC360491  20.370  33.018   5.557
 4731POPC   PO460492  20.861  33.336   5.304
 4731POPC   GL160493  20.870  33.155   5.746
 4731POPC   GL260494  20.558  33.183   5.980
 4731POPC   C1A60495  20.977  32.992   6.172
 4731POPC   D2A60496  20.708  32.983   6.504
 4731POPC   C3A60497  20.851  32.874   6.910
 4731POPC   C4A60498  20.877  33.035   7.332
 4731POPC   C1B60499  20.300  33.341   6.330
 4731POPC   C2B60500  20.280  33.132   6.726
 4731POPC   C3B60501  20.399  32.953   7.123
 4731POPC   C4B60502  20.423  33.171   7.533
 4732POPC   NC360503  39.743   1.781   5.497
 4732POPC   PO460504  40.198   2.287   5.400
 4732POPC   GL160505  40.180   1.999   5.737
 4732POPC   GL260506  40.240   1.668   5.650
 4732POPC   C1A60507  39.957   1.937   6.126
 4732POPC   D2A60508  39.753   1.921   6.533
 4732POPC   C3A60509  39.962   2.016   6.889
 4732POPC   C4A60510  40.043   1.862   7.277
 4732POPC   C1B60511  40.359   1.615   6.083
 4732POPC   C2B60512  40.276   1.768   6.496
 4732POPC   C3B60513  40.432   1.649   6.862
 4732POPC   C4B60514  40.498   1.617   7.297
 4733POPC   NC360515   5.930   1.563   5.137
 4733POPC   PO460516   5.658   1.089   5.526
 4733POPC   GL160517   5.714   1.272   5.912
 4733POPC   GL260518   6.019   1.405   5.850
 4733POPC   C1A60519   5.841   1.074   6.290
 4733POPC   D2A60520   6.041   0.770   6.496
 4733POPC   C3A60521   5.875   0.948   6.836
 4733POPC   C4A60522   5.864   0.896   7.238
 4733POPC   C1B60523   6.024   1.552   6.291
 4733POPC   C2B60524   5.817   1.436   6.692
 4733POPC   C3B60525   5.998   1.373   7.141
 4733POPC   C4B60526   6.102   1.644   7.556
 4734POPC   NC360527  14.017   0.733   5.614
 4734POPC   PO460528  14.029   0.056   5.432
 4734POPC   GL160529  13.726   0.313   5.729
 4734POPC   GL260530  13.347   0.394   5.711
 4734POPC   C1A60531  13.618   0.412   6.170
 4734POPC   D2A60532  13.762   0.656   6.558
 4734POPC   C3A60533  13.917   0.512   6.983
 4734POPC   C4A60534  13.710   0.227   7.260
 4734POPC   C1B60535  13.178   0.628   6.104
 4734POPC   C2B60536  13.270   0.721   6.530
 4734POPC   C3B60537  13.402   0.521   6.910
 4734POPC   C4B60538  13.308   0.673   7.298
 4735POPC   NC360539  35.180   2.468   5.413
 4735POPC   PO460540  35.601   2.944   5.228
 4735POPC   GL160541  35.522   2.849   5.722
 4735POPC   GL260542  35.172   2.860   5.870
 4735POPC   C1A60543  35.602   2.695   6.197
 4735POPC   D2A60544  35.693   2.851   6.652
 4735POPC   C3A60545  35.460   2.627   6.981
 4735POPC   C4A60546  35.172   2.734   7.334
 4735POPC   C1B60547  35.057   2.592   6.244
 4735POPC   C2B60548  35.066   2.462   6.684
 4735POPC   C3B60549  35.018   2.307   7.123
 4735POPC   C4B60550  34.954   2.367   7.610
 4736POPC   NC360551  36.877  19.686   5.487
 4736POPC   PO460552  37.298  20.250   5.470
 4736POPC   GL160553  37.035  20.041   5.818
 4736POPC   GL260554  37.171  19.682   5.910
 4736POPC   C1A60555  36.828  19.931   6.225
 4736POPC   D2A60556  36.673  20.050   6.646
 4736POPC   C3A60557  36.846  19.852   7.030
 4736POPC   C4A60558  36.674  19.892   7.441
 4736POPC   C1B60559  37.172  19.558   6.343
 4736POPC   C2B60560  36.771  19.544   6.572
 4736POPC   C3B60561  36.658  19.369   6.949
 4736POPC   C4B60562  36.866  19.426   7.369
 4737POPC   NC360563   4.664   1.810   5.545
 4737POPC   PO460564   5.300   2.022   5.485
 4737POPC   GL160565   5.256   2.047   5.908
 4737POPC   GL260566   4.907   2.036   5.951
 4737POPC   C1A60567   5.241   2.141   6.350
 4737POPC   D2A60568   5.087   1.838   6.649
 4737POPC   C3A60569   5.354   1.652   6.921
 4737POPC   C4A60570   5.425   2.039   7.146
 4737POPC   C1B60571   4.758   1.686   6.248
 4737POPC   C2B60572   4.600   1.683   6.687
 4737POPC   C3B60573   4.761   1.814   7.103
 4737POPC   C4B60574   5.111   1.693   7.368
 4738POPC   NC360575  35.749  20.838   5.419
 4738POPC   PO460576  36.453  20.935   5.471
 4738POPC   GL160577  36.327  20.660   5.806
 4738POPC   GL260578  35.981  20.680   5.852
 4738POPC   C1A60579  36.321  20.525   6.228
 4738POPC   D2A60580  36.256  20.364   6.628
 4738POPC   C3A60581  36.363  20.593   7.005
 4738POPC   C4A60582  36.495  20.389   7.387
 4738POPC   C1B60583  35.830  20.759   6.272
 4738POPC   C2B60584  36.011  20.829   6.678
 4738POPC   C3B60585  35.864  20.755   7.105
 4738POPC   C4B60586  35.590  20.734   7.470
 4739POPC   NC360587   7.893  34.992   5.420
 4739POPC   PO460588   7.825  35.662   5.594
 4739POPC   GL160589   7.934  35.455   5.939
 4739POPC   GL260590   7.715  35.182   5.870
 4739POPC   C1A60591   8.231  35.464   6.274
 4739POPC   D2A60592   8.159  35.248   6.674
 4739POPC   C3A60593   8.360  35.425   7.081
 4739POPC   C4A60594   8.279  35.485   7.553
 4739POPC   C1B60595   7.881  34.939   6.206
 4739POPC   C2B60596   7.908  34.763   6.609
 4739POPC   C3B60597   7.848  34.850   7.023
 4739POPC   C4B60598   7.971  35.172   7.293
 4740POPC   NC360599  28.979  11.650   5.650
 4740POPC   PO460600  29.125  11.093   5.357
 4740POPC   GL160601  29.187  11.136   5.807
 4740POPC   GL260602  29.462  11.307   5.912
 4740POPC   C1A60603  29.052  11.346   6.204
 4740POPC   D2A60604  28.850  11.395   6.558
 4740POPC   C3A60605  28.891  11.089   6.851
 4740POPC   C4A60606  29.151  11.132   7.199
 4740POPC   C1B60607  29.532  11.530   6.262
 4740POPC   C2B60608  29.242  11.711   6.544
 4740POPC   C3B60609  29.137  11.618   6.964
 4740POPC   C4B60610  29.398  11.688   7.325
 4741POPC   NC360611  19.180   0.215   5.599
 4741POPC   PO460612  19.010  44.687   5.179
 4741POPC   GL160613  19.166  44.654   5.648
 4741POPC   GL260614  18.990  44.835   5.880
 4741POPC   C1A60615  19.352  44.655   6.138
 4741POPC   D2A60616  19.212  44.554   6.552
 4741POPC   C3A60617  19.354  44.790   6.875
 4741POPC   C4A60618  19.214  44.760   7.242
 4741POPC   C1B60619  18.823  44.550   6.228
 4741POPC   C2B60620  18.677  44.439   6.677
 4741POPC   C3B60621  18.785  44.552   7.086
 4741POPC   C4B60622  18.722  44.779   7.472
 4742POPC   NC360623  39.280  35.505   5.344
 4742POPC   PO460624  38.870  35.099   5.674
 4742POPC   GL160625  39.087  35.494   5.873
 4742POPC   GL260626  39.472  35.569   5.823
 4742POPC   C1A60627  39.297  35.476   6.313
 4742POPC   D2A60628  39.486  35.165   6.611
 4742POPC   C3A60629  39.196  35.010   6.925
 4742POPC   C4A60630  39.013  35.067   7.307
 4742POPC   C1B60631  39.807  35.767   6.086
 4742POPC   C2B60632  39.779  35.891   6.494
 4742POPC   C3B60633  39.614  35.628   6.808
 4742POPC   C4B60634  39.295  35.509   7.109
 4743POPC   NC360635  22.906   0.855   5.231
 4743POPC   PO460636  22.661   0.284   5.402
 4743POPC   GL160637  22.924   0.402   5.781
 4743POPC   GL260638  23.006   0.771   5.754
 4743POPC   C1A60639  22.797   0.555   6.207
 4743POPC   D2A60640  22.561   0.720   6.546
 4743POPC   C3A60641  22.749   0.484   6.857
 4743POPC   C4A60642  22.661   0.456   7.256
 4743POPC   C1B60643  23.280   0.679   6.127
 4743POPC   C2B60644  23.167   0.659   6.590
 4743POPC   C3B60645  23.153   0.725   7.074
 4743POPC   C4B60646  23.144   0.673   7.566
 4744POPC   NC360647  31.621  32.733   5.627
 4744POPC   PO460648  31.542  33.337   5.275
 4744POPC   GL160649  31.341  33.126   5.776
 4744POPC   GL260650  31.286  32.774   6.013
 4744POPC   C1A60651  31.507  33.107   6.276
 4744POPC   D2A60652  31.395  32.757   6.568
 4744POPC   C3A60653  31.669  32.799   6.922
 4744POPC   C4A60654  31.828  33.139   7.183
 4744POPC   C1B60655  31.007  33.038   6.290
 4744POPC   C2B60656  30.880  32.937   6.697
 4744POPC   C3B60657  31.143  32.791   7.021
 4744POPC   C4B60658  31.389  32.922   7.344
 4745POPC   NC360659  44.920  32.517   5.478
 4745POPC   PO460660  44.671  32.008   5.131
 4745POPC   GL160661  44.731  32.090   5.697
 4745POPC   GL260662  44.789  32.408   5.956
 4745POPC   C1A60663  44.672  31.940   6.171
 4745POPC   D2A60664  44.535  31.818   6.627
 4745POPC   C3A60665  44.663  32.115   6.932
 4745POPC   C4A60666  44.814  32.041   7.331
 4745POPC   C1B60667  44.781  32.721   6.311
 4745POPC   C2B60668  44.587  32.756   6.744
 4745POPC   C3B60669  44.613  32.578   7.158
 4745POPC   C4B60670  44.380  32.326   7.393
 4746POPC   NC360671  11.361  31.376   5.243
 4746POPC   PO460672  11.524  31.950   5.519
 4746POPC   GL160673  11.378  31.638   5.800
 4746POPC   GL260674  11.273  31.307   5.753
 4746POPC   C1A60675  11.581  31.506   6.184
 4746POPC   D2A60676  11.423  31.352   6.589
 4746POPC   C3A60677  11.554  31.522   6.981
 4746POPC   C4A60678  11.667  31.772   7.307
 4746POPC   C1B60679  11.108  31.299   6.166
 4746POPC   C2B60680  10.915  31.322   6.575
 4746POPC   C3B60681  11.058  31.367   7.005
 4746POPC   C4B60682  10.839  31.366   7.424
 4747POPC   NC360683   9.731  21.152   5.524
 4747POPC   PO460684   9.299  21.705   5.601
 4747POPC   GL160685   9.572  21.454   5.913
 4747POPC   GL260686   9.530  21.114   5.997
 4747POPC   C1A60687   9.925  21.393   6.205
 4747POPC   D2A60688  10.155  21.491   6.590
 4747POPC   C3A60689  10.035  21.229   6.950
 4747POPC   C4A60690   9.867  21.414   7.317
 4747POPC   C1B60691   9.436  21.378   6.390
 4747POPC   C2B60692   9.513  21.368   6.824
 4747POPC   C3B60693   9.383  21.483   7.221
 4747POPC   C4B60694   9.436  21.193   7.547
 4748POPC   NC360695  44.250  22.307   5.470
 4748POPC   PO460696  44.820  22.141   5.144
 4748POPC   GL160697  44.674  22.040   5.616
 4748POPC   GL260698  44.338  21.898   5.769
 4748POPC   C1A60699  44.755  22.097   6.085
 4748POPC   D2A60700  44.646  22.101   6.554
 4748POPC   C3A60701  44.823  22.074   6.965
 4748POPC   C4A60702  44.527  22.021   7.285
 4748POPC   C1B60703  44.344  21.845   6.244
 4748POPC   C2B60704  44.223  21.832   6.709
 4748POPC   C3B60705  44.134  22.177   6.999
 4748POPC   C4B60706  44.187  22.410   7.419
 4749POPC   NC360707  44.817  20.736   5.027
 4749POPC   PO460708  44.634  20.117   5.383
 4749POPC   GL160709  44.656  20.490   5.729
 4749POPC   GL260710  44.411  20.779   5.707
 4749POPC   C1A60711  44.830  20.692   6.145
 4749POPC   D2A60712  44.778  20.890   6.566
 4749POPC   C3A60713  44.939  20.702   6.951
 4749POPC   C4A60714  44.876  20.886   7.360
 4749POPC   C1B60715  44.310  20.707   6.147
 4749POPC   C2B60716  44.357  20.643   6.579
 4749POPC   C3B60717  44.455  20.843   7.000
 4749POPC   C4B60718  44.379  21.076   7.400
 4750POPC   NC360719   9.673  24.435   4.958
 4750POPC   PO460720   9.666  24.372   5.544
 4750POPC   GL160721   9.829  24.518   5.896
 4750POPC   GL260722  10.026  24.247   5.936
 4750POPC   C1A60723   9.875  24.775   6.262
 4750POPC   D2A60724   9.860  24.962   6.676
 4750POPC   C3A60725   9.745  24.648   6.959
 4750POPC   C4A60726   9.530  24.666   7.352
 4750POPC   C1B60727   9.920  24.271   6.381
 4750POPC   C2B60728  10.026  24.249   6.807
 4750POPC   C3B60729  10.181  24.100   7.189
 4750POPC   C4B60730  10.090  24.147   7.622
 4751POPC   NC360731  30.114  14.950   5.618
 4751POPC   PO460732  29.709  15.485   5.527
 4751POPC   GL160733  29.726  15.324   5.883
 4751POPC   GL260734  29.615  15.004   5.763
 4751POPC   C1A60735  29.854  15.337   6.295
 4751POPC   D2A60736  30.140  15.102   6.555
 4751POPC   C3A60737  30.008  15.240   6.940
 4751POPC   C4A60738  30.025  15.087   7.328
 4751POPC   C1B60739  29.437  15.015   6.186
 4751POPC   C2B60740  29.619  14.959   6.608
 4751POPC   C3B60741  29.543  15.052   7.050
 4751POPC   C4B60742  29.531  14.988   7.483
 4752POPC   NC360743  33.798   9.326   5.317
 4752POPC   PO460744  33.907   8.728   5.559
 4752POPC   GL160745  33.688   8.833   5.898
 4752POPC   GL260746  33.664   9.186   5.819
 4752POPC   C1A60747  33.655   8.673   6.289
 4752POPC   D2A60748  34.002   8.601   6.506
 4752POPC   C3A60749  33.818   8.668   6.876
 4752POPC   C4A60750  33.822   8.923   7.149
 4752POPC   C1B60751  33.990   9.112   6.178
 4752POPC   C2B60752  34.078   9.334   6.560
 4752POPC   C3B60753  33.943   9.377   6.969
 4752POPC   C4B60754  34.107   9.266   7.372
 4753POPC   NC360755  42.470   0.868   5.384
 4753POPC   PO460756  42.051   1.284   5.510
 4753POPC   GL160757  42.239   1.186   5.884
 4753POPC   GL260758  42.417   0.859   5.888
 4753POPC   C1A60759  42.163   1.352   6.305
 4753POPC   D2A60760  41.980   1.225   6.689
 4753POPC   C3A60761  42.199   1.307   7.046
 4753POPC   C4A60762  42.090   1.492   7.423
 4753POPC   C1B60763  42.631   1.095   6.214
 4753POPC   C2B60764  42.545   1.150   6.650
 4753POPC   C3B60765  42.368   0.834   6.898
 4753POPC   C4B60766  42.083   0.837   7.216
 4754POPC   NC360767   0.698  27.621   5.521
 4754POPC   PO460768   0.079  27.700   5.444
 4754POPC   GL160769   0.189  27.431   5.759
 4754POPC   GL260770   0.171  27.755   5.961
 4754POPC   C1A60771   0.407  27.302   6.120
 4754POPC   D2A60772   0.220  27.366   6.503
 4754POPC   C3A60773   0.454  27.561   6.830
 4754POPC   C4A60774   0.599  27.462   7.243
 4754POPC   C1B60775   0.110  27.866   6.405
 4754POPC   C2B60776   0.023  27.900   6.826
 4754POPC   C3B60777   0.214  27.816   7.221
 4754POPC   C4B60778   0.012  27.814   7.630
 4755POPC   NC360779   3.729  44.231   5.509
 4755POPC   PO460780   3.434  43.604   5.460
 4755POPC   GL160781   3.534  43.836   5.812
 4755POPC   GL260782   3.299  44.065   5.945
 4755POPC   C1A60783   3.654  43.809   6.240
 4755POPC   D2A60784   3.856  44.008   6.600
 4755POPC   C3A60785   4.035  43.726   6.906
 4755POPC   C4A60786   3.807  43.651   7.276
 4755POPC   C1B60787   3.138  43.695   6.149
 4755POPC   C2B60788   3.309  43.483   6.508
 4755POPC   C3B60789   3.437  43.665   6.899
 4755POPC   C4B60790   3.320  43.829   7.301
 4756POPC   NC360791   0.508  36.301   5.369
 4756POPC   PO460792  44.939  35.969   5.472
 4756POPC   GL160793   0.315  35.857   5.728
 4756POPC   GL260794   0.407  36.181   5.884
 4756POPC   C1A60795   0.455  35.734   6.167
 4756POPC   D2A60796   0.319  35.726   6.629
 4756POPC   C3A60797   0.624  35.912   6.909
 4756POPC   C4A60798   0.650  36.198   7.250
 4756POPC   C1B60799   0.159  36.159   6.310
 4756POPC   C2B60800   0.206  36.237   6.785
 4756POPC   C3B60801   0.156  36.177   7.237
 4756POPC   C4B60802   0.229  36.465   7.559
 4757POPC   NC360803  36.758   5.491   5.462
 4757POPC   PO460804  37.054   6.074   5.526
 4757POPC   GL160805  36.906   5.900   5.861
 4757POPC   GL260806  37.097   5.657   5.830
 4757POPC   C1A60807  36.702   5.870   6.271
 4757POPC   D2A60808  36.775   5.702   6.662
 4757POPC   C3A60809  36.796   5.979   7.017
 4757POPC   C4A60810  36.470   6.184   7.243
 4757POPC   C1B60811  37.073   5.519   6.214
 4757POPC   C2B60812  37.282   5.629   6.581
 4757POPC   C3B60813  37.152   5.576   7.018
 4757POPC   C4B60814  37.007   5.750   7.415
 4758POPC   NC360815   0.995  18.735   5.539
 4758POPC   PO460816   1.114  19.443   5.516
 4758POPC   GL160817   1.256  19.090   5.838
 4758POPC   GL260818   0.945  18.973   6.002
 4758POPC   C1A60819   1.448  18.902   6.256
 4758POPC   D2A60820   1.584  19.038   6.705
 4758POPC   C3A60821   1.327  19.066   7.095
 4758POPC   C4A60822   0.941  18.907   7.232
 4758POPC   C1B60823   0.695  19.373   6.093
 4758POPC   C2B60824   0.531  19.439   6.510
 4758POPC   C3B60825   0.843  19.369   6.833
 4758POPC   C4B60826   1.014  19.470   7.217
 4759POPC   NC360827  42.047   8.408   5.396
 4759POPC   PO460828  42.479   7.883   5.517
 4759POPC   GL160829  42.283   8.165   5.797
 4759POPC   GL260830  42.336   8.505   5.819
 4759POPC   C1A60831  42.071   8.171   6.173
 4759POPC   D2A60832  41.974   8.268   6.576
 4759POPC   C3A60833  42.223   8.076   6.890
 4759POPC   C4A60834  42.366   8.218   7.280
 4759POPC   C1B60835  42.518   8.537   6.212
 4759POPC   C2B60836  42.512   8.346   6.577
 4759POPC   C3B60837  42.672   8.491   6.964
 4759POPC   C4B60838  42.734   8.566   7.384
 4760POPC   NC360839  34.142  23.539   5.478
 4760POPC   PO460840  33.489  23.689   5.545
 4760POPC   GL160841  33.712  23.730   5.910
 4760POPC   GL260842  33.978  23.894   5.794
 4760POPC   C1A60843  33.619  23.643   6.350
 4760POPC   D2A60844  33.493  23.822   6.721
 4760POPC   C3A60845  33.733  23.628   7.027
 4760POPC   C4A60846  33.600  23.741   7.454
 4760POPC   C1B60847  34.174  23.787   6.152
 4760POPC   C2B60848  34.123  23.596   6.542
 4760POPC   C3B60849  34.272  23.722   6.920
 4760POPC   C4B60850  34.153  23.725   7.331
 4761POPC   NC360851  31.717  16.991   5.364
 4761POPC   PO460852  31.280  16.495   5.486
 4761POPC   GL160853  31.409  16.782   5.811
 4761POPC   GL260854  31.714  16.782   5.844
 4761POPC   C1A60855  31.406  16.740   6.279
 4761POPC   D2A60856  31.267  16.843   6.713
 4761POPC   C3A60857  31.418  16.646   7.070
 4761POPC   C4A60858  31.779  16.444   7.282
 4761POPC   C1B60859  31.903  16.952   6.207
 4761POPC   C2B60860  31.762  16.966   6.611
 4761POPC   C3B60861  31.873  16.844   6.992
 4761POPC   C4B60862  32.127  16.908   7.305
 4762POPC   NC360863  17.293   4.569   5.461
 4762POPC   PO460864  17.556   3.996   5.531
 4762POPC   GL160865  17.503   4.285   5.858
 4762POPC   GL260866  17.146   4.360   5.903
 4762POPC   C1A60867  17.631   4.299   6.277
 4762POPC   D2A60868  17.424   4.145   6.649
 4762POPC   C3A60869  17.663   4.246   7.010
 4762POPC   C4A60870  17.453   4.346   7.366
 4762POPC   C1B60871  17.294   4.684   6.188
 4762POPC   C2B60872  17.470   4.675   6.588
 4762POPC   C3B60873  17.337   4.656   6.986
 4762POPC   C4B60874  17.348   4.895   7.334
 4763POPC   NC360875   7.726  17.822   5.414
 4763POPC   PO460876   7.460  17.148   5.527
 4763POPC   GL160877   7.509  17.387   5.874
 4763POPC   GL260878   7.376  17.726   5.791
 4763POPC   C1A60879   7.360  17.476   6.272
 4763POPC   D2A60880   7.213  17.390   6.654
 4763POPC   C3A60881   7.413  17.406   7.061
 4763POPC   C4A60882   7.128  17.359   7.404
 4763POPC   C1B60883   7.227  17.945   6.150
 4763POPC   C2B60884   7.468  17.915   6.554
 4763POPC   C3B60885   7.298  17.897   6.962
 4763POPC   C4B60886   7.355  17.834   7.383
 4764POPC   NC360887  24.734  20.652   5.684
 4764POPC   PO460888  24.198  20.985   5.445
 4764POPC   GL160889  24.207  20.719   5.834
 4764POPC   GL260890  24.329  20.347   5.830
 4764POPC   C1A60891  24.264  20.646   6.293
 4764POPC   D2A60892  24.296  20.851   6.703
 4764POPC   C3A60893  24.675  21.028   6.844
 4764POPC   C4A60894  24.818  20.846   7.216
 4764POPC   C1B60895  24.625  20.272   6.202
 4764POPC   C2B60896  24.751  20.487   6.555
 4764POPC   C3B60897  24.476  20.390   6.862
 4764POPC   C4B60898  24.533  20.330   7.268
 4765POPC   NC360899  17.654   0.241   5.059
 4765POPC   PO460900  17.947   0.639   5.491
 4765POPC   GL160901  17.647   0.699   5.844
 4765POPC   GL260902  17.265   0.653   5.789
 4765POPC   C1A60903  17.611   0.542   6.274
 4765POPC   D2A60904  17.669   0.639   6.731
 4765POPC   C3A60905  17.546   0.282   7.033
 4765POPC   C4A60906  17.583   0.213   7.513
 4765POPC   C1B60907  17.090   0.467   6.161
 4765POPC   C2B60908  17.239   0.342   6.568
 4765POPC   C3B60909  17.061   0.396   6.956
 4765POPC   C4B60910  17.114   0.188   7.358
 4766POPC   NC360911  35.292   1.528   5.092
 4766POPC   PO460912  35.524   1.055   5.528
 4766POPC   GL160913  35.508   1.067   5.968
 4766POPC   GL260914  35.830   0.954   6.021
 4766POPC   C1A60915  35.460   1.299   6.361
 4766POPC   D2A60916  35.383   1.620   6.683
 4766POPC   C3A60917  35.285   1.384   7.043
 4766POPC   C4A60918  35.367   1.472   7.482
 4766POPC   C1B60919  35.670   0.723   6.364
 4766POPC   C2B60920  35.546   0.852   6.766
 4766POPC   C3B60921  35.714   1.124   7.091
 4766POPC   C4B60922  35.715   1.085   7.525
 4767POPC   NC360923  18.795  22.107   5.324
 4767POPC   PO460924  19.433  22.404   5.408
 4767POPC   GL160925  19.140  22.330   5.740
 4767POPC   GL260926  18.971  22.022   5.789
 4767POPC   C1A60927  19.163  22.278   6.199
 4767POPC   D2A60928  19.132  22.504   6.576
 4767POPC   C3A60929  19.157  22.247   6.933
 4767POPC   C4A60930  19.094  22.466   7.301
 4767POPC   C1B60931  18.900  21.826   6.188
 4767POPC   C2B60932  19.133  21.821   6.573
 4767POPC   C3B60933  19.095  21.729   6.996
 4767POPC   C4B60934  18.994  21.966   7.368
 4768POPC   NC360935   8.361  38.581   5.560
 4768POPC   PO460936   7.690  38.470   5.674
 4768POPC   GL160937   7.866  38.398   6.069
 4768POPC   GL260938   8.186  38.330   5.962
 4768POPC   C1A60939   8.086  38.215   6.442
 4768POPC   D2A60940   8.456  38.320   6.647
 4768POPC   C3A60941   8.191  38.480   6.947
 4768POPC   C4A60942   8.072  38.184   7.239
 4768POPC   C1B60943   8.443  38.614   6.234
 4768POPC   C2B60944   8.477  38.837   6.642
 4768POPC   C3B60945   8.660  38.682   7.023
 4768POPC   C4B60946   8.448  38.472   7.394
 4769POPC   NC360947  36.633  41.394   5.435
 4769POPC   PO460948  37.144  41.751   5.112
 4769POPC   GL160949  37.026  41.620   5.627
 4769POPC   GL260950  36.706  41.799   5.770
 4769POPC   C1A60951  37.075  41.377   6.062
 4769POPC   D2A60952  37.051  41.107   6.471
 4769POPC   C3A60953  36.973  41.320   6.892
 4769POPC   C4A60954  37.073  41.640   7.258
 4769POPC   C1B60955  36.514  41.725   6.208
 4769POPC   C2B60956  36.637  41.611   6.632
 4769POPC   C3B60957  36.652  41.804   7.040
 4769POPC   C4B60958  36.594  41.804   7.509
 4770POPC   NC360959  18.561  18.035   5.329
 4770POPC   PO460960  18.135  18.499   5.265
 4770POPC   GL160961  18.153  18.382   5.737
 4770POPC   GL260962  18.319  18.046   5.787
 4770POPC   C1A60963  17.992  18.176   6.147
 4770POPC   D2A60964  18.184  17.949   6.492
 4770POPC   C3A60965  18.149  18.183   6.862
 4770POPC   C4A60966  18.221  18.197   7.289
 4770POPC   C1B60967  18.537  18.139   6.168
 4770POPC   C2B60968  18.718  17.928   6.530
 4770POPC   C3B60969  18.717  18.061   6.933
 4770POPC   C4B60970  18.669  17.929   7.313
 4771POPC   NC360971  17.284  42.599   5.574
 4771POPC   PO460972  16.655  42.266   5.448
 4771POPC   GL160973  16.701  42.201   5.873
 4771POPC   GL260974  17.055  42.231   5.872
 4771POPC   C1A60975  16.573  42.384   6.275
 4771POPC   D2A60976  16.639  42.678   6.618
 4771POPC   C3A60977  16.616  42.499   7.023
 4771POPC   C4A60978  16.725  42.063   7.143
 4771POPC   C1B60979  17.015  42.118   6.294
 4771POPC   C2B60980  16.955  42.255   6.726
 4771POPC   C3B60981  17.220  42.099   7.094
 4771POPC   C4B60982  17.203  41.903   7.543
 4772POPC   NC360983  39.378  18.054   5.419
 4772POPC   PO460984  39.103  18.603   5.459
 4772POPC   GL160985  39.271  18.386   5.810
 4772POPC   GL260986  39.040  18.108   5.844
 4772POPC   C1A60987  39.490  18.185   6.181
 4772POPC   D2A60988  39.338  18.254   6.622
 4772POPC   C3A60989  39.550  18.251   7.003
 4772POPC   C4A60990  39.336  18.094   7.343
 4772POPC   C1B60991  39.006  18.354   6.249
 4772POPC   C2B60992  38.937  18.561   6.660
 4772POPC   C3B60993  38.966  18.307   7.045
 4772POPC   C4B60994  38.930  18.354   7.512
 4773POPC   NC360995  21.851  25.892   5.698
 4773POPC   PO460996  21.298  25.841   5.268
 4773POPC   GL160997  21.291  25.756   5.789
 4773POPC   GL260998  21.545  25.919   6.084
 4773POPC   C1A60999  21.062  25.870   6.165
 4773POPC   D2A61000  21.197  26.053   6.534
 4773POPC   C3A61001  21.156  25.855   6.922
 4773POPC   C4A61002  21.125  26.238   7.152
 4773POPC   C1B61003  21.569  26.312   6.315
 4773POPC   C2B61004  21.607  26.262   6.772
 4773POPC   C3B61005  21.600  26.017   7.129
 4773POPC   C4B61006  21.673  25.580   7.169
 4774POPC   NC361007  36.299  32.010   5.375
 4774POPC   PO461008  35.674  32.098   5.017
 4774POPC   GL161009  35.839  32.251   5.561
 4774POPC   GL261010  36.165  32.261   5.783
 4774POPC   C1A61011  35.787  32.116   6.066
 4774POPC   D2A61012  35.853  31.992   6.527
 4774POPC   C3A61013  36.032  32.292   6.841
 4774POPC   C4A61014  35.958  32.396   7.271
 4774POPC   C1B61015  36.316  32.032   6.197
 4774POPC   C2B61016  36.397  31.961   6.676
 4774POPC   C3B61017  36.105  31.811   7.045
 4774POPC   C4B61018  36.248  31.596   7.473
 4775POPC   NC361019  33.802  28.835   5.387
 4775POPC   PO461020  33.559  29.439   5.376
 4775POPC   GL161021  33.745  29.240   5.748
 4775POPC   GL261022  33.511  28.946   5.798
 4775POPC   C1A61023  33.946  28.950   6.063
 4775POPC   D2A61024  34.151  29.068   6.434
 4775POPC   C3A61025  33.936  28.985   6.820
 4775POPC   C4A61026  33.955  28.927   7.258
 4775POPC   C1B61027  33.387  28.824   6.232
 4775POPC   C2B61028  33.468  28.781   6.694
 4775POPC   C3B61029  33.457  29.035   7.078
 4775POPC   C4B61030  33.400  28.966   7.525
 4776POPC   NC361031  25.978  23.320   5.790
 4776POPC   PO461032  26.299  23.859   5.435
 4776POPC   GL161033  26.122  23.894   5.865
 4776POPC   GL261034  25.774  23.781   5.892
 4776POPC   C1A61035  26.106  23.747   6.312
 4776POPC   D2A61036  26.217  23.398   6.592
 4776POPC   C3A61037  26.040  23.544   6.974
 4776POPC   C4A61038  25.979  23.987   7.095
 4776POPC   C1B61039  25.590  23.714   6.277
 4776POPC   C2B61040  25.706  23.876   6.662
 4776POPC   C3B61041  25.545  23.730   7.036
 4776POPC   C4B61042  25.740  23.642   7.384
 4777POPC   NC361043  32.932  22.404   5.344
 4777POPC   PO461044  32.844  21.815   5.679
 4777POPC   GL161045  33.133  22.134   5.853
 4777POPC   GL261046  33.031  22.466   5.856
 4777POPC   C1A61047  33.285  22.172   6.295
 4777POPC   D2A61048  33.145  22.365   6.665
 4777POPC   C3A61049  33.066  22.047   6.917
 4777POPC   C4A61050  33.156  21.964   7.315
 4777POPC   C1B61051  32.801  22.391   6.270
 4777POPC   C2B61052  32.635  22.486   6.679
 4777POPC   C3B61053  32.599  22.262   7.068
 4777POPC   C4B61054  32.631  21.830   7.097
 4778POPC   NC361055  31.259  33.746   5.376
 4778POPC   PO461056  31.665  33.505   5.805
 4778POPC   GL161057  31.278  33.642   5.893
 4778POPC   GL261058  31.309  34.004   5.815
 4778POPC   C1A61059  31.188  33.536   6.311
 4778POPC   D2A61060  30.930  33.460   6.626
 4778POPC   C3A61061  31.174  33.308   6.939
 4778POPC   C4A61062  31.439  33.472   7.254
 4778POPC   C1B61063  31.469  33.997   6.233
 4778POPC   C2B61064  31.455  33.905   6.679
 4778POPC   C3B61065  31.565  33.950   7.114
 4778POPC   C4B61066  31.516  33.931   7.554
 4779POPC   NC361067  13.460  17.288   5.413
 4779POPC   PO461068  13.005  17.778   5.514
 4779POPC   GL161069  13.361  17.593   5.838
 4779POPC   GL261070  13.559  17.254   5.896
 4779POPC   C1A61071  13.381  17.486   6.303
 4779POPC   D2A61072  13.512  17.353   6.721
 4779POPC   C3A61073  13.614  17.593   7.063
 4779POPC   C4A61074  13.444  17.564   7.464
 4779POPC   C1B61075  13.846  17.344   6.178
 4779POPC   C2B61076  13.951  17.502   6.537
 4779POPC   C3B61077  13.989  17.274   6.915
 4779POPC   C4B61078  13.810  17.219   7.328
 4780POPC   NC361079  12.545   2.553   5.313
 4780POPC   PO461080  12.998   3.032   5.346
 4780POPC   GL161081  12.939   2.784   5.736
 4780POPC   GL261082  12.678   2.948   5.904
 4780POPC   C1A61083  12.945   2.592   6.182
 4780POPC   D2A61084  13.049   2.592   6.644
 4780POPC   C3A61085  12.693   2.473   6.929
 4780POPC   C4A61086  12.584   2.375   7.383
 4780POPC   C1B61087  13.074   3.127   6.137
 4780POPC   C2B61088  13.275   3.217   6.560
 4780POPC   C3B61089  13.177   3.182   7.005
 4780POPC   C4B61090  12.891   2.866   7.192
 4781POPC   NC361091  29.346  22.420   5.499
 4781POPC   PO461092  28.958  21.917   5.312
 4781POPC   GL161093  28.935  21.891   5.737
 4781POPC   GL261094  28.992  22.247   5.843
 4781POPC   C1A61095  28.909  21.842   6.186
 4781POPC   D2A61096  28.828  22.017   6.589
 4781POPC   C3A61097  29.131  22.279   6.775
 4781POPC   C4A61098  29.205  22.335   7.202
 4781POPC   C1B61099  28.950  22.468   6.261
 4781POPC   C2B61100  28.829  22.694   6.656
 4781POPC   C3B61101  28.735  22.539   7.097
 4781POPC   C4B61102  28.816  22.353   7.533
 4782POPC   NC361103  16.743   2.363   5.428
 4782POPC   PO461104  17.047   2.955   5.319
 4782POPC   GL161105  16.834   2.814   5.715
 4782POPC   GL261106  17.002   2.535   5.847
 4782POPC   C1A61107  16.635   2.804   6.145
 4782POPC   D2A61108  16.421   2.856   6.543
 4782POPC   C3A61109  16.647   2.812   6.911
 4782POPC   C4A61110  16.809   3.086   7.254
 4782POPC   C1B61111  16.971   2.295   6.182
 4782POPC   C2B61112  16.794   2.247   6.567
 4782POPC   C3B61113  16.994   2.363   6.934
 4782POPC   C4B61114  16.901   2.578   7.284
 4783POPC   NC361115  37.909  33.223   5.400
 4783POPC   PO461116  37.277  33.072   5.432
 4783POPC   GL161117  37.597  33.108   5.794
 4783POPC   GL261118  37.792  33.394   5.875
 4783POPC   C1A61119  37.794  32.932   6.194
 4783POPC   D2A61120  37.642  32.684   6.546
 4783POPC   C3A61121  37.578  32.807   6.964
 4783POPC   C4A61122  37.359  32.756   7.337
 4783POPC   C1B61123  37.756  33.435   6.322
 4783POPC   C2B61124  37.890  33.156   6.681
 4783POPC   C3B61125  37.951  33.149   7.143
 4783POPC   C4B61126  37.845  33.129   7.583
 4784POPC   NC361127   2.585  16.050   5.377
 4784POPC   PO461128   2.946  15.596   5.537
 4784POPC   GL161129   2.895  15.819   5.882
 4784POPC   GL261130   2.565  15.753   5.871
 4784POPC   C1A61131   2.863  15.770   6.327
 4784POPC   D2A61132   2.937  15.800   6.767
 4784POPC   C3A61133   2.929  16.223   6.929
 4784POPC   C4A61134   3.085  16.372   7.339
 4784POPC   C1B61135   2.353  15.717   6.243
 4784POPC   C2B61136   2.437  15.938   6.639
 4784POPC   C3B61137   2.503  15.940   7.090
 4784POPC   C4B61138   2.511  15.893   7.550
 4785POPC   NC361139   8.684  15.213   5.122
 4785POPC   PO461140   9.254  15.206   5.485
 4785POPC   GL161141   9.051  15.003   5.854
 4785POPC   GL261142   9.103  15.300   6.024
 4785POPC   C1A61143   8.745  15.011   6.226
 4785POPC   D2A61144   8.467  15.256   6.494
 4785POPC   C3A61145   8.527  15.228   6.949
 4785POPC   C4A61146   8.428  15.531   7.255
 4785POPC   C1B61147   9.211  15.063   6.417
 4785POPC   C2B61148   8.984  14.985   6.812
 4785POPC   C3B61149   9.151  14.983   7.223
 4785POPC   C4B61150   9.359  14.967   7.625
 4786POPC   NC361151  37.451  38.719   5.460
 4786POPC   PO461152  37.908  38.274   5.323
 4786POPC   GL161153  37.756  38.284   5.732
 4786POPC   GL261154  37.756  38.625   5.858
 4786POPC   C1A61155  37.652  38.180   6.171
 4786POPC   D2A61156  37.846  38.313   6.549
 4786POPC   C3A61157  37.676  38.137   6.908
 4786POPC   C4A61158  37.915  38.186   7.244
 4786POPC   C1B61159  37.702  38.873   6.214
 4786POPC   C2B61160  37.599  38.757   6.618
 4786POPC   C3B61161  37.689  38.671   6.996
 4786POPC   C4B61162  37.429  38.923   7.257
 4787POPC   NC361163  23.549  42.740   5.200
 4787POPC   PO461164  23.417  42.125   5.485
 4787POPC   GL161165  23.491  42.126   5.912
 4787POPC   GL261166  23.836  42.202   5.910
 4787POPC   C1A61167  23.593  42.198   6.366
 4787POPC   D2A61168  23.936  42.090   6.672
 4787POPC   C3A61169  23.769  42.060   7.100
 4787POPC   C4A61170  23.580  42.370   7.374
 4787POPC   C1B61171  23.954  42.584   6.163
 4787POPC   C2B61172  23.902  42.755   6.544
 4787POPC   C3B61173  23.853  42.558   6.935
 4787POPC   C4B61174  24.061  42.458   7.294
 4788POPC   NC361175   8.352  37.512   5.213
 4788POPC   PO461176   8.508  38.177   5.385
 4788POPC   GL161177   8.428  37.924   5.741
 4788POPC   GL261178   8.095  37.805   5.680
 4788POPC   C1A61179   8.484  37.975   6.181
 4788POPC   D2A61180   8.335  37.693   6.479
 4788POPC   C3A61181   8.261  37.890   6.854
 4788POPC   C4A61182   8.344  37.726   7.264
 4788POPC   C1B61183   7.966  37.840   6.120
 4788POPC   C2B61184   7.808  37.767   6.573
 4788POPC   C3B61185   7.824  37.722   7.055
 4788POPC   C4B61186   7.819  37.833   7.495
 4789POPC   NC361187  28.407  19.991   5.454
 4789POPC   PO461188  28.228  19.320   5.348
 4789POPC   GL161189  28.201  19.623   5.822
 4789POPC   GL261190  28.397  19.956   5.930
 4789POPC   C1A61191  28.210  19.817   6.345
 4789POPC   D2A61192  28.541  19.773   6.700
 4789POPC   C3A61193  28.470  19.704   7.163
 4789POPC   C4A61194  28.210  19.524   7.496
 4789POPC   C1B61195  28.539  20.322   6.119
 4789POPC   C2B61196  28.440  20.312   6.534
 4789POPC   C3B61197  28.578  20.258   6.924
 4789POPC   C4B61198  28.376  20.186   7.265
 4790POPC   NC361199   0.700  15.641   5.488
 4790POPC   PO461200   0.223  15.139   5.449
 4790POPC   GL161201   0.459  15.249   5.792
 4790POPC   GL261202   0.287  15.586   5.838
 4790POPC   C1A61203   0.589  14.961   6.160
 4790POPC   D2A61204   0.385  14.753   6.540
 4790POPC   C3A61205   0.506  14.921   6.955
 4790POPC   C4A61206   0.657  14.963   7.358
 4790POPC   C1B61207   0.450  15.460   6.248
 4790POPC   C2B61208   0.617  15.249   6.597
 4790POPC   C3B61209   0.629  15.428   7.017
 4790POPC   C4B61210   0.482  15.604   7.397
 4791POPC   NC361211  30.493  43.723   5.055
 4791POPC   PO461212  30.659  44.274   5.465
 4791POPC   GL161213  30.756  44.017   5.799
 4791POPC   GL261214  30.909  43.701   5.695
 4791POPC   C1A61215  30.678  44.008   6.248
 4791POPC   D2A61216  30.578  44.194   6.645
 4791POPC   C3A61217  30.405  43.898   6.907
 4791POPC   C4A61218  30.574  43.783   7.270
 4791POPC   C1B61219  31.037  43.472   6.051
 4791POPC   C2B61220  31.043  43.671   6.443
 4791POPC   C3B61221  30.905  43.774   6.836
 4791POPC   C4B61222  31.051  43.517   7.187
 4792POPC   NC361223  30.666  10.043   5.461
 4792POPC   PO461224  30.974   9.519   5.627
 4792POPC   GL161225  30.824   9.802   5.883
 4792POPC   GL261226  30.470   9.733   5.852
 4792POPC   C1A61227  30.996   9.925   6.234
 4792POPC   D2A61228  31.068   9.649   6.551
 4792POPC   C3A61229  31.120   9.815   6.962
 4792POPC   C4A61230  30.809   9.771   7.314
 4792POPC   C1B61231  30.559   9.593   6.281
 4792POPC   C2B61232  30.589   9.649   6.717
 4792POPC   C3B61233  30.374   9.788   7.044
 4792POPC   C4B61234  30.269   9.868   7.485
 4793POPC   NC361235  38.737  39.772   5.513
 4793POPC   PO461236  38.387  40.274   5.476
 4793POPC   GL161237  38.491  40.103   5.871
 4793POPC   GL261238  38.371  39.768   5.886
 4793POPC   C1A61239  38.577  40.036   6.315
 4793POPC   D2A61240  38.390  40.276   6.675
 4793POPC   C3A61241  38.675  40.244   6.986
 4793POPC   C4A61242  38.735  39.866   7.190
 4793POPC   C1B61243  38.176  39.730   6.289
 4793POPC   C2B61244  38.266  39.746   6.753
 4793POPC   C3B61245  38.233  39.993   7.136
 4793POPC   C4B61246  38.027  40.138   7.513
 4794POPC   NC361247   8.909  32.347   5.482
 4794POPC   PO461248   9.374  32.761   5.647
 4794POPC   GL161249   9.181  32.446   5.946
 4794POPC   GL261250   8.988  32.130   5.934
 4794POPC   C1A61251   9.014  32.401   6.365
 4794POPC   D2A61252   8.750  32.368   6.709
 4794POPC   C3A61253   9.038  32.272   7.022
 4794POPC   C4A61254   9.155  32.505   7.397
 4794POPC   C1B61255   8.654  32.058   6.264
 4794POPC   C2B61256   8.633  31.837   6.641
 4794POPC   C3B61257   8.593  31.969   7.023
 4794POPC   C4B61258   8.805  31.986   7.405
 4795POPC   NC361259  26.314  19.044   5.314
 4795POPC   PO461260  25.679  19.247   5.358
 4795POPC   GL161261  25.855  19.214   5.740
 4795POPC   GL261262  26.187  19.272   5.757
 4795POPC   C1A61263  25.944  18.931   6.061
 4795POPC   D2A61264  25.818  18.910   6.458
 4795POPC   C3A61265  26.045  18.960   6.817
 4795POPC   C4A61266  26.151  18.737   7.187
 4795POPC   C1B61267  26.322  19.293   6.155
 4795POPC   C2B61268  26.345  19.383   6.583
 4795POPC   C3B61269  26.454  19.227   6.973
 4795POPC   C4B61270  26.334  19.450   7.331
 4796POPC   NC361271  43.014  31.397   5.176
 4796POPC   PO461272  43.411  31.797   5.402
 4796POPC   GL161273  43.221  31.537   5.750
 4796POPC   GL261274  43.507  31.534   5.931
 4796POPC   C1A61275  43.100  31.446   6.202
 4796POPC   D2A61276  43.036  31.234   6.588
 4796POPC   C3A61277  43.159  31.443   6.928
 4796POPC   C4A61278  42.891  31.633   7.188
 4796POPC   C1B61279  43.425  31.890   6.182
 4796POPC   C2B61280  43.316  31.859   6.615
 4796POPC   C3B61281  43.577  31.763   6.964
 4796POPC   C4B61282  43.629  31.652   7.377
 4797POPC   NC361283  20.435  42.462   5.225
 4797POPC   PO461284  20.657  41.894   5.480
 4797POPC   GL161285  20.703  42.341   5.698
 4797POPC   GL261286  20.417  42.261   5.811
 4797POPC   C1A61287  20.666  42.511   6.192
 4797POPC   D2A61288  20.961  42.419   6.551
 4797POPC   C3A61289  20.793  42.258   6.947
 4797POPC   C4A61290  20.736  42.404   7.330
 4797POPC   C1B61291  20.721  42.028   6.104
 4797POPC   C2B61292  20.682  41.985   6.524
 4797POPC   C3B61293  20.396  41.894   6.869
 4797POPC   C4B61294  20.458  41.979   7.282
 4798POPC   NC361295  11.633  19.188   5.226
 4798POPC   PO461296  11.031  19.035   5.446
 4798POPC   GL161297  11.327  19.184   5.768
 4798POPC   GL261298  11.569  19.481   5.659
 4798POPC   C1A61299  11.432  18.955   6.165
 4798POPC   D2A61300  11.505  18.836   6.597
 4798POPC   C3A61301  11.175  18.903   6.837
 4798POPC   C4A61302  11.185  18.921   7.242
 4798POPC   C1B61303  11.705  19.385   6.101
 4798POPC   C2B61304  11.516  19.355   6.527
 4798POPC   C3B61305  11.629  19.223   6.943
 4798POPC   C4B61306  11.466  19.361   7.347
 4799POPC   NC361307  35.172  37.530   5.402
 4799POPC   PO461308  35.654  37.970   5.445
 4799POPC   GL161309  35.392  37.749   5.842
 4799POPC   GL261310  35.114  37.492   5.891
 4799POPC   C1A61311  35.277  37.994   6.250
 4799POPC   D2A61312  35.071  37.938   6.671
 4799POPC   C3A61313  35.318  37.943   7.031
 4799POPC   C4A61314  35.430  37.851   7.457
 4799POPC   C1B61315  35.047  37.566   6.308
 4799POPC   C2B61316  35.226  37.405   6.656
 4799POPC   C3B61317  35.127  37.480   7.045
 4799POPC   C4B61318  34.999  37.586   7.388
 4800POPC   NC361319  36.774  43.048   5.589
 4800POPC   PO461320  36.131  43.277   5.447
 4800POPC   GL161321  36.318  43.167   5.831
 4800POPC   GL261322  36.537  43.428   5.864
 4800POPC   C1A61323  36.212  42.990   6.227
 4800POPC   D2A61324  35.939  43.059   6.575
 4800POPC   C3A61325  36.108  43.004   6.964
 4800POPC   C4A61326  35.986  42.793   7.250
 4800POPC   C1B61327  36.584  43.369   6.293
 4800POPC   C2B61328  36.471  43.170   6.653
 4800POPC   C3B61329  36.485  43.310   7.081
 4800POPC   C4B61330  36.739  43.624   7.238
 4801POPC   NC361331   2.928  19.666   5.176
 4801POPC   PO461332   2.633  20.170   5.409
 4801POPC   GL161333   2.826  19.843   5.673
 4801POPC   GL261334   2.594  19.584   5.730
 4801POPC   C1A61335   2.920  19.765   6.137
 4801POPC   D2A61336   2.740  19.976   6.519
 4801POPC   C3A61337   2.890  19.926   6.930
 4801POPC   C4A61338   2.740  20.131   7.322
 4801POPC   C1B61339   2.412  19.841   6.087
 4801POPC   C2B61340   2.279  19.759   6.516
 4801POPC   C3B61341   2.477  19.546   6.838
 4801POPC   C4B61342   2.613  19.629   7.253
 4802POPC   NC361343  33.111   3.471   5.609
 4802POPC   PO461344  32.769   3.988   5.445
 4802POPC   GL161345  32.802   3.788   5.885
 4802POPC   GL261346  32.731   3.412   5.927
 4802POPC   C1A61347  32.989   3.783   6.319
 4802POPC   D2A61348  33.039   3.494   6.676
 4802POPC   C3A61349  33.266   3.494   7.026
 4802POPC   C4A61350  32.919   3.629   7.264
 4802POPC   C1B61351  33.034   3.269   6.229
 4802POPC   C2B61352  32.987   2.998   6.557
 4802POPC   C3B61353  33.007   3.027   6.990
 4802POPC   C4B61354  32.675   3.132   7.267
 4803POPC   NC361355  40.693   4.399   5.523
 4803POPC   PO461356  41.329   4.469   5.285
 4803POPC   GL161357  41.133   4.488   5.737
 4803POPC   GL261358  41.097   4.155   5.845
 4803POPC   C1A61359  41.073   4.568   6.214
 4803POPC   D2A61360  40.916   4.359   6.609
 4803POPC   C3A61361  40.879   4.480   7.045
 4803POPC   C4A61362  41.056   4.358   7.437
 4803POPC   C1B61363  40.729   4.144   6.151
 4803POPC   C2B61364  40.640   3.941   6.562
 4803POPC   C3B61365  40.469   4.190   6.920
 4803POPC   C4B61366  40.590   4.140   7.341
 4804POPC   NC361367  40.527  42.077   5.441
 4804POPC   PO461368  40.563  42.711   5.531
 4804POPC   GL161369  40.640  42.360   5.856
 4804POPC   GL261370  40.912  42.129   5.775
 4804POPC   C1A61371  40.667  42.095   6.219
 4804POPC   D2A61372  40.697  42.297   6.594
 4804POPC   C3A61373  40.656  42.119   6.955
 4804POPC   C4A61374  40.736  42.333   7.375
 4804POPC   C1B61375  41.127  42.289   6.177
 4804POPC   C2B61376  41.227  42.258   6.598
 4804POPC   C3B61377  41.094  42.382   6.991
 4804POPC   C4B61378  41.164  42.107   7.360
 4805POPC   NC361379  24.444  11.505   5.660
 4805POPC   PO461380  24.251  11.008   5.240
 4805POPC   GL161381  24.381  10.950   5.769
 4805POPC   GL261382  24.330  11.194   6.038
 4805POPC   C1A61383  24.599  10.863   6.254
 4805POPC   D2A61384  24.459  11.057   6.682
 4805POPC   C3A61385  24.745  11.122   7.043
 4805POPC   C4A61386  25.037  11.065   7.407
 4805POPC   C1B61387  24.337  11.457   6.363
 4805POPC   C2B61388  24.547  11.619   6.724
 4805POPC   C3B61389  24.376  11.507   7.106
 4805POPC   C4B61390  24.142  11.125   7.156
 4806POPC   NC361391  11.879  22.123   5.334
 4806POPC   PO461392  12.446  22.355   5.699
 4806POPC   GL161393  12.170  22.140   5.944
 4806POPC   GL261394  12.013  21.860   5.773
 4806POPC   C1A61395  12.145  22.259   6.362
 4806POPC   D2A61396  11.899  22.356   6.689
 4806POPC   C3A61397  12.106  22.237   7.034
 4806POPC   C4A61398  12.083  22.373   7.454
 4806POPC   C1B61399  11.820  21.859   6.196
 4806POPC   C2B61400  12.013  21.822   6.601
 4806POPC   C3B61401  12.082  21.690   7.011
 4806POPC   C4B61402  12.031  21.634   7.435
 4807POPC   NC361403  36.664  44.828   5.434
 4807POPC   PO461404  36.985  44.287   5.475
 4807POPC   GL161405  36.962  44.579   5.822
 4807POPC   GL261406  37.227  44.849   5.838
 4807POPC   C1A61407  37.069  44.445   6.233
 4807POPC   D2A61408  37.162  44.340   6.646
 4807POPC   C3A61409  36.837  44.532   6.869
 4807POPC   C4A61410  36.834  44.515   7.314
 4807POPC   C1B61411  36.959  44.946   6.241
 4807POPC   C2B61412  36.903   0.135   6.679
 4807POPC   C3B61413  37.019  44.961   7.087
 4807POPC   C4B61414  37.326  44.953   7.426
 4808POPC   NC361415  17.101   1.763   5.528
 4808POPC   PO461416  16.580   1.959   5.240
 4808POPC   GL161417  16.663   1.972   5.736
 4808POPC   GL261418  16.332   2.022   5.845
 4808POPC   C1A61419  16.692   1.842   6.207
 4808POPC   D2A61420  16.477   1.842   6.642
 4808POPC   C3A61421  16.739   1.908   7.035
 4808POPC   C4A61422  16.678   1.828   7.495
 4808POPC   C1B61423  16.441   2.320   6.153
 4808POPC   C2B61424  16.283   2.359   6.564
 4808POPC   C3B61425  16.468   2.337   6.961
 4808POPC   C4B61426  16.505   2.274   7.374
 4809POPC   NC361427  40.427  12.386   5.523
 4809POPC   PO461428  40.995  12.848   5.572
 4809POPC   GL161429  40.744  12.589   5.874
 4809POPC   GL261430  40.421  12.730   5.898
 4809POPC   C1A61431  40.707  12.596   6.321
 4809POPC   D2A61432  41.016  12.809   6.589
 4809POPC   C3A61433  40.907  12.921   7.001
 4809POPC   C4A61434  40.592  12.760   7.257
 4809POPC   C1B61435  40.538  13.103   6.124
 4809POPC   C2B61436  40.639  13.165   6.555
 4809POPC   C3B61437  40.429  13.133   6.948
 4809POPC   C4B61438  40.447  13.344   7.341
 4810POPC   NC361439  19.668  10.004   5.294
 4810POPC   PO461440  20.093   9.439   5.284
 4810POPC   GL161441  20.103   9.660   5.730
 4810POPC   GL261442  19.758   9.819   5.769
 4810POPC   C1A61443  20.012   9.802   6.206
 4810POPC   D2A61444  19.738   9.692   6.581
 4810POPC   C3A61445  19.926   9.808   6.996
 4810POPC   C4A61446  19.699   9.665   7.345
 4810POPC   C1B61447  19.487   9.845   6.153
 4810POPC   C2B61448  19.418  10.112   6.532
 4810POPC   C3B61449  19.377   9.882   6.921
 4810POPC   C4B61450  19.399  10.054   7.317
 4811POPC   NC361451  25.074  12.268   5.517
 4811POPC   PO461452  25.644  11.832   5.411
 4811POPC   GL161453  25.327  11.823   5.722
 4811POPC   GL261454  25.393  12.143   5.906
 4811POPC   C1A61455  25.075  11.803   6.111
 4811POPC   D2A61456  25.186  12.034   6.486
 4811POPC   C3A61457  25.100  11.886   6.902
 4811POPC   C4A61458  25.451  11.920   7.183
 4811POPC   C1B61459  25.164  12.464   6.174
 4811POPC   C2B61460  25.237  12.629   6.574
 4811POPC   C3B61461  25.401  12.365   6.896
 4811POPC   C4B61462  25.120  12.292   7.215
 4812POPC   NC361463  20.000  13.237   5.567
 4812POPC   PO461464  19.729  13.861   5.476
 4812POPC   GL161465  19.777  13.643   5.820
 4812POPC   GL261466  19.522  13.397   5.796
 4812POPC   C1A61467  19.954  13.793   6.189
 4812POPC   D2A61468  19.768  14.012   6.527
 4812POPC   C3A61469  19.860  13.831   6.933
 4812POPC   C4A61470  19.986  13.486   7.213
 4812POPC   C1B61471  19.694  13.272   6.178
 4812POPC   C2B61472  19.733  13.497   6.565
 4812POPC   C3B61473  19.537  13.409   6.956
 4812POPC   C4B61474  19.539  13.234   7.346
 4813POPC   NC361475  37.111  36.290   5.368
 4813POPC   PO461476  36.650  36.381   5.779
 4813POPC   GL161477  37.098  36.319   5.906
 4813POPC   GL261478  37.149  35.961   5.795
 4813POPC   C1A61479  37.132  36.252   6.370
 4813POPC   D2A61480  36.732  36.145   6.619
 4813POPC   C3A61481  36.757  36.249   7.059
 4813POPC   C4A61482  37.141  36.195   7.244
 4813POPC   C1B61483  37.153  35.766   6.229
 4813POPC   C2B61484  37.104  35.800   6.708
 4813POPC   C3B61485  37.324  35.732   7.092
 4813POPC   C4B61486  37.258  35.769   7.562
 4814POPC   NC361487  11.568  44.302   5.597
 4814POPC   PO461488  11.117  43.806   5.392
 4814POPC   GL161489  11.214  43.875   5.835
 4814POPC   GL261490  11.494  43.649   5.793
 4814POPC   C1A61491  11.165  44.050   6.283
 4814POPC   D2A61492  11.217  43.858   6.692
 4814POPC   C3A61493  11.154  44.097   7.050
 4814POPC   C4A61494  11.258  44.142   7.485
 4814POPC   C1B61495  11.587  43.766   6.214
 4814POPC   C2B61496  11.804  43.762   6.581
 4814POPC   C3B61497  11.732  43.573   6.927
 4814POPC   C4B61498  11.488  43.738   7.264
 4815POPC   NC361499  37.278  19.077   5.359
 4815POPC   PO461500  36.678  19.234   5.397
 4815POPC   GL161501  36.735  18.847   5.692
 4815POPC   GL261502  37.079  18.807   5.778
 4815POPC   C1A61503  36.694  18.686   6.149
 4815POPC   D2A61504  36.468  18.827   6.546
 4815POPC   C3A61505  36.702  18.724   6.898
 4815POPC   C4A61506  36.977  19.009   7.116
 4815POPC   C1B61507  36.979  19.113   6.115
 4815POPC   C2B61508  37.034  19.091   6.577
 4815POPC   C3B61509  37.167  19.425   6.876
 4815POPC   C4B61510  37.352  19.355   7.284
 4816POPC   NC361511  39.382   0.683   5.490
 4816POPC   PO461512  38.803   0.302   5.460
 4816POPC   GL161513  39.050   0.472   5.828
 4816POPC   GL261514  38.745   0.411   5.955
 4816POPC   C1A61515  39.364   0.621   6.211
 4816POPC   D2A61516  39.627   0.626   6.658
 4816POPC   C3A61517  39.377   0.732   7.025
 4816POPC   C4A61518  39.365   0.598   7.470
 4816POPC   C1B61519  38.896   0.461   6.389
 4816POPC   C2B61520  39.269   0.286   6.633
 4816POPC   C3B61521  39.344   0.226   7.086
 4816POPC   C4B61522  39.002   0.123   7.382
 4817POPC   NC361523  33.490  38.270   5.507
 4817POPC   PO461524  34.096  38.583   5.452
 4817POPC   GL161525  33.889  38.378   5.808
 4817POPC   GL261526  33.579  38.589   5.912
 4817POPC   C1A61527  33.940  38.393   6.251
 4817POPC   D2A61528  33.796  38.625   6.618
 4817POPC   C3A61529  33.977  38.397   6.981
 4817POPC   C4A61530  33.973  38.693   7.311
 4817POPC   C1B61531  33.426  38.390   6.295
 4817POPC   C2B61532  33.476  38.255   6.709
 4817POPC   C3B61533  33.499  38.527   7.074
 4817POPC   C4B61534  33.473  38.171   7.325
 4818POPC   NC361535   3.647  43.312   5.167
 4818POPC   PO461536   3.829  42.823   5.574
 4818POPC   GL161537   3.556  43.014   5.895
 4818POPC   GL261538   3.398  43.315   5.955
 4818POPC   C1A61539   3.756  43.285   6.298
 4818POPC   D2A61540   3.826  43.055   6.677
 4818POPC   C3A61541   3.713  43.235   7.032
 4818POPC   C4A61542   3.697  43.190   7.464
 4818POPC   C1B61543   3.354  42.984   6.347
 4818POPC   C2B61544   3.314  43.031   6.792
 4818POPC   C3B61545   3.453  42.811   7.164
 4818POPC   C4B61546   3.172  42.788   7.491
 4819POPC   NC361547  18.566  25.520   5.424
 4819POPC   PO461548  18.394  24.958   5.057
 4819POPC   GL161549  18.326  25.082   5.588
 4819POPC   GL261550  18.174  25.368   5.766
 4819POPC   C1A61551  18.471  25.075   6.082
 4819POPC   D2A61552  18.657  24.993   6.556
 4819POPC   C3A61553  18.511  25.224   6.959
 4819POPC   C4A61554  18.235  25.454   7.253
 4819POPC   C1B61555  18.133  25.495   6.194
 4819POPC   C2B61556  18.145  25.396   6.636
 4819POPC   C3B61557  17.824  25.303   6.928
 4819POPC   C4B61558  17.939  25.044   7.269
 4820POPC   NC361559  36.942  37.431   5.180
 4820POPC   PO461560  37.035  36.766   5.357
 4820POPC   GL161561  37.054  36.903   5.784
 4820POPC   GL261562  37.078  37.258   5.737
 4820POPC   C1A61563  37.088  36.773   6.232
 4820POPC   D2A61564  36.872  36.629   6.614
 4820POPC   C3A61565  37.057  36.669   7.001
 4820POPC   C4A61566  36.791  36.845   7.267
 4820POPC   C1B61567  36.849  37.229   6.132
 4820POPC   C2B61568  36.768  37.120   6.558
 4820POPC   C3B61569  36.948  37.186   6.941
 4820POPC   C4B61570  36.852  37.378   7.335
 4821POPC   NC361571   7.999  34.317   5.344
 4821POPC   PO461572   8.350  34.912   5.318
 4821POPC   GL161573   8.183  34.707   5.711
 4821POPC   GL261574   8.227  35.025   5.834
 4821POPC   C1A61575   8.242  34.531   6.123
 4821POPC   D2A61576   8.201  34.250   6.451
 4821POPC   C3A61577   8.241  34.411   6.872
 4821POPC   C4A61578   7.905  34.345   7.140
 4821POPC   C1B61579   8.396  34.999   6.224
 4821POPC   C2B61580   8.423  34.794   6.577
 4821POPC   C3B61581   8.369  34.919   6.977
 4821POPC   C4B61582   8.276  34.706   7.303
 4822POPC   NC361583  38.911   2.250   5.497
 4822POPC   PO461584  39.327   1.805   5.307
 4822POPC   GL161585  39.119   1.852   5.719
 4822POPC   GL261586  39.364   2.072   5.867
 4822POPC   C1A61587  39.023   1.739   6.140
 4822POPC   D2A61588  39.227   1.950   6.500
 4822POPC   C3A61589  39.123   1.766   6.893
 4822POPC   C4A61590  39.025   1.942   7.280
 4822POPC   C1B61591  39.578   2.288   6.221
 4822POPC   C2B61592  39.581   2.400   6.679
 4822POPC   C3B61593  39.461   2.123   7.010
 4822POPC   C4B61594  39.501   2.018   7.448
 4823POPC   NC361595  42.671  10.109   5.651
 4823POPC   PO461596  42.304   9.622   5.349
 4823POPC   GL161597  42.298   9.554   5.810
 4823POPC   GL261598  42.253   9.905   5.843
 4823POPC   C1A61599  42.462   9.647   6.269
 4823POPC   D2A61600  42.560   9.847   6.699
 4823POPC   C3A61601  42.439   9.663   7.133
 4823POPC   C4A61602  42.411   9.606   7.608
 4823POPC   C1B61603  42.178  10.075   6.236
 4823POPC   C2B61604  42.195  10.220   6.647
 4823POPC   C3B61605  42.230  10.133   7.057
 4823POPC   C4B61606  42.402  10.082   7.445
 4824POPC   NC361607  33.134  30.546   5.522
 4824POPC   PO461608  32.551  30.955   5.406
 4824POPC   GL161609  32.819  30.860   5.821
 4824POPC   GL261610  32.785  30.544   6.077
 4824POPC   C1A61611  33.187  30.845   6.133
 4824POPC   D2A61612  33.254  30.926   6.587
 4824POPC   C3A61613  32.906  30.804   6.865
 4824POPC   C4A61614  32.963  30.621   7.262
 4824POPC   C1B61615  33.195  30.310   6.145
 4824POPC   C2B61616  33.403  30.254   6.535
 4824POPC   C3B61617  33.302  30.453   6.892
 4824POPC   C4B61618  33.448  30.430   7.287
 4825POPC   NC361619   0.722  33.004   5.385
 4825POPC   PO461620   0.161  33.355   5.605
 4825POPC   GL161621   0.480  33.244   5.875
 4825POPC   GL261622   0.544  32.923   5.857
 4825POPC   C1A61623   0.615  33.243   6.309
 4825POPC   D2A61624   0.718  33.236   6.754
 4825POPC   C3A61625   0.392  33.230   7.056
 4825POPC   C4A61626   0.442  33.130   7.480
 4825POPC   C1B61627   0.335  32.718   6.171
 4825POPC   C2B61628   0.352  32.898   6.592
 4825POPC   C3B61629   0.363  32.729   6.988
 4825POPC   C4B61630   0.044  32.813   7.323
 4826POPC   NC361631  25.057  25.553   5.391
 4826POPC   PO461632  25.583  25.999   5.367
 4826POPC   GL161633  25.470  26.152   5.781
 4826POPC   GL261634  25.132  26.106   5.805
 4826POPC   C1A61635  25.440  25.961   6.201
 4826POPC   D2A61636  25.179  26.032   6.555
 4826POPC   C3A61637  25.329  25.938   6.964
 4826POPC   C4A61638  25.116  25.651   7.239
 4826POPC   C1B61639  24.908  26.308   6.137
 4826POPC   C2B61640  24.810  26.392   6.537
 4826POPC   C3B61641  25.005  26.381   6.929
 4826POPC   C4B61642  24.999  26.142   7.316
 4827POPC   NC361643   7.150  16.844   5.365
 4827POPC   PO461644   7.778  16.651   5.222
 4827POPC   GL161645   7.534  16.599   5.650
 4827POPC   GL261646   7.622  16.837   5.911
 4827POPC   C1A61647   7.490  16.393   6.099
 4827POPC   D2A61648   7.718  16.392   6.528
 4827POPC   C3A61649   7.540  16.540   6.945
 4827POPC   C4A61650   7.171  16.506   7.212
 4827POPC   C1B61651   7.476  16.978   6.265
 4827POPC   C2B61652   7.545  16.990   6.675
 4827POPC   C3B61653   7.216  16.954   6.950
 4827POPC   C4B61654   7.412  16.945   7.315
 4828POPC   NC361655  38.632  23.898   5.494
 4828POPC   PO461656  38.385  23.313   5.298
 4828POPC   GL161657  38.316  23.590   5.749
 4828POPC   GL261658  38.652  23.627   5.911
 4828POPC   C1A61659  38.237  23.766   6.213
 4828POPC   D2A61660  38.159  23.643   6.672
 4828POPC   C3A61661  38.104  23.989   7.012
 4828POPC   C4A61662  38.180  23.937   7.501
 4828POPC   C1B61663  38.727  23.599   6.332
 4828POPC   C2B61664  38.673  23.534   6.740
 4828POPC   C3B61665  38.843  23.740   7.070
 4828POPC   C4B61666  38.580  24.090   7.223
 4829POPC   NC361667   1.331   7.545   5.217
 4829POPC   PO461668   0.683   7.372   5.296
 4829POPC   GL161669   1.051   7.414   5.658
 4829POPC   GL261670   0.949   7.282   5.968
 4829POPC   C1A61671   1.337   7.594   6.042
 4829POPC   D2A61672   1.385   7.727   6.504
 4829POPC   C3A61673   1.489   7.582   6.932
 4829POPC   C4A61674   1.210   7.562   7.276
 4829POPC   C1B61675   1.128   7.240   6.362
 4829POPC   C2B61676   1.175   7.221   6.767
 4829POPC   C3B61677   0.845   7.300   7.035
 4829POPC   C4B61678   0.870   7.206   7.439
 4830POPC   NC361679  42.816  10.779   5.403
 4830POPC   PO461680  43.144  10.163   5.391
 4830POPC   GL161681  43.154  10.362   5.768
 4830POPC   GL261682  43.171  10.730   5.774
 4830POPC   C1A61683  43.158  10.235   6.190
 4830POPC   D2A61684  43.417  10.262   6.530
 4830POPC   C3A61685  43.203  10.365   6.891
 4830POPC   C4A61686  43.210  10.141   7.254
 4830POPC   C1B61687  42.962  10.890   6.140
 4830POPC   C2B61688  43.035  10.761   6.554
 4830POPC   C3B61689  42.867  10.792   6.944
 4830POPC   C4B61690  43.070  10.676   7.270
 4831POPC   NC361691  41.007   3.571   5.336
 4831POPC   PO461692  40.480   3.974   5.471
 4831POPC   GL161693  40.790   3.736   5.790
 4831POPC   GL261694  40.789   3.346   5.758
 4831POPC   C1A61695  41.063   3.776   6.205
 4831POPC   D2A61696  41.204   3.918   6.633
 4831POPC   C3A61697  40.930   3.924   7.002
 4831POPC   C4A61698  40.846   3.583   7.308
 4831POPC   C1B61699  40.656   3.439   6.190
 4831POPC   C2B61700  40.850   3.449   6.586
 4831POPC   C3B61701  40.782   3.192   6.962
 4831POPC   C4B61702  40.385   3.210   7.208
 4832POPC   NC361703  33.310  16.157   5.538
 4832POPC   PO461704  32.890  15.675   5.531
 4832POPC   GL161705  33.003  15.919   5.877
 4832POPC   GL261706  33.293  15.761   5.950
 4832POPC   C1A61707  33.080  16.158   6.249
 4832POPC   D2A61708  32.934  16.017   6.644
 4832POPC   C3A61709  33.103  16.238   6.987
 4832POPC   C4A61710  33.016  16.212   7.386
 4832POPC   C1B61711  33.185  15.598   6.370
 4832POPC   C2B61712  33.025  15.520   6.782
 4832POPC   C3B61713  32.992  15.745   7.148
 4832POPC   C4B61714  33.145  15.751   7.600
 4833POPC   NC361715  33.381   8.664   5.541
 4833POPC   PO461716  33.002   9.121   5.227
 4833POPC   GL161717  33.064   9.191   5.708
 4833POPC   GL261718  33.184   8.937   5.934
 4833POPC   C1A61719  32.945   9.305   6.166
 4833POPC   D2A61720  33.029   9.059   6.580
 4833POPC   C3A61721  32.852   9.220   6.934
 4833POPC   C4A61722  33.026   9.353   7.284
 4833POPC   C1B61723  33.437   9.141   6.261
 4833POPC   C2B61724  33.571   9.091   6.677
 4833POPC   C3B61725  33.343   9.023   7.071
 4833POPC   C4B61726  33.531   9.280   7.437
 4834POPC   NC361727   4.701   9.503   5.530
 4834POPC   PO461728   5.078   9.975   5.412
 4834POPC   GL161729   5.162   9.695   5.794
 4834POPC   GL261730   5.505   9.579   5.785
 4834POPC   C1A61731   5.036   9.575   6.247
 4834POPC   D2A61732   4.922   9.848   6.668
 4834POPC   C3A61733   4.872   9.718   7.127
 4834POPC   C4A61734   4.592   9.648   7.500
 4834POPC   C1B61735   5.541   9.393   6.193
 4834POPC   C2B61736   5.396   9.527   6.610
 4834POPC   C3B61737   5.342   9.764   6.970
 4834POPC   C4B61738   5.471   9.613   7.333
 4835POPC   NC361739  28.014   7.971   5.641
 4835POPC   PO461740  28.656   7.944   5.270
 4835POPC   GL161741  28.548   8.127   5.743
 4835POPC   GL261742  28.231   8.355   5.874
 4835POPC   C1A61743  28.523   8.104   6.225
 4835POPC   D2A61744  28.201   7.950   6.530
 4835POPC   C3A61745  28.252   8.019   6.966
 4835POPC   C4A61746  28.644   8.097   7.173
 4835POPC   C1B61747  28.147   8.480   6.273
 4835POPC   C2B61748  28.479   8.537   6.556
 4835POPC   C3B61749  28.409   8.520   6.977
 4835POPC   C4B61750  27.992   8.417   7.175
 4836POPC   NC361751  26.690  40.091   5.470
 4836POPC   PO461752  27.252  39.717   5.521
 4836POPC   GL161753  26.895  39.855   5.877
 4836POPC   GL261754  26.797  40.208   5.954
 4836POPC   C1A61755  26.606  39.825   6.217
 4836POPC   D2A61756  26.641  40.065   6.578
 4836POPC   C3A61757  26.784  39.814   6.968
 4836POPC   C4A61758  26.820  39.993   7.401
 4836POPC   C1B61759  27.082  40.318   6.264
 4836POPC   C2B61760  27.114  40.185   6.697
 4836POPC   C3B61761  27.173  40.174   7.111
 4836POPC   C4B61762  27.440  40.438   7.324
 4837POPC   NC361763  21.913  29.900   5.480
 4837POPC   PO461764  22.568  30.113   5.472
 4837POPC   GL161765  22.448  29.887   5.859
 4837POPC   GL261766  22.082  29.834   5.949
 4837POPC   C1A61767  22.436  30.029   6.304
 4837POPC   D2A61768  22.133  30.078   6.652
 4837POPC   C3A61769  22.303  30.158   7.077
 4837POPC   C4A61770  22.266  30.180   7.534
 4837POPC   C1B61771  22.169  29.587   6.307
 4837POPC   C2B61772  22.259  29.441   6.710
 4837POPC   C3B61773  21.981  29.484   7.052
 4837POPC   C4B61774  21.996  29.805   7.331
 4838POPC   NC361775  27.923  17.184   5.379
 4838POPC   PO461776  28.294  17.759   5.409
 4838POPC   GL161777  28.160  17.504   5.784
 4838POPC   GL261778  28.248  17.145   5.802
 4838POPC   C1A61779  28.395  17.472   6.181
 4838POPC   D2A61780  28.662  17.704   6.479
 4838POPC   C3A61781  28.526  17.669   6.889
 4838POPC   C4A61782  28.553  17.486   7.270
 4838POPC   C1B61783  28.032  17.096   6.214
 4838POPC   C2B61784  27.947  17.362   6.589
 4838POPC   C3B61785  28.087  17.353   7.024
 4838POPC   C4B61786  28.223  17.100   7.360
 4839POPC   NC361787  13.737   7.023   5.401
 4839POPC   PO461788  13.823   6.242   5.444
 4839POPC   GL161789  13.804   6.421   5.856
 4839POPC   GL261790  13.626   6.720   5.815
 4839POPC   C1A61791  13.713   6.334   6.291
 4839POPC   D2A61792  13.539   6.247   6.708
 4839POPC   C3A61793  13.568   6.481   7.112
 4839POPC   C4A61794  13.906   6.492   7.353
 4839POPC   C1B61795  13.634   6.855   6.254
 4839POPC   C2B61796  13.811   6.714   6.646
 4839POPC   C3B61797  13.849   6.888   7.029
 4839POPC   C4B61798  13.481   6.968   7.297
 4840POPC   NC361799  34.748   7.971   5.653
 4840POPC   PO461800  35.175   8.145   5.200
 4840POPC   GL161801  35.204   8.253   5.737
 4840POPC   GL261802  34.925   8.297   5.980
 4840POPC   C1A61803  35.424   8.314   6.216
 4840POPC   D2A61804  35.431   8.335   6.722
 4840POPC   C3A61805  35.694   8.325   7.141
 4840POPC   C4A61806  35.642   8.480   7.603
 4840POPC   C1B61807  35.006   8.049   6.352
 4840POPC   C2B61808  34.933   8.258   6.733
 4840POPC   C3B61809  35.127   8.351   7.145
 4840POPC   C4B61810  34.955   8.144   7.526
 4841POPC   NC361811  26.402   0.118   5.275
 4841POPC   PO461812  25.986  44.539   5.341
 4841POPC   GL161813  26.183  44.567   5.747
 4841POPC   GL261814  26.356  44.905   5.740
 4841POPC   C1A61815  26.247  44.414   6.190
 4841POPC   D2A61816  26.322  44.622   6.610
 4841POPC   C3A61817  26.013  44.805   6.878
 4841POPC   C4A61818  25.773  44.661   7.239
 4841POPC   C1B61819  26.506  44.864   6.165
 4841POPC   C2B61820  26.468   0.112   6.532
 4841POPC   C3B61821  26.569  44.995   6.920
 4841POPC   C4B61822  26.352  44.934   7.258
 4842POPC   NC361823  23.516  42.667   5.678
 4842POPC   PO461824  23.695  43.182   5.168
 4842POPC   GL161825  23.776  43.426   5.688
 4842POPC   GL261826  23.847  43.077   5.871
 4842POPC   C1A61827  23.667  43.451   6.181
 4842POPC   D2A61828  23.504  43.151   6.510
 4842POPC   C3A61829  23.580  43.216   6.956
 4842POPC   C4A61830  23.552  42.874   7.224
 4842POPC   C1B61831  24.115  43.182   6.206
 4842POPC   C2B61832  23.999  43.278   6.613
 4842POPC   C3B61833  24.048  43.042   6.940
 4842POPC   C4B61834  24.078  42.961   7.301
 4843POPC   NC361835  20.234  25.373   5.230
 4843POPC   PO461836  20.904  25.097   5.350
 4843POPC   GL161837  20.635  25.250   5.680
 4843POPC   GL261838  20.692  24.970   5.882
 4843POPC   C1A61839  20.423  25.324   6.135
 4843POPC   D2A61840  20.381  25.445   6.577
 4843POPC   C3A61841  20.354  25.144   6.943
 4843POPC   C4A61842  20.407  25.367   7.331
 4843POPC   C1B61843  20.932  25.369   6.077
 4843POPC   C2B61844  21.007  25.502   6.520
 4843POPC   C3B61845  20.789  25.480   6.931
 4843POPC   C4B61846  20.814  25.071   7.145
 4844POPC   NC361847  32.124  39.607   5.417
 4844POPC   PO461848  32.596  39.064   5.494
 4844POPC   GL161849  32.332  39.221   5.803
 4844POPC   GL261850  32.478  39.527   5.826
 4844POPC   C1A61851  32.135  39.175   6.208
 4844POPC   D2A61852  32.195  39.355   6.624
 4844POPC   C3A61853  32.379  39.110   6.921
 4844POPC   C4A61854  32.171  38.989   7.266
 4844POPC   C1B61855  32.546  39.507   6.282
 4844POPC   C2B61856  32.557  39.715   6.736
 4844POPC   C3B61857  32.525  39.787   7.223
 4844POPC   C4B61858  32.454  39.700   7.731
 4845POPC   NC361859  42.703  17.779   5.362
 4845POPC   PO461860  42.101  17.499   5.457
 4845POPC   GL161861  42.432  17.513   5.789
 4845POPC   GL261862  42.539  17.177   5.932
 4845POPC   C1A61863  42.444  17.645   6.245
 4845POPC   D2A61864  42.642  17.600   6.690
 4845POPC   C3A61865  42.355  17.803   6.998
 4845POPC   C4A61866  41.955  17.625   7.148
 4845POPC   C1B61867  42.100  17.251   6.080
 4845POPC   C2B61868  41.944  17.512   6.422
 4845POPC   C3B61869  42.174  17.363   6.784
 4845POPC   C4B61870  42.162  17.133   7.185
 4846POPC   NC361871   6.434  37.071   5.551
 4846POPC   PO461872   5.731  37.030   5.381
 4846POPC   GL161873   5.962  36.881   5.756
 4846POPC   GL261874   6.102  37.179   5.929
 4846POPC   C1A61875   5.805  36.861   6.215
 4846POPC   D2A61876   5.685  37.137   6.585
 4846POPC   C3A61877   5.802  36.949   6.998
 4846POPC   C4A61878   5.843  36.545   7.153
 4846POPC   C1B61879   6.270  37.402   6.305
 4846POPC   C2B61880   6.194  37.221   6.720
 4846POPC   C3B61881   6.181  37.263   7.149
 4846POPC   C4B61882   6.475  37.090   7.427
 4847POPC   NC361883   9.690  15.397   5.472
 4847POPC   PO461884   9.730  14.750   5.481
 4847POPC   GL161885   9.903  15.053   5.811
 4847POPC   GL261886   9.558  15.056   5.886
 4847POPC   C1A61887  10.092  15.412   6.120
 4847POPC   D2A61888  10.118  15.534   6.593
 4847POPC   C3A61889  10.004  15.149   6.862
 4847POPC   C4A61890   9.812  14.970   7.222
 4847POPC   C1B61891   9.581  15.423   6.128
 4847POPC   C2B61892   9.663  15.298   6.519
 4847POPC   C3B61893   9.441  15.246   6.884
 4847POPC   C4B61894   9.510  15.359   7.300
 4848POPC   NC361895  22.338  35.810   5.504
 4848POPC   PO461896  21.912  35.273   5.308
 4848POPC   GL161897  22.072  35.376   5.729
 4848POPC   GL261898  22.418  35.262   5.742
 4848POPC   C1A61899  22.125  35.541   6.168
 4848POPC   D2A61900  22.446  35.533   6.525
 4848POPC   C3A61901  22.276  35.498   6.955
 4848POPC   C4A61902  22.145  35.356   7.348
 4848POPC   C1B61903  22.347  35.080   6.193
 4848POPC   C2B61904  22.266  35.060   6.656
 4848POPC   C3B61905  22.427  35.010   7.085
 4848POPC   C4B61906  22.419  34.901   7.544
 4849POPC   NC361907  24.982  14.283   5.368
 4849POPC   PO461908  25.451  14.696   5.473
 4849POPC   GL161909  25.500  14.311   5.786
 4849POPC   GL261910  25.183  14.396   5.937
 4849POPC   C1A61911  25.479  14.138   6.273
 4849POPC   D2A61912  25.301  14.456   6.611
 4849POPC   C3A61913  25.196  14.355   7.044
 4849POPC   C4A61914  25.252  13.929   7.013
 4849POPC   C1B61915  25.536  14.633   6.184
 4849POPC   C2B61916  25.813  14.509   6.566
 4849POPC   C3B61917  25.683  14.513   7.004
 4849POPC   C4B61918  25.414  14.833   7.213
 4850POPC   NC361919  42.689  21.590   5.498
 4850POPC   PO461920  42.118  21.135   5.521
 4850POPC   GL161921  42.455  21.273   5.802
 4850POPC   GL261922  42.371  21.637   5.918
 4850POPC   C1A61923  42.700  21.387   6.173
 4850POPC   D2A61924  42.490  21.486   6.529
 4850POPC   C3A61925  42.456  21.308   6.924
 4850POPC   C4A61926  42.198  21.087   7.216
 4850POPC   C1B61927  42.020  21.605   6.219
 4850POPC   C2B61928  41.960  21.479   6.659
 4850POPC   C3B61929  42.079  21.657   7.042
 4850POPC   C4B61930  42.271  21.662   7.416
 4851POPC   NC361931   9.653  41.036   5.342
 4851POPC   PO461932   9.985  40.515   5.511
 4851POPC   GL161933   9.729  40.714   5.857
 4851POPC   GL261934   9.541  41.023   5.845
 4851POPC   C1A61935   9.666  40.786   6.321
 4851POPC   D2A61936   9.711  40.551   6.689
 4851POPC   C3A61937   9.797  40.822   7.031
 4851POPC   C4A61938   9.937  40.733   7.461
 4851POPC   C1B61939   9.516  41.280   6.236
 4851POPC   C2B61940   9.476  41.171   6.678
 4851POPC   C3B61941   9.428  41.183   7.100
 4851POPC   C4B61942   9.444  40.857   7.395
 4852POPC   NC361943  44.248   7.292   5.487
 4852POPC   PO461944  44.972   7.507   5.412
 4852POPC   GL161945  44.889   7.511   5.861
 4852POPC   GL261946  44.563   7.499   5.862
 4852POPC   C1A61947  44.860   7.325   6.284
 4852POPC   D2A61948  44.645   7.117   6.679
 4852POPC   C3A61949  44.667   7.340   7.095
 4852POPC   C4A61950  44.865   7.586   7.396
 4852POPC   C1B61951  44.371   7.485   6.279
 4852POPC   C2B61952  44.468   7.626   6.690
 4852POPC   C3B61953  44.201   7.554   7.036
 4852POPC   C4B61954  44.168   7.186   7.302
 4853POPC   NC361955  42.441   5.427   5.302
 4853POPC   PO461956  42.656   4.784   5.256
 4853POPC   GL161957  42.475   5.003   5.612
 4853POPC   GL261958  42.685   5.293   5.717
 4853POPC   C1A61959  42.430   5.006   6.066
 4853POPC   D2A61960  42.382   5.179   6.487
 4853POPC   C3A61961  42.399   4.885   6.851
 4853POPC   C4A61962  42.230   4.945   7.239
 4853POPC   C1B61963  42.752   5.405   6.130
 4853POPC   C2B61964  42.858   5.430   6.550
 4853POPC   C3B61965  42.689   5.321   6.949
 4853POPC   C4B61966  42.680   5.112   7.343
 4854POPC   NC361967  44.894  10.512   5.353
 4854POPC   PO461968  44.341  10.480   5.710
 4854POPC   GL161969  44.726  10.369   5.843
 4854POPC   GL261970  44.922  10.706   5.836
 4854POPC   C1A61971  44.691  10.311   6.298
 4854POPC   D2A61972  44.682  10.610   6.638
 4854POPC   C3A61973  44.637  10.456   7.054
 4854POPC   C4A61974  44.828  10.677   7.344
 4854POPC   C1B61975  44.626  10.895   6.157
 4854POPC   C2B61976  44.456  11.074   6.560
 4854POPC   C3B61977  44.505  10.944   7.007
 4854POPC   C4B61978  44.216  10.904   7.348
 4855POPC   NC361979   4.655  43.852   5.490
 4855POPC   PO461980   3.947  43.812   5.495
 4855POPC   GL161981   4.255  43.630   5.835
 4855POPC   GL261982   4.654  43.506   5.844
 4855POPC   C1A61983   4.175  43.771   6.272
 4855POPC   D2A61984   4.368  44.100   6.559
 4855POPC   C3A61985   4.436  44.042   7.002
 4855POPC   C4A61986   4.143  44.011   7.373
 4855POPC   C1B61987   4.675  43.740   6.224
 4855POPC   C2B61988   4.524  43.611   6.636
 4855POPC   C3B61989   4.609  43.495   7.037
 4855POPC   C4B61990   4.558  43.732   7.385
 4856POPC   NC361991  43.513  12.959   5.538
 4856POPC   PO461992  44.098  12.672   5.346
 4856POPC   GL161993  43.958  12.796   5.744
 4856POPC   GL261994  43.992  13.167   5.683
 4856POPC   C1A61995  43.786  12.696   6.150
 4856POPC   D2A61996  43.908  12.521   6.544
 4856POPC   C3A61997  43.912  12.781   6.900
 4856POPC   C4A61998  44.115  12.776   7.279
 4856POPC   C1B61999  43.854  13.264   6.103
 4856POPC   C2B62000  43.917  13.117   6.511
 4856POPC   C3B62001  44.026  13.278   6.920
 4856POPC   C4B62002  43.834  13.226   7.327
 4857POPC   NC362003  14.495  24.779   5.263
 4857POPC   PO462004  14.286  24.135   5.406
 4857POPC   GL162005  14.327  24.328   5.793
 4857POPC   GL262006  14.658  24.339   5.850
 4857POPC   C1A62007  14.349  24.255   6.258
 4857POPC   D2A62008  14.443  24.226   6.703
 4857POPC   C3A62009  14.535  24.520   7.062
 4857POPC   C4A62010  14.391  24.459   7.503
 4857POPC   C1B62011  14.626  24.700   6.150
 4857POPC   C2B62012  14.613  24.896   6.600
 4857POPC   C3B62013  14.749  25.003   7.025
 4857POPC   C4B62014  14.771  24.833   7.430
 4858POPC   NC362015  22.971  41.963   5.448
 4858POPC   PO462016  23.090  42.631   5.380
 4858POPC   GL162017  23.075  42.421   5.783
 4858POPC   GL262018  22.793  42.244   5.906
 4858POPC   C1A62019  23.077  42.571   6.214
 4858POPC   D2A62020  22.987  42.394   6.615
 4858POPC   C3A62021  23.294  42.467   6.936
 4858POPC   C4A62022  23.111  42.584   7.323
 4858POPC   C1B62023  23.085  42.056   6.215
 4858POPC   C2B62024  23.185  41.928   6.639
 4858POPC   C3B62025  23.113  42.005   7.071
 4858POPC   C4B62026  22.928  41.782   7.415
 4859POPC   NC362027  20.886  43.231   5.451
 4859POPC   PO462028  21.487  43.384   5.275
 4859POPC   GL162029  21.417  43.234   5.737
 4859POPC   GL262030  21.184  42.967   5.770
 4859POPC   C1A62031  21.327  43.247   6.227
 4859POPC   D2A62032  21.250  43.254   6.693
 4859POPC   C3A62033  21.280  43.192   7.150
 4859POPC   C4A62034  21.373  43.156   7.621
 4859POPC   C1B62035  21.056  42.813   6.128
 4859POPC   C2B62036  20.917  42.919   6.518
 4859POPC   C3B62037  21.003  42.819   6.929
 4859POPC   C4B62038  21.037  42.819   7.393
 4860POPC   NC362039   0.108  21.284   5.537
 4860POPC   PO462040  44.520  21.553   5.328
 4860POPC   GL162041  44.692  21.519   5.787
 4860POPC   GL262042  44.725  21.169   5.878
 4860POPC   C1A62043  44.791  21.580   6.264
 4860POPC   D2A62044  44.675  21.601   6.725
 4860POPC   C3A62045  44.736  21.344   7.119
 4860POPC   C4A62046  44.530  21.557   7.498
 4860POPC   C1B62047  44.407  21.239   6.200
 4860POPC   C2B62048  44.359  21.182   6.632
 4860POPC   C3B62049  44.255  21.403   7.003
 4860POPC   C4B62050  44.100  21.726   7.254
 4861POPC   NC362051   5.786  29.108   5.481
 4861POPC   PO462052   6.329  29.344   5.679
 4861POPC   GL162053   6.099  29.054   5.910
 4861POPC   GL262054   5.726  28.956   5.966
 4861POPC   C1A62055   6.038  29.143   6.346
 4861POPC   D2A62056   5.732  28.969   6.588
 4861POPC   C3A62057   5.784  28.771   6.971
 4861POPC   C4A62058   5.953  28.848   7.376
 4861POPC   C1B62059   5.552  29.291   6.203
 4861POPC   C2B62060   5.585  29.458   6.625
 4861POPC   C3B62061   5.711  29.316   7.055
 4861POPC   C4B62062   5.416  29.462   7.440
 4862POPC   NC362063  37.661  25.436   5.320
 4862POPC   PO462064  37.913  24.803   5.233
 4862POPC   GL162065  37.698  25.015   5.645
 4862POPC   GL262066  37.850  25.337   5.791
 4862POPC   C1A62067  37.693  24.957   6.143
 4862POPC   D2A62068  37.696  24.924   6.618
 4862POPC   C3A62069  38.063  25.076   6.874
 4862POPC   C4A62070  38.078  25.142   7.315
 4862POPC   C1B62071  37.698  25.496   6.191
 4862POPC   C2B62072  37.434  25.372   6.542
 4862POPC   C3B62073  37.557  25.325   6.945
 4862POPC   C4B62074  37.827  25.609   7.132
 4863POPC   NC362075  28.293  37.986   5.539
 4863POPC   PO462076  28.014  38.586   5.557
 4863POPC   GL162077  28.321  38.633   5.870
 4863POPC   GL262078  28.545  38.327   5.846
 4863POPC   C1A62079  28.152  38.661   6.283
 4863POPC   D2A62080  28.280  38.715   6.694
 4863POPC   C3A62081  28.076  38.646   7.106
 4863POPC   C4A62082  28.104  38.750   7.581
 4863POPC   C1B62083  28.434  38.228   6.262
 4863POPC   C2B62084  28.576  38.306   6.667
 4863POPC   C3B62085  28.553  38.466   7.096
 4863POPC   C4B62086  28.627  38.119   7.369
 4864POPC   NC362087   0.374  42.081   5.554
 4864POPC   PO462088   0.424  42.739   5.480
 4864POPC   GL162089   0.457  42.509   5.869
 4864POPC   GL262090   0.643  42.227   5.961
 4864POPC   C1A62091   0.606  42.672   6.285
 4864POPC   D2A62092   0.841  42.574   6.664
 4864POPC   C3A62093   0.649  42.633   7.074
 4864POPC   C4A62094   0.310  42.604   7.383
 4864POPC   C1B62095   0.311  42.253   6.296
 4864POPC   C2B62096   0.419  42.272   6.744
 4864POPC   C3B62097   0.340  42.155   7.163
 4864POPC   C4B62098  44.981  42.189   7.425
 4865POPC   NC362099  29.753   4.602   5.498
 4865POPC   PO462100  30.221   4.103   5.376
 4865POPC   GL162101  30.053   4.259   5.814
 4865POPC   GL262102  29.760   4.485   5.981
 4865POPC   C1A62103  30.030   4.207   6.274
 4865POPC   D2A62104  29.839   4.465   6.544
 4865POPC   C3A62105  29.816   4.240   6.903
 4865POPC   C4A62106  29.893   4.228   7.330
 4865POPC   C1B62107  29.419   4.740   6.153
 4865POPC   C2B62108  29.245   4.780   6.546
 4865POPC   C3B62109  29.486   4.619   6.864
 4865POPC   C4B62110  29.435   4.424   7.237
 4866POPC   NC362111  10.133  14.520   5.398
 4866POPC   PO462112   9.488  14.153   5.371
 4866POPC   GL162113   9.687  14.265   5.737
 4866POPC   GL262114   9.419  14.465   5.848
 4866POPC   C1A62115  10.045  14.260   6.043
 4866POPC   D2A62116  10.162  14.346   6.487
 4866POPC   C3A62117   9.942  14.539   6.830
 4866POPC   C4A62118  10.031  14.519   7.258
 4866POPC   C1B62119   9.622  14.535   6.208
 4866POPC   C2B62120   9.432  14.499   6.584
 4866POPC   C3B62121   9.476  14.745   6.900
 4866POPC   C4B62122   9.485  14.591   7.281
 4867POPC   NC362123   8.171  43.558   5.493
 4867POPC   PO462124   8.414  42.916   5.289
 4867POPC   GL162125   8.282  43.091   5.680
 4867POPC   GL262126   8.586  43.160   5.826
 4867POPC   C1A62127   8.161  43.059   6.135
 4867POPC   D2A62128   8.400  43.053   6.520
 4867POPC   C3A62129   8.359  42.862   6.902
 4867POPC   C4A62130   8.259  42.987   7.274
 4867POPC   C1B62131   8.552  43.425   6.201
 4867POPC   C2B62132   8.680  43.471   6.635
 4867POPC   C3B62133   8.591  43.316   7.051
 4867POPC   C4B62134   8.531  43.340   7.498
 4868POPC   NC362135  43.524  28.926   5.458
 4868POPC   PO462136  43.042  29.212   5.083
 4868POPC   GL162137  43.140  29.283   5.583
 4868POPC   GL262138  42.823  29.296   5.763
 4868POPC   C1A62139  43.207  29.188   6.091
 4868POPC   D2A62140  43.342  28.961   6.516
 4868POPC   C3A62141  43.256  29.039   6.994
 4868POPC   C4A62142  43.340  29.036   7.469
 4868POPC   C1B62143  42.728  29.433   6.198
 4868POPC   C2B62144  42.882  29.339   6.591
 4868POPC   C3B62145  42.939  29.422   7.011
 4868POPC   C4B62146  42.848  29.135   7.349
 4869POPC   NC362147  40.183  20.906   5.406
 4869POPC   PO462148  39.686  21.347   5.223
 4869POPC   GL162149  39.955  21.480   5.700
 4869POPC   GL262150  40.105  21.222   5.852
 4869POPC   C1A62151  40.122  21.705   6.083
 4869POPC   D2A62152  40.046  21.731   6.549
 4869POPC   C3A62153  40.101  21.424   6.883
 4869POPC   C4A62154  40.329  21.621   7.234
 4869POPC   C1B62155  39.850  21.326   6.266
 4869POPC   C2B62156  39.601  21.338   6.672
 4869POPC   C3B62157  39.699  21.112   7.066
 4869POPC   C4B62158  40.019  21.206   7.378
 4870POPC   NC362159  18.357  36.574   5.339
 4870POPC   PO462160  18.005  37.117   5.178
 4870POPC   GL162161  18.117  36.949   5.633
 4870POPC   GL262162  18.429  36.809   5.773
 4870POPC   C1A62163  18.117  36.981   6.123
 4870POPC   D2A62164  18.055  36.790   6.538
 4870POPC   C3A62165  18.234  37.000   6.890
 4870POPC   C4A62166  18.038  37.062   7.243
 4870POPC   C1B62167  18.522  36.626   6.167
 4870POPC   C2B62168  18.575  36.805   6.543
 4870POPC   C3B62169  18.621  36.668   6.935
 4870POPC   C4B62170  18.635  36.799   7.338
 4871POPC   NC362171  42.859  38.837   5.466
 4871POPC   PO462172  42.862  38.175   5.449
 4871POPC   GL162173  42.878  38.417   5.856
 4871POPC   GL262174  43.198  38.600   5.809
 4871POPC   C1A62175  42.728  38.501   6.327
 4871POPC   D2A62176  42.600  38.453   6.789
 4871POPC   C3A62177  42.849  38.294   7.119
 4871POPC   C4A62178  43.260  38.391   7.194
 4871POPC   C1B62179  43.193  38.719   6.242
 4871POPC   C2B62180  43.123  38.626   6.697
 4871POPC   C3B62181  42.889  38.813   7.054
 4871POPC   C4B62182  42.861  38.668   7.466
 4872POPC   NC362183  15.998   0.885   4.995
 4872POPC   PO462184  15.983   0.303   5.318
 4872POPC   GL162185  16.081   0.348   5.796
 4872POPC   GL262186  15.818   0.585   5.934
 4872POPC   C1A62187  15.981   0.196   6.235
 4872POPC   D2A62188  15.879  44.959   6.602
 4872POPC   C3A62189  15.930   0.110   7.033
 4872POPC   C4A62190  16.179   0.096   7.412
 4872POPC   C1B62191  15.906   0.658   6.388
 4872POPC   C2B62192  16.086   0.473   6.730
 4872POPC   C3B62193  16.119   0.562   7.177
 4872POPC   C4B62194  15.881   0.827   7.436
 4873POPC   NC362195  20.970  15.771   5.407
 4873POPC   PO462196  21.645  15.775   5.559
 4873POPC   GL162197  21.273  15.900   5.798
 4873POPC   GL262198  21.145  16.236   5.713
 4873POPC   C1A62199  21.174  15.742   6.197
 4873POPC   D2A62200  21.326  15.868   6.604
 4873POPC   C3A62201  21.173  15.705   6.986
 4873POPC   C4A62202  21.470  15.507   7.264
 4873POPC   C1B62203  21.236  16.299   6.160
 4873POPC   C2B62204  21.084  16.317   6.607
 4873POPC   C3B62205  21.224  16.217   7.024
 4873POPC   C4B62206  21.336  15.998   7.391
 4874POPC   NC362207  16.166  44.359   5.425
 4874POPC   PO462208  15.652  44.746   5.437
 4874POPC   GL162209  15.781  44.482   5.767
 4874POPC   GL262210  15.916  44.811   5.892
 4874POPC   C1A62211  15.952  44.391   6.187
 4874POPC   D2A62212  16.096  44.500   6.610
 4874POPC   C3A62213  15.816  44.609   6.963
 4874POPC   C4A62214  15.725  44.404   7.329
 4874POPC   C1B62215  16.291  44.810   6.157
 4874POPC   C2B62216  16.386   0.040   6.548
 4874POPC   C3B62217  16.333  44.837   6.931
 4874POPC   C4B62218  16.469  44.691   7.316
 4875POPC   NC362219  38.350  35.797   5.140
 4875POPC   PO462220  38.592  36.059   5.695
 4875POPC   GL162221  38.385  35.899   6.002
 4875POPC   GL262222  38.060  36.005   5.978
 4875POPC   C1A62223  38.529  35.791   6.396
 4875POPC   D2A62224  38.345  35.855   6.785
 4875POPC   C3A62225  38.465  35.791   7.183
 4875POPC   C4A62226  38.254  35.665   7.582
 4875POPC   C1B62227  38.027  35.949   6.390
 4875POPC   C2B62228  38.045  36.258   6.719
 4875POPC   C3B62229  38.299  36.296   7.076
 4875POPC   C4B62230  38.115  36.104   7.384
 4876POPC   NC362231  21.927  33.433   5.538
 4876POPC   PO462232  21.410  33.715   5.426
 4876POPC   GL162233  21.393  33.775   5.854
 4876POPC   GL262234  21.069  33.614   5.836
 4876POPC   C1A62235  21.559  33.815   6.297
 4876POPC   D2A62236  21.570  33.493   6.661
 4876POPC   C3A62237  21.575  33.676   7.047
 4876POPC   C4A62238  21.598  33.993   7.375
 4876POPC   C1B62239  21.032  33.905   6.197
 4876POPC   C2B62240  21.142  33.788   6.617
 4876POPC   C3B62241  21.237  34.049   6.982
 4876POPC   C4B62242  21.092  33.927   7.412
 4877POPC   NC362243  32.723  37.601   5.342
 4877POPC   PO462244  33.156  38.041   5.283
 4877POPC   GL162245  32.841  37.936   5.697
 4877POPC   GL262246  32.930  37.614   5.813
 4877POPC   C1A62247  32.806  37.946   6.177
 4877POPC   D2A62248  32.745  37.799   6.606
 4877POPC   C3A62249  33.128  37.790   6.885
 4877POPC   C4A62250  33.155  37.793   7.327
 4877POPC   C1B62251  33.124  37.518   6.222
 4877POPC   C2B62252  33.127  37.343   6.616
 4877POPC   C3B62253  32.797  37.368   6.895
 4877POPC   C4B62254  32.775  37.477   7.297
 4878POPC   NC362255  22.954  21.135   5.491
 4878POPC   PO462256  23.322  20.503   5.441
 4878POPC   GL162257  23.104  20.456   5.843
 4878POPC   GL262258  22.871  20.732   5.823
 4878POPC   C1A62259  23.066  20.616   6.293
 4878POPC   D2A62260  22.993  20.779   6.702
 4878POPC   C3A62261  22.897  20.519   7.059
 4878POPC   C4A62262  22.995  20.353   7.478
 4878POPC   C1B62263  22.625  20.473   6.119
 4878POPC   C2B62264  22.551  20.600   6.577
 4878POPC   C3B62265  22.553  20.896   6.952
 4878POPC   C4B62266  22.497  20.669   7.332
 4879POPC   NC362267  36.082   4.790   5.207
 4879POPC   PO462268  36.466   5.085   5.661
 4879POPC   GL162269  36.064   5.158   5.866
 4879POPC   GL262270  35.870   4.865   6.007
 4879POPC   C1A62271  35.944   5.312   6.265
 4879POPC   D2A62272  36.013   5.073   6.594
 4879POPC   C3A62273  35.926   5.133   6.973
 4879POPC   C4A62274  36.197   5.323   7.159
 4879POPC   C1B62275  36.122   4.651   6.364
 4879POPC   C2B62276  36.456   4.838   6.671
 4879POPC   C3B62277  36.419   4.867   7.105
 4879POPC   C4B62278  36.181   4.696   7.442
 4880POPC   NC362279   9.454  38.660   5.649
 4880POPC   PO462280   9.981  39.058   5.421
 4880POPC   GL162281   9.963  38.821   5.865
 4880POPC   GL262282   9.959  38.447   5.917
 4880POPC   C1A62283   9.765  38.687   6.309
 4880POPC   D2A62284   9.923  38.466   6.695
 4880POPC   C3A62285   9.831  38.647   7.101
 4880POPC   C4A62286   9.512  38.480   7.416
 4880POPC   C1B62287   9.644  38.182   6.148
 4880POPC   C2B62288   9.434  38.152   6.567
 4880POPC   C3B62289   9.575  38.202   6.995
 4880POPC   C4B62290   9.938  38.201   7.303
 4881POPC   NC362291  31.694  27.676   5.356
 4881POPC   PO462292  31.080  27.479   5.208
 4881POPC   GL162293  31.314  27.619   5.718
 4881POPC   GL262294  31.643  27.588   5.868
 4881POPC   C1A62295  31.279  27.787   6.160
 4881POPC   D2A62296  31.336  27.525   6.525
 4881POPC   C3A62297  31.266  27.676   6.945
 4881POPC   C4A62298  31.300  27.448   7.351
 4881POPC   C1B62299  31.799  27.694   6.293
 4881POPC   C2B62300  31.757  27.834   6.732
 4881POPC   C3B62301  31.738  27.693   7.138
 4881POPC   C4B62302  31.606  27.782   7.578
 4882POPC   NC362303   5.102  24.397   5.460
 4882POPC   PO462304   5.166  25.061   5.682
 4882POPC   GL162305   5.347  24.672   5.811
 4882POPC   GL262306   4.979  24.611   5.899
 4882POPC   C1A62307   5.333  24.381   6.157
 4882POPC   D2A62308   5.078  24.613   6.449
 4882POPC   C3A62309   5.242  24.694   6.835
 4882POPC   C4A62310   5.346  24.496   7.220
 4882POPC   C1B62311   4.767  24.315   6.150
 4882POPC   C2B62312   4.641  24.376   6.575
 4882POPC   C3B62313   4.804  24.455   6.955
 4882POPC   C4B62314   4.617  24.395   7.334
 4883POPC   NC362315  17.107  21.994   5.065
 4883POPC   PO462316  17.485  22.318   5.508
 4883POPC   GL162317  17.455  22.064   5.900
 4883POPC   GL262318  17.754  21.956   6.052
 4883POPC   C1A62319  17.245  22.038   6.320
 4883POPC   D2A62320  17.273  22.236   6.733
 4883POPC   C3A62321  17.258  21.991   7.161
 4883POPC   C4A62322  17.288  22.016   7.638
 4883POPC   C1B62323  17.658  22.379   6.271
 4883POPC   C2B62324  17.719  22.594   6.682
 4883POPC   C3B62325  17.646  22.365   7.074
 4883POPC   C4B62326  17.745  21.886   7.163
 4884POPC   NC362327   6.554  23.710   5.378
 4884POPC   PO462328   7.173  23.569   5.352
 4884POPC   GL162329   6.938  23.765   5.727
 4884POPC   GL262330   6.962  24.114   5.725
 4884POPC   C1A62331   6.680  23.726   6.150
 4884POPC   D2A62332   6.335  23.735   6.489
 4884POPC   C3A62333   6.411  23.930   6.906
 4884POPC   C4A62334   6.573  24.118   7.301
 4884POPC   C1B62335   7.088  24.030   6.156
 4884POPC   C2B62336   7.171  23.872   6.563
 4884POPC   C3B62337   6.950  23.969   6.936
 4884POPC   C4B62338   7.066  24.016   7.344
 4885POPC   NC362339   8.298   7.609   5.484
 4885POPC   PO462340   8.144   6.923   5.710
 4885POPC   GL162341   8.252   7.317   5.942
 4885POPC   GL262342   8.048   7.632   5.937
 4885POPC   C1A62343   8.298   7.361   6.402
 4885POPC   D2A62344   8.466   7.127   6.732
 4885POPC   C3A62345   8.080   7.112   6.992
 4885POPC   C4A62346   8.066   7.297   7.418
 4885POPC   C1B62347   8.438   7.776   6.156
 4885POPC   C2B62348   8.397   7.850   6.598
 4885POPC   C3B62349   8.335   7.569   6.937
 4885POPC   C4B62350   8.461   7.594   7.339
 4886POPC   NC362351   0.146  13.019   5.623
 4886POPC   PO462352   0.822  12.703   5.488
 4886POPC   GL162353   0.533  12.764   5.825
 4886POPC   GL262354   0.597  13.131   5.849
 4886POPC   C1A62355   0.262  12.680   6.182
 4886POPC   D2A62356   0.263  12.418   6.511
 4886POPC   C3A62357   0.357  12.654   6.833
 4886POPC   C4A62358   0.323  12.555   7.210
 4886POPC   C1B62359   0.604  13.280   6.280
 4886POPC   C2B62360   0.487  13.142   6.711
 4886POPC   C3B62361   0.441  13.093   7.175
 4886POPC   C4B62362   0.612  12.891   7.545
 4887POPC   NC362363   5.313  31.279   5.369
 4887POPC   PO462364   4.801  31.778   5.198
 4887POPC   GL162365   5.101  31.694   5.647
 4887POPC   GL262366   5.083  31.319   5.820
 4887POPC   C1A62367   5.091  31.675   6.153
 4887POPC   D2A62368   5.327  31.554   6.525
 4887POPC   C3A62369   5.201  31.533   6.967
 4887POPC   C4A62370   5.381  31.527   7.400
 4887POPC   C1B62371   4.931  31.166   6.223
 4887POPC   C2B62372   5.146  31.078   6.615
 4887POPC   C3B62373   5.083  31.036   7.034
 4887POPC   C4B62374   4.926  31.281   7.328
 4888POPC   NC362375  31.810   7.881   5.537
 4888POPC   PO462376  31.426   8.294   5.189
 4888POPC   GL162377  31.378   8.479   5.627
 4888POPC   GL262378  31.686   8.338   5.746
 4888POPC   C1A62379  31.372   8.464   6.101
 4888POPC   D2A62380  31.362   8.371   6.539
 4888POPC   C3A62381  31.705   8.351   6.829
 4888POPC   C4A62382  31.664   8.394   7.277
 4888POPC   C1B62383  31.759   8.135   6.208
 4888POPC   C2B62384  31.846   7.891   6.636
 4888POPC   C3B62385  31.723   7.907   7.104
 4888POPC   C4B62386  31.691   7.872   7.565
 4889POPC   NC362387  22.610  31.350   5.350
 4889POPC   PO462388  23.212  31.452   5.735
 4889POPC   GL162389  22.836  31.226   5.863
 4889POPC   GL262390  22.729  31.551   5.869
 4889POPC   C1A62391  22.824  31.179   6.318
 4889POPC   D2A62392  23.168  31.394   6.588
 4889POPC   C3A62393  23.192  31.236   6.994
 4889POPC   C4A62394  22.814  31.174   7.182
 4889POPC   C1B62395  22.914  31.712   6.238
 4889POPC   C2B62396  22.771  31.994   6.493
 4889POPC   C3B62397  22.655  31.979   6.940
 4889POPC   C4B62398  22.890  31.665   7.102
 4890POPC   NC362399   6.151  30.773   5.570
 4890POPC   PO462400   5.744  30.273   5.534
 4890POPC   GL162401   5.718  30.625   5.867
 4890POPC   GL262402   5.450  30.909   5.812
 4890POPC   C1A62403   5.883  30.887   6.207
 4890POPC   D2A62404   6.154  31.042   6.529
 4890POPC   C3A62405   5.978  30.834   6.861
 4890POPC   C4A62406   6.077  30.812   7.263
 4890POPC   C1B62407   5.451  31.155   6.205
 4890POPC   C2B62408   5.664  31.194   6.622
 4890POPC   C3B62409   5.593  31.152   7.056
 4890POPC   C4B62410   5.583  30.727   7.203
 4891POPC   NC362411  21.593  32.496   5.642
 4891POPC   PO462412  21.264  31.944   5.427
 4891POPC   GL162413  21.275  32.115   5.845
 4891POPC   GL262414  21.608  32.011   5.890
 4891POPC   C1A62415  21.347  32.322   6.252
 4891POPC   D2A62416  21.107  32.607   6.530
 4891POPC   C3A62417  21.210  32.513   6.956
 4891POPC   C4A62418  21.541  32.625   7.215
 4891POPC   C1B62419  21.538  31.796   6.278
 4891POPC   C2B62420  21.689  31.949   6.685
 4891POPC   C3B62421  21.590  31.834   7.094
 4891POPC   C4B62422  21.368  32.142   7.272
 4892POPC   NC362423  18.532  32.012   5.015
 4892POPC   PO462424  18.100  31.904   5.513
 4892POPC   GL162425  18.195  32.152   5.816
 4892POPC   GL262426  18.297  31.864   5.990
 4892POPC   C1A62427  18.112  32.362   6.187
 4892POPC   D2A62428  18.300  32.398   6.571
 4892POPC   C3A62429  18.249  32.095   6.858
 4892POPC   C4A62430  18.234  32.187   7.287
 4892POPC   C1B62431  18.605  32.117   6.202
 4892POPC   C2B62432  18.736  32.121   6.629
 4892POPC   C3B62433  18.682  31.906   7.060
 4892POPC   C4B62434  18.630  31.973   7.521
 4893POPC   NC362435  21.324  17.911   5.418
 4893POPC   PO462436  21.753  17.472   5.193
 4893POPC   GL162437  21.543  17.510   5.677
 4893POPC   GL262438  21.195  17.430   5.816
 4893POPC   C1A62439  21.538  17.454   6.184
 4893POPC   D2A62440  21.379  17.518   6.635
 4893POPC   C3A62441  21.520  17.367   7.044
 4893POPC   C4A62442  21.779  17.461   7.427
 4893POPC   C1B62443  21.055  17.652   6.227
 4893POPC   C2B62444  20.960  17.814   6.634
 4893POPC   C3B62445  21.121  17.782   7.044
 4893POPC   C4B62446  21.150  17.447   7.364
 4894POPC   NC362447   7.795  43.900   5.276
 4894POPC   PO462448   7.190  44.049   5.455
 4894POPC   GL162449   7.430  43.893   5.798
 4894POPC   GL262450   7.788  43.938   5.786
 4894POPC   C1A62451   7.389  43.792   6.220
 4894POPC   D2A62452   7.298  44.017   6.604
 4894POPC   C3A62453   7.338  43.841   7.012
 4894POPC   C4A62454   7.291  44.058   7.409
 4894POPC   C1B62455   7.867  44.039   6.199
 4894POPC   C2B62456   7.766  43.793   6.561
 4894POPC   C3B62457   7.891  43.823   6.942
 4894POPC   C4B62458   7.774  43.910   7.329
 4895POPC   NC362459   2.381   1.367   4.823
 4895POPC   PO462460   2.057   1.039   5.324
 4895POPC   GL162461   1.931   1.125   5.794
 4895POPC   GL262462   1.613   1.046   5.947
 4895POPC   C1A62463   1.924   1.327   6.267
 4895POPC   D2A62464   2.188   1.428   6.649
 4895POPC   C3A62465   2.038   1.441   7.075
 4895POPC   C4A62466   2.218   1.255   7.453
 4895POPC   C1B62467   1.949   0.827   6.211
 4895POPC   C2B62468   1.971   0.896   6.661
 4895POPC   C3B62469   1.989   0.938   7.088
 4895POPC   C4B62470   1.749   1.042   7.463
 4896POPC   NC362471  15.639   4.218   5.578
 4896POPC   PO462472  16.281   4.507   5.621
 4896POPC   GL162473  16.027   4.497   5.947
 4896POPC   GL262474  15.860   4.174   6.033
 4896POPC   C1A62475  16.043   4.506   6.382
 4896POPC   D2A62476  15.943   4.088   6.577
 4896POPC   C3A62477  15.965   4.218   6.961
 4896POPC   C4A62478  16.290   4.402   7.188
 4896POPC   C1B62479  15.511   4.058   6.293
 4896POPC   C2B62480  15.541   3.723   6.588
 4896POPC   C3B62481  15.686   3.761   7.004
 4896POPC   C4B62482  15.634   4.091   7.322
 4897POPC   NC362483  16.245  38.187   5.427
 4897POPC   PO462484  15.616  38.465   5.401
 4897POPC   GL162485  15.817  38.361   5.801
 4897POPC   GL262486  15.944  38.031   5.832
 4897POPC   C1A62487  15.943  38.525   6.211
 4897POPC   D2A62488  15.814  38.817   6.535
 4897POPC   C3A62489  15.909  38.693   6.960
 4897POPC   C4A62490  16.257  38.615   7.245
 4897POPC   C1B62491  15.953  38.028   6.311
 4897POPC   C2B62492  16.116  38.274   6.693
 4897POPC   C3B62493  15.971  38.202   7.145
 4897POPC   C4B62494  15.915  38.069   7.610
 4898POPC   NC362495   5.226   6.337   5.611
 4898POPC   PO462496   4.993   6.956   5.406
 4898POPC   GL162497   5.091   6.838   5.834
 4898POPC   GL262498   5.179   6.516   6.071
 4898POPC   C1A62499   4.932   6.925   6.235
 4898POPC   D2A62500   4.959   6.663   6.604
 4898POPC   C3A62501   5.076   6.808   7.024
 4898POPC   C4A62502   5.453   6.584   7.165
 4898POPC   C1B62503   5.007   6.135   6.301
 4898POPC   C2B62504   4.740   6.188   6.624
 4898POPC   C3B62505   4.927   6.289   7.017
 4898POPC   C4B62506   4.707   6.130   7.335
 4899POPC   NC362507   0.257  16.564   5.657
 4899POPC   PO462508   0.227  15.923   5.429
 4899POPC   GL162509   0.476  16.062   5.751
 4899POPC   GL262510   0.192  16.124   5.936
 4899POPC   C1A62511   0.614  15.950   6.175
 4899POPC   D2A62512   0.571  16.165   6.585
 4899POPC   C3A62513   0.603  15.963   6.993
 4899POPC   C4A62514   0.502  16.143   7.383
 4899POPC   C1B62515   0.127  15.874   6.302
 4899POPC   C2B62516   0.294  15.702   6.686
 4899POPC   C3B62517   0.098  15.780   7.116
 4899POPC   C4B62518  44.786  15.885   7.470
 4900POPC   NC362519  10.778  44.213   5.456
 4900POPC   PO462520  10.198  43.797   5.555
 4900POPC   GL162521  10.348  44.068   5.879
 4900POPC   GL262522  10.723  44.058   5.976
 4900POPC   C1A62523  10.342  44.095   6.332
 4900POPC   D2A62524  10.718  44.204   6.573
 4900POPC   C3A62525  10.689  43.908   6.889
 4900POPC   C4A62526  10.322  43.887   7.195
 4900POPC   C1B62527  10.769  43.721   6.335
 4900POPC   C2B62528  10.896  43.444   6.697
 4900POPC   C3B62529  11.028  43.584   7.101
 4900POPC   C4B62530  10.824  43.873   7.383
 4901POPC   NC362531  14.725  23.985   5.407
 4901POPC   PO462532  15.384  23.614   5.489
 4901POPC   GL162533  15.194  23.677   5.861
 4901POPC   GL262534  14.867  23.688   5.800
 4901POPC   C1A62535  15.268  23.839   6.261
 4901POPC   D2A62536  15.408  23.742   6.679
 4901POPC   C3A62537  15.079  23.661   6.992
 4901POPC   C4A62538  14.976  23.334   7.255
 4901POPC   C1B62539  14.772  23.951   6.166
 4901POPC   C2B62540  14.943  24.027   6.600
 4901POPC   C3B62541  14.813  24.097   7.018
 4901POPC   C4B62542  14.953  24.024   7.427
 4902POPC   NC362543  36.971   7.930   5.265
 4902POPC   PO462544  37.044   8.518   5.413
 4902POPC   GL162545  37.141   8.194   5.725
 4902POPC   GL262546  36.972   7.919   5.775
 4902POPC   C1A62547  37.069   8.305   6.147
 4902POPC   D2A62548  37.096   8.336   6.586
 4902POPC   C3A62549  36.728   8.440   6.827
 4902POPC   C4A62550  36.680   8.599   7.223
 4902POPC   C1B62551  37.051   7.813   6.218
 4902POPC   C2B62552  36.775   7.912   6.591
 4902POPC   C3B62553  36.990   8.009   6.973
 4902POPC   C4B62554  37.265   7.795   7.253
 4903POPC   NC362555  28.373  16.292   5.427
 4903POPC   PO462556  28.260  15.657   5.624
 4903POPC   GL162557  28.465  15.958   5.807
 4903POPC   GL262558  28.167  16.144   5.871
 4903POPC   C1A62559  28.577  15.979   6.205
 4903POPC   D2A62560  28.608  15.795   6.580
 4903POPC   C3A62561  28.704  16.104   6.860
 4903POPC   C4A62562  28.666  16.204   7.283
 4903POPC   C1B62563  28.065  16.073   6.288
 4903POPC   C2B62564  28.229  16.183   6.669
 4903POPC   C3B62565  28.217  16.056   7.102
 4903POPC   C4B62566  27.951  15.716   7.220
 4904POPC   NC362567  40.375   6.451   5.458
 4904POPC   PO462568  39.772   6.635   5.366
 4904POPC   GL162569  39.994   6.730   5.762
 4904POPC   GL262570  40.318   6.884   5.740
 4904POPC   C1A62571  39.947   6.589   6.180
 4904POPC   D2A62572  39.726   6.591   6.611
 4904POPC   C3A62573  39.967   6.596   6.985
 4904POPC   C4A62574  39.798   6.704   7.387
 4904POPC   C1B62575  40.319   7.039   6.153
 4904POPC   C2B62576  40.157   6.879   6.549
 4904POPC   C3B62577  40.350   6.926   6.947
 4904POPC   C4B62578  40.147   7.051   7.246
 4905POPC   NC362579  40.065  31.934   5.577
 4905POPC   PO462580  39.821  32.620   5.482
 4905POPC   GL162581  39.813  32.281   5.817
 4905POPC   GL262582  39.511  32.063   5.776
 4905POPC   C1A62583  40.083  32.248   6.199
 4905POPC   D2A62584  40.085  32.502   6.575
 4905POPC   C3A62585  40.127  32.291   6.942
 4905POPC   C4A62586  40.179  32.007   7.258
 4905POPC   C1B62587  39.636  31.964   6.199
 4905POPC   C2B62588  39.836  32.035   6.587
 4905POPC   C3B62589  39.750  31.923   6.986
 4905POPC   C4B62590  39.489  31.758   7.268
 4906POPC   NC362591  18.483  42.585   5.384
 4906POPC   PO462592  18.102  41.993   5.207
 4906POPC   GL162593  18.090  42.291   5.656
 4906POPC   GL262594  18.380  42.396   5.855
 4906POPC   C1A62595  17.973  42.429   6.128
 4906POPC   D2A62596  17.949  42.205   6.480
 4906POPC   C3A62597  18.194  42.183   6.806
 4906POPC   C4A62598  18.103  42.339   7.218
 4906POPC   C1B62599  18.582  42.481   6.234
 4906POPC   C2B62600  18.794  42.411   6.625
 4906POPC   C3B62601  18.607  42.375   7.008
 4906POPC   C4B62602  18.498  41.961   7.158
 4907POPC   NC362603  42.136  31.586   5.440
 4907POPC   PO462604  42.619  31.182   5.242
 4907POPC   GL162605  42.498  31.169   5.697
 4907POPC   GL262606  42.807  31.168   5.869
 4907POPC   C1A62607  42.290  31.243   6.116
 4907POPC   D2A62608  42.182  31.163   6.585
 4907POPC   C3A62609  42.180  31.557   6.881
 4907POPC   C4A62610  42.393  31.770   7.232
 4907POPC   C1B62611  42.724  30.908   6.211
 4907POPC   C2B62612  42.650  30.886   6.616
 4907POPC   C3B62613  42.634  31.243   6.887
 4907POPC   C4B62614  42.467  31.282   7.244
 4908POPC   NC362615  40.712  14.387   5.382
 4908POPC   PO462616  41.180  14.820   5.448
 4908POPC   GL162617  40.878  14.595   5.799
 4908POPC   GL262618  40.936  14.193   5.792
 4908POPC   C1A62619  40.585  14.398   6.121
 4908POPC   D2A62620  40.663  14.515   6.553
 4908POPC   C3A62621  40.490  14.653   6.961
 4908POPC   C4A62622  40.461  14.306   7.271
 4908POPC   C1B62623  40.952  14.054   6.204
 4908POPC   C2B62624  41.072  14.218   6.597
 4908POPC   C3B62625  40.973  14.458   6.950
 4908POPC   C4B62626  40.996  14.228   7.279
 4909POPC   NC362627  41.028  18.519   5.538
 4909POPC   PO462628  40.574  18.041   5.499
 4909POPC   GL162629  40.879  18.168   5.876
 4909POPC   GL262630  41.092  17.898   5.992
 4909POPC   C1A62631  40.806  18.496   6.235
 4909POPC   D2A62632  40.462  18.404   6.566
 4909POPC   C3A62633  40.605  18.139   6.910
 4909POPC   C4A62634  40.778  18.465   7.105
 4909POPC   C1B62635  40.909  18.025   6.384
 4909POPC   C2B62636  41.066  18.307   6.688
 4909POPC   C3B62637  41.155  18.132   7.071
 4909POPC   C4B62638  41.045  17.903   7.437
 4910POPC   NC362639  11.166  18.601   5.641
 4910POPC   PO462640  10.684  18.304   5.326
 4910POPC   GL162641  10.550  18.334   5.745
 4910POPC   GL262642  10.810  18.097   5.869
 4910POPC   C1A62643  10.387  18.185   6.147
 4910POPC   D2A62644  10.581  18.108   6.536
 4910POPC   C3A62645  10.399  18.268   6.944
 4910POPC   C4A62646  10.371  18.082   7.338
 4910POPC   C1B62647  10.825  18.452   6.191
 4910POPC   C2B62648  10.832  18.534   6.631
 4910POPC   C3B62649  10.902  18.192   6.937
 4910POPC   C4B62650  10.829  18.337   7.330
 4911POPC   NC362651  39.470  13.945   5.578
 4911POPC   PO462652  39.284  14.642   5.419
 4911POPC   GL162653  39.178  14.452   5.803
 4911POPC   GL262654  39.033  14.168   5.705
 4911POPC   C1A62655  39.202  14.583   6.232
 4911POPC   D2A62656  39.135  14.710   6.632
 4911POPC   C3A62657  39.328  14.554   6.980
 4911POPC   C4A62658  39.565  14.845   7.211
 4911POPC   C1B62659  39.070  14.089   6.180
 4911POPC   C2B62660  39.143  14.180   6.645
 4911POPC   C3B62661  39.052  14.119   7.105
 4911POPC   C4B62662  38.970  13.997   7.570
 4912POPC   NC362663  31.398   9.634   5.474
 4912POPC   PO462664  31.757  10.133   5.666
 4912POPC   GL162665  31.404   9.964   5.919
 4912POPC   GL262666  31.314   9.601   5.982
 4912POPC   C1A62667  31.492   9.907   6.363
 4912POPC   D2A62668  31.602  10.126   6.725
 4912POPC   C3A62669  31.656   9.818   7.045
 4912POPC   C4A62670  31.849   9.563   7.347
 4912POPC   C1B62671  31.451   9.369   6.303
 4912POPC   C2B62672  31.527   9.491   6.676
 4912POPC   C3B62673  31.521   9.296   6.996
 4912POPC   C4B62674  31.330   9.481   7.318
 4913POPC   NC362675   4.144  17.381   5.624
 4913POPC   PO462676   4.792  17.653   5.540
 4913POPC   GL162677   4.545  17.521   5.933
 4913POPC   GL262678   4.489  17.140   5.924
 4913POPC   C1A62679   4.211  17.622   6.290
 4913POPC   D2A62680   4.048  17.668   6.753
 4913POPC   C3A62681   4.334  17.499   7.071
 4913POPC   C4A62682   4.430  17.617   7.502
 4913POPC   C1B62683   4.086  17.096   6.192
 4913POPC   C2B62684   3.940  17.108   6.605
 4913POPC   C3B62685   3.910  17.194   7.028
 4913POPC   C4B62686   4.142  17.201   7.448
 4914POPC   NC362687  22.931  20.249   5.388
 4914POPC   PO462688  23.140  19.568   5.441
 4914POPC   GL162689  23.056  19.602   5.864
 4914POPC   GL262690  22.926  19.939   5.858
 4914POPC   C1A62691  23.066  19.617   6.326
 4914POPC   D2A62692  22.777  19.736   6.655
 4914POPC   C3A62693  22.882  19.633   7.073
 4914POPC   C4A62694  22.735  20.023   7.201
 4914POPC   C1B62695  23.150  20.109   6.224
 4914POPC   C2B62696  23.104  20.256   6.661
 4914POPC   C3B62697  23.266  20.173   7.083
 4914POPC   C4B62698  23.258  19.879   7.413
 4915POPC   NC362699  27.187  22.998   5.497
 4915POPC   PO462700  26.751  22.498   5.441
 4915POPC   GL162701  26.793  22.794   5.782
 4915POPC   GL262702  26.547  23.042   5.936
 4915POPC   C1A62703  26.968  22.758   6.184
 4915POPC   D2A62704  26.770  22.617   6.576
 4915POPC   C3A62705  26.897  22.791   6.959
 4915POPC   C4A62706  26.920  22.859   7.424
 4915POPC   C1B62707  26.674  23.142   6.389
 4915POPC   C2B62708  26.672  23.233   6.846
 4915POPC   C3B62709  26.466  22.960   7.201
 4915POPC   C4B62710  26.417  23.079   7.654
 4916POPC   NC362711   4.638  12.073   5.469
 4916POPC   PO462712   5.170  12.465   5.380
 4916POPC   GL162713   5.041  12.230   5.775
 4916POPC   GL262714   4.843  12.501   5.908
 4916POPC   C1A62715   5.279  12.017   6.168
 4916POPC   D2A62716   5.192  11.818   6.602
 4916POPC   C3A62717   5.189  12.023   7.039
 4916POPC   C4A62718   5.163  11.800   7.449
 4916POPC   C1B62719   4.704  12.380   6.331
 4916POPC   C2B62720   4.776  12.129   6.731
 4916POPC   C3B62721   4.692  12.104   7.194
 4916POPC   C4B62722   4.436  12.370   7.489
 4917POPC   NC362723  16.827  33.936   5.516
 4917POPC   PO462724  16.298  33.513   5.396
 4917POPC   GL162725  16.589  33.530   5.761
 4917POPC   GL262726  16.531  33.887   5.911
 4917POPC   C1A62727  16.889  33.586   6.105
 4917POPC   D2A62728  16.831  33.824   6.470
 4917POPC   C3A62729  16.928  33.552   6.789
 4917POPC   C4A62730  16.954  33.611   7.185
 4917POPC   C1B62731  16.344  34.148   6.205
 4917POPC   C2B62732  16.230  34.047   6.632
 4917POPC   C3B62733  16.575  33.973   6.921
 4917POPC   C4B62734  16.663  34.053   7.335
 4918POPC   NC362735   0.680  21.043   5.342
 4918POPC   PO462736   0.874  20.413   5.471
 4918POPC   GL162737   0.837  20.487   5.891
 4918POPC   GL262738   0.839  20.843   5.933
 4918POPC   C1A62739   1.103  20.329   6.236
 4918POPC   D2A62740   0.985  20.340   6.665
 4918POPC   C3A62741   1.277  20.327   7.022
 4918POPC   C4A62742   1.277  20.620   7.402
 4918POPC   C1B62743   1.013  20.811   6.368
 4918POPC   C2B62744   1.187  20.814   6.805
 4918POPC   C3B62745   1.161  21.061   7.198
 4918POPC   C4B62746   1.148  21.057   7.686
 4919POPC   NC362747  36.073  38.194   5.334
 4919POPC   PO462748  36.170  38.867   5.265
 4919POPC   GL162749  36.111  38.662   5.744
 4919POPC   GL262750  35.920  38.311   5.805
 4919POPC   C1A62751  36.304  38.732   6.190
 4919POPC   D2A62752  36.436  38.475   6.562
 4919POPC   C3A62753  36.309  38.700   6.911
 4919POPC   C4A62754  36.453  38.746   7.322
 4919POPC   C1B62755  36.081  38.284   6.229
 4919POPC   C2B62756  35.939  38.407   6.633
 4919POPC   C3B62757  36.073  38.273   7.030
 4919POPC   C4B62758  36.065  38.437   7.469
 4920POPC   NC362759  44.832  36.417   5.581
 4920POPC   PO462760  44.255  36.124   5.327
 4920POPC   GL162761  44.466  36.071   5.727
 4920POPC   GL262762  44.384  36.411   5.807
 4920POPC   C1A62763  44.614  35.880   6.139
 4920POPC   D2A62764  44.602  35.724   6.580
 4920POPC   C3A62765  44.853  35.880   6.900
 4920POPC   C4A62766  44.693  35.962   7.293
 4920POPC   C1B62767  44.656  36.376   6.193
 4920POPC   C2B62768  44.715  36.305   6.622
 4920POPC   C3B62769  44.772  36.427   7.065
 4920POPC   C4B62770  44.732  36.566   7.523
 4921POPC   NC362771   3.231  14.182   5.628
 4921POPC   PO462772   3.491  13.593   5.391
 4921POPC   GL162773   3.517  13.760   5.800
 4921POPC   GL262774   3.854  13.845   5.786
 4921POPC   C1A62775   3.285  13.749   6.200
 4921POPC   D2A62776   3.122  13.531   6.572
 4921POPC   C3A62777   3.326  13.581   6.947
 4921POPC   C4A62778   3.479  13.217   7.127
 4921POPC   C1B62779   3.823  13.553   6.159
 4921POPC   C2B62780   3.654  13.536   6.515
 4921POPC   C3B62781   3.832  13.492   6.884
 4921POPC   C4B62782   3.792  13.753   7.192
 4922POPC   NC362783  20.781  14.010   5.522
 4922POPC   PO462784  20.521  13.473   5.505
 4922POPC   GL162785  20.336  13.540   5.899
 4922POPC   GL262786  20.384  13.198   5.942
 4922POPC   C1A62787  20.519  13.726   6.301
 4922POPC   D2A62788  20.903  13.867   6.575
 4922POPC   C3A62789  20.791  13.881   7.011
 4922POPC   C4A62790  20.351  13.857   7.130
 4922POPC   C1B62791  20.819  13.350   6.097
 4922POPC   C2B62792  20.968  13.323   6.535
 4922POPC   C3B62793  20.895  13.365   6.991
 4922POPC   C4B62794  20.485  13.344   7.227
 4923POPC   NC362795  18.894   7.687   5.326
 4923POPC   PO462796  19.454   7.627   5.723
 4923POPC   GL162797  19.153   7.529   6.031
 4923POPC   GL262798  18.874   7.625   5.856
 4923POPC   C1A62799  18.871   7.158   6.130
 4923POPC   D2A62800  18.738   7.107   6.509
 4923POPC   C3A62801  19.073   7.117   6.793
 4923POPC   C4A62802  18.986   7.132   7.214
 4923POPC   C1B62803  18.636   7.586   6.249
 4923POPC   C2B62804  18.654   7.586   6.689
 4923POPC   C3B62805  18.681   7.533   7.104
 4923POPC   C4B62806  18.911   7.815   7.415
 4924POPC   NC362807   9.625  39.313   5.237
 4924POPC   PO462808   9.373  39.846   5.523
 4924POPC   GL162809   9.731  39.486   5.700
 4924POPC   GL262810   9.591  39.161   5.731
 4924POPC   C1A62811  10.032  39.298   6.057
 4924POPC   D2A62812   9.938  39.129   6.502
 4924POPC   C3A62813  10.119  39.268   6.914
 4924POPC   C4A62814  10.041  39.225   7.381
 4924POPC   C1B62815   9.540  39.130   6.168
 4924POPC   C2B62816   9.437  39.009   6.621
 4924POPC   C3B62817   9.632  39.105   7.050
 4924POPC   C4B62818   9.650  38.944   7.508
 4925POPC   NC362819   4.819  33.923   5.520
 4925POPC   PO462820   5.499  34.217   5.558
 4925POPC   GL162821   5.208  34.073   5.839
 4925POPC   GL262822   5.123  33.716   5.871
 4925POPC   C1A62823   5.009  34.145   6.230
 4925POPC   D2A62824   4.913  33.861   6.565
 4925POPC   C3A62825   4.942  33.992   6.965
 4925POPC   C4A62826   5.129  33.998   7.367
 4925POPC   C1B62827   4.954  33.465   6.226
 4925POPC   C2B62828   5.036  33.352   6.638
 4925POPC   C3B62829   5.132  33.496   7.018
 4925POPC   C4B62830   4.931  33.545   7.389
 4926POPC   NC362831  22.718  13.020   5.425
 4926POPC   PO462832  23.214  12.580   5.208
 4926POPC   GL162833  23.041  12.639   5.638
 4926POPC   GL262834  23.187  12.928   5.814
 4926POPC   C1A62835  23.069  12.507   6.089
 4926POPC   D2A62836  23.086  12.722   6.493
 4926POPC   C3A62837  23.181  12.689   6.939
 4926POPC   C4A62838  23.108  12.973   7.285
 4926POPC   C1B62839  22.847  12.988   6.117
 4926POPC   C2B62840  22.859  13.164   6.540
 4926POPC   C3B62841  22.775  13.004   6.917
 4926POPC   C4B62842  22.598  13.068   7.326
 4927POPC   NC362843  23.117  18.399   5.298
 4927POPC   PO462844  22.495  18.119   5.365
 4927POPC   GL162845  22.762  18.222   5.716
 4927POPC   GL262846  22.790  18.595   5.704
 4927POPC   C1A62847  22.670  18.221   6.192
 4927POPC   D2A62848  22.837  18.268   6.628
 4927POPC   C3A62849  22.928  18.043   7.032
 4927POPC   C4A62850  23.004  17.927   7.484
 4927POPC   C1B62851  22.746  18.771   6.155
 4927POPC   C2B62852  22.888  18.779   6.604
 4927POPC   C3B62853  22.949  18.574   7.021
 4927POPC   C4B62854  22.809  18.397   7.399
 4928POPC   NC362855  19.778  39.880   5.103
 4928POPC   PO462856  20.159  40.331   5.482
 4928POPC   GL162857  19.818  40.182   5.763
 4928POPC   GL262858  19.797  40.481   5.932
 4928POPC   C1A62859  19.899  40.067   6.222
 4928POPC   D2A62860  20.074  40.070   6.641
 4928POPC   C3A62861  19.798  39.807   6.858
 4928POPC   C4A62862  19.784  39.720   7.275
 4928POPC   C1B62863  19.577  40.453   6.335
 4928POPC   C2B62864  19.613  40.265   6.743
 4928POPC   C3B62865  19.785  40.238   7.157
 4928POPC   C4B62866  19.719  40.543   7.481
 4929POPC   NC362867  32.180  40.438   5.697
 4929POPC   PO462868  32.453  40.904   5.326
 4929POPC   GL162869  32.434  40.847   5.799
 4929POPC   GL262870  32.652  40.536   5.832
 4929POPC   C1A62871  32.135  40.931   6.217
 4929POPC   D2A62872  31.793  40.936   6.580
 4929POPC   C3A62873  32.000  40.882   6.985
 4929POPC   C4A62874  32.328  40.994   7.279
 4929POPC   C1B62875  32.486  40.568   6.283
 4929POPC   C2B62876  32.399  40.728   6.699
 4929POPC   C3B62877  32.551  40.565   7.109
 4929POPC   C4B62878  32.606  40.667   7.554
 4930POPC   NC362879  14.255  12.922   5.258
 4930POPC   PO462880  14.667  12.732   5.713
 4930POPC   GL162881  14.394  12.932   5.964
 4930POPC   GL262882  14.075  13.022   5.778
 4930POPC   C1A62883  14.385  12.632   6.325
 4930POPC   D2A62884  14.563  12.593   6.712
 4930POPC   C3A62885  14.495  12.942   6.923
 4930POPC   C4A62886  14.596  12.770   7.263
 4930POPC   C1B62887  13.943  12.867   6.208
 4930POPC   C2B62888  14.018  12.802   6.666
 4930POPC   C3B62889  14.016  12.978   7.081
 4930POPC   C4B62890  13.852  12.813   7.486
 4931POPC   NC362891  35.740  39.131   5.442
 4931POPC   PO462892  36.397  39.372   5.385
 4931POPC   GL162893  36.252  39.376   5.825
 4931POPC   GL262894  35.971  39.624   5.882
 4931POPC   C1A62895  36.450  39.251   6.219
 4931POPC   D2A62896  36.590  38.997   6.556
 4931POPC   C3A62897  36.521  39.152   6.965
 4931POPC   C4A62898  36.274  39.235   7.315
 4931POPC   C1B62899  35.966  39.456   6.334
 4931POPC   C2B62900  36.082  39.169   6.701
 4931POPC   C3B62901  35.905  38.961   7.091
 4931POPC   C4B62902  35.752  39.200   7.435
 4932POPC   NC362903  26.494  30.678   5.746
 4932POPC   PO462904  27.063  30.593   5.434
 4932POPC   GL162905  26.986  30.792   5.826
 4932POPC   GL262906  26.944  30.433   5.926
 4932POPC   C1A62907  26.871  30.779   6.284
 4932POPC   D2A62908  26.922  30.582   6.666
 4932POPC   C3A62909  26.771  30.787   7.035
 4932POPC   C4A62910  26.963  31.158   7.194
 4932POPC   C1B62911  27.005  30.187   6.303
 4932POPC   C2B62912  26.932  30.078   6.725
 4932POPC   C3B62913  27.029  30.315   7.080
 4932POPC   C4B62914  26.876  30.479   7.464
 4933POPC   NC362915  38.130  15.327   5.170
 4933POPC   PO462916  38.714  15.113   5.599
 4933POPC   GL162917  38.482  15.081   5.928
 4933POPC   GL262918  38.185  14.913   5.804
 4933POPC   C1A62919  38.493  15.328   6.308
 4933POPC   D2A62920  38.307  15.272   6.695
 4933POPC   C3A62921  38.565  15.438   6.974
 4933POPC   C4A62922  38.603  15.128   7.234
 4933POPC   C1B62923  38.105  14.991   6.260
 4933POPC   C2B62924  38.320  14.759   6.599
 4933POPC   C3B62925  38.230  14.854   7.025
 4933POPC   C4B62926  38.125  15.260   7.180
 4934POPC   NC362927   4.701  32.427   5.527
 4934POPC   PO462928   5.336  32.469   5.684
 4934POPC   GL162929   5.176  32.132   5.926
 4934POPC   GL262930   4.792  32.068   5.925
 4934POPC   C1A62931   5.213  32.118   6.358
 4934POPC   D2A62932   5.053  31.961   6.704
 4934POPC   C3A62933   5.248  32.054   7.069
 4934POPC   C4A62934   5.413  32.058   7.450
 4934POPC   C1B62935   4.869  32.453   6.195
 4934POPC   C2B62936   4.938  32.447   6.626
 4934POPC   C3B62937   4.868  32.387   7.040
 4934POPC   C4B62938   4.646  32.590   7.344
 4935POPC   NC362939  15.479  24.850   5.126
 4935POPC   PO462940  14.970  25.211   5.335
 4935POPC   GL162941  15.195  25.041   5.682
 4935POPC   GL262942  15.417  25.289   5.838
 4935POPC   C1A62943  15.164  24.880   6.123
 4935POPC   D2A62944  15.339  25.169   6.398
 4935POPC   C3A62945  15.217  25.104   6.811
 4935POPC   C4A62946  15.252  25.001   7.234
 4935POPC   C1B62947  15.009  25.367   6.057
 4935POPC   C2B62948  14.873  25.367   6.519
 4935POPC   C3B62949  14.919  25.502   6.975
 4935POPC   C4B62950  14.905  25.345   7.399
 4936POPC   NC362951   8.430  40.131   5.136
 4936POPC   PO462952   7.845  39.864   5.455
 4936POPC   GL162953   8.073  40.025   5.786
 4936POPC   GL262954   8.388  40.169   5.660
 4936POPC   C1A62955   7.950  40.158   6.196
 4936POPC   D2A62956   7.910  39.941   6.555
 4936POPC   C3A62957   8.083  40.150   6.890
 4936POPC   C4A62958   7.989  39.981   7.277
 4936POPC   C1B62959   8.453  40.085   6.104
 4936POPC   C2B62960   8.421  39.959   6.540
 4936POPC   C3B62961   8.377  39.746   6.945
 4936POPC   C4B62962   8.430  39.768   7.378
 4937POPC   NC362963  40.269   5.305   5.495
 4937POPC   PO462964  39.724   4.936   5.335
 4937POPC   GL162965  39.984   4.958   5.717
 4937POPC   GL262966  39.831   5.254   5.810
 4937POPC   C1A62967  40.014   4.897   6.189
 4937POPC   D2A62968  40.226   5.051   6.592
 4937POPC   C3A62969  40.141   4.834   6.984
 4937POPC   C4A62970  40.396   4.621   7.290
 4937POPC   C1B62971  39.879   5.393   6.232
 4937POPC   C2B62972  39.765   5.257   6.634
 4937POPC   C3B62973  39.967   5.336   7.007
 4937POPC   C4B62974  40.193   5.203   7.360
 4938POPC   NC362975  30.297  17.221   5.675
 4938POPC   PO462976  30.440  17.871   5.519
 4938POPC   GL162977  29.968  17.762   5.683
 4938POPC   GL262978  29.881  17.464   5.870
 4938POPC   C1A62979  29.833  17.886   6.156
 4938POPC   D2A62980  29.723  17.729   6.587
 4938POPC   C3A62981  29.889  17.822   7.010
 4938POPC   C4A62982  30.011  17.683   7.436
 4938POPC   C1B62983  30.104  17.387   6.281
 4938POPC   C2B62984  30.179  17.501   6.690
 4938POPC   C3B62985  30.006  17.331   7.048
 4938POPC   C4B62986  30.102  17.173   7.428
 4939POPC   NC362987  17.886  32.335   5.391
 4939POPC   PO462988  17.188  32.305   5.425
 4939POPC   GL162989  17.428  32.137   5.801
 4939POPC   GL262990  17.708  32.330   5.863
 4939POPC   C1A62991  17.334  31.993   6.234
 4939POPC   D2A62992  17.218  32.260   6.609
 4939POPC   C3A62993  17.352  32.155   7.055
 4939POPC   C4A62994  17.252  32.364   7.454
 4939POPC   C1B62995  17.601  32.424   6.272
 4939POPC   C2B62996  17.751  32.241   6.636
 4939POPC   C3B62997  17.831  32.347   7.024
 4939POPC   C4B62998  17.748  32.155   7.429
 4940POPC   NC362999  44.759   6.383   5.343
 4940POPC   PO463000  44.609   6.999   5.574
 4940POPC   GL163001  44.558   6.604   5.792
 4940POPC   GL263002  44.870   6.419   5.866
 4940POPC   C1A63003  44.454   6.401   6.184
 4940POPC   D2A63004  44.305   6.404   6.611
 4940POPC   C3A63005  44.627   6.572   6.877
 4940POPC   C4A63006  44.618   6.854   7.205
 4940POPC   C1B63007  44.871   6.774   6.192
 4940POPC   C2B63008   0.134   6.966   6.538
 4940POPC   C3B63009   0.062   6.876   6.964
 4940POPC   C4B63010   0.037   6.487   7.188
 4941POPC   NC363011  27.970  24.681   5.358
 4941POPC   PO463012  28.658  24.347   5.363
 4941POPC   GL163013  28.451  24.309   5.790
 4941POPC   GL263014  28.092  24.407   5.800
 4941POPC   C1A63015  28.477  24.196   6.245
 4941POPC   D2A63016  28.443  24.438   6.642
 4941POPC   C3A63017  28.528  24.413   7.093
 4941POPC   C4A63018  28.467  24.822   7.330
 4941POPC   C1B63019  28.114  24.542   6.246
 4941POPC   C2B63020  27.945  24.596   6.691
 4941POPC   C3B63021  28.039  24.551   7.165
 4941POPC   C4B63022  28.005  24.777   7.564
 4942POPC   NC363023  38.601  25.398   5.514
 4942POPC   PO463024  38.201  24.974   5.678
 4942POPC   GL163025  38.424  25.175   5.948
 4942POPC   GL263026  38.728  25.015   5.844
 4942POPC   C1A63027  38.333  25.497   6.271
 4942POPC   D2A63028  38.087  25.561   6.667
 4942POPC   C3A63029  38.320  25.531   7.066
 4942POPC   C4A63030  38.492  25.401   7.490
 4942POPC   C1B63031  38.799  25.242   6.275
 4942POPC   C2B63032  38.579  25.253   6.692
 4942POPC   C3B63033  38.559  25.087   7.112
 4942POPC   C4B63034  38.743  24.898   7.529
 4943POPC   NC363035  10.900  22.144   5.534
 4943POPC   PO463036  11.505  22.441   5.372
 4943POPC   GL163037  11.453  22.502   5.781
 4943POPC   GL263038  11.608  22.176   5.824
 4943POPC   C1A63039  11.240  22.537   6.192
 4943POPC   D2A63040  10.973  22.273   6.484
 4943POPC   C3A63041  11.127  22.144   6.888
 4943POPC   C4A63042  11.188  22.301   7.287
 4943POPC   C1B63043  11.312  22.021   6.123
 4943POPC   C2B63044  11.473  22.130   6.502
 4943POPC   C3B63045  11.614  21.981   6.882
 4943POPC   C4B63046  11.725  22.023   7.293
 4944POPC   NC363047  43.466  41.385   5.398
 4944POPC   PO463048  42.820  41.630   5.464
 4944POPC   GL163049  43.039  41.762   5.822
 4944POPC   GL263050  43.381  41.719   5.768
 4944POPC   C1A63051  43.021  41.726   6.265
 4944POPC   D2A63052  43.170  41.565   6.656
 4944POPC   C3A63053  42.976  41.798   7.003
 4944POPC   C4A63054  42.814  41.702   7.408
 4944POPC   C1B63055  43.493  41.538   6.187
 4944POPC   C2B63056  43.695  41.677   6.572
 4944POPC   C3B63057  43.511  41.776   6.975
 4944POPC   C4B63058  43.330  41.626   7.337
 4945POPC   NC363059  33.068  26.949   5.356
 4945POPC   PO463060  33.145  26.320   5.382
 4945POPC   GL163061  33.086  26.604   5.777
 4945POPC   GL263062  33.229  26.986   5.831
 4945POPC   C1A63063  32.895  26.519   6.218
 4945POPC   D2A63064  32.798  26.479   6.693
 4945POPC   C3A63065  32.806  26.838   7.041
 4945POPC   C4A63066  32.759  26.973   7.516
 4945POPC   C1B63067  33.289  26.854   6.244
 4945POPC   C2B63068  33.169  26.818   6.658
 4945POPC   C3B63069  33.323  26.908   7.044
 4945POPC   C4B63070  33.129  27.209   7.266
 4946POPC   NC363071   7.345  38.781   5.672
 4946POPC   PO463072   7.139  38.110   5.482
 4946POPC   GL163073   7.277  38.206   5.874
 4946POPC   GL263074   7.230  38.472   6.071
 4946POPC   C1A63075   7.516  38.078   6.225
 4946POPC   D2A63076   7.577  38.380   6.517
 4946POPC   C3A63077   7.700  38.188   6.882
 4946POPC   C4A63078   7.574  38.224   7.309
 4946POPC   C1B63079   7.378  38.835   6.301
 4946POPC   C2B63080   7.571  38.968   6.621
 4946POPC   C3B63081   7.694  38.696   6.903
 4946POPC   C4B63082   7.337  38.644   7.161
 4947POPC   NC363083  19.018  19.294   5.395
 4947POPC   PO463084  19.170  18.613   5.528
 4947POPC   GL163085  18.946  18.938   5.764
 4947POPC   GL263086  19.112  19.283   5.881
 4947POPC   C1A63087  18.770  19.038   6.165
 4947POPC   D2A63088  19.012  19.218   6.501
 4947POPC   C3A63089  19.129  18.948   6.847
 4947POPC   C4A63090  18.805  18.917   7.113
 4947POPC   C1B63091  19.293  18.976   6.148
 4947POPC   C2B63092  19.508  19.106   6.502
 4947POPC   C3B63093  19.411  19.343   6.869
 4947POPC   C4B63094  19.488  19.277   7.300
 4948POPC   NC363095  17.753   1.895   5.326
 4948POPC   PO463096  17.209   2.231   5.478
 4948POPC   GL163097  17.427   2.192   5.858
 4948POPC   GL263098  17.522   1.837   5.829
 4948POPC   C1A63099  17.684   2.130   6.260
 4948POPC   D2A63100  17.777   1.921   6.685
 4948POPC   C3A63101  17.659   2.198   7.038
 4948POPC   C4A63102  17.357   2.372   7.321
 4948POPC   C1B63103  17.236   1.856   6.196
 4948POPC   C2B63104  17.276   2.082   6.581
 4948POPC   C3B63105  17.260   1.909   6.976
 4948POPC   C4B63106  17.150   1.882   7.372
 4949POPC   NC363107  25.858  30.969   5.227
 4949POPC   PO463108  26.274  30.434   5.413
 4949POPC   GL163109  25.979  30.627   5.745
 4949POPC   GL263110  25.660  30.469   5.685
 4949POPC   C1A63111  26.038  30.817   6.205
 4949POPC   D2A63112  26.336  30.987   6.541
 4949POPC   C3A63113  26.232  30.827   6.954
 4949POPC   C4A63114  26.349  30.599   7.306
 4949POPC   C1B63115  25.529  30.504   6.119
 4949POPC   C2B63116  25.706  30.572   6.528
 4949POPC   C3B63117  25.683  30.759   6.927
 4949POPC   C4B63118  25.545  30.485   7.225
 4950POPC   NC363119  33.204  21.389   5.361
 4950POPC   PO463120  33.227  22.049   5.284
 4950POPC   GL163121  33.317  21.672   5.759
 4950POPC   GL263122  33.080  21.370   5.832
 4950POPC   C1A63123  33.268  21.595   6.246
 4950POPC   D2A63124  33.382  21.624   6.705
 4950POPC   C3A63125  33.083  21.536   7.047
 4950POPC   C4A63126  33.129  21.451   7.485
 4950POPC   C1B63127  33.241  21.069   6.115
 4950POPC   C2B63128  33.252  21.140   6.550
 4950POPC   C3B63129  33.274  21.067   6.975
 4950POPC   C4B63130  32.942  21.025   7.251
 4951POPC   NC363131  18.958   9.132   5.351
 4951POPC   PO463132  18.935   8.415   5.394
 4951POPC   GL163133  18.857   8.805   5.744
 4951POPC   GL263134  19.148   9.062   5.839
 4951POPC   C1A63135  18.786   9.054   6.187
 4951POPC   D2A63136  18.893   9.077   6.659
 4951POPC   C3A63137  18.977   8.957   7.115
 4951POPC   C4A63138  19.293   8.717   7.348
 4951POPC   C1B63139  19.307   9.123   6.311
 4951POPC   C2B63140  19.360   9.310   6.757
 4951POPC   C3B63141  19.411   9.248   7.235
 4951POPC   C4B63142  19.346   9.494   7.680
 4952POPC   NC363143  12.193  14.344   5.515
 4952POPC   PO463144  12.602  13.813   5.522
 4952POPC   GL163145  12.242  14.010   5.897
 4952POPC   GL263146  11.877  14.177   5.874
 4952POPC   C1A63147  12.227  14.351   6.229
 4952POPC   D2A63148  12.274  14.621   6.597
 4952POPC   C3A63149  11.960  14.700   6.941
 4952POPC   C4A63150  12.116  14.559   7.313
 4952POPC   C1B63151  11.763  14.147   6.251
 4952POPC   C2B63152  11.806  14.379   6.585
 4952POPC   C3B63153  11.867  14.201   6.985
 4952POPC   C4B63154  11.671  14.083   7.328
 4953POPC   NC363155  42.946  39.730   5.471
 4953POPC   PO463156  43.268  39.088   5.422
 4953POPC   GL163157  43.107  39.144   5.834
 4953POPC   GL263158  43.057  39.495   5.903
 4953POPC   C1A63159  43.263  39.217   6.258
 4953POPC   D2A63160  43.479  39.021   6.571
 4953POPC   C3A63161  43.284  39.118   6.913
 4953POPC   C4A63162  43.394  39.040   7.304
 4953POPC   C1B63163  42.885  39.681   6.286
 4953POPC   C2B63164  42.634  39.780   6.667
 4953POPC   C3B63165  42.778  39.734   7.090
 4953POPC   C4B63166  43.033  39.415   7.265
 4954POPC   NC363167  38.493  30.701   5.529
 4954POPC   PO463168  38.075  31.303   5.551
 4954POPC   GL163169  38.202  30.969   5.901
 4954POPC   GL263170  38.260  30.570   5.945
 4954POPC   C1A63171  38.539  30.908   6.233
 4954POPC   D2A63172  38.621  30.649   6.602
 4954POPC   C3A63173  38.543  30.767   7.001
 4954POPC   C4A63174  38.492  30.857   7.412
 4954POPC   C1B63175  38.083  30.639   6.321
 4954POPC   C2B63176  38.116  30.585   6.738
 4954POPC   C3B63177  38.020  30.803   7.091
 4954POPC   C4B63178  38.195  30.457   7.268
 4955POPC   NC363179  10.001  27.046   5.343
 4955POPC   PO463180   9.553  26.654   5.580
 4955POPC   GL163181   9.784  26.897   5.823
 4955POPC   GL263182   9.493  27.118   5.791
 4955POPC   C1A63183   9.782  26.703   6.235
 4955POPC   D2A63184   9.508  26.463   6.509
 4955POPC   C3A63185   9.768  26.579   6.844
 4955POPC   C4A63186   9.852  26.503   7.254
 4955POPC   C1B63187   9.648  27.207   6.205
 4955POPC   C2B63188   9.877  27.099   6.571
 4955POPC   C3B63189   9.849  27.098   6.991
 4955POPC   C4B63190   9.916  26.994   7.407
 4956POPC   NC363191  42.783  12.330   5.619
 4956POPC   PO463192  42.204  12.121   5.331
 4956POPC   GL163193  42.406  11.989   5.728
 4956POPC   GL263194  42.314  12.309   5.852
 4956POPC   C1A63195  42.555  12.018   6.179
 4956POPC   D2A63196  42.317  12.087   6.540
 4956POPC   C3A63197  42.546  12.029   6.907
 4956POPC   C4A63198  42.324  11.982   7.260
 4956POPC   C1B63199  42.007  12.364   6.144
 4956POPC   C2B63200  41.917  12.490   6.569
 4956POPC   C3B63201  42.091  12.326   6.952
 4956POPC   C4B63202  42.230  12.530   7.306
 4957POPC   NC363203  38.774   7.531   5.303
 4957POPC   PO463204  38.214   7.211   5.436
 4957POPC   GL163205  38.289   7.412   5.842
 4957POPC   GL263206  38.116   7.741   5.821
 4957POPC   C1A63207  38.491   7.636   6.203
 4957POPC   D2A63208  38.453   7.807   6.626
 4957POPC   C3A63209  38.636   7.532   6.934
 4957POPC   C4A63210  38.681   7.459   7.363
 4957POPC   C1B63211  37.981   7.617   6.240
 4957POPC   C2B63212  38.143   7.401   6.638
 4957POPC   C3B63213  38.144   7.504   7.097
 4957POPC   C4B63214  38.146   7.555   7.549
 4958POPC   NC363215   9.407  10.929   5.593
 4958POPC   PO463216   9.060  11.455   5.370
 4958POPC   GL163217   8.860  11.524   5.781
 4958POPC   GL263218   8.932  11.207   5.913
 4958POPC   C1A63219   8.904  11.584   6.256
 4958POPC   D2A63220   8.799  11.393   6.658
 4958POPC   C3A63221   8.875  11.560   7.072
 4958POPC   C4A63222   8.876  11.418   7.482
 4958POPC   C1B63223   8.939  11.009   6.316
 4958POPC   C2B63224   8.682  10.892   6.687
 4958POPC   C3B63225   8.664  10.853   7.128
 4958POPC   C4B63226   8.999  10.932   7.385
 4959POPC   NC363227  36.033  28.148   5.497
 4959POPC   PO463228  35.950  28.802   5.363
 4959POPC   GL163229  36.127  28.552   5.801
 4959POPC   GL263230  36.350  28.277   5.889
 4959POPC   C1A63231  35.967  28.378   6.234
 4959POPC   D2A63232  36.029  28.363   6.687
 4959POPC   C3A63233  35.776  28.141   7.018
 4959POPC   C4A63234  35.617  28.354   7.408
 4959POPC   C1B63235  36.478  28.220   6.305
 4959POPC   C2B63236  36.379  27.942   6.621
 4959POPC   C3B63237  36.307  28.075   7.002
 4959POPC   C4B63238  36.325  28.515   7.104
 4960POPC   NC363239  36.419   3.883   5.458
 4960POPC   PO463240  35.994   3.386   5.151
 4960POPC   GL163241  36.077   3.541   5.631
 4960POPC   GL263242  35.793   3.724   5.798
 4960POPC   C1A63243  36.232   3.585   6.082
 4960POPC   D2A63244  36.150   3.334   6.483
 4960POPC   C3A63245  36.235   3.535   6.892
 4960POPC   C4A63246  36.268   3.717   7.326
 4960POPC   C1B63247  35.730   3.572   6.211
 4960POPC   C2B63248  35.806   3.712   6.596
 4960POPC   C3B63249  35.740   3.588   6.985
 4960POPC   C4B63250  35.782   3.826   7.304
 4961POPC   NC363251  24.957  29.566   5.517
 4961POPC   PO463252  25.425  29.952   5.196
 4961POPC   GL163253  25.332  29.918   5.673
 4961POPC   GL263254  25.615  29.998   5.886
 4961POPC   C1A63255  25.235  29.692   6.104
 4961POPC   D2A63256  25.112  29.842   6.537
 4961POPC   C3A63257  25.192  29.656   6.925
 4961POPC   C4A63258  25.146  29.712   7.354
 4961POPC   C1B63259  25.594  29.999   6.336
 4961POPC   C2B63260  25.582  29.967   6.775
 4961POPC   C3B63261  25.572  29.976   7.204
 4961POPC   C4B63262  25.616  30.164   7.632
 4962POPC   NC363263   3.072  43.881   5.464
 4962POPC   PO463264   2.533  44.184   5.171
 4962POPC   GL163265   2.568  44.053   5.610
 4962POPC   GL263266   2.828  44.190   5.803
 4962POPC   C1A63267   2.497  43.825   6.017
 4962POPC   D2A63268   2.382  43.719   6.447
 4962POPC   C3A63269   2.451  44.021   6.804
 4962POPC   C4A63270   2.413  43.925   7.235
 4962POPC   C1B63271   2.849  44.104   6.269
 4962POPC   C2B63272   2.882  43.774   6.601
 4962POPC   C3B63273   2.883  43.724   7.043
 4962POPC   C4B63274   2.884  44.087   7.318
 4963POPC   NC363275  21.578   1.772   5.285
 4963POPC   PO463276  21.633   2.485   5.416
 4963POPC   GL163277  21.461   2.157   5.688
 4963POPC   GL263278  21.770   2.046   5.767
 4963POPC   C1A63279  21.366   2.137   6.160
 4963POPC   D2A63280  21.195   2.012   6.597
 4963POPC   C3A63281  21.319   2.088   7.046
 4963POPC   C4A63282  21.091   1.949   7.421
 4963POPC   C1B63283  21.711   1.751   6.115
 4963POPC   C2B63284  21.571   1.622   6.531
 4963POPC   C3B63285  21.749   1.852   6.887
 4963POPC   C4B63286  21.841   1.866   7.338
 4964POPC   NC363287   1.414  32.463   5.285
 4964POPC   PO463288   0.983  32.053   5.544
 4964POPC   GL163289   1.172  32.218   5.849
 4964POPC   GL263290   1.224  31.940   6.028
 4964POPC   C1A63291   1.237  32.457   6.189
 4964POPC   D2A63292   1.399  32.587   6.553
 4964POPC   C3A63293   1.237  32.328   6.840
 4964POPC   C4A63294   1.019  32.437   7.179
 4964POPC   C1B63295   1.016  32.074   6.427
 4964POPC   C2B63296   0.966  31.864   6.810
 4964POPC   C3B63297   1.132  31.934   7.213
 4964POPC   C4B63298   1.453  32.218   7.291
 4965POPC   NC363299  39.638  12.378   5.546
 4965POPC   PO463300  40.162  12.015   5.367
 4965POPC   GL163301  40.071  12.178   5.806
 4965POPC   GL263302  39.813  12.035   5.953
 4965POPC   C1A63303  40.248  12.332   6.187
 4965POPC   D2A63304  40.115  12.125   6.536
 4965POPC   C3A63305  40.275  12.138   6.928
 4965POPC   C4A63306  40.054  11.979   7.268
 4965POPC   C1B63307  39.740  12.400   6.240
 4965POPC   C2B63308  39.735  12.440   6.694
 4965POPC   C3B63309  39.680  12.297   7.112
 4965POPC   C4B63310  39.480  12.158   7.521
 4966POPC   NC363311  16.528  12.500   5.505
 4966POPC   PO463312  16.569  13.118   5.274
 4966POPC   GL163313  16.775  12.984   5.780
 4966POPC   GL263314  16.935  12.632   5.822
 4966POPC   C1A63315  16.693  12.881   6.246
 4966POPC   D2A63316  16.547  13.063   6.650
 4966POPC   C3A63317  16.554  12.867   7.052
 4966POPC   C4A63318  16.691  12.838   7.515
 4966POPC   C1B63319  17.172  12.688   6.226
 4966POPC   C2B63320  17.042  12.830   6.654
 4966POPC   C3B63321  17.034  12.669   7.081
 4966POPC   C4B63322  17.181  12.611   7.509
 4967POPC   NC363323  23.409  32.824   5.483
 4967POPC   PO463324  22.723  32.776   5.292
 4967POPC   GL163325  22.957  33.016   5.643
 4967POPC   GL263326  23.098  32.775   5.868
 4967POPC   C1A63327  22.946  33.225   6.077
 4967POPC   D2A63328  22.893  33.063   6.505
 4967POPC   C3A63329  22.717  33.217   6.882
 4967POPC   C4A63330  22.788  32.988   7.249
 4967POPC   C1B63331  22.979  32.633   6.244
 4967POPC   C2B63332  23.228  32.671   6.579
 4967POPC   C3B63333  23.238  32.935   6.913
 4967POPC   C4B63334  23.251  32.781   7.298
 4968POPC   NC363335  13.509   4.092   5.615
 4968POPC   PO463336  13.729   3.508   5.284
 4968POPC   GL163337  13.677   3.414   5.737
 4968POPC   GL263338  13.950   3.605   5.899
 4968POPC   C1A63339  13.612   3.264   6.170
 4968POPC   D2A63340  13.760   3.451   6.568
 4968POPC   C3A63341  13.681   3.218   6.935
 4968POPC   C4A63342  13.606   3.329   7.317
 4968POPC   C1B63343  13.624   3.777   6.184
 4968POPC   C2B63344  13.591   3.941   6.598
 4968POPC   C3B63345  13.507   3.698   6.963
 4968POPC   C4B63346  13.557   3.827   7.396
 4969POPC   NC363347  30.039  24.546   5.429
 4969POPC   PO463348  29.592  23.988   5.568
 4969POPC   GL163349  29.758  24.253   5.906
 4969POPC   GL263350  30.072  24.370   5.893
 4969POPC   C1A63351  29.896  24.232   6.347
 4969POPC   D2A63352  29.631  24.406   6.645
 4969POPC   C3A63353  29.786  24.413   7.018
 4969POPC   C4A63354  29.800  24.535   7.431
 4969POPC   C1B63355  30.263  24.593   6.221
 4969POPC   C2B63356  30.181  24.521   6.665
 4969POPC   C3B63357  30.181  24.743   7.059
 4969POPC   C4B63358  30.293  24.707   7.484
 4970POPC   NC363359  33.045  28.690   5.356
 4970POPC   PO463360  32.724  28.061   5.481
 4970POPC   GL163361  32.912  28.381   5.759
 4970POPC   GL263362  32.717  28.716   5.746
 4970POPC   C1A63363  33.153  28.325   6.143
 4970POPC   D2A63364  33.164  28.106   6.531
 4970POPC   C3A63365  33.175  28.313   6.926
 4970POPC   C4A63366  33.045  28.181   7.344
 4970POPC   C1B63367  32.879  28.756   6.140
 4970POPC   C2B63368  33.010  28.621   6.528
 4970POPC   C3B63369  32.973  28.816   6.890
 4970POPC   C4B63370  33.026  28.687   7.261
 4971POPC   NC363371  42.971   6.300   5.246
 4971POPC   PO463372  43.146   7.001   5.502
 4971POPC   GL163373  43.163   6.864   5.944
 4971POPC   GL263374  43.206   6.525   5.938
 4971POPC   C1A63375  42.908   6.701   6.327
 4971POPC   D2A63376  42.626   6.846   6.689
 4971POPC   C3A63377  42.750   6.722   7.141
 4971POPC   C4A63378  42.850   6.863   7.571
 4971POPC   C1B63379  43.354   6.428   6.330
 4971POPC   C2B63380  43.288   6.600   6.725
 4971POPC   C3B63381  43.204   6.386   7.096
 4971POPC   C4B63382  43.082   6.423   7.523
 4972POPC   NC363383  11.061  32.122   5.507
 4972POPC   PO463384  11.592  32.545   5.416
 4972POPC   GL163385  11.436  32.415   5.829
 4972POPC   GL263386  11.290  32.123   5.945
 4972POPC   C1A63387  11.279  32.549   6.251
 4972POPC   D2A63388  11.180  32.342   6.653
 4972POPC   C3A63389  11.222  32.538   7.071
 4972POPC   C4A63390  11.383  32.474   7.486
 4972POPC   C1B63391  11.216  31.834   6.256
 4972POPC   C2B63392  11.395  31.870   6.644
 4972POPC   C3B63393  11.293  32.002   7.033
 4972POPC   C4B63394  11.098  31.779   7.290
 4973POPC   NC363395  10.854   6.140   5.627
 4973POPC   PO463396  10.370   5.661   5.468
 4973POPC   GL163397  10.553   5.785   5.845
 4973POPC   GL263398  10.400   6.139   5.903
 4973POPC   C1A63399  10.623   5.818   6.274
 4973POPC   D2A63400  10.317   6.054   6.463
 4973POPC   C3A63401  10.194   6.002   6.863
 4973POPC   C4A63402  10.317   5.791   7.204
 4973POPC   C1B63403  10.703   6.317   6.224
 4973POPC   C2B63404  10.949   6.152   6.547
 4973POPC   C3B63405  10.722   6.027   6.890
 4973POPC   C4B63406  10.817   5.736   7.192
 4974POPC   NC363407   9.200  26.646   5.279
 4974POPC   PO463408   8.705  27.077   5.259
 4974POPC   GL163409   8.731  26.839   5.664
 4974POPC   GL263410   9.083  26.760   5.777
 4974POPC   C1A63411   8.758  26.919   6.140
 4974POPC   D2A63412   8.912  26.652   6.496
 4974POPC   C3A63413   8.932  26.882   6.868
 4974POPC   C4A63414   8.940  26.801   7.294
 4974POPC   C1B63415   9.289  26.814   6.191
 4974POPC   C2B63416   9.396  26.936   6.637
 4974POPC   C3B63417   9.409  26.837   7.090
 4974POPC   C4B63418   9.505  26.734   7.523
 4975POPC   NC363419  19.285  27.550   5.382
 4975POPC   PO463420  18.539  27.645   5.461
 4975POPC   GL163421  18.787  27.665   5.882
 4975POPC   GL263422  19.179  27.597   5.883
 4975POPC   C1A63423  18.960  27.766   6.315
 4975POPC   D2A63424  19.134  27.935   6.724
 4975POPC   C3A63425  18.942  27.730   7.088
 4975POPC   C4A63426  18.824  27.299   7.197
 4975POPC   C1B63427  19.273  27.351   6.261
 4975POPC   C2B63428  19.103  27.375   6.678
 4975POPC   C3B63429  19.309  27.381   7.037
 4975POPC   C4B63430  19.442  27.781   7.162
 4976POPC   NC363431  41.158  31.538   5.644
 4976POPC   PO463432  41.790  31.280   5.463
 4976POPC   GL163433  41.637  31.452   5.843
 4976POPC   GL263434  41.452  31.152   5.863
 4976POPC   C1A63435  41.511  31.616   6.264
 4976POPC   D2A63436  41.507  31.835   6.685
 4976POPC   C3A63437  41.553  31.632   7.123
 4976POPC   C4A63438  41.707  31.716   7.580
 4976POPC   C1B63439  41.725  31.100   6.236
 4976POPC   C2B63440  41.685  31.297   6.651
 4976POPC   C3B63441  41.877  31.181   7.023
 4976POPC   C4B63442  41.622  31.089   7.298
 4977POPC   NC363443  16.615  15.228   5.385
 4977POPC   PO463444  17.177  14.951   5.586
 4977POPC   GL163445  16.858  15.155   5.839
 4977POPC   GL263446  16.504  15.010   5.830
 4977POPC   C1A63447  16.774  15.045   6.258
 4977POPC   D2A63448  17.080  14.991   6.530
 4977POPC   C3A63449  16.953  15.069   6.914
 4977POPC   C4A63450  17.165  14.995   7.284
 4977POPC   C1B63451  16.251  15.068   6.205
 4977POPC   C2B63452  16.338  15.299   6.586
 4977POPC   C3B63453  16.378  15.148   7.004
 4977POPC   C4B63454  16.658  15.080   7.323
 4978POPC   NC363455  26.751  23.898   5.527
 4978POPC   PO463456  26.741  24.590   5.407
 4978POPC   GL163457  26.843  24.452   5.782
 4978POPC   GL263458  27.134  24.250   5.661
 4978POPC   C1A63459  26.786  24.636   6.213
 4978POPC   D2A63460  26.748  24.783   6.657
 4978POPC   C3A63461  27.012  24.548   6.952
 4978POPC   C4A63462  27.103  24.588   7.391
 4978POPC   C1B63463  27.179  24.276   6.113
 4978POPC   C2B63464  27.063  24.056   6.472
 4978POPC   C3B63465  26.909  24.059   6.871
 4978POPC   C4B63466  26.877  24.138   7.277
 4979POPC   NC363467  10.281  20.310   5.439
 4979POPC   PO463468  10.815  20.754   5.434
 4979POPC   GL163469  10.792  20.793   5.872
 4979POPC   GL263470  10.474  20.605   5.937
 4979POPC   C1A63471  10.858  20.687   6.308
 4979POPC   D2A63472  10.479  20.574   6.524
 4979POPC   C3A63473  10.474  20.724   6.956
 4979POPC   C4A63474  10.888  20.869   7.114
 4979POPC   C1B63475  10.268  20.224   6.108
 4979POPC   C2B63476  10.137  20.172   6.513
 4979POPC   C3B63477  10.300  20.202   6.908
 4979POPC   C4B63478  10.289  20.372   7.317
 4980POPC   NC363479  30.643  23.836   5.439
 4980POPC   PO463480  31.012  23.225   5.561
 4980POPC   GL163481  30.734  23.482   5.805
 4980POPC   GL263482  30.902  23.800   5.863
 4980POPC   C1A63483  30.519  23.662   6.160
 4980POPC   D2A63484  30.802  23.579   6.483
 4980POPC   C3A63485  30.797  23.766   6.853
 4980POPC   C4A63486  30.663  23.625   7.214
 4980POPC   C1B63487  30.933  24.033   6.232
 4980POPC   C2B63488  31.167  24.032   6.595
 4980POPC   C3B63489  31.039  24.210   6.970
 4980POPC   C4B63490  30.704  24.154   7.211
 4981POPC   NC363491  29.004  32.464   4.962
 4981POPC   PO463492  29.099  31.951   5.388
 4981POPC   GL163493  28.993  32.068   5.793
 4981POPC   GL263494  29.353  32.106   5.845
 4981POPC   C1A63495  28.995  32.297   6.180
 4981POPC   D2A63496  29.173  32.567   6.494
 4981POPC   C3A63497  29.142  32.341   6.879
 4981POPC   C4A63498  29.226  32.419   7.288
 4981POPC   C1B63499  29.524  32.284   6.182
 4981POPC   C2B63500  29.540  32.125   6.550
 4981POPC   C3B63501  29.611  32.177   6.957
 4981POPC   C4B63502  29.382  31.927   7.195
 4982POPC   NC363503  22.767  43.071   5.393
 4982POPC   PO463504  23.405  43.117   5.611
 4982POPC   GL163505  23.055  42.959   5.822
 4982POPC   GL263506  22.722  43.169   5.876
 4982POPC   C1A63507  23.051  43.097   6.239
 4982POPC   D2A63508  22.828  43.023   6.583
 4982POPC   C3A63509  23.134  42.959   6.883
 4982POPC   C4A63510  23.083  43.113   7.268
 4982POPC   C1B63511  22.612  42.780   6.103
 4982POPC   C2B63512  22.519  42.612   6.530
 4982POPC   C3B63513  22.712  42.673   6.949
 4982POPC   C4B63514  22.588  42.762   7.358
 4983POPC   NC363515  20.052  14.211   5.480
 4983POPC   PO463516  19.943  14.832   5.367
 4983POPC   GL163517  19.804  14.595   5.761
 4983POPC   GL263518  19.594  14.285   5.735
 4983POPC   C1A63519  19.957  14.351   6.132
 4983POPC   D2A63520  20.070  14.466   6.533
 4983POPC   C3A63521  20.159  14.241   6.848
 4983POPC   C4A63522  19.993  14.218   7.252
 4983POPC   C1B63523  19.457  14.247   6.159
 4983POPC   C2B63524  19.562  14.482   6.505
 4983POPC   C3B63525  19.611  14.318   6.897
 4983POPC   C4B63526  19.313  14.304   7.251
 4984POPC   NC363527  42.762  30.789   5.472
 4984POPC   PO463528  42.074  30.467   5.457
 4984POPC   GL163529  42.229  30.729   5.780
 4984POPC   GL263530  42.523  30.590   5.874
 4984POPC   C1A63531  42.207  30.764   6.240
 4984POPC   D2A63532  42.194  30.592   6.654
 4984POPC   C3A63533  42.303  30.860   6.994
 4984POPC   C4A63534  42.677  30.828   7.237
 4984POPC   C1B63535  42.568  30.395   6.273
 4984POPC   C2B63536  42.799  30.204   6.587
 4984POPC   C3B63537  42.634  30.453   6.890
 4984POPC   C4B63538  42.299  30.375   7.161
 4985POPC   NC363539   0.232   5.234   5.544
 4985POPC   PO463540   0.701   4.795   5.444
 4985POPC   GL163541   0.506   4.925   5.834
 4985POPC   GL263542   0.722   5.122   5.977
 4985POPC   C1A63543   0.215   5.018   6.185
 4985POPC   D2A63544   0.213   5.172   6.601
 4985POPC   C3A63545   0.235   4.955   6.978
 4985POPC   C4A63546   0.301   5.093   7.404
 4985POPC   C1B63547   0.691   5.254   6.377
 4985POPC   C2B63548   0.711   5.112   6.789
 4985POPC   C3B63549   0.703   5.314   7.180
 4985POPC   C4B63550   0.746   5.212   7.626
 4986POPC   NC363551  37.825  31.846   5.614
 4986POPC   PO463552  37.368  31.413   5.393
 4986POPC   GL163553  37.542  31.486   5.828
 4986POPC   GL263554  37.443  31.787   5.953
 4986POPC   C1A63555  37.689  31.358   6.241
 4986POPC   D2A63556  37.504  31.340   6.654
 4986POPC   C3A63557  37.820  31.334   6.944
 4986POPC   C4A63558  37.841  31.254   7.381
 4986POPC   C1B63559  37.769  31.866   6.243
 4986POPC   C2B63560  37.976  31.692   6.562
 4986POPC   C3B63561  37.769  31.851   6.885
 4986POPC   C4B63562  37.633  31.702   7.240
 4987POPC   NC363563   2.276   5.585   5.070
 4987POPC   PO463564   1.915   5.974   5.390
 4987POPC   GL163565   1.922   6.019   5.822
 4987POPC   GL263566   1.594   6.197   5.868
 4987POPC   C1A63567   2.145   5.856   6.208
 4987POPC   D2A63568   2.208   5.579   6.604
 4987POPC   C3A63569   1.973   5.674   6.995
 4987POPC   C4A63570   2.168   5.975   7.233
 4987POPC   C1B63571   1.745   6.179   6.281
 4987POPC   C2B63572   1.969   6.070   6.659
 4987POPC   C3B63573   1.754   6.209   7.022
 4987POPC   C4B63574   1.759   6.270   7.435
 4988POPC   NC363575   0.555  26.642   5.376
 4988POPC   PO463576   0.045  26.969   5.428
 4988POPC   GL163577   0.325  26.893   5.781
 4988POPC   GL263578   0.647  27.074   5.720
 4988POPC   C1A63579   0.452  26.772   6.212
 4988POPC   D2A63580   0.640  27.068   6.545
 4988POPC   C3A63581   0.476  27.031   6.965
 4988POPC   C4A63582   0.273  26.658   7.108
 4988POPC   C1B63583   0.907  26.956   6.088
 4988POPC   C2B63584   0.881  26.606   6.416
 4988POPC   C3B63585   0.642  26.473   6.791
 4988POPC   C4B63586   0.753  26.537   7.233
 4989POPC   NC363587  37.113  18.351   5.449
 4989POPC   PO463588  36.589  17.999   5.528
 4989POPC   GL163589  36.977  17.970   5.845
 4989POPC   GL263590  37.030  18.331   5.952
 4989POPC   C1A63591  37.012  18.011   6.331
 4989POPC   D2A63592  36.805  18.287   6.627
 4989POPC   C3A63593  36.903  18.173   7.031
 4989POPC   C4A63594  36.580  18.249   7.359
 4989POPC   C1B63595  37.171  18.509   6.370
 4989POPC   C2B63596  37.173  18.578   6.845
 4989POPC   C3B63597  36.990  18.566   7.326
 4989POPC   C4B63598  36.876  18.510   7.777
 4990POPC   NC363599   7.690   2.045   5.421
 4990POPC   PO463600   7.222   1.569   5.247
 4990POPC   GL163601   7.281   1.882   5.673
 4990POPC   GL263602   7.219   2.239   5.745
 4990POPC   C1A63603   7.434   1.936   6.124
 4990POPC   D2A63604   7.377   1.625   6.469
 4990POPC   C3A63605   7.446   1.655   6.924
 4990POPC   C4A63606   7.695   1.804   7.263
 4990POPC   C1B63607   7.051   2.267   6.188
 4990POPC   C2B63608   7.252   2.142   6.574
 4990POPC   C3B63609   7.309   2.160   6.991
 4990POPC   C4B63610   7.073   2.333   7.288
 4991POPC   NC363611   8.378  13.864   5.483
 4991POPC   PO463612   7.995  13.412   5.171
 4991POPC   GL163613   7.975  13.570   5.683
 4991POPC   GL263614   8.293  13.654   5.933
 4991POPC   C1A63615   7.880  13.477   6.151
 4991POPC   D2A63616   7.976  13.237   6.517
 4991POPC   C3A63617   8.045  13.406   6.944
 4991POPC   C4A63618   7.884  13.791   7.119
 4991POPC   C1B63619   8.286  13.818   6.309
 4991POPC   C2B63620   8.166  13.838   6.696
 4991POPC   C3B63621   8.409  13.754   7.026
 4991POPC   C4B63622   8.569  13.739   7.423
 4992POPC   NC363623  31.383   4.517   5.084
 4992POPC   PO463624  31.491   5.175   5.379
 4992POPC   GL163625  31.449   4.945   5.807
 4992POPC   GL263626  31.505   5.238   5.914
 4992POPC   C1A63627  31.183   5.036   6.231
 4992POPC   D2A63628  31.261   4.853   6.636
 4992POPC   C3A63629  31.510   4.758   7.019
 4992POPC   C4A63630  31.296   4.749   7.468
 4992POPC   C1B63631  31.681   5.044   6.305
 4992POPC   C2B63632  31.709   5.179   6.740
 4992POPC   C3B63633  31.714   5.185   7.197
 4992POPC   C4B63634  31.769   5.237   7.625
 4993POPC   NC363635  18.457  17.071   5.574
 4993POPC   PO463636  18.154  17.696   5.438
 4993POPC   GL163637  18.272  17.507   5.824
 4993POPC   GL263638  18.080  17.193   5.892
 4993POPC   C1A63639  18.479  17.616   6.193
 4993POPC   D2A63640  18.512  17.448   6.622
 4993POPC   C3A63641  18.348  17.719   6.924
 4993POPC   C4A63642  18.202  17.697   7.327
 4993POPC   C1B63643  18.120  17.258   6.317
 4993POPC   C2B63644  18.154  17.088   6.702
 4993POPC   C3B63645  18.173  17.253   7.074
 4993POPC   C4B63646  18.342  17.214   7.458
 4994POPC   NC363647  40.401  16.787   5.628
 4994POPC   PO463648  40.926  16.487   5.251
 4994POPC   GL163649  40.906  16.743   5.681
 4994POPC   GL263650  40.798  16.524   5.911
 4994POPC   C1A63651  40.938  16.977   6.104
 4994POPC   D2A63652  40.959  16.866   6.539
 4994POPC   C3A63653  40.797  17.060   6.923
 4994POPC   C4A63654  40.896  16.883   7.323
 4994POPC   C1B63655  40.540  16.683   6.254
 4994POPC   C2B63656  40.483  16.675   6.685
 4994POPC   C3B63657  40.484  16.599   7.111
 4994POPC   C4B63658  40.211  16.802   7.372
 4995POPC   NC363659  37.909  17.749   5.390
 4995POPC   PO463660  37.499  17.216   5.450
 4995POPC   GL163661  37.678  17.454   5.780
 4995POPC   GL263662  37.519  17.743   5.824
 4995POPC   C1A63663  37.846  17.511   6.209
 4995POPC   D2A63664  38.076  17.652   6.592
 4995POPC   C3A63665  37.833  17.711   6.988
 4995POPC   C4A63666  37.872  17.569   7.428
 4995POPC   C1B63667  37.351  17.649   6.223
 4995POPC   C2B63668  37.501  17.506   6.612
 4995POPC   C3B63669  37.346  17.482   6.997
 4995POPC   C4B63670  37.383  17.771   7.293
 4996POPC   NC363671  16.560  34.855   5.515
 4996POPC   PO463672  16.424  34.201   5.490
 4996POPC   GL163673  16.678  34.442   5.836
 4996POPC   GL263674  16.938  34.755   5.849
 4996POPC   C1A63675  16.779  34.539   6.283
 4996POPC   D2A63676  16.707  34.406   6.692
 4996POPC   C3A63677  16.584  34.706   6.995
 4996POPC   C4A63678  16.653  34.628   7.403
 4996POPC   C1B63679  17.151  34.920   6.246
 4996POPC   C2B63680  17.024  34.825   6.697
 4996POPC   C3B63681  17.084  34.778   7.152
 4996POPC   C4B63682  17.089  34.827   7.599
 4997POPC   NC363683  29.965   8.002   5.411
 4997POPC   PO463684  29.654   8.601   5.643
 4997POPC   GL163685  29.974   8.379   5.878
 4997POPC   GL263686  30.076   8.043   5.899
 4997POPC   C1A63687  30.065   8.436   6.288
 4997POPC   D2A63688  29.857   8.391   6.673
 4997POPC   C3A63689  30.096   8.183   6.975
 4997POPC   C4A63690  30.037   8.062   7.386
 4997POPC   C1B63691  29.783   7.911   6.219
 4997POPC   C2B63692  29.524   7.975   6.604
 4997POPC   C3B63693  29.595   8.093   7.053
 4997POPC   C4B63694  29.600   7.828   7.457
 4998POPC   NC363695  31.495  19.390   5.595
 4998POPC   PO463696  31.490  20.048   5.502
 4998POPC   GL163697  31.460  19.991   5.882
 4998POPC   GL263698  31.297  19.687   5.947
 4998POPC   C1A63699  31.741  20.041   6.205
 4998POPC   D2A63700  31.674  20.232   6.602
 4998POPC   C3A63701  31.630  20.020   7.003
 4998POPC   C4A63702  31.894  19.863   7.303
 4998POPC   C1B63703  31.288  19.879   6.367
 4998POPC   C2B63704  31.217  19.789   6.798
 4998POPC   C3B63705  31.177  19.848   7.242
 4998POPC   C4B63706  31.198  19.614   7.682
 4999POPC   NC363707  29.775   7.233   5.459
 4999POPC   PO463708  30.286   7.665   5.584
 4999POPC   GL163709  29.995   7.515   5.871
 4999POPC   GL263710  30.068   7.164   5.858
 4999POPC   C1A63711  29.935   7.425   6.318
 4999POPC   D2A63712  29.717   7.508   6.671
 4999POPC   C3A63713  29.866   7.651   7.062
 4999POPC   C4A63714  29.695   7.309   7.283
 4999POPC   C1B63715  30.168   6.999   6.219
 4999POPC   C2B63716  30.253   7.070   6.611
 4999POPC   C3B63717  30.123   7.231   6.969
 4999POPC   C4B63718  30.139   7.061   7.356
 5000POPC   NC363719  39.276  24.920   5.376
 5000POPC   PO463720  38.913  25.480   5.192
 5000POPC   GL163721  39.076  25.298   5.639
 5000POPC   GL263722  39.221  25.505   5.874
 5000POPC   C1A63723  39.212  25.051   6.042
 5000POPC   D2A63724  39.323  25.225   6.453
 5000POPC   C3A63725  39.268  25.191   6.915
 5000POPC   C4A63726  39.453  25.374   7.307
 5000POPC   C1B63727  39.112  25.661   6.267
 5000POPC   C2B63728  39.001  25.553   6.673
 5000POPC   C3B63729  38.835  25.567   7.062
 5000POPC   C4B63730  38.966  25.301   7.343
 5001POPC   NC363731  23.304  31.005   5.633
 5001POPC   PO463732  22.740  30.810   5.352
 5001POPC   GL163733  22.869  30.691   5.786
 5001POPC   GL263734  22.635  30.424   5.876
 5001POPC   C1A63735  23.162  30.670   6.177
 5001POPC   D2A63736  23.211  30.875   6.595
 5001POPC   C3A63737  23.165  30.708   7.027
 5001POPC   C4A63738  23.204  30.952   7.428
 5001POPC   C1B63739  22.661  30.680   6.279
 5001POPC   C2B63740  22.711  30.841   6.740
 5001POPC   C3B63741  22.664  30.694   7.192
 5001POPC   C4B63742  22.577  30.575   7.641
 5002POPC   NC363743  30.398   4.528   5.257
 5002POPC   PO463744  31.041   4.208   5.192
 5002POPC   GL163745  30.793   4.212   5.582
 5002POPC   GL263746  30.540   4.439   5.718
 5002POPC   C1A63747  30.869   4.224   6.041
 5002POPC   D2A63748  30.632   4.109   6.407
 5002POPC   C3A63749  30.756   4.173   6.805
 5002POPC   C4A63750  30.739   4.176   7.230
 5002POPC   C1B63751  30.423   4.496   6.130
 5002POPC   C2B63752  30.352   4.469   6.594
 5002POPC   C3B63753  30.307   4.351   7.015
 5002POPC   C4B63754  30.313   4.509   7.427
 5003POPC   NC363755  39.692   6.059   5.183
 5003POPC   PO463756  40.306   5.789   5.345
 5003POPC   GL163757  40.204   6.022   5.711
 5003POPC   GL263758  39.994   5.751   5.844
 5003POPC   C1A63759  40.323   6.078   6.155
 5003POPC   D2A63760  40.186   6.338   6.540
 5003POPC   C3A63761  40.188   6.120   6.910
 5003POPC   C4A63762  39.999   6.191   7.294
 5003POPC   C1B63763  39.831   5.915   6.252
 5003POPC   C2B63764  39.840   5.772   6.688
 5003POPC   C3B63765  39.733   5.799   7.120
 5003POPC   C4B63766  39.829   5.573   7.481
 5004POPC   NC363767   9.285  22.934   5.403
 5004POPC   PO463768   8.660  22.941   5.426
 5004POPC   GL163769   8.863  22.969   5.824
 5004POPC   GL263770   8.873  22.615   5.825
 5004POPC   C1A63771   9.135  22.882   6.197
 5004POPC   D2A63772   9.311  23.065   6.556
 5004POPC   C3A63773   9.188  22.965   6.970
 5004POPC   C4A63774   8.904  23.133   7.256
 5004POPC   C1B63775   8.684  22.651   6.225
 5004POPC   C2B63776   8.812  22.815   6.626
 5004POPC   C3B63777   8.819  22.618   7.032
 5004POPC   C4B63778   8.630  22.769   7.433
 5005POPC   NC363779   5.706  15.448   5.552
 5005POPC   PO463780   5.862  14.925   5.283
 5005POPC   GL163781   5.984  15.094   5.734
 5005POPC   GL263782   6.222  15.420   5.665
 5005POPC   C1A63783   5.759  15.226   6.151
 5005POPC   D2A63784   5.530  15.111   6.529
 5005POPC   C3A63785   5.715  15.261   6.897
 5005POPC   C4A63786   5.630  15.137   7.321
 5005POPC   C1B63787   6.253  15.391   6.105
 5005POPC   C2B63788   6.134  15.332   6.510
 5005POPC   C3B63789   6.182  15.067   6.817
 5005POPC   C4B63790   6.122  15.210   7.194
 5006POPC   NC363791  33.741   3.184   5.265
 5006POPC   PO463792  33.467   3.718   5.420
 5006POPC   GL163793  33.711   3.696   5.761
 5006POPC   GL263794  33.777   3.350   5.766
 5006POPC   C1A63795  33.902   3.850   6.122
 5006POPC   D2A63796  33.927   3.640   6.526
 5006POPC   C3A63797  33.699   3.788   6.906
 5006POPC   C4A63798  33.851   3.805   7.341
 5006POPC   C1B63799  33.537   3.456   6.168
 5006POPC   C2B63800  33.523   3.306   6.586
 5006POPC   C3B63801  33.818   3.290   6.938
 5006POPC   C4B63802  33.644   3.360   7.348
 5007POPC   NC363803   0.136   9.486   5.433
 5007POPC   PO463804  44.804  10.059   5.278
 5007POPC   GL163805  44.662   9.854   5.687
 5007POPC   GL263806  44.636   9.480   5.724
 5007POPC   C1A63807  44.410   9.885   6.087
 5007POPC   D2A63808  44.332   9.869   6.542
 5007POPC   C3A63809  44.594   9.997   6.862
 5007POPC   C4A63810  44.673   9.874   7.273
 5007POPC   C1B63811  44.789   9.517   6.139
 5007POPC   C2B63812  44.828   9.661   6.564
 5007POPC   C3B63813   0.023   9.636   6.969
 5007POPC   C4B63814  44.897   9.392   7.296
 5008POPC   NC363815  29.482  31.699   5.395
 5008POPC   PO463816  30.059  31.421   5.358
 5008POPC   GL163817  29.925  31.524   5.763
 5008POPC   GL263818  29.802  31.869   5.752
 5008POPC   C1A63819  30.099  31.504   6.201
 5008POPC   D2A63820  29.983  31.295   6.594
 5008POPC   C3A63821  30.201  31.462   6.927
 5008POPC   C4A63822  30.241  31.644   7.340
 5008POPC   C1B63823  29.623  31.673   6.144
 5008POPC   C2B63824  29.515  31.536   6.563
 5008POPC   C3B63825  29.683  31.541   6.996
 5008POPC   C4B63826  29.741  31.659   7.453
 5009POPC   NC363827  43.959  32.787   5.543
 5009POPC   PO463828  44.176  33.484   5.488
 5009POPC   GL163829  43.972  33.232   5.814
 5009POPC   GL263830  44.217  32.977   5.929
 5009POPC   C1A63831  43.818  33.093   6.236
 5009POPC   D2A63832  43.839  33.280   6.650
 5009POPC   C3A63833  43.556  33.134   6.942
 5009POPC   C4A63834  43.633  32.922   7.327
 5009POPC   C1B63835  44.209  32.617   6.210
 5009POPC   C2B63836  44.060  32.580   6.620
 5009POPC   C3B63837  44.058  32.898   6.927
 5009POPC   C4B63838  44.164  32.858   7.329
 5010POPC   NC363839   4.029  13.846   5.228
 5010POPC   PO463840   4.446  13.306   5.453
 5010POPC   GL163841   4.318  13.650   5.733
 5010POPC   GL263842   4.595  13.844   5.817
 5010POPC   C1A63843   4.225  13.857   6.151
 5010POPC   D2A63844   4.157  13.707   6.544
 5010POPC   C3A63845   4.212  13.902   6.930
 5010POPC   C4A63846   4.279  13.628   7.259
 5010POPC   C1B63847   4.647  13.549   6.122
 5010POPC   C2B63848   4.535  13.347   6.472
 5010POPC   C3B63849   4.573  13.499   6.852
 5010POPC   C4B63850   4.697  13.299   7.246
 5011POPC   NC363851   7.644  20.287   5.421
 5011POPC   PO463852   7.266  20.933   5.522
 5011POPC   GL163853   7.395  20.611   5.794
 5011POPC   GL263854   7.290  20.842   6.035
 5011POPC   C1A63855   7.369  20.324   6.187
 5011POPC   D2A63856   7.315  20.054   6.575
 5011POPC   C3A63857   7.317  20.233   6.994
 5011POPC   C4A63858   7.618  20.539   7.164
 5011POPC   C1B63859   7.578  20.774   6.322
 5011POPC   C2B63860   7.456  20.599   6.662
 5011POPC   C3B63861   7.499  20.940   6.894
 5011POPC   C4B63862   7.489  21.066   7.281
 5012POPC   NC363863  28.204  32.996   5.239
 5012POPC   PO463864  28.551  33.372   5.682
 5012POPC   GL163865  28.468  32.939   5.844
 5012POPC   GL263866  28.161  32.742   5.720
 5012POPC   C1A63867  28.383  32.895   6.312
 5012POPC   D2A63868  28.506  32.809   6.759
 5012POPC   C3A63869  28.618  33.245   6.957
 5012POPC   C4A63870  28.492  33.436   7.361
 5012POPC   C1B63871  28.001  33.076   5.993
 5012POPC   C2B63872  27.926  33.054   6.435
 5012POPC   C3B63873  28.150  33.162   6.758
 5012POPC   C4B63874  28.209  33.038   7.178
 5013POPC   NC363875  26.065  32.691   5.404
 5013POPC   PO463876  26.087  33.314   5.379
 5013POPC   GL163877  25.850  33.129   5.709
 5013POPC   GL263878  26.188  33.021   5.814
 5013POPC   C1A63879  25.701  33.321   6.114
 5013POPC   D2A63880  25.874  33.369   6.518
 5013POPC   C3A63881  25.834  33.036   6.810
 5013POPC   C4A63882  25.524  33.204   7.097
 5013POPC   C1B63883  26.060  32.952   6.235
 5013POPC   C2B63884  26.308  33.097   6.559
 5013POPC   C3B63885  26.378  32.973   6.937
 5013POPC   C4B63886  26.088  32.779   7.215
 5014POPC   NC363887   0.798  17.406   5.662
 5014POPC   PO463888   0.243  17.584   5.234
 5014POPC   GL163889   0.325  17.583   5.703
 5014POPC   GL263890   0.276  17.228   5.727
 5014POPC   C1A63891   0.454  17.493   6.187
 5014POPC   D2A63892   0.602  17.305   6.591
 5014POPC   C3A63893   0.559  17.521   7.020
 5014POPC   C4A63894   0.263  17.663   7.342
 5014POPC   C1B63895   0.031  17.232   6.112
 5014POPC   C2B63896   0.150  17.039   6.511
 5014POPC   C3B63897   0.213  17.156   6.921
 5014POPC   C4B63898  44.996  17.230   7.300
 5015POPC   NC363899   4.367  19.473   5.051
 5015POPC   PO463900   4.411  20.032   5.390
 5015POPC   GL163901   4.537  20.094   5.797
 5015POPC   GL263902   4.274  19.829   5.858
 5015POPC   C1A63903   4.587  19.981   6.226
 5015POPC   D2A63904   4.311  19.733   6.469
 5015POPC   C3A63905   4.333  19.860   6.890
 5015POPC   C4A63906   4.354  19.814   7.311
 5015POPC   C1B63907   3.994  19.556   6.083
 5015POPC   C2B63908   3.902  19.427   6.527
 5015POPC   C3B63909   3.749  19.532   6.969
 5015POPC   C4B63910   3.936  19.542   7.411
 5016POPC   NC363911  31.186  11.540   5.527
 5016POPC   PO463912  31.603  11.066   5.340
 5016POPC   GL163913  31.362  11.044   5.722
 5016POPC   GL263914  31.550  11.283   5.937
 5016POPC   C1A63915  31.176  11.006   6.146
 5016POPC   D2A63916  31.387  11.002   6.535
 5016POPC   C3A63917  31.390  11.320   6.839
 5016POPC   C4A63918  31.308  11.059   7.181
 5016POPC   C1B63919  31.376  11.505   6.311
 5016POPC   C2B63920  31.180  11.765   6.643
 5016POPC   C3B63921  31.277  11.817   7.094
 5016POPC   C4B63922  31.516  11.491   7.331
 5017POPC   NC363923  20.973  40.503   5.601
 5017POPC   PO463924  20.586  40.947   5.200
 5017POPC   GL163925  20.568  40.934   5.656
 5017POPC   GL263926  20.339  41.124   5.855
 5017POPC   C1A63927  20.490  40.690   6.055
 5017POPC   D2A63928  20.413  40.740   6.525
 5017POPC   C3A63929  20.645  40.672   6.919
 5017POPC   C4A63930  20.747  40.624   7.351
 5017POPC   C1B63931  20.584  41.151   6.241
 5017POPC   C2B63932  20.871  41.024   6.591
 5017POPC   C3B63933  20.904  41.097   7.056
 5017POPC   C4B63934  20.767  41.127   7.502
 5018POPC   NC363935  31.899  33.624   5.434
 5018POPC   PO463936  32.584  33.502   5.524
 5018POPC   GL163937  32.272  33.717   5.802
 5018POPC   GL263938  32.083  34.033   5.689
 5018POPC   C1A63939  32.358  33.809   6.235
 5018POPC   D2A63940  32.273  33.990   6.630
 5018POPC   C3A63941  31.971  33.779   6.837
 5018POPC   C4A63942  32.137  33.535   7.131
 5018POPC   C1B63943  31.972  34.152   6.120
 5018POPC   C2B63944  31.838  34.234   6.548
 5018POPC   C3B63945  31.999  34.255   7.003
 5018POPC   C4B63946  31.993  34.035   7.415
 5019POPC   NC363947  16.164  17.275   5.202
 5019POPC   PO463948  15.911  17.824   5.419
 5019POPC   GL163949  16.078  17.517   5.727
 5019POPC   GL263950  15.796  17.297   5.687
 5019POPC   C1A63951  16.171  17.643   6.169
 5019POPC   D2A63952  15.897  17.763   6.515
 5019POPC   C3A63953  16.055  17.584   6.891
 5019POPC   C4A63954  16.078  17.777   7.289
 5019POPC   C1B63955  15.695  17.441   6.122
 5019POPC   C2B63956  15.806  17.243   6.510
 5019POPC   C3B63957  15.759  17.167   6.928
 5019POPC   C4B63958  15.651  17.494   7.236
 5020POPC   NC363959  36.346   2.994   5.367
 5020POPC   PO463960  36.095   2.400   5.629
 5020POPC   GL163961  36.044   2.803   5.864
 5020POPC   GL263962  36.304   3.051   5.889
 5020POPC   C1A63963  36.090   2.845   6.324
 5020POPC   D2A63964  36.052   2.490   6.605
 5020POPC   C3A63965  35.984   2.598   7.025
 5020POPC   C4A63966  35.929   3.074   7.073
 5020POPC   C1B63967  36.491   2.621   6.109
 5020POPC   C2B63968  36.539   2.640   6.561
 5020POPC   C3B63969  36.341   2.938   6.813
 5020POPC   C4B63970  36.431   3.177   7.194
 5021POPC   NC363971  15.021  33.200   5.441
 5021POPC   PO463972  15.153  32.576   5.263
 5021POPC   GL163973  15.309  32.791   5.744
 5021POPC   GL263974  15.124  33.092   5.932
 5021POPC   C1A63975  15.486  32.909   6.227
 5021POPC   D2A63976  15.385  33.172   6.639
 5021POPC   C3A63977  15.278  32.942   7.081
 5021POPC   C4A63978  15.033  32.958   7.516
 5021POPC   C1B63979  14.936  33.071   6.357
 5021POPC   C2B63980  14.872  33.055   6.794
 5021POPC   C3B63981  14.942  33.326   7.126
 5021POPC   C4B63982  14.673  33.628   7.300
 5022POPC   NC363983  15.761  13.005   5.388
 5022POPC   PO463984  16.312  12.849   5.721
 5022POPC   GL163985  15.912  12.782   5.842
 5022POPC   GL263986  15.802  12.524   5.628
 5022POPC   C1A63987  15.864  12.851   6.274
 5022POPC   D2A63988  16.101  12.772   6.660
 5022POPC   C3A63989  16.024  12.994   6.998
 5022POPC   C4A63990  15.844  13.119   7.340
 5022POPC   C1B63991  15.702  12.381   6.076
 5022POPC   C2B63992  15.685  12.414   6.553
 5022POPC   C3B63993  15.807  12.469   6.997
 5022POPC   C4B63994  15.689  12.651   7.388
 5023POPC   NC363995  27.932  43.719   5.614
 5023POPC   PO463996  27.449  44.192   5.414
 5023POPC   GL163997  27.536  44.001   5.832
 5023POPC   GL263998  27.270  43.765   5.935
 5023POPC   C1A63999  27.656  43.865   6.270
 5023POPC   D2A64000  27.981  43.928   6.614
 5023POPC   C3A64001  27.761  43.921   7.010
 5023POPC   C4A64002  27.801  43.812   7.422
 5023POPC   C1B64003  27.158  44.003   6.345
 5023POPC   C2B64004  27.062  44.207   6.763
 5023POPC   C3B64005  27.274  44.414   7.126
 5023POPC   C4B64006  27.475  44.190   7.496
 5024POPC   NC364007  22.184  36.624   5.294
 5024POPC   PO464008  21.907  35.994   5.580
 5024POPC   GL164009  22.138  36.165   5.883
 5024POPC   GL264010  22.251  36.477   5.793
 5024POPC   C1A64011  22.285  36.017   6.274
 5024POPC   D2A64012  22.063  35.864   6.609
 5024POPC   C3A64013  22.233  36.001   6.958
 5024POPC   C4A64014  21.929  35.992   7.247
 5024POPC   C1B64015  22.284  36.515   6.238
 5024POPC   C2B64016  22.082  36.411   6.626
 5024POPC   C3B64017  22.063  36.455   7.084
 5024POPC   C4B64018  22.481  36.385   7.264
 5025POPC   NC364019  42.694   7.046   5.590
 5025POPC   PO464020  42.987   7.583   5.197
 5025POPC   GL164021  42.990   7.517   5.659
 5025POPC   GL264022  43.310   7.693   5.751
 5025POPC   C1A64023  42.884   7.454   6.129
 5025POPC   D2A64024  43.031   7.168   6.482
 5025POPC   C3A64025  42.906   7.224   6.922
 5025POPC   C4A64026  43.008   7.304   7.354
 5025POPC   C1B64027  43.389   7.576   6.193
 5025POPC   C2B64028  43.181   7.637   6.600
 5025POPC   C3B64029  43.157   7.682   7.050
 5025POPC   C4B64030  43.368   7.929   7.344
 5026POPC   NC364031  40.036  39.026   5.473
 5026POPC   PO464032  39.939  39.661   5.415
 5026POPC   GL164033  40.002  39.452   5.815
 5026POPC   GL264034  39.739  39.266   5.795
 5026POPC   C1A64035  40.126  39.325   6.243
 5026POPC   D2A64036  39.960  39.289   6.661
 5026POPC   C3A64037  40.250  39.198   6.971
 5026POPC   C4A64038  40.294  39.305   7.417
 5026POPC   C1B64039  39.651  39.112   6.178
 5026POPC   C2B64040  39.723  38.855   6.480
 5026POPC   C3B64041  39.806  38.851   6.912
 5026POPC   C4B64042  39.806  39.200   7.216
 5027POPC   NC364043   5.553  13.685   5.521
 5027POPC   PO464044   6.261  13.751   5.542
 5027POPC   GL164045   5.972  13.763   5.866
 5027POPC   GL264046   5.851  13.446   5.851
 5027POPC   C1A64047   5.912  13.780   6.319
 5027POPC   D2A64048   5.759  13.568   6.703
 5027POPC   C3A64049   5.774  13.795   7.089
 5027POPC   C4A64050   6.035  13.727   7.458
 5027POPC   C1B64051   5.607  13.368   6.231
 5027POPC   C2B64052   5.401  13.209   6.608
 5027POPC   C3B64053   5.625  13.104   7.005
 5027POPC   C4B64054   5.957  13.261   7.258
 5028POPC   NC364055  34.053  25.174   5.535
 5028POPC   PO464056  34.577  25.628   5.403
 5028POPC   GL164057  34.514  25.441   5.794
 5028POPC   GL264058  34.187  25.497   5.928
 5028POPC   C1A64059  34.643  25.271   6.215
 5028POPC   D2A64060  34.488  25.201   6.640
 5028POPC   C3A64061  34.785  25.136   6.973
 5028POPC   C4A64062  34.818  25.345   7.371
 5028POPC   C1B64063  33.988  25.444   6.347
 5028POPC   C2B64064  34.042  25.390   6.806
 5028POPC   C3B64065  34.337  25.316   7.167
 5028POPC   C4B64066  34.305  25.517   7.573
 5029POPC   NC364067   0.821  25.388   5.352
 5029POPC   PO464068   0.243  24.905   5.455
 5029POPC   GL164069   0.385  25.036   5.855
 5029POPC   GL264070   0.292  25.366   5.855
 5029POPC   C1A64071   0.560  25.147   6.264
 5029POPC   D2A64072   0.638  25.445   6.598
 5029POPC   C3A64073   0.500  25.197   6.936
 5029POPC   C4A64074   0.636  24.878   7.212
 5029POPC   C1B64075   0.304  25.630   6.221
 5029POPC   C2B64076   0.148  25.593   6.610
 5029POPC   C3B64077   0.335  25.692   6.959
 5029POPC   C4B64078   0.420  25.496   7.337
 5030POPC   NC364079  28.047  20.767   5.344
 5030POPC   PO464080  27.920  20.165   5.596
 5030POPC   GL164081  28.135  20.475   5.836
 5030POPC   GL264082  28.411  20.726   5.771
 5030POPC   C1A64083  28.168  20.677   6.223
 5030POPC   D2A64084  28.317  20.811   6.603
 5030POPC   C3A64085  28.157  20.580   6.959
 5030POPC   C4A64086  28.281  20.668   7.386
 5030POPC   C1B64087  28.690  20.821   6.157
 5030POPC   C2B64088  28.813  20.684   6.596
 5030POPC   C3B64089  28.623  20.815   7.024
 5030POPC   C4B64090  28.730  20.889   7.499
 5031POPC   NC364091  21.004  14.788   5.588
 5031POPC   PO464092  20.478  14.428   5.466
 5031POPC   GL164093  20.448  14.300   5.878
 5031POPC   GL264094  20.802  14.337   5.948
 5031POPC   C1A64095  20.483  14.249   6.341
 5031POPC   D2A64096  20.670  14.431   6.710
 5031POPC   C3A64097  20.579  14.326   7.152
 5031POPC   C4A64098  20.438  14.224   7.569
 5031POPC   C1B64099  20.811  14.667   6.255
 5031POPC   C2B64100  20.843  14.918   6.640
 5031POPC   C3B64101  20.835  14.791   7.042
 5031POPC   C4B64102  20.949  14.613   7.471
 5032POPC   NC364103  42.130  43.576   5.616
 5032POPC   PO464104  42.512  44.090   5.361
 5032POPC   GL164105  42.391  43.983   5.784
 5032POPC   GL264106  42.504  43.656   5.947
 5032POPC   C1A64107  42.137  44.036   6.147
 5032POPC   D2A64108  42.056  43.898   6.556
 5032POPC   C3A64109  42.367  44.019   6.836
 5032POPC   C4A64110  42.389  43.873   7.238
 5032POPC   C1B64111  42.170  43.483   6.234
 5032POPC   C2B64112  42.260  43.271   6.579
 5032POPC   C3B64113  42.194  43.525   6.914
 5032POPC   C4B64114  41.962  43.482   7.283
 5033POPC   NC364115  15.362  10.608   5.231
 5033POPC   PO464116  14.730  10.527   5.395
 5033POPC   GL164117  15.072  10.520   5.680
 5033POPC   GL264118  15.195  10.167   5.812
 5033POPC   C1A64119  15.187  10.617   6.088
 5033POPC   D2A64120  15.248  10.635   6.515
 5033POPC   C3A64121  14.987  10.536   6.855
 5033POPC   C4A64122  15.193  10.580   7.239
 5033POPC   C1B64123  15.213  10.121   6.284
 5033POPC   C2B64124  15.306  10.141   6.730
 5033POPC   C3B64125  15.108  10.090   7.142
 5033POPC   C4B64126  15.401  10.192   7.496
 5034POPC   NC364127  23.223  21.939   5.473
 5034POPC   PO464128  22.692  21.537   5.486
 5034POPC   GL164129  22.781  21.559   5.876
 5034POPC   GL264130  22.628  21.232   5.892
 5034POPC   C1A64131  23.013  21.379   6.218
 5034POPC   D2A64132  22.910  21.277   6.646
 5034POPC   C3A64133  23.215  21.466   6.944
 5034POPC   C4A64134  23.359  21.127   7.187
 5034POPC   C1B64135  22.649  20.985   6.236
 5034POPC   C2B64136  22.360  21.104   6.524
 5034POPC   C3B64137  22.440  21.402   6.818
 5034POPC   C4B64138  22.752  21.390   7.154
 5035POPC   NC364139  30.317   5.425   5.564
 5035POPC   PO464140  29.827   5.021   5.330
 5035POPC   GL164141  29.901   5.036   5.769
 5035POPC   GL264142  30.136   4.791   5.827
 5035POPC   C1A64143  30.019   5.304   6.129
 5035POPC   D2A64144  30.126   5.413   6.550
 5035POPC   C3A64145  29.961   5.196   6.888
 5035POPC   C4A64146  29.984   5.295   7.301
 5035POPC   C1B64147  30.093   4.839   6.298
 5035POPC   C2B64148  30.360   4.961   6.665
 5035POPC   C3B64149  30.345   4.896   7.085
 5035POPC   C4B64150  29.927   4.707   7.131
 5036POPC   NC364151   7.032  23.119   5.326
 5036POPC   PO464152   6.467  22.885   5.531
 5036POPC   GL164153   6.816  22.870   5.793
 5036POPC   GL264154   6.900  23.251   5.796
 5036POPC   C1A64155   6.695  22.682   6.213
 5036POPC   D2A64156   6.484  22.797   6.621
 5036POPC   C3A64157   6.808  22.835   6.943
 5036POPC   C4A64158   6.923  23.000   7.331
 5036POPC   C1B64159   6.674  23.201   6.182
 5036POPC   C2B64160   6.761  23.232   6.603
 5036POPC   C3B64161   6.545  23.298   6.983
 5036POPC   C4B64162   6.585  23.614   7.264
 5037POPC   NC364163  17.849  41.836   5.576
 5037POPC   PO464164  17.260  41.475   5.362
 5037POPC   GL164165  17.352  41.403   5.808
 5037POPC   GL264166  17.656  41.209   5.781
 5037POPC   C1A64167  17.605  41.566   6.189
 5037POPC   D2A64168  17.716  41.770   6.579
 5037POPC   C3A64169  17.555  41.727   6.930
 5037POPC   C4A64170  17.572  41.685   7.309
 5037POPC   C1B64171  17.881  41.126   6.169
 5037POPC   C2B64172  17.913  41.298   6.552
 5037POPC   C3B64173  17.873  41.326   6.976
 5037POPC   C4B64174  17.918  41.331   7.404
 5038POPC   NC364175  13.669  42.668   5.223
 5038POPC   PO464176  13.967  42.242   5.641
 5038POPC   GL164177  13.806  42.359   5.967
 5038POPC   GL264178  13.462  42.373   5.926
 5038POPC   C1A64179  13.922  42.273   6.335
 5038POPC   D2A64180  13.759  42.388   6.702
 5038POPC   C3A64181  13.912  42.228   7.077
 5038POPC   C4A64182  13.768  42.325   7.470
 5038POPC   C1B64183  13.348  42.617   6.328
 5038POPC   C2B64184  13.357  42.701   6.790
 5038POPC   C3B64185  13.404  42.386   7.135
 5038POPC   C4B64186  13.311  42.472   7.626
 5039POPC   NC364187  35.616  36.693   5.457
 5039POPC   PO464188  35.053  37.072   5.454
 5039POPC   GL164189  35.268  37.002   5.806
 5039POPC   GL264190  35.563  37.217   5.802
 5039POPC   C1A64191  35.212  37.081   6.237
 5039POPC   D2A64192  35.247  36.830   6.615
 5039POPC   C3A64193  35.326  37.018   6.998
 5039POPC   C4A64194  35.165  37.092   7.417
 5039POPC   C1B64195  35.693  36.917   6.147
 5039POPC   C2B64196  35.810  36.875   6.597
 5039POPC   C3B64197  35.828  37.132   6.978
 5039POPC   C4B64198  35.579  37.378   7.287
 5040POPC   NC364199  38.237   8.350   5.381
 5040POPC   PO464200  38.864   7.999   5.403
 5040POPC   GL164201  38.806   8.171   5.823
 5040POPC   GL264202  38.444   8.279   5.858
 5040POPC   C1A64203  38.696   8.110   6.276
 5040POPC   D2A64204  38.459   8.324   6.596
 5040POPC   C3A64205  38.664   8.280   7.005
 5040POPC   C4A64206  38.605   8.543   7.378
 5040POPC   C1B64207  38.173   8.100   6.196
 5040POPC   C2B64208  37.974   7.996   6.602
 5040POPC   C3B64209  38.188   8.079   6.989
 5040POPC   C4B64210  38.452   7.917   7.304
 5041POPC   NC364211  44.512  12.857   5.235
 5041POPC   PO464212   0.018  12.567   5.574
 5041POPC   GL164213  44.771  12.771   5.902
 5041POPC   GL264214  44.459  12.894   5.765
 5041POPC   C1A64215  44.796  12.938   6.336
 5041POPC   D2A64216  44.926  13.190   6.702
 5041POPC   C3A64217  44.975  12.940   7.071
 5041POPC   C4A64218  44.734  12.760   7.373
 5041POPC   C1B64219  44.299  12.801   6.215
 5041POPC   C2B64220  44.372  12.792   6.686
 5041POPC   C3B64221  44.469  13.063   7.067
 5041POPC   C4B64222  44.417  13.088   7.569
 5042POPC   NC364223  32.789   0.238   5.313
 5042POPC   PO464224  32.916  44.597   5.311
 5042POPC   GL164225  32.708  44.791   5.660
 5042POPC   GL264226  32.596  44.476   5.795
 5042POPC   C1A64227  32.766  44.867   6.120
 5042POPC   D2A64228  32.711  44.614   6.512
 5042POPC   C3A64229  32.975  44.576   6.884
 5042POPC   C4A64230  33.139  44.825   7.190
 5042POPC   C1B64231  32.554  44.225   6.181
 5042POPC   C2B64232  32.589  44.124   6.631
 5042POPC   C3B64233  32.519  44.395   7.018
 5042POPC   C4B64234  32.761  44.474   7.438
 5043POPC   NC364235  43.490  20.079   5.445
 5043POPC   PO464236  43.082  19.560   5.489
 5043POPC   GL164237  43.280  19.769   5.810
 5043POPC   GL264238  43.076  20.065   5.780
 5043POPC   C1A64239  43.134  19.768   6.230
 5043POPC   D2A64240  42.935  19.725   6.623
 5043POPC   C3A64241  43.198  19.748   6.988
 5043POPC   C4A64242  43.139  19.941   7.416
 5043POPC   C1B64243  42.781  20.132   6.109
 5043POPC   C2B64244  42.761  20.241   6.549
 5043POPC   C3B64245  42.844  20.100   6.977
 5043POPC   C4B64246  42.708  20.338   7.287
 5044POPC   NC364247   2.984   7.754   5.723
 5044POPC   PO464248   2.727   7.276   5.287
 5044POPC   GL164249   2.629   7.299   5.738
 5044POPC   GL264250   2.960   7.249   5.882
 5044POPC   C1A64251   2.575   7.393   6.194
 5044POPC   D2A64252   2.462   7.608   6.581
 5044POPC   C3A64253   2.452   7.427   7.020
 5044POPC   C4A64254   2.640   7.623   7.401
 5044POPC   C1B64255   2.952   7.055   6.303
 5044POPC   C2B64256   2.743   7.181   6.680
 5044POPC   C3B64257   2.921   7.130   7.107
 5044POPC   C4B64258   3.030   6.873   7.485
 5045POPC   NC364259  42.986  44.123   5.410
 5045POPC   PO464260  43.291  43.498   5.485
 5045POPC   GL164261  43.243  43.865   5.804
 5045POPC   GL264262  42.896  43.995   5.883
 5045POPC   C1A64263  43.214  43.995   6.273
 5045POPC   D2A64264  42.974  44.053   6.680
 5045POPC   C3A64265  43.197  43.884   7.049
 5045POPC   C4A64266  43.465  43.615   7.304
 5045POPC   C1B64267  42.652  44.038   6.256
 5045POPC   C2B64268  42.584  43.675   6.521
 5045POPC   C3B64269  42.733  43.614   6.946
 5045POPC   C4B64270  42.845  43.734   7.406
 5046POPC   NC364271  44.130  24.013   5.358
 5046POPC   PO464272  43.993  23.350   5.392
 5046POPC   GL164273  43.809  23.545   5.769
 5046POPC   GL264274  44.055  23.752   5.812
 5046POPC   C1A64275  43.700  23.658   6.213
 5046POPC   D2A64276  43.673  23.461   6.641
 5046POPC   C3A64277  43.762  23.710   7.034
 5046POPC   C4A64278  44.048  23.910   7.376
 5046POPC   C1B64279  44.153  23.401   6.108
 5046POPC   C2B64280  44.162  23.363   6.522
 5046POPC   C3B64281  44.230  23.526   6.940
 5046POPC   C4B64282  44.274  23.444   7.367
 5047POPC   NC364283  10.323  43.342   5.505
 5047POPC   PO464284  10.909  42.997   5.479
 5047POPC   GL164285  10.648  43.121   5.846
 5047POPC   GL264286  10.627  43.519   5.873
 5047POPC   C1A64287  10.521  42.944   6.244
 5047POPC   D2A64288  10.512  43.088   6.660
 5047POPC   C3A64289  10.540  42.804   6.988
 5047POPC   C4A64290  10.351  42.991   7.280
 5047POPC   C1B64291  10.323  43.469   6.218
 5047POPC   C2B64292  10.364  43.580   6.665
 5047POPC   C3B64293  10.527  43.443   7.099
 5047POPC   C4B64294  10.469  43.603   7.610
 5048POPC   NC364295  42.631   4.356   5.052
 5048POPC   PO464296  42.238   4.098   5.476
 5048POPC   GL164297  42.194   4.232   5.855
 5048POPC   GL264298  42.190   4.598   5.812
 5048POPC   C1A64299  41.994   4.309   6.250
 5048POPC   D2A64300  41.881   4.174   6.667
 5048POPC   C3A64301  42.173   4.340   6.976
 5048POPC   C4A64302  42.124   4.476   7.347
 5048POPC   C1B64303  42.481   4.499   6.165
 5048POPC   C2B64304  42.438   4.445   6.550
 5048POPC   C3B64305  42.686   4.435   6.872
 5048POPC   C4B64306  42.605   4.567   7.236
 5049POPC   NC364307   6.898   2.624   5.617
 5049POPC   PO464308   6.551   3.186   5.443
 5049POPC   GL164309   6.575   2.947   5.831
 5049POPC   GL264310   6.307   2.819   5.971
 5049POPC   C1A64311   6.724   2.673   6.239
 5049POPC   D2A64312   7.021   2.639   6.592
 5049POPC   C3A64313   6.827   2.710   7.039
 5049POPC   C4A64314   6.630   2.517   7.453
 5049POPC   C1B64315   6.518   3.129   6.280
 5049POPC   C2B64316   6.638   3.008   6.663
 5049POPC   C3B64317   6.436   3.110   7.033
 5049POPC   C4B64318   6.268   2.886   7.356
 5050POPC   NC364319  17.694  44.332   5.490
 5050POPC   PO464320  17.230  43.865   5.327
 5050POPC   GL164321  17.416  43.908   5.749
 5050POPC   GL264322  17.227  44.209   5.772
 5050POPC   C1A64323  17.473  43.827   6.221
 5050POPC   D2A64324  17.236  43.896   6.635
 5050POPC   C3A64325  17.518  43.842   7.020
 5050POPC   C4A64326  17.664  43.923   7.461
 5050POPC   C1B64327  17.329  44.331   6.208
 5050POPC   C2B64328  17.125  44.461   6.574
 5050POPC   C3B64329  17.181  44.307   6.946
 5050POPC   C4B64330  17.277  44.234   7.314
 5051POPC   NC364331  10.543   3.765   5.568
 5051POPC   PO464332  10.374   4.264   5.112
 5051POPC   GL164333  10.445   4.258   5.625
 5051POPC   GL264334  10.282   4.547   5.815
 5051POPC   C1A64335  10.462   4.199   6.143
 5051POPC   D2A64336  10.652   4.229   6.606
 5051POPC   C3A64337  10.412   4.083   6.939
 5051POPC   C4A64338  10.263   4.226   7.283
 5051POPC   C1B64339  10.148   4.638   6.212
 5051POPC   C2B64340  10.160   4.379   6.572
 5051POPC   C3B64341  10.310   4.591   6.919
 5051POPC   C4B64342  10.180   4.719   7.297
 5052POPC   NC364343   3.487  25.352   5.356
 5052POPC   PO464344   3.699  24.669   5.462
 5052POPC   GL164345   3.589  25.043   5.735
 5052POPC   GL264346   3.662  25.050   6.059
 5052POPC   C1A64347   3.279  25.355   5.996
 5052POPC   D2A64348   3.285  25.312   6.463
 5052POPC   C3A64349   3.191  25.437   6.894
 5052POPC   C4A64350   3.144  25.219   7.288
 5052POPC   C1B64351   3.886  25.254   6.367
 5052POPC   C2B64352   3.736  25.367   6.723
 5052POPC   C3B64353   3.613  25.202   7.081
 5052POPC   C4B64354   3.659  25.422   7.438
 5053POPC   NC364355  34.490  22.730   5.426
 5053POPC   PO464356  34.814  23.235   5.272
 5053POPC   GL164357  34.710  23.073   5.726
 5053POPC   GL264358  34.945  23.251   5.880
 5053POPC   C1A64359  34.389  22.922   6.089
 5053POPC   D2A64360  34.230  23.019   6.485
 5053POPC   C3A64361  34.436  22.894   6.875
 5053POPC   C4A64362  34.332  22.844   7.277
 5053POPC   C1B64363  34.865  23.048   6.272
 5053POPC   C2B64364  34.986  22.918   6.652
 5053POPC   C3B64365  34.912  23.053   7.035
 5053POPC   C4B64366  34.788  23.061   7.468
 5054POPC   NC364367   9.848   8.530   5.502
 5054POPC   PO464368   9.525   7.901   5.426
 5054POPC   GL164369   9.733   8.078   5.753
 5054POPC   GL264370   9.482   8.306   5.822
 5054POPC   C1A64371   9.978   8.117   6.155
 5054POPC   D2A64372  10.095   7.904   6.522
 5054POPC   C3A64373   9.965   7.996   6.943
 5054POPC   C4A64374   9.869   8.260   7.287
 5054POPC   C1B64375   9.470   8.048   6.195
 5054POPC   C2B64376   9.633   8.159   6.586
 5054POPC   C3B64377   9.461   8.085   7.012
 5054POPC   C4B64378   9.250   8.163   7.393
 5055POPC   NC364379   9.352  17.346   5.243
 5055POPC   PO464380   9.933  17.668   5.501
 5055POPC   GL164381   9.786  17.391   5.806
 5055POPC   GL264382  10.087  17.372   5.983
 5055POPC   C1A64383   9.650  17.383   6.244
 5055POPC   D2A64384   9.444  17.330   6.626
 5055POPC   C3A64385   9.588  17.610   6.953
 5055POPC   C4A64386   9.596  17.481   7.361
 5055POPC   C1B64387   9.947  17.807   6.140
 5055POPC   C2B64388   9.785  17.866   6.546
 5055POPC   C3B64389  10.019  17.888   6.969
 5055POPC   C4B64390   9.955  17.815   7.460
 5056POPC   NC364391  23.995  36.083   5.496
 5056POPC   PO464392  23.422  36.112   5.234
 5056POPC   GL164393  23.517  36.122   5.705
 5056POPC   GL264394  23.744  36.390   5.840
 5056POPC   C1A64395  23.626  35.913   6.113
 5056POPC   D2A64396  23.422  35.787   6.507
 5056POPC   C3A64397  23.518  36.062   6.837
 5056POPC   C4A64398  23.542  36.064   7.270
 5056POPC   C1B64399  23.979  36.292   6.217
 5056POPC   C2B64400  23.913  36.346   6.670
 5056POPC   C3B64401  23.890  36.450   7.106
 5056POPC   C4B64402  23.805  36.664   7.509
 5057POPC   NC364403  34.967  41.497   5.499
 5057POPC   PO464404  34.363  41.344   5.473
 5057POPC   GL164405  34.424  41.762   5.736
 5057POPC   GL264406  34.650  41.566   5.878
 5057POPC   C1A64407  34.639  41.934   6.190
 5057POPC   D2A64408  34.672  41.679   6.559
 5057POPC   C3A64409  34.789  41.535   6.970
 5057POPC   C4A64410  34.678  41.666   7.391
 5057POPC   C1B64411  34.476  41.339   6.199
 5057POPC   C2B64412  34.593  41.176   6.584
 5057POPC   C3B64413  34.394  41.123   6.964
 5057POPC   C4B64414  34.621  41.173   7.309
 5058POPC   NC364415  10.980   7.731   5.439
 5058POPC   PO464416  10.394   7.428   5.280
 5058POPC   GL164417  10.405   7.512   5.726
 5058POPC   GL264418  10.480   7.168   5.845
 5058POPC   C1A64419  10.603   7.572   6.144
 5058POPC   D2A64420  10.453   7.554   6.580
 5058POPC   C3A64421  10.646   7.794   6.897
 5058POPC   C4A64422  10.895   7.543   7.169
 5058POPC   C1B64423  10.272   7.158   6.275
 5058POPC   C2B64424  10.344   7.083   6.751
 5058POPC   C3B64425  10.376   7.329   7.185
 5058POPC   C4B64426  10.421   7.165   7.662
 5059POPC   NC364427  31.695  34.398   4.834
 5059POPC   PO464428  31.176  34.263   5.373
 5059POPC   GL164429  31.429  34.506   5.684
 5059POPC   GL264430  31.275  34.808   5.803
 5059POPC   C1A64431  31.574  34.511   6.129
 5059POPC   D2A64432  31.623  34.697   6.561
 5059POPC   C3A64433  31.533  34.423   6.910
 5059POPC   C4A64434  31.563  34.410   7.357
 5059POPC   C1B64435  31.195  34.862   6.254
 5059POPC   C2B64436  31.127  34.809   6.699
 5059POPC   C3B64437  31.372  34.865   7.088
 5059POPC   C4B64438  31.287  34.816   7.548
 5060POPC   NC364439  19.298  42.237   5.350
 5060POPC   PO464440  18.582  42.148   5.471
 5060POPC   GL164441  18.861  42.218   5.842
 5060POPC   GL264442  19.142  42.438   5.806
 5060POPC   C1A64443  19.083  42.157   6.243
 5060POPC   D2A64444  19.247  42.106   6.646
 5060POPC   C3A64445  18.987  42.041   7.008
 5060POPC   C4A64446  18.953  42.282   7.385
 5060POPC   C1B64447  19.051  42.665   6.187
 5060POPC   C2B64448  19.224  42.682   6.592
 5060POPC   C3B64449  19.220  42.515   7.006
 5060POPC   C4B64450  19.250  42.714   7.415
 5061POPC   NC364451  18.054  10.314   5.050
 5061POPC   PO464452  18.031  10.902   5.406
 5061POPC   GL164453  18.299  10.594   5.677
 5061POPC   GL264454  18.484  10.793   5.923
 5061POPC   C1A64455  18.430  10.313   6.050
 5061POPC   D2A64456  18.448  10.438   6.484
 5061POPC   C3A64457  18.492  10.377   6.943
 5061POPC   C4A64458  18.095  10.344   7.101
 5061POPC   C1B64459  18.160  10.818   6.250
 5061POPC   C2B64460  18.025  11.001   6.664
 5061POPC   C3B64461  17.934  10.825   7.100
 5061POPC   C4B64462  18.291  10.809   7.359
 5062POPC   NC364463  18.341  12.125   5.386
 5062POPC   PO464464  17.914  11.845   5.717
 5062POPC   GL164465  18.320  11.976   5.884
 5062POPC   GL264466  18.298  12.329   5.868
 5062POPC   C1A64467  18.477  11.960   6.312
 5062POPC   D2A64468  18.528  12.281   6.659
 5062POPC   C3A64469  18.367  12.118   7.075
 5062POPC   C4A64470  18.296  11.700   7.269
 5062POPC   C1B64471  18.025  12.243   6.246
 5062POPC   C2B64472  18.015  12.342   6.685
 5062POPC   C3B64473  17.962  12.461   7.109
 5062POPC   C4B64474  18.236  12.453   7.470
 5063POPC   NC364475  34.937  16.423   5.336
 5063POPC   PO464476  34.336  16.879   5.340
 5063POPC   GL164477  34.436  16.819   5.760
 5063POPC   GL264478  34.739  16.613   5.771
 5063POPC   C1A64479  34.491  16.882   6.202
 5063POPC   D2A64480  34.338  16.601   6.487
 5063POPC   C3A64481  34.352  16.737   6.892
 5063POPC   C4A64482  34.469  16.611   7.294
 5063POPC   C1B64483  34.925  16.639   6.179
 5063POPC   C2B64484  34.833  16.818   6.613
 5063POPC   C3B64485  34.900  16.612   7.031
 5063POPC   C4B64486  34.922  16.561   7.486
 5064POPC   NC364487  37.872  27.422   5.339
 5064POPC   PO464488  37.447  27.939   5.499
 5064POPC   GL164489  37.643  27.704   5.897
 5064POPC   GL264490  37.702  27.337   5.838
 5064POPC   C1A64491  37.911  27.853   6.294
 5064POPC   D2A64492  38.286  27.802   6.592
 5064POPC   C3A64493  38.134  27.840   7.017
 5064POPC   C4A64494  37.708  27.720   7.118
 5064POPC   C1B64495  37.969  27.356   6.217
 5064POPC   C2B64496  38.102  27.299   6.629
 5064POPC   C3B64497  37.786  27.258   6.907
 5064POPC   C4B64498  37.743  27.099   7.310
 5065POPC   NC364499  22.299  32.559   5.225
 5065POPC   PO464500  21.989  32.055   5.529
 5065POPC   GL164501  22.062  32.255   5.864
 5065POPC   GL264502  22.253  32.557   5.774
 5065POPC   C1A64503  22.008  32.058   6.271
 5065POPC   D2A64504  22.285  32.008   6.600
 5065POPC   C3A64505  22.129  31.937   7.002
 5065POPC   C4A64506  21.868  32.253   7.109
 5065POPC   C1B64507  22.175  32.549   6.243
 5065POPC   C2B64508  22.091  32.491   6.697
 5065POPC   C3B64509  22.375  32.404   7.044
 5065POPC   C4B64510  22.476  32.628   7.454
 5066POPC   NC364511  20.478  18.446   5.394
 5066POPC   PO464512  21.056  18.202   5.188
 5066POPC   GL164513  20.978  18.308   5.722
 5066POPC   GL264514  20.626  18.179   5.830
 5066POPC   C1A64515  20.963  18.179   6.226
 5066POPC   D2A64516  20.628  18.212   6.587
 5066POPC   C3A64517  20.658  18.043   7.012
 5066POPC   C4A64518  20.692  18.326   7.363
 5066POPC   C1B64519  20.649  18.557   6.064
 5066POPC   C2B64520  20.411  18.626   6.399
 5066POPC   C3B64521  20.310  18.596   6.832
 5066POPC   C4B64522  20.242  18.621   7.264
 5067POPC   NC364523  21.927  40.739   5.415
 5067POPC   PO464524  22.421  40.887   5.656
 5067POPC   GL164525  22.072  40.925   5.870
 5067POPC   GL264526  22.054  40.579   5.924
 5067POPC   C1A64527  21.987  41.010   6.278
 5067POPC   D2A64528  22.161  41.061   6.672
 5067POPC   C3A64529  21.907  40.984   7.015
 5067POPC   C4A64530  22.040  41.052   7.436
 5067POPC   C1B64531  22.209  40.561   6.377
 5067POPC   C2B64532  22.093  40.529   6.816
 5067POPC   C3B64533  22.161  40.592   7.230
 5067POPC   C4B64534  22.407  40.309   7.500
 5068POPC   NC364535  41.739  14.728   5.482
 5068POPC   PO464536  41.179  14.321   5.355
 5068POPC   GL164537  41.367  14.510   5.820
 5068POPC   GL264538  41.701  14.618   5.977
 5068POPC   C1A64539  41.429  14.271   6.217
 5068POPC   D2A64540  41.553  14.461   6.595
 5068POPC   C3A64541  41.473  14.343   6.976
 5068POPC   C4A64542  41.333  14.678   7.239
 5068POPC   C1B64543  41.951  14.405   6.291
 5068POPC   C2B64544  41.991  14.185   6.675
 5068POPC   C3B64545  42.000  14.343   7.053
 5068POPC   C4B64546  41.741  14.421   7.407
 5069POPC   NC364547  43.628  37.246   5.516
 5069POPC   PO464548  44.157  36.701   5.344
 5069POPC   GL164549  44.090  36.860   5.771
 5069POPC   GL264550  43.912  36.567   5.918
 5069POPC   C1A64551  43.874  37.025   6.167
 5069POPC   D2A64552  43.979  37.059   6.628
 5069POPC   C3A64553  43.661  37.118   6.975
 5069POPC   C4A64554  43.494  36.814   7.273
 5069POPC   C1B64555  44.236  36.666   6.238
 5069POPC   C2B64556  44.272  36.590   6.661
 5069POPC   C3B64557  43.923  36.666   6.959
 5069POPC   C4B64558  43.869  36.511   7.376
 5070POPC   NC364559  16.018  29.693   5.371
 5070POPC   PO464560  16.165  30.368   5.426
 5070POPC   GL164561  16.136  30.028   5.769
 5070POPC   GL264562  16.173  29.656   5.856
 5070POPC   C1A64563  15.829  29.976   6.116
 5070POPC   D2A64564  15.833  30.051   6.548
 5070POPC   C3A64565  15.778  29.697   6.818
 5070POPC   C4A64566  15.732  29.885   7.192
 5070POPC   C1B64567  16.337  29.869   6.249
 5070POPC   C2B64568  16.304  29.831   6.716
 5070POPC   C3B64569  16.188  29.634   7.112
 5070POPC   C4B64570  16.027  29.489   7.531
 5071POPC   NC364571   3.552   6.473   5.534
 5071POPC   PO464572   3.309   7.166   5.486
 5071POPC   GL164573   3.399   6.979   5.894
 5071POPC   GL264574   3.554   6.680   5.992
 5071POPC   C1A64575   3.465   7.044   6.342
 5071POPC   D2A64576   3.252   6.897   6.743
 5071POPC   C3A64577   3.445   6.931   7.162
 5071POPC   C4A64578   3.839   6.940   7.476
 5071POPC   C1B64579   3.246   6.587   6.302
 5071POPC   C2B64580   3.187   6.356   6.651
 5071POPC   C3B64581   3.345   6.418   7.025
 5071POPC   C4B64582   3.691   6.493   7.233
 5072POPC   NC364583  36.987  27.851   5.522
 5072POPC   PO464584  36.674  27.238   5.381
 5072POPC   GL164585  36.765  27.478   5.806
 5072POPC   GL264586  36.607  27.809   5.856
 5072POPC   C1A64587  37.144  27.643   6.107
 5072POPC   D2A64588  37.486  27.531   6.406
 5072POPC   C3A64589  37.326  27.507   6.844
 5072POPC   C4A64590  37.037  27.632   7.164
 5072POPC   C1B64591  36.672  27.738   6.261
 5072POPC   C2B64592  36.923  27.803   6.619
 5072POPC   C3B64593  36.823  28.063   6.943
 5072POPC   C4B64594  36.664  27.935   7.336
 5073POPC   NC364595  39.382  30.255   5.521
 5073POPC   PO464596  39.155  29.564   5.437
 5073POPC   GL164597  39.222  29.835   5.811
 5073POPC   GL264598  39.113  30.166   5.934
 5073POPC   C1A64599  39.345  29.807   6.258
 5073POPC   D2A64600  39.286  29.809   6.722
 5073POPC   C3A64601  39.529  29.535   7.013
 5073POPC   C4A64602  39.492  29.698   7.460
 5073POPC   C1B64603  39.384  30.338   6.269
 5073POPC   C2B64604  39.486  30.318   6.730
 5073POPC   C3B64605  39.288  30.191   7.137
 5073POPC   C4B64606  39.203  30.436   7.543
 5074POPC   NC364607  29.482  29.309   5.623
 5074POPC   PO464608  30.129  28.996   5.406
 5074POPC   GL164609  29.964  29.102   5.766
 5074POPC   GL264610  29.904  29.454   5.864
 5074POPC   C1A64611  30.143  29.134   6.170
 5074POPC   D2A64612  30.271  29.095   6.584
 5074POPC   C3A64613  29.986  29.002   6.910
 5074POPC   C4A64614  30.041  29.014   7.362
 5074POPC   C1B64615  29.998  29.637   6.275
 5074POPC   C2B64616  29.839  29.632   6.716
 5074POPC   C3B64617  30.005  29.490   7.115
 5074POPC   C4B64618  30.238  29.464   7.539
 5075POPC   NC364619  30.468  39.014   5.448
 5075POPC   PO464620  30.755  39.574   5.419
 5075POPC   GL164621  30.750  39.291   5.789
 5075POPC   GL264622  30.397  39.374   5.830
 5075POPC   C1A64623  30.819  39.183   6.269
 5075POPC   D2A64624  30.631  39.470   6.620
 5075POPC   C3A64625  30.794  39.376   7.052
 5075POPC   C4A64626  30.885  38.936   7.126
 5075POPC   C1B64627  30.351  39.075   6.183
 5075POPC   C2B64628  30.452  38.957   6.622
 5075POPC   C3B64629  30.335  39.180   7.001
 5075POPC   C4B64630  30.177  39.339   7.370
 5076POPC   NC364631   2.400  19.212   5.378
 5076POPC   PO464632   3.004  19.225   5.217
 5076POPC   GL164633   3.017  19.048   5.644
 5076POPC   GL264634   2.671  19.069   5.803
 5076POPC   C1A64635   3.098  18.959   6.112
 5076POPC   D2A64636   2.904  19.045   6.526
 5076POPC   C3A64637   2.953  19.365   6.862
 5076POPC   C4A64638   2.924  19.204   7.268
 5076POPC   C1B64639   2.426  19.269   6.139
 5076POPC   C2B64640   2.373  19.081   6.531
 5076POPC   C3B64641   2.545  19.032   6.906
 5076POPC   C4B64642   2.343  19.208   7.245
 5077POPC   NC364643  12.439  12.715   5.399
 5077POPC   PO464644  11.886  13.043   5.482
 5077POPC   GL164645  11.957  12.939   5.922
 5077POPC   GL264646  12.206  12.671   5.858
 5077POPC   C1A64647  11.983  13.127   6.390
 5077POPC   D2A64648  11.804  13.330   6.795
 5077POPC   C3A64649  11.904  13.043   7.164
 5077POPC   C4A64650  12.078  12.992   7.594
 5077POPC   C1B64651  12.248  12.695   6.308
 5077POPC   C2B64652  12.112  12.761   6.745
 5077POPC   C3B64653  12.308  12.732   7.144
 5077POPC   C4B64654  12.368  12.562   7.534
 5078POPC   NC364655  16.782   6.229   5.552
 5078POPC   PO464656  17.068   5.643   5.309
 5078POPC   GL164657  16.882   5.719   5.709
 5078POPC   GL264658  17.037   5.993   5.915
 5078POPC   C1A64659  16.744   5.641   6.132
 5078POPC   D2A64660  16.935   5.824   6.499
 5078POPC   C3A64661  16.710   5.751   6.900
 5078POPC   C4A64662  16.768   5.855   7.315
 5078POPC   C1B64663  16.668   6.163   6.194
 5078POPC   C2B64664  16.467   6.116   6.603
 5078POPC   C3B64665  16.642   6.273   6.986
 5078POPC   C4B64666  16.841   6.385   7.389
 5079POPC   NC364667  20.823  34.820   5.335
 5079POPC   PO464668  20.208  34.389   5.308
 5079POPC   GL164669  20.402  34.706   5.667
 5079POPC   GL264670  20.736  34.702   5.831
 5079POPC   C1A64671  20.328  34.743   6.147
 5079POPC   D2A64672  20.406  34.849   6.607
 5079POPC   C3A64673  20.408  34.544   6.977
 5079POPC   C4A64674  20.568  34.584   7.411
 5079POPC   C1B64675  20.870  34.566   6.250
 5079POPC   C2B64676  20.902  34.672   6.673
 5079POPC   C3B64677  20.924  34.472   7.067
 5079POPC   C4B64678  21.232  34.405   7.358
 5080POPC   NC364679  14.707  19.925   5.438
 5080POPC   PO464680  14.094  20.277   5.269
 5080POPC   GL164681  14.230  20.134   5.734
 5080POPC   GL264682  14.568  20.055   5.913
 5080POPC   C1A64683  14.205  20.266   6.217
 5080POPC   D2A64684  14.305  20.364   6.683
 5080POPC   C3A64685  14.386  20.037   7.017
 5080POPC   C4A64686  14.090  19.741   7.214
 5080POPC   C1B64687  14.716  19.743   6.263
 5080POPC   C2B64688  14.620  19.649   6.730
 5080POPC   C3B64689  14.703  19.630   7.199
 5080POPC   C4B64690  14.755  19.497   7.657
 5081POPC   NC364691   2.119  20.115   5.456
 5081POPC   PO464692   2.111  19.483   5.586
 5081POPC   GL164693   2.003  19.560   5.978
 5081POPC   GL264694   1.893  19.881   5.898
 5081POPC   C1A64695   1.792  19.690   6.390
 5081POPC   D2A64696   1.852  19.840   6.831
 5081POPC   C3A64697   2.112  19.659   7.173
 5081POPC   C4A64698   2.131  19.482   7.633
 5081POPC   C1B64699   1.578  20.094   6.180
 5081POPC   C2B64700   1.610  20.256   6.643
 5081POPC   C3B64701   1.776  20.248   7.121
 5081POPC   C4B64702   2.026  20.353   7.507
 5082POPC   NC364703  17.262  37.262   5.593
 5082POPC   PO464704  17.790  37.823   5.318
 5082POPC   GL164705  17.649  37.894   5.768
 5082POPC   GL264706  17.487  37.585   5.899
 5082POPC   C1A64707  17.566  37.947   6.229
 5082POPC   D2A64708  17.826  37.784   6.530
 5082POPC   C3A64709  17.776  37.906   6.922
 5082POPC   C4A64710  17.468  37.772   7.181
 5082POPC   C1B64711  17.229  37.555   6.277
 5082POPC   C2B64712  17.315  37.691   6.697
 5082POPC   C3B64713  17.120  37.445   7.052
 5082POPC   C4B64714  17.020  37.436   7.514
 5083POPC   NC364715  27.460  20.296   5.359
 5083POPC   PO464716  27.337  20.885   5.623
 5083POPC   GL164717  27.628  20.603   5.785
 5083POPC   GL264718  27.729  20.867   6.010
 5083POPC   C1A64719  27.695  20.420   6.206
 5083POPC   D2A64720  27.789  20.686   6.574
 5083POPC   C3A64721  27.634  20.539   6.974
 5083POPC   C4A64722  27.806  20.496   7.385
 5083POPC   C1B64723  27.315  20.810   6.257
 5083POPC   C2B64724  27.076  20.940   6.635
 5083POPC   C3B64725  27.193  20.806   7.069
 5083POPC   C4B64726  27.447  20.897   7.446
 5084POPC   NC364727  13.938  21.256   5.601
 5084POPC   PO464728  14.572  21.268   5.360
 5084POPC   GL164729  14.432  21.325   5.785
 5084POPC   GL264730  14.246  21.032   5.921
 5084POPC   C1A64731  14.507  21.557   6.183
 5084POPC   D2A64732  14.784  21.754   6.510
 5084POPC   C3A64733  14.652  21.593   6.927
 5084POPC   C4A64734  14.394  21.653   7.288
 5084POPC   C1B64735  14.279  21.094   6.352
 5084POPC   C2B64736  14.152  21.300   6.726
 5084POPC   C3B64737  14.140  21.191   7.122
 5084POPC   C4B64738  14.526  21.156   7.240
 5085POPC   NC364739  19.575  19.548   5.167
 5085POPC   PO464740  20.013  19.933   5.403
 5085POPC   GL164741  19.885  19.876   5.806
 5085POPC   GL264742  19.567  19.776   5.741
 5085POPC   C1A64743  19.953  19.860   6.242
 5085POPC   D2A64744  20.096  19.749   6.642
 5085POPC   C3A64745  19.985  19.964   7.008
 5085POPC   C4A64746  19.997  20.087   7.433
 5085POPC   C1B64747  19.425  19.650   6.183
 5085POPC   C2B64748  19.585  19.740   6.619
 5085POPC   C3B64749  19.535  19.768   7.099
 5085POPC   C4B64750  19.623  19.724   7.544
 5086POPC   NC364751  21.820  15.364   5.546
 5086POPC   PO464752  21.310  14.951   5.283
 5086POPC   GL164753  21.424  15.026   5.756
 5086POPC   GL264754  21.355  15.383   5.820
 5086POPC   C1A64755  21.217  15.021   6.205
 5086POPC   D2A64756  21.095  15.352   6.541
 5086POPC   C3A64757  21.158  15.194   6.967
 5086POPC   C4A64758  21.322  14.862   7.227
 5086POPC   C1B64759  21.554  15.409   6.259
 5086POPC   C2B64760  21.578  15.426   6.734
 5086POPC   C3B64761  21.709  15.128   7.038
 5086POPC   C4B64762  21.790  15.127   7.482
 5087POPC   NC364763   3.666  34.409   5.687
 5087POPC   PO464764   3.281  34.584   5.205
 5087POPC   GL164765   3.174  34.536   5.681
 5087POPC   GL264766   3.363  34.810   5.805
 5087POPC   C1A64767   3.218  34.407   6.154
 5087POPC   D2A64768   3.445  34.476   6.555
 5087POPC   C3A64769   3.534  34.346   6.989
 5087POPC   C4A64770   3.935  34.249   7.185
 5087POPC   C1B64771   3.532  34.823   6.186
 5087POPC   C2B64772   3.568  35.039   6.532
 5087POPC   C3B64773   3.601  34.856   6.869
 5087POPC   C4B64774   3.626  34.792   7.260
 5088POPC   NC364775  16.312  11.732   5.450
 5088POPC   PO464776  16.951  12.023   5.514
 5088POPC   GL164777  16.696  12.132   5.839
 5088POPC   GL264778  16.497  11.861   5.916
 5088POPC   C1A64779  16.651  12.358   6.221
 5088POPC   D2A64780  16.568  12.548   6.627
 5088POPC   C3A64781  16.542  12.360   7.025
 5088POPC   C4A64782  16.760  12.350   7.406
 5088POPC   C1B64783  16.735  11.842   6.295
 5088POPC   C2B64784  16.653  11.948   6.719
 5088POPC   C3B64785  16.631  11.874   7.178
 5088POPC   C4B64786  16.495  11.705   7.561
 5089POPC   NC364787  37.022   7.209   5.440
 5089POPC   PO464788  36.564   7.723   5.388
 5089POPC   GL164789  36.691   7.508   5.848
 5089POPC   GL264790  37.052   7.424   5.885
 5089POPC   C1A64791  36.831   7.380   6.341
 5089POPC   D2A64792  37.124   7.558   6.675
 5089POPC   C3A64793  36.887   7.514   7.039
 5089POPC   C4A64794  36.751   7.188   7.307
 5089POPC   C1B64795  37.120   7.046   6.101
 5089POPC   C2B64796  37.242   7.087   6.531
 5089POPC   C3B64797  37.064   7.050   6.924
 5089POPC   C4B64798  37.104   6.798   7.283
 5090POPC   NC364799  41.817  20.818   5.342
 5090POPC   PO464800  41.528  20.258   5.582
 5090POPC   GL164801  41.511  20.696   5.761
 5090POPC   GL264802  41.188  20.866   5.819
 5090POPC   C1A64803  41.590  20.771   6.201
 5090POPC   D2A64804  41.704  20.540   6.578
 5090POPC   C3A64805  41.522  20.678   6.962
 5090POPC   C4A64806  41.760  20.813   7.312
 5090POPC   C1B64807  41.114  20.555   6.133
 5090POPC   C2B64808  41.193  20.513   6.552
 5090POPC   C3B64809  41.119  20.354   6.944
 5090POPC   C4B64810  41.073  20.570   7.319
 5091POPC   NC364811  41.337  43.695   5.413
 5091POPC   PO464812  41.951  43.989   5.481
 5091POPC   GL164813  41.686  43.836   5.770
 5091POPC   GL264814  41.413  44.091   5.735
 5091POPC   C1A64815  41.677  43.770   6.204
 5091POPC   D2A64816  41.523  43.905   6.602
 5091POPC   C3A64817  41.745  43.845   7.001
 5091POPC   C4A64818  41.507  43.767   7.388
 5091POPC   C1B64819  41.357  44.359   6.088
 5091POPC   C2B64820  41.288  44.354   6.537
 5091POPC   C3B64821  41.322  44.201   6.979
 5091POPC   C4B64822  41.619  44.254   7.319
 5092POPC   NC364823  27.678  42.964   5.463
 5092POPC   PO464824  27.508  43.576   5.498
 5092POPC   GL164825  27.395  43.269   5.805
 5092POPC   GL264826  27.716  43.360   5.947
 5092POPC   C1A64827  27.503  42.934   6.132
 5092POPC   D2A64828  27.828  42.917   6.458
 5092POPC   C3A64829  27.678  42.780   6.833
 5092POPC   C4A64830  27.337  42.989   7.003
 5092POPC   C1B64831  27.411  43.425   6.305
 5092POPC   C2B64832  27.420  43.646   6.719
 5092POPC   C3B64833  27.539  43.447   7.143
 5092POPC   C4B64834  27.817  43.066   7.261
 5093POPC   NC364835  26.236   4.094   5.464
 5093POPC   PO464836  26.888   4.385   5.426
 5093POPC   GL164837  26.573   4.398   5.724
 5093POPC   GL264838  26.643   4.061   5.758
 5093POPC   C1A64839  26.511   4.511   6.158
 5093POPC   D2A64840  26.692   4.379   6.533
 5093POPC   C3A64841  26.577   4.481   6.922
 5093POPC   C4A64842  26.909   4.428   7.172
 5093POPC   C1B64843  26.788   4.056   6.144
 5093POPC   C2B64844  26.799   3.866   6.518
 5093POPC   C3B64845  26.814   4.017   6.899
 5093POPC   C4B64846  26.850   3.942   7.310
 5094POPC   NC364847  29.473   1.057   5.398
 5094POPC   PO464848  30.035   1.411   5.275
 5094POPC   GL164849  29.833   1.327   5.750
 5094POPC   GL264850  29.487   1.445   5.751
 5094POPC   C1A64851  29.978   1.202   6.169
 5094POPC   D2A64852  29.787   1.102   6.559
 5094POPC   C3A64853  29.967   1.066   6.982
 5094POPC   C4A64854  30.152   1.384   7.229
 5094POPC   C1B64855  29.463   1.184   6.144
 5094POPC   C2B64856  29.288   1.026   6.542
 5094POPC   C3B64857  29.456   1.007   6.940
 5094POPC   C4B64858  29.623   1.202   7.345
 5095POPC   NC364859  32.875  38.374   5.454
 5095POPC   PO464860  33.335  37.952   5.797
 5095POPC   GL164861  33.092  38.349   5.912
 5095POPC   GL264862  32.880  38.691   5.847
 5095POPC   C1A64863  32.898  38.445   6.307
 5095POPC   D2A64864  33.094  38.579   6.673
 5095POPC   C3A64865  33.051  38.293   7.012
 5095POPC   C4A64866  33.078  38.528   7.380
 5095POPC   C1B64867  32.519  38.792   6.120
 5095POPC   C2B64868  32.487  38.666   6.552
 5095POPC   C3B64869  32.651  38.605   6.947
 5095POPC   C4B64870  32.671  38.854   7.272
 5096POPC   NC364871  37.236   6.486   5.415
 5096POPC   PO464872  36.668   6.866   5.413
 5096POPC   GL164873  36.843   6.598   5.755
 5096POPC   GL264874  37.189   6.565   5.910
 5096POPC   C1A64875  36.772   6.658   6.191
 5096POPC   D2A64876  36.746   6.885   6.555
 5096POPC   C3A64877  36.784   6.597   6.927
 5096POPC   C4A64878  36.607   6.656   7.349
 5096POPC   C1B64879  37.063   6.232   6.207
 5096POPC   C2B64880  37.103   6.117   6.639
 5096POPC   C3B64881  37.217   6.306   7.049
 5096POPC   C4B64882  36.965   6.285   7.395
 5097POPC   NC364883  21.315  30.308   5.509
 5097POPC   PO464884  21.491  29.626   5.474
 5097POPC   GL164885  21.526  29.900   5.821
 5097POPC   GL264886  21.255  29.706   5.955
 5097POPC   C1A64887  21.628  29.949   6.257
 5097POPC   D2A64888  21.384  29.899   6.639
 5097POPC   C3A64889  21.691  29.965   6.958
 5097POPC   C4A64890  21.791  30.275   7.271
 5097POPC   C1B64891  21.166  30.135   6.125
 5097POPC   C2B64892  21.235  30.370   6.490
 5097POPC   C3B64893  21.035  30.243   6.874
 5097POPC   C4B64894  21.254  30.083   7.204
 5098POPC   NC364895  13.826  19.585   5.400
 5098POPC   PO464896  13.539  19.006   5.163
 5098POPC   GL164897  13.460  18.945   5.621
 5098POPC   GL264898  13.607  19.250   5.767
 5098POPC   C1A64899  13.503  18.823   6.039
 5098POPC   D2A64900  13.762  18.914   6.384
 5098POPC   C3A64901  13.615  18.691   6.736
 5098POPC   C4A64902  13.588  18.899   7.137
 5098POPC   C1B64903  13.817  19.385   6.162
 5098POPC   C2B64904  13.994  19.356   6.588
 5098POPC   C3B64905  13.829  19.351   6.977
 5098POPC   C4B64906  13.859  19.284   7.377
 5099POPC   NC364907   0.440  20.277   5.454
 5099POPC   PO464908   0.202  20.918   5.264
 5099POPC   GL164909   0.377  20.756   5.698
 5099POPC   GL264910   0.158  20.483   5.810
 5099POPC   C1A64911   0.434  20.670   6.186
 5099POPC   D2A64912   0.286  20.822   6.594
 5099POPC   C3A64913   0.460  20.745   7.003
 5099POPC   C4A64914   0.853  20.578   7.116
 5099POPC   C1B64915   0.144  20.240   6.184
 5099POPC   C2B64916   0.274  20.306   6.587
 5099POPC   C3B64917   0.070  20.175   6.964
 5099POPC   C4B64918  44.931  20.370   7.352
 5100POPC   NC364919  10.951  31.010   5.494
 5100POPC   PO464920  10.492  30.546   5.385
 5100POPC   GL164921  10.548  30.769   5.776
 5100POPC   GL264922  10.445  31.116   5.737
 5100POPC   C1A64923  10.513  30.594   6.211
 5100POPC   D2A64924  10.572  30.392   6.617
 5100POPC   C3A64925  10.291  30.449   6.942
 5100POPC   C4A64926  10.538  30.656   7.240
 5100POPC   C1B64927  10.640  31.093   6.175
 5100POPC   C2B64928  10.594  30.931   6.618
 5100POPC   C3B64929  10.586  31.152   7.033
 5100POPC   C4B64930  10.355  31.089   7.455
 5101POPC   NC364931   9.596  42.673   5.354
 5101POPC   PO464932  10.063  42.204   5.314
 5101POPC   GL164933   9.806  42.275   5.689
 5101POPC   GL264934   9.918  42.582   5.739
 5101POPC   C1A64935   9.774  42.191   6.152
 5101POPC   D2A64936   9.988  42.218   6.553
 5101POPC   C3A64937   9.811  42.118   6.925
 5101POPC   C4A64938   9.443  42.116   7.116
 5101POPC   C1B64939   9.646  42.691   6.064
 5101POPC   C2B64940   9.767  42.708   6.489
 5101POPC   C3B64941   9.616  42.661   6.886
 5101POPC   C4B64942   9.664  42.535   7.265
 5102POPC   NC364943  44.465  41.815   5.412
 5102POPC   PO464944  43.813  41.678   5.398
 5102POPC   GL164945  43.829  41.484   5.803
 5102POPC   GL264946  43.883  41.807   5.951
 5102POPC   C1A64947  43.973  41.344   6.232
 5102POPC   D2A64948  44.136  41.386   6.679
 5102POPC   C3A64949  43.844  41.403   7.007
 5102POPC   C4A64950  43.876  41.655   7.356
 5102POPC   C1B64951  44.266  41.935   6.172
 5102POPC   C2B64952  44.305  42.092   6.605
 5102POPC   C3B64953  44.140  41.871   6.967
 5102POPC   C4B64954  44.329  41.508   7.165
 5103POPC   NC364955  15.880  33.342   5.496
 5103POPC   PO464956  15.859  32.658   5.672
 5103POPC   GL164957  15.851  33.022   5.876
 5103POPC   GL264958  16.210  33.164   5.853
 5103POPC   C1A64959  15.859  33.287   6.204
 5103POPC   D2A64960  16.044  33.160   6.589
 5103POPC   C3A64961  15.764  32.900   6.843
 5103POPC   C4A64962  15.697  33.219   7.150
 5103POPC   C1B64963  16.206  32.845   6.208
 5103POPC   C2B64964  16.210  32.649   6.617
 5103POPC   C3B64965  16.240  32.900   6.994
 5103POPC   C4B64966  16.026  32.869   7.354
 5104POPC   NC364967  14.957  18.259   5.193
 5104POPC   PO464968  15.578  18.446   5.449
 5104POPC   GL164969  15.226  18.328   5.703
 5104POPC   GL264970  15.358  18.512   5.939
 5104POPC   C1A64971  15.019  18.189   6.138
 5104POPC   D2A64972  14.876  18.013   6.569
 5104POPC   C3A64973  14.939  18.254   6.964
 5104POPC   C4A64974  15.290  18.307   7.240
 5104POPC   C1B64975  15.167  18.671   6.252
 5104POPC   C2B64976  15.203  18.560   6.648
 5104POPC   C3B64977  15.118  18.764   7.022
 5104POPC   C4B64978  15.267  18.811   7.451
 5105POPC   NC364979  44.189  14.565   5.467
 5105POPC   PO464980  43.912  13.961   5.448
 5105POPC   GL164981  43.906  14.241   5.798
 5105POPC   GL264982  43.613  14.490   5.738
 5105POPC   C1A64983  43.986  14.574   6.131
 5105POPC   D2A64984  43.913  14.793   6.539
 5105POPC   C3A64985  43.920  14.572   6.948
 5105POPC   C4A64986  44.205  14.398   7.262
 5105POPC   C1B64987  43.537  14.294   6.141
 5105POPC   C2B64988  43.765  14.250   6.532
 5105POPC   C3B64989  43.582  14.171   6.931
 5105POPC   C4B64990  43.746  14.218   7.325
 5106POPC   NC364991  38.925   3.021   5.577
 5106POPC   PO464992  39.397   2.515   5.535
 5106POPC   GL164993  39.288   2.601   5.929
 5106POPC   GL264994  39.049   2.790   6.030
 5106POPC   C1A64995  39.444   2.769   6.344
 5106POPC   D2A64996  39.225   2.874   6.732
 5106POPC   C3A64997  39.303   2.607   7.103
 5106POPC   C4A64998  39.680   2.474   7.322
 5106POPC   C1B64999  39.079   2.415   6.338
 5106POPC   C2B65000  38.998   2.348   6.759
 5106POPC   C3B65001  38.814   2.678   6.996
 5106POPC   C4B65002  38.818   2.767   7.452
 5107POPC   NC365003  43.424   1.104   5.562
 5107POPC   PO465004  42.900   0.756   5.288
 5107POPC   GL165005  42.914   1.001   5.715
 5107POPC   GL265006  43.047   1.389   5.770
 5107POPC   C1A65007  43.127   1.045   6.126
 5107POPC   D2A65008  43.177   1.155   6.542
 5107POPC   C3A65009  43.176   0.868   6.874
 5107POPC   C4A65010  42.828   0.978   7.157
 5107POPC   C1B65011  43.316   1.525   6.158
 5107POPC   C2B65012  43.516   1.555   6.590
 5107POPC   C3B65013  43.274   1.424   6.985
 5107POPC   C4B65014  43.272   1.519   7.451
 5108POPC   NC365015  43.951   1.408   5.411
 5108POPC   PO465016  43.789   0.829   5.467
 5108POPC   GL165017  43.877   1.029   5.835
 5108POPC   GL265018  43.633   0.809   5.984
 5108POPC   C1A65019  44.128   1.217   6.168
 5108POPC   D2A65020  44.039   1.387   6.573
 5108POPC   C3A65021  44.058   1.263   7.011
 5108POPC   C4A65022  43.699   1.342   7.223
 5108POPC   C1B65023  43.635   1.116   6.304
 5108POPC   C2B65024  43.656   1.069   6.751
 5108POPC   C3B65025  43.642   0.831   7.118
 5108POPC   C4B65026  43.327   1.016   7.352
 5109POPC   NC365027  18.516  29.921   5.335
 5109POPC   PO465028  17.860  30.112   5.332
 5109POPC   GL165029  18.123  29.886   5.694
 5109POPC   GL265030  18.476  29.990   5.847
 5109POPC   C1A65031  18.028  29.861   6.144
 5109POPC   D2A65032  18.064  30.088   6.564
 5109POPC   C3A65033  18.062  29.880   6.976
 5109POPC   C4A65034  18.198  29.997   7.398
 5109POPC   C1B65035  18.497  29.971   6.313
 5109POPC   C2B65036  18.537  29.910   6.757
 5109POPC   C3B65037  18.669  30.190   7.076
 5109POPC   C4B65038  18.670  30.156   7.508
 5110POPC   NC365039  32.278   0.941   5.479
 5110POPC   PO465040  31.801   1.508   5.406
 5110POPC   GL165041  31.904   1.468   5.867
 5110POPC   GL265042  32.124   1.223   5.877
 5110POPC   C1A65043  32.072   1.484   6.333
 5110POPC   D2A65044  32.406   1.374   6.640
 5110POPC   C3A65045  32.285   1.173   7.010
 5110POPC   C4A65046  31.907   1.255   7.190
 5110POPC   C1B65047  32.389   1.066   6.207
 5110POPC   C2B65048  32.283   0.859   6.589
 5110POPC   C3B65049  32.480   0.718   6.942
 5110POPC   C4B65050  32.382   0.765   7.385
 5111POPC   NC365051  40.043  40.678   5.491
 5111POPC   PO465052  39.694  41.276   5.498
 5111POPC   GL165053  40.026  41.095   5.787
 5111POPC   GL265054  40.335  41.282   5.823
 5111POPC   C1A65055  40.113  40.847   6.155
 5111POPC   D2A65056  39.921  40.742   6.543
 5111POPC   C3A65057  40.009  40.755   6.963
 5111POPC   C4A65058  39.816  40.717   7.377
 5111POPC   C1B65059  40.231  41.334   6.248
 5111POPC   C2B65060  40.304  41.098   6.597
 5111POPC   C3B65061  40.424  41.093   7.013
 5111POPC   C4B65062  40.316  40.849   7.357
 5112POPC   NC365063   4.600   0.817   5.445
 5112POPC   PO465064   4.193   0.232   5.490
 5112POPC   GL165065   4.297   0.583   5.818
 5112POPC   GL265066   4.659   0.676   5.949
 5112POPC   C1A65067   4.265   0.561   6.278
 5112POPC   D2A65068   4.411   0.602   6.676
 5112POPC   C3A65069   4.168   0.363   6.993
 5112POPC   C4A65070   4.001   0.351   7.375
 5112POPC   C1B65071   4.676   0.276   6.210
 5112POPC   C2B65072   4.415   0.109   6.584
 5112POPC   C3B65073   4.627   0.161   7.000
 5112POPC   C4B65074   4.607   0.578   7.138
 5113POPC   NC365075  30.207  13.553   5.662
 5113POPC   PO465076  29.603  13.677   5.347
 5113POPC   GL165077  29.718  13.872   5.797
 5113POPC   GL265078  30.000  13.746   6.057
 5113POPC   C1A65079  29.608  13.961   6.231
 5113POPC   D2A65080  29.845  13.875   6.614
 5113POPC   C3A65081  29.684  13.517   6.855
 5113POPC   C4A65082  29.391  13.593   7.234
 5113POPC   C1B65083  29.968  13.414   6.363
 5113POPC   C2B65084  30.159  13.269   6.730
 5113POPC   C3B65085  30.237  13.396   7.120
 5113POPC   C4B65086  29.917  13.730   7.270
 5114POPC   NC365087   3.008  18.409   5.357
 5114POPC   PO465088   2.361  18.205   5.533
 5114POPC   GL165089   2.723  18.237   5.843
 5114POPC   GL265090   2.861  18.580   5.821
 5114POPC   C1A65091   2.963  18.158   6.243
 5114POPC   D2A65092   3.260  18.199   6.588
 5114POPC   C3A65093   3.020  18.173   6.967
 5114POPC   C4A65094   2.577  18.294   7.063
 5114POPC   C1B65095   2.699  18.630   6.232
 5114POPC   C2B65096   2.883  18.544   6.635
 5114POPC   C3B65097   2.929  18.724   7.039
 5114POPC   C4B65098   2.564  18.759   7.337
 5115POPC   NC365099  11.114  41.814   5.499
 5115POPC   PO465100  10.912  41.201   5.550
 5115POPC   GL165101  11.214  41.302   5.796
 5115POPC   GL265102  11.019  41.574   5.939
 5115POPC   C1A65103  11.174  41.185   6.231
 5115POPC   D2A65104  10.979  41.291   6.619
 5115POPC   C3A65105  11.239  41.179   6.950
 5115POPC   C4A65106  11.462  41.383   7.264
 5115POPC   C1B65107  11.423  41.684   6.101
 5115POPC   C2B65108  11.573  41.954   6.415
 5115POPC   C3B65109  11.679  41.905   6.822
 5115POPC   C4B65110  11.497  41.894   7.216
 5116POPC   NC365111  24.826  44.567   5.117
 5116POPC   PO465112  24.354  44.897   5.456
 5116POPC   GL165113  24.424  44.656   5.803
 5116POPC   GL265114  24.663  44.881   5.921
 5116POPC   C1A65115  24.540  44.471   6.214
 5116POPC   D2A65116  24.380  44.599   6.610
 5116POPC   C3A65117  24.661  44.575   6.914
 5116POPC   C4A65118  24.381  44.527   7.201
 5116POPC   C1B65119  24.525  44.979   6.320
 5116POPC   C2B65120  24.480   0.083   6.760
 5116POPC   C3B65121  24.603  44.997   7.196
 5116POPC   C4B65122  24.846   0.029   7.537
 5117POPC   NC365123   9.541  17.931   5.500
 5117POPC   PO465124   9.493  18.602   5.353
 5117POPC   GL165125   9.619  18.365   5.740
 5117POPC   GL265126   9.964  18.187   5.722
 5117POPC   C1A65127   9.457  18.231   6.160
 5117POPC   D2A65128   9.515  18.397   6.566
 5117POPC   C3A65129   9.524  18.143   6.886
 5117POPC   C4A65130   9.717  18.191   7.226
 5117POPC   C1B65131   9.933  18.382   6.141
 5117POPC   C2B65132  10.053  18.303   6.549
 5117POPC   C3B65133   9.928  18.509   6.906
 5117POPC   C4B65134  10.176  18.695   7.216
 5118POPC   NC365135   0.682   7.742   5.585
 5118POPC   PO465136   0.505   7.149   5.783
 5118POPC   GL165137   0.439   7.468   6.044
 5118POPC   GL265138   0.697   7.707   6.073
 5118POPC   C1A65139   0.337   7.475   6.474
 5118POPC   D2A65140  44.995   7.527   6.740
 5118POPC   C3A65141   0.203   7.359   7.050
 5118POPC   C4A65142   0.425   7.427   7.399
 5118POPC   C1B65143   0.829   7.644   6.468
 5118POPC   C2B65144   0.624   7.723   6.842
 5118POPC   C3B65145   0.753   7.786   7.260
 5118POPC   C4B65146   0.818   7.642   7.720
 5119POPC   NC365147  34.392  14.857   5.534
 5119POPC   PO465148  35.008  15.198   5.433
 5119POPC   GL165149  34.796  15.280   5.825
 5119POPC   GL265150  34.746  14.953   5.894
 5119POPC   C1A65151  34.838  15.231   6.301
 5119POPC   D2A65152  34.922  14.955   6.648
 5119POPC   C3A65153  34.763  15.190   7.012
 5119POPC   C4A65154  34.757  15.296   7.430
 5119POPC   C1B65155  34.348  15.132   6.132
 5119POPC   C2B65156  34.119  15.259   6.519
 5119POPC   C3B65157  34.232  15.148   6.943
 5119POPC   C4B65158  34.328  15.021   7.343
 5120POPC   NC365159  14.124  28.909   5.563
 5120POPC   PO465160  14.522  29.230   5.250
 5120POPC   GL165161  14.488  29.245   5.731
 5120POPC   GL265162  14.122  29.279   5.890
 5120POPC   C1A65163  14.543  29.046   6.144
 5120POPC   D2A65164  14.516  28.813   6.546
 5120POPC   C3A65165  14.214  28.915   6.872
 5120POPC   C4A65166  14.451  28.929   7.245
 5120POPC   C1B65167  14.058  29.113   6.300
 5120POPC   C2B65168  14.349  29.310   6.560
 5120POPC   C3B65169  14.443  29.373   6.982
 5120POPC   C4B65170  14.117  29.397   7.289
 5121POPC   NC365171   0.105  44.952   5.488
 5121POPC   PO465172  44.462  44.904   5.271
 5121POPC   GL165173  44.628  44.731   5.694
 5121POPC   GL265174  44.954  44.638   5.853
 5121POPC   C1A65175  44.581  44.776   6.159
 5121POPC   D2A65176  44.357  44.815   6.534
 5121POPC   C3A65177  44.441  44.557   6.872
 5121POPC   C4A65178  44.646  44.773   7.176
 5121POPC   C1B65179   0.073  44.635   6.291
 5121POPC   C2B65180  44.930  44.742   6.695
 5121POPC   C3B65181   0.126  44.664   7.071
 5121POPC   C4B65182   0.051  44.452   7.507
 5122POPC   NC365183  29.484  43.714   5.394
 5122POPC   PO465184  30.218  43.870   5.406
 5122POPC   GL165185  29.873  43.887   5.698
 5122POPC   GL265186  29.833  43.539   5.797
 5122POPC   C1A65187  29.810  44.050   6.125
 5122POPC   D2A65188  30.088  44.102   6.495
 5122POPC   C3A65189  29.918  44.014   6.894
 5122POPC   C4A65190  30.113  44.102   7.300
 5122POPC   C1B65191  30.127  43.634   6.139
 5122POPC   C2B65192  30.012  43.559   6.565
 5122POPC   C3B65193  30.093  43.463   6.954
 5122POPC   C4B65194  30.046  43.616   7.287
 5123POPC   NC365195  24.824   4.535   5.146
 5123POPC   PO465196  24.631   5.167   5.410
 5123POPC   GL165197  24.549   5.140   5.843
 5123POPC   GL265198  24.242   4.943   5.797
 5123POPC   C1A65199  24.717   5.262   6.255
 5123POPC   D2A65200  24.718   5.561   6.595
 5123POPC   C3A65201  24.739   5.366   6.983
 5123POPC   C4A65202  24.791   4.945   7.149
 5123POPC   C1B65203  24.182   5.172   6.200
 5123POPC   C2B65204  24.365   5.114   6.617
 5123POPC   C3B65205  24.321   5.053   7.040
 5123POPC   C4B65206  24.232   5.320   7.375
 5124POPC   NC365207   6.650  29.612   5.506
 5124POPC   PO465208   6.549  30.268   5.364
 5124POPC   GL165209   6.838  30.082   5.721
 5124POPC   GL265210   6.537  29.993   5.846
 5124POPC   C1A65211   6.921  29.981   6.196
 5124POPC   D2A65212   6.719  29.822   6.621
 5124POPC   C3A65213   6.787  30.039   7.039
 5124POPC   C4A65214   6.682  29.686   7.345
 5124POPC   C1B65215   6.391  29.882   6.235
 5124POPC   C2B65216   6.187  30.033   6.613
 5124POPC   C3B65217   6.298  29.898   7.031
 5124POPC   C4B65218   6.388  30.100   7.389
 5125POPC   NC365219   8.426  18.933   5.358
 5125POPC   PO465220   7.853  19.133   5.642
 5125POPC   GL165221   8.069  18.857   5.913
 5125POPC   GL265222   8.367  18.679   5.803
 5125POPC   C1A65223   8.196  18.873   6.362
 5125POPC   D2A65224   8.408  19.208   6.577
 5125POPC   C3A65225   8.331  19.388   6.951
 5125POPC   C4A65226   8.195  19.293   7.349
 5125POPC   C1B65227   8.620  18.581   6.171
 5125POPC   C2B65228   8.663  18.741   6.594
 5125POPC   C3B65229   8.346  18.800   6.939
 5125POPC   C4B65230   8.358  18.804   7.409
 5126POPC   NC365231   6.736  13.024   5.207
 5126POPC   PO465232   6.374  12.760   5.619
 5126POPC   GL165233   6.614  12.735   5.899
 5126POPC   GL265234   6.828  13.008   5.751
 5126POPC   C1A65235   6.399  12.728   6.317
 5126POPC   D2A65236   6.442  12.993   6.677
 5126POPC   C3A65237   6.831  12.942   6.890
 5126POPC   C4A65238   6.609  12.793   7.212
 5126POPC   C1B65239   6.585  13.162   6.135
 5126POPC   C2B65240   6.746  13.340   6.442
 5126POPC   C3B65241   6.686  13.437   6.854
 5126POPC   C4B65242   6.454  13.303   7.190
 5127POPC   NC365243  38.668  18.754   5.503
 5127POPC   PO465244  38.247  18.099   5.425
 5127POPC   GL165245  38.506  18.251   5.749
 5127POPC   GL265246  38.322  18.545   5.822
 5127POPC   C1A65247  38.602  18.071   6.153
 5127POPC   D2A65248  38.814  18.014   6.566
 5127POPC   C3A65249  38.555  18.003   6.930
 5127POPC   C4A65250  38.501  18.242   7.287
 5127POPC   C1B65251  38.225  18.404   6.207
 5127POPC   C2B65252  38.232  18.259   6.605
 5127POPC   C3B65253  38.456  18.529   6.868
 5127POPC   C4B65254  38.303  18.684   7.231
 5128POPC   NC365255   8.695  28.028   5.633
 5128POPC   PO465256   9.019  28.563   5.366
 5128POPC   GL165257   9.015  28.391   5.792
 5128POPC   GL265258   8.704  28.470   5.956
 5128POPC   C1A65259   9.202  28.544   6.172
 5128POPC   D2A65260   9.226  28.672   6.578
 5128POPC   C3A65261   9.200  28.298   6.740
 5128POPC   C4A65262   9.109  28.190   7.117
 5128POPC   C1B65263   8.833  28.200   6.334
 5128POPC   C2B65264   8.686  28.219   6.768
 5128POPC   C3B65265   8.817  28.588   6.961
 5128POPC   C4B65266   9.205  28.731   7.131
 5129POPC   NC365267  15.981   6.449   5.343
 5129POPC   PO465268  15.791   7.106   5.553
 5129POPC   GL165269  15.808   6.838   5.881
 5129POPC   GL265270  16.106   6.664   5.816
 5129POPC   C1A65271  15.913   6.923   6.317
 5129POPC   D2A65272  15.639   6.855   6.678
 5129POPC   C3A65273  15.889   6.901   7.044
 5129POPC   C4A65274  16.062   6.743   7.445
 5129POPC   C1B65275  16.094   6.439   6.210
 5129POPC   C2B65276  16.004   6.500   6.635
 5129POPC   C3B65277  16.146   6.428   7.022
 5129POPC   C4B65278  16.338   6.314   7.385
 5130POPC   NC365279  12.258  31.598   5.459
 5130POPC   PO465280  11.804  31.377   5.101
 5130POPC   GL165281  11.804  31.415   5.609
 5130POPC   GL265282  11.731  31.127   5.803
 5130POPC   C1A65283  12.067  31.427   6.059
 5130POPC   D2A65284  12.362  31.498   6.435
 5130POPC   C3A65285  12.274  31.596   6.901
 5130POPC   C4A65286  12.168  31.653   7.364
 5130POPC   C1B65287  11.762  31.043   6.286
 5130POPC   C2B65288  11.929  31.282   6.670
 5130POPC   C3B65289  11.951  31.247   7.151
 5130POPC   C4B65290  11.837  31.351   7.604
 5131POPC   NC365291  25.164  13.335   5.665
 5131POPC   PO465292  25.295  13.976   5.461
 5131POPC   GL165293  25.441  13.779   5.828
 5131POPC   GL265294  25.145  13.852   6.021
 5131POPC   C1A65295  25.510  13.519   6.195
 5131POPC   D2A65296  25.592  13.701   6.597
 5131POPC   C3A65297  25.493  13.475   6.950
 5131POPC   C4A65298  25.463  13.663   7.378
 5131POPC   C1B65299  25.080  13.648   6.451
 5131POPC   C2B65300  25.140  13.227   6.645
 5131POPC   C3B65301  25.107  13.176   7.104
 5131POPC   C4B65302  25.035  13.414   7.516
 5132POPC   NC365303  34.640  27.443   5.487
 5132POPC   PO465304  34.534  28.086   5.474
 5132POPC   GL165305  34.336  27.891   5.830
 5132POPC   GL265306  34.254  27.519   5.782
 5132POPC   C1A65307  34.525  27.905   6.234
 5132POPC   D2A65308  34.789  27.704   6.582
 5132POPC   C3A65309  34.564  27.729   6.964
 5132POPC   C4A65310  34.374  27.852   7.340
 5132POPC   C1B65311  34.467  27.409   6.159
 5132POPC   C2B65312  34.326  27.450   6.571
 5132POPC   C3B65313  34.430  27.236   6.951
 5132POPC   C4B65314  34.801  27.304   7.126
 5133POPC   NC365315  25.016  36.737   5.604
 5133POPC   PO465316  25.443  37.240   5.429
 5133POPC   GL165317  25.424  37.029   5.857
 5133POPC   GL265318  25.095  37.074   5.991
 5133POPC   C1A65319  25.405  36.960   6.354
 5133POPC   D2A65320  25.106  37.029   6.724
 5133POPC   C3A65321  25.304  37.011   7.099
 5133POPC   C4A65322  25.571  36.650   7.002
 5133POPC   C1B65323  24.887  36.830   6.295
 5133POPC   C2B65324  24.753  36.647   6.675
 5133POPC   C3B65325  24.848  36.768   7.119
 5133POPC   C4B65326  24.758  36.665   7.551
 5134POPC   NC365327  22.204  24.569   5.293
 5134POPC   PO465328  22.637  24.180   5.123
 5134POPC   GL165329  22.412  24.488   5.730
 5134POPC   GL265330  22.049  24.532   5.788
 5134POPC   C1A65331  22.465  24.565   6.198
 5134POPC   D2A65332  22.718  24.571   6.580
 5134POPC   C3A65333  22.573  24.435   6.987
 5134POPC   C4A65334  22.559  24.736   7.283
 5134POPC   C1B65335  22.035  24.286   6.193
 5134POPC   C2B65336  22.195  24.358   6.643
 5134POPC   C3B65337  22.077  24.591   7.057
 5134POPC   C4B65338  22.004  24.741   7.505
 5135POPC   NC365339  34.429   1.127   5.397
 5135POPC   PO465340  34.961   1.574   5.405
 5135POPC   GL165341  34.838   1.313   5.768
 5135POPC   GL265342  34.494   1.291   5.904
 5135POPC   C1A65343  34.872   1.480   6.204
 5135POPC   D2A65344  34.555   1.443   6.521
 5135POPC   C3A65345  34.743   1.391   6.918
 5135POPC   C4A65346  34.875   1.370   7.353
 5135POPC   C1B65347  34.704   1.000   6.242
 5135POPC   C2B65348  34.656   0.787   6.663
 5135POPC   C3B65349  34.645   0.925   7.096
 5135POPC   C4B65350  34.383   1.235   7.270
 5136POPC   NC365351  29.215  10.603   5.449
 5136POPC   PO465352  28.767  10.278   5.812
 5136POPC   GL165353  28.961  10.669   5.930
 5136POPC   GL265354  29.319  10.647   5.945
 5136POPC   C1A65355  29.069  10.858   6.356
 5136POPC   D2A65356  29.340  10.716   6.710
 5136POPC   C3A65357  29.086  10.591   7.031
 5136POPC   C4A65358  28.772  10.777   7.245
 5136POPC   C1B65359  29.262  10.376   6.307
 5136POPC   C2B65360  29.265  10.173   6.719
 5136POPC   C3B65361  29.410  10.175   7.124
 5136POPC   C4B65362  29.555  10.555   7.240
 5137POPC   NC365363  44.253   3.629   5.412
 5137POPC   PO465364  43.642   3.683   5.348
 5137POPC   GL165365  43.822   3.584   5.753
 5137POPC   GL265366  44.113   3.768   5.879
 5137POPC   C1A65367  43.712   3.562   6.201
 5137POPC   D2A65368  43.734   3.752   6.620
 5137POPC   C3A65369  43.719   3.485   6.949
 5137POPC   C4A65370  44.004   3.253   7.139
 5137POPC   C1B65371  44.088   3.903   6.286
 5137POPC   C2B65372  44.259   3.829   6.695
 5137POPC   C3B65373  44.112   3.804   7.119
 5137POPC   C4B65374  44.099   4.030   7.522
 5138POPC   NC365375  42.184  44.400   5.502
 5138POPC   PO465376  42.287   0.028   5.629
 5138POPC   GL165377  42.560  44.837   5.908
 5138POPC   GL265378  42.469  44.472   5.930
 5138POPC   C1A65379  42.443  44.783   6.321
 5138POPC   D2A65380  42.297  44.425   6.522
 5138POPC   C3A65381  42.296  44.637   6.889
 5138POPC   C4A65382  42.132  44.952   7.127
 5138POPC   C1B65383  42.025  44.567   6.103
 5138POPC   C2B65384  41.783  44.329   6.395
 5138POPC   C3B65385  41.840  44.305   6.824
 5138POPC   C4B65386  42.103  44.284   7.184
 5139POPC   NC365387  29.445  16.883   5.513
 5139POPC   PO465388  28.938  16.510   5.300
 5139POPC   GL165389  29.062  16.450   5.746
 5139POPC   GL265390  29.141  16.786   5.917
 5139POPC   C1A65391  28.917  16.414   6.195
 5139POPC   D2A65392  28.822  16.708   6.558
 5139POPC   C3A65393  28.935  16.605   6.974
 5139POPC   C4A65394  29.219  16.718   7.297
 5139POPC   C1B65395  29.308  16.721   6.367
 5139POPC   C2B65396  29.417  16.827   6.817
 5139POPC   C3B65397  29.554  17.085   7.202
 5139POPC   C4B65398  29.413  17.036   7.640
 5140POPC   NC365399   5.838  37.478   5.529
 5140POPC   PO465400   5.215  37.589   5.342
 5140POPC   GL165401   5.251  37.748   5.748
 5140POPC   GL265402   5.581  37.860   5.777
 5140POPC   C1A65403   5.113  37.566   6.153
 5140POPC   D2A65404   4.896  37.638   6.539
 5140POPC   C3A65405   5.101  37.510   6.941
 5140POPC   C4A65406   4.897  37.664   7.330
 5140POPC   C1B65407   5.414  37.970   6.185
 5140POPC   C2B65408   5.404  37.747   6.576
 5140POPC   C3B65409   5.442  37.925   6.976
 5140POPC   C4B65410   5.406  37.698   7.345
 5141POPC   NC365411   6.288  19.949   5.562
 5141POPC   PO465412   6.607  19.446   5.167
 5141POPC   GL165413   6.728  19.646   5.625
 5141POPC   GL265414   6.846  19.980   5.800
 5141POPC   C1A65415   6.642  19.647   6.112
 5141POPC   D2A65416   6.516  19.529   6.536
 5141POPC   C3A65417   6.809  19.554   6.901
 5141POPC   C4A65418   6.630  19.649   7.302
 5141POPC   C1B65419   6.607  20.164   6.170
 5141POPC   C2B65420   6.796  20.135   6.573
 5141POPC   C3B65421   6.742  20.094   6.999
 5141POPC   C4B65422   6.369  20.087   7.230
 5142POPC   NC365423  28.331  33.708   5.442
 5142POPC   PO465424  28.463  34.394   5.436
 5142POPC   GL165425  28.522  34.087   5.770
 5142POPC   GL265426  28.178  34.024   5.876
 5142POPC   C1A65427  28.568  33.842   6.173
 5142POPC   D2A65428  28.456  33.564   6.536
 5142POPC   C3A65429  28.566  33.772   6.930
 5142POPC   C4A65430  28.346  33.916   7.294
 5142POPC   C1B65431  28.064  33.645   6.148
 5142POPC   C2B65432  27.905  33.578   6.563
 5142POPC   C3B65433  28.089  33.616   6.955
 5142POPC   C4B65434  27.973  33.513   7.338
 5143POPC   NC365435  38.913  40.409   5.488
 5143POPC   PO465436  39.196  39.802   5.435
 5143POPC   GL165437  39.107  39.967   5.841
 5143POPC   GL265438  38.968  40.264   5.972
 5143POPC   C1A65439  39.100  39.875   6.283
 5143POPC   D2A65440  39.394  39.970   6.596
 5143POPC   C3A65441  39.174  40.077   6.920
 5143POPC   C4A65442  39.225  39.811   7.240
 5143POPC   C1B65443  39.375  40.316   6.218
 5143POPC   C2B65444  39.526  40.448   6.678
 5143POPC   C3B65445  39.444  40.458   7.144
 5143POPC   C4B65446  39.034  40.322   7.346
 5144POPC   NC365447  28.533  35.633   5.560
 5144POPC   PO465448  28.528  36.225   5.254
 5144POPC   GL165449  28.322  36.258   5.639
 5144POPC   GL265450  28.653  36.307   5.803
 5144POPC   C1A65451  28.207  36.207   6.088
 5144POPC   D2A65452  28.276  35.903   6.441
 5144POPC   C3A65453  28.227  36.047   6.869
 5144POPC   C4A65454  28.261  35.903   7.268
 5144POPC   C1B65455  28.701  36.126   6.229
 5144POPC   C2B65456  28.595  36.291   6.644
 5144POPC   C3B65457  28.744  36.365   7.078
 5144POPC   C4B65458  28.858  36.594   7.472
 5145POPC   NC365459  25.398  18.165   5.433
 5145POPC   PO465460  24.992  18.619   5.484
 5145POPC   GL165461  25.344  18.576   5.777
 5145POPC   GL265462  25.410  18.243   5.931
 5145POPC   C1A65463  25.446  18.645   6.233
 5145POPC   D2A65464  25.548  18.546   6.687
 5145POPC   C3A65465  25.177  18.493   6.964
 5145POPC   C4A65466  24.989  18.137   7.213
 5145POPC   C1B65467  25.509  18.135   6.382
 5145POPC   C2B65468  25.402  18.046   6.846
 5145POPC   C3B65469  25.431  17.856   7.287
 5145POPC   C4B65470  25.520  17.722   7.749
 5146POPC   NC365471  20.977  11.405   5.449
 5146POPC   PO465472  20.346  11.046   5.485
 5146POPC   GL165473  20.521  11.368   5.820
 5146POPC   GL265474  20.847  11.593   5.902
 5146POPC   C1A65475  20.444  11.525   6.237
 5146POPC   D2A65476  20.265  11.626   6.631
 5146POPC   C3A65477  20.386  11.379   6.971
 5146POPC   C4A65478  20.291  11.386   7.397
 5146POPC   C1B65479  20.868  11.244   6.194
 5146POPC   C2B65480  20.769  11.289   6.632
 5146POPC   C3B65481  20.876  11.482   7.028
 5146POPC   C4B65482  20.938  11.292   7.404
 5147POPC   NC365483  39.382  11.172   5.461
 5147POPC   PO465484  38.854  11.218   5.566
 5147POPC   GL165485  39.191  11.244   5.942
 5147POPC   GL265486  39.564  11.153   5.947
 5147POPC   C1A65487  39.295  11.247   6.414
 5147POPC   D2A65488  39.032  11.232   6.830
 5147POPC   C3A65489  39.179  11.316   7.266
 5147POPC   C4A65490  39.582  11.188   7.371
 5147POPC   C1B65491  39.783  11.475   6.268
 5147POPC   C2B65492  39.847  11.693   6.716
 5147POPC   C3B65493  39.620  11.724   7.146
 5147POPC   C4B65494  39.475  11.642   7.587
 5148POPC   NC365495  18.486  15.448   5.651
 5148POPC   PO465496  19.074  15.079   5.355
 5148POPC   GL165497  19.154  15.150   5.791
 5148POPC   GL265498  19.410  15.438   5.844
 5148POPC   C1A65499  18.875  15.044   6.137
 5148POPC   D2A65500  18.709  15.260   6.505
 5148POPC   C3A65501  18.917  15.115   6.907
 5148POPC   C4A65502  18.711  15.018   7.302
 5148POPC   C1B65503  19.361  15.222   6.258
 5148POPC   C2B65504  19.492  15.134   6.665
 5148POPC   C3B65505  19.464  15.064   7.095
 5148POPC   C4B65506  19.150  15.282   7.357
 5149POPC   NC365507  40.486  35.208   5.449
 5149POPC   PO465508  39.749  35.479   5.385
 5149POPC   GL165509  39.969  35.388   5.780
 5149POPC   GL265510  40.303  35.459   5.855
 5149POPC   C1A65511  39.917  35.251   6.224
 5149POPC   D2A65512  39.996  35.008   6.615
 5149POPC   C3A65513  39.845  35.200   7.001
 5149POPC   C4A65514  39.541  35.114   7.308
 5149POPC   C1B65515  40.291  35.614   6.258
 5149POPC   C2B65516  40.089  35.518   6.636
 5149POPC   C3B65517  40.224  35.543   7.033
 5149POPC   C4B65518  40.352  35.365   7.425
 5150POPC   NC365519  37.586  20.595   5.319
 5150POPC   PO465520  37.615  21.103   5.738
 5150POPC   GL165521  37.590  20.743   5.953
 5150POPC   GL265522  37.774  20.470   5.781
 5150POPC   C1A65523  37.653  20.713   6.395
 5150POPC   D2A65524  37.516  20.417   6.682
 5150POPC   C3A65525  37.520  20.679   7.023
 5150POPC   C4A65526  37.333  20.689   7.396
 5150POPC   C1B65527  37.837  20.293   6.215
 5150POPC   C2B65528  38.013  20.293   6.667
 5150POPC   C3B65529  37.881  20.332   7.116
 5150POPC   C4B65530  37.972  20.361   7.574
 5151POPC   NC365531   5.306   4.913   5.433
 5151POPC   PO465532   4.797   5.379   5.348
 5151POPC   GL165533   4.944   5.228   5.735
 5151POPC   GL265534   5.296   5.286   5.802
 5151POPC   C1A65535   4.733   5.185   6.124
 5151POPC   D2A65536   4.907   5.117   6.522
 5151POPC   C3A65537   4.737   5.324   6.894
 5151POPC   C4A65538   4.555   5.272   7.298
 5151POPC   C1B65539   5.234   4.957   6.131
 5151POPC   C2B65540   5.338   4.825   6.576
 5151POPC   C3B65541   5.161   5.001   6.943
 5151POPC   C4B65542   5.218   5.403   7.073
 5152POPC   NC365543  34.315  37.399   5.409
 5152POPC   PO465544  34.882  37.901   5.494
 5152POPC   GL165545  34.669  37.745   5.896
 5152POPC   GL265546  34.340  37.617   5.872
 5152POPC   C1A65547  34.541  37.669   6.356
 5152POPC   D2A65548  34.728  37.561   6.731
 5152POPC   C3A65549  34.486  37.513   7.055
 5152POPC   C4A65550  34.209  37.860   7.174
 5152POPC   C1B65551  34.135  37.417   6.228
 5152POPC   C2B65552  34.084  37.630   6.642
 5152POPC   C3B65553  34.000  37.416   7.020
 5152POPC   C4B65554  34.126  37.339   7.459
 5153POPC   NC365555  40.322   0.991   5.340
 5153POPC   PO465556  39.853   1.343   5.504
 5153POPC   GL165557  39.886   1.429   5.917
 5153POPC   GL265558  39.794   1.101   5.954
 5153POPC   C1A65559  39.930   1.416   6.359
 5153POPC   D2A65560  39.839   1.189   6.733
 5153POPC   C3A65561  40.086   1.357   7.075
 5153POPC   C4A65562  40.089   1.279   7.510
 5153POPC   C1B65563  39.854   0.891   6.299
 5153POPC   C2B65564  40.119   0.741   6.631
 5153POPC   C3B65565  40.042   0.847   7.054
 5153POPC   C4B65566  39.695   1.076   7.233
 5154POPC   NC365567   6.504  35.980   5.450
 5154POPC   PO465568   6.419  36.603   5.411
 5154POPC   GL165569   6.725  36.332   5.747
 5154POPC   GL265570   6.676  35.957   5.915
 5154POPC   C1A65571   6.733  36.361   6.211
 5154POPC   D2A65572   6.849  36.088   6.581
 5154POPC   C3A65573   6.704  36.297   6.966
 5154POPC   C4A65574   6.664  36.211   7.420
 5154POPC   C1B65575   6.391  35.965   6.287
 5154POPC   C2B65576   6.414  35.816   6.720
 5154POPC   C3B65577   6.660  35.796   7.102
 5154POPC   C4B65578   6.589  35.741   7.572
 5155POPC   NC365579  32.885  14.534   5.218
 5155POPC   PO465580  33.251  14.039   5.502
 5155POPC   GL165581  33.031  14.326   5.768
 5155POPC   GL265582  33.173  14.610   5.670
 5155POPC   C1A65583  32.890  14.377   6.202
 5155POPC   D2A65584  33.075  14.409   6.631
 5155POPC   C3A65585  32.916  14.646   6.978
 5155POPC   C4A65586  32.742  14.724   7.386
 5155POPC   C1B65587  33.379  14.589   6.093
 5155POPC   C2B65588  33.433  14.757   6.513
 5155POPC   C3B65589  33.508  14.577   6.928
 5155POPC   C4B65590  33.278  14.308   7.178
 5156POPC   NC365591  10.192  30.903   5.329
 5156POPC   PO465592   9.552  30.600   5.446
 5156POPC   GL165593   9.704  30.732   5.830
 5156POPC   GL265594   9.923  30.996   5.757
 5156POPC   C1A65595   9.630  30.872   6.252
 5156POPC   D2A65596   9.629  30.647   6.641
 5156POPC   C3A65597   9.675  30.789   7.053
 5156POPC   C4A65598  10.031  30.678   7.345
 5156POPC   C1B65599  10.135  30.954   6.139
 5156POPC   C2B65600  10.123  30.762   6.535
 5156POPC   C3B65601  10.149  30.944   6.927
 5156POPC   C4B65602   9.918  31.181   7.222
 5157POPC   NC365603  13.798  16.347   5.394
 5157POPC   PO465604  13.358  16.846   5.266
 5157POPC   GL165605  13.597  16.778   5.665
 5157POPC   GL265606  13.340  16.788   5.891
 5157POPC   C1A65607  13.775  16.740   6.123
 5157POPC   D2A65608  13.827  16.969   6.539
 5157POPC   C3A65609  13.726  16.835   6.970
 5157POPC   C4A65610  13.355  16.714   7.181
 5157POPC   C1B65611  13.293  16.576   6.305
 5157POPC   C2B65612  13.383  16.459   6.731
 5157POPC   C3B65613  13.730  16.320   6.986
 5157POPC   C4B65614  14.060  16.477   7.252
 5158POPC   NC365615  19.002   1.105   5.179
 5158POPC   PO465616  18.393   1.215   5.462
 5158POPC   GL165617  18.384   1.039   5.877
 5158POPC   GL265618  18.165   0.791   5.917
 5158POPC   C1A65619  18.405   1.207   6.286
 5158POPC   D2A65620  18.614   1.428   6.605
 5158POPC   C3A65621  18.315   1.370   6.927
 5158POPC   C4A65622  18.037   1.534   7.254
 5158POPC   C1B65623  18.031   0.832   6.311
 5158POPC   C2B65624  17.936   1.132   6.602
 5158POPC   C3B65625  17.896   1.088   7.015
 5158POPC   C4B65626  18.106   1.046   7.408
 5159POPC   NC365627   8.077  41.140   5.417
 5159POPC   PO465628   8.336  40.546   5.311
 5159POPC   GL165629   8.226  40.671   5.713
 5159POPC   GL265630   8.436  40.946   5.763
 5159POPC   C1A65631   8.245  40.573   6.160
 5159POPC   D2A65632   8.441  40.462   6.541
 5159POPC   C3A65633   8.294  40.628   6.941
 5159POPC   C4A65634   8.251  40.411   7.339
 5159POPC   C1B65635   8.101  41.047   6.072
 5159POPC   C2B65636   8.131  41.023   6.522
 5159POPC   C3B65637   7.944  40.996   6.938
 5159POPC   C4B65638   7.999  40.877   7.388
 5160POPC   NC365639  36.302  29.778   5.729
 5160POPC   PO465640  35.876  30.069   5.240
 5160POPC   GL165641  35.764  30.041   5.729
 5160POPC   GL265642  35.664  29.740   5.968
 5160POPC   C1A65643  35.926  30.126   6.167
 5160POPC   D2A65644  36.247  30.080   6.516
 5160POPC   C3A65645  36.232  29.861   6.916
 5160POPC   C4A65646  36.415  29.875   7.329
 5160POPC   C1B65647  35.992  29.629   6.306
 5160POPC   C2B65648  35.806  29.794   6.629
 5160POPC   C3B65649  35.675  29.757   7.021
 5160POPC   C4B65650  35.897  29.953   7.337
 5161POPC   NC365651  42.158  12.570   5.445
 5161POPC   PO465652  42.470  13.088   5.515
 5161POPC   GL165653  42.280  12.870   5.844
 5161POPC   GL265654  42.597  12.729   5.900
 5161POPC   C1A65655  42.019  12.904   6.210
 5161POPC   D2A65656  41.987  13.135   6.567
 5161POPC   C3A65657  42.152  12.856   6.889
 5161POPC   C4A65658  42.554  12.926   7.132
 5161POPC   C1B65659  42.462  12.556   6.309
 5161POPC   C2B65660  42.538  12.545   6.761
 5161POPC   C3B65661  42.701  12.437   7.171
 5161POPC   C4B65662  42.666  12.624   7.587
 5162POPC   NC365663  44.339  18.679   5.393
 5162POPC   PO465664  43.663  18.841   5.366
 5162POPC   GL165665  43.834  18.921   5.821
 5162POPC   GL265666  44.191  18.870   5.865
 5162POPC   C1A65667  43.951  19.179   6.244
 5162POPC   D2A65668  43.785  19.325   6.660
 5162POPC   C3A65669  43.971  19.420   7.078
 5162POPC   C4A65670  43.826  19.313   7.500
 5162POPC   C1B65671  43.964  18.674   6.231
 5162POPC   C2B65672  43.932  18.823   6.640
 5162POPC   C3B65673  43.781  18.944   7.026
 5162POPC   C4B65674  44.126  18.952   7.319
 5163POPC   NC365675   8.491  33.829   5.485
 5163POPC   PO465676   7.983  33.935   5.087
 5163POPC   GL165677   8.000  33.897   5.646
 5163POPC   GL265678   8.266  34.038   5.909
 5163POPC   C1A65679   7.877  33.923   6.163
 5163POPC   D2A65680   8.143  33.742   6.542
 5163POPC   C3A65681   8.001  33.539   6.919
 5163POPC   C4A65682   7.734  33.716   7.247
 5163POPC   C1B65683   8.509  33.742   6.165
 5163POPC   C2B65684   8.672  33.786   6.581
 5163POPC   C3B65685   8.490  33.701   6.980
 5163POPC   C4B65686   8.215  33.953   7.145
 5164POPC   NC365687   8.780   0.047   5.045
 5164POPC   PO465688   8.806  44.583   5.616
 5164POPC   GL165689   9.201  44.655   5.789
 5164POPC   GL265690   9.243   0.008   5.929
 5164POPC   C1A65691   9.388  44.583   6.205
 5164POPC   D2A65692   9.293  44.768   6.579
 5164POPC   C3A65693   9.112  44.477   6.866
 5164POPC   C4A65694   8.993  44.529   7.297
 5164POPC   C1B65695   8.928  44.784   6.210
 5164POPC   C2B65696   8.707  44.629   6.532
 5164POPC   C3B65697   8.624  44.695   6.962
 5164POPC   C4B65698   8.733   0.066   7.208
 5165POPC   NC365699  10.730  21.198   5.542
 5165POPC   PO465700  10.111  21.499   5.469
 5165POPC   GL165701  10.306  21.461   5.867
 5165POPC   GL265702  10.601  21.630   5.861
 5165POPC   C1A65703  10.527  21.297   6.257
 5165POPC   D2A65704  10.754  21.114   6.638
 5165POPC   C3A65705  10.551  21.256   7.025
 5165POPC   C4A65706  10.351  21.676   7.060
 5165POPC   C1B65707  10.953  21.605   6.170
 5165POPC   C2B65708  11.132  21.724   6.567
 5165POPC   C3B65709  10.905  21.628   6.926
 5165POPC   C4B65710  10.785  21.598   7.335
 5166POPC   NC365711  41.198  36.963   5.294
 5166POPC   PO465712  41.663  37.229   5.715
 5166POPC   GL165713  41.664  37.016   6.055
 5166POPC   GL265714  41.721  36.674   5.961
 5166POPC   C1A65715  41.359  37.090   6.374
 5166POPC   D2A65716  41.125  36.979   6.719
 5166POPC   C3A65717  41.418  37.133   6.985
 5166POPC   C4A65718  41.492  37.128   7.406
 5166POPC   C1B65719  41.576  36.628   6.399
 5166POPC   C2B65720  41.826  36.604   6.764
 5166POPC   C3B65721  41.811  36.836   7.124
 5166POPC   C4B65722  41.818  36.758   7.556
 5167POPC   NC365723  23.251   5.579   5.404
 5167POPC   PO465724  22.786   6.050   5.386
 5167POPC   GL165725  22.823   5.776   5.748
 5167POPC   GL265726  23.120   5.910   5.820
 5167POPC   C1A65727  22.881   5.688   6.217
 5167POPC   D2A65728  22.998   5.881   6.645
 5167POPC   C3A65729  23.047   5.699   7.076
 5167POPC   C4A65730  23.217   5.476   7.475
 5167POPC   C1B65731  23.133   6.145   6.241
 5167POPC   C2B65732  23.261   6.341   6.672
 5167POPC   C3B65733  23.285   6.253   7.139
 5167POPC   C4B65734  23.305   6.314   7.606
 5168POPC   NC365735  27.318  29.500   5.239
 5168POPC   PO465736  26.995  29.051   5.427
 5168POPC   GL165737  26.786  29.076   5.808
 5168POPC   GL265738  26.444  28.959   5.777
 5168POPC   C1A65739  26.844  29.193   6.201
 5168POPC   D2A65740  26.809  29.005   6.584
 5168POPC   C3A65741  26.908  29.191   6.937
 5168POPC   C4A65742  26.949  28.906   7.299
 5168POPC   C1B65743  26.366  28.967   6.226
 5168POPC   C2B65744  26.380  28.754   6.635
 5168POPC   C3B65745  26.489  28.910   7.026
 5168POPC   C4B65746  26.422  28.848   7.479
 5169POPC   NC365747  19.305  36.853   5.493
 5169POPC   PO465748  18.766  36.505   5.517
 5169POPC   GL165749  18.933  36.774   5.863
 5169POPC   GL265750  18.964  37.116   5.823
 5169POPC   C1A65751  19.033  36.815   6.288
 5169POPC   D2A65752  19.063  36.797   6.713
 5169POPC   C3A65753  19.103  36.834   7.128
 5169POPC   C4A65754  19.103  36.876   7.557
 5169POPC   C1B65755  18.649  37.163   6.153
 5169POPC   C2B65756  18.556  37.316   6.565
 5169POPC   C3B65757  18.739  37.160   6.931
 5169POPC   C4B65758  18.778  37.274   7.335
 5170POPC   NC365759  34.966  23.653   5.373
 5170POPC   PO465760  34.319  24.023   5.436
 5170POPC   GL165761  34.600  23.900   5.707
 5170POPC   GL265762  34.550  23.572   5.800
 5170POPC   C1A65763  34.675  23.995   6.123
 5170POPC   D2A65764  34.596  23.817   6.515
 5170POPC   C3A65765  34.790  23.932   6.904
 5170POPC   C4A65766  34.634  23.824   7.337
 5170POPC   C1B65767  34.490  23.398   6.226
 5170POPC   C2B65768  34.593  23.339   6.690
 5170POPC   C3B65769  34.503  23.343   7.157
 5170POPC   C4B65770  34.428  23.370   7.610
 5171POPC   NC365771   0.985  39.416   5.563
 5171POPC   PO465772   0.884  38.692   5.484
 5171POPC   GL165773   1.038  38.962   5.818
 5171POPC   GL265774   1.396  39.053   5.752
 5171POPC   C1A65775   0.925  39.037   6.256
 5171POPC   D2A65776   1.022  38.942   6.702
 5171POPC   C3A65777   1.016  39.297   7.026
 5171POPC   C4A65778   0.944  39.377   7.519
 5171POPC   C1B65779   1.410  39.247   6.147
 5171POPC   C2B65780   1.353  39.335   6.570
 5171POPC   C3B65781   1.525  39.216   6.929
 5171POPC   C4B65782   1.422  39.307   7.349
 5172POPC   NC365783  26.370   6.427   5.582
 5172POPC   PO465784  25.885   6.833   5.387
 5172POPC   GL165785  25.996   6.666   5.835
 5172POPC   GL265786  26.321   6.854   5.929
 5172POPC   C1A65787  26.194   6.408   6.212
 5172POPC   D2A65788  26.331   6.269   6.665
 5172POPC   C3A65789  26.194   6.509   7.046
 5172POPC   C4A65790  26.401   6.855   7.267
 5172POPC   C1B65791  26.062   6.870   6.319
 5172POPC   C2B65792  25.691   7.032   6.500
 5172POPC   C3B65793  25.605   6.976   6.914
 5172POPC   C4B65794  25.903   6.941   7.230
 5173POPC   NC365795  34.025  39.059   5.400
 5173POPC   PO465796  33.555  39.582   5.229
 5173POPC   GL165797  33.746  39.338   5.690
 5173POPC   GL265798  34.039  39.472   5.831
 5173POPC   C1A65799  33.707  39.185   6.175
 5173POPC   D2A65800  33.446  39.043   6.601
 5173POPC   C3A65801  33.566  39.178   7.061
 5173POPC   C4A65802  33.545  38.944   7.449
 5173POPC   C1B65803  34.004  39.615   6.258
 5173POPC   C2B65804  33.827  39.432   6.655
 5173POPC   C3B65805  34.059  39.214   6.993
 5173POPC   C4B65806  33.961  39.240   7.439
 5174POPC   NC365807  28.749  17.746   5.354
 5174POPC   PO465808  29.146  17.240   5.469
 5174POPC   GL165809  29.035  17.513   5.805
 5174POPC   GL265810  28.760  17.266   5.852
 5174POPC   C1A65811  29.118  17.690   6.241
 5174POPC   D2A65812  29.229  17.612   6.666
 5174POPC   C3A65813  29.032  17.645   7.059
 5174POPC   C4A65814  29.382  17.554   7.353
 5174POPC   C1B65815  28.993  17.174   6.230
 5174POPC   C2B65816  28.907  17.224   6.651
 5174POPC   C3B65817  29.036  17.125   7.043
 5174POPC   C4B65818  28.988  17.231   7.452
 5175POPC   NC365819  42.750  28.544   5.003
 5175POPC   PO465820  43.070  28.309   5.511
 5175POPC   GL165821  43.026  28.414   5.931
 5175POPC   GL265822  43.341  28.379   6.089
 5175POPC   C1A65823  42.903  28.303   6.351
 5175POPC   D2A65824  43.159  28.310   6.724
 5175POPC   C3A65825  42.898  28.273   7.087
 5175POPC   C4A65826  43.065  28.636   7.293
 5175POPC   C1B65827  43.316  27.982   6.254
 5175POPC   C2B65828  43.456  27.742   6.586
 5175POPC   C3B65829  43.406  27.897   6.991
 5175POPC   C4B65830  43.346  28.175   7.317
 5176POPC   NC365831  28.190   4.884   5.625
 5176POPC   PO465832  28.301   5.502   5.668
 5176POPC   GL165833  28.595   5.377   5.927
 5176POPC   GL265834  28.636   5.059   5.821
 5176POPC   C1A65835  28.616   5.260   6.363
 5176POPC   D2A65836  28.461   5.301   6.780
 5176POPC   C3A65837  28.036   5.263   6.881
 5176POPC   C4A65838  27.908   5.201   7.285
 5176POPC   C1B65839  28.671   4.783   6.142
 5176POPC   C2B65840  28.744   4.773   6.575
 5176POPC   C3B65841  28.563   4.743   6.954
 5176POPC   C4B65842  28.386   5.035   7.219
 5177POPC   NC365843  33.338   2.658   5.653
 5177POPC   PO465844  33.805   2.730   5.145
 5177POPC   GL165845  33.828   2.823   5.631
 5177POPC   GL265846  33.827   2.503   5.857
 5177POPC   C1A65847  33.744   2.958   6.090
 5177POPC   D2A65848  33.656   2.716   6.462
 5177POPC   C3A65849  33.537   2.871   6.872
 5177POPC   C4A65850  33.805   2.875   7.270
 5177POPC   C1B65851  33.598   2.269   6.223
 5177POPC   C2B65852  33.494   2.280   6.675
 5177POPC   C3B65853  33.710   2.421   7.036
 5177POPC   C4B65854  33.596   2.437   7.485
 5178POPC   NC365855  33.924  31.133   5.464
 5178POPC   PO465856  33.663  30.516   5.318
 5178POPC   GL165857  33.588  30.700   5.751
 5178POPC   GL265858  33.860  30.905   5.906
 5178POPC   C1A65859  33.649  30.552   6.196
 5178POPC   D2A65860  33.865  30.545   6.592
 5178POPC   C3A65861  33.733  30.726   6.996
 5178POPC   C4A65862  33.913  30.569   7.393
 5178POPC   C1B65863  33.920  30.996   6.343
 5178POPC   C2B65864  33.952  31.127   6.780
 5178POPC   C3B65865  34.102  31.027   7.227
 5178POPC   C4B65866  33.893  30.979   7.663
 5179POPC   NC365867  25.063  32.778   5.500
 5179POPC   PO465868  25.370  33.271   5.432
 5179POPC   GL165869  25.289  33.174   5.840
 5179POPC   GL265870  24.964  33.155   5.854
 5179POPC   C1A65871  25.187  32.926   6.241
 5179POPC   D2A65872  25.339  32.994   6.648
 5179POPC   C3A65873  25.194  32.786   6.998
 5179POPC   C4A65874  25.129  32.967   7.371
 5179POPC   C1B65875  24.995  33.408   6.198
 5179POPC   C2B65876  24.896  33.310   6.595
 5179POPC   C3B65877  25.043  33.295   6.987
 5179POPC   C4B65878  25.091  33.498   7.373
 5180POPC   NC365879   1.819  43.058   5.354
 5180POPC   PO465880   2.422  43.473   5.449
 5180POPC   GL165881   2.184  43.150   5.749
 5180POPC   GL265882   1.794  43.158   5.855
 5180POPC   C1A65883   2.118  43.099   6.219
 5180POPC   D2A65884   1.853  43.066   6.535
 5180POPC   C3A65885   2.016  43.113   6.900
 5180POPC   C4A65886   1.955  42.859   7.249
 5180POPC   C1B65887   1.551  43.314   6.216
 5180POPC   C2B65888   1.394  43.319   6.641
 5180POPC   C3B65889   1.620  43.414   6.996
 5180POPC   C4B65890   1.659  43.241   7.428
 5181POPC   NC365891  31.433  30.486   5.508
 5181POPC   PO465892  31.776  31.014   5.377
 5181POPC   GL165893  31.727  30.831   5.782
 5181POPC   GL265894  31.376  30.958   5.852
 5181POPC   C1A65895  31.678  30.847   6.251
 5181POPC   D2A65896  31.564  31.054   6.645
 5181POPC   C3A65897  31.647  30.796   6.982
 5181POPC   C4A65898  31.536  30.742   7.411
 5181POPC   C1B65899  31.211  30.601   6.130
 5181POPC   C2B65900  31.029  30.523   6.553
 5181POPC   C3B65901  31.131  30.651   7.004
 5181POPC   C4B65902  31.031  30.659   7.476
 5182POPC   NC365903  25.372  24.683   5.284
 5182POPC   PO465904  25.029  24.112   5.519
 5182POPC   GL165905  25.219  24.434   5.821
 5182POPC   GL265906  25.308  24.766   5.790
 5182POPC   C1A65907  25.036  24.656   6.203
 5182POPC   D2A65908  24.871  24.525   6.577
 5182POPC   C3A65909  24.969  24.727   6.955
 5182POPC   C4A65910  25.195  24.590   7.285
 5182POPC   C1B65911  25.542  24.628   6.199
 5182POPC   C2B65912  25.371  24.732   6.610
 5182POPC   C3B65913  25.462  24.916   7.005
 5182POPC   C4B65914  25.688  24.761   7.362
 5183POPC   NC365915   9.572  36.431   5.430
 5183POPC   PO465916   9.829  35.838   5.326
 5183POPC   GL165917   9.603  35.976   5.703
 5183POPC   GL265918   9.922  36.075   5.831
 5183POPC   C1A65919   9.564  36.148   6.165
 5183POPC   D2A65920   9.864  36.073   6.533
 5183POPC   C3A65921   9.689  35.956   6.925
 5183POPC   C4A65922   9.450  36.194   7.180
 5183POPC   C1B65923  10.076  36.360   6.175
 5183POPC   C2B65924  10.119  36.634   6.557
 5183POPC   C3B65925  10.054  36.613   6.992
 5183POPC   C4B65926   9.976  36.264   7.224
 5184POPC   NC365927  10.771   0.870   5.508
 5184POPC   PO465928  10.295   1.353   5.291
 5184POPC   GL165929  10.394   1.238   5.740
 5184POPC   GL265930  10.606   1.493   5.899
 5184POPC   C1A65931  10.311   1.189   6.204
 5184POPC   D2A65932  10.201   1.065   6.616
 5184POPC   C3A65933  10.021   1.367   6.857
 5184POPC   C4A65934  10.061   1.423   7.306
 5184POPC   C1B65935  10.809   1.169   6.165
 5184POPC   C2B65936  10.735   1.001   6.584
 5184POPC   C3B65937  10.565   1.100   6.985
 5184POPC   C4B65938  10.712   1.362   7.308
 5185POPC   NC365939  16.629   4.245   5.437
 5185POPC   PO465940  15.999   4.134   5.315
 5185POPC   GL165941  16.299   4.055   5.809
 5185POPC   GL265942  16.643   4.239   5.922
 5185POPC   C1A65943  16.358   4.130   6.288
 5185POPC   D2A65944  16.443   4.265   6.702
 5185POPC   C3A65945  16.714   4.042   7.000
 5185POPC   C4A65946  16.570   4.024   7.410
 5185POPC   C1B65947  16.820   4.420   6.313
 5185POPC   C2B65948  16.955   4.423   6.749
 5185POPC   C3B65949  16.936   4.470   7.228
 5185POPC   C4B65950  17.107   4.527   7.672
 5186POPC   NC365951  35.810  42.932   5.418
 5186POPC   PO465952  35.245  43.325   5.450
 5186POPC   GL165953  35.396  43.140   5.821
 5186POPC   GL265954  35.771  43.211   5.863
 5186POPC   C1A65955  35.358  43.305   6.254
 5186POPC   D2A65956  35.558  43.433   6.649
 5186POPC   C3A65957  35.332  43.416   7.076
 5186POPC   C4A65958  35.182  43.384   7.502
 5186POPC   C1B65959  35.681  42.893   6.166
 5186POPC   C2B65960  35.432  42.895   6.562
 5186POPC   C3B65961  35.599  42.999   6.972
 5186POPC   C4B65962  35.622  43.096   7.439
 5187POPC   NC365963   6.949  30.518   5.477
 5187POPC   PO465964   6.397  30.953   5.200
 5187POPC   GL165965   6.689  30.891   5.633
 5187POPC   GL265966   6.568  30.557   5.805
 5187POPC   C1A65967   6.821  30.906   6.122
 5187POPC   D2A65968   7.093  30.983   6.513
 5187POPC   C3A65969   6.923  31.008   6.934
 5187POPC   C4A65970   6.473  30.936   6.978
 5187POPC   C1B65971   6.601  30.395   6.216
 5187POPC   C2B65972   6.378  30.538   6.581
 5187POPC   C3B65973   6.303  30.425   6.986
 5187POPC   C4B65974   6.620  30.521   7.256
 5188POPC   NC365975  32.133  36.093   5.458
 5188POPC   PO465976  32.706  36.468   5.372
 5188POPC   GL165977  32.459  36.315   5.782
 5188POPC   GL265978  32.281  35.995   5.924
 5188POPC   C1A65979  32.242  36.408   6.187
 5188POPC   D2A65980  32.022  36.378   6.587
 5188POPC   C3A65981  32.256  36.346   6.946
 5188POPC   C4A65982  32.404  36.247   7.349
 5188POPC   C1B65983  32.573  36.020   6.288
 5188POPC   C2B65984  32.559  35.943   6.776
 5188POPC   C3B65985  32.809  35.965   7.178
 5188POPC   C4B65986  32.751  36.053   7.640
 5189POPC   NC365987  19.609   5.523   5.261
 5189POPC   PO465988  20.229   5.440   5.514
 5189POPC   GL165989  19.903   5.713   5.807
 5189POPC   GL265990  19.508   5.786   5.827
 5189POPC   C1A65991  19.879   5.888   6.218
 5189POPC   D2A65992  20.064   5.849   6.608
 5189POPC   C3A65993  19.847   5.754   6.972
 5189POPC   C4A65994  20.036   5.791   7.347
 5189POPC   C1B65995  19.428   6.099   6.229
 5189POPC   C2B65996  19.666   6.202   6.657
 5189POPC   C3B65997  19.655   6.207   7.141
 5189POPC   C4B65998  19.765   6.131   7.610
 5190POPC   NC365999  27.865  11.183   5.281
 5190POPC   PO466000  27.310  10.812   5.344
 5190POPC   GL166001  27.452  11.162   5.700
 5190POPC   GL266002  27.629  11.498   5.625
 5190POPC   C1A66003  27.425  11.428   6.113
 5190POPC   D2A66004  27.513  11.650   6.502
 5190POPC   C3A66005  27.589  11.435   6.899
 5190POPC   C4A66006  27.350  11.511   7.263
 5190POPC   C1B66007  27.890  11.298   5.966
 5190POPC   C2B66008  27.880  11.275   6.466
 5190POPC   C3B66009  28.018  11.146   6.923
 5190POPC   C4B66010  27.849  11.113   7.351
 5191POPC   NC366011  14.064  12.488   5.611
 5191POPC   PO466012  13.603  12.976   5.425
 5191POPC   GL166013  13.586  12.764   5.797
 5191POPC   GL266014  13.589  12.410   5.737
 5191POPC   C1A66015  13.434  12.930   6.167
 5191POPC   D2A66016  13.631  13.212   6.456
 5191POPC   C3A66017  13.556  13.060   6.842
 5191POPC   C4A66018  13.437  13.221   7.231
 5191POPC   C1B66019  13.648  12.458   6.196
 5191POPC   C2B66020  13.561  12.563   6.616
 5191POPC   C3B66021  13.663  12.612   7.036
 5191POPC   C4B66022  13.364  12.710   7.377
 5192POPC   NC366023  13.122  18.227   5.473
 5192POPC   PO466024  12.407  18.101   5.488
 5192POPC   GL166025  12.734  18.202   5.825
 5192POPC   GL266026  12.985  18.515   5.895
 5192POPC   C1A66027  12.786  18.250   6.284
 5192POPC   D2A66028  12.834  18.585   6.650
 5192POPC   C3A66029  12.619  18.494   7.051
 5192POPC   C4A66030  12.615  18.126   7.338
 5192POPC   C1B66031  13.242  18.453   6.300
 5192POPC   C2B66032  13.157  18.178   6.661
 5192POPC   C3B66033  13.062  18.221   7.115
 5192POPC   C4B66034  13.212  18.008   7.485
 5193POPC   NC366035  27.005  14.947   5.384
 5193POPC   PO466036  26.645  15.458   5.298
 5193POPC   GL166037  26.770  15.281   5.716
 5193POPC   GL266038  26.611  14.947   5.731
 5193POPC   C1A66039  27.040  15.317   6.111
 5193POPC   D2A66040  27.016  15.147   6.547
 5193POPC   C3A66041  27.190  15.232   6.956
 5193POPC   C4A66042  26.860  15.253   7.229
 5193POPC   C1B66043  26.656  14.973   6.185
 5193POPC   C2B66044  26.517  15.084   6.625
 5193POPC   C3B66045  26.404  15.127   7.073
 5193POPC   C4B66046  26.439  15.133   7.549
 5194POPC   NC366047  29.223  16.186   5.109
 5194POPC   PO466048  28.881  15.813   5.461
 5194POPC   GL166049  28.998  15.880   5.899
 5194POPC   GL266050  29.333  16.037   5.919
 5194POPC   C1A66051  29.068  15.945   6.366
 5194POPC   D2A66052  29.166  16.281   6.648
 5194POPC   C3A66053  29.158  16.160   7.095
 5194POPC   C4A66054  29.118  16.296   7.526
 5194POPC   C1B66055  29.538  15.785   6.230
 5194POPC   C2B66056  29.514  15.880   6.673
 5194POPC   C3B66057  29.592  15.917   7.114
 5194POPC   C4B66058  29.326  15.819   7.471
 5195POPC   NC366059   2.829   8.492   5.539
 5195POPC   PO466060   2.540   7.841   5.615
 5195POPC   GL166061   2.641   7.917   6.054
 5195POPC   GL266062   2.911   8.170   6.020
 5195POPC   C1A66063   2.907   7.823   6.403
 5195POPC   D2A66064   3.105   8.124   6.631
 5195POPC   C3A66065   2.810   8.197   6.916
 5195POPC   C4A66066   2.830   8.124   7.336
 5195POPC   C1B66067   2.684   8.337   6.366
 5195POPC   C2B66068   2.446   8.510   6.704
 5195POPC   C3B66069   2.400   8.422   7.138
 5195POPC   C4B66070   2.511   8.530   7.545
 5196POPC   NC366071  30.523  26.348   5.451
 5196POPC   PO466072  30.758  25.763   5.573
 5196POPC   GL166073  30.755  26.062   5.865
 5196POPC   GL266074  30.941  26.348   5.745
 5196POPC   C1A66075  30.726  25.898   6.283
 5196POPC   D2A66076  30.376  25.908   6.568
 5196POPC   C3A66077  30.351  25.735   6.964
 5196POPC   C4A66078  30.566  25.927   7.299
 5196POPC   C1B66079  31.052  26.322   6.202
 5196POPC   C2B66080  30.932  26.200   6.635
 5196POPC   C3B66081  30.765  26.362   7.033
 5196POPC   C4B66082  31.039  26.395   7.382
 5197POPC   NC366083  26.371  18.326   5.596
 5197POPC   PO466084  25.750  18.385   5.197
 5197POPC   GL166085  25.844  18.316   5.642
 5197POPC   GL266086  25.967  17.988   5.755
 5197POPC   C1A66087  25.880  18.403   6.103
 5197POPC   D2A66088  26.086  18.447   6.519
 5197POPC   C3A66089  25.900  18.203   6.850
 5197POPC   C4A66090  25.644  18.333   7.201
 5197POPC   C1B66091  26.185  17.990   6.199
 5197POPC   C2B66092  26.399  18.025   6.636
 5197POPC   C3B66093  26.378  18.308   6.991
 5197POPC   C4B66094  26.136  18.227   7.357
 5198POPC   NC366095   7.886  36.108   5.484
 5198POPC   PO466096   8.534  36.037   5.460
 5198POPC   GL166097   8.303  36.292   5.750
 5198POPC   GL266098   8.160  35.980   5.897
 5198POPC   C1A66099   8.117  36.438   6.142
 5198POPC   D2A66100   8.234  36.228   6.527
 5198POPC   C3A66101   8.028  36.357   6.887
 5198POPC   C4A66102   8.066  36.345   7.336
 5198POPC   C1B66103   7.936  35.895   6.267
 5198POPC   C2B66104   8.099  35.758   6.665
 5198POPC   C3B66105   8.243  35.917   7.020
 5198POPC   C4B66106   7.929  35.760   7.270
 5199POPC   NC366107   2.305  33.020   5.382
 5199POPC   PO466108   1.733  32.715   5.510
 5199POPC   GL166109   1.972  32.930   5.786
 5199POPC   GL266110   1.933  33.277   5.639
 5199POPC   C1A66111   1.968  32.843   6.232
 5199POPC   D2A66112   1.768  32.988   6.615
 5199POPC   C3A66113   1.910  32.715   6.939
 5199POPC   C4A66114   2.314  32.648   7.142
 5199POPC   C1B66115   1.973  33.340   6.110
 5199POPC   C2B66116   2.185  33.383   6.524
 5199POPC   C3B66117   2.183  33.160   6.936
 5199POPC   C4B66118   1.740  33.157   7.127
 5200POPC   NC366119   3.327  15.841   5.596
 5200POPC   PO466120   3.387  16.489   5.448
 5200POPC   GL166121   3.524  16.252   5.828
 5200POPC   GL266122   3.798  15.989   5.733
 5200POPC   C1A66123   3.304  16.117   6.242
 5200POPC   D2A66124   3.459  16.164   6.690
 5200POPC   C3A66125   3.355  15.986   7.103
 5200POPC   C4A66126   2.971  15.838   7.285
 5200POPC   C1B66127   3.773  15.932   6.161
 5200POPC   C2B66128   3.683  15.730   6.535
 5200POPC   C3B66129   3.814  15.848   6.927
 5200POPC   C4B66130   3.786  15.727   7.332
 5201POPC   NC366131  31.616  44.600   5.484
 5201POPC   PO466132  31.373   0.152   5.454
 5201POPC   GL166133  31.380  44.912   5.875
 5201POPC   GL266134  31.395  44.532   5.964
 5201POPC   C1A66135  31.268  44.904   6.336
 5201POPC   D2A66136  31.316  44.635   6.709
 5201POPC   C3A66137  31.462  44.849   7.079
 5201POPC   C4A66138  31.848   0.097   7.095
 5201POPC   C1B66139  31.581  44.335   6.344
 5201POPC   C2B66140  31.755  44.290   6.769
 5201POPC   C3B66141  31.632  44.357   7.229
 5201POPC   C4B66142  31.771  44.285   7.697
 5202POPC   NC366143  34.553  28.370   5.124
 5202POPC   PO466144  34.965  28.718   5.514
 5202POPC   GL166145  34.849  28.585   5.917
 5202POPC   GL266146  34.538  28.419   5.842
 5202POPC   C1A66147  34.712  28.404   6.324
 5202POPC   D2A66148  34.504  28.166   6.664
 5202POPC   C3A66149  34.645  28.218   7.079
 5202POPC   C4A66150  34.764  28.609   7.206
 5202POPC   C1B66151  34.232  28.398   6.170
 5202POPC   C2B66152  34.184  28.573   6.588
 5202POPC   C3B66153  34.288  28.595   7.021
 5202POPC   C4B66154  34.150  28.316   7.355
 5203POPC   NC366155  16.700  37.744   5.394
 5203POPC   PO466156  17.326  37.684   5.431
 5203POPC   GL166157  16.975  37.682   5.816
 5203POPC   GL266158  16.619  37.515   5.858
 5203POPC   C1A66159  16.783  37.825   6.238
 5203POPC   D2A66160  16.810  37.656   6.670
 5203POPC   C3A66161  16.982  37.950   6.991
 5203POPC   C4A66162  16.861  37.960   7.404
 5203POPC   C1B66163  16.743  37.308   6.225
 5203POPC   C2B66164  16.505  37.233   6.592
 5203POPC   C3B66165  16.394  37.453   6.903
 5203POPC   C4B66166  16.631  37.551   7.210
 5204POPC   NC366167  20.394   6.925   5.421
 5204POPC   PO466168  20.285   7.608   5.396
 5204POPC   GL166169  20.629   7.376   5.629
 5204POPC   GL266170  20.389   7.289   5.835
 5204POPC   C1A66171  20.854   7.391   6.053
 5204POPC   D2A66172  20.843   7.723   6.393
 5204POPC   C3A66173  20.853   7.578   6.854
 5204POPC   C4A66174  20.987   7.438   7.260
 5204POPC   C1B66175  20.388   7.590   6.162
 5204POPC   C2B66176  20.461   7.434   6.572
 5204POPC   C3B66177  20.352   7.462   6.999
 5204POPC   C4B66178  20.229   7.302   7.384
 5205POPC   NC366179   9.512  31.552   5.546
 5205POPC   PO466180  10.144  31.380   5.366
 5205POPC   GL166181   9.974  31.493   5.759
 5205POPC   GL266182   9.917  31.801   5.739
 5205POPC   C1A66183   9.782  31.377   6.178
 5205POPC   D2A66184   9.823  31.199   6.613
 5205POPC   C3A66185   9.490  31.288   6.938
 5205POPC   C4A66186   9.453  31.194   7.393
 5205POPC   C1B66187   9.987  31.858   6.177
 5205POPC   C2B66188   9.837  31.755   6.581
 5205POPC   C3B66189   9.923  31.868   7.013
 5205POPC   C4B66190   9.685  31.645   7.267
 5206POPC   NC366191   4.862  15.537   5.520
 5206POPC   PO466192   5.466  15.782   5.718
 5206POPC   GL166193   5.155  15.752   6.023
 5206POPC   GL266194   4.829  15.829   5.937
 5206POPC   C1A66195   5.120  16.018   6.378
 5206POPC   D2A66196   4.944  15.877   6.756
 5206POPC   C3A66197   5.299  15.892   7.004
 5206POPC   C4A66198   5.160  16.270   7.198
 5206POPC   C1B66199   4.633  15.903   6.327
 5206POPC   C2B66200   4.508  16.172   6.655
 5206POPC   C3B66201   4.652  16.196   7.077
 5206POPC   C4B66202   4.875  15.846   7.267
 5207POPC   NC366203  42.835  37.310   5.553
 5207POPC   PO466204  42.284  37.694   5.396
 5207POPC   GL166205  42.343  37.827   5.805
 5207POPC   GL266206  42.687  37.786   5.739
 5207POPC   C1A66207  42.398  37.618   6.221
 5207POPC   D2A66208  42.230  37.536   6.663
 5207POPC   C3A66209  42.447  37.433   7.053
 5207POPC   C4A66210  42.377  37.464   7.498
 5207POPC   C1B66211  42.717  38.014   6.128
 5207POPC   C2B66212  42.442  38.066   6.478
 5207POPC   C3B66213  42.485  37.934   6.885
 5207POPC   C4B66214  42.655  37.843   7.282
 5208POPC   NC366215  17.301   9.640   5.237
 5208POPC   PO466216  17.753  10.052   5.285
 5208POPC   GL166217  17.546   9.799   5.663
 5208POPC   GL266218  17.271  10.003   5.820
 5208POPC   C1A66219  17.371   9.550   6.064
 5208POPC   D2A66220  17.229   9.720   6.503
 5208POPC   C3A66221  17.416   9.594   6.915
 5208POPC   C4A66222  17.334   9.425   7.365
 5208POPC   C1B66223  17.576  10.011   6.151
 5208POPC   C2B66224  17.754   9.803   6.521
 5208POPC   C3B66225  17.789   9.963   6.937
 5208POPC   C4B66226  17.548   9.871   7.329
 5209POPC   NC366227  33.066  39.315   5.519
 5209POPC   PO466228  33.258  38.669   5.509
 5209POPC   GL166229  33.252  39.028   5.890
 5209POPC   GL266230  32.860  39.189   5.956
 5209POPC   C1A66231  33.235  39.349   6.243
 5209POPC   D2A66232  32.988  39.479   6.534
 5209POPC   C3A66233  33.171  39.405   6.860
 5209POPC   C4A66234  32.970  39.407   7.232
 5209POPC   C1B66235  32.944  38.956   6.331
 5209POPC   C2B66236  32.859  39.021   6.744
 5209POPC   C3B66237  33.129  38.928   7.078
 5209POPC   C4B66238  33.063  39.023   7.533
 5210POPC   NC366239  35.502  23.969   5.605
 5210POPC   PO466240  35.421  23.495   5.215
 5210POPC   GL166241  35.340  23.496   5.685
 5210POPC   GL266242  35.083  23.764   5.855
 5210POPC   C1A66243  35.458  23.564   6.123
 5210POPC   D2A66244  35.335  23.891   6.425
 5210POPC   C3A66245  35.465  23.812   6.827
 5210POPC   C4A66246  35.473  23.645   7.230
 5210POPC   C1B66247  34.971  23.564   6.272
 5210POPC   C2B66248  35.102  23.448   6.700
 5210POPC   C3B66249  34.993  23.533   7.141
 5210POPC   C4B66250  34.951  23.521   7.609
 5211POPC   NC366251  20.213   2.819   5.456
 5211POPC   PO466252  19.644   2.518   5.379
 5211POPC   GL166253  19.803   2.645   5.803
 5211POPC   GL266254  19.754   3.002   5.863
 5211POPC   C1A66255  20.093   2.758   6.185
 5211POPC   D2A66256  19.961   2.869   6.650
 5211POPC   C3A66257  20.175   2.753   7.033
 5211POPC   C4A66258  20.352   2.983   7.367
 5211POPC   C1B66259  19.587   2.800   6.275
 5211POPC   C2B66260  19.477   2.662   6.693
 5211POPC   C3B66261  19.647   2.792   7.070
 5211POPC   C4B66262  19.895   3.167   7.135
 5212POPC   NC366263  10.273   0.110   5.617
 5212POPC   PO466264  10.605  44.659   5.271
 5212POPC   GL166265  10.489  44.573   5.719
 5212POPC   GL266266  10.693  44.861   5.828
 5212POPC   C1A66267  10.543  44.557   6.205
 5212POPC   D2A66268  10.670  44.752   6.624
 5212POPC   C3A66269  10.536  44.650   7.015
 5212POPC   C4A66270  10.621  44.304   7.204
 5212POPC   C1B66271  10.933   0.080   6.158
 5212POPC   C2B66272  10.989   0.166   6.587
 5212POPC   C3B66273  10.802   0.099   6.985
 5212POPC   C4B66274  10.807  44.919   7.376
 5213POPC   NC366275  34.118  21.266   4.975
 5213POPC   PO466276  33.765  21.488   5.513
 5213POPC   GL166277  33.736  21.273   5.878
 5213POPC   GL266278  34.054  21.426   5.988
 5213POPC   C1A66279  33.724  21.216   6.338
 5213POPC   D2A66280  34.026  21.194   6.659
 5213POPC   C3A66281  33.853  21.272   7.034
 5213POPC   C4A66282  33.989  21.448   7.384
 5213POPC   C1B66283  33.780  21.707   6.191
 5213POPC   C2B66284  33.917  21.696   6.612
 5213POPC   C3B66285  33.946  21.806   7.021
 5213POPC   C4B66286  33.563  21.683   7.252
 5214POPC   NC366287  11.150  40.943   5.260
 5214POPC   PO466288  11.473  40.381   5.471
 5214POPC   GL166289  11.247  40.544   5.793
 5214POPC   GL266290  11.520  40.425   5.995
 5214POPC   C1A66291  11.043  40.510   6.224
 5214POPC   D2A66292  11.134  40.781   6.615
 5214POPC   C3A66293  11.179  40.680   7.083
 5214POPC   C4A66294  11.269  40.973   7.458
 5214POPC   C1B66295  11.482  40.784   6.243
 5214POPC   C2B66296  11.679  40.936   6.638
 5214POPC   C3B66297  11.658  40.921   7.090
 5214POPC   C4B66298  11.578  40.593   7.396
 5215POPC   NC366299   3.043  41.262   5.656
 5215POPC   PO466300   2.525  41.756   5.489
 5215POPC   GL166301   2.655  41.894   5.908
 5215POPC   GL266302   2.749  41.561   5.968
 5215POPC   C1A66303   2.456  41.830   6.316
 5215POPC   D2A66304   2.623  41.810   6.725
 5215POPC   C3A66305   2.396  41.891   7.043
 5215POPC   C4A66306   2.423  41.705   7.409
 5215POPC   C1B66307   2.942  41.689   6.354
 5215POPC   C2B66308   3.136  41.775   6.764
 5215POPC   C3B66309   3.112  41.548   7.169
 5215POPC   C4B66310   2.917  41.682   7.591
 5216POPC   NC366311  39.432   6.815   5.070
 5216POPC   PO466312  39.068   7.024   5.643
 5216POPC   GL166313  39.192   6.631   5.860
 5216POPC   GL266314  38.985   6.307   5.855
 5216POPC   C1A66315  39.426   6.720   6.226
 5216POPC   D2A66316  39.215   6.874   6.565
 5216POPC   C3A66317  39.247   6.658   6.930
 5216POPC   C4A66318  39.285   6.855   7.325
 5216POPC   C1B66319  39.067   6.358   6.317
 5216POPC   C2B66320  38.954   6.255   6.748
 5216POPC   C3B66321  38.902   6.364   7.212
 5216POPC   C4B66322  38.982   6.604   7.634
 5217POPC   NC366323  42.549  44.874   5.285
 5217POPC   PO466324  42.356   0.439   5.324
 5217POPC   GL166325  42.090   0.446   5.802
 5217POPC   GL266326  42.341   0.381   6.062
 5217POPC   C1A66327  41.964   0.121   6.203
 5217POPC   D2A66328  42.217   0.152   6.606
 5217POPC   C3A66329  42.024   0.399   6.923
 5217POPC   C4A66330  41.929   0.362   7.353
 5217POPC   C1B66331  42.405   0.662   6.390
 5217POPC   C2B66332  42.788   0.696   6.595
 5217POPC   C3B66333  42.791   0.482   6.979
 5217POPC   C4B66334  42.430   0.459   7.251
 5218POPC   NC366335  38.804  23.170   5.499
 5218POPC   PO466336  39.488  22.952   5.402
 5218POPC   GL166337  39.258  22.928   5.806
 5218POPC   GL266338  39.117  23.287   5.896
 5218POPC   C1A66339  39.164  22.690   6.192
 5218POPC   D2A66340  38.937  22.764   6.598
 5218POPC   C3A66341  39.129  22.745   7.017
 5218POPC   C4A66342  39.080  22.885   7.431
 5218POPC   C1B66343  39.157  23.179   6.329
 5218POPC   C2B66344  39.073  23.233   6.763
 5218POPC   C3B66345  38.780  23.205   7.138
 5218POPC   C4B66346  38.772  23.256   7.595
 5219POPC   NC366347  11.059   4.453   5.415
 5219POPC   PO466348  11.651   4.117   5.554
 5219POPC   GL166349  11.331   4.296   5.849
 5219POPC   GL266350  10.906   4.290   5.852
 5219POPC   C1A66351  11.514   4.298   6.277
 5219POPC   D2A66352  11.741   4.067   6.621
 5219POPC   C3A66353  11.631   4.264   7.002
 5219POPC   C4A66354  11.527   4.341   7.436
 5219POPC   C1B66355  11.011   4.228   6.259
 5219POPC   C2B66356  11.212   4.133   6.668
 5219POPC   C3B66357  11.124   4.192   7.110
 5219POPC   C4B66358  10.746   4.410   7.161
 5220POPC   NC366359   6.800  13.936   5.619
 5220POPC   PO466360   6.480  14.442   5.228
 5220POPC   GL166361   6.475  14.451   5.744
 5220POPC   GL266362   6.777  14.630   5.949
 5220POPC   C1A66363   6.492  14.274   6.181
 5220POPC   D2A66364   6.549  13.996   6.555
 5220POPC   C3A66365   6.477  14.209   6.934
 5220POPC   C4A66366   6.777  14.284   7.244
 5220POPC   C1B66367   6.996  14.441   6.288
 5220POPC   C2B66368   6.885  14.471   6.725
 5220POPC   C3B66369   7.003  14.719   7.061
 5220POPC   C4B66370   6.955  15.032   7.289
 5221POPC   NC366371  40.345  26.904   5.390
 5221POPC   PO466372  40.971  27.084   5.386
 5221POPC   GL166373  40.743  26.876   5.734
 5221POPC   GL266374  40.810  26.556   5.864
 5221POPC   C1A66375  40.585  26.936   6.176
 5221POPC   D2A66376  40.757  27.091   6.579
 5221POPC   C3A66377  40.704  26.942   7.014
 5221POPC   C4A66378  40.826  26.990   7.447
 5221POPC   C1B66379  40.849  26.492   6.301
 5221POPC   C2B66380  40.892  26.544   6.731
 5221POPC   C3B66381  40.593  26.428   7.068
 5221POPC   C4B66382  40.637  26.508   7.539
 5222POPC   NC366383  33.225   4.099   5.354
 5222POPC   PO466384  33.252   4.717   5.531
 5222POPC   GL166385  33.252   4.476   5.861
 5222POPC   GL266386  33.020   4.250   5.807
 5222POPC   C1A66387  33.165   4.373   6.297
 5222POPC   D2A66388  33.088   4.627   6.644
 5222POPC   C3A66389  33.102   4.440   7.056
 5222POPC   C4A66390  32.829   4.153   7.192
 5222POPC   C1B66391  33.358   3.983   6.010
 5222POPC   C2B66392  33.487   3.934   6.435
 5222POPC   C3B66393  33.225   3.989   6.792
 5222POPC   C4B66394  33.304   3.970   7.218
 5223POPC   NC366395   2.602  44.606   5.346
 5223POPC   PO466396   3.250  44.367   5.539
 5223POPC   GL166397   3.069  44.637   5.886
 5223POPC   GL266398   2.715  44.694   5.839
 5223POPC   C1A66399   2.961  44.595   6.306
 5223POPC   D2A66400   2.624  44.501   6.574
 5223POPC   C3A66401   2.701  44.451   6.996
 5223POPC   C4A66402   2.947  44.659   7.281
 5223POPC   C1B66403   2.468  44.812   6.178
 5223POPC   C2B66404   2.468   0.013   6.561
 5223POPC   C3B66405   2.404  44.882   6.945
 5223POPC   C4B66406   2.504  44.916   7.340
 5224POPC   NC366407  23.999  10.711   5.488
 5224POPC   PO466408  23.464  10.224   5.373
 5224POPC   GL166409  23.606  10.423   5.754
 5224POPC   GL266410  23.442  10.741   5.734
 5224POPC   C1A66411  23.838  10.346   6.151
 5224POPC   D2A66412  23.823  10.245   6.590
 5224POPC   C3A66413  23.804  10.551   6.913
 5224POPC   C4A66414  23.653  10.281   7.232
 5224POPC   C1B66415  23.604  10.810   6.156
 5224POPC   C2B66416  23.461  10.786   6.601
 5224POPC   C3B66417  23.306  10.586   7.005
 5224POPC   C4B66418  23.410  10.664   7.464
 5225POPC   NC366419  28.287   6.765   5.499
 5225POPC   PO466420  28.722   6.261   5.326
 5225POPC   GL166421  28.661   6.504   5.748
 5225POPC   GL266422  28.357   6.585   5.974
 5225POPC   C1A66423  28.787   6.682   6.174
 5225POPC   D2A66424  28.794   6.748   6.594
 5225POPC   C3A66425  28.561   6.529   6.889
 5225POPC   C4A66426  28.433   6.673   7.268
 5225POPC   C1B66427  28.315   6.525   6.421
 5225POPC   C2B66428  27.956   6.613   6.721
 5225POPC   C3B66429  27.929   6.680   7.162
 5225POPC   C4B66430  28.052   6.760   7.599
 5226POPC   NC366431  31.491  13.392   4.904
 5226POPC   PO466432  31.466  12.913   5.479
 5226POPC   GL166433  31.546  12.688   5.828
 5226POPC   GL266434  31.198  12.550   5.766
 5226POPC   C1A66435  31.675  12.847   6.244
 5226POPC   D2A66436  31.676  13.091   6.647
 5226POPC   C3A66437  31.663  12.863   7.045
 5226POPC   C4A66438  31.441  13.075   7.353
 5226POPC   C1B66439  31.212  12.575   6.225
 5226POPC   C2B66440  31.344  12.656   6.643
 5226POPC   C3B66441  31.124  12.832   6.977
 5226POPC   C4B66442  31.086  12.676   7.357
 5227POPC   NC366443  24.694  10.973   5.374
 5227POPC   PO466444  24.327  10.378   5.527
 5227POPC   GL166445  24.268  10.490   5.921
 5227POPC   GL266446  24.343  10.165   6.004
 5227POPC   C1A66447  24.108  10.775   6.250
 5227POPC   D2A66448  24.257  10.578   6.613
 5227POPC   C3A66449  24.327  10.673   7.033
 5227POPC   C4A66450  24.160  10.302   7.145
 5227POPC   C1B66451  24.619  10.360   6.287
 5227POPC   C2B66452  24.773  10.268   6.677
 5227POPC   C3B66453  24.673  10.291   7.083
 5227POPC   C4B66454  24.843  10.607   7.320
 5228POPC   NC366455  19.443   8.424   5.619
 5228POPC   PO466456  19.326   7.829   5.217
 5228POPC   GL166457  19.146   8.019   5.695
 5228POPC   GL266458  18.965   8.311   5.875
 5228POPC   C1A66459  19.181   8.030   6.215
 5228POPC   D2A66460  19.410   8.114   6.638
 5228POPC   C3A66461  19.300   8.070   7.075
 5228POPC   C4A66462  19.264   8.236   7.535
 5228POPC   C1B66463  19.135   8.637   6.142
 5228POPC   C2B66464  19.345   8.623   6.489
 5228POPC   C3B66465  19.218   8.548   6.868
 5228POPC   C4B66466  18.937   8.409   7.131
 5229POPC   NC366467   1.860  34.725   5.023
 5229POPC   PO466468   2.375  34.335   5.158
 5229POPC   GL166469   2.254  34.488   5.649
 5229POPC   GL266470   2.082  34.223   5.844
 5229POPC   C1A66471   2.264  34.587   6.158
 5229POPC   D2A66472   1.980  34.649   6.580
 5229POPC   C3A66473   2.140  34.688   7.042
 5229POPC   C4A66474   2.319  34.747   7.462
 5229POPC   C1B66475   1.784  34.335   6.191
 5229POPC   C2B66476   1.747  34.176   6.626
 5229POPC   C3B66477   1.789  34.321   7.060
 5229POPC   C4B66478   1.962  34.382   7.504
 5230POPC   NC366479  18.850  20.276   5.480
 5230POPC   PO466480  19.206  19.730   5.348
 5230POPC   GL166481  19.055  19.822   5.770
 5230POPC   GL266482  19.240  20.159   5.810
 5230POPC   C1A66483  18.905  19.646   6.192
 5230POPC   D2A66484  19.015  19.707   6.639
 5230POPC   C3A66485  18.800  19.408   6.927
 5230POPC   C4A66486  18.988  19.364   7.268
 5230POPC   C1B66487  19.528  20.154   6.168
 5230POPC   C2B66488  19.311  20.174   6.582
 5230POPC   C3B66489  19.166  20.093   6.970
 5230POPC   C4B66490  19.431  20.215   7.322
 5231POPC   NC366491  24.347  25.934   5.515
 5231POPC   PO466492  23.694  26.000   5.264
 5231POPC   GL166493  23.771  25.960   5.715
 5231POPC   GL266494  24.057  26.081   5.888
 5231POPC   C1A66495  23.585  25.879   6.132
 5231POPC   D2A66496  23.333  26.052   6.477
 5231POPC   C3A66497  23.547  26.048   6.841
 5231POPC   C4A66498  23.629  26.028   7.270
 5231POPC   C1B66499  24.159  25.845   6.256
 5231POPC   C2B66500  24.052  25.851   6.691
 5231POPC   C3B66501  24.034  26.160   7.019
 5231POPC   C4B66502  24.170  26.334   7.413
 5232POPC   NC366503  44.361   0.495   5.404
 5232POPC   PO466504  44.928   0.292   5.756
 5232POPC   GL166505  44.590   0.492   5.909
 5232POPC   GL266506  44.399   0.171   5.807
 5232POPC   C1A66507  44.615   0.570   6.382
 5232POPC   D2A66508  44.686   0.202   6.664
 5232POPC   C3A66509  44.862   0.268   7.082
 5232POPC   C4A66510  44.764   0.579   7.347
 5232POPC   C1B66511  44.268   0.209   6.222
 5232POPC   C2B66512  44.194   0.346   6.636
 5232POPC   C3B66513  44.362   0.321   7.065
 5232POPC   C4B66514  44.504   0.159   7.483
 5233POPC   NC366515  17.612  37.371   5.223
 5233POPC   PO466516  17.314  36.821   5.416
 5233POPC   GL166517  17.555  36.792   5.785
 5233POPC   GL266518  17.680  37.097   5.822
 5233POPC   C1A66519  17.716  36.658   6.175
 5233POPC   D2A66520  17.527  36.749   6.591
 5233POPC   C3A66521  17.764  36.650   6.971
 5233POPC   C4A66522  17.734  36.730   7.437
 5233POPC   C1B66523  17.506  37.123   6.211
 5233POPC   C2B66524  17.533  37.256   6.600
 5233POPC   C3B66525  17.501  37.089   6.996
 5233POPC   C4B66526  17.451  37.197   7.391
 5234POPC   NC366527  43.029  33.160   5.415
 5234POPC   PO466528  43.497  32.765   5.638
 5234POPC   GL166529  43.273  33.016   5.932
 5234POPC   GL266530  42.979  32.865   5.850
 5234POPC   C1A66531  43.256  33.072   6.394
 5234POPC   D2A66532  43.017  33.218   6.757
 5234POPC   C3A66533  43.095  32.977   7.096
 5234POPC   C4A66534  43.248  33.291   7.359
 5234POPC   C1B66535  42.791  32.685   6.208
 5234POPC   C2B66536  42.907  32.747   6.599
 5234POPC   C3B66537  42.819  32.585   6.929
 5234POPC   C4B66538  42.956  32.471   7.309
 5235POPC   NC366539  14.937  29.108   5.442
 5235POPC   PO466540  15.499  28.717   5.411
 5235POPC   GL166541  15.436  28.961   5.822
 5235POPC   GL266542  15.234  29.297   5.819
 5235POPC   C1A66543  15.487  29.193   6.247
 5235POPC   D2A66544  15.364  29.373   6.651
 5235POPC   C3A66545  15.242  29.003   6.861
 5235POPC   C4A66546  15.404  28.828   7.199
 5235POPC   C1B66547  14.920  29.404   6.161
 5235POPC   C2B66548  14.852  29.268   6.611
 5235POPC   C3B66549  14.953  29.356   7.062
 5235POPC   C4B66550  14.746  29.277   7.457
 5236POPC   NC366551  14.604   7.600   5.334
 5236POPC   PO466552  14.123   7.234   5.582
 5236POPC   GL166553  14.349   7.401   5.883
 5236POPC   GL266554  14.674   7.361   5.823
 5236POPC   C1A66555  14.450   7.495   6.306
 5236POPC   D2A66556  14.170   7.618   6.638
 5236POPC   C3A66557  14.204   7.363   7.009
 5236POPC   C4A66558  14.232   7.590   7.414
 5236POPC   C1B66559  14.617   7.024   6.151
 5236POPC   C2B66560  14.778   7.032   6.559
 5236POPC   C3B66561  14.657   7.102   6.990
 5236POPC   C4B66562  14.623   7.283   7.381
 5237POPC   NC366563  29.784  36.502   5.392
 5237POPC   PO466564  30.271  36.965   5.263
 5237POPC   GL166565  30.269  36.971   5.740
 5237POPC   GL266566  30.120  36.687   5.863
 5237POPC   C1A66567  29.953  37.126   6.093
 5237POPC   D2A66568  29.794  37.230   6.517
 5237POPC   C3A66569  30.050  37.070   6.835
 5237POPC   C4A66570  29.959  36.867   7.205
 5237POPC   C1B66571  29.707  36.618   6.089
 5237POPC   C2B66572  29.476  36.645   6.476
 5237POPC   C3B66573  29.641  36.634   6.884
 5237POPC   C4B66574  29.678  36.339   7.239
 5238POPC   NC366575  42.495   3.623   5.459
 5238POPC   PO466576  42.072   3.119   5.361
 5238POPC   GL166577  42.194   3.313   5.766
 5238POPC   GL266578  42.168   3.688   5.852
 5238POPC   C1A66579  42.375   3.352   6.188
 5238POPC   D2A66580  42.185   3.389   6.595
 5238POPC   C3A66581  42.404   3.450   6.973
 5238POPC   C4A66582  42.366   3.565   7.408
 5238POPC   C1B66583  42.385   3.893   6.221
 5238POPC   C2B66584  42.370   3.940   6.677
 5238POPC   C3B66585  42.109   3.843   7.025
 5238POPC   C4B66586  42.077   3.978   7.413
 5239POPC   NC366587   4.556   5.000   5.469
 5239POPC   PO466588   3.890   4.998   5.170
 5239POPC   GL166589   4.069   4.959   5.636
 5239POPC   GL266590   4.212   5.301   5.720
 5239POPC   C1A66591   4.265   4.947   6.107
 5239POPC   D2A66592   4.400   5.153   6.534
 5239POPC   C3A66593   4.383   4.933   6.949
 5239POPC   C4A66594   4.181   4.926   7.378
 5239POPC   C1B66595   4.234   5.452   6.153
 5239POPC   C2B66596   4.001   5.478   6.562
 5239POPC   C3B66597   4.102   5.366   7.004
 5239POPC   C4B66598   4.117   5.427   7.483
 5240POPC   NC366599  11.879  19.927   5.490
 5240POPC   PO466600  12.026  19.257   5.453
 5240POPC   GL166601  12.080  19.556   5.793
 5240POPC   GL266602  12.185  19.916   5.894
 5240POPC   C1A66603  12.203  19.553   6.220
 5240POPC   D2A66604  12.175  19.839   6.518
 5240POPC   C3A66605  12.030  19.689   6.878
 5240POPC   C4A66606  11.951  19.868   7.250
 5240POPC   C1B66607  12.530  19.961   6.149
 5240POPC   C2B66608  12.643  20.095   6.539
 5240POPC   C3B66609  12.397  20.049   6.925
 5240POPC   C4B66610  12.236  20.281   7.268
 5241POPC   NC366611  21.154  22.411   5.467
 5241POPC   PO466612  21.586  21.824   5.402
 5241POPC   GL166613  21.537  22.168   5.769
 5241POPC   GL266614  21.220  22.133   5.900
 5241POPC   C1A66615  21.571  22.190   6.265
 5241POPC   D2A66616  21.619  22.363   6.694
 5241POPC   C3A66617  21.484  22.301   7.146
 5241POPC   C4A66618  21.443  22.119   7.582
 5241POPC   C1B66619  21.067  22.283   6.281
 5241POPC   C2B66620  21.136  22.163   6.716
 5241POPC   C3B66621  21.025  22.472   7.029
 5241POPC   C4B66622  21.037  22.443   7.477
 5242POPC   NC366623   4.838  29.397   5.618
 5242POPC   PO466624   5.338  28.975   5.591
 5242POPC   GL166625   5.083  29.030   5.933
 5242POPC   GL266626   4.709  28.975   5.890
 5242POPC   C1A66627   5.070  29.155   6.349
 5242POPC   D2A66628   5.262  29.048   6.718
 5242POPC   C3A66629   5.212  29.392   6.969
 5242POPC   C4A66630   4.874  29.460   7.133
 5242POPC   C1B66631   4.821  28.717   6.242
 5242POPC   C2B66632   4.936  28.650   6.670
 5242POPC   C3B66633   4.902  28.927   7.068
 5242POPC   C4B66634   4.617  28.877   7.435
 5243POPC   NC366635   2.210  30.349   5.442
 5243POPC   PO466636   2.345  30.982   5.757
 5243POPC   GL166637   2.009  30.682   5.896
 5243POPC   GL266638   1.937  30.330   5.861
 5243POPC   C1A66639   1.862  30.669   6.318
 5243POPC   D2A66640   2.175  30.897   6.601
 5243POPC   C3A66641   2.133  30.956   7.040
 5243POPC   C4A66642   1.779  30.796   7.322
 5243POPC   C1B66643   2.258  30.344   6.173
 5243POPC   C2B66644   2.175  30.370   6.595
 5243POPC   C3B66645   1.936  30.498   6.917
 5243POPC   C4B66646   2.155  30.453   7.288
 5244POPC   NC366647  36.233  39.978   5.250
 5244POPC   PO466648  35.694  40.282   5.483
 5244POPC   GL166649  36.096  40.122   5.733
 5244POPC   GL266650  36.410  39.869   5.726
 5244POPC   C1A66651  36.152  40.218   6.165
 5244POPC   D2A66652  36.288  40.082   6.556
 5244POPC   C3A66653  36.066  40.053   6.897
 5244POPC   C4A66654  36.170  40.147   7.262
 5244POPC   C1B66655  36.358  39.757   6.176
 5244POPC   C2B66656  36.405  39.586   6.606
 5244POPC   C3B66657  36.322  39.638   7.025
 5244POPC   C4B66658  35.947  39.652   7.275
 5245POPC   NC366659  24.202  31.283   5.291
 5245POPC   PO466660  24.778  31.572   5.252
 5245POPC   GL166661  24.472  31.612   5.660
 5245POPC   GL266662  24.371  31.300   5.782
 5245POPC   C1A66663  24.604  31.579   6.161
 5245POPC   D2A66664  24.418  31.488   6.622
 5245POPC   C3A66665  24.574  31.588   7.070
 5245POPC   C4A66666  24.717  31.956   7.316
 5245POPC   C1B66667  24.243  31.201   6.201
 5245POPC   C2B66668  24.162  30.989   6.589
 5245POPC   C3B66669  24.099  31.196   6.959
 5245POPC   C4B66670  24.329  31.203   7.302
 5246POPC   NC366671  19.652   9.321   5.303
 5246POPC   PO466672  19.315   8.816   5.373
 5246POPC   GL166673  19.616   8.928   5.693
 5246POPC   GL266674  19.946   9.058   5.638
 5246POPC   C1A66675  19.676   8.811   6.132
 5246POPC   D2A66676  19.856   8.673   6.512
 5246POPC   C3A66677  19.636   8.846   6.857
 5246POPC   C4A66678  19.766   8.822   7.255
 5246POPC   C1B66679  19.829   9.307   6.030
 5246POPC   C2B66680  19.812   9.191   6.482
 5246POPC   C3B66681  19.843   9.306   6.932
 5246POPC   C4B66682  19.986   9.263   7.339
 5247POPC   NC366683  10.385  38.026   5.749
 5247POPC   PO466684  10.679  37.492   5.389
 5247POPC   GL166685  10.641  37.562   5.850
 5247POPC   GL266686  10.822  37.850   5.950
 5247POPC   C1A66687  10.426  37.637   6.270
 5247POPC   D2A66688  10.519  37.720   6.706
 5247POPC   C3A66689  10.290  37.698   7.103
 5247POPC   C4A66690  10.474  37.725   7.510
 5247POPC   C1B66691  10.933  37.619   6.320
 5247POPC   C2B66692  11.027  37.696   6.743
 5247POPC   C3B66693  10.826  37.612   7.135
 5247POPC   C4B66694  10.819  37.371   7.520
 5248POPC   NC366695   8.684  35.594   5.530
 5248POPC   PO466696   9.192  35.068   5.359
 5248POPC   GL166697   9.116  35.223   5.751
 5248POPC   GL266698   8.756  35.120   5.752
 5248POPC   C1A66699   9.313  35.392   6.143
 5248POPC   D2A66700   9.212  35.234   6.562
 5248POPC   C3A66701   9.309  35.427   6.965
 5248POPC   C4A66702   9.231  35.290   7.407
 5248POPC   C1B66703   8.812  35.288   6.190
 5248POPC   C2B66704   8.676  35.250   6.628
 5248POPC   C3B66705   8.831  35.186   7.053
 5248POPC   C4B66706   8.593  35.084   7.428
 5249POPC   NC366707  41.448  40.387   5.429
 5249POPC   PO466708  41.825  39.797   5.356
 5249POPC   GL166709  41.769  40.053   5.744
 5249POPC   GL266710  41.410  40.118   5.850
 5249POPC   C1A66711  41.852  39.926   6.183
 5249POPC   D2A66712  41.709  40.070   6.580
 5249POPC   C3A66713  41.725  39.895   7.027
 5249POPC   C4A66714  41.582  40.091   7.461
 5249POPC   C1B66715  41.322  39.847   6.197
 5249POPC   C2B66716  41.211  39.965   6.615
 5249POPC   C3B66717  41.242  40.091   7.046
 5249POPC   C4B66718  41.125  39.861   7.448
 5250POPC   NC366719   1.135   9.434   5.457
 5250POPC   PO466720   1.034   8.804   5.205
 5250POPC   GL166721   1.100   8.910   5.648
 5250POPC   GL266722   1.458   8.949   5.688
 5250POPC   C1A66723   1.015   8.970   6.100
 5250POPC   D2A66724   1.159   9.011   6.533
 5250POPC   C3A66725   0.943   9.084   6.910
 5250POPC   C4A66726   1.161   9.032   7.292
 5250POPC   C1B66727   1.451   8.664   6.077
 5250POPC   C2B66728   1.463   8.606   6.517
 5250POPC   C3B66729   1.431   8.760   6.928
 5250POPC   C4B66730   1.603   8.537   7.254
 5251POPC   NC366731  38.812  31.648   5.519
 5251POPC   PO466732  39.455  31.398   5.441
 5251POPC   GL166733  39.231  31.502   5.792
 5251POPC   GL266734  39.099  31.192   5.911
 5251POPC   C1A66735  39.142  31.779   6.142
 5251POPC   D2A66736  39.286  31.828   6.573
 5251POPC   C3A66737  39.197  31.450   6.831
 5251POPC   C4A66738  39.244  31.280   7.255
 5251POPC   C1B66739  38.959  31.315   6.314
 5251POPC   C2B66740  38.692  31.324   6.675
 5251POPC   C3B66741  38.782  31.211   7.102
 5251POPC   C4B66742  38.837  31.247   7.588
 5252POPC   NC366743  11.559  29.556   5.434
 5252POPC   PO466744  11.340  28.889   5.473
 5252POPC   GL166745  11.531  29.033   5.822
 5252POPC   GL266746  11.534  29.397   5.929
 5252POPC   C1A66747  11.335  29.016   6.217
 5252POPC   D2A66748  11.151  29.113   6.593
 5252POPC   C3A66749  11.363  28.978   6.951
 5252POPC   C4A66750  11.209  28.909   7.353
 5252POPC   C1B66751  11.431  29.511   6.380
 5252POPC   C2B66752  11.439  29.529   6.868
 5252POPC   C3B66753  11.268  29.403   7.264
 5252POPC   C4B66754  10.957  29.360   7.612
 5253POPC   NC366755  22.045   9.147   5.500
 5253POPC   PO466756  22.454   8.552   5.287
 5253POPC   GL166757  22.283   8.758   5.719
 5253POPC   GL266758  21.926   8.741   5.792
 5253POPC   C1A66759  22.180   9.046   6.130
 5253POPC   D2A66760  22.059   9.095   6.577
 5253POPC   C3A66761  22.376   9.193   6.920
 5253POPC   C4A66762  22.242   9.200   7.368
 5253POPC   C1B66763  22.031   8.568   6.234
 5253POPC   C2B66764  21.864   8.618   6.662
 5253POPC   C3B66765  22.064   8.785   7.050
 5253POPC   C4B66766  22.392   8.712   7.375
 5254POPC   NC366767  31.646  20.525   5.579
 5254POPC   PO466768  31.184  20.321   5.140
 5254POPC   GL166769  31.171  20.396   5.671
 5254POPC   GL266770  31.252  20.754   5.830
 5254POPC   C1A66771  31.346  20.400   6.175
 5254POPC   D2A66772  31.412  20.682   6.586
 5254POPC   C3A66773  31.627  20.562   6.991
 5254POPC   C4A66774  31.572  20.670   7.416
 5254POPC   C1B66775  31.590  20.908   6.161
 5254POPC   C2B66776  31.882  20.998   6.522
 5254POPC   C3B66777  31.744  21.074   6.933
 5254POPC   C4B66778  31.317  20.992   7.044
 5255POPC   NC366779   3.846  36.865   5.278
 5255POPC   PO466780   4.502  36.954   5.381
 5255POPC   GL166781   4.442  37.002   5.783
 5255POPC   GL266782   4.096  36.893   5.757
 5255POPC   C1A66783   4.460  36.895   6.196
 5255POPC   D2A66784   4.670  36.741   6.527
 5255POPC   C3A66785   4.449  36.885   6.887
 5255POPC   C4A66786   4.580  36.768   7.266
 5255POPC   C1B66787   4.047  37.169   6.115
 5255POPC   C2B66788   4.073  37.059   6.564
 5255POPC   C3B66789   3.961  36.986   7.003
 5255POPC   C4B66790   4.079  36.844   7.438
 5256POPC   NC366791  34.522  22.012   5.229
 5256POPC   PO466792  35.057  22.568   5.358
 5256POPC   GL166793  34.829  22.259   5.704
 5256POPC   GL266794  34.487  22.358   5.762
 5256POPC   C1A66795  34.608  22.079   6.149
 5256POPC   D2A66796  34.330  22.061   6.546
 5256POPC   C3A66797  34.488  21.895   6.972
 5256POPC   C4A66798  34.813  21.918   7.350
 5256POPC   C1B66799  34.738  22.569   6.089
 5256POPC   C2B66800  34.588  22.618   6.484
 5256POPC   C3B66801  34.549  22.392   6.894
 5256POPC   C4B66802  34.433  22.295   7.361
 5257POPC   NC366803  19.501  29.808   5.467
 5257POPC   PO466804  18.902  29.659   5.411
 5257POPC   GL166805  19.011  29.874   5.804
 5257POPC   GL266806  19.325  30.071   5.881
 5257POPC   C1A66807  18.990  29.982   6.250
 5257POPC   D2A66808  18.941  30.194   6.611
 5257POPC   C3A66809  19.057  29.920   6.931
 5257POPC   C4A66810  19.147  29.946   7.381
 5257POPC   C1B66811  19.408  29.713   6.181
 5257POPC   C2B66812  19.306  29.573   6.628
 5257POPC   C3B66813  19.413  29.608   7.104
 5257POPC   C4B66814  19.460  29.567   7.597
 5258POPC   NC366815  13.820  32.455   5.455
 5258POPC   PO466816  13.280  31.943   5.413
 5258POPC   GL166817  13.606  32.088   5.779
 5258POPC   GL266818  13.638  32.426   5.937
 5258POPC   C1A66819  13.591  31.964   6.208
 5258POPC   D2A66820  13.563  32.104   6.621
 5258POPC   C3A66821  13.831  32.292   6.901
 5258POPC   C4A66822  13.544  32.287   7.203
 5258POPC   C1B66823  13.598  32.573   6.378
 5258POPC   C2B66824  13.400  32.567   6.788
 5258POPC   C3B66825  13.460  32.787   7.180
 5258POPC   C4B66826  13.226  32.991   7.546
 5259POPC   NC366827  23.551  32.898   4.979
 5259POPC   PO466828  23.782  32.542   5.468
 5259POPC   GL166829  23.840  32.938   5.741
 5259POPC   GL266830  23.533  33.171   5.829
 5259POPC   C1A66831  23.999  33.119   6.132
 5259POPC   D2A66832  23.971  33.436   6.460
 5259POPC   C3A66833  24.072  33.237   6.846
 5259POPC   C4A66834  24.155  33.082   7.242
 5259POPC   C1B66835  23.420  33.016   6.233
 5259POPC   C2B66836  23.698  32.955   6.583
 5259POPC   C3B66837  23.756  32.852   7.004
 5259POPC   C4B66838  23.619  33.121   7.278
 5260POPC   NC366839  27.467  23.821   5.438
 5260POPC   PO466840  28.044  23.565   5.468
 5260POPC   GL166841  27.804  23.669   5.838
 5260POPC   GL266842  27.432  23.619   5.904
 5260POPC   C1A66843  27.820  23.466   6.247
 5260POPC   D2A66844  27.543  23.376   6.604
 5260POPC   C3A66845  27.664  23.446   7.043
 5260POPC   C4A66846  27.812  23.828   7.232
 5260POPC   C1B66847  27.506  23.879   6.275
 5260POPC   C2B66848  27.477  23.867   6.740
 5260POPC   C3B66849  27.338  23.965   7.181
 5260POPC   C4B66850  27.533  24.014   7.638
 5261POPC   NC366851  25.388  11.358   5.441
 5261POPC   PO466852  24.807  11.227   5.745
 5261POPC   GL166853  25.226  11.137   5.872
 5261POPC   GL266854  25.418  10.845   5.761
 5261POPC   C1A66855  25.326  11.360   6.235
 5261POPC   D2A66856  25.046  11.487   6.567
 5261POPC   C3A66857  25.216  11.359   6.978
 5261POPC   C4A66858  25.167  11.553   7.387
 5261POPC   C1B66859  25.535  10.893   6.216
 5261POPC   C2B66860  25.537  11.097   6.629
 5261POPC   C3B66861  25.697  11.036   7.021
 5261POPC   C4B66862  25.538  11.193   7.368
 5262POPC   NC366863  43.298  43.034   5.455
 5262POPC   PO466864  42.821  42.616   5.440
 5262POPC   GL166865  42.849  42.921   5.789
 5262POPC   GL266866  42.852  43.283   5.719
 5262POPC   C1A66867  43.095  42.989   6.179
 5262POPC   D2A66868  43.324  43.061   6.572
 5262POPC   C3A66869  43.141  42.893   6.954
 5262POPC   C4A66870  42.788  42.699   7.139
 5262POPC   C1B66871  43.000  43.520   6.103
 5262POPC   C2B66872  43.103  43.555   6.539
 5262POPC   C3B66873  43.200  43.392   6.934
 5262POPC   C4B66874  42.950  43.254   7.263
 5263POPC   NC366875  34.750  29.149   5.453
 5263POPC   PO466876  34.246  28.671   5.319
 5263POPC   GL166877  34.356  28.890   5.723
 5263POPC   GL266878  34.322  29.255   5.840
 5263POPC   C1A66879  34.504  28.853   6.148
 5263POPC   D2A66880  34.724  28.856   6.540
 5263POPC   C3A66881  34.485  29.050   6.820
 5263POPC   C4A66882  34.472  29.078   7.214
 5263POPC   C1B66883  34.716  29.324   6.105
 5263POPC   C2B66884  34.869  29.356   6.556
 5263POPC   C3B66885  34.732  29.480   6.993
 5263POPC   C4B66886  34.822  29.411   7.415
 5264POPC   NC366887  13.395   6.298   5.588
 5264POPC   PO466888  12.935   6.687   5.330
 5264POPC   GL166889  13.130   6.730   5.698
 5264POPC   GL266890  13.013   6.441   5.885
 5264POPC   C1A66891  13.140   6.888   6.112
 5264POPC   D2A66892  12.968   6.901   6.547
 5264POPC   C3A66893  13.190   6.667   6.832
 5264POPC   C4A66894  13.081   6.675   7.255
 5264POPC   C1B66895  12.745   6.572   6.171
 5264POPC   C2B66896  12.783   6.407   6.562
 5264POPC   C3B66897  12.688   6.614   6.935
 5264POPC   C4B66898  12.676   6.369   7.271
 5265POPC   NC366899  43.547  35.312   5.230
 5265POPC   PO466900  42.926  35.357   5.446
 5265POPC   GL166901  43.199  35.512   5.774
 5265POPC   GL266902  43.534  35.450   5.733
 5265POPC   C1A66903  43.241  35.398   6.215
 5265POPC   D2A66904  43.297  35.580   6.627
 5265POPC   C3A66905  43.406  35.261   6.920
 5265POPC   C4A66906  43.167  35.190   7.277
 5265POPC   C1B66907  43.674  35.676   6.107
 5265POPC   C2B66908  43.756  35.842   6.513
 5265POPC   C3B66909  43.722  35.705   6.956
 5265POPC   C4B66910  43.453  35.612   7.287
 5266POPC   NC366911   3.055  36.976   5.613
 5266POPC   PO466912   3.480  36.547   5.286
 5266POPC   GL166913   3.559  36.849   5.705
 5266POPC   GL266914   3.490  37.220   5.762
 5266POPC   C1A66915   3.522  36.886   6.187
 5266POPC   D2A66916   3.236  37.023   6.566
 5266POPC   C3A66917   3.275  36.806   6.970
 5266POPC   C4A66918   3.643  36.645   7.240
 5266POPC   C1B66919   3.600  37.383   6.197
 5266POPC   C2B66920   3.642  37.350   6.632
 5266POPC   C3B66921   3.481  37.271   7.028
 5266POPC   C4B66922   3.716  37.227   7.379
 5267POPC   NC366923  33.250  11.992   5.099
 5267POPC   PO466924  32.972  12.467   5.383
 5267POPC   GL166925  33.136  12.128   5.702
 5267POPC   GL266926  32.888  11.847   5.807
 5267POPC   C1A66927  33.215  12.023   6.161
 5267POPC   D2A66928  32.980  12.048   6.571
 5267POPC   C3A66929  32.718  12.196   6.920
 5267POPC   C4A66930  32.885  12.183   7.337
 5267POPC   C1B66931  32.906  11.627   6.216
 5267POPC   C2B66932  32.886  11.549   6.650
 5267POPC   C3B66933  32.971  11.757   7.043
 5267POPC   C4B66934  32.722  11.699   7.405
 5268POPC   NC366935  24.679   7.282   5.297
 5268POPC   PO466936  25.350   7.238   5.400
 5268POPC   GL166937  25.207   7.211   5.798
 5268POPC   GL266938  24.820   7.175   5.821
 5268POPC   C1A66939  25.383   7.363   6.192
 5268POPC   D2A66940  25.285   7.629   6.529
 5268POPC   C3A66941  25.477   7.504   6.907
 5268POPC   C4A66942  25.338   7.662   7.281
 5268POPC   C1B66943  25.022   6.983   6.211
 5268POPC   C2B66944  25.187   7.120   6.623
 5268POPC   C3B66945  24.986   7.345   6.969
 5268POPC   C4B66946  24.918   7.221   7.382
 5269POPC   NC366947  11.433   1.611   5.625
 5269POPC   PO466948  11.426   2.214   5.341
 5269POPC   GL166949  11.199   2.094   5.738
 5269POPC   GL266950  11.043   1.766   5.886
 5269POPC   C1A66951  11.390   2.026   6.156
 5269POPC   D2A66952  11.366   2.253   6.521
 5269POPC   C3A66953  11.299   2.046   6.870
 5269POPC   C4A66954  11.422   1.994   7.269
 5269POPC   C1B66955  11.004   1.638   6.323
 5269POPC   C2B66956  10.989   1.440   6.755
 5269POPC   C3B66957  11.134   1.592   7.165
 5269POPC   C4B66958  10.939   1.731   7.616
 5270POPC   NC366959  20.760   3.266   5.414
 5270POPC   PO466960  20.636   2.554   5.455
 5270POPC   GL166961  20.578   2.726   5.825
 5270POPC   GL266962  20.804   3.018   5.850
 5270POPC   C1A66963  20.509   2.457   6.164
 5270POPC   D2A66964  20.368   2.271   6.507
 5270POPC   C3A66965  20.547   2.476   6.803
 5270POPC   C4A66966  20.613   2.560   7.195
 5270POPC   C1B66967  20.742   2.916   6.258
 5270POPC   C2B66968  20.457   2.907   6.561
 5270POPC   C3B66969  20.649   2.988   6.939
 5270POPC   C4B66970  21.051   2.936   7.181
 5271POPC   NC366971   9.283   6.039   5.584
 5271POPC   PO466972   8.709   6.150   5.731
 5271POPC   GL166973   8.927   5.846   5.934
 5271POPC   GL266974   9.082   5.537   5.836
 5271POPC   C1A66975   9.179   5.748   6.272
 5271POPC   D2A66976   9.351   5.778   6.617
 5271POPC   C3A66977   9.154   6.112   6.833
 5271POPC   C4A66978   9.167   6.036   7.298
 5271POPC   C1B66979   8.771   5.454   6.202
 5271POPC   C2B66980   8.730   5.709   6.592
 5271POPC   C3B66981   8.977   5.670   6.986
 5271POPC   C4B66982   8.804   5.518   7.367
 5272POPC   NC366983  24.523  42.297   5.392
 5272POPC   PO466984  23.960  42.720   5.491
 5272POPC   GL166985  24.267  42.453   5.790
 5272POPC   GL266986  24.653  42.453   5.852
 5272POPC   C1A66987  24.304  42.187   6.179
 5272POPC   D2A66988  24.344  42.385   6.595
 5272POPC   C3A66989  24.343  42.132   6.998
 5272POPC   C4A66990  24.462  42.191   7.446
 5272POPC   C1B66991  24.793  42.331   6.277
 5272POPC   C2B66992  24.792  42.162   6.706
 5272POPC   C3B66993  24.825  42.338   7.111
 5272POPC   C4B66994  25.139  42.288   7.416
 5273POPC   NC366995  35.591  16.349   5.547
 5273POPC   PO466996  35.137  16.876   5.388
 5273POPC   GL166997  35.329  16.914   5.823
 5273POPC   GL266998  35.464  16.592   5.993
 5273POPC   C1A66999  35.284  16.989   6.275
 5273POPC   D2A67000  35.305  16.605   6.524
 5273POPC   C3A67001  35.376  16.697   6.915
 5273POPC   C4A67002  35.201  17.032   7.131
 5273POPC   C1B67003  35.758  16.776   6.302
 5273POPC   C2B67004  35.661  17.049   6.685
 5273POPC   C3B67005  35.730  16.976   7.148
 5273POPC   C4B67006  35.841  16.743   7.566
 5274POPC   NC367007  11.648   7.002   5.286
 5274POPC   PO467008  11.093   7.356   5.210
 5274POPC   GL167009  11.259   7.371   5.698
 5274POPC   GL267010  11.601   7.332   5.864
 5274POPC   C1A67011  11.194   7.634   6.115
 5274POPC   D2A67012  10.972   7.687   6.516
 5274POPC   C3A67013  11.181   7.870   6.889
 5274POPC   C4A67014  11.393   7.624   7.179
 5274POPC   C1B67015  11.439   7.211   6.287
 5274POPC   C2B67016  11.342   7.335   6.721
 5274POPC   C3B67017  11.325   7.101   7.114
 5274POPC   C4B67018  11.440   7.141   7.546
 5275POPC   NC367019  11.148  42.580   5.550
 5275POPC   PO467020  11.553  41.968   5.521
 5275POPC   GL167021  11.343  42.169   5.804
 5275POPC   GL267022  11.544  42.445   5.873
 5275POPC   C1A67023  11.147  42.190   6.180
 5275POPC   D2A67024  11.268  42.370   6.552
 5275POPC   C3A67025  11.176  42.240   6.955
 5275POPC   C4A67026  10.960  42.551   7.176
 5275POPC   C1B67027  11.408  42.713   6.210
 5275POPC   C2B67028  11.509  42.866   6.623
 5275POPC   C3B67029  11.453  42.737   7.090
 5275POPC   C4B67030  11.257  42.789   7.511
 5276POPC   NC367031  25.819   7.291   5.356
 5276POPC   PO467032  26.248   7.756   5.248
 5276POPC   GL167033  25.833   7.831   5.599
 5276POPC   GL267034  25.612   7.550   5.741
 5276POPC   C1A67035  25.757   7.863   6.107
 5276POPC   D2A67036  25.805   7.562   6.495
 5276POPC   C3A67037  26.152   7.657   6.815
 5276POPC   C4A67038  26.213   7.821   7.259
 5276POPC   C1B67039  25.876   7.279   6.050
 5276POPC   C2B67040  26.247   7.324   6.364
 5276POPC   C3B67041  26.202   7.129   6.792
 5276POPC   C4B67042  26.296   7.325   7.185
 5277POPC   NC367043  34.028  19.019   5.540
 5277POPC   PO467044  33.430  18.899   5.306
 5277POPC   GL167045  33.567  19.016   5.781
 5277POPC   GL267046  33.883  18.931   6.000
 5277POPC   C1A67047  33.551  19.226   6.211
 5277POPC   D2A67048  33.566  19.446   6.596
 5277POPC   C3A67049  33.657  19.218   6.959
 5277POPC   C4A67050  33.848  19.298   7.330
 5277POPC   C1B67051  34.127  18.731   6.284
 5277POPC   C2B67052  33.897  18.719   6.633
 5277POPC   C3B67053  33.949  18.815   7.034
 5277POPC   C4B67054  33.873  18.560   7.349
 5278POPC   NC367055  27.235  40.878   5.579
 5278POPC   PO467056  26.678  40.542   5.593
 5278POPC   GL167057  26.887  40.732   5.939
 5278POPC   GL267058  26.915  41.094   5.920
 5278POPC   C1A67059  26.913  40.810   6.374
 5278POPC   D2A67060  26.747  40.609   6.733
 5278POPC   C3A67061  27.081  40.648   6.989
 5278POPC   C4A67062  27.150  40.865   7.370
 5278POPC   C1B67063  26.625  41.241   6.239
 5278POPC   C2B67064  26.578  41.162   6.666
 5278POPC   C3B67065  26.804  41.070   7.055
 5278POPC   C4B67066  26.666  40.669   7.285
 5279POPC   NC367067  24.618   6.357   5.626
 5279POPC   PO467068  24.358   6.961   5.374
 5279POPC   GL167069  24.309   6.946   5.824
 5279POPC   GL267070  24.051   6.685   5.839
 5279POPC   C1A67071  24.481   6.867   6.273
 5279POPC   D2A67072  24.812   6.734   6.604
 5279POPC   C3A67073  24.712   6.501   6.983
 5279POPC   C4A67074  24.502   6.650   7.304
 5279POPC   C1B67075  24.106   6.517   6.258
 5279POPC   C2B67076  24.267   6.561   6.697
 5279POPC   C3B67077  24.037   6.660   7.086
 5279POPC   C4B67078  24.073   6.649   7.559
 5280POPC   NC367079  11.298  43.361   5.396
 5280POPC   PO467080  11.555  42.819   5.527
 5280POPC   GL167081  11.344  43.047   5.834
 5280POPC   GL267082  11.115  43.329   5.887
 5280POPC   C1A67083  11.536  43.231   6.198
 5280POPC   D2A67084  11.403  43.408   6.558
 5280POPC   C3A67085  11.372  43.228   6.953
 5280POPC   C4A67086  11.326  43.267   7.384
 5280POPC   C1B67087  11.033  43.099   6.290
 5280POPC   C2B67088  11.009  42.926   6.723
 5280POPC   C3B67089  10.929  43.067   7.138
 5280POPC   C4B67090  10.828  43.310   7.482
 5281POPC   NC367091   9.120   4.323   5.202
 5281POPC   PO467092   8.538   4.552   5.205
 5281POPC   GL167093   8.734   4.519   5.695
 5281POPC   GL267094   9.019   4.267   5.726
 5281POPC   C1A67095   8.807   4.358   6.185
 5281POPC   D2A67096   8.971   4.394   6.645
 5281POPC   C3A67097   8.771   4.318   7.059
 5281POPC   C4A67098   8.576   4.170   7.454
 5281POPC   C1B67099   9.272   4.134   6.091
 5281POPC   C2B67100   9.176   3.948   6.471
 5281POPC   C3B67101   9.141   3.969   6.922
 5281POPC   C4B67102   9.333   4.195   7.263
 5282POPC   NC367103  25.068  38.217   5.235
 5282POPC   PO467104  25.316  38.705   5.327
 5282POPC   GL167105  25.210  38.505   5.741
 5282POPC   GL267106  25.288  38.791   5.943
 5282POPC   C1A67107  25.417  38.342   6.165
 5282POPC   D2A67108  25.459  38.593   6.567
 5282POPC   C3A67109  25.497  38.371   6.932
 5282POPC   C4A67110  25.200  38.349   7.230
 5282POPC   C1B67111  25.006  38.593   6.291
 5282POPC   C2B67112  24.989  38.415   6.746
 5282POPC   C3B67113  24.694  38.288   7.096
 5282POPC   C4B67114  24.467  38.022   7.417
 5283POPC   NC367115  10.297  38.666   5.406
 5283POPC   PO467116  10.781  38.271   5.658
 5283POPC   GL167117  10.672  38.364   6.023
 5283POPC   GL267118  10.453  38.602   5.901
 5283POPC   C1A67119  10.609  38.136   6.379
 5283POPC   D2A67120  10.401  38.243   6.737
 5283POPC   C3A67121  10.642  38.084   7.066
 5283POPC   C4A67122  10.808  38.147   7.459
 5283POPC   C1B67123  10.271  38.586   6.314
 5283POPC   C2B67124  10.307  38.839   6.697
 5283POPC   C3B67125  10.345  38.872   7.142
 5283POPC   C4B67126  10.350  38.467   7.195
 5284POPC   NC367127  32.619  12.220   5.597
 5284POPC   PO467128  31.997  12.471   5.482
 5284POPC   GL167129  32.171  12.252   5.868
 5284POPC   GL267130  32.306  11.898   5.855
 5284POPC   C1A67131  32.084  12.135   6.297
 5284POPC   D2A67132  31.942  12.372   6.647
 5284POPC   C3A67133  32.096  12.175   6.973
 5284POPC   C4A67134  32.361  12.232   7.289
 5284POPC   C1B67135  32.575  12.016   6.212
 5284POPC   C2B67136  32.482  11.890   6.610
 5284POPC   C3B67137  32.419  11.785   7.028
 5284POPC   C4B67138  32.225  11.770   7.451
 5285POPC   NC367139  34.790  39.696   5.493
 5285POPC   PO467140  34.945  40.246   5.186
 5285POPC   GL167141  34.573  40.161   5.573
 5285POPC   GL267142  34.392  39.859   5.767
 5285POPC   C1A67143  34.505  40.258   6.044
 5285POPC   D2A67144  34.317  40.355   6.412
 5285POPC   C3A67145  34.456  40.137   6.764
 5285POPC   C4A67146  34.628  40.203   7.214
 5285POPC   C1B67147  34.570  39.754   6.203
 5285POPC   C2B67148  34.713  39.734   6.654
 5285POPC   C3B67149  34.465  39.729   7.069
 5285POPC   C4B67150  34.862  39.657   7.212
 5286POPC   NC367151  27.904  31.406   5.521
 5286POPC   PO467152  27.255  31.370   5.443
 5286POPC   GL167153  27.442  31.499   5.832
 5286POPC   GL267154  27.634  31.200   5.887
 5286POPC   C1A67155  27.616  31.523   6.279
 5286POPC   D2A67156  27.661  31.269   6.662
 5286POPC   C3A67157  27.648  31.533   7.013
 5286POPC   C4A67158  27.973  31.717   7.275
 5286POPC   C1B67159  27.294  31.105   6.188
 5286POPC   C2B67160  27.276  30.934   6.609
 5286POPC   C3B67161  27.321  30.819   7.033
 5286POPC   C4B67162  27.483  31.151   7.311
 5287POPC   NC367163  35.453  42.001   5.341
 5287POPC   PO467164  35.388  41.325   5.461
 5287POPC   GL167165  35.330  41.574   5.840
 5287POPC   GL267166  35.566  41.831   5.851
 5287POPC   C1A67167  35.053  41.590   6.187
 5287POPC   D2A67168  35.104  41.384   6.564
 5287POPC   C3A67169  35.280  41.663   6.891
 5287POPC   C4A67170  35.195  41.559   7.308
 5287POPC   C1B67171  35.517  41.777   6.319
 5287POPC   C2B67172  35.686  41.483   6.641
 5287POPC   C3B67173  35.731  41.438   7.101
 5287POPC   C4B67174  35.670  41.678   7.468
 5288POPC   NC367175  26.096  13.101   5.389
 5288POPC   PO467176  25.489  13.124   5.423
 5288POPC   GL167177  25.788  12.939   5.772
 5288POPC   GL267178  26.195  12.955   5.855
 5288POPC   C1A67179  25.860  12.765   6.190
 5288POPC   D2A67180  25.764  12.530   6.554
 5288POPC   C3A67181  26.015  12.654   6.883
 5288POPC   C4A67182  25.872  12.789   7.283
 5288POPC   C1B67183  26.512  13.047   6.194
 5288POPC   C2B67184  26.598  12.845   6.593
 5288POPC   C3B67185  26.452  12.936   6.991
 5288POPC   C4B67186  26.364  12.651   7.296
 5289POPC   NC367187  26.384  22.418   5.163
 5289POPC   PO467188  26.208  22.999   5.536
 5289POPC   GL167189  26.038  22.832   5.903
 5289POPC   GL267190  25.680  22.900   5.921
 5289POPC   C1A67191  26.232  22.810   6.294
 5289POPC   D2A67192  26.336  22.880   6.695
 5289POPC   C3A67193  26.345  22.502   6.896
 5289POPC   C4A67194  26.088  22.559   7.229
 5289POPC   C1B67195  25.782  23.076   6.351
 5289POPC   C2B67196  25.629  23.359   6.659
 5289POPC   C3B67197  25.639  23.229   7.069
 5289POPC   C4B67198  25.598  22.856   7.250
 5290POPC   NC367199  17.492  30.439   5.379
 5290POPC   PO467200  17.955  30.915   5.548
 5290POPC   GL167201  17.678  30.673   5.855
 5290POPC   GL267202  17.318  30.507   5.848
 5290POPC   C1A67203  17.723  30.794   6.292
 5290POPC   D2A67204  17.997  30.633   6.566
 5290POPC   C3A67205  17.829  30.690   6.928
 5290POPC   C4A67206  17.546  30.755   7.196
 5290POPC   C1B67207  17.269  30.530   6.289
 5290POPC   C2B67208  17.310  30.708   6.715
 5290POPC   C3B67209  17.033  30.720   7.073
 5290POPC   C4B67210  17.170  30.691   7.507
 5291POPC   NC367211   5.609  11.838   5.428
 5291POPC   PO467212   5.910  11.292   5.380
 5291POPC   GL167213   6.163  11.274   5.758
 5291POPC   GL267214   5.948  11.488   5.963
 5291POPC   C1A67215   6.218  11.084   6.179
 5291POPC   D2A67216   5.984  11.069   6.580
 5291POPC   C3A67217   5.980  11.264   7.008
 5291POPC   C4A67218   5.661  11.071   7.284
 5291POPC   C1B67219   5.678  11.521   6.345
 5291POPC   C2B67220   5.669  11.676   6.775
 5291POPC   C3B67221   5.634  11.606   7.231
 5291POPC   C4B67222   5.526  11.408   7.642
 5292POPC   NC367223  40.472  36.847   5.532
 5292POPC   PO467224  39.790  37.139   5.462
 5292POPC   GL167225  39.960  36.892   5.803
 5292POPC   GL267226  39.676  36.710   5.904
 5292POPC   C1A67227  40.152  36.964   6.239
 5292POPC   D2A67228  40.096  36.855   6.697
 5292POPC   C3A67229  40.154  37.084   7.068
 5292POPC   C4A67230  40.035  37.055   7.533
 5292POPC   C1B67231  39.676  36.810   6.353
 5292POPC   C2B67232  39.596  36.745   6.796
 5292POPC   C3B67233  39.845  36.681   7.176
 5292POPC   C4B67234  40.014  36.333   7.398
 5293POPC   NC367235  18.781   4.326   5.423
 5293POPC   PO467236  19.328   4.116   5.101
 5293POPC   GL167237  19.261   4.275   5.647
 5293POPC   GL267238  18.964   4.415   5.859
 5293POPC   C1A67239  19.293   4.275   6.191
 5293POPC   D2A67240  19.465   4.143   6.644
 5293POPC   C3A67241  19.197   4.253   7.012
 5293POPC   C4A67242  19.127   4.688   7.116
 5293POPC   C1B67243  18.758   4.423   6.251
 5293POPC   C2B67244  18.854   4.439   6.677
 5293POPC   C3B67245  18.698   4.396   7.073
 5293POPC   C4B67246  18.814   4.113   7.402
 5294POPC   NC367247  43.270  30.488   5.504
 5294POPC   PO467248  43.136  31.099   5.492
 5294POPC   GL167249  43.294  30.948   5.832
 5294POPC   GL267250  43.039  30.696   5.886
 5294POPC   C1A67251  43.254  30.956   6.252
 5294POPC   D2A67252  43.448  30.897   6.638
 5294POPC   C3A67253  43.150  30.903   6.969
 5294POPC   C4A67254  43.201  30.719   7.353
 5294POPC   C1B67255  43.080  30.476   6.239
 5294POPC   C2B67256  43.246  30.431   6.632
 5294POPC   C3B67257  43.111  30.381   7.011
 5294POPC   C4B67258  42.801  30.366   7.362
 5295POPC   NC367259   1.232   0.158   5.090
 5295POPC   PO467260   0.884   0.493   5.539
 5295POPC   GL167261   1.132   0.258   5.852
 5295POPC   GL267262   1.433   0.178   5.729
 5295POPC   C1A67263   1.164   0.324   6.285
 5295POPC   D2A67264   1.165   0.532   6.639
 5295POPC   C3A67265   1.114   0.319   6.972
 5295POPC   C4A67266   1.270   0.521   7.305
 5295POPC   C1B67267   1.568   0.031   6.189
 5295POPC   C2B67268   1.474   0.069   6.657
 5295POPC   C3B67269   1.547   0.134   7.115
 5295POPC   C4B67270   1.546   0.176   7.568
 5296POPC   NC367271  33.441  30.155   5.166
 5296POPC   PO467272  32.851  29.951   5.170
 5296POPC   GL167273  32.859  29.937   5.735
 5296POPC   GL267274  33.021  29.656   5.919
 5296POPC   C1A67275  32.817  29.985   6.235
 5296POPC   D2A67276  33.000  29.914   6.682
 5296POPC   C3A67277  32.864  30.136   7.089
 5296POPC   C4A67278  32.799  30.241   7.552
 5296POPC   C1B67279  33.308  29.779   6.289
 5296POPC   C2B67280  33.549  29.797   6.689
 5296POPC   C3B67281  33.356  29.966   7.051
 5296POPC   C4B67282  33.260  30.026   7.480
 5297POPC   NC367283  32.467  24.655   5.264
 5297POPC   PO467284  33.151  24.502   5.334
 5297POPC   GL167285  33.175  24.465   5.794
 5297POPC   GL267286  32.824  24.489   5.789
 5297POPC   C1A67287  33.332  24.510   6.202
 5297POPC   D2A67288  33.250  24.807   6.508
 5297POPC   C3A67289  33.195  24.634   6.899
 5297POPC   C4A67290  33.093  24.843   7.242
 5297POPC   C1B67291  32.923  24.163   6.115
 5297POPC   C2B67292  33.043  24.230   6.536
 5297POPC   C3B67293  32.771  24.355   6.841
 5297POPC   C4B67294  32.841  24.405   7.247
 5298POPC   NC367295  40.085  24.349   5.235
 5298POPC   PO467296  39.530  24.544   5.446
 5298POPC   GL167297  39.897  24.367   5.712
 5298POPC   GL267298  40.288  24.297   5.706
 5298POPC   C1A67299  39.991  24.345   6.147
 5298POPC   D2A67300  39.923  24.341   6.593
 5298POPC   C3A67301  40.082  24.660   6.858
 5298POPC   C4A67302  39.863  24.641   7.224
 5298POPC   C1B67303  40.486  24.225   6.110
 5298POPC   C2B67304  40.429  24.270   6.542
 5298POPC   C3B67305  40.314  24.193   6.970
 5298POPC   C4B67306  40.349  24.492   7.286
 5299POPC   NC367307  11.373  22.874   5.346
 5299POPC   PO467308  11.981  23.215   5.490
 5299POPC   GL167309  11.719  22.965   5.808
 5299POPC   GL267310  11.335  23.006   5.850
 5299POPC   C1A67311  11.604  23.009   6.274
 5299POPC   D2A67312  11.493  22.698   6.614
 5299POPC   C3A67313  11.418  22.897   7.012
 5299POPC   C4A67314  11.582  23.063   7.394
 5299POPC   C1B67315  11.097  23.050   6.239
 5299POPC   C2B67316  10.951  22.786   6.575
 5299POPC   C3B67317  10.918  22.614   6.993
 5299POPC   C4B67318  11.070  22.796   7.383
 5300POPC   NC367319  36.343  28.943   5.530
 5300POPC   PO467320  35.955  29.477   5.667
 5300POPC   GL167321  36.145  29.245   5.915
 5300POPC   GL267322  35.910  28.990   5.867
 5300POPC   C1A67323  36.329  29.059   6.256
 5300POPC   D2A67324  36.221  28.984   6.660
 5300POPC   C3A67325  36.077  29.371   6.810
 5300POPC   C4A67326  36.079  29.489   7.227
 5300POPC   C1B67327  35.659  28.794   6.193
 5300POPC   C2B67328  35.742  28.810   6.638
 5300POPC   C3B67329  35.888  28.757   7.064
 5300POPC   C4B67330  35.674  28.868   7.448
 5301POPC   NC367331  28.284  30.541   5.849
 5301POPC   PO467332  27.880  30.948   5.467
 5301POPC   GL167333  28.154  31.058   5.830
 5301POPC   GL267334  28.511  31.028   5.761
 5301POPC   C1A67335  28.270  30.978   6.286
 5301POPC   D2A67336  28.133  31.015   6.692
 5301POPC   C3A67337  28.400  30.819   7.005
 5301POPC   C4A67338  28.409  30.542   7.350
 5301POPC   C1B67339  28.702  31.201   6.150
 5301POPC   C2B67340  28.559  31.266   6.601
 5301POPC   C3B67341  28.710  31.240   7.021
 5301POPC   C4B67342  28.718  30.959   7.407
 5302POPC   NC367343  36.454   2.158   5.468
 5302POPC   PO467344  37.080   2.003   5.364
 5302POPC   GL167345  36.949   1.979   5.778
 5302POPC   GL267346  36.866   2.333   5.836
 5302POPC   C1A67347  37.107   1.962   6.208
 5302POPC   D2A67348  37.280   2.113   6.593
 5302POPC   C3A67349  37.135   2.018   6.997
 5302POPC   C4A67350  36.763   1.972   7.254
 5302POPC   C1B67351  36.621   2.100   6.171
 5302POPC   C2B67352  36.718   2.035   6.624
 5302POPC   C3B67353  36.450   2.262   6.927
 5302POPC   C4B67354  36.341   2.305   7.354
 5303POPC   NC367355  16.980   8.142   5.083
 5303POPC   PO467356  17.445   7.971   5.432
 5303POPC   GL167357  17.594   8.023   5.847
 5303POPC   GL267358  17.304   7.846   5.936
 5303POPC   C1A67359  17.722   8.085   6.310
 5303POPC   D2A67360  17.776   7.887   6.752
 5303POPC   C3A67361  17.649   8.184   7.094
 5303POPC   C4A67362  17.723   8.598   7.155
 5303POPC   C1B67363  17.148   7.874   6.310
 5303POPC   C2B67364  17.299   8.090   6.628
 5303POPC   C3B67365  17.275   7.884   6.971
 5303POPC   C4B67366  17.157   8.127   7.314
 5304POPC   NC367367  40.487  26.137   5.680
 5304POPC   PO467368  41.014  26.462   5.405
 5304POPC   GL167369  41.031  26.104   5.761
 5304POPC   GL267370  40.946  25.737   5.800
 5304POPC   C1A67371  41.064  26.014   6.220
 5304POPC   D2A67372  40.792  26.052   6.595
 5304POPC   C3A67373  41.010  26.089   7.008
 5304POPC   C4A67374  40.953  26.120   7.451
 5304POPC   C1B67375  40.632  25.704   6.159
 5304POPC   C2B67376  40.510  25.595   6.540
 5304POPC   C3B67377  40.695  25.641   6.885
 5304POPC   C4B67378  40.670  25.757   7.245
 5305POPC   NC367379  28.840   0.919   5.203
 5305POPC   PO467380  29.149   1.475   5.236
 5305POPC   GL167381  29.041   1.173   5.665
 5305POPC   GL267382  29.212   0.913   5.811
 5305POPC   C1A67383  28.947   1.216   6.190
 5305POPC   D2A67384  28.966   1.405   6.670
 5305POPC   C3A67385  29.146   1.361   7.126
 5305POPC   C4A67386  29.208   1.358   7.601
 5305POPC   C1B67387  29.037   0.724   6.201
 5305POPC   C2B67388  28.791   0.852   6.577
 5305POPC   C3B67389  28.944   0.912   7.013
 5305POPC   C4B67390  29.238   0.874   7.382
 5306POPC   NC367391  15.269  25.555   5.389
 5306POPC   PO467392  14.981  26.206   5.433
 5306POPC   GL167393  15.252  26.160   5.811
 5306POPC   GL267394  15.326  25.808   5.846
 5306POPC   C1A67395  15.412  26.332   6.228
 5306POPC   D2A67396  15.552  26.257   6.690
 5306POPC   C3A67397  15.238  26.061   6.988
 5306POPC   C4A67398  14.983  26.118   7.386
 5306POPC   C1B67399  15.147  25.807   6.277
 5306POPC   C2B67400  15.317  25.619   6.657
 5306POPC   C3B67401  15.428  25.489   7.074
 5306POPC   C4B67402  15.263  25.699   7.361
 5307POPC   NC367403  19.499  18.271   5.564
 5307POPC   PO467404  20.062  18.227   5.297
 5307POPC   GL167405  20.044  18.139   5.793
 5307POPC   GL267406  19.870  17.888   6.084
 5307POPC   C1A67407  20.242  18.187   6.211
 5307POPC   D2A67408  20.010  18.254   6.599
 5307POPC   C3A67409  20.144  18.165   7.027
 5307POPC   C4A67410  19.819  18.361   7.275
 5307POPC   C1B67411  19.712  18.334   6.183
 5307POPC   C2B67412  19.475  18.583   6.486
 5307POPC   C3B67413  19.463  18.491   6.918
 5307POPC   C4B67414  19.454  18.710   7.312
 5308POPC   NC367415   3.784   1.053   4.917
 5308POPC   PO467416   3.437   1.050   5.484
 5308POPC   GL167417   3.536   0.943   5.868
 5308POPC   GL267418   3.884   0.963   5.851
 5308POPC   C1A67419   3.355   0.928   6.276
 5308POPC   D2A67420   3.549   0.880   6.645
 5308POPC   C3A67421   3.702   1.216   6.861
 5308POPC   C4A67422   3.465   1.292   7.203
 5308POPC   C1B67423   3.836   1.154   6.266
 5308POPC   C2B67424   4.061   0.960   6.588
 5308POPC   C3B67425   4.105   0.892   7.025
 5308POPC   C4B67426   3.972   1.196   7.304
 5309POPC   NC367427   1.357  31.719   5.445
 5309POPC   PO467428   0.923  31.174   5.637
 5309POPC   GL167429   1.108  31.440   5.941
 5309POPC   GL267430   1.472  31.498   5.896
 5309POPC   C1A67431   1.098  31.561   6.371
 5309POPC   D2A67432   1.293  31.421   6.739
 5309POPC   C3A67433   1.008  31.443   7.096
 5309POPC   C4A67434   0.986  31.164   7.415
 5309POPC   C1B67435   1.597  31.645   6.281
 5309POPC   C2B67436   1.462  31.908   6.615
 5309POPC   C3B67437   1.560  31.768   7.005
 5309POPC   C4B67438   1.423  31.528   7.372
 5310POPC   NC367439  41.772  18.109   5.518
 5310POPC   PO467440  41.438  18.754   5.492
 5310POPC   GL167441  41.455  18.383   5.805
 5310POPC   GL267442  41.810  18.324   5.978
 5310POPC   C1A67443  41.329  18.342   6.221
 5310POPC   D2A67444  41.683  18.333   6.487
 5310POPC   C3A67445  41.585  18.322   6.902
 5310POPC   C4A67446  41.584  18.427   7.342
 5310POPC   C1B67447  42.083  18.070   6.294
 5310POPC   C2B67448  41.946  17.952   6.727
 5310POPC   C3B67449  41.963  18.121   7.170
 5310POPC   C4B67450  41.912  18.018   7.612
 5311POPC   NC367451  11.256   3.473   5.428
 5311POPC   PO467452  10.877   4.005   5.338
 5311POPC   GL167453  11.078   3.831   5.739
 5311POPC   GL267454  11.051   3.462   5.881
 5311POPC   C1A67455  11.304   3.823   6.142
 5311POPC   D2A67456  11.289   3.512   6.489
 5311POPC   C3A67457  11.340   3.685   6.910
 5311POPC   C4A67458  11.507   3.864   7.270
 5311POPC   C1B67459  10.881   3.254   6.255
 5311POPC   C2B67460  10.795   3.329   6.697
 5311POPC   C3B67461  11.025   3.274   7.089
 5311POPC   C4B67462  10.871   3.275   7.536
 5312POPC   NC367463   4.529  21.357   5.456
 5312POPC   PO467464   3.886  21.259   5.592
 5312POPC   GL167465   4.268  21.108   5.846
 5312POPC   GL267466   4.499  21.384   5.954
 5312POPC   C1A67467   4.474  20.999   6.274
 5312POPC   D2A67468   4.738  21.227   6.612
 5312POPC   C3A67469   4.608  21.280   7.056
 5312POPC   C4A67470   4.210  21.142   7.274
 5312POPC   C1B67471   4.574  21.639   6.324
 5312POPC   C2B67472   4.533  21.707   6.779
 5312POPC   C3B67473   4.762  21.813   7.159
 5312POPC   C4B67474   4.725  21.678   7.627
 5313POPC   NC367475  30.087   8.575   5.429
 5313POPC   PO467476  29.847   9.276   5.457
 5313POPC   GL167477  29.831   9.051   5.840
 5313POPC   GL267478  30.141   8.873   5.893
 5313POPC   C1A67479  29.767   8.922   6.267
 5313POPC   D2A67480  30.081   8.946   6.584
 5313POPC   C3A67481  30.069   8.767   6.982
 5313POPC   C4A67482  30.072   8.563   7.342
 5313POPC   C1B67483  30.148   9.277   6.178
 5313POPC   C2B67484  30.103   9.461   6.607
 5313POPC   C3B67485  30.255   9.249   6.987
 5313POPC   C4B67486  30.394   9.388   7.372
 5314POPC   NC367487  39.603  13.074   5.570
 5314POPC   PO467488  40.021  12.624   5.586
 5314POPC   GL167489  39.915  12.790   5.957
 5314POPC   GL267490  40.032  13.124   5.900
 5314POPC   C1A67491  40.165  12.821   6.339
 5314POPC   D2A67492  40.345  12.593   6.686
 5314POPC   C3A67493  40.129  12.619   7.072
 5314POPC   C4A67494  40.061  13.008   7.284
 5314POPC   C1B67495  39.742  13.183   6.250
 5314POPC   C2B67496  39.786  12.944   6.640
 5314POPC   C3B67497  39.676  12.855   7.014
 5314POPC   C4B67498  39.568  13.175   7.325
 5315POPC   NC367499  10.353  31.816   5.355
 5315POPC   PO467500  10.919  31.450   5.405
 5315POPC   GL167501  10.785  31.493   5.820
 5315POPC   GL267502  10.466  31.638   5.801
 5315POPC   C1A67503  10.726  31.682   6.244
 5315POPC   D2A67504  10.884  31.819   6.650
 5315POPC   C3A67505  10.653  31.689   6.980
 5315POPC   C4A67506  10.597  31.870   7.377
 5315POPC   C1B67507  10.288  31.446   6.138
 5315POPC   C2B67508  10.385  31.392   6.540
 5315POPC   C3B67509  10.184  31.460   6.872
 5315POPC   C4B67510  10.248  31.544   7.259
 5316POPC   NC367511  38.623  17.796   5.407
 5316POPC   PO467512  38.166  17.287   5.383
 5316POPC   GL167513  38.193  17.395   5.819
 5316POPC   GL267514  38.480  17.610   5.861
 5316POPC   C1A67515  38.295  17.236   6.248
 5316POPC   D2A67516  38.403  17.087   6.652
 5316POPC   C3A67517  38.253  17.336   6.997
 5316POPC   C4A67518  38.395  17.407   7.435
 5316POPC   C1B67519  38.684  17.587   6.250
 5316POPC   C2B67520  38.584  17.552   6.663
 5316POPC   C3B67521  38.720  17.542   7.071
 5316POPC   C4B67522  38.746  17.826   7.405
 5317POPC   NC367523   2.011  28.116   5.457
 5317POPC   PO467524   1.639  27.541   5.444
 5317POPC   GL167525   1.942  27.670   5.802
 5317POPC   GL267526   1.827  27.350   5.886
 5317POPC   C1A67527   2.165  27.765   6.241
 5317POPC   D2A67528   2.402  27.782   6.644
 5317POPC   C3A67529   2.213  27.684   7.056
 5317POPC   C4A67530   1.996  27.799   7.443
 5317POPC   C1B67531   2.038  27.294   6.228
 5317POPC   C2B67532   1.988  27.461   6.636
 5317POPC   C3B67533   1.887  27.288   7.033
 5317POPC   C4B67534   1.736  27.372   7.435
 5318POPC   NC367535   3.063  15.172   5.389
 5318POPC   PO467536   3.656  15.532   5.514
 5318POPC   GL167537   3.338  15.364   5.814
 5318POPC   GL267538   3.348  15.612   6.074
 5318POPC   C1A67539   3.388  15.071   6.174
 5318POPC   D2A67540   3.632  14.923   6.559
 5318POPC   C3A67541   3.435  14.988   6.983
 5318POPC   C4A67542   3.282  15.451   7.082
 5318POPC   C1B67543   3.779  15.402   6.149
 5318POPC   C2B67544   4.002  15.311   6.542
 5318POPC   C3B67545   3.789  15.345   6.941
 5318POPC   C4B67546   3.664  15.254   7.373
 5319POPC   NC367547  37.783  16.045   5.365
 5319POPC   PO467548  37.779  15.443   5.464
 5319POPC   GL167549  37.812  15.759   5.814
 5319POPC   GL267550  37.796  16.137   5.852
 5319POPC   C1A67551  37.720  15.832   6.254
 5319POPC   D2A67552  37.848  16.019   6.632
 5319POPC   C3A67553  37.634  15.729   6.895
 5319POPC   C4A67554  37.744  15.574   7.284
 5319POPC   C1B67555  37.392  16.172   6.059
 5319POPC   C2B67556  37.347  16.142   6.520
 5319POPC   C3B67557  37.462  16.194   6.972
 5319POPC   C4B67558  37.544  16.312   7.416
 5320POPC   NC367559   5.362  35.764   5.784
 5320POPC   PO467560   4.779  36.034   5.654
 5320POPC   GL167561   5.071  36.332   5.832
 5320POPC   GL267562   4.817  36.604   5.956
 5320POPC   C1A67563   5.364  36.274   6.192
 5320POPC   D2A67564   5.307  35.979   6.528
 5320POPC   C3A67565   5.124  36.104   6.912
 5320POPC   C4A67566   5.248  36.024   7.317
 5320POPC   C1B67567   4.844  36.266   6.264
 5320POPC   C2B67568   4.693  36.167   6.610
 5320POPC   C3B67569   4.714  36.411   6.954
 5320POPC   C4B67570   4.824  36.300   7.392
 5321POPC   NC367571   9.429  40.086   5.122
 5321POPC   PO467572   8.815  39.948   5.303
 5321POPC   GL167573   8.888  40.024   5.786
 5321POPC   GL267574   9.176  40.169   5.867
 5321POPC   C1A67575   8.879  40.280   6.245
 5321POPC   D2A67576   8.946  40.199   6.675
 5321POPC   C3A67577   8.617  40.202   6.971
 5321POPC   C4A67578   8.825  40.062   7.293
 5321POPC   C1B67579   9.240  39.910   6.248
 5321POPC   C2B67580   9.340  39.687   6.619
 5321POPC   C3B67581   9.360  39.917   7.013
 5321POPC   C4B67582   9.230  39.773   7.397
 5322POPC   NC367583   7.001  19.280   5.359
 5322POPC   PO467584   7.599  19.143   5.165
 5322POPC   GL167585   7.360  19.071   5.637
 5322POPC   GL267586   7.472  19.284   5.924
 5322POPC   C1A67587   7.146  18.939   6.076
 5322POPC   D2A67588   7.147  19.234   6.443
 5322POPC   C3A67589   7.149  19.074   6.859
 5322POPC   C4A67590   7.170  19.278   7.251
 5322POPC   C1B67591   7.776  19.219   6.263
 5322POPC   C2B67592   7.901  19.184   6.670
 5322POPC   C3B67593   7.624  19.219   6.966
 5322POPC   C4B67594   7.684  19.240   7.356
 5323POPC   NC367595   3.806   8.143   5.563
 5323POPC   PO467596   3.136   8.149   5.551
 5323POPC   GL167597   3.420   8.201   5.895
 5323POPC   GL267598   3.601   8.542   5.834
 5323POPC   C1A67599   3.449   7.972   6.286
 5323POPC   D2A67600   3.517   7.791   6.731
 5323POPC   C3A67601   3.289   7.977   7.081
 5323POPC   C4A67602   3.234   8.410   7.107
 5323POPC   C1B67603   3.717   8.454   6.244
 5323POPC   C2B67604   3.750   8.230   6.605
 5323POPC   C3B67605   3.713   8.250   7.016
 5323POPC   C4B67606   3.777   7.898   7.237
 5324POPC   NC367607  30.708   3.051   5.402
 5324POPC   PO467608  30.933   2.368   5.463
 5324POPC   GL167609  30.756   2.638   5.774
 5324POPC   GL267610  30.925   2.935   5.823
 5324POPC   C1A67611  30.550   2.845   6.141
 5324POPC   D2A67612  30.666   2.971   6.574
 5324POPC   C3A67613  30.564   2.741   6.938
 5324POPC   C4A67614  30.626   2.811   7.366
 5324POPC   C1B67615  31.066   2.741   6.195
 5324POPC   C2B67616  31.187   2.870   6.599
 5324POPC   C3B67617  31.056   2.826   7.023
 5324POPC   C4B67618  31.059   2.547   7.380
 5325POPC   NC367619   0.505  31.258   5.453
 5325POPC   PO467620   0.660  31.722   5.084
 5325POPC   GL167621   0.716  31.648   5.661
 5325POPC   GL267622   0.557  31.379   5.933
 5325POPC   C1A67623   0.716  31.818   6.100
 5325POPC   D2A67624   0.524  31.930   6.499
 5325POPC   C3A67625   0.499  31.633   6.822
 5325POPC   C4A67626   0.355  31.608   7.217
 5325POPC   C1B67627   0.786  31.149   6.284
 5325POPC   C2B67628   0.782  31.161   6.741
 5325POPC   C3B67629   0.546  31.147   7.143
 5325POPC   C4B67630   0.528  31.262   7.601
 5326POPC   NC367631  28.617  39.754   5.294
 5326POPC   PO467632  28.022  40.124   5.303
 5326POPC   GL167633  28.211  40.048   5.700
 5326POPC   GL267634  28.501  39.867   5.796
 5326POPC   C1A67635  28.135  39.955   6.153
 5326POPC   D2A67636  28.319  40.090   6.554
 5326POPC   C3A67637  28.123  40.039   6.961
 5326POPC   C4A67638  28.286  40.153   7.367
 5326POPC   C1B67639  28.593  39.614   6.168
 5326POPC   C2B67640  28.694  39.712   6.590
 5326POPC   C3B67641  28.612  39.911   6.965
 5326POPC   C4B67642  28.602  39.728   7.345
 5327POPC   NC367643  27.137  22.228   5.465
 5327POPC   PO467644  26.465  22.041   5.483
 5327POPC   GL167645  26.793  21.961   5.769
 5327POPC   GL267646  26.843  22.286   5.934
 5327POPC   C1A67647  26.843  21.838   6.208
 5327POPC   D2A67648  26.619  22.091   6.523
 5327POPC   C3A67649  26.696  22.057   6.955
 5327POPC   C4A67650  26.726  22.403   7.225
 5327POPC   C1B67651  27.112  22.285   6.338
 5327POPC   C2B67652  27.296  22.562   6.686
 5327POPC   C3B67653  27.273  22.484   7.146
 5327POPC   C4B67654  27.123  22.089   7.295
 5328POPC   NC367655  21.389  18.415   5.443
 5328POPC   PO467656  21.809  17.930   5.533
 5328POPC   GL167657  21.553  18.153   5.842
 5328POPC   GL267658  21.322  17.941   5.920
 5328POPC   C1A67659  21.430  18.440   6.218
 5328POPC   D2A67660  21.214  18.501   6.650
 5328POPC   C3A67661  21.290  18.279   7.082
 5328POPC   C4A67662  21.192  18.295   7.525
 5328POPC   C1B67663  21.490  17.938   6.307
 5328POPC   C2B67664  21.420  18.026   6.676
 5328POPC   C3B67665  21.617  17.875   7.036
 5328POPC   C4B67666  21.428  17.853   7.455
 5329POPC   NC367667  18.882  38.740   5.503
 5329POPC   PO467668  19.259  38.160   5.429
 5329POPC   GL167669  19.226  38.407   5.803
 5329POPC   GL267670  19.085  38.119   5.955
 5329POPC   C1A67671  18.976  38.618   6.171
 5329POPC   D2A67672  19.001  38.756   6.643
 5329POPC   C3A67673  18.856  38.525   7.070
 5329POPC   C4A67674  18.779  38.559   7.582
 5329POPC   C1B67675  19.107  38.184   6.388
 5329POPC   C2B67676  19.271  38.157   6.777
 5329POPC   C3B67677  19.295  38.296   7.183
 5329POPC   C4B67678  19.121  38.163   7.560
 5330POPC   NC367679  15.839   8.096   5.110
 5330POPC   PO467680  16.142   8.631   5.352
 5330POPC   GL167681  16.139   8.437   5.751
 5330POPC   GL267682  16.103   8.087   5.626
 5330POPC   C1A67683  16.020   8.537   6.184
 5330POPC   D2A67684  15.793   8.473   6.592
 5330POPC   C3A67685  15.971   8.381   7.026
 5330POPC   C4A67686  16.102   8.133   7.405
 5330POPC   C1B67687  16.002   7.977   6.064
 5330POPC   C2B67688  16.118   7.815   6.477
 5330POPC   C3B67689  15.895   7.894   6.854
 5330POPC   C4B67690  15.677   7.915   7.227
 5331POPC   NC367691  29.257  13.857   5.589
 5331POPC   PO467692  28.679  13.669   5.728
 5331POPC   GL167693  29.043  13.635   6.010
 5331POPC   GL267694  29.340  13.456   5.908
 5331POPC   C1A67695  29.302  13.573   6.389
 5331POPC   D2A67696  29.322  13.842   6.707
 5331POPC   C3A67697  28.975  13.773   6.941
 5331POPC   C4A67698  29.008  13.973   7.312
 5331POPC   C1B67699  29.088  13.132   6.122
 5331POPC   C2B67700  28.952  13.226   6.542
 5331POPC   C3B67701  29.180  13.275   6.887
 5331POPC   C4B67702  28.946  13.342   7.253
 5332POPC   NC367703  15.419  24.588   5.596
 5332POPC   PO467704  14.844  24.447   5.370
 5332POPC   GL167705  15.113  24.179   5.709
 5332POPC   GL267706  15.485  24.099   5.747
 5332POPC   C1A67707  15.123  24.325   6.152
 5332POPC   D2A67708  14.938  24.523   6.504
 5332POPC   C3A67709  15.073  24.609   6.896
 5332POPC   C4A67710  15.126  24.498   7.306
 5332POPC   C1B67711  15.626  24.247   6.160
 5332POPC   C2B67712  15.438  24.279   6.582
 5332POPC   C3B67713  15.296  24.145   6.983
 5332POPC   C4B67714  15.463  24.138   7.399
 5333POPC   NC367715  44.341  10.143   5.391
 5333POPC   PO467716  43.956   9.580   5.504
 5333POPC   GL167717  43.811   9.741   5.908
 5333POPC   GL267718  43.566  10.040   5.871
 5333POPC   C1A67719  43.966   9.617   6.302
 5333POPC   D2A67720  43.926   9.520   6.726
 5333POPC   C3A67721  44.281   9.615   7.009
 5333POPC   C4A67722  44.332   9.585   7.485
 5333POPC   C1B67723  43.870  10.149   6.218
 5333POPC   C2B67724  43.851  10.020   6.644
 5333POPC   C3B67725  43.694  10.126   7.037
 5333POPC   C4B67726  43.656  10.125   7.499
 5334POPC   NC367727  11.464  10.008   5.520
 5334POPC   PO467728  10.949   9.575   5.386
 5334POPC   GL167729  11.175   9.687   5.805
 5334POPC   GL267730  11.574   9.683   5.901
 5334POPC   C1A67731  11.038   9.869   6.196
 5334POPC   D2A67732  10.849   9.904   6.591
 5334POPC   C3A67733  10.963   9.649   6.903
 5334POPC   C4A67734  10.991   9.801   7.323
 5334POPC   C1B67735  11.540   9.919   6.300
 5334POPC   C2B67736  11.426   9.794   6.726
 5334POPC   C3B67737  11.453   9.873   7.181
 5334POPC   C4B67738  11.364   9.627   7.598
 5335POPC   NC367739   3.113  30.776   5.392
 5335POPC   PO467740   2.416  30.837   5.241
 5335POPC   GL167741   2.674  30.642   5.609
 5335POPC   GL267742   2.865  30.952   5.802
 5335POPC   C1A67743   2.737  30.535   6.069
 5335POPC   D2A67744   2.658  30.484   6.508
 5335POPC   C3A67745   2.524  30.628   6.914
 5335POPC   C4A67746   2.669  30.591   7.326
 5335POPC   C1B67747   2.984  31.021   6.224
 5335POPC   C2B67748   2.822  30.961   6.650
 5335POPC   C3B67749   3.050  30.882   7.041
 5335POPC   C4B67750   3.128  30.873   7.489
 5336POPC   NC367751  40.195   0.198   5.660
 5336POPC   PO467752  40.062  44.586   5.340
 5336POPC   GL167753  39.962  44.697   5.804
 5336POPC   GL267754  39.776   0.009   5.883
 5336POPC   C1A67755  40.038  44.744   6.283
 5336POPC   D2A67756  40.222  44.778   6.721
 5336POPC   C3A67757  40.063  44.519   7.048
 5336POPC   C4A67758  40.052  44.565   7.499
 5336POPC   C1B67759  39.549  44.971   6.288
 5336POPC   C2B67760  39.640  44.913   6.731
 5336POPC   C3B67761  39.768  44.933   7.167
 5336POPC   C4B67762  40.190  44.988   7.222
 5337POPC   NC367763  27.072   6.601   5.258
 5337POPC   PO467764  26.507   6.841   5.421
 5337POPC   GL167765  26.794   6.680   5.763
 5337POPC   GL267766  27.100   6.447   5.744
 5337POPC   C1A67767  26.671   6.566   6.200
 5337POPC   D2A67768  26.502   6.745   6.599
 5337POPC   C3A67769  26.708   6.567   6.986
 5337POPC   C4A67770  26.898   6.729   7.398
 5337POPC   C1B67771  27.105   6.257   6.155
 5337POPC   C2B67772  26.921   6.310   6.574
 5337POPC   C3B67773  27.098   6.223   6.975
 5337POPC   C4B67774  26.978   6.236   7.390
 5338POPC   NC367775  31.123  32.182   5.437
 5338POPC   PO467776  30.456  32.291   5.313
 5338POPC   GL167777  30.667  32.068   5.662
 5338POPC   GL267778  30.787  32.376   5.802
 5338POPC   C1A67779  30.597  31.985   6.113
 5338POPC   D2A67780  30.428  31.819   6.516
 5338POPC   C3A67781  30.557  32.042   6.863
 5338POPC   C4A67782  30.418  32.292   7.214
 5338POPC   C1B67783  30.900  32.484   6.217
 5338POPC   C2B67784  30.998  32.392   6.650
 5338POPC   C3B67785  30.910  32.345   7.085
 5338POPC   C4B67786  31.119  32.446   7.440
 5339POPC   NC367787  15.018  14.716   5.542
 5339POPC   PO467788  15.381  15.295   5.582
 5339POPC   GL167789  15.113  15.334   5.930
 5339POPC   GL267790  15.079  14.977   5.973
 5339POPC   C1A67791  15.114  15.314   6.368
 5339POPC   D2A67792  15.494  15.286   6.564
 5339POPC   C3A67793  15.379  15.251   6.984
 5339POPC   C4A67794  15.042  15.140   7.258
 5339POPC   C1B67795  15.307  14.844   6.358
 5339POPC   C2B67796  15.401  14.757   6.785
 5339POPC   C3B67797  15.545  14.816   7.200
 5339POPC   C4B67798  15.567  15.002   7.610
 5340POPC   NC367799   6.052  42.390   5.386
 5340POPC   PO467800   5.550  41.969   5.512
 5340POPC   GL167801   5.848  42.161   5.796
 5340POPC   GL267802   6.212  42.029   5.749
 5340POPC   C1A67803   5.737  42.408   6.176
 5340POPC   D2A67804   5.622  42.619   6.559
 5340POPC   C3A67805   5.728  42.405   6.895
 5340POPC   C4A67806   5.899  42.469   7.264
 5340POPC   C1B67807   6.245  42.309   6.127
 5340POPC   C2B67808   6.082  42.233   6.549
 5340POPC   C3B67809   6.180  42.169   6.983
 5340POPC   C4B67810   6.331  42.244   7.423
 5341POPC   NC367811  33.920  10.023   5.423
 5341POPC   PO467812  33.429   9.531   5.484
 5341POPC   GL167813  33.690   9.715   5.764
 5341POPC   GL267814  33.649  10.060   5.870
 5341POPC   C1A67815  33.852   9.607   6.151
 5341POPC   D2A67816  33.702   9.699   6.557
 5341POPC   C3A67817  33.862   9.878   6.926
 5341POPC   C4A67818  33.862   9.729   7.339
 5341POPC   C1B67819  33.850  10.101   6.260
 5341POPC   C2B67820  34.161  10.029   6.551
 5341POPC   C3B67821  34.295  10.215   6.946
 5341POPC   C4B67822  34.127  10.191   7.339
 5342POPC   NC367823  30.794   3.756   5.322
 5342POPC   PO467824  30.290   3.264   5.428
 5342POPC   GL167825  30.658   3.402   5.770
 5342POPC   GL267826  30.562   3.787   5.779
 5342POPC   C1A67827  30.905   3.235   6.216
 5342POPC   D2A67828  31.025   3.324   6.695
 5342POPC   C3A67829  30.704   3.216   7.042
 5342POPC   C4A67830  30.606   3.333   7.503
 5342POPC   C1B67831  30.761   3.702   6.171
 5342POPC   C2B67832  30.602   3.579   6.585
 5342POPC   C3B67833  30.632   3.712   7.024
 5342POPC   C4B67834  30.422   3.832   7.396
 5343POPC   NC367835  32.353  23.850   5.595
 5343POPC   PO467836  31.937  23.433   5.473
 5343POPC   GL167837  32.117  23.387   5.902
 5343POPC   GL267838  32.457  23.463   5.935
 5343POPC   C1A67839  32.262  23.333   6.378
 5343POPC   D2A67840  32.358  23.503   6.807
 5343POPC   C3A67841  32.035  23.750   6.984
 5343POPC   C4A67842  31.990  24.089   7.274
 5343POPC   C1B67843  32.592  23.750   6.289
 5343POPC   C2B67844  32.442  24.003   6.653
 5343POPC   C3B67845  32.487  24.001   7.102
 5343POPC   C4B67846  32.767  23.727   7.290
 5344POPC   NC367847  22.419  28.879   5.660
 5344POPC   PO467848  22.175  29.497   5.502
 5344POPC   GL167849  22.237  29.325   5.877
 5344POPC   GL267850  22.591  29.346   5.869
 5344POPC   C1A67851  22.034  29.085   6.214
 5344POPC   D2A67852  21.985  28.999   6.641
 5344POPC   C3A67853  21.727  29.060   6.949
 5344POPC   C4A67854  21.796  29.038   7.342
 5344POPC   C1B67855  22.610  29.293   6.301
 5344POPC   C2B67856  22.474  28.976   6.553
 5344POPC   C3B67857  22.375  29.023   6.993
 5344POPC   C4B67858  22.429  29.379   7.240
 5345POPC   NC367859  30.483  10.919   5.616
 5345POPC   PO467860  30.890  10.414   5.300
 5345POPC   GL167861  30.745  10.469   5.745
 5345POPC   GL267862  30.528  10.232   5.941
 5345POPC   C1A67863  30.883  10.510   6.180
 5345POPC   D2A67864  30.692  10.586   6.581
 5345POPC   C3A67865  30.949  10.766   6.892
 5345POPC   C4A67866  30.792  11.029   7.194
 5345POPC   C1B67867  30.579  10.121   6.403
 5345POPC   C2B67868  30.699  10.142   6.853
 5345POPC   C3B67869  30.479  10.259   7.228
 5345POPC   C4B67870  30.328  10.503   7.607
 5346POPC   NC367871  14.810   2.780   5.470
 5346POPC   PO467872  14.441   2.205   5.371
 5346POPC   GL167873  14.559   2.436   5.778
 5346POPC   GL267874  14.468   2.821   5.839
 5346POPC   C1A67875  14.487   2.517   6.229
 5346POPC   D2A67876  14.332   2.798   6.551
 5346POPC   C3A67877  14.467   2.771   6.974
 5346POPC   C4A67878  14.268   2.690   7.351
 5346POPC   C1B67879  14.616   3.069   6.219
 5346POPC   C2B67880  14.729   3.102   6.664
 5346POPC   C3B67881  14.632   3.254   7.085
 5346POPC   C4B67882  14.601   3.097   7.504
 5347POPC   NC367883  32.613  32.954   5.464
 5347POPC   PO467884  32.019  32.732   5.358
 5347POPC   GL167885  32.169  32.837   5.765
 5347POPC   GL267886  32.237  33.189   5.801
 5347POPC   C1A67887  32.141  32.829   6.221
 5347POPC   D2A67888  32.165  33.061   6.610
 5347POPC   C3A67889  32.175  32.804   6.945
 5347POPC   C4A67890  32.058  32.706   7.306
 5347POPC   C1B67891  32.475  33.251   6.210
 5347POPC   C2B67892  32.584  33.379   6.655
 5347POPC   C3B67893  32.496  33.176   7.066
 5347POPC   C4B67894  32.272  33.147   7.464
 5348POPC   NC367895   0.003   3.599   5.393
 5348POPC   PO467896  44.445   3.189   5.486
 5348POPC   GL167897  44.581   3.513   5.795
 5348POPC   GL267898  44.900   3.672   5.884
 5348POPC   C1A67899  44.509   3.637   6.230
 5348POPC   D2A67900  44.446   3.356   6.588
 5348POPC   C3A67901  44.504   3.465   7.014
 5348POPC   C4A67902  44.462   3.108   7.256
 5348POPC   C1B67903  44.942   3.917   6.264
 5348POPC   C2B67904  44.787   3.789   6.659
 5348POPC   C3B67905  44.906   3.785   7.078
 5348POPC   C4B67906  44.982   4.095   7.378
 5349POPC   NC367907  15.797  28.768   5.063
 5349POPC   PO467908  16.070  29.230   5.425
 5349POPC   GL167909  15.949  29.160   5.861
 5349POPC   GL267910  16.286  29.147   5.942
 5349POPC   C1A67911  15.933  28.895   6.262
 5349POPC   D2A67912  15.701  28.907   6.660
 5349POPC   C3A67913  15.774  29.183   6.994
 5349POPC   C4A67914  15.838  29.039   7.415
 5349POPC   C1B67915  16.262  29.297   6.347
 5349POPC   C2B67916  16.210  29.043   6.734
 5349POPC   C3B67917  16.280  29.148   7.165
 5349POPC   C4B67918  16.390  29.153   7.613
 5350POPC   NC367919  34.981  15.590   5.195
 5350POPC   PO467920  35.246  16.067   5.466
 5350POPC   GL167921  35.195  16.176   5.846
 5350POPC   GL267922  35.529  16.065   5.962
 5350POPC   C1A67923  35.139  16.172   6.263
 5350POPC   D2A67924  35.408  16.107   6.578
 5350POPC   C3A67925  35.209  16.183   6.930
 5350POPC   C4A67926  35.334  16.366   7.282
 5350POPC   C1B67927  35.668  15.794   6.275
 5350POPC   C2B67928  35.871  15.877   6.652
 5350POPC   C3B67929  35.717  16.003   7.006
 5350POPC   C4B67930  35.423  15.861   7.269
 5351POPC   NC367931   3.022  35.628   5.571
 5351POPC   PO467932   2.974  34.977   5.535
 5351POPC   GL167933   2.668  35.165   5.744
 5351POPC   GL267934   2.811  35.405   5.952
 5351POPC   C1A67935   2.528  35.082   6.185
 5351POPC   D2A67936   2.864  35.298   6.458
 5351POPC   C3A67937   2.768  35.279   6.887
 5351POPC   C4A67938   2.678  35.051   7.256
 5351POPC   C1B67939   2.521  35.614   6.222
 5351POPC   C2B67940   2.649  35.768   6.616
 5351POPC   C3B67941   2.801  35.777   7.041
 5351POPC   C4B67942   2.995  35.485   7.299
 5352POPC   NC367943  40.759  33.393   5.541
 5352POPC   PO467944  40.644  33.993   5.362
 5352POPC   GL167945  40.920  33.894   5.690
 5352POPC   GL267946  40.620  33.785   5.854
 5352POPC   C1A67947  41.101  33.900   6.113
 5352POPC   D2A67948  40.894  33.843   6.498
 5352POPC   C3A67949  40.981  34.029   6.923
 5352POPC   C4A67950  41.051  33.862   7.313
 5352POPC   C1B67951  40.421  33.728   6.244
 5352POPC   C2B67952  40.466  33.667   6.694
 5352POPC   C3B67953  40.571  33.716   7.116
 5352POPC   C4B67954  40.532  34.012   7.435
 5353POPC   NC367955  25.507  42.272   5.570
 5353POPC   PO467956  24.932  42.563   5.401
 5353POPC   GL167957  25.169  42.542   5.811
 5353POPC   GL267958  25.138  42.193   5.909
 5353POPC   C1A67959  25.409  42.512   6.190
 5353POPC   D2A67960  25.228  42.377   6.560
 5353POPC   C3A67961  25.288  42.542   6.966
 5353POPC   C4A67962  25.593  42.502   7.250
 5353POPC   C1B67963  25.424  42.011   6.206
 5353POPC   C2B67964  25.393  41.898   6.611
 5353POPC   C3B67965  25.237  42.032   6.968
 5353POPC   C4B67966  25.250  41.773   7.292
 5354POPC   NC367967   3.062  25.867   5.350
 5354POPC   PO467968   2.428  26.040   5.386
 5354POPC   GL167969   2.728  26.054   5.744
 5354POPC   GL267970   2.699  25.693   5.715
 5354POPC   C1A67971   2.821  26.234   6.190
 5354POPC   D2A67972   2.755  26.216   6.635
 5354POPC   C3A67973   2.944  26.201   7.046
 5354POPC   C4A67974   2.584  26.257   7.342
 5354POPC   C1B67975   2.731  25.724   6.170
 5354POPC   C2B67976   2.919  25.750   6.587
 5354POPC   C3B67977   2.653  25.820   6.959
 5354POPC   C4B67978   2.763  25.801   7.404
 5355POPC   NC367979   4.429  34.437   5.088
 5355POPC   PO467980   4.360  33.884   5.452
 5355POPC   GL167981   4.305  33.642   5.796
 5355POPC   GL267982   4.656  33.506   5.781
 5355POPC   C1A67983   4.080  33.738   6.200
 5355POPC   D2A67984   4.005  33.970   6.614
 5355POPC   C3A67985   4.117  33.768   7.019
 5355POPC   C4A67986   4.127  33.757   7.480
 5355POPC   C1B67987   4.606  33.801   6.155
 5355POPC   C2B67988   4.442  33.675   6.558
 5355POPC   C3B67989   4.631  33.582   6.934
 5355POPC   C4B67990   4.562  33.857   7.272
 5356POPC   NC367991   2.170  37.184   5.536
 5356POPC   PO467992   1.810  36.531   5.439
 5356POPC   GL167993   1.832  36.812   5.794
 5356POPC   GL267994   2.186  36.767   5.846
 5356POPC   C1A67995   1.860  36.880   6.250
 5356POPC   D2A67996   1.771  37.087   6.625
 5356POPC   C3A67997   1.829  36.798   6.959
 5356POPC   C4A67998   2.204  36.689   7.194
 5356POPC   C1B67999   2.328  37.065   6.177
 5356POPC   C2B68000   2.268  36.952   6.605
 5356POPC   C3B68001   2.184  37.169   6.960
 5356POPC   C4B68002   2.445  37.259   7.258
 5357POPC   NC368003  13.737  31.775   5.424
 5357POPC   PO468004  13.231  31.280   5.474
 5357POPC   GL168005  13.382  31.580   5.789
 5357POPC   GL268006  13.742  31.580   5.894
 5357POPC   C1A68007  13.391  31.472   6.238
 5357POPC   D2A68008  13.586  31.551   6.641
 5357POPC   C3A68009  13.568  31.191   6.929
 5357POPC   C4A68010  13.213  31.163   7.202
 5357POPC   C1B68011  13.990  31.644   6.297
 5357POPC   C2B68012  13.995  31.843   6.712
 5357POPC   C3B68013  13.725  31.816   7.090
 5357POPC   C4B68014  13.861  31.750   7.519
 5358POPC   NC368015  37.457   1.922   5.599
 5358POPC   PO468016  37.785   2.441   5.407
 5358POPC   GL168017  37.819   2.214   5.847
 5358POPC   GL268018  37.841   1.839   5.899
 5358POPC   C1A68019  37.721   2.074   6.307
 5358POPC   D2A68020  37.698   1.811   6.615
 5358POPC   C3A68021  37.665   2.023   6.947
 5358POPC   C4A68022  37.656   1.932   7.316
 5358POPC   C1B68023  37.493   1.609   6.178
 5358POPC   C2B68024  37.241   1.597   6.547
 5358POPC   C3B68025  37.390   1.554   6.950
 5358POPC   C4B68026  37.208   1.643   7.333
 5359POPC   NC368027   7.329  29.621   5.250
 5359POPC   PO468028   7.692  29.139   5.189
 5359POPC   GL168029   7.396  29.223   5.679
 5359POPC   GL268030   7.533  29.313   5.995
 5359POPC   C1A68031   7.145  29.095   6.167
 5359POPC   D2A68032   7.033  29.274   6.615
 5359POPC   C3A68033   7.156  29.104   7.046
 5359POPC   C4A68034   7.266  28.902   7.466
 5359POPC   C1B68035   7.770  29.319   6.369
 5359POPC   C2B68036   7.562  29.260   6.751
 5359POPC   C3B68037   7.670  29.127   7.141
 5359POPC   C4B68038   7.674  29.196   7.569
 5360POPC   NC368039  23.447  33.851   5.261
 5360POPC   PO468040  23.618  33.221   5.316
 5360POPC   GL168041  23.757  33.618   5.645
 5360POPC   GL268042  23.469  33.849   5.756
 5360POPC   C1A68043  23.864  33.921   6.073
 5360POPC   D2A68044  23.835  34.078   6.561
 5360POPC   C3A68045  23.588  33.810   6.880
 5360POPC   C4A68046  23.379  33.591   7.250
 5360POPC   C1B68047  23.352  34.157   6.037
 5360POPC   C2B68048  23.319  34.158   6.465
 5360POPC   C3B68049  23.299  34.231   6.877
 5360POPC   C4B68050  23.433  34.111   7.277
 5361POPC   NC368051  16.858  44.167   5.303
 5361POPC   PO468052  16.300  43.940   5.544
 5361POPC   GL168053  16.753  43.927   5.753
 5361POPC   GL268054  16.971  43.614   5.749
 5361POPC   C1A68055  16.973  43.965   6.151
 5361POPC   D2A68056  16.775  44.106   6.498
 5361POPC   C3A68057  16.801  43.966   6.889
 5361POPC   C4A68058  17.041  43.808   7.174
 5361POPC   C1B68059  16.762  43.500   6.163
 5361POPC   C2B68060  16.867  43.526   6.612
 5361POPC   C3B68061  16.655  43.509   7.020
 5361POPC   C4B68062  16.398  43.828   7.245
 5362POPC   NC368063  12.417  10.293   5.419
 5362POPC   PO468064  11.906   9.850   5.478
 5362POPC   GL168065  12.135   9.848   5.847
 5362POPC   GL268066  12.389  10.123   5.905
 5362POPC   C1A68067  12.030   9.685   6.243
 5362POPC   D2A68068  11.950   9.887   6.627
 5362POPC   C3A68069  11.847   9.646   6.966
 5362POPC   C4A68070  11.789   9.495   7.374
 5362POPC   C1B68071  12.539   9.819   6.216
 5362POPC   C2B68072  12.493   9.545   6.573
 5362POPC   C3B68073  12.356   9.639   6.979
 5362POPC   C4B68074  12.161   9.860   7.323
 5363POPC   NC368075  27.347   4.440   5.397
 5363POPC   PO468076  27.788   3.881   5.286
 5363POPC   GL168077  27.566   4.078   5.669
 5363POPC   GL268078  27.180   4.040   5.735
 5363POPC   C1A68079  27.652   4.085   6.112
 5363POPC   D2A68080  27.916   4.289   6.411
 5363POPC   C3A68081  27.691   4.353   6.755
 5363POPC   C4A68082  27.764   4.294   7.165
 5363POPC   C1B68083  27.200   4.341   6.094
 5363POPC   C2B68084  27.209   4.260   6.543
 5363POPC   C3B68085  27.300   4.098   6.957
 5363POPC   C4B68086  27.303   4.181   7.395
 5364POPC   NC368087  17.422  27.253   5.463
 5364POPC   PO468088  17.480  26.532   5.349
 5364POPC   GL168089  17.509  26.586   5.807
 5364POPC   GL268090  17.467  26.937   5.844
 5364POPC   C1A68091  17.430  26.670   6.259
 5364POPC   D2A68092  17.451  26.726   6.675
 5364POPC   C3A68093  17.718  26.476   6.924
 5364POPC   C4A68094  17.546  26.589   7.280
 5364POPC   C1B68095  17.744  27.053   6.206
 5364POPC   C2B68096  17.648  27.191   6.599
 5364POPC   C3B68097  17.791  26.999   6.953
 5364POPC   C4B68098  17.644  27.125   7.317
 5365POPC   NC368099   2.848  32.366   5.262
 5365POPC   PO468100   2.425  32.377   5.664
 5365POPC   GL168101   2.880  32.432   5.783
 5365POPC   GL268102   3.021  32.105   5.699
 5365POPC   C1A68103   3.015  32.484   6.216
 5365POPC   D2A68104   2.688  32.494   6.527
 5365POPC   C3A68105   2.758  32.365   6.942
 5365POPC   C4A68106   2.723  32.465   7.378
 5365POPC   C1B68107   2.742  32.045   6.095
 5365POPC   C2B68108   2.773  31.976   6.529
 5365POPC   C3B68109   2.652  31.806   6.912
 5365POPC   C4B68110   2.917  31.960   7.219
 5366POPC   NC368111  14.956  23.257   5.482
 5366POPC   PO468112  15.164  22.699   5.152
 5366POPC   GL168113  15.247  22.799   5.685
 5366POPC   GL268114  15.374  23.142   5.799
 5366POPC   C1A68115  15.029  22.738   6.168
 5366POPC   D2A68116  14.879  22.739   6.626
 5366POPC   C3A68117  15.132  23.023   6.875
 5366POPC   C4A68118  15.447  23.136   7.175
 5366POPC   C1B68119  15.074  23.264   6.140
 5366POPC   C2B68120  14.971  23.471   6.523
 5366POPC   C3B68121  14.694  23.301   6.821
 5366POPC   C4B68122  14.651  22.939   7.092
 5367POPC   NC368123  31.867  14.557   5.493
 5367POPC   PO468124  32.418  14.136   5.352
 5367POPC   GL168125  32.240  14.307   5.760
 5367POPC   GL268126  31.924  14.113   5.815
 5367POPC   C1A68127  32.315  14.572   6.154
 5367POPC   D2A68128  32.572  14.626   6.558
 5367POPC   C3A68129  32.443  14.449   6.981
 5367POPC   C4A68130  32.242  14.642   7.356
 5367POPC   C1B68131  31.930  14.104   6.264
 5367POPC   C2B68132  32.082  14.391   6.583
 5367POPC   C3B68133  31.935  14.454   6.989
 5367POPC   C4B68134  31.980  14.225   7.365
 5368POPC   NC368135  19.303  13.674   5.425
 5368POPC   PO468136  18.733  13.380   5.584
 5368POPC   GL168137  19.015  13.616   5.877
 5368POPC   GL268138  19.270  13.895   5.859
 5368POPC   C1A68139  18.927  13.878   6.247
 5368POPC   D2A68140  18.704  13.856   6.652
 5368POPC   C3A68141  18.902  13.589   6.936
 5368POPC   C4A68142  19.173  13.578   7.304
 5368POPC   C1B68143  19.429  13.720   6.205
 5368POPC   C2B68144  19.271  13.714   6.598
 5368POPC   C3B68145  19.350  13.894   6.967
 5368POPC   C4B68146  19.611  13.827   7.376
 5369POPC   NC368147   7.058  40.677   5.380
 5369POPC   PO468148   7.686  40.850   5.491
 5369POPC   GL168149   7.329  40.822   5.810
 5369POPC   GL268150   7.359  40.484   5.818
 5369POPC   C1A68151   7.154  40.670   6.248
 5369POPC   D2A68152   7.103  40.445   6.680
 5369POPC   C3A68153   7.328  40.651   7.008
 5369POPC   C4A68154   7.519  41.032   7.216
 5369POPC   C1B68155   7.721  40.644   6.135
 5369POPC   C2B68156   7.899  40.550   6.597
 5369POPC   C3B68157   7.811  40.522   7.089
 5369POPC   C4B68158   7.546  40.561   7.467
 5370POPC   NC368159  25.594  31.918   5.400
 5370POPC   PO468160  25.078  32.318   5.523
 5370POPC   GL168161  25.324  32.137   5.836
 5370POPC   GL268162  25.320  31.802   5.821
 5370POPC   C1A68163  25.445  32.210   6.265
 5370POPC   D2A68164  25.420  32.472   6.632
 5370POPC   C3A68165  25.357  32.284   7.042
 5370POPC   C4A68166  25.284  32.446   7.492
 5370POPC   C1B68167  25.062  31.829   6.180
 5370POPC   C2B68168  25.098  31.967   6.580
 5370POPC   C3B68169  25.104  31.822   7.014
 5370POPC   C4B68170  25.251  31.939   7.413
 5371POPC   NC368171  18.371  27.742   5.032
 5371POPC   PO468172  17.927  27.472   5.510
 5371POPC   GL168173  18.192  27.613   5.844
 5371POPC   GL268174  17.983  27.798   6.014
 5371POPC   C1A68175  18.416  27.685   6.246
 5371POPC   D2A68176  18.612  27.442   6.534
 5371POPC   C3A68177  18.496  27.606   6.897
 5371POPC   C4A68178  18.387  27.540   7.275
 5371POPC   C1B68179  17.881  27.539   6.301
 5371POPC   C2B68180  18.050  27.493   6.684
 5371POPC   C3B68181  17.936  27.470   7.088
 5371POPC   C4B68182  18.004  27.416   7.569
 5372POPC   NC368183  15.803  27.921   5.382
 5372POPC   PO468184  16.129  27.341   5.554
 5372POPC   GL168185  15.896  27.642   5.825
 5372POPC   GL268186  16.200  27.778   5.963
 5372POPC   C1A68187  15.798  27.663   6.287
 5372POPC   D2A68188  16.024  27.416   6.646
 5372POPC   C3A68189  15.770  27.453   7.007
 5372POPC   C4A68190  15.560  27.814   7.127
 5372POPC   C1B68191  16.254  27.820   6.400
 5372POPC   C2B68192  16.138  27.880   6.819
 5372POPC   C3B68193  16.226  27.609   7.180
 5372POPC   C4B68194  16.295  27.739   7.593
 5373POPC   NC368195   5.809  39.547   5.288
 5373POPC   PO468196   5.369  40.140   5.192
 5373POPC   GL168197   5.567  39.975   5.607
 5373POPC   GL268198   5.915  40.106   5.688
 5373POPC   C1A68199   5.630  39.895   6.066
 5373POPC   D2A68200   5.705  40.125   6.467
 5373POPC   C3A68201   5.942  39.931   6.811
 5373POPC   C4A68202   5.763  39.856   7.213
 5373POPC   C1B68203   6.095  40.131   6.117
 5373POPC   C2B68204   6.151  40.408   6.493
 5373POPC   C3B68205   6.266  40.382   6.924
 5373POPC   C4B68206   6.207  40.130   7.252
 5374POPC   NC368207   5.143   4.200   5.346
 5374POPC   PO468208   4.889   4.704   5.545
 5374POPC   GL168209   5.244   4.542   5.803
 5374POPC   GL268210   5.213   4.197   5.834
 5374POPC   C1A68211   5.426   4.436   6.221
 5374POPC   D2A68212   5.202   4.322   6.599
 5374POPC   C3A68213   5.261   4.506   7.014
 5374POPC   C4A68214   4.905   4.568   7.252
 5374POPC   C1B68215   5.121   3.981   6.221
 5374POPC   C2B68216   5.225   3.808   6.616
 5374POPC   C3B68217   5.223   3.998   7.004
 5374POPC   C4B68218   5.173   4.180   7.432
 5375POPC   NC368219  12.150   6.698   5.126
 5375POPC   PO468220  11.853   6.919   5.691
 5375POPC   GL168221  12.070   6.599   5.954
 5375POPC   GL268222  12.355   6.428   5.860
 5375POPC   C1A68223  12.272   6.651   6.337
 5375POPC   D2A68224  12.291   6.421   6.698
 5375POPC   C3A68225  12.155   6.718   6.968
 5375POPC   C4A68226  12.088   6.953   7.324
 5375POPC   C1B68227  12.117   6.180   6.245
 5375POPC   C2B68228  11.991   6.024   6.661
 5375POPC   C3B68229  11.926   6.249   7.065
 5375POPC   C4B68230  12.174   6.452   7.407
 5376POPC   NC368231  19.173  31.323   5.444
 5376POPC   PO468232  19.025  31.953   5.420
 5376POPC   GL168233  18.938  31.669   5.809
 5376POPC   GL268234  18.982  31.298   5.916
 5376POPC   C1A68235  19.011  31.678   6.264
 5376POPC   D2A68236  18.850  31.626   6.659
 5376POPC   C3A68237  18.755  31.272   6.870
 5376POPC   C4A68238  18.860  31.272   7.291
 5376POPC   C1B68239  18.940  31.155   6.360
 5376POPC   C2B68240  19.234  31.209   6.693
 5376POPC   C3B68241  19.328  31.627   6.842
 5376POPC   C4B68242  19.157  31.751   7.232
 5377POPC   NC368243  24.737   0.168   5.500
 5377POPC   PO468244  24.274   0.626   5.582
 5377POPC   GL168245  24.424   0.341   5.892
 5377POPC   GL268246  24.174   0.101   5.964
 5377POPC   C1A68247  24.644   0.469   6.270
 5377POPC   D2A68248  24.882   0.459   6.643
 5377POPC   C3A68249  24.681   0.484   7.019
 5377POPC   C4A68250  24.341   0.462   7.249
 5377POPC   C1B68251  24.144   0.326   6.375
 5377POPC   C2B68252  24.065   0.351   6.831
 5377POPC   C3B68253  24.113   0.003   7.140
 5377POPC   C4B68254  24.236   0.072   7.556
 5378POPC   NC368255  26.803  31.208   5.451
 5378POPC   PO468256  26.710  31.829   5.504
 5378POPC   GL168257  26.898  31.600   5.832
 5378POPC   GL268258  27.081  31.862   6.007
 5378POPC   C1A68259  26.793  31.280   6.178
 5378POPC   D2A68260  26.834  31.150   6.639
 5378POPC   C3A68261  27.156  31.432   6.818
 5378POPC   C4A68262  27.102  31.708   7.188
 5378POPC   C1B68263  26.762  31.775   6.345
 5378POPC   C2B68264  26.489  31.508   6.631
 5378POPC   C3B68265  26.493  31.294   7.051
 5378POPC   C4B68266  26.637  31.404   7.492
 5379POPC   NC368267   4.603  41.851   5.476
 5379POPC   PO468268   5.093  41.437   5.411
 5379POPC   GL168269   5.122  41.452   5.825
 5379POPC   GL268270   4.750  41.451   5.842
 5379POPC   C1A68271   5.346  41.685   6.160
 5379POPC   D2A68272   5.479  41.540   6.555
 5379POPC   C3A68273   5.310  41.582   6.950
 5379POPC   C4A68274   5.387  41.731   7.311
 5379POPC   C1B68275   4.862  41.541   6.254
 5379POPC   C2B68276   4.903  41.495   6.672
 5379POPC   C3B68277   4.832  41.847   6.959
 5379POPC   C4B68278   4.614  41.939   7.313
 5380POPC   NC368279  10.190  39.488   5.373
 5380POPC   PO468280  10.709  38.984   5.370
 5380POPC   GL168281  10.429  39.084   5.697
 5380POPC   GL268282  10.510  39.413   5.769
 5380POPC   C1A68283  10.477  39.049   6.148
 5380POPC   D2A68284  10.431  39.323   6.479
 5380POPC   C3A68285  10.643  39.204   6.855
 5380POPC   C4A68286  10.501  39.395   7.242
 5380POPC   C1B68287  10.780  39.531   6.110
 5380POPC   C2B68288  10.901  39.542   6.547
 5380POPC   C3B68289  10.839  39.674   6.950
 5380POPC   C4B68290  10.950  39.582   7.381
 5381POPC   NC368291  25.335   9.504   5.431
 5381POPC   PO468292  25.087  10.183   5.407
 5381POPC   GL168293  25.305  10.049   5.752
 5381POPC   GL268294  25.046   9.803   5.843
 5381POPC   C1A68295  25.557   9.956   6.104
 5381POPC   D2A68296  25.483   9.641   6.405
 5381POPC   C3A68297  25.289   9.708   6.802
 5381POPC   C4A68298  25.301   9.535   7.226
 5381POPC   C1B68299  24.978   9.619   6.269
 5381POPC   C2B68300  24.790   9.759   6.666
 5381POPC   C3B68301  24.874   9.815   7.107
 5381POPC   C4B68302  24.769   9.625   7.491
 5382POPC   NC368303  34.751   2.021   5.387
 5382POPC   PO468304  34.079   1.770   5.428
 5382POPC   GL168305  34.432   1.780   5.704
 5382POPC   GL268306  34.413   2.156   5.748
 5382POPC   C1A68307  34.495   1.839   6.153
 5382POPC   D2A68308  34.300   1.894   6.555
 5382POPC   C3A68309  34.528   1.868   6.902
 5382POPC   C4A68310  34.515   1.712   7.306
 5382POPC   C1B68311  34.574   2.405   6.084
 5382POPC   C2B68312  34.593   2.310   6.488
 5382POPC   C3B68313  34.588   2.385   6.888
 5382POPC   C4B68314  34.557   2.201   7.316
 5383POPC   NC368315  42.158  26.233   5.194
 5383POPC   PO468316  42.577  25.795   5.441
 5383POPC   GL168317  42.336  26.120   5.681
 5383POPC   GL268318  42.620  26.226   5.812
 5383POPC   C1A68319  42.213  26.155   6.144
 5383POPC   D2A68320  42.202  25.768   6.428
 5383POPC   C3A68321  42.261  25.746   6.885
 5383POPC   C4A68322  42.082  25.950   7.256
 5383POPC   C1B68323  42.697  25.964   6.171
 5383POPC   C2B68324  42.595  26.070   6.587
 5383POPC   C3B68325  42.387  26.226   6.936
 5383POPC   C4B68326  42.603  26.046   7.255
 5384POPC   NC368327  25.273  40.572   5.469
 5384POPC   PO468328  25.176  41.188   5.267
 5384POPC   GL168329  25.186  41.016   5.724
 5384POPC   GL268330  24.968  40.729   5.876
 5384POPC   C1A68331  25.295  41.019   6.156
 5384POPC   D2A68332  25.366  40.724   6.467
 5384POPC   C3A68333  25.322  40.845   6.893
 5384POPC   C4A68334  25.412  40.707   7.310
 5384POPC   C1B68335  24.872  40.778   6.340
 5384POPC   C2B68336  24.936  40.529   6.716
 5384POPC   C3B68337  24.948  40.531   7.166
 5384POPC   C4B68338  25.216  40.262   7.445
 5385POPC   NC368339  18.982  39.484   5.317
 5385POPC   PO468340  19.350  38.896   5.466
 5385POPC   GL168341  19.037  39.124   5.796
 5385POPC   GL268342  18.936  39.486   5.824
 5385POPC   C1A68343  18.992  39.128   6.266
 5385POPC   D2A68344  18.982  39.307   6.678
 5385POPC   C3A68345  18.755  39.043   6.992
 5385POPC   C4A68346  18.976  38.940   7.337
 5385POPC   C1B68347  19.061  39.647   6.233
 5385POPC   C2B68348  19.419  39.665   6.516
 5385POPC   C3B68349  19.389  39.509   6.939
 5385POPC   C4B68350  19.028  39.439   7.185
 5386POPC   NC368351   9.236   7.386   5.459
 5386POPC   PO468352   8.592   7.234   5.369
 5386POPC   GL168353   8.734   7.454   5.765
 5386POPC   GL268354   9.028   7.704   5.810
 5386POPC   C1A68355   8.774   7.335   6.204
 5386POPC   D2A68356   8.796   7.529   6.615
 5386POPC   C3A68357   8.823   7.397   7.054
 5386POPC   C4A68358   8.897   7.399   7.524
 5386POPC   C1B68359   9.265   7.513   6.155
 5386POPC   C2B68360   9.220   7.212   6.491
 5386POPC   C3B68361   9.296   7.379   6.884
 5386POPC   C4B68362   9.242   7.651   7.245
 5387POPC   NC368363  10.288  13.045   5.570
 5387POPC   PO468364  10.890  12.876   5.432
 5387POPC   GL168365  10.695  12.735   5.820
 5387POPC   GL268366  10.370  12.835   6.015
 5387POPC   C1A68367  10.787  12.745   6.261
 5387POPC   D2A68368  10.432  12.881   6.562
 5387POPC   C3A68369  10.559  12.934   6.976
 5387POPC   C4A68370  10.629  12.939   7.415
 5387POPC   C1B68371  10.602  13.226   6.246
 5387POPC   C2B68372  10.611  13.420   6.707
 5387POPC   C3B68373  10.362  13.381   7.131
 5387POPC   C4B68374  10.369  13.340   7.617
 5388POPC   NC368375   6.929   0.172   5.754
 5388POPC   PO468376   6.400   0.457   5.450
 5388POPC   GL168377   6.470   0.407   5.870
 5388POPC   GL268378   6.361   0.053   5.905
 5388POPC   C1A68379   6.541   0.652   6.270
 5388POPC   D2A68380   6.671   0.772   6.705
 5388POPC   C3A68381   6.545   0.464   7.028
 5388POPC   C4A68382   6.302   0.073   7.080
 5388POPC   C1B68383   6.529   0.139   6.304
 5388POPC   C2B68384   6.854   0.303   6.568
 5388POPC   C3B68385   6.946   0.084   6.914
 5388POPC   C4B68386   6.863   0.111   7.308
 5389POPC   NC368387  22.742  25.944   5.441
 5389POPC   PO468388  23.030  26.498   5.428
 5389POPC   GL168389  22.924  26.266   5.810
 5389POPC   GL268390  22.563  26.257   5.826
 5389POPC   C1A68391  23.040  25.907   6.082
 5389POPC   D2A68392  23.111  25.578   6.404
 5389POPC   C3A68393  23.176  25.671   6.851
 5389POPC   C4A68394  23.127  26.030   7.151
 5389POPC   C1B68395  22.604  26.091   6.270
 5389POPC   C2B68396  22.801  25.956   6.651
 5389POPC   C3B68397  22.638  25.888   7.073
 5389POPC   C4B68398  22.449  26.175   7.354
 5390POPC   NC368399  27.241  39.302   5.272
 5390POPC   PO468400  26.679  39.542   5.564
 5390POPC   GL168401  26.511  39.380   5.956
 5390POPC   GL268402  26.618  39.023   6.021
 5390POPC   C1A68403  26.572  39.342   6.414
 5390POPC   D2A68404  26.900  39.332   6.713
 5390POPC   C3A68405  26.769  39.235   7.111
 5390POPC   C4A68406  26.849  39.497   7.400
 5390POPC   C1B68407  27.021  39.033   6.299
 5390POPC   C2B68408  27.350  39.095   6.599
 5390POPC   C3B68409  27.309  39.200   7.019
 5390POPC   C4B68410  27.167  38.918   7.306
 5391POPC   NC368411  17.450  14.681   5.331
 5391POPC   PO468412  17.847  14.216   5.685
 5391POPC   GL168413  17.604  14.406   5.949
 5391POPC   GL268414  17.528  14.663   5.830
 5391POPC   C1A68415  17.305  14.579   6.265
 5391POPC   D2A68416  17.364  14.602   6.698
 5391POPC   C3A68417  17.553  14.229   6.845
 5391POPC   C4A68418  17.801  14.175   7.216
 5391POPC   C1B68419  17.793  14.793   6.219
 5391POPC   C2B68420  18.057  14.730   6.605
 5391POPC   C3B68421  17.810  14.684   6.974
 5391POPC   C4B68422  17.438  14.553   7.232
 5392POPC   NC368423   3.480  17.580   5.057
 5392POPC   PO468424   3.862  17.745   5.592
 5392POPC   GL168425   3.760  17.505   5.956
 5392POPC   GL268426   3.421  17.518   5.958
 5392POPC   C1A68427   3.697  17.549   6.397
 5392POPC   D2A68428   3.407  17.708   6.688
 5392POPC   C3A68429   3.507  17.563   7.090
 5392POPC   C4A68430   3.885  17.622   7.314
 5392POPC   C1B68431   3.158  17.454   6.293
 5392POPC   C2B68432   2.903  17.662   6.583
 5392POPC   C3B68433   3.003  17.488   6.973
 5392POPC   C4B68434   3.110  17.354   7.381
 5393POPC   NC368435  15.256  16.597   5.543
 5393POPC   PO468436  14.916  17.147   5.499
 5393POPC   GL168437  15.054  16.989   5.835
 5393POPC   GL268438  15.397  16.983   5.827
 5393POPC   C1A68439  14.987  16.732   6.166
 5393POPC   D2A68440  15.117  16.572   6.522
 5393POPC   C3A68441  14.923  16.668   6.858
 5393POPC   C4A68442  14.958  16.876   7.217
 5393POPC   C1B68443  15.501  16.750   6.218
 5393POPC   C2B68444  15.621  16.606   6.658
 5393POPC   C3B68445  15.453  16.758   7.075
 5393POPC   C4B68446  15.643  17.002   7.395
 5394POPC   NC368447  19.892  36.407   5.148
 5394POPC   PO468448  20.081  35.978   5.664
 5394POPC   GL168449  19.835  36.241   5.880
 5394POPC   GL268450  19.695  36.529   5.736
 5394POPC   C1A68451  19.733  36.140   6.276
 5394POPC   D2A68452  19.870  36.279   6.652
 5394POPC   C3A68453  20.044  35.963   6.883
 5394POPC   C4A68454  19.989  36.176   7.212
 5394POPC   C1B68455  19.432  36.518   6.138
 5394POPC   C2B68456  19.364  36.396   6.573
 5394POPC   C3B68457  19.505  36.247   7.003
 5394POPC   C4B68458  19.422  36.517   7.351
 5395POPC   NC368459  14.596  44.362   5.347
 5395POPC   PO468460  14.042  44.066   5.572
 5395POPC   GL168461  14.238  43.866   5.920
 5395POPC   GL268462  14.325  43.515   5.904
 5395POPC   C1A68463  14.165  43.698   6.341
 5395POPC   D2A68464  14.389  43.730   6.722
 5395POPC   C3A68465  14.053  43.745   6.958
 5395POPC   C4A68466  14.111  44.016   7.259
 5395POPC   C1B68467  14.648  43.706   6.192
 5395POPC   C2B68468  14.881  43.585   6.566
 5395POPC   C3B68469  14.734  43.428   6.963
 5395POPC   C4B68470  14.460  43.649   7.272
 5396POPC   NC368471   8.458  41.766   5.437
 5396POPC   PO468472   7.786  41.498   5.487
 5396POPC   GL168473   8.034  41.641   5.824
 5396POPC   GL268474   8.303  41.437   5.800
 5396POPC   C1A68475   8.072  41.522   6.278
 5396POPC   D2A68476   7.831  41.437   6.663
 5396POPC   C3A68477   8.049  41.487   7.035
 5396POPC   C4A68478   7.880  41.706   7.344
 5396POPC   C1B68479   8.547  41.306   6.165
 5396POPC   C2B68480   8.597  41.548   6.554
 5396POPC   C3B68481   8.572  41.548   7.001
 5396POPC   C4B68482   8.386  41.565   7.428
 5397POPC   NC368483  23.172  14.825   5.652
 5397POPC   PO468484  22.764  14.280   5.509
 5397POPC   GL168485  22.793  14.237   5.929
 5397POPC   GL268486  22.841  14.579   5.977
 5397POPC   C1A68487  22.866  14.226   6.348
 5397POPC   D2A68488  22.683  14.139   6.704
 5397POPC   C3A68489  22.682  14.391   7.027
 5397POPC   C4A68490  22.995  14.447   7.301
 5397POPC   C1B68491  23.156  14.632   6.339
 5397POPC   C2B68492  23.189  14.535   6.811
 5397POPC   C3B68493  23.290  14.843   7.173
 5397POPC   C4B68494  23.357  15.132   7.538
 5398POPC   NC368495  42.608  14.344   5.403
 5398POPC   PO468496  41.924  14.297   5.664
 5398POPC   GL168497  42.309  14.329   5.850
 5398POPC   GL268498  42.593  14.552   5.868
 5398POPC   C1A68499  42.450  14.234   6.254
 5398POPC   D2A68500  42.459  13.931   6.561
 5398POPC   C3A68501  42.518  14.201   6.897
 5398POPC   C4A68502  42.449  14.237   7.312
 5398POPC   C1B68503  42.315  14.746   6.205
 5398POPC   C2B68504  42.294  14.603   6.631
 5398POPC   C3B68505  42.389  14.684   7.035
 5398POPC   C4B68506  42.188  14.667   7.407
 5399POPC   NC368507  28.549  34.985   5.605
 5399POPC   PO468508  28.090  35.536   5.678
 5399POPC   GL168509  28.356  35.361   5.952
 5399POPC   GL268510  28.141  35.073   5.949
 5399POPC   C1A68511  28.656  35.593   6.220
 5399POPC   D2A68512  28.748  35.762   6.622
 5399POPC   C3A68513  28.436  35.569   6.866
 5399POPC   C4A68514  28.521  35.368   7.220
 5399POPC   C1B68515  28.440  34.970   6.259
 5399POPC   C2B68516  28.273  35.111   6.624
 5399POPC   C3B68517  28.416  34.949   6.960
 5399POPC   C4B68518  28.307  34.936   7.387
 5400POPC   NC368519   1.383  43.414   5.620
 5400POPC   PO468520   0.854  43.064   5.294
 5400POPC   GL168521   0.947  43.187   5.772
 5400POPC   GL268522   1.154  42.971   5.993
 5400POPC   C1A68523   1.044  43.375   6.240
 5400POPC   D2A68524   0.922  43.058   6.524
 5400POPC   C3A68525   1.051  42.969   6.943
 5400POPC   C4A68526   1.188  43.243   7.256
 5400POPC   C1B68527   1.542  42.804   6.188
 5400POPC   C2B68528   1.409  42.820   6.570
 5400POPC   C3B68529   1.555  42.901   6.947
 5400POPC   C4B68530   1.415  42.784   7.323
 5401POPC   NC368531  17.365   6.018   5.253
 5401POPC   PO468532  17.929   5.677   5.501
 5401POPC   GL168533  17.536   5.678   5.738
 5401POPC   GL268534  17.545   6.025   5.755
 5401POPC   C1A68535  17.374   5.683   6.175
 5401POPC   D2A68536  17.422   5.592   6.621
 5401POPC   C3A68537  17.575   5.832   6.985
 5401POPC   C4A68538  17.285   5.721   7.284
 5401POPC   C1B68539  17.426   6.197   6.149
 5401POPC   C2B68540  17.380   6.089   6.561
 5401POPC   C3B68541  17.122   6.068   6.919
 5401POPC   C4B68542  17.293   6.216   7.254
 5402POPC   NC368543  17.977  14.653   5.591
 5402POPC   PO468544  18.449  14.300   5.315
 5402POPC   GL168545  18.361  14.212   5.783
 5402POPC   GL268546  18.145  14.441   6.029
 5402POPC   C1A68547  18.435  14.050   6.208
 5402POPC   D2A68548  18.447  14.307   6.576
 5402POPC   C3A68549  18.266  14.232   6.972
 5402POPC   C4A68550  18.555  14.331   7.338
 5402POPC   C1B68551  18.505  14.660   6.185
 5402POPC   C2B68552  18.646  14.770   6.607
 5402POPC   C3B68553  18.450  14.697   7.003
 5402POPC   C4B68554  18.128  14.580   7.345
 5403POPC   NC368555  35.577   6.891   5.513
 5403POPC   PO468556  35.206   6.400   5.367
 5403POPC   GL168557  35.320   6.396   5.834
 5403POPC   GL268558  35.679   6.486   5.874
 5403POPC   C1A68559  35.343   6.649   6.269
 5403POPC   D2A68560  35.192   6.927   6.632
 5403POPC   C3A68561  35.214   6.749   7.053
 5403POPC   C4A68562  35.361   6.403   7.206
 5403POPC   C1B68563  35.847   6.749   6.222
 5403POPC   C2B68564  35.706   6.954   6.563
 5403POPC   C3B68565  35.706   6.754   6.932
 5403POPC   C4B68566  35.777   6.917   7.331
 5404POPC   NC368567   9.492  11.337   5.205
 5404POPC   PO468568   9.903  10.956   5.614
 5404POPC   GL168569   9.759  11.359   5.735
 5404POPC   GL268570   9.397  11.435   5.755
 5404POPC   C1A68571   9.858  11.491   6.138
 5404POPC   D2A68572   9.912  11.169   6.455
 5404POPC   C3A68573   9.805  11.183   6.876
 5404POPC   C4A68574   9.974  11.366   7.219
 5404POPC   C1B68575   9.363  11.327   6.180
 5404POPC   C2B68576   9.527  11.489   6.564
 5404POPC   C3B68577   9.628  11.685   6.938
 5404POPC   C4B68578   9.499  11.517   7.314
 5405POPC   NC368579  16.702  14.169   5.516
 5405POPC   PO468580  17.374  14.232   5.263
 5405POPC   GL168581  17.148  14.324   5.723
 5405POPC   GL268582  16.864  14.614   5.805
 5405POPC   C1A68583  16.910  14.266   6.145
 5405POPC   D2A68584  16.852  14.526   6.516
 5405POPC   C3A68585  16.952  14.387   6.914
 5405POPC   C4A68586  16.938  14.536   7.338
 5405POPC   C1B68587  16.494  14.603   6.147
 5405POPC   C2B68588  16.422  14.785   6.597
 5405POPC   C3B68589  16.547  14.666   7.019
 5405POPC   C4B68590  16.456  14.645   7.470
 5406POPC   NC368591  42.662   9.252   5.497
 5406POPC   PO468592  42.196   8.842   5.467
 5406POPC   GL168593  42.397   9.021   5.883
 5406POPC   GL268594  42.748   8.901   5.915
 5406POPC   C1A68595  42.423   9.031   6.365
 5406POPC   D2A68596  42.292   8.765   6.740
 5406POPC   C3A68597  42.315   8.857   7.200
 5406POPC   C4A68598  42.146   9.278   7.326
 5406POPC   C1B68599  42.820   9.293   6.159
 5406POPC   C2B68600  42.851   9.381   6.605
 5406POPC   C3B68601  42.621   9.211   6.942
 5406POPC   C4B68602  42.667   9.222   7.379
 5407POPC   NC368603  32.938   1.692   5.465
 5407POPC   PO468604  33.226   2.219   5.701
 5407POPC   GL168605  32.934   1.959   5.945
 5407POPC   GL268606  33.156   1.689   5.917
 5407POPC   C1A68607  32.902   2.152   6.352
 5407POPC   D2A68608  33.064   2.016   6.717
 5407POPC   C3A68609  32.890   2.137   7.077
 5407POPC   C4A68610  32.735   1.879   7.340
 5407POPC   C1B68611  33.316   1.798   6.311
 5407POPC   C2B68612  33.415   1.575   6.694
 5407POPC   C3B68613  33.228   1.700   7.070
 5407POPC   C4B68614  33.384   2.067   7.212
 5408POPC   NC368615  15.591  38.942   5.466
 5408POPC   PO468616  14.984  39.247   5.574
 5408POPC   GL168617  15.268  39.319   5.886
 5408POPC   GL268618  15.378  38.963   5.937
 5408POPC   C1A68619  15.195  39.523   6.284
 5408POPC   D2A68620  15.296  39.325   6.670
 5408POPC   C3A68621  15.134  39.495   7.039
 5408POPC   C4A68622  15.253  39.327   7.442
 5408POPC   C1B68623  15.089  39.011   6.289
 5408POPC   C2B68624  14.888  39.019   6.696
 5408POPC   C3B68625  14.920  39.014   7.132
 5408POPC   C4B68626  15.234  38.771   7.310
 5409POPC   NC368627   4.445  44.830   5.495
 5409POPC   PO468628   4.813  44.237   5.713
 5409POPC   GL168629   4.412  44.444   5.835
 5409POPC   GL268630   4.156  44.187   5.800
 5409POPC   C1A68631   4.335  44.756   6.172
 5409POPC   D2A68632   4.476  44.609   6.562
 5409POPC   C3A68633   4.322  44.737   6.981
 5409POPC   C4A68634   4.426  44.457   7.346
 5409POPC   C1B68635   4.052  44.322   6.218
 5409POPC   C2B68636   3.975  44.523   6.620
 5409POPC   C3B68637   4.004  44.340   7.001
 5409POPC   C4B68638   3.686  44.098   7.078
 5410POPC   NC368639  27.388   9.606   5.570
 5410POPC   PO468640  27.874  10.043   5.570
 5410POPC   GL168641  27.756   9.817   5.897
 5410POPC   GL268642  27.455   9.949   5.961
 5410POPC   C1A68643  27.821   9.804   6.324
 5410POPC   D2A68644  27.625   9.784   6.707
 5410POPC   C3A68645  27.768   9.892   7.058
 5410POPC   C4A68646  27.892   9.553   7.246
 5410POPC   C1B68647  27.289   9.716   6.309
 5410POPC   C2B68648  27.181   9.558   6.721
 5410POPC   C3B68649  27.249   9.778   7.080
 5410POPC   C4B68650  27.459   9.773   7.449
 5411POPC   NC368651  32.107  25.073   5.589
 5411POPC   PO468652  32.136  24.357   5.454
 5411POPC   GL168653  32.038  24.636   5.849
 5411POPC   GL268654  32.391  24.687   5.979
 5411POPC   C1A68655  32.049  24.728   6.325
 5411POPC   D2A68656  32.351  24.565   6.616
 5411POPC   C3A68657  32.068  24.318   6.831
 5411POPC   C4A68658  31.773  24.578   7.027
 5411POPC   C1B68659  32.759  24.660   6.292
 5411POPC   C2B68660  32.783  24.892   6.695
 5411POPC   C3B68661  32.562  24.791   7.052
 5411POPC   C4B68662  32.315  24.484   7.250
 5412POPC   NC368663  14.373  33.348   5.568
 5412POPC   PO468664  14.796  32.837   5.632
 5412POPC   GL168665  14.569  33.014   5.916
 5412POPC   GL268666  14.192  32.945   5.846
 5412POPC   C1A68667  14.415  33.199   6.245
 5412POPC   D2A68668  14.292  33.120   6.630
 5412POPC   C3A68669  14.417  33.321   6.974
 5412POPC   C4A68670  14.529  33.090   7.306
 5412POPC   C1B68671  14.075  32.697   6.213
 5412POPC   C2B68672  14.020  32.701   6.670
 5412POPC   C3B68673  14.016  32.999   7.068
 5412POPC   C4B68674  13.746  33.080   7.470
 5413POPC   NC368675  10.045   7.743   5.352
 5413POPC   PO468676   9.587   7.240   5.209
 5413POPC   GL168677   9.730   7.418   5.625
 5413POPC   GL268678   9.962   7.203   5.808
 5413POPC   C1A68679   9.774   7.636   6.046
 5413POPC   D2A68680   9.659   7.624   6.499
 5413POPC   C3A68681   9.974   7.499   6.827
 5413POPC   C4A68682   9.726   7.420   7.173
 5413POPC   C1B68683   9.706   7.141   6.211
 5413POPC   C2B68684   9.701   7.109   6.671
 5413POPC   C3B68685   9.951   6.989   7.044
 5413POPC   C4B68686   9.954   7.082   7.482
 5414POPC   NC368687  10.110  33.613   5.400
 5414POPC   PO468688   9.484  33.574   5.187
 5414POPC   GL168689   9.588  33.740   5.626
 5414POPC   GL268690   9.475  34.090   5.737
 5414POPC   C1A68691   9.676  33.705   6.092
 5414POPC   D2A68692   9.909  33.917   6.430
 5414POPC   C3A68693   9.866  33.829   6.860
 5414POPC   C4A68694   9.532  33.666   7.144
 5414POPC   C1B68695   9.601  34.224   6.183
 5414POPC   C2B68696   9.643  34.316   6.656
 5414POPC   C3B68697   9.552  34.162   7.088
 5414POPC   C4B68698   9.707  34.198   7.520
 5415POPC   NC368699   2.317  15.403   5.584
 5415POPC   PO468700   2.688  14.985   5.175
 5415POPC   GL168701   2.759  14.927   5.685
 5415POPC   GL268702   2.759  15.251   5.842
 5415POPC   C1A68703   2.916  14.870   6.130
 5415POPC   D2A68704   2.976  15.186   6.475
 5415POPC   C3A68705   2.951  15.079   6.906
 5415POPC   C4A68706   2.876  14.789   7.228
 5415POPC   C1B68707   2.520  15.202   6.216
 5415POPC   C2B68708   2.519  15.410   6.616
 5415POPC   C3B68709   2.639  15.457   7.034
 5415POPC   C4B68710   2.422  15.326   7.364
 5416POPC   NC368711  40.477   1.879   5.272
 5416POPC   PO468712  40.960   2.356   5.336
 5416POPC   GL168713  40.673   2.198   5.686
 5416POPC   GL268714  40.723   1.841   5.736
 5416POPC   C1A68715  40.480   2.134   6.128
 5416POPC   D2A68716  40.675   2.079   6.552
 5416POPC   C3A68717  40.456   2.157   6.947
 5416POPC   C4A68718  40.658   2.125   7.338
 5416POPC   C1B68719  40.849   1.774   6.156
 5416POPC   C2B68720  40.904   1.621   6.579
 5416POPC   C3B68721  40.887   1.824   6.971
 5416POPC   C4B68722  41.012   1.671   7.325
 5417POPC   NC368723   9.130   0.922   5.371
 5417POPC   PO468724   8.730   1.461   5.368
 5417POPC   GL168725   8.914   1.284   5.740
 5417POPC   GL268726   8.675   1.371   5.978
 5417POPC   C1A68727   9.137   1.269   6.162
 5417POPC   D2A68728   9.022   1.116   6.578
 5417POPC   C3A68729   9.292   1.066   6.892
 5417POPC   C4A68730   9.156   1.103   7.292
 5417POPC   C1B68731   8.650   0.975   6.254
 5417POPC   C2B68732   8.557   0.893   6.691
 5417POPC   C3B68733   8.706   1.099   7.040
 5417POPC   C4B68734   8.455   1.132   7.391
 5418POPC   NC368735  15.668  21.582   5.520
 5418POPC   PO468736  16.154  21.149   5.332
 5418POPC   GL168737  16.006  21.248   5.765
 5418POPC   GL268738  16.020  21.572   5.899
 5418POPC   C1A68739  15.866  21.206   6.219
 5418POPC   D2A68740  16.026  21.370   6.619
 5418POPC   C3A68741  15.799  21.317   6.987
 5418POPC   C4A68742  15.662  21.140   7.330
 5418POPC   C1B68743  15.795  21.712   6.282
 5418POPC   C2B68744  15.971  21.873   6.672
 5418POPC   C3B68745  16.010  21.754   7.137
 5418POPC   C4B68746  16.031  21.758   7.605
 5419POPC   NC368747  10.689  30.047   5.474
 5419POPC   PO468748  10.083  29.843   5.629
 5419POPC   GL168749  10.433  29.902   5.902
 5419POPC   GL268750  10.718  29.671   5.872
 5419POPC   C1A68751  10.548  29.975   6.312
 5419POPC   D2A68752  10.542  29.883   6.766
 5419POPC   C3A68753  10.586  30.096   7.174
 5419POPC   C4A68754  10.434  30.120   7.603
 5419POPC   C1B68755  10.914  29.451   6.242
 5419POPC   C2B68756  10.958  29.578   6.684
 5419POPC   C3B68757  10.835  29.626   7.136
 5419POPC   C4B68758  10.920  29.893   7.527
 5420POPC   NC368759  30.369  35.575   5.040
 5420POPC   PO468760  29.948  35.364   5.416
 5420POPC   GL168761  29.808  35.459   5.819
 5420POPC   GL268762  30.006  35.203   5.946
 5420POPC   C1A68763  30.009  35.696   6.152
 5420POPC   D2A68764  30.298  35.551   6.481
 5420POPC   C3A68765  30.221  35.668   6.910
 5420POPC   C4A68766  29.930  35.507   7.179
 5420POPC   C1B68767  30.198  34.884   6.206
 5420POPC   C2B68768  30.137  34.892   6.668
 5420POPC   C3B68769  29.858  35.000   7.033
 5420POPC   C4B68770  29.905  35.125   7.496
 5421POPC   NC368771   9.629   0.406   5.318
 5421POPC   PO468772   9.993  44.750   5.487
 5421POPC   GL168773   9.723  44.808   5.828
 5421POPC   GL268774   9.667  44.449   5.833
 5421POPC   C1A68775   9.702  44.967   6.263
 5421POPC   D2A68776   9.805  44.892   6.686
 5421POPC   C3A68777   9.535  44.777   7.031
 5421POPC   C4A68778   9.504  44.374   7.207
 5421POPC   C1B68779   9.991  44.521   6.183
 5421POPC   C2B68780  10.184  44.541   6.609
 5421POPC   C3B68781  10.029  44.588   7.042
 5421POPC   C4B68782  10.066  44.294   7.364
 5422POPC   NC368783  25.627  31.021   5.734
 5422POPC   PO468784  26.334  31.146   5.664
 5422POPC   GL168785  25.987  31.323   5.915
 5422POPC   GL268786  25.835  31.683   5.894
 5422POPC   C1A68787  25.957  31.368   6.350
 5422POPC   D2A68788  26.036  31.736   6.594
 5422POPC   C3A68789  26.141  31.671   7.025
 5422POPC   C4A68790  26.176  31.621   7.485
 5422POPC   C1B68791  25.572  31.715   6.278
 5422POPC   C2B68792  25.544  31.789   6.729
 5422POPC   C3B68793  25.675  31.856   7.143
 5422POPC   C4B68794  25.704  31.814   7.614
 5423POPC   NC368795  33.327   5.854   5.477
 5423POPC   PO468796  34.030   5.939   5.515
 5423POPC   GL168797  33.819   5.688   5.841
 5423POPC   GL268798  33.488   5.677   5.939
 5423POPC   C1A68799  33.949   5.677   6.235
 5423POPC   D2A68800  33.870   5.829   6.596
 5423POPC   C3A68801  34.119   5.695   6.926
 5423POPC   C4A68802  33.832   5.664   7.206
 5423POPC   C1B68803  33.523   6.021   6.249
 5423POPC   C2B68804  33.461   6.206   6.647
 5423POPC   C3B68805  33.448   6.031   7.072
 5423POPC   C4B68806  33.450   6.323   7.390
 5424POPC   NC368807   4.958  35.768   5.331
 5424POPC   PO468808   4.878  35.055   5.477
 5424POPC   GL168809   5.038  35.216   5.825
 5424POPC   GL268810   4.866  35.538   5.807
 5424POPC   C1A68811   4.899  35.205   6.245
 5424POPC   D2A68812   5.059  35.134   6.636
 5424POPC   C3A68813   4.840  35.143   7.031
 5424POPC   C4A68814   5.113  35.206   7.382
 5424POPC   C1B68815   4.883  35.732   6.242
 5424POPC   C2B68816   4.880  35.656   6.674
 5424POPC   C3B68817   5.112  35.593   7.043
 5424POPC   C4B68818   4.847  35.658   7.388
 5425POPC   NC368819   1.266  33.848   5.379
 5425POPC   PO468820   1.121  33.414   5.879
 5425POPC   GL168821   1.301  33.830   5.935
 5425POPC   GL268822   1.075  34.087   5.790
 5425POPC   C1A68823   1.318  33.870   6.394
 5425POPC   D2A68824   1.096  33.567   6.676
 5425POPC   C3A68825   1.331  33.495   7.028
 5425POPC   C4A68826   1.541  33.874   6.997
 5425POPC   C1B68827   0.855  33.998   6.187
 5425POPC   C2B68828   0.847  34.027   6.636
 5425POPC   C3B68829   1.033  33.951   7.030
 5425POPC   C4B68830   0.819  33.906   7.387
 5426POPC   NC368831  19.857  24.436   5.202
 5426POPC   PO468832  19.901  25.072   5.331
 5426POPC   GL168833  19.801  24.684   5.714
 5426POPC   GL268834  19.793  24.314   5.745
 5426POPC   C1A68835  20.072  24.521   6.120
 5426POPC   D2A68836  19.923  24.664   6.525
 5426POPC   C3A68837  20.139  24.657   6.920
 5426POPC   C4A68838  20.059  24.454   7.293
 5426POPC   C1B68839  19.589  24.416   6.196
 5426POPC   C2B68840  19.505  24.407   6.684
 5426POPC   C3B68841  19.571  24.343   7.166
 5426POPC   C4B68842  19.476  24.183   7.630
 5427POPC   NC368843   5.941  34.117   5.644
 5427POPC   PO468844   5.815  34.739   5.322
 5427POPC   GL168845   6.008  34.641   5.726
 5427POPC   GL268846   5.653  34.598   5.836
 5427POPC   C1A68847   6.057  34.531   6.173
 5427POPC   D2A68848   5.988  34.617   6.603
 5427POPC   C3A68849   6.156  34.384   6.952
 5427POPC   C4A68850   6.017  34.618   7.317
 5427POPC   C1B68851   5.521  34.368   6.202
 5427POPC   C2B68852   5.617  34.226   6.607
 5427POPC   C3B68853   5.657  34.429   6.999
 5427POPC   C4B68854   5.582  34.231   7.404
 5428POPC   NC368855   5.019  23.239   5.186
 5428POPC   PO468856   4.954  22.717   5.663
 5428POPC   GL168857   5.150  22.978   5.931
 5428POPC   GL268858   5.319  23.243   5.748
 5428POPC   C1A68859   5.248  22.860   6.360
 5428POPC   D2A68860   5.390  22.767   6.770
 5428POPC   C3A68861   5.037  22.644   7.057
 5428POPC   C4A68862   4.834  22.754   7.456
 5428POPC   C1B68863   5.283  23.369   6.228
 5428POPC   C2B68864   5.209  23.260   6.697
 5428POPC   C3B68865   5.214  23.101   7.164
 5428POPC   C4B68866   4.994  23.239   7.509
 5429POPC   NC368867   4.040  39.945   5.484
 5429POPC   PO468868   4.557  40.345   5.279
 5429POPC   GL168869   4.442  40.143   5.747
 5429POPC   GL268870   4.303  39.768   5.878
 5429POPC   C1A68871   4.229  40.170   6.182
 5429POPC   D2A68872   4.247  40.320   6.621
 5429POPC   C3A68873   4.244  39.995   6.967
 5429POPC   C4A68874   4.064  39.734   7.332
 5429POPC   C1B68875   4.284  39.615   6.335
 5429POPC   C2B68876   4.380  39.516   6.791
 5429POPC   C3B68877   4.548  39.648   7.213
 5429POPC   C4B68878   4.550  39.732   7.657
 5430POPC   NC368879  44.089  41.112   5.564
 5430POPC   PO468880  44.006  40.434   5.326
 5430POPC   GL168881  44.039  40.619   5.750
 5430POPC   GL268882  43.737  40.831   5.822
 5430POPC   C1A68883  44.011  40.640   6.214
 5430POPC   D2A68884  43.841  40.481   6.610
 5430POPC   C3A68885  44.046  40.605   6.984
 5430POPC   C4A68886  44.163  41.012   7.069
 5430POPC   C1B68887  43.596  40.973   6.237
 5430POPC   C2B68888  43.796  40.992   6.656
 5430POPC   C3B68889  43.635  40.942   7.081
 5430POPC   C4B68890  43.631  41.225   7.472
 5431POPC   NC368891  37.067  34.684   5.404
 5431POPC   PO468892  37.094  34.039   5.448
 5431POPC   GL168893  36.917  34.300   5.827
 5431POPC   GL268894  36.934  34.662   5.892
 5431POPC   C1A68895  36.913  34.381   6.328
 5431POPC   D2A68896  36.877  34.643   6.739
 5431POPC   C3A68897  36.756  34.467   7.160
 5431POPC   C4A68898  36.748  34.366   7.615
 5431POPC   C1B68899  37.266  34.741   6.218
 5431POPC   C2B68900  37.354  34.814   6.663
 5431POPC   C3B68901  37.255  34.722   7.095
 5431POPC   C4B68902  37.104  34.754   7.517
 5432POPC   NC368903  24.598   9.989   5.487
 5432POPC   PO468904  24.893   9.372   5.561
 5432POPC   GL168905  24.560   9.553   5.827
 5432POPC   GL268906  24.277   9.315   5.852
 5432POPC   C1A68907  24.477   9.739   6.239
 5432POPC   D2A68908  24.303  10.044   6.527
 5432POPC   C3A68909  24.315   9.866   6.891
 5432POPC   C4A68910  24.411   9.914   7.310
 5432POPC   C1B68911  24.442   9.228   6.248
 5432POPC   C2B68912  24.464   9.370   6.664
 5432POPC   C3B68913  24.503   9.442   7.090
 5432POPC   C4B68914  24.213   9.460   7.395
 5433POPC   NC368915  13.958  43.596   5.504
 5433POPC   PO468916  13.383  43.921   5.316
 5433POPC   GL168917  13.432  43.745   5.808
 5433POPC   GL268918  13.755  43.709   5.963
 5433POPC   C1A68919  13.381  43.849   6.322
 5433POPC   D2A68920  13.607  44.032   6.741
 5433POPC   C3A68921  13.594  43.857   7.182
 5433POPC   C4A68922  13.451  43.754   7.629
 5433POPC   C1B68923  13.842  44.081   6.229
 5433POPC   C2B68924  14.101  44.152   6.580
 5433POPC   C3B68925  14.020  44.346   6.907
 5433POPC   C4B68926  13.714  44.343   7.194
 5434POPC   NC368927   5.473   2.366   5.123
 5434POPC   PO468928   5.277   2.990   5.371
 5434POPC   GL168929   5.198   2.856   5.789
 5434POPC   GL268930   4.843   2.902   5.785
 5434POPC   C1A68931   5.356   2.642   6.221
 5434POPC   D2A68932   5.599   2.499   6.588
 5434POPC   C3A68933   5.380   2.524   6.965
 5434POPC   C4A68934   5.010   2.267   6.942
 5434POPC   C1B68935   5.009   3.019   6.220
 5434POPC   C2B68936   5.111   2.808   6.635
 5434POPC   C3B68937   5.036   2.921   7.062
 5434POPC   C4B68938   5.118   3.164   7.425
 5435POPC   NC368939  31.293  22.448   5.572
 5435POPC   PO468940  31.631  22.971   5.288
 5435POPC   GL168941  31.397  22.921   5.759
 5435POPC   GL268942  31.372  22.681   6.021
 5435POPC   C1A68943  31.342  23.133   6.196
 5435POPC   D2A68944  31.426  22.919   6.581
 5435POPC   C3A68945  31.198  22.921   6.979
 5435POPC   C4A68946  31.056  23.277   7.212
 5435POPC   C1B68947  31.644  22.500   6.338
 5435POPC   C2B68948  31.558  22.431   6.740
 5435POPC   C3B68949  31.586  22.549   7.139
 5435POPC   C4B68950  31.840  22.813   7.359
 5436POPC   NC368951  16.722  30.310   5.420
 5436POPC   PO468952  16.477  29.710   5.373
 5436POPC   GL168953  16.674  29.829   5.788
 5436POPC   GL268954  16.647  29.511   5.981
 5436POPC   C1A68955  16.857  30.120   6.158
 5436POPC   D2A68956  17.097  30.159   6.590
 5436POPC   C3A68957  16.950  30.187   7.017
 5436POPC   C4A68958  16.533  30.024   7.163
 5436POPC   C1B68959  16.848  29.651   6.352
 5436POPC   C2B68960  16.828  29.751   6.794
 5436POPC   C3B68961  16.693  29.528   7.175
 5436POPC   C4B68962  16.520  29.655   7.585
 5437POPC   NC368963  18.249  28.671   5.383
 5437POPC   PO468964  18.188  29.404   5.423
 5437POPC   GL168965  18.189  29.347   5.833
 5437POPC   GL268966  18.349  29.022   5.871
 5437POPC   C1A68967  18.397  29.490   6.184
 5437POPC   D2A68968  18.184  29.561   6.564
 5437POPC   C3A68969  18.401  29.436   6.945
 5437POPC   C4A68970  18.602  29.712   7.264
 5437POPC   C1B68971  18.183  29.049   6.322
 5437POPC   C2B68972  18.075  28.898   6.755
 5437POPC   C3B68973  18.128  28.995   7.206
 5437POPC   C4B68974  18.120  29.114   7.675
 5438POPC   NC368975   8.198  12.108   5.474
 5438POPC   PO468976   8.847  12.252   5.244
 5438POPC   GL168977   8.714  12.081   5.668
 5438POPC   GL268978   8.684  12.348   5.924
 5438POPC   C1A68979   8.525  11.858   6.046
 5438POPC   D2A68980   8.446  11.718   6.495
 5438POPC   C3A68981   8.122  11.719   6.824
 5438POPC   C4A68982   8.140  12.048   7.122
 5438POPC   C1B68983   8.278  12.299   6.144
 5438POPC   C2B68984   8.138  12.176   6.546
 5438POPC   C3B68985   8.283  12.436   6.856
 5438POPC   C4B68986   7.942  12.531   7.109
 5439POPC   NC368987   4.553  35.386   5.378
 5439POPC   PO468988   4.246  34.843   5.186
 5439POPC   GL168989   4.267  35.115   5.665
 5439POPC   GL268990   4.171  35.472   5.709
 5439POPC   C1A68991   4.419  35.107   6.100
 5439POPC   D2A68992   4.460  35.436   6.425
 5439POPC   C3A68993   4.405  35.380   6.871
 5439POPC   C4A68994   4.358  35.581   7.274
 5439POPC   C1B68995   3.984  35.644   6.088
 5439POPC   C2B68996   3.958  35.544   6.536
 5439POPC   C3B68997   3.961  35.711   6.948
 5439POPC   C4B68998   3.842  35.603   7.337
 5440POPC   NC368999  20.853   4.403   5.197
 5440POPC   PO469000  21.539   4.390   5.422
 5440POPC   GL169001  21.600   4.520   5.851
 5440POPC   GL269002  21.353   4.300   5.964
 5440POPC   C1A69003  21.642   4.520   6.335
 5440POPC   D2A69004  21.607   4.791   6.722
 5440POPC   C3A69005  21.318   4.594   7.009
 5440POPC   C4A69006  21.461   4.220   7.144
 5440POPC   C1B69007  21.141   4.458   6.321
 5440POPC   C2B69008  21.224   4.180   6.674
 5440POPC   C3B69009  21.058   3.940   7.021
 5440POPC   C4B69010  20.948   4.268   7.274
 5441POPC   NC369011   3.843  33.581   5.556
 5441POPC   PO469012   3.388  34.055   5.617
 5441POPC   GL169013   3.641  33.919   5.928
 5441POPC   GL269014   3.627  33.573   6.013
 5441POPC   C1A69015   3.534  33.973   6.344
 5441POPC   D2A69016   3.280  33.845   6.679
 5441POPC   C3A69017   3.605  33.823   6.950
 5441POPC   C4A69018   3.665  33.854   7.362
 5441POPC   C1B69019   3.304  33.494   6.278
 5441POPC   C2B69020   3.189  33.290   6.644
 5441POPC   C3B69021   3.125  33.164   7.039
 5441POPC   C4B69022   3.321  33.511   7.240
 5442POPC   NC369023  17.276  24.615   5.611
 5442POPC   PO469024  16.645  24.356   5.531
 5442POPC   GL169025  16.787  24.410   5.913
 5442POPC   GL269026  17.073  24.213   5.838
 5442POPC   C1A69027  16.636  24.560   6.314
 5442POPC   D2A69028  16.417  24.624   6.711
 5442POPC   C3A69029  16.607  24.646   7.132
 5442POPC   C4A69030  16.490  24.593   7.579
 5442POPC   C1B69031  17.164  24.326   6.261
 5442POPC   C2B69032  17.133  24.425   6.692
 5442POPC   C3B69033  17.089  24.159   7.036
 5442POPC   C4B69034  16.856  24.268   7.390
 5443POPC   NC369035  33.819  36.680   5.431
 5443POPC   PO469036  33.391  37.142   5.421
 5443POPC   GL169037  33.585  36.995   5.804
 5443POPC   GL269038  33.625  36.634   5.904
 5443POPC   C1A69039  33.886  36.978   6.146
 5443POPC   D2A69040  33.957  36.733   6.511
 5443POPC   C3A69041  33.879  36.911   6.886
 5443POPC   C4A69042  33.744  37.049   7.252
 5443POPC   C1B69043  33.534  36.481   6.336
 5443POPC   C2B69044  33.629  36.473   6.806
 5443POPC   C3B69045  33.822  36.487   7.208
 5443POPC   C4B69046  33.803  36.341   7.634
 5444POPC   NC369047  41.203  37.193   5.750
 5444POPC   PO469048  40.894  36.612   5.479
 5444POPC   GL169049  40.889  36.792   5.885
 5444POPC   GL269050  41.212  36.761   6.005
 5444POPC   C1A69051  40.805  37.092   6.267
 5444POPC   D2A69052  40.491  37.192   6.600
 5444POPC   C3A69053  40.664  37.053   6.962
 5444POPC   C4A69054  40.996  37.101   7.257
 5444POPC   C1B69055  41.018  36.623   6.348
 5444POPC   C2B69056  40.988  36.478   6.728
 5444POPC   C3B69057  40.897  36.607   7.108
 5444POPC   C4B69058  40.816  36.690   7.524
 5445POPC   NC369059  30.291   1.173   5.568
 5445POPC   PO469060  30.939   1.002   5.401
 5445POPC   GL169061  31.001   1.001   5.818
 5445POPC   GL269062  30.725   1.258   5.900
 5445POPC   C1A69063  31.091   1.088   6.231
 5445POPC   D2A69064  30.935   1.400   6.486
 5445POPC   C3A69065  30.855   1.240   6.840
 5445POPC   C4A69066  30.657   1.411   7.175
 5445POPC   C1B69067  30.475   1.301   6.292
 5445POPC   C2B69068  30.316   1.023   6.610
 5445POPC   C3B69069  30.477   0.953   7.008
 5445POPC   C4B69070  30.504   1.029   7.452
 5446POPC   NC369071  40.921   0.784   5.301
 5446POPC   PO469072  40.540   1.406   5.240
 5446POPC   GL169073  40.643   1.312   5.711
 5446POPC   GL269074  40.319   1.195   5.802
 5446POPC   C1A69075  40.782   1.265   6.187
 5446POPC   D2A69076  40.889   1.098   6.639
 5446POPC   C3A69077  40.801   1.292   7.027
 5446POPC   C4A69078  40.941   1.189   7.451
 5446POPC   C1B69079  40.308   1.087   6.211
 5446POPC   C2B69080  40.380   1.179   6.630
 5446POPC   C3B69081  40.529   0.863   6.923
 5446POPC   C4B69082  40.475   0.972   7.354
 5447POPC   NC369083  44.784  26.584   5.437
 5447POPC   PO469084  44.345  27.030   5.552
 5447POPC   GL169085  44.536  26.964   5.957
 5447POPC   GL269086  44.833  26.765   5.898
 5447POPC   C1A69087  44.588  26.734   6.375
 5447POPC   D2A69088  44.609  26.578   6.811
 5447POPC   C3A69089  44.343  26.868   7.056
 5447POPC   C4A69090  44.512  27.184   7.344
 5447POPC   C1B69091   0.005  26.980   6.228
 5447POPC   C2B69092   0.059  26.895   6.674
 5447POPC   C3B69093  44.860  26.922   7.088
 5447POPC   C4B69094  44.994  26.928   7.527
 5448POPC   NC369095  21.470  14.575   5.069
 5448POPC   PO469096  21.127  14.316   5.543
 5448POPC   GL169097  21.289  14.515   5.907
 5448POPC   GL269098  21.557  14.329   5.930
 5448POPC   C1A69099  21.282  14.499   6.356
 5448POPC   D2A69100  21.247  14.643   6.752
 5448POPC   C3A69101  21.081  14.357   7.025
 5448POPC   C4A69102  21.360  14.348   7.312
 5448POPC   C1B69103  21.699  14.718   6.175
 5448POPC   C2B69104  21.741  14.783   6.664
 5448POPC   C3B69105  21.800  14.640   7.143
 5448POPC   C4B69106  22.039  14.699   7.567
 5449POPC   NC369107  29.592  34.106   5.481
 5449POPC   PO469108  29.386  34.778   5.467
 5449POPC   GL169109  29.268  34.465   5.838
 5449POPC   GL269110  29.477  34.415   6.134
 5449POPC   C1A69111  28.969  34.361   6.220
 5449POPC   D2A69112  28.975  34.532   6.657
 5449POPC   C3A69113  29.061  34.286   7.025
 5449POPC   C4A69114  29.122  34.494   7.455
 5449POPC   C1B69115  29.230  34.797   6.267
 5449POPC   C2B69116  29.312  35.077   6.635
 5449POPC   C3B69117  29.161  34.913   6.998
 5449POPC   C4B69118  28.801  34.802   7.233
 5450POPC   NC369119  28.990  10.083   5.446
 5450POPC   PO469120  29.313   9.495   5.515
 5450POPC   GL169121  29.165   9.766   5.835
 5450POPC   GL269122  29.305  10.125   5.856
 5450POPC   C1A69123  29.018   9.573   6.212
 5450POPC   D2A69124  29.205   9.701   6.564
 5450POPC   C3A69125  28.986   9.758   6.953
 5450POPC   C4A69126  29.044   9.419   7.220
 5450POPC   C1B69127  29.589   9.977   6.188
 5450POPC   C2B69128  29.696   9.834   6.615
 5450POPC   C3B69129  29.492   9.680   7.001
 5450POPC   C4B69130  29.589   9.794   7.455
 5451POPC   NC369131  27.176  21.253   5.422
 5451POPC   PO469132  27.797  21.139   5.215
 5451POPC   GL169133  27.623  21.312   5.689
 5451POPC   GL269134  27.757  21.658   5.826
 5451POPC   C1A69135  27.563  21.328   6.166
 5451POPC   D2A69136  27.538  21.120   6.585
 5451POPC   C3A69137  27.497  21.238   7.009
 5451POPC   C4A69138  27.342  21.628   7.156
 5451POPC   C1B69139  27.937  21.679   6.228
 5451POPC   C2B69140  27.734  21.590   6.597
 5451POPC   C3B69141  27.834  21.625   6.979
 5451POPC   C4B69142  28.084  21.453   7.218
 5452POPC   NC369143  10.364  34.273   5.398
 5452POPC   PO469144  10.695  34.815   5.309
 5452POPC   GL169145  10.414  34.757   5.684
 5452POPC   GL269146  10.531  34.446   5.863
 5452POPC   C1A69147  10.362  34.844   6.163
 5452POPC   D2A69148  10.587  34.786   6.600
 5452POPC   C3A69149  10.389  34.693   7.011
 5452POPC   C4A69150  10.229  34.889   7.407
 5452POPC   C1B69151  10.458  34.346   6.320
 5452POPC   C2B69152  10.665  34.287   6.728
 5452POPC   C3B69153  10.879  34.488   7.065
 5452POPC   C4B69154  10.672  34.638   7.451
 5453POPC   NC369155   7.598  33.703   5.249
 5453POPC   PO469156   6.951  33.377   5.360
 5453POPC   GL169157   7.170  33.570   5.780
 5453POPC   GL269158   7.532  33.709   5.798
 5453POPC   C1A69159   7.226  33.696   6.257
 5453POPC   D2A69160   7.086  33.619   6.722
 5453POPC   C3A69161   7.285  33.883   7.084
 5453POPC   C4A69162   7.337  33.773   7.582
 5453POPC   C1B69163   7.696  33.461   6.180
 5453POPC   C2B69164   7.595  33.602   6.611
 5453POPC   C3B69165   7.518  33.346   6.975
 5453POPC   C4B69166   7.824  33.188   7.268
 5454POPC   NC369167  15.614  35.641   5.455
 5454POPC   PO469168  16.113  35.055   5.573
 5454POPC   GL169169  15.971  35.117   5.961
 5454POPC   GL269170  15.814  35.433   5.894
 5454POPC   C1A69171  16.155  35.191   6.372
 5454POPC   D2A69172  16.187  35.560   6.643
 5454POPC   C3A69173  15.954  35.576   7.020
 5454POPC   C4A69174  15.829  35.224   7.258
 5454POPC   C1B69175  15.792  35.569   6.316
 5454POPC   C2B69176  15.715  35.301   6.681
 5454POPC   C3B69177  15.426  35.414   7.023
 5454POPC   C4B69178  15.360  35.429   7.484
 5455POPC   NC369179   9.428  28.568   5.557
 5455POPC   PO469180   9.970  28.261   5.301
 5455POPC   GL169181   9.862  28.292   5.734
 5455POPC   GL269182  10.001  27.951   5.761
 5455POPC   C1A69183   9.719  28.495   6.159
 5455POPC   D2A69184   9.738  28.619   6.611
 5455POPC   C3A69185   9.612  28.408   7.022
 5455POPC   C4A69186   9.833  28.523   7.399
 5455POPC   C1B69187  10.093  28.127   6.164
 5455POPC   C2B69188  10.137  27.952   6.562
 5455POPC   C3B69189  10.005  28.091   6.965
 5455POPC   C4B69190  10.234  28.223   7.320
 5456POPC   NC369191   3.430  44.807   5.585
 5456POPC   PO469192   3.992  44.631   5.460
 5456POPC   GL169193   3.903  44.653   5.862
 5456POPC   GL269194   3.598  44.486   5.934
 5456POPC   C1A69195   3.805  44.834   6.254
 5456POPC   D2A69196   3.410  44.812   6.476
 5456POPC   C3A69197   3.399  44.641   6.895
 5456POPC   C4A69198   3.694  44.696   7.232
 5456POPC   C1B69199   3.551  44.333   6.322
 5456POPC   C2B69200   3.321  44.054   6.552
 5456POPC   C3B69201   3.180  44.172   6.933
 5456POPC   C4B69202   3.343  44.344   7.346
 5457POPC   NC369203   6.318  13.297   5.507
 5457POPC   PO469204   5.956  12.978   5.035
 5457POPC   GL169205   5.937  12.997   5.604
 5457POPC   GL269206   5.870  12.694   5.826
 5457POPC   C1A69207   6.063  13.083   6.107
 5457POPC   D2A69208   5.927  13.067   6.555
 5457POPC   C3A69209   6.027  12.681   6.790
 5457POPC   C4A69210   6.102  12.719   7.227
 5457POPC   C1B69211   5.615  12.847   6.214
 5457POPC   C2B69212   5.533  12.724   6.654
 5457POPC   C3B69213   5.449  12.561   7.086
 5457POPC   C4B69214   5.504  12.706   7.529
 5458POPC   NC369215  11.762  40.023   5.414
 5458POPC   PO469216  12.176  39.541   5.613
 5458POPC   GL169217  11.922  39.837   5.883
 5458POPC   GL269218  11.982  40.224   5.845
 5458POPC   C1A69219  11.985  40.000   6.307
 5458POPC   D2A69220  12.301  40.070   6.620
 5458POPC   C3A69221  12.125  39.940   7.000
 5458POPC   C4A69222  12.171  39.588   7.234
 5458POPC   C1B69223  12.297  40.376   6.198
 5458POPC   C2B69224  12.240  40.577   6.636
 5458POPC   C3B69225  12.366  40.381   7.064
 5458POPC   C4B69226  12.368  40.372   7.539
 5459POPC   NC369227  35.346  38.612   5.201
 5459POPC   PO469228  35.335  39.335   5.318
 5459POPC   GL169229  35.402  39.111   5.792
 5459POPC   GL269230  35.544  39.363   5.982
 5459POPC   C1A69231  35.243  39.030   6.226
 5459POPC   D2A69232  34.956  39.332   6.445
 5459POPC   C3A69233  35.113  39.348   6.878
 5459POPC   C4A69234  35.381  39.033   7.115
 5459POPC   C1B69235  35.444  39.554   6.391
 5459POPC   C2B69236  35.628  39.513   6.822
 5459POPC   C3B69237  35.445  39.577   7.232
 5459POPC   C4B69238  35.618  39.600   7.691
 5460POPC   NC369239  37.108  29.507   5.693
 5460POPC   PO469240  36.698  30.038   5.809
 5460POPC   GL169241  37.127  30.125   5.985
 5460POPC   GL269242  37.113  29.762   6.112
 5460POPC   C1A69243  37.202  30.115   6.437
 5460POPC   D2A69244  37.018  29.781   6.627
 5460POPC   C3A69245  36.752  29.955   6.951
 5460POPC   C4A69246  36.817  30.215   7.328
 5460POPC   C1B69247  37.310  29.408   6.343
 5460POPC   C2B69248  37.206  29.312   6.764
 5460POPC   C3B69249  37.027  29.545   7.070
 5460POPC   C4B69250  36.917  29.704   7.433
 5461POPC   NC369251  15.737  41.153   5.008
 5461POPC   PO469252  15.860  41.666   5.350
 5461POPC   GL169253  15.975  41.660   5.810
 5461POPC   GL269254  15.790  41.413   5.916
 5461POPC   C1A69255  16.160  41.539   6.230
 5461POPC   D2A69256  16.215  41.657   6.671
 5461POPC   C3A69257  16.134  41.426   7.029
 5461POPC   C4A69258  15.919  41.577   7.352
 5461POPC   C1B69259  15.567  41.755   6.107
 5461POPC   C2B69260  15.705  41.889   6.494
 5461POPC   C3B69261  15.735  41.774   6.915
 5461POPC   C4B69262  15.466  41.786   7.293
 5462POPC   NC369263  42.228  16.464   5.172
 5462POPC   PO469264  42.252  15.867   5.506
 5462POPC   GL169265  42.268  16.136   5.842
 5462POPC   GL269266  42.069  15.921   6.024
 5462POPC   C1A69267  42.459  16.202   6.257
 5462POPC   D2A69268  42.726  15.980   6.566
 5462POPC   C3A69269  42.657  16.003   7.013
 5462POPC   C4A69270  42.466  16.059   7.391
 5462POPC   C1B69271  42.285  15.741   6.356
 5462POPC   C2B69272  42.263  15.746   6.796
 5462POPC   C3B69273  42.336  15.616   7.197
 5462POPC   C4B69274  42.487  15.493   7.608
 5463POPC   NC369275   7.115  28.120   5.464
 5463POPC   PO469276   7.584  27.498   5.480
 5463POPC   GL169277   7.582  27.553   5.900
 5463POPC   GL269278   7.539  27.901   5.920
 5463POPC   C1A69279   7.367  27.447   6.267
 5463POPC   D2A69280   7.522  27.221   6.611
 5463POPC   C3A69281   7.686  27.357   7.009
 5463POPC   C4A69282   7.497  27.445   7.377
 5463POPC   C1B69283   7.453  27.980   6.341
 5463POPC   C2B69284   7.452  27.724   6.691
 5463POPC   C3B69285   7.209  27.556   6.963
 5463POPC   C4B69286   7.184  27.828   7.272
 5464POPC   NC369287  39.552  27.457   5.432
 5464POPC   PO469288  38.946  27.555   5.410
 5464POPC   GL169289  39.026  27.440   5.820
 5464POPC   GL269290  39.376  27.461   5.900
 5464POPC   C1A69291  39.010  27.377   6.247
 5464POPC   D2A69292  39.204  27.485   6.630
 5464POPC   C3A69293  38.998  27.507   7.045
 5464POPC   C4A69294  39.132  27.654   7.434
 5464POPC   C1B69295  39.593  27.629   6.244
 5464POPC   C2B69296  39.723  27.539   6.655
 5464POPC   C3B69297  39.512  27.567   7.032
 5464POPC   C4B69298  39.664  27.672   7.386
 5465POPC   NC369299  34.701  26.781   5.136
 5465POPC   PO469300  34.192  27.148   5.419
 5465POPC   GL169301  34.463  27.008   5.738
 5465POPC   GL269302  34.434  26.664   5.769
 5465POPC   C1A69303  34.643  26.931   6.159
 5465POPC   D2A69304  34.749  27.144   6.551
 5465POPC   C3A69305  34.740  26.836   6.880
 5465POPC   C4A69306  34.594  26.868   7.298
 5465POPC   C1B69307  34.253  26.521   6.156
 5465POPC   C2B69308  34.157  26.459   6.609
 5465POPC   C3B69309  34.266  26.631   6.993
 5465POPC   C4B69310  34.201  26.524   7.436
 5466POPC   NC369311   3.337  24.381   5.456
 5466POPC   PO469312   3.811  23.960   5.442
 5466POPC   GL169313   3.626  24.226   5.844
 5466POPC   GL269314   3.774  24.552   5.949
 5466POPC   C1A69315   3.458  24.269   6.261
 5466POPC   D2A69316   3.487  24.418   6.673
 5466POPC   C3A69317   3.470  24.163   7.031
 5466POPC   C4A69318   3.174  24.196   7.381
 5466POPC   C1B69319   3.808  24.672   6.337
 5466POPC   C2B69320   3.744  24.850   6.704
 5466POPC   C3B69321   3.781  24.595   7.070
 5466POPC   C4B69322   3.668  24.336   7.439
 5467POPC   NC369323   0.608   8.707   5.334
 5467POPC   PO469324   0.608   9.417   5.448
 5467POPC   GL169325   0.353   9.058   5.654
 5467POPC   GL269326   0.594   8.829   5.817
 5467POPC   C1A69327   0.118   8.981   6.077
 5467POPC   D2A69328  44.954   9.164   6.483
 5467POPC   C3A69329   0.102   9.083   6.909
 5467POPC   C4A69330  44.968   8.880   7.295
 5467POPC   C1B69331   0.514   8.670   6.203
 5467POPC   C2B69332   0.535   8.880   6.606
 5467POPC   C3B69333   0.457   8.733   7.014
 5467POPC   C4B69334   0.695   8.828   7.313
 5468POPC   NC369335  17.456  28.075   5.256
 5468POPC   PO469336  17.854  28.475   5.583
 5468POPC   GL169337  17.530  28.457   5.922
 5468POPC   GL269338  17.324  28.760   5.904
 5468POPC   C1A69339  17.500  28.409   6.404
 5468POPC   D2A69340  17.843  28.425   6.728
 5468POPC   C3A69341  17.715  28.343   7.136
 5468POPC   C4A69342  17.701  28.203   7.563
 5468POPC   C1B69343  17.211  28.851   6.299
 5468POPC   C2B69344  17.043  28.670   6.639
 5468POPC   C3B69345  17.141  28.662   7.042
 5468POPC   C4B69346  17.265  28.341   7.357
 5469POPC   NC369347  21.703   2.945   5.460
 5469POPC   PO469348  22.389   2.784   5.484
 5469POPC   GL169349  22.063   2.712   5.800
 5469POPC   GL269350  22.384   2.730   5.992
 5469POPC   C1A69351  21.968   2.831   6.246
 5469POPC   D2A69352  22.362   2.780   6.521
 5469POPC   C3A69353  22.304   2.611   6.921
 5469POPC   C4A69354  22.391   2.536   7.344
 5469POPC   C1B69355  22.350   3.171   6.179
 5469POPC   C2B69356  22.388   3.272   6.629
 5469POPC   C3B69357  22.302   3.119   7.042
 5469POPC   C4B69358  21.944   2.875   7.167
 5470POPC   NC369359  32.595  16.855   5.570
 5470POPC   PO469360  31.995  16.613   5.446
 5470POPC   GL169361  32.208  16.729   5.847
 5470POPC   GL269362  32.212  17.112   5.830
 5470POPC   C1A69363  32.289  16.534   6.250
 5470POPC   D2A69364  32.070  16.539   6.631
 5470POPC   C3A69365  32.282  16.511   7.040
 5470POPC   C4A69366  32.235  16.440   7.502
 5470POPC   C1B69367  32.435  17.030   6.241
 5470POPC   C2B69368  32.458  16.901   6.695
 5470POPC   C3B69369  32.544  17.100   7.109
 5470POPC   C4B69370  32.421  17.251   7.558
 5471POPC   NC369371   3.756  32.690   5.526
 5471POPC   PO469372   3.436  33.352   5.589
 5471POPC   GL169373   3.537  33.053   5.912
 5471POPC   GL269374   3.864  32.842   5.991
 5471POPC   C1A69375   3.513  33.005   6.348
 5471POPC   D2A69376   3.844  32.886   6.610
 5471POPC   C3A69377   3.576  32.785   6.935
 5471POPC   C4A69378   3.501  32.992   7.323
 5471POPC   C1B69379   3.956  33.232   6.211
 5471POPC   C2B69380   3.764  33.479   6.532
 5471POPC   C3B69381   3.661  33.301   6.909
 5471POPC   C4B69382   3.842  33.377   7.294
 5472POPC   NC369383  15.246   3.218   5.501
 5472POPC   PO469384  15.601   3.777   5.688
 5472POPC   GL169385  15.300   3.537   5.910
 5472POPC   GL269386  15.433   3.222   5.990
 5472POPC   C1A69387  14.997   3.468   6.233
 5472POPC   D2A69388  15.141   3.388   6.637
 5472POPC   C3A69389  15.184   3.646   6.986
 5472POPC   C4A69390  14.859   3.663   7.266
 5472POPC   C1B69391  15.585   3.221   6.409
 5472POPC   C2B69392  15.573   3.270   6.864
 5472POPC   C3B69393  15.561   3.364   7.329
 5472POPC   C4B69394  15.511   3.325   7.812
 5473POPC   NC369395   7.013  12.068   5.110
 5473POPC   PO469396   7.599  12.129   5.491
 5473POPC   GL169397   7.410  11.896   5.790
 5473POPC   GL269398   7.723  11.690   5.850
 5473POPC   C1A69399   7.155  12.013   6.155
 5473POPC   D2A69400   6.965  12.061   6.589
 5473POPC   C3A69401   7.128  11.940   7.004
 5473POPC   C4A69402   7.333  11.959   7.422
 5473POPC   C1B69403   7.685  12.029   6.198
 5473POPC   C2B69404   7.479  11.979   6.603
 5473POPC   C3B69405   7.652  11.998   7.018
 5473POPC   C4B69406   7.855  11.691   7.305
 5474POPC   NC369407  13.010  10.939   5.192
 5474POPC   PO469408  12.919  11.550   5.568
 5474POPC   GL169409  13.137  11.322   5.854
 5474POPC   GL269410  13.255  11.013   5.715
 5474POPC   C1A69411  13.002  11.299   6.271
 5474POPC   D2A69412  12.809  11.550   6.583
 5474POPC   C3A69413  12.949  11.388   7.000
 5474POPC   C4A69414  12.644  11.278   7.265
 5474POPC   C1B69415  13.265  10.882   6.137
 5474POPC   C2B69416  13.257  10.915   6.557
 5474POPC   C3B69417  13.182  10.770   6.955
 5474POPC   C4B69418  13.162  11.003   7.307
 5475POPC   NC369419  33.663  44.594   5.288
 5475POPC   PO469420  33.977   0.153   5.502
 5475POPC   GL169421  33.777  44.869   5.804
 5475POPC   GL269422  33.897  44.538   5.824
 5475POPC   C1A69423  33.816  44.748   6.283
 5475POPC   D2A69424  33.936  44.572   6.703
 5475POPC   C3A69425  33.617  44.686   7.037
 5475POPC   C4A69426  33.578  44.709   7.496
 5475POPC   C1B69427  34.241  44.802   6.018
 5475POPC   C2B69428  34.362  44.799   6.453
 5475POPC   C3B69429  34.338  44.844   6.912
 5475POPC   C4B69430  34.056  44.744   7.275
 5476POPC   NC369431  14.117   4.666   5.401
 5476POPC   PO469432  14.289   3.984   5.455
 5476POPC   GL169433  14.384   4.379   5.735
 5476POPC   GL269434  14.092   4.483   5.892
 5476POPC   C1A69435  14.541   4.434   6.166
 5476POPC   D2A69436  14.570   4.116   6.504
 5476POPC   C3A69437  14.404   4.253   6.919
 5476POPC   C4A69438  14.481   4.539   7.260
 5476POPC   C1B69439  14.145   4.068   6.146
 5476POPC   C2B69440  14.101   3.873   6.579
 5476POPC   C3B69441  13.918   4.091   6.965
 5476POPC   C4B69442  14.147   4.058   7.353
 5477POPC   NC369443  39.786  14.717   5.377
 5477POPC   PO469444  39.854  14.043   5.300
 5477POPC   GL169445  40.044  14.336   5.573
 5477POPC   GL269446  39.689  14.379   5.730
 5477POPC   C1A69447  40.082  14.495   6.018
 5477POPC   D2A69448  40.170  14.590   6.442
 5477POPC   C3A69449  40.139  14.327   6.800
 5477POPC   C4A69450  40.010  14.581   7.168
 5477POPC   C1B69451  39.578  14.251   6.148
 5477POPC   C2B69452  39.633  14.392   6.573
 5477POPC   C3B69453  39.671  14.192   6.974
 5477POPC   C4B69454  39.962  14.091   7.251
 5478POPC   NC369455  40.406  10.075   5.604
 5478POPC   PO469456  40.649   9.452   5.505
 5478POPC   GL169457  40.941   9.604   5.816
 5478POPC   GL269458  41.185   9.312   5.842
 5478POPC   C1A69459  40.815   9.818   6.228
 5478POPC   D2A69460  40.776  10.119   6.577
 5478POPC   C3A69461  40.789   9.992   7.010
 5478POPC   C4A69462  40.732   9.862   7.472
 5478POPC   C1B69463  40.893   9.281   6.198
 5478POPC   C2B69464  40.692   9.449   6.574
 5478POPC   C3B69465  40.670   9.503   7.006
 5478POPC   C4B69466  41.020   9.512   7.254
 5479POPC   NC369467  27.667  40.294   5.059
 5479POPC   PO469468  27.919  40.962   5.226
 5479POPC   GL169469  27.776  40.758   5.697
 5479POPC   GL269470  27.947  40.469   5.811
 5479POPC   C1A69471  27.521  40.718   6.142
 5479POPC   D2A69472  27.436  40.550   6.564
 5479POPC   C3A69473  27.566  40.758   6.937
 5479POPC   C4A69474  27.652  40.894   7.360
 5479POPC   C1B69475  28.017  40.670   6.228
 5479POPC   C2B69476  27.943  40.513   6.669
 5479POPC   C3B69477  27.981  40.529   7.134
 5479POPC   C4B69478  27.875  40.461   7.576
 5480POPC   NC369479  15.748   8.789   5.508
 5480POPC   PO469480  16.484   8.986   5.573
 5480POPC   GL169481  16.150   8.968   5.853
 5480POPC   GL269482  15.895   9.211   5.773
 5480POPC   C1A69483  16.048   9.049   6.294
 5480POPC   D2A69484  16.156   8.830   6.669
 5480POPC   C3A69485  16.151   9.008   7.064
 5480POPC   C4A69486  15.813   8.822   7.262
 5480POPC   C1B69487  15.648   9.320   6.105
 5480POPC   C2B69488  15.607   9.262   6.512
 5480POPC   C3B69489  15.670   9.166   6.913
 5480POPC   C4B69490  15.814   9.363   7.277
 5481POPC   NC369491  32.970   8.003   5.665
 5481POPC   PO469492  32.909   8.684   5.588
 5481POPC   GL169493  32.803   8.466   5.924
 5481POPC   GL269494  33.148   8.426   5.956
 5481POPC   C1A69495  32.818   8.187   6.292
 5481POPC   D2A69496  33.013   8.209   6.710
 5481POPC   C3A69497  32.795   8.207   7.088
 5481POPC   C4A69498  32.974   8.302   7.492
 5481POPC   C1B69499  33.109   8.624   6.335
 5481POPC   C2B69500  33.324   8.629   6.703
 5481POPC   C3B69501  33.258   8.504   7.104
 5481POPC   C4B69502  33.346   8.662   7.510
 5482POPC   NC369503  34.361   8.856   5.603
 5482POPC   PO469504  34.647   9.404   5.598
 5482POPC   GL169505  34.577   9.138   5.960
 5482POPC   GL269506  34.703   8.784   5.962
 5482POPC   C1A69507  34.473   9.033   6.370
 5482POPC   D2A69508  34.309   8.901   6.759
 5482POPC   C3A69509  34.448   9.203   6.982
 5482POPC   C4A69510  34.657   9.244   7.322
 5482POPC   C1B69511  35.072   8.736   6.186
 5482POPC   C2B69512  35.130   8.737   6.608
 5482POPC   C3B69513  34.797   8.753   6.860
 5482POPC   C4B69514  34.694   8.685   7.234
 5483POPC   NC369515  34.712   3.719   5.592
 5483POPC   PO469516  34.169   3.341   5.361
 5483POPC   GL169517  34.244   3.556   5.772
 5483POPC   GL269518  34.481   3.303   5.828
 5483POPC   C1A69519  34.398   3.705   6.216
 5483POPC   D2A69520  34.429   3.862   6.672
 5483POPC   C3A69521  34.690   3.664   7.045
 5483POPC   C4A69522  34.853   3.653   7.503
 5483POPC   C1B69523  34.189   3.228   6.171
 5483POPC   C2B69524  34.311   3.307   6.592
 5483POPC   C3B69525  34.392   3.206   7.012
 5483POPC   C4B69526  34.727   3.202   7.297
 5484POPC   NC369527  21.998   9.843   5.368
 5484POPC   PO469528  22.443   9.362   5.576
 5484POPC   GL169529  22.263   9.722   5.795
 5484POPC   GL269530  21.953   9.575   5.810
 5484POPC   C1A69531  22.094   9.847   6.221
 5484POPC   D2A69532  22.249   9.678   6.604
 5484POPC   C3A69533  22.151   9.909   6.961
 5484POPC   C4A69534  22.331   9.699   7.297
 5484POPC   C1B69535  21.813   9.399   6.172
 5484POPC   C2B69536  21.755   9.488   6.578
 5484POPC   C3B69537  21.949   9.447   6.976
 5484POPC   C4B69538  21.831   9.659   7.316
 5485POPC   NC369539  44.566  25.810   5.514
 5485POPC   PO469540   0.099  26.258   5.453
 5485POPC   GL169541  44.787  26.208   5.792
 5485POPC   GL269542  44.956  25.910   5.866
 5485POPC   C1A69543  44.549  26.232   6.216
 5485POPC   D2A69544  44.289  26.073   6.606
 5485POPC   C3A69545  44.531  26.120   7.027
 5485POPC   C4A69546  44.402  26.138   7.451
 5485POPC   C1B69547  44.803  25.753   6.211
 5485POPC   C2B69548  44.771  25.926   6.583
 5485POPC   C3B69549  44.733  25.679   6.910
 5485POPC   C4B69550  44.967  25.747   7.277
 5486POPC   NC369551   7.595   5.639   5.469
 5486POPC   PO469552   7.373   6.236   5.741
 5486POPC   GL169553   7.625   5.966   5.961
 5486POPC   GL269554   7.412   5.722   5.934
 5486POPC   C1A69555   7.554   5.919   6.396
 5486POPC   D2A69556   7.261   6.143   6.635
 5486POPC   C3A69557   7.339   6.269   7.046
 5486POPC   C4A69558   7.504   5.901   7.209
 5486POPC   C1B69559   7.249   5.496   6.296
 5486POPC   C2B69560   7.347   5.584   6.760
 5486POPC   C3B69561   7.183   5.491   7.195
 5486POPC   C4B69562   7.169   5.273   7.602
 5487POPC   NC369563  41.137  20.032   5.478
 5487POPC   PO469564  40.665  19.547   5.149
 5487POPC   GL169565  40.844  19.600   5.587
 5487POPC   GL269566  40.521  19.725   5.763
 5487POPC   C1A69567  40.935  19.794   6.031
 5487POPC   D2A69568  40.872  19.901   6.480
 5487POPC   C3A69569  41.044  19.821   6.908
 5487POPC   C4A69570  40.845  19.643   7.271
 5487POPC   C1B69571  40.509  20.066   6.109
 5487POPC   C2B69572  40.329  20.005   6.508
 5487POPC   C3B69573  40.540  19.945   6.867
 5487POPC   C4B69574  40.381  19.853   7.201
 5488POPC   NC369575  17.067  18.541   5.390
 5488POPC   PO469576  17.637  18.993   5.327
 5488POPC   GL169577  17.662  19.231   5.727
 5488POPC   GL269578  17.489  18.923   5.831
 5488POPC   C1A69579  17.656  19.286   6.206
 5488POPC   D2A69580  17.484  19.387   6.660
 5488POPC   C3A69581  17.645  19.191   7.050
 5488POPC   C4A69582  17.927  19.251   7.373
 5488POPC   C1B69583  17.181  19.093   6.089
 5488POPC   C2B69584  17.148  18.995   6.503
 5488POPC   C3B69585  17.249  18.893   6.906
 5488POPC   C4B69586  17.302  18.827   7.360
 5489POPC   NC369587  25.651  36.108   5.478
 5489POPC   PO469588  24.946  36.316   5.411
 5489POPC   GL169589  25.216  36.258   5.752
 5489POPC   GL269590  25.153  35.915   5.773
 5489POPC   C1A69591  25.377  36.377   6.164
 5489POPC   D2A69592  25.246  36.511   6.577
 5489POPC   C3A69593  25.340  36.201   6.886
 5489POPC   C4A69594  25.262  36.345   7.282
 5489POPC   C1B69595  25.132  35.862   6.230
 5489POPC   C2B69596  25.202  35.722   6.679
 5489POPC   C3B69597  25.075  35.828   7.136
 5489POPC   C4B69598  25.255  35.927   7.575
 5490POPC   NC369599  19.193  30.518   5.520
 5490POPC   PO469600  18.784  31.081   5.498
 5490POPC   GL169601  18.913  30.774   5.858
 5490POPC   GL269602  18.889  30.380   5.920
 5490POPC   C1A69603  18.710  30.702   6.257
 5490POPC   D2A69604  18.867  30.705   6.659
 5490POPC   C3A69605  18.783  30.799   7.056
 5490POPC   C4A69606  19.213  30.888   7.196
 5490POPC   C1B69607  19.210  30.461   6.222
 5490POPC   C2B69608  19.335  30.539   6.634
 5490POPC   C3B69609  19.140  30.412   7.057
 5490POPC   C4B69610  19.389  30.408   7.454
 5491POPC   NC369611  19.042  12.710   5.385
 5491POPC   PO469612  19.607  13.093   5.365
 5491POPC   GL169613  19.442  12.877   5.756
 5491POPC   GL269614  19.117  13.077   5.803
 5491POPC   C1A69615  19.157  12.650   6.076
 5491POPC   D2A69616  18.836  12.849   6.352
 5491POPC   C3A69617  18.863  12.788   6.784
 5491POPC   C4A69618  18.981  12.614   7.170
 5491POPC   C1B69619  19.179  13.242   6.237
 5491POPC   C2B69620  19.141  13.212   6.695
 5491POPC   C3B69621  19.012  13.123   7.150
 5491POPC   C4B69622  19.051  13.188   7.603
 5492POPC   NC369623   4.958  28.667   5.580
 5492POPC   PO469624   5.177  27.990   5.524
 5492POPC   GL169625   5.170  28.263   5.864
 5492POPC   GL269626   5.433  28.520   5.844
 5492POPC   C1A69627   4.995  28.239   6.261
 5492POPC   D2A69628   5.115  28.179   6.642
 5492POPC   C3A69629   4.916  28.203   7.002
 5492POPC   C4A69630   5.119  28.201   7.390
 5492POPC   C1B69631   5.350  28.683   6.258
 5492POPC   C2B69632   5.473  28.520   6.647
 5492POPC   C3B69633   5.293  28.593   7.024
 5492POPC   C4B69634   5.386  28.976   7.219
 5493POPC   NC369635  44.048   2.939   5.420
 5493POPC   PO469636  43.500   2.554   5.438
 5493POPC   GL169637  43.661   2.579   5.858
 5493POPC   GL269638  44.009   2.596   5.841
 5493POPC   C1A69639  43.729   2.906   6.184
 5493POPC   D2A69640  43.899   3.136   6.552
 5493POPC   C3A69641  43.671   2.963   6.893
 5493POPC   C4A69642  43.730   2.802   7.292
 5493POPC   C1B69643  44.226   2.723   6.198
 5493POPC   C2B69644  44.239   2.742   6.627
 5493POPC   C3B69645  44.174   2.718   7.068
 5493POPC   C4B69646  44.128   2.526   7.495
 5494POPC   NC369647  13.035  44.144   5.102
 5494POPC   PO469648  12.797  43.623   5.504
 5494POPC   GL169649  12.714  43.812   5.874
 5494POPC   GL269650  12.394  43.941   5.831
 5494POPC   C1A69651  12.823  43.736   6.289
 5494POPC   D2A69652  12.967  43.880   6.666
 5494POPC   C3A69653  13.239  43.639   6.899
 5494POPC   C4A69654  13.100  43.841   7.270
 5494POPC   C1B69655  12.473  44.119   6.255
 5494POPC   C2B69656  12.624  44.273   6.641
 5494POPC   C3B69657  12.657  44.090   7.045
 5494POPC   C4B69658  12.610  43.851   7.417
 5495POPC   NC369659  16.681  23.292   5.478
 5495POPC   PO469660  16.948  22.636   5.423
 5495POPC   GL169661  16.947  22.954   5.772
 5495POPC   GL269662  16.649  23.068   5.941
 5495POPC   C1A69663  17.070  23.071   6.210
 5495POPC   D2A69664  16.816  23.060   6.574
 5495POPC   C3A69665  16.966  23.093   6.968
 5495POPC   C4A69666  16.817  22.895   7.350
 5495POPC   C1B69667  16.380  23.083   6.305
 5495POPC   C2B69668  16.374  22.829   6.664
 5495POPC   C3B69669  16.450  23.017   7.025
 5495POPC   C4B69670  16.423  23.372   7.245
 5496POPC   NC369671  28.205   0.443   5.344
 5496POPC   PO469672  28.706   0.791   5.627
 5496POPC   GL169673  28.444   0.544   5.905
 5496POPC   GL269674  28.347   0.215   5.846
 5496POPC   C1A69675  28.383   0.533   6.335
 5496POPC   D2A69676  28.213   0.570   6.727
 5496POPC   C3A69677  28.474   0.717   7.005
 5496POPC   C4A69678  28.509   0.649   7.433
 5496POPC   C1B69679  28.312  44.996   6.248
 5496POPC   C2B69680  28.470   0.119   6.654
 5496POPC   C3B69681  28.441   0.211   7.093
 5496POPC   C4B69682  28.299   0.171   7.502
 5497POPC   NC369683  19.130   6.094   5.505
 5497POPC   PO469684  19.151   5.441   5.344
 5497POPC   GL169685  19.041   5.471   5.814
 5497POPC   GL269686  19.199   5.313   6.049
 5497POPC   C1A69687  19.008   5.776   6.190
 5497POPC   D2A69688  18.897   5.800   6.645
 5497POPC   C3A69689  18.929   6.186   6.904
 5497POPC   C4A69690  18.854   6.148   7.316
 5497POPC   C1B69691  19.474   5.561   6.279
 5497POPC   C2B69692  19.420   5.762   6.654
 5497POPC   C3B69693  19.262   5.841   7.065
 5497POPC   C4B69694  19.519   5.759   7.386
 5498POPC   NC369695  44.950  16.260   5.275
 5498POPC   PO469696  44.474  15.801   5.427
 5498POPC   GL169697  44.727  15.944   5.781
 5498POPC   GL269698  44.766  16.346   5.747
 5498POPC   C1A69699  44.645  15.738   6.218
 5498POPC   D2A69700  44.776  15.633   6.670
 5498POPC   C3A69701  44.547  15.831   7.019
 5498POPC   C4A69702  44.314  15.669   7.397
 5498POPC   C1B69703  44.746  16.254   6.203
 5498POPC   C2B69704  44.592  16.164   6.620
 5498POPC   C3B69705  44.504  16.362   7.041
 5498POPC   C4B69706  44.545  16.330   7.522
 5499POPC   NC369707  25.774  24.928   5.671
 5499POPC   PO469708  25.161  25.092   5.372
 5499POPC   GL169709  25.257  25.284   5.775
 5499POPC   GL269710  25.412  25.632   5.768
 5499POPC   C1A69711  25.030  25.273   6.165
 5499POPC   D2A69712  24.968  25.048   6.541
 5499POPC   C3A69713  25.050  25.242   6.942
 5499POPC   C4A69714  25.033  25.088   7.370
 5499POPC   C1B69715  25.526  25.449   6.179
 5499POPC   C2B69716  25.338  25.513   6.584
 5499POPC   C3B69717  25.539  25.468   6.979
 5499POPC   C4B69718  25.504  25.287   7.362
 5500POPC   NC369719   4.345  18.861   5.361
 5500POPC   PO469720   4.033  19.454   5.364
 5500POPC   GL169721   4.320  19.288   5.752
 5500POPC   GL269722   4.415  18.925   5.843
 5500POPC   C1A69723   4.313  19.203   6.237
 5500POPC   D2A69724   4.478  19.278   6.626
 5500POPC   C3A69725   4.225  19.361   6.929
 5500POPC   C4A69726   4.369  19.305   7.290
 5500POPC   C1B69727   4.401  18.688   6.224
 5500POPC   C2B69728   4.414  18.782   6.643
 5500POPC   C3B69729   4.320  18.866   7.042
 5500POPC   C4B69730   4.152  18.708   7.397
 5501POPC   NC369731   8.194  29.262   5.155
 5501POPC   PO469732   7.916  29.185   5.710
 5501POPC   GL169733   8.250  29.248   5.953
 5501POPC   GL269734   8.335  29.553   5.841
 5501POPC   C1A69735   8.296  29.061   6.342
 5501POPC   D2A69736   8.036  29.017   6.702
 5501POPC   C3A69737   8.297  29.076   7.051
 5501POPC   C4A69738   8.104  28.956   7.378
 5501POPC   C1B69739   8.262  29.608   6.287
 5501POPC   C2B69740   8.313  29.459   6.689
 5501POPC   C3B69741   7.991  29.486   6.973
 5501POPC   C4B69742   8.081  29.453   7.399
 5502POPC   NC369743  12.563  17.640   5.549
 5502POPC   PO469744  13.100  17.185   5.672
 5502POPC   GL169745  12.872  17.416   5.880
 5502POPC   GL269746  12.566  17.212   5.818
 5502POPC   C1A69747  12.908  17.676   6.234
 5502POPC   D2A69748  13.005  17.455   6.628
 5502POPC   C3A69749  13.137  17.711   6.949
 5502POPC   C4A69750  12.880  17.690   7.284
 5502POPC   C1B69751  12.622  17.233   6.269
 5502POPC   C2B69752  12.482  17.430   6.627
 5502POPC   C3B69753  12.682  17.269   6.985
 5502POPC   C4B69754  12.553  17.268   7.373
 5503POPC   NC369755   1.706  39.913   5.599
 5503POPC   PO469756   2.339  40.054   5.513
 5503POPC   GL169757   2.189  39.978   5.892
 5503POPC   GL269758   2.399  39.665   5.859
 5503POPC   C1A69759   1.882  40.019   6.260
 5503POPC   D2A69760   1.895  40.276   6.669
 5503POPC   C3A69761   1.855  40.087   7.071
 5503POPC   C4A69762   1.728  39.802   7.378
 5503POPC   C1B69763   2.308  39.674   6.265
 5503POPC   C2B69764   2.233  39.896   6.611
 5503POPC   C3B69765   2.364  39.930   6.981
 5503POPC   C4B69766   2.227  39.758   7.310
 5504POPC   NC369767   2.170  42.110   5.474
 5504POPC   PO469768   2.206  42.778   5.342
 5504POPC   GL169769   1.929  42.666   5.737
 5504POPC   GL269770   1.791  42.298   5.810
 5504POPC   C1A69771   2.022  42.588   6.196
 5504POPC   D2A69772   1.916  42.580   6.653
 5504POPC   C3A69773   2.124  42.404   7.019
 5504POPC   C4A69774   1.722  42.373   7.195
 5504POPC   C1B69775   2.010  42.070   6.170
 5504POPC   C2B69776   2.113  42.076   6.611
 5504POPC   C3B69777   1.909  41.926   6.980
 5504POPC   C4B69778   2.025  42.022   7.410
 5505POPC   NC369779  36.396  16.906   5.365
 5505POPC   PO469780  35.772  16.773   5.597
 5505POPC   GL169781  36.127  16.670   5.799
 5505POPC   GL269782  35.960  16.386   5.916
 5505POPC   C1A69783  36.301  16.905   6.128
 5505POPC   D2A69784  36.137  17.061   6.517
 5505POPC   C3A69785  36.175  16.864   6.907
 5505POPC   C4A69786  36.256  16.643   7.279
 5505POPC   C1B69787  35.874  16.264   6.316
 5505POPC   C2B69788  35.775  16.449   6.710
 5505POPC   C3B69789  35.806  16.474   7.139
 5505POPC   C4B69790  35.754  16.239   7.530
 5506POPC   NC369791  41.672  17.262   5.405
 5506POPC   PO469792  41.339  17.890   5.549
 5506POPC   GL169793  41.637  17.619   5.769
 5506POPC   GL269794  41.963  17.761   5.900
 5506POPC   C1A69795  41.597  17.301   6.091
 5506POPC   D2A69796  41.433  17.094   6.481
 5506POPC   C3A69797  41.650  17.249   6.859
 5506POPC   C4A69798  41.527  17.378   7.271
 5506POPC   C1B69799  41.606  17.890   6.185
 5506POPC   C2B69800  41.388  17.920   6.552
 5506POPC   C3B69801  41.467  17.745   6.913
 5506POPC   C4B69802  41.537  17.882   7.301
 5507POPC   NC369803   6.178   0.046   5.436
 5507POPC   PO469804   5.739  44.491   5.434
 5507POPC   GL169805   5.994  44.632   5.758
 5507POPC   GL269806   5.854  44.919   5.820
 5507POPC   C1A69807   6.166  44.647   6.180
 5507POPC   D2A69808   6.201  44.857   6.582
 5507POPC   C3A69809   6.075  44.596   6.918
 5507POPC   C4A69810   6.127  44.655   7.321
 5507POPC   C1B69811   5.727  44.929   6.223
 5507POPC   C2B69812   5.689  44.806   6.643
 5507POPC   C3B69813   5.779  44.997   7.032
 5507POPC   C4B69814   5.710  44.936   7.490
 5508POPC   NC369815   8.195   4.427   4.930
 5508POPC   PO469816   7.942   4.102   5.391
 5508POPC   GL169817   8.139   4.277   5.790
 5508POPC   GL269818   8.475   4.084   5.847
 5508POPC   C1A69819   7.912   4.444   6.213
 5508POPC   D2A69820   7.910   4.261   6.655
 5508POPC   C3A69821   7.992   4.558   6.974
 5508POPC   C4A69822   8.273   4.594   7.324
 5508POPC   C1B69823   8.345   4.186   6.270
 5508POPC   C2B69824   8.420   4.381   6.675
 5508POPC   C3B69825   8.278   4.134   7.025
 5508POPC   C4B69826   8.164   3.878   7.378
 5509POPC   NC369827  17.001  41.876   5.442
 5509POPC   PO469828  16.366  41.471   5.511
 5509POPC   GL169829  16.512  41.722   5.879
 5509POPC   GL269830  16.882  41.677   5.897
 5509POPC   C1A69831  16.624  41.777   6.349
 5509POPC   D2A69832  16.720  41.484   6.717
 5509POPC   C3A69833  16.588  41.577   7.155
 5509POPC   C4A69834  16.402  41.438   7.542
 5509POPC   C1B69835  17.092  41.564   6.279
 5509POPC   C2B69836  17.138  41.770   6.665
 5509POPC   C3B69837  17.087  41.614   7.092
 5509POPC   C4B69838  16.981  41.409   7.472
 5510POPC   NC369839  31.531  36.125   5.314
 5510POPC   PO469840  31.072  36.421   5.510
 5510POPC   GL169841  31.431  36.378   5.852
 5510POPC   GL269842  31.721  36.126   5.781
 5510POPC   C1A69843  31.454  36.472   6.331
 5510POPC   D2A69844  31.337  36.538   6.784
 5510POPC   C3A69845  31.452  36.155   7.042
 5510POPC   C4A69846  31.179  35.788   7.138
 5510POPC   C1B69847  31.821  36.126   6.188
 5510POPC   C2B69848  31.695  35.995   6.584
 5510POPC   C3B69849  31.920  35.974   6.939
 5510POPC   C4B69850  31.911  36.213   7.288
 5511POPC   NC369851  29.185  32.395   5.470
 5511POPC   PO469852  29.362  33.022   5.426
 5511POPC   GL169853  29.039  32.836   5.700
 5511POPC   GL269854  29.297  32.653   5.886
 5511POPC   C1A69855  28.853  32.782   6.127
 5511POPC   D2A69856  28.853  33.056   6.500
 5511POPC   C3A69857  28.992  32.896   6.937
 5511POPC   C4A69858  28.973  33.195   7.329
 5511POPC   C1B69859  29.262  33.070   6.117
 5511POPC   C2B69860  29.349  33.071   6.550
 5511POPC   C3B69861  29.335  33.267   6.944
 5511POPC   C4B69862  29.378  33.523   7.318
 5512POPC   NC369863   7.550   4.915   5.517
 5512POPC   PO469864   7.137   5.472   5.420
 5512POPC   GL169865   7.240   5.220   5.815
 5512POPC   GL269866   7.596   5.268   5.896
 5512POPC   C1A69867   7.419   4.900   6.169
 5512POPC   D2A69868   7.500   5.111   6.542
 5512POPC   C3A69869   7.686   4.962   6.892
 5512POPC   C4A69870   7.451   5.048   7.229
 5512POPC   C1B69871   7.751   5.465   6.260
 5512POPC   C2B69872   7.953   5.337   6.640
 5512POPC   C3B69873   7.789   5.457   7.026
 5512POPC   C4B69874   7.654   5.476   7.430
 5513POPC   NC369875  18.322  43.559   5.399
 5513POPC   PO469876  18.213  42.915   5.191
 5513POPC   GL169877  18.227  43.096   5.643
 5513POPC   GL269878  18.150  42.849   5.863
 5513POPC   C1A69879  18.270  43.299   6.101
 5513POPC   D2A69880  18.459  43.378   6.552
 5513POPC   C3A69881  18.293  43.455   7.003
 5513POPC   C4A69882  18.444  43.507   7.471
 5513POPC   C1B69883  18.222  42.845   6.307
 5513POPC   C2B69884  18.269  42.662   6.689
 5513POPC   C3B69885  18.089  42.829   7.040
 5513POPC   C4B69886  18.242  43.049   7.363
 5514POPC   NC369887  19.579  16.088   5.396
 5514POPC   PO469888  20.216  16.261   5.506
 5514POPC   GL169889  19.919  16.146   5.850
 5514POPC   GL269890  19.945  15.848   6.022
 5514POPC   C1A69891  20.086  16.298   6.288
 5514POPC   D2A69892  20.150  16.297   6.755
 5514POPC   C3A69893  19.827  16.035   6.904
 5514POPC   C4A69894  19.785  15.846   7.278
 5514POPC   C1B69895  19.763  15.539   6.253
 5514POPC   C2B69896  19.635  15.630   6.654
 5514POPC   C3B69897  19.488  15.546   7.041
 5514POPC   C4B69898  19.646  15.361   7.461
 5515POPC   NC369899  24.388  12.226   5.160
 5515POPC   PO469900  24.737  11.852   5.510
 5515POPC   GL169901  24.559  11.955   5.917
 5515POPC   GL269902  24.202  11.920   5.881
 5515POPC   C1A69903  24.658  11.990   6.369
 5515POPC   D2A69904  24.792  12.296   6.679
 5515POPC   C3A69905  24.639  12.196   7.079
 5515POPC   C4A69906  24.672  12.474   7.415
 5515POPC   C1B69907  24.149  11.925   6.343
 5515POPC   C2B69908  24.248  12.038   6.776
 5515POPC   C3B69909  24.155  11.983   7.218
 5515POPC   C4B69910  24.219  11.677   7.569
 5516POPC   NC369911  33.169  10.338   5.373
 5516POPC   PO469912  32.757  10.810   5.182
 5516POPC   GL169913  32.908  10.654   5.705
 5516POPC   GL269914  33.167  10.381   5.883
 5516POPC   C1A69915  32.902  10.641   6.216
 5516POPC   D2A69916  32.714  10.530   6.663
 5516POPC   C3A69917  32.913  10.668   7.067
 5516POPC   C4A69918  33.189  10.969   7.267
 5516POPC   C1B69919  33.342  10.158   6.279
 5516POPC   C2B69920  33.390  10.081   6.767
 5516POPC   C3B69921  33.114  10.184   7.155
 5516POPC   C4B69922  33.129  10.078   7.668
 5517POPC   NC369923  19.232  28.540   5.511
 5517POPC   PO469924  19.039  27.908   5.503
 5517POPC   GL169925  19.101  28.149   5.874
 5517POPC   GL269926  18.821  28.392   5.936
 5517POPC   C1A69927  19.227  28.455   6.201
 5517POPC   D2A69928  18.957  28.656   6.510
 5517POPC   C3A69929  19.103  28.595   6.927
 5517POPC   C4A69930  18.969  28.244   7.118
 5517POPC   C1B69931  18.740  28.218   6.344
 5517POPC   C2B69932  18.624  28.064   6.758
 5517POPC   C3B69933  18.532  28.026   7.224
 5517POPC   C4B69934  18.697  28.228   7.580
 5518POPC   NC369935  31.627   3.214   5.428
 5518POPC   PO469936  31.126   3.685   5.625
 5518POPC   GL169937  31.277   3.381   5.867
 5518POPC   GL269938  31.665   3.374   5.902
 5518POPC   C1A69939  31.344   3.485   6.286
 5518POPC   D2A69940  31.581   3.410   6.612
 5518POPC   C3A69941  31.358   3.601   6.960
 5518POPC   C4A69942  31.104   3.397   7.285
 5518POPC   C1B69943  31.826   3.723   6.186
 5518POPC   C2B69944  31.947   3.768   6.641
 5518POPC   C3B69945  31.851   3.511   7.036
 5518POPC   C4B69946  31.936   3.541   7.466
 5519POPC   NC369947   8.883  16.504   5.508
 5519POPC   PO469948   8.539  17.048   5.345
 5519POPC   GL169949   8.881  16.938   5.752
 5519POPC   GL269950   8.749  16.684   5.988
 5519POPC   C1A69951   9.227  16.648   6.066
 5519POPC   D2A69952   9.093  16.573   6.530
 5519POPC   C3A69953   9.229  16.368   6.926
 5519POPC   C4A69954   9.083  16.257   7.336
 5519POPC   C1B69955   8.963  17.038   6.271
 5519POPC   C2B69956   8.982  17.135   6.725
 5519POPC   C3B69957   9.011  16.812   7.047
 5519POPC   C4B69958   8.863  16.724   7.471
 5520POPC   NC369959  34.402  11.461   5.174
 5520POPC   PO469960  34.672  12.038   5.497
 5520POPC   GL169961  34.444  12.137   5.869
 5520POPC   GL269962  34.430  12.524   5.898
 5520POPC   C1A69963  34.537  11.903   6.251
 5520POPC   D2A69964  34.387  11.940   6.647
 5520POPC   C3A69965  34.642  11.945   6.997
 5520POPC   C4A69966  34.435  12.216   7.290
 5520POPC   C1B69967  34.491  12.440   6.367
 5520POPC   C2B69968  34.760  12.417   6.762
 5520POPC   C3B69969  34.918  12.340   7.200
 5520POPC   C4B69970  35.143  12.118   7.539
 5521POPC   NC369971  27.118   1.100   5.452
 5521POPC   PO469972  26.715   1.538   5.271
 5521POPC   GL169973  26.731   1.366   5.706
 5521POPC   GL269974  27.061   1.462   5.838
 5521POPC   C1A69975  26.691   1.380   6.198
 5521POPC   D2A69976  26.501   1.181   6.582
 5521POPC   C3A69977  26.666   1.251   7.000
 5521POPC   C4A69978  26.369   1.345   7.310
 5521POPC   C1B69979  27.119   1.640   6.262
 5521POPC   C2B69980  26.959   1.618   6.680
 5521POPC   C3B69981  27.113   1.510   7.060
 5521POPC   C4B69982  27.199   1.174   7.288
 5522POPC   NC369983  43.464  20.959   5.535
 5522POPC   PO469984  43.106  20.373   5.383
 5522POPC   GL169985  43.036  20.642   5.712
 5522POPC   GL269986  43.349  20.550   5.853
 5522POPC   C1A69987  42.937  20.612   6.156
 5522POPC   D2A69988  43.213  20.648   6.512
 5522POPC   C3A69989  43.039  20.569   6.901
 5522POPC   C4A69990  43.091  20.730   7.304
 5522POPC   C1B69991  43.313  20.241   6.206
 5522POPC   C2B69992  43.244  20.146   6.659
 5522POPC   C3B69993  43.409  20.228   7.090
 5522POPC   C4B69994  43.392  20.369   7.531
 5523POPC   NC369995  34.831  30.145   5.481
 5523POPC   PO469996  34.382  29.646   5.497
 5523POPC   GL169997  34.563  29.803   5.844
 5523POPC   GL269998  34.404  30.119   5.797
 5523POPC   C1A69999  34.552  29.768   6.292
 5523POPC   D2A70000  34.761  29.876   6.660
 5523POPC   C3A70001  34.384  29.846   6.916
 5523POPC   C4A70002  34.247  29.577   7.251
 5523POPC   C1B70003  34.647  30.240   6.147
 5523POPC   C2B70004  34.486  30.306   6.569
 5523POPC   C3B70005  34.650  30.281   6.979
 5523POPC   C4B70006  34.627  30.019   7.335
 5524POPC   NC370007  11.739  30.382   5.669
 5524POPC   PO470008  11.414  30.933   5.400
 5524POPC   GL170009  11.266  30.708   5.745
 5524POPC   GL270010  11.494  30.703   5.996
 5524POPC   C1A70011  11.011  30.742   6.120
 5524POPC   D2A70012  11.257  30.892   6.449
 5524POPC   C3A70013  11.058  30.891   6.816
 5524POPC   C4A70014  10.998  30.883   7.201
 5524POPC   C1B70015  11.362  30.400   6.308
 5524POPC   C2B70016  11.281  30.450   6.726
 5524POPC   C3B70017  11.497  30.678   7.045
 5524POPC   C4B70018  11.618  30.406   7.348
 5525POPC   NC370019  25.220   8.563   5.353
 5525POPC   PO470020  25.519   9.121   5.238
 5525POPC   GL170021  25.304   9.018   5.684
 5525POPC   GL270022  25.158   8.700   5.872
 5525POPC   C1A70023  25.435   9.070   6.164
 5525POPC   D2A70024  25.398   9.190   6.629
 5525POPC   C3A70025  25.360   9.050   7.058
 5525POPC   C4A70026  25.346   9.113   7.515
 5525POPC   C1B70027  25.174   8.659   6.369
 5525POPC   C2B70028  25.190   8.584   6.854
 5525POPC   C3B70029  25.097   8.680   7.307
 5525POPC   C4B70030  24.715   8.739   7.556
 5526POPC   NC370031  23.952  44.296   5.520
 5526POPC   PO470032  23.604  44.904   5.499
 5526POPC   GL170033  23.860  44.737   5.796
 5526POPC   GL270034  23.651  44.457   5.886
 5526POPC   C1A70035  24.053  44.629   6.194
 5526POPC   D2A70036  23.913  44.390   6.556
 5526POPC   C3A70037  23.938  44.524   6.955
 5526POPC   C4A70038  23.774  44.230   7.218
 5526POPC   C1B70039  23.508  44.520   6.270
 5526POPC   C2B70040  23.447  44.729   6.628
 5526POPC   C3B70041  23.434  44.588   7.043
 5526POPC   C4B70042  23.116  44.421   7.258
 5527POPC   NC370043  17.952  11.408   5.586
 5527POPC   PO470044  18.573  11.387   5.222
 5527POPC   GL170045  18.402  11.298   5.771
 5527POPC   GL270046  18.205  11.495   6.014
 5527POPC   C1A70047  18.526  11.192   6.257
 5527POPC   D2A70048  18.466  11.381   6.685
 5527POPC   C3A70049  18.250  11.232   7.074
 5527POPC   C4A70050  18.376  11.265   7.531
 5527POPC   C1B70051  17.865  11.515   6.311
 5527POPC   C2B70052  17.757  11.761   6.675
 5527POPC   C3B70053  17.816  11.780   7.128
 5527POPC   C4B70054  17.897  11.495   7.513
 5528POPC   NC370055  39.598  41.727   5.559
 5528POPC   PO470056  38.964  41.552   5.463
 5528POPC   GL170057  39.100  41.594   5.837
 5528POPC   GL270058  39.399  41.415   5.897
 5528POPC   C1A70059  39.147  41.686   6.258
 5528POPC   D2A70060  39.347  41.483   6.576
 5528POPC   C3A70061  39.299  41.718   6.940
 5528POPC   C4A70062  39.579  41.595   7.223
 5528POPC   C1B70063  39.182  41.169   6.164
 5528POPC   C2B70064  38.964  41.127   6.535
 5528POPC   C3B70065  39.036  41.259   6.946
 5528POPC   C4B70066  38.820  41.304   7.338
 5529POPC   NC370067  37.206  17.601   5.432
 5529POPC   PO470068  36.772  17.159   5.490
 5529POPC   GL170069  36.905  17.420   5.824
 5529POPC   GL270070  37.190  17.321   5.871
 5529POPC   C1A70071  36.848  17.502   6.253
 5529POPC   D2A70072  36.970  17.624   6.666
 5529POPC   C3A70073  36.683  17.507   6.988
 5529POPC   C4A70074  36.805  17.771   7.318
 5529POPC   C1B70075  37.310  17.150   6.282
 5529POPC   C2B70076  37.408  16.995   6.677
 5529POPC   C3B70077  37.149  16.997   7.034
 5529POPC   C4B70078  36.997  17.283   7.324
 5530POPC   NC370079   9.166  19.163   5.459
 5530POPC   PO470080   8.774  18.617   5.498
 5530POPC   GL170081   8.808  18.965   5.774
 5530POPC   GL270082   9.134  19.040   5.960
 5530POPC   C1A70083   8.683  19.087   6.177
 5530POPC   D2A70084   8.927  19.215   6.549
 5530POPC   C3A70085   8.755  19.094   6.946
 5530POPC   C4A70086   8.827  18.779   7.208
 5530POPC   C1B70087   9.396  19.228   6.291
 5530POPC   C2B70088   9.381  19.468   6.648
 5530POPC   C3B70089   9.228  19.241   6.993
 5530POPC   C4B70090   8.962  19.273   7.385
 5531POPC   NC370091  42.586  29.145   5.128
 5531POPC   PO470092  42.442  29.607   5.626
 5531POPC   GL170093  42.313  29.283   5.902
 5531POPC   GL270094  42.079  28.980   5.849
 5531POPC   C1A70095  42.150  29.302   6.252
 5531POPC   D2A70096  42.359  29.193   6.579
 5531POPC   C3A70097  42.450  29.483   6.884
 5531POPC   C4A70098  42.390  29.332   7.290
 5531POPC   C1B70099  41.869  28.858   6.236
 5531POPC   C2B70100  42.044  28.756   6.643
 5531POPC   C3B70101  42.302  28.895   6.987
 5531POPC   C4B70102  42.128  28.912   7.371
 5532POPC   NC370103  23.029  26.938   5.567
 5532POPC   PO470104  22.399  27.253   5.455
 5532POPC   GL170105  22.584  27.083   5.865
 5532POPC   GL270106  22.791  26.746   5.951
 5532POPC   C1A70107  22.694  27.117   6.310
 5532POPC   D2A70108  22.792  26.817   6.625
 5532POPC   C3A70109  23.034  26.927   6.973
 5532POPC   C4A70110  22.716  27.040   7.228
 5532POPC   C1B70111  22.981  26.453   6.303
 5532POPC   C2B70112  23.065  26.395   6.774
 5532POPC   C3B70113  22.937  26.499   7.216
 5532POPC   C4B70114  22.843  26.324   7.618
 5533POPC   NC370115  34.175  44.718   5.176
 5533POPC   PO470116  34.728   0.038   5.426
 5533POPC   GL170117  34.671  44.632   5.646
 5533POPC   GL270118  34.392  44.414   5.749
 5533POPC   C1A70119  34.714  44.625   6.112
 5533POPC   D2A70120  34.870  44.615   6.552
 5533POPC   C3A70121  34.860  44.922   6.868
 5533POPC   C4A70122  34.687  44.926   7.276
 5533POPC   C1B70123  34.305  44.280   6.184
 5533POPC   C2B70124  34.448  44.326   6.620
 5533POPC   C3B70125  34.274  44.344   7.021
 5533POPC   C4B70126  34.416  44.456   7.446
 5534POPC   NC370127  33.719   0.536   5.529
 5534POPC   PO470128  33.110   0.578   5.286
 5534POPC   GL170129  33.120   0.425   5.693
 5534POPC   GL270130  33.305   0.691   5.778
 5534POPC   C1A70131  32.820   0.397   6.052
 5534POPC   D2A70132  32.671   0.535   6.467
 5534POPC   C3A70133  32.727   0.276   6.838
 5534POPC   C4A70134  32.820   0.459   7.234
 5534POPC   C1B70135  33.310   0.609   6.183
 5534POPC   C2B70136  33.242   0.797   6.561
 5534POPC   C3B70137  33.210   0.536   6.911
 5534POPC   C4B70138  33.301   0.724   7.296
 5535POPC   NC370139   8.308   1.384   5.536
 5535POPC   PO470140   7.903   0.880   5.493
 5535POPC   GL170141   8.038   1.125   5.862
 5535POPC   GL270142   8.350   0.957   5.858
 5535POPC   C1A70143   8.247   1.347   6.233
 5535POPC   D2A70144   8.570   1.397   6.559
 5535POPC   C3A70145   8.335   1.430   6.941
 5535POPC   C4A70146   8.063   1.440   7.282
 5535POPC   C1B70147   8.130   0.850   6.262
 5535POPC   C2B70148   8.070   1.056   6.633
 5535POPC   C3B70149   8.163   0.946   7.021
 5535POPC   C4B70150   7.951   0.930   7.372
 5536POPC   NC370151  39.533  20.728   5.379
 5536POPC   PO470152  40.125  20.454   5.313
 5536POPC   GL170153  40.205  20.457   5.761
 5536POPC   GL270154  39.974  20.706   5.836
 5536POPC   C1A70155  40.100  20.366   6.203
 5536POPC   D2A70156  40.214  20.516   6.599
 5536POPC   C3A70157  40.135  20.269   6.939
 5536POPC   C4A70158  40.272  20.326   7.360
 5536POPC   C1B70159  40.148  20.882   6.213
 5536POPC   C2B70160  39.994  20.978   6.623
 5536POPC   C3B70161  40.156  20.843   7.000
 5536POPC   C4B70162  39.901  20.679   7.283
 5537POPC   NC370163   1.293  12.564   5.546
 5537POPC   PO470164   1.461  13.210   5.676
 5537POPC   GL170165   1.338  12.901   5.952
 5537POPC   GL270166   1.023  12.823   5.941
 5537POPC   C1A70167   1.301  12.717   6.360
 5537POPC   D2A70168   1.532  12.795   6.710
 5537POPC   C3A70169   1.316  12.701   7.040
 5537POPC   C4A70170   1.165  13.114   7.121
 5537POPC   C1B70171   0.776  12.787   6.307
 5537POPC   C2B70172   0.924  12.868   6.713
 5537POPC   C3B70173   0.808  12.739   7.103
 5537POPC   C4B70174   1.036  12.563   7.452
 5538POPC   NC370175  18.237   4.409   5.385
 5538POPC   PO470176  18.691   3.986   5.720
 5538POPC   GL170177  18.427   4.317   5.850
 5538POPC   GL270178  18.492   4.663   5.766
 5538POPC   C1A70179  18.199   4.296   6.224
 5538POPC   D2A70180  18.430   4.112   6.584
 5538POPC   C3A70181  18.239   4.193   6.980
 5538POPC   C4A70182  18.399   3.879   7.233
 5538POPC   C1B70183  18.386   4.775   6.184
 5538POPC   C2B70184  18.378   4.609   6.597
 5538POPC   C3B70185  18.294   4.719   6.987
 5538POPC   C4B70186  18.576   4.969   7.174
 5539POPC   NC370187   0.524  32.024   5.402
 5539POPC   PO470188   0.336  32.710   5.387
 5539POPC   GL170189   0.565  32.447   5.689
 5539POPC   GL270190   0.279  32.310   5.788
 5539POPC   C1A70191   0.693  32.336   6.114
 5539POPC   D2A70192   0.518  32.429   6.530
 5539POPC   C3A70193   0.665  32.281   6.872
 5539POPC   C4A70194   0.631  32.023   7.207
 5539POPC   C1B70195   0.184  32.184   6.190
 5539POPC   C2B70196   0.002  32.274   6.560
 5539POPC   C3B70197   0.184  32.096   6.916
 5539POPC   C4B70198   0.221  32.332   7.256
 5540POPC   NC370199  23.156   0.023   5.474
 5540POPC   PO470200  22.786  44.453   5.554
 5540POPC   GL170201  23.064  44.576   5.904
 5540POPC   GL270202  23.293  44.859   5.943
 5540POPC   C1A70203  22.998  44.647   6.341
 5540POPC   D2A70204  23.010  44.502   6.751
 5540POPC   C3A70205  22.681  44.532   7.034
 5540POPC   C4A70206  22.692  44.529   7.529
 5540POPC   C1B70207  23.215   0.169   6.289
 5540POPC   C2B70208  23.221   0.186   6.751
 5540POPC   C3B70209  23.054  44.927   7.033
 5540POPC   C4B70210  22.740  44.962   7.303
 5541POPC   NC370211  44.061  29.147   5.558
 5541POPC   PO470212  43.641  28.699   5.836
 5541POPC   GL170213  43.707  29.167   5.944
 5541POPC   GL270214  44.015  29.428   5.962
 5541POPC   C1A70215  43.745  29.296   6.386
 5541POPC   D2A70216  43.865  29.422   6.822
 5541POPC   C3A70217  43.751  29.102   7.159
 5541POPC   C4A70218  43.563  28.660   7.138
 5541POPC   C1B70219  44.217  29.113   6.219
 5541POPC   C2B70220  44.254  29.094   6.649
 5541POPC   C3B70221  44.246  29.166   7.057
 5541POPC   C4B70222  44.239  28.881   7.404
 5542POPC   NC370223   0.954  39.972   5.361
 5542POPC   PO470224   1.433  39.527   5.529
 5542POPC   GL170225   1.282  39.748   5.860
 5542POPC   GL270226   1.003  39.945   5.860
 5542POPC   C1A70227   1.419  39.755   6.261
 5542POPC   D2A70228   1.521  39.923   6.661
 5542POPC   C3A70229   1.357  39.704   7.021
 5542POPC   C4A70230   1.241  39.775   7.472
 5542POPC   C1B70231   1.142  40.170   6.244
 5542POPC   C2B70232   1.047  40.147   6.700
 5542POPC   C3B70233   1.339  40.211   7.034
 5542POPC   C4B70234   1.463  40.291   7.404
 5543POPC   NC370235   5.656  36.505   5.388
 5543POPC   PO470236   5.764  35.869   5.592
 5543POPC   GL170237   6.090  35.923   5.859
 5543POPC   GL270238   6.219  36.256   5.783
 5543POPC   C1A70239   5.864  36.006   6.242
 5543POPC   D2A70240   5.919  35.935   6.634
 5543POPC   C3A70241   5.662  36.112   6.932
 5543POPC   C4A70242   5.741  35.914   7.307
 5543POPC   C1B70243   6.123  36.435   6.174
 5543POPC   C2B70244   5.965  36.461   6.596
 5543POPC   C3B70245   6.196  36.255   6.919
 5543POPC   C4B70246   6.179  36.167   7.335
 5544POPC   NC370247  26.321   9.963   5.386
 5544POPC   PO470248  25.784   9.618   5.438
 5544POPC   GL170249  25.931   9.898   5.732
 5544POPC   GL270250  26.220   9.706   5.819
 5544POPC   C1A70251  26.067  10.066   6.124
 5544POPC   D2A70252  25.922   9.904   6.502
 5544POPC   C3A70253  26.187   9.662   6.746
 5544POPC   C4A70254  26.162   9.764   7.183
 5544POPC   C1B70255  25.873   9.506   6.077
 5544POPC   C2B70256  25.872   9.326   6.496
 5544POPC   C3B70257  25.738   9.476   6.904
 5544POPC   C4B70258  25.771   9.348   7.315
 5545POPC   NC370259  16.248  22.396   5.383
 5545POPC   PO470260  15.683  22.030   5.380
 5545POPC   GL170261  16.018  22.053   5.736
 5545POPC   GL270262  15.976  22.381   5.835
 5545POPC   C1A70263  16.228  22.003   6.178
 5545POPC   D2A70264  16.323  22.298   6.534
 5545POPC   C3A70265  16.314  22.132   6.941
 5545POPC   C4A70266  16.214  22.169   7.352
 5545POPC   C1B70267  15.782  22.223   6.231
 5545POPC   C2B70268  15.609  22.228   6.626
 5545POPC   C3B70269  15.794  22.238   7.023
 5545POPC   C4B70270  15.701  22.092   7.414
 5546POPC   NC370271   8.855  37.883   5.454
 5546POPC   PO470272   9.376  37.470   5.614
 5546POPC   GL170273   9.007  37.569   5.808
 5546POPC   GL270274   8.993  37.909   5.944
 5546POPC   C1A70275   8.693  37.511   6.113
 5546POPC   D2A70276   8.878  37.726   6.465
 5546POPC   C3A70277   8.724  37.632   6.864
 5546POPC   C4A70278   8.876  37.626   7.262
 5546POPC   C1B70279   9.347  37.743   6.197
 5546POPC   C2B70280   9.509  37.635   6.585
 5546POPC   C3B70281   9.259  37.762   6.913
 5546POPC   C4B70282   9.169  38.039   7.239
 5547POPC   NC370283  33.092  24.902   5.582
 5547POPC   PO470284  33.390  25.406   5.245
 5547POPC   GL170285  33.018  25.361   5.709
 5547POPC   GL270286  33.120  25.555   6.003
 5547POPC   C1A70287  32.930  25.132   6.168
 5547POPC   D2A70288  33.019  25.387   6.540
 5547POPC   C3A70289  33.170  25.202   6.894
 5547POPC   C4A70290  33.338  25.313   7.305
 5547POPC   C1B70291  32.698  25.583   6.192
 5547POPC   C2B70292  32.515  25.513   6.606
 5547POPC   C3B70293  32.602  25.694   7.009
 5547POPC   C4B70294  33.029  25.654   7.157
 5548POPC   NC370295  19.608  42.761   5.462
 5548POPC   PO470296  19.858  43.412   5.508
 5548POPC   GL170297  19.673  43.156   5.807
 5548POPC   GL270298  19.817  42.820   5.916
 5548POPC   C1A70299  19.724  43.256   6.237
 5548POPC   D2A70300  19.531  43.415   6.612
 5548POPC   C3A70301  19.682  43.300   7.017
 5548POPC   C4A70302  19.612  43.067   7.382
 5548POPC   C1B70303  19.924  42.790   6.359
 5548POPC   C2B70304  20.018  43.149   6.641
 5548POPC   C3B70305  20.208  43.206   7.031
 5548POPC   C4B70306  20.065  42.861   7.283
 5549POPC   NC370307   3.675   5.417   5.245
 5549POPC   PO470308   3.714   6.026   5.467
 5549POPC   GL170309   3.555   6.050   5.874
 5549POPC   GL270310   3.794   6.239   5.946
 5549POPC   C1A70311   3.218   6.025   6.217
 5549POPC   D2A70312   3.014   5.878   6.573
 5549POPC   C3A70313   3.208   5.918   6.967
 5549POPC   C4A70314   3.307   5.699   7.327
 5549POPC   C1B70315   3.640   6.253   6.368
 5549POPC   C2B70316   3.787   6.229   6.771
 5549POPC   C3B70317   3.938   5.866   6.902
 5549POPC   C4B70318   3.809   5.749   7.274
 5550POPC   NC370319  21.714  27.572   5.648
 5550POPC   PO470320  22.216  27.807   5.234
 5550POPC   GL170321  22.209  27.639   5.725
 5550POPC   GL270322  22.053  27.232   5.813
 5550POPC   C1A70323  22.104  27.861   6.139
 5550POPC   D2A70324  22.091  28.090   6.547
 5550POPC   C3A70325  22.259  27.840   6.882
 5550POPC   C4A70326  22.151  27.800   7.282
 5550POPC   C1B70327  22.130  27.344   6.218
 5550POPC   C2B70328  22.200  27.413   6.634
 5550POPC   C3B70329  21.960  27.435   7.009
 5550POPC   C4B70330  22.106  27.307   7.396
 5551POPC   NC370331  36.970  40.556   5.485
 5551POPC   PO470332  37.108  41.173   5.396
 5551POPC   GL170333  37.047  40.901   5.845
 5551POPC   GL270334  37.210  40.521   5.925
 5551POPC   C1A70335  36.823  40.692   6.225
 5551POPC   D2A70336  36.858  40.471   6.648
 5551POPC   C3A70337  36.865  40.787   6.993
 5551POPC   C4A70338  36.598  40.836   7.343
 5551POPC   C1B70339  37.504  40.427   6.273
 5551POPC   C2B70340  37.404  40.410   6.714
 5551POPC   C3B70341  37.162  40.364   7.062
 5551POPC   C4B70342  37.246  40.649   7.366
 5552POPC   NC370343  37.878  17.009   5.614
 5552POPC   PO470344  37.507  16.444   5.423
 5552POPC   GL170345  37.618  16.614   5.840
 5552POPC   GL270346  37.475  16.911   5.885
 5552POPC   C1A70347  37.469  16.617   6.294
 5552POPC   D2A70348  37.701  16.540   6.663
 5552POPC   C3A70349  37.584  16.702   7.064
 5552POPC   C4A70350  37.633  16.799   7.489
 5552POPC   C1B70351  37.810  16.980   6.241
 5552POPC   C2B70352  37.893  17.168   6.620
 5552POPC   C3B70353  37.763  17.188   7.038
 5552POPC   C4B70354  38.033  17.061   7.366
 5553POPC   NC370355  20.668  37.299   5.440
 5553POPC   PO470356  20.594  36.658   5.454
 5553POPC   GL170357  20.441  36.885   5.824
 5553POPC   GL270358  20.127  36.773   5.928
 5553POPC   C1A70359  20.473  36.947   6.292
 5553POPC   D2A70360  20.465  37.120   6.737
 5553POPC   C3A70361  20.586  36.805   7.055
 5553POPC   C4A70362  20.913  36.776   7.357
 5553POPC   C1B70363  20.094  36.556   6.285
 5553POPC   C2B70364  20.220  36.647   6.710
 5553POPC   C3B70365  20.109  36.660   7.130
 5553POPC   C4B70366  20.358  36.675   7.530
 5554POPC   NC370367  40.011  30.255   5.256
 5554POPC   PO470368  39.610  30.732   5.422
 5554POPC   GL170369  39.860  30.530   5.726
 5554POPC   GL270370  40.053  30.839   5.808
 5554POPC   C1A70371  39.960  30.491   6.176
 5554POPC   D2A70372  39.877  30.663   6.596
 5554POPC   C3A70373  39.982  30.434   6.975
 5554POPC   C4A70374  40.029  30.451   7.421
 5554POPC   C1B70375  39.981  31.071   6.222
 5554POPC   C2B70376  40.067  31.146   6.674
 5554POPC   C3B70377  40.008  30.943   7.087
 5554POPC   C4B70378  40.083  30.906   7.583
 5555POPC   NC370379  34.238  18.043   5.470
 5555POPC   PO470380  34.834  18.313   5.443
 5555POPC   GL170381  34.597  18.452   5.835
 5555POPC   GL270382  34.273  18.290   5.962
 5555POPC   C1A70383  34.637  18.517   6.295
 5555POPC   D2A70384  34.685  18.125   6.546
 5555POPC   C3A70385  34.572  18.070   6.964
 5555POPC   C4A70386  34.670  17.864   7.328
 5555POPC   C1B70387  34.185  18.240   6.434
 5555POPC   C2B70388  34.323  18.485   6.812
 5555POPC   C3B70389  34.359  18.625   7.257
 5555POPC   C4B70390  34.203  18.540   7.725
 5556POPC   NC370391  15.813  40.285   5.498
 5556POPC   PO470392  16.320  39.962   5.343
 5556POPC   GL170393  16.119  39.891   5.749
 5556POPC   GL270394  16.300  40.190   5.899
 5556POPC   C1A70395  15.909  39.677   6.135
 5556POPC   D2A70396  16.115  39.702   6.518
 5556POPC   C3A70397  15.972  39.832   6.896
 5556POPC   C4A70398  15.931  39.756   7.294
 5556POPC   C1B70399  15.919  40.168   6.136
 5556POPC   C2B70400  15.903  40.197   6.546
 5556POPC   C3B70401  16.188  40.300   6.857
 5556POPC   C4B70402  16.034  40.250   7.252
 5557POPC   NC370403  41.186  35.463   5.442
 5557POPC   PO470404  40.578  35.693   5.485
 5557POPC   GL170405  40.836  35.467   5.828
 5557POPC   GL270406  40.734  35.165   5.893
 5557POPC   C1A70407  40.910  35.343   6.307
 5557POPC   D2A70408  41.059  35.348   6.726
 5557POPC   C3A70409  40.805  35.284   7.082
 5557POPC   C4A70410  40.699  35.684   7.215
 5557POPC   C1B70411  40.440  35.124   6.237
 5557POPC   C2B70412  40.500  35.225   6.659
 5557POPC   C3B70413  40.346  35.030   7.025
 5557POPC   C4B70414  40.504  34.869   7.403
 5558POPC   NC370415  20.967   6.349   5.456
 5558POPC   PO470416  20.262   6.457   5.397
 5558POPC   GL170417  20.563   6.556   5.730
 5558POPC   GL270418  20.671   6.866   5.876
 5558POPC   C1A70419  20.500   6.436   6.155
 5558POPC   D2A70420  20.332   6.600   6.534
 5558POPC   C3A70421  20.627   6.498   6.844
 5558POPC   C4A70422  20.597   6.485   7.275
 5558POPC   C1B70423  20.533   7.021   6.271
 5558POPC   C2B70424  20.676   7.000   6.707
 5558POPC   C3B70425  20.673   7.061   7.149
 5558POPC   C4B70426  20.939   6.914   7.443
 5559POPC   NC370427   7.247   9.840   5.335
 5559POPC   PO470428   7.840   9.558   5.421
 5559POPC   GL170429   7.568   9.830   5.760
 5559POPC   GL270430   7.167   9.791   5.825
 5559POPC   C1A70431   7.658   9.799   6.221
 5559POPC   D2A70432   7.721   9.504   6.569
 5559POPC   C3A70433   7.506   9.453   7.013
 5559POPC   C4A70434   7.503   9.774   7.322
 5559POPC   C1B70435   7.142   9.849   6.253
 5559POPC   C2B70436   7.287   9.715   6.649
 5559POPC   C3B70437   7.103   9.819   7.022
 5559POPC   C4B70438   6.983  10.233   7.094
 5560POPC   NC370439   3.839  27.363   5.431
 5560POPC   PO470440   3.270  27.738   5.347
 5560POPC   GL170441   3.462  27.628   5.757
 5560POPC   GL270442   3.812  27.739   5.827
 5560POPC   C1A70443   3.298  27.634   6.190
 5560POPC   D2A70444   3.325  27.865   6.574
 5560POPC   C3A70445   3.446  27.652   6.975
 5560POPC   C4A70446   3.307  27.548   7.395
 5560POPC   C1B70447   3.789  27.796   6.285
 5560POPC   C2B70448   3.917  27.803   6.714
 5560POPC   C3B70449   3.844  27.948   7.127
 5560POPC   C4B70450   3.833  27.637   7.383
 5561POPC   NC370451  35.777  44.529   5.369
 5561POPC   PO470452  36.285  44.943   5.196
 5561POPC   GL170453  36.168  44.773   5.609
 5561POPC   GL270454  36.380  44.488   5.729
 5561POPC   C1A70455  36.020  44.723   6.050
 5561POPC   D2A70456  36.002  44.534   6.482
 5561POPC   C3A70457  36.000  44.808   6.852
 5561POPC   C4A70458  35.634  44.888   7.102
 5561POPC   C1B70459  36.529  44.590   6.166
 5561POPC   C2B70460  36.486  44.837   6.549
 5561POPC   C3B70461  36.507  44.905   6.987
 5561POPC   C4B70462  36.365  44.552   7.159
 5562POPC   NC370463   1.960  18.482   5.470
 5562POPC   PO470464   1.734  17.869   5.619
 5562POPC   GL170465   1.938  18.187   5.909
 5562POPC   GL270466   1.791  18.552   5.943
 5562POPC   C1A70467   2.277  18.295   6.221
 5562POPC   D2A70468   2.369  18.536   6.625
 5562POPC   C3A70469   2.075  18.381   6.945
 5562POPC   C4A70470   2.140  18.124   7.309
 5562POPC   C1B70471   1.577  18.380   6.285
 5562POPC   C2B70472   1.442  18.504   6.696
 5562POPC   C3B70473   1.637  18.648   7.055
 5562POPC   C4B70474   1.774  18.446   7.441
 5563POPC   NC370475  33.962  16.611   5.215
 5563POPC   PO470476  33.625  17.128   5.419
 5563POPC   GL170477  33.915  16.899   5.701
 5563POPC   GL270478  33.969  16.522   5.733
 5563POPC   C1A70479  33.996  16.850   6.144
 5563POPC   D2A70480  33.970  17.051   6.548
 5563POPC   C3A70481  33.775  16.803   6.852
 5563POPC   C4A70482  33.956  16.641   7.213
 5563POPC   C1B70483  33.752  16.392   6.139
 5563POPC   C2B70484  33.873  16.335   6.582
 5563POPC   C3B70485  33.686  16.304   6.972
 5563POPC   C4B70486  33.463  16.461   7.298
 5564POPC   NC370487  42.938  36.589   5.483
 5564POPC   PO470488  43.206  37.253   5.271
 5564POPC   GL170489  43.294  36.894   5.633
 5564POPC   GL270490  43.001  36.917   5.874
 5564POPC   C1A70491  43.443  36.737   6.072
 5564POPC   D2A70492  43.340  36.598   6.501
 5564POPC   C3A70493  43.213  36.877   6.826
 5564POPC   C4A70494  42.985  36.857   7.190
 5564POPC   C1B70495  42.795  36.726   6.226
 5564POPC   C2B70496  42.845  36.402   6.536
 5564POPC   C3B70497  42.761  36.431   6.964
 5564POPC   C4B70498  42.570  36.614   7.350
 5565POPC   NC370499  39.633  40.010   5.502
 5565POPC   PO470500  40.298  40.266   5.493
 5565POPC   GL170501  40.035  40.290   5.832
 5565POPC   GL270502  40.049  39.959   5.852
 5565POPC   C1A70503  40.083  40.306   6.280
 5565POPC   D2A70504  40.314  40.383   6.671
 5565POPC   C3A70505  40.077  40.212   7.018
 5565POPC   C4A70506  39.670  40.024   7.067
 5565POPC   C1B70507  39.897  39.792   6.213
 5565POPC   C2B70508  39.919  39.837   6.650
 5565POPC   C3B70509  40.042  39.662   7.042
 5565POPC   C4B70510  40.154  39.827   7.430
 5566POPC   NC370511  25.024  28.377   5.500
 5566POPC   PO470512  25.460  28.706   5.245
 5566POPC   GL170513  25.386  28.654   5.746
 5566POPC   GL270514  25.343  28.306   5.878
 5566POPC   C1A70515  25.107  28.614   6.178
 5566POPC   D2A70516  25.056  28.389   6.601
 5566POPC   C3A70517  25.168  28.628   6.990
 5566POPC   C4A70518  25.465  28.954   7.197
 5566POPC   C1B70519  25.413  28.082   6.246
 5566POPC   C2B70520  25.537  28.205   6.651
 5566POPC   C3B70521  25.383  28.129   7.037
 5566POPC   C4B70522  25.523  27.878   7.384
 5567POPC   NC370523  36.136  40.497   5.212
 5567POPC   PO470524  36.345  41.040   5.513
 5567POPC   GL170525  36.085  40.950   5.870
 5567POPC   GL270526  36.022  40.630   5.730
 5567POPC   C1A70527  36.152  40.909   6.307
 5567POPC   D2A70528  36.378  40.569   6.492
 5567POPC   C3A70529  36.327  40.550   6.934
 5567POPC   C4A70530  36.107  40.884   7.179
 5567POPC   C1B70531  35.802  40.576   6.144
 5567POPC   C2B70532  35.873  40.449   6.600
 5567POPC   C3B70533  35.812  40.470   7.065
 5567POPC   C4B70534  35.883  40.472   7.526
 5568POPC   NC370535  38.720  29.956   5.416
 5568POPC   PO470536  38.163  30.350   5.477
 5568POPC   GL170537  38.324  30.044   5.748
 5568POPC   GL270538  38.594  30.183   5.862
 5568POPC   C1A70539  38.440  29.730   6.096
 5568POPC   D2A70540  38.598  29.886   6.502
 5568POPC   C3A70541  38.427  29.760   6.909
 5568POPC   C4A70542  38.592  29.681   7.302
 5568POPC   C1B70543  38.740  30.361   6.211
 5568POPC   C2B70544  38.972  30.247   6.594
 5568POPC   C3B70545  38.789  30.146   7.009
 5568POPC   C4B70546  38.708  30.389   7.387
 5569POPC   NC370547  17.053  38.770   5.508
 5569POPC   PO470548  16.700  38.225   5.361
 5569POPC   GL170549  16.752  38.190   5.836
 5569POPC   GL270550  16.454  37.987   5.865
 5569POPC   C1A70551  16.874  38.455   6.277
 5569POPC   D2A70552  16.748  38.682   6.721
 5569POPC   C3A70553  16.729  38.418   7.137
 5569POPC   C4A70554  17.046  38.482   7.475
 5569POPC   C1B70555  16.423  38.217   6.248
 5569POPC   C2B70556  16.642  38.173   6.651
 5569POPC   C3B70557  16.464  37.995   7.012
 5569POPC   C4B70558  16.387  38.138   7.428
 5570POPC   NC370559  34.449  11.636   5.643
 5570POPC   PO470560  34.698  11.057   5.307
 5570POPC   GL170561  34.570  11.002   5.779
 5570POPC   GL270562  34.235  10.966   5.981
 5570POPC   C1A70563  34.608  11.181   6.216
 5570POPC   D2A70564  34.475  11.449   6.547
 5570POPC   C3A70565  34.614  11.357   6.952
 5570POPC   C4A70566  34.411  11.142   7.267
 5570POPC   C1B70567  34.124  11.416   6.171
 5570POPC   C2B70568  33.972  11.575   6.575
 5570POPC   C3B70569  34.167  11.593   6.947
 5570POPC   C4B70570  34.349  11.682   7.310
 5571POPC   NC370571  19.908  27.186   5.390
 5571POPC   PO470572  20.054  26.588   5.468
 5571POPC   GL170573  19.804  26.783   5.789
 5571POPC   GL270574  20.073  27.014   5.861
 5571POPC   C1A70575  19.690  26.655   6.252
 5571POPC   D2A70576  19.819  26.803   6.696
 5571POPC   C3A70577  19.590  26.696   7.106
 5571POPC   C4A70578  19.476  26.989   7.478
 5571POPC   C1B70579  20.214  26.785   6.249
 5571POPC   C2B70580  20.322  26.879   6.698
 5571POPC   C3B70581  20.162  26.841   7.119
 5571POPC   C4B70582  19.970  26.499   7.364
 5572POPC   NC370583  34.742  17.111   5.421
 5572POPC   PO470584  34.434  17.617   5.527
 5572POPC   GL170585  34.519  17.318   5.862
 5572POPC   GL270586  34.849  17.106   5.917
 5572POPC   C1A70587  34.321  17.353   6.258
 5572POPC   D2A70588  34.444  17.203   6.656
 5572POPC   C3A70589  34.507  17.530   6.966
 5572POPC   C4A70590  34.445  17.419   7.397
 5572POPC   C1B70591  34.846  17.271   6.324
 5572POPC   C2B70592  34.942  17.289   6.762
 5572POPC   C3B70593  34.693  17.069   7.098
 5572POPC   C4B70594  34.805  17.061   7.520
 5573POPC   NC370595  36.326   8.185   5.408
 5573POPC   PO470596  35.654   8.062   5.626
 5573POPC   GL170597  36.025   8.221   5.825
 5573POPC   GL270598  36.287   7.916   5.837
 5573POPC   C1A70599  36.091   8.368   6.260
 5573POPC   D2A70600  35.941   8.378   6.693
 5573POPC   C3A70601  36.193   8.519   7.047
 5573POPC   C4A70602  36.140   8.369   7.462
 5573POPC   C1B70603  35.985   7.843   6.171
 5573POPC   C2B70604  36.122   7.913   6.581
 5573POPC   C3B70605  36.164   7.995   7.003
 5573POPC   C4B70606  36.538   8.109   7.206
 5574POPC   NC370607  23.511  13.207   5.462
 5574POPC   PO470608  23.930  13.798   5.465
 5574POPC   GL170609  23.636  13.618   5.794
 5574POPC   GL270610  23.581  13.281   5.938
 5574POPC   C1A70611  23.573  13.663   6.254
 5574POPC   D2A70612  23.681  13.759   6.678
 5574POPC   C3A70613  23.746  13.509   7.061
 5574POPC   C4A70614  23.615  13.803   7.453
 5574POPC   C1B70615  23.346  13.145   6.273
 5574POPC   C2B70616  23.282  13.422   6.597
 5574POPC   C3B70617  23.104  13.450   6.948
 5574POPC   C4B70618  23.327  13.413   7.314
 5575POPC   NC370619  27.158  44.459   5.150
 5575POPC   PO470620  26.854  44.980   5.338
 5575POPC   GL170621  26.870  44.835   5.786
 5575POPC   GL270622  26.678  44.505   5.833
 5575POPC   C1A70623  27.042  44.879   6.240
 5575POPC   D2A70624  27.309  44.673   6.615
 5575POPC   C3A70625  27.117  44.897   6.997
 5575POPC   C4A70626  26.850  44.896   7.352
 5575POPC   C1B70627  26.781  44.435   6.280
 5575POPC   C2B70628  26.817  44.644   6.657
 5575POPC   C3B70629  26.700  44.519   7.062
 5575POPC   C4B70630  26.275  44.414   7.114
 5576POPC   NC370631  35.657  18.927   5.421
 5576POPC   PO470632  35.018  19.192   5.387
 5576POPC   GL170633  35.310  19.164   5.740
 5576POPC   GL270634  35.412  18.847   5.874
 5576POPC   C1A70635  35.482  19.273   6.166
 5576POPC   D2A70636  35.650  19.233   6.596
 5576POPC   C3A70637  35.354  19.204   6.925
 5576POPC   C4A70638  35.482  19.213   7.346
 5576POPC   C1B70639  35.296  18.625   6.276
 5576POPC   C2B70640  35.393  18.751   6.675
 5576POPC   C3B70641  35.285  18.729   7.125
 5576POPC   C4B70642  35.528  18.686   7.494
 5577POPC   NC370643  41.608   3.176   5.401
 5577POPC   PO470644  41.363   3.811   5.498
 5577POPC   GL170645  41.314   3.452   5.737
 5577POPC   GL270646  41.669   3.466   5.829
 5577POPC   C1A70647  41.179   3.297   6.125
 5577POPC   D2A70648  41.381   3.428   6.504
 5577POPC   C3A70649  41.219   3.486   6.927
 5577POPC   C4A70650  41.385   3.383   7.321
 5577POPC   C1B70651  41.844   3.260   6.181
 5577POPC   C2B70652  41.749   3.053   6.558
 5577POPC   C3B70653  41.803   3.246   6.950
 5577POPC   C4B70654  41.897   3.420   7.339
 5578POPC   NC370655  19.305   1.878   5.545
 5578POPC   PO470656  18.772   2.153   5.705
 5578POPC   GL170657  19.071   1.970   5.991
 5578POPC   GL270658  19.466   2.007   5.991
 5578POPC   C1A70659  19.188   1.827   6.379
 5578POPC   D2A70660  19.294   1.580   6.723
 5578POPC   C3A70661  19.288   1.830   7.067
 5578POPC   C4A70662  18.939   2.119   7.219
 5578POPC   C1B70663  19.416   2.293   6.293
 5578POPC   C2B70664  19.229   2.232   6.699
 5578POPC   C3B70665  19.405   2.316   7.088
 5578POPC   C4B70666  19.399   2.489   7.488
 5579POPC   NC370667  37.370  22.760   5.525
 5579POPC   PO470668  37.760  23.186   5.510
 5579POPC   GL170669  37.835  23.128   5.930
 5579POPC   GL270670  37.935  22.805   6.029
 5579POPC   C1A70671  37.586  23.125   6.342
 5579POPC   D2A70672  37.280  23.180   6.707
 5579POPC   C3A70673  37.561  23.124   7.075
 5579POPC   C4A70674  37.899  22.862   7.256
 5579POPC   C1B70675  37.598  22.620   6.318
 5579POPC   C2B70676  37.491  22.714   6.779
 5579POPC   C3B70677  37.364  22.672   7.234
 5579POPC   C4B70678  37.499  22.909   7.582
 5580POPC   NC370679  42.071  33.430   5.505
 5580POPC   PO470680  42.375  34.071   5.369
 5580POPC   GL170681  42.345  33.856   5.755
 5580POPC   GL270682  42.534  33.556   5.737
 5580POPC   C1A70683  42.089  33.883   6.148
 5580POPC   D2A70684  42.324  33.934   6.550
 5580POPC   C3A70685  42.100  34.000   6.939
 5580POPC   C4A70686  42.016  33.858   7.347
 5580POPC   C1B70687  42.477  33.566   6.199
 5580POPC   C2B70688  42.264  33.441   6.595
 5580POPC   C3B70689  42.289  33.514   7.058
 5580POPC   C4B70690  42.358  33.519   7.518
 5581POPC   NC370691  25.097  30.277   5.231
 5581POPC   PO470692  25.434  30.826   5.368
 5581POPC   GL170693  25.144  30.762   5.737
 5581POPC   GL270694  25.147  30.407   5.742
 5581POPC   C1A70695  25.034  30.715   6.212
 5581POPC   D2A70696  25.177  30.917   6.630
 5581POPC   C3A70697  25.183  30.854   7.101
 5581POPC   C4A70698  25.529  30.966   7.398
 5581POPC   C1B70699  25.134  30.192   6.135
 5581POPC   C2B70700  25.234  30.347   6.548
 5581POPC   C3B70701  25.157  30.205   6.962
 5581POPC   C4B70702  25.158  30.218   7.398
 5582POPC   NC370703  41.931   0.197   5.371
 5582POPC   PO470704  41.363   0.596   5.279
 5582POPC   GL170705  41.523   0.429   5.701
 5582POPC   GL270706  41.617   0.739   5.876
 5582POPC   C1A70707  41.409   0.281   6.146
 5582POPC   D2A70708  41.625   0.277   6.561
 5582POPC   C3A70709  41.520   0.194   6.984
 5582POPC   C4A70710  41.422   0.327   7.401
 5582POPC   C1B70711  41.697   0.972   6.273
 5582POPC   C2B70712  41.790   0.763   6.669
 5582POPC   C3B70713  41.611   0.704   7.079
 5582POPC   C4B70714  41.279   0.826   7.379
 5583POPC   NC370715  31.093  29.550   5.414
 5583POPC   PO470716  30.456  29.913   5.357
 5583POPC   GL170717  30.744  29.856   5.736
 5583POPC   GL270718  30.885  29.559   5.862
 5583POPC   C1A70719  30.851  29.982   6.177
 5583POPC   D2A70720  30.638  30.090   6.574
 5583POPC   C3A70721  30.772  29.967   6.995
 5583POPC   C4A70722  31.026  30.194   7.276
 5583POPC   C1B70723  31.027  29.479   6.239
 5583POPC   C2B70724  30.915  29.645   6.608
 5583POPC   C3B70725  31.002  29.484   7.007
 5583POPC   C4B70726  30.958  29.694   7.401
 5584POPC   NC370727  31.862  41.263   5.701
 5584POPC   PO470728  31.184  41.511   5.526
 5584POPC   GL170729  31.394  41.410   5.847
 5584POPC   GL270730  31.525  41.721   5.919
 5584POPC   C1A70731  31.507  41.291   6.259
 5584POPC   D2A70732  31.259  41.225   6.608
 5584POPC   C3A70733  31.422  41.438   6.911
 5584POPC   C4A70734  31.231  41.395   7.294
 5584POPC   C1B70735  31.255  41.886   6.218
 5584POPC   C2B70736  31.239  42.023   6.651
 5584POPC   C3B70737  31.263  41.883   7.094
 5584POPC   C4B70738  31.649  41.678   7.303
 5585POPC   NC370739  24.054  29.033   5.438
 5585POPC   PO470740  24.650  29.290   5.296
 5585POPC   GL170741  24.537  29.379   5.738
 5585POPC   GL270742  24.362  29.087   5.855
 5585POPC   C1A70743  24.773  29.425   6.138
 5585POPC   D2A70744  24.626  29.324   6.536
 5585POPC   C3A70745  24.649  29.393   6.952
 5585POPC   C4A70746  24.352  29.208   7.244
 5585POPC   C1B70747  24.229  29.115   6.296
 5585POPC   C2B70748  24.261  29.030   6.740
 5585POPC   C3B70749  24.064  28.826   7.070
 5585POPC   C4B70750  24.068  28.888   7.533
 5586POPC   NC370751  27.861  15.447   5.514
 5586POPC   PO470752  27.938  16.135   5.370
 5586POPC   GL170753  27.703  15.949   5.763
 5586POPC   GL270754  27.445  15.665   5.736
 5586POPC   C1A70755  27.565  16.138   6.193
 5586POPC   D2A70756  27.656  15.936   6.582
 5586POPC   C3A70757  27.750  16.170   6.932
 5586POPC   C4A70758  27.805  16.293   7.351
 5586POPC   C1B70759  27.449  15.627   6.191
 5586POPC   C2B70760  27.268  15.600   6.610
 5586POPC   C3B70761  27.460  15.738   7.018
 5586POPC   C4B70762  27.301  16.137   7.230
 5587POPC   NC370763  11.665   1.033   5.466
 5587POPC   PO470764  11.053   1.359   5.548
 5587POPC   GL170765  11.270   1.193   5.894
 5587POPC   GL270766  11.640   1.245   5.934
 5587POPC   C1A70767  11.291   1.176   6.329
 5587POPC   D2A70768  11.604   1.134   6.592
 5587POPC   C3A70769  11.413   1.207   6.953
 5587POPC   C4A70770  11.071   1.052   7.129
 5587POPC   C1B70771  11.642   1.561   6.239
 5587POPC   C2B70772  11.438   1.629   6.601
 5587POPC   C3B70773  11.637   1.667   6.968
 5587POPC   C4B70774  11.622   1.470   7.332
 5588POPC   NC370775  22.612  22.011   5.407
 5588POPC   PO470776  23.104  22.425   5.282
 5588POPC   GL170777  22.979  22.279   5.757
 5588POPC   GL270778  22.702  22.103   5.892
 5588POPC   C1A70779  23.079  21.951   6.169
 5588POPC   D2A70780  22.847  21.771   6.551
 5588POPC   C3A70781  22.908  21.901   7.017
 5588POPC   C4A70782  23.187  21.903   7.387
 5588POPC   C1B70783  22.859  22.409   6.231
 5588POPC   C2B70784  22.908  22.278   6.654
 5588POPC   C3B70785  22.789  22.470   7.047
 5588POPC   C4B70786  22.846  22.337   7.462
 5589POPC   NC370787  12.482  29.102   5.479
 5589POPC   PO470788  12.022  29.570   5.338
 5589POPC   GL170789  12.071  29.284   5.753
 5589POPC   GL270790  12.035  28.907   5.814
 5589POPC   C1A70791  12.339  29.219   6.140
 5589POPC   D2A70792  12.279  29.033   6.569
 5589POPC   C3A70793  12.357  29.289   6.916
 5589POPC   C4A70794  12.243  29.403   7.319
 5589POPC   C1B70795  11.857  29.091   6.210
 5589POPC   C2B70796  11.813  29.259   6.632
 5589POPC   C3B70797  11.851  29.140   7.070
 5589POPC   C4B70798  11.945  28.943   7.460
 5590POPC   NC370799  18.103   3.236   5.287
 5590POPC   PO470800  18.344   3.938   5.315
 5590POPC   GL170801  18.374   3.520   5.644
 5590POPC   GL270802  18.122   3.517   5.931
 5590POPC   C1A70803  18.574   3.310   6.041
 5590POPC   D2A70804  18.558   3.143   6.490
 5590POPC   C3A70805  18.541   3.415   6.860
 5590POPC   C4A70806  18.237   3.374   7.206
 5590POPC   C1B70807  18.046   3.477   6.373
 5590POPC   C2B70808  18.127   3.713   6.753
 5590POPC   C3B70809  17.922   3.808   7.110
 5590POPC   C4B70810  18.026   3.711   7.556
 5591POPC   NC370811   2.283  14.449   5.534
 5591POPC   PO470812   1.727  14.114   5.538
 5591POPC   GL170813   1.879  14.281   5.896
 5591POPC   GL270814   1.892  14.599   5.837
 5591POPC   C1A70815   1.689  14.421   6.282
 5591POPC   D2A70816   1.856  14.618   6.659
 5591POPC   C3A70817   2.183  14.417   6.899
 5591POPC   C4A70818   2.096  14.332   7.335
 5591POPC   C1B70819   2.122  14.693   6.217
 5591POPC   C2B70820   2.510  14.732   6.452
 5591POPC   C3B70821   2.509  14.845   6.873
 5591POPC   C4B70822   2.226  14.834   7.206
 5592POPC   NC370823  24.763   4.757   5.593
 5592POPC   PO470824  25.044   4.133   5.273
 5592POPC   GL170825  25.127   4.133   5.727
 5592POPC   GL270826  24.981   4.421   5.884
 5592POPC   C1A70827  25.341   4.217   6.156
 5592POPC   D2A70828  25.261   4.509   6.517
 5592POPC   C3A70829  25.400   4.386   6.942
 5592POPC   C4A70830  25.383   4.134   7.350
 5592POPC   C1B70831  24.810   4.341   6.305
 5592POPC   C2B70832  24.909   4.220   6.741
 5592POPC   C3B70833  24.916   4.170   7.158
 5592POPC   C4B70834  25.051   4.546   7.289
 5593POPC   NC370835  43.733  33.564   5.383
 5593POPC   PO470836  44.011  34.226   5.275
 5593POPC   GL170837  43.839  33.996   5.664
 5593POPC   GL270838  43.452  33.965   5.657
 5593POPC   C1A70839  44.016  33.839   6.096
 5593POPC   D2A70840  44.223  33.599   6.467
 5593POPC   C3A70841  44.080  33.671   6.902
 5593POPC   C4A70842  44.150  33.918   7.258
 5593POPC   C1B70843  43.486  33.835   6.112
 5593POPC   C2B70844  43.720  33.753   6.520
 5593POPC   C3B70845  43.560  33.663   6.938
 5593POPC   C4B70846  43.728  33.503   7.289
 5594POPC   NC370847  35.211  18.039   5.529
 5594POPC   PO470848  35.736  18.510   5.636
 5594POPC   GL170849  35.463  18.297   5.883
 5594POPC   GL270850  35.114  18.441   5.844
 5594POPC   C1A70851  35.569  18.032   6.215
 5594POPC   D2A70852  35.765  18.342   6.467
 5594POPC   C3A70853  35.628  18.354   6.886
 5594POPC   C4A70854  35.274  18.200   7.118
 5594POPC   C1B70855  35.067  18.148   6.181
 5594POPC   C2B70856  35.235  18.193   6.582
 5594POPC   C3B70857  34.988  18.454   6.785
 5594POPC   C4B70858  34.821  18.484   7.169
 5595POPC   NC370859   3.766   1.356   5.553
 5595POPC   PO470860   4.203   1.146   5.122
 5595POPC   GL170861   4.297   1.174   5.641
 5595POPC   GL270862   4.506   1.422   5.864
 5595POPC   C1A70863   4.323   1.033   6.111
 5595POPC   D2A70864   4.497   1.209   6.498
 5595POPC   C3A70865   4.577   1.032   6.879
 5595POPC   C4A70866   4.522   1.053   7.332
 5595POPC   C1B70867   4.211   1.530   6.215
 5595POPC   C2B70868   4.117   1.473   6.670
 5595POPC   C3B70869   4.340   1.454   7.061
 5595POPC   C4B70870   4.168   1.651   7.406
 5596POPC   NC370871  16.776   5.234   5.450
 5596POPC   PO470872  16.886   4.592   5.252
 5596POPC   GL170873  16.745   4.719   5.738
 5596POPC   GL270874  16.805   5.068   5.938
 5596POPC   C1A70875  16.474   4.764   6.160
 5596POPC   D2A70876  16.495   4.761   6.611
 5596POPC   C3A70877  16.802   4.886   6.930
 5596POPC   C4A70878  16.495   4.862   7.240
 5596POPC   C1B70879  17.064   5.253   6.278
 5596POPC   C2B70880  16.961   5.345   6.714
 5596POPC   C3B70881  17.036   5.296   7.172
 5596POPC   C4B70882  17.036   5.433   7.625
 5597POPC   NC370883  43.283  16.790   5.513
 5597POPC   PO470884  43.923  16.582   5.464
 5597POPC   GL170885  43.822  16.635   5.905
 5597POPC   GL270886  43.623  16.934   5.917
 5597POPC   C1A70887  43.968  16.469   6.312
 5597POPC   D2A70888  44.101  16.288   6.694
 5597POPC   C3A70889  43.948  16.477   7.040
 5597POPC   C4A70890  43.805  16.689   7.395
 5597POPC   C1B70891  43.851  16.992   6.316
 5597POPC   C2B70892  43.801  16.910   6.759
 5597POPC   C3B70893  43.554  17.044   7.127
 5597POPC   C4B70894  43.596  17.066   7.630
 5598POPC   NC370895  33.476  14.817   5.309
 5598POPC   PO470896  33.820  15.472   5.424
 5598POPC   GL170897  33.793  15.173   5.808
 5598POPC   GL270898  33.519  14.974   5.792
 5598POPC   C1A70899  33.845  14.930   6.223
 5598POPC   D2A70900  33.914  14.806   6.681
 5598POPC   C3A70901  33.729  15.047   7.018
 5598POPC   C4A70902  33.894  15.394   7.235
 5598POPC   C1B70903  33.383  15.159   6.173
 5598POPC   C2B70904  33.578  15.260   6.565
 5598POPC   C3B70905  33.517  15.492   6.916
 5598POPC   C4B70906  33.353  15.401   7.279
 5599POPC   NC370907  39.133  16.576   5.499
 5599POPC   PO470908  39.631  16.979   5.384
 5599POPC   GL170909  39.453  16.871   5.776
 5599POPC   GL270910  39.161  17.064   5.667
 5599POPC   C1A70911  39.187  16.775   6.161
 5599POPC   D2A70912  39.251  16.868   6.614
 5599POPC   C3A70913  39.133  16.682   7.018
 5599POPC   C4A70914  39.453  16.640   7.352
 5599POPC   C1B70915  38.857  17.180   5.974
 5599POPC   C2B70916  38.859  17.143   6.412
 5599POPC   C3B70917  38.864  17.104   6.855
 5599POPC   C4B70918  38.968  17.158   7.282
 5600POPC   NC370919   2.877   6.888   5.510
 5600POPC   PO470920   3.147   6.271   5.625
 5600POPC   GL170921   2.923   6.507   5.928
 5600POPC   GL270922   2.688   6.788   5.969
 5600POPC   C1A70923   2.757   6.417   6.341
 5600POPC   D2A70924   2.785   6.687   6.675
 5600POPC   C3A70925   2.873   6.597   7.094
 5600POPC   C4A70926   2.667   6.508   7.487
 5600POPC   C1B70927   2.432   6.883   6.315
 5600POPC   C2B70928   2.224   7.012   6.674
 5600POPC   C3B70929   2.463   6.912   7.029
 5600POPC   C4B70930   2.508   7.109   7.444
 5601POPC   NC370931   8.726   0.034   5.592
 5601POPC   PO470932   9.141   0.464   5.286
 5601POPC   GL170933   9.105   0.522   5.751
 5601POPC   GL270934   8.743   0.584   5.851
 5601POPC   C1A70935   9.123   0.749   6.166
 5601POPC   D2A70936   8.949   0.617   6.551
 5601POPC   C3A70937   8.998   0.683   6.982
 5601POPC   C4A70938   9.085   0.461   7.325
 5601POPC   C1B70939   8.882   0.282   6.178
 5601POPC   C2B70940   8.853   0.122   6.611
 5601POPC   C3B70941   8.604   0.391   6.864
 5601POPC   C4B70942   8.528   0.621   7.208
 5602POPC   NC370943  13.063  10.184   5.313
 5602POPC   PO470944  12.539   9.846   5.493
 5602POPC   GL170945  12.927   9.891   5.709
 5602POPC   GL270946  13.144   9.581   5.753
 5602POPC   C1A70947  13.016   9.963   6.106
 5602POPC   D2A70948  13.022   9.815   6.516
 5602POPC   C3A70949  12.740   9.950   6.810
 5602POPC   C4A70950  12.697   9.918   7.272
 5602POPC   C1B70951  12.981   9.429   6.168
 5602POPC   C2B70952  12.976   9.318   6.623
 5602POPC   C3B70953  12.835   9.441   7.042
 5602POPC   C4B70954  12.924   9.472   7.496
 5603POPC   NC370955  18.216  40.630   5.349
 5603POPC   PO470956  18.435  41.322   5.137
 5603POPC   GL170957  18.444  41.059   5.600
 5603POPC   GL270958  18.098  40.935   5.738
 5603POPC   C1A70959  18.438  40.994   6.112
 5603POPC   D2A70960  18.385  40.707   6.517
 5603POPC   C3A70961  18.611  40.769   6.921
 5603POPC   C4A70962  18.668  41.088   7.262
 5603POPC   C1B70963  18.055  40.652   6.116
 5603POPC   C2B70964  17.928  40.453   6.510
 5603POPC   C3B70965  18.025  40.561   6.943
 5603POPC   C4B70966  18.166  40.925   7.193
 5604POPC   NC370967  30.393  21.319   5.093
 5604POPC   PO470968  30.853  21.705   5.347
 5604POPC   GL170969  30.640  21.576   5.769
 5604POPC   GL270970  30.343  21.336   5.758
 5604POPC   C1A70971  30.726  21.381   6.204
 5604POPC   D2A70972  30.903  21.523   6.606
 5604POPC   C3A70973  30.886  21.326   7.021
 5604POPC   C4A70974  30.699  21.133   7.364
 5604POPC   C1B70975  30.235  21.537   6.172
 5604POPC   C2B70976  30.372  21.383   6.605
 5604POPC   C3B70977  30.372  21.413   7.052
 5604POPC   C4B70978  30.615  21.665   7.316
 5605POPC   NC370979  20.982  25.552   5.427
 5605POPC   PO470980  21.652  25.502   5.536
 5605POPC   GL170981  21.474  25.256   5.840
 5605POPC   GL270982  21.181  25.041   5.771
 5605POPC   C1A70983  21.425  25.457   6.221
 5605POPC   D2A70984  21.529  25.662   6.585
 5605POPC   C3A70985  21.397  25.332   6.825
 5605POPC   C4A70986  21.222  25.365   7.195
 5605POPC   C1B70987  21.252  24.970   6.202
 5605POPC   C2B70988  21.618  25.013   6.455
 5605POPC   C3B70989  21.715  24.922   6.889
 5605POPC   C4B70990  21.658  25.089   7.297
 5606POPC   NC370991  28.912  34.495   5.460
 5606POPC   PO470992  28.142  34.844   5.494
 5606POPC   GL170993  28.249  34.586   5.857
 5606POPC   GL270994  28.613  34.585   5.907
 5606POPC   C1A70995  28.049  34.653   6.287
 5606POPC   D2A70996  28.220  34.563   6.671
 5606POPC   C3A70997  28.043  34.615   7.077
 5606POPC   C4A70998  28.266  34.435   7.419
 5606POPC   C1B70999  28.452  34.336   6.236
 5606POPC   C2B71000  28.566  34.174   6.612
 5606POPC   C3B71001  28.557  34.332   7.023
 5606POPC   C4B71002  28.725  34.205   7.440
 5607POPC   NC371003   1.682  37.778   5.143
 5607POPC   PO471004   2.189  37.654   5.543
 5607POPC   GL171005   1.897  37.621   5.819
 5607POPC   GL271006   1.750  37.948   5.723
 5607POPC   C1A71007   1.916  37.421   6.226
 5607POPC   D2A71008   2.263  37.466   6.518
 5607POPC   C3A71009   2.159  37.689   6.881
 5607POPC   C4A71010   2.004  37.582   7.260
 5607POPC   C1B71011   1.863  38.013   6.174
 5607POPC   C2B71012   1.731  38.110   6.623
 5607POPC   C3B71013   1.806  38.016   7.072
 5607POPC   C4B71014   1.852  38.019   7.529
 5608POPC   NC371015  15.220  31.211   5.368
 5608POPC   PO471016  15.305  30.518   5.450
 5608POPC   GL171017  15.160  30.642   5.836
 5608POPC   GL271018  15.180  30.307   5.945
 5608POPC   C1A71019  15.195  30.816   6.261
 5608POPC   D2A71020  15.347  30.734   6.697
 5608POPC   C3A71021  15.102  30.864   7.072
 5608POPC   C4A71022  15.195  30.992   7.513
 5608POPC   C1B71023  15.285  30.307   6.343
 5608POPC   C2B71024  15.006  30.270   6.661
 5608POPC   C3B71025  15.040  30.246   7.062
 5608POPC   C4B71026  15.391  30.479   7.226
 5609POPC   NC371027  16.324   1.654   5.483
 5609POPC   PO471028  15.846   1.284   5.159
 5609POPC   GL171029  15.864   1.411   5.623
 5609POPC   GL271030  15.810   1.086   5.773
 5609POPC   C1A71031  16.052   1.428   6.078
 5609POPC   D2A71032  16.050   1.238   6.527
 5609POPC   C3A71033  16.090   1.543   6.852
 5609POPC   C4A71034  16.266   1.757   7.215
 5609POPC   C1B71035  15.695   1.073   6.202
 5609POPC   C2B71036  15.586   0.969   6.627
 5609POPC   C3B71037  15.867   0.981   6.953
 5609POPC   C4B71038  16.092   1.263   7.268
 5610POPC   NC371039  28.480   9.292   5.384
 5610POPC   PO471040  28.587   9.918   5.292
 5610POPC   GL171041  28.590   9.795   5.787
 5610POPC   GL271042  28.748   9.444   5.795
 5610POPC   C1A71043  28.344   9.943   6.251
 5610POPC   D2A71044  28.165   9.803   6.709
 5610POPC   C3A71045  28.266   9.909   7.167
 5610POPC   C4A71046  28.192   9.770   7.620
 5610POPC   C1B71047  28.472   9.463   6.162
 5610POPC   C2B71048  28.633   9.534   6.584
 5610POPC   C3B71049  28.550   9.481   7.020
 5610POPC   C4B71050  28.642   9.664   7.419
 5611POPC   NC371051  18.045   9.470   5.429
 5611POPC   PO471052  18.363  10.173   5.358
 5611POPC   GL171053  18.135  10.045   5.709
 5611POPC   GL271054  18.436   9.827   5.771
 5611POPC   C1A71055  18.104   9.921   6.162
 5611POPC   D2A71056  18.269   9.609   6.483
 5611POPC   C3A71057  17.989   9.428   6.786
 5611POPC   C4A71058  17.893   9.541   7.186
 5611POPC   C1B71059  18.636   9.845   6.186
 5611POPC   C2B71060  18.612   9.979   6.629
 5611POPC   C3B71061  18.351   9.849   6.979
 5611POPC   C4B71062  18.543   9.481   7.170
 5612POPC   NC371063  43.873  30.024   5.252
 5612POPC   PO471064  43.639  29.388   5.438
 5612POPC   GL171065  43.596  29.698   5.839
 5612POPC   GL271066  43.778  30.039   5.812
 5612POPC   C1A71067  43.832  29.781   6.276
 5612POPC   D2A71068  44.037  29.914   6.681
 5612POPC   C3A71069  43.852  29.857   7.086
 5612POPC   C4A71070  43.542  30.135   7.127
 5612POPC   C1B71071  43.964  30.269   6.174
 5612POPC   C2B71072  44.228  30.362   6.531
 5612POPC   C3B71073  44.173  30.385   6.987
 5612POPC   C4B71074  44.047  30.213   7.393
 5613POPC   NC371075  40.899  20.892   5.402
 5613POPC   PO471076  40.732  20.294   5.527
 5613POPC   GL171077  40.706  20.613   5.828
 5613POPC   GL271078  40.516  20.902   5.823
 5613POPC   C1A71079  40.576  20.581   6.244
 5613POPC   D2A71080  40.703  20.366   6.599
 5613POPC   C3A71081  40.625  20.481   7.019
 5613POPC   C4A71082  40.803  20.146   7.286
 5613POPC   C1B71083  40.842  21.003   6.174
 5613POPC   C2B71084  40.822  20.875   6.627
 5613POPC   C3B71085  40.950  20.969   7.053
 5613POPC   C4B71086  40.850  20.953   7.541
 5614POPC   NC371087  30.930   9.114   5.437
 5614POPC   PO471088  30.608   8.609   5.432
 5614POPC   GL171089  30.664   8.855   5.838
 5614POPC   GL271090  30.609   9.224   5.880
 5614POPC   C1A71091  30.492   8.890   6.263
 5614POPC   D2A71092  30.583   9.138   6.618
 5614POPC   C3A71093  30.651   8.924   7.023
 5614POPC   C4A71094  30.492   8.874   7.427
 5614POPC   C1B71095  30.928   9.222   6.232
 5614POPC   C2B71096  31.103   9.140   6.655
 5614POPC   C3B71097  30.923   9.347   7.026
 5614POPC   C4B71098  30.858   9.264   7.495
 5615POPC   NC371099  22.191   0.069   5.272
 5615POPC   PO471100  22.079  44.384   5.325
 5615POPC   GL171101  22.105  44.547   5.750
 5615POPC   GL271102  21.934  44.846   5.672
 5615POPC   C1A71103  22.257  44.767   6.150
 5615POPC   D2A71104  22.449  44.627   6.542
 5615POPC   C3A71105  22.189  44.586   6.899
 5615POPC   C4A71106  22.280  44.674   7.294
 5615POPC   C1B71107  21.751  44.782   6.078
 5615POPC   C2B71108  21.869  44.748   6.514
 5615POPC   C3B71109  21.835  44.936   6.931
 5615POPC   C4B71110  21.797  44.744   7.314
 5616POPC   NC371111  16.438  36.146   5.201
 5616POPC   PO471112  17.065  36.187   5.389
 5616POPC   GL171113  16.789  36.172   5.777
 5616POPC   GL271114  16.605  35.839   5.835
 5616POPC   C1A71115  16.883  36.083   6.232
 5616POPC   D2A71116  16.705  36.145   6.657
 5616POPC   C3A71117  16.942  36.162   7.046
 5616POPC   C4A71118  16.839  36.399   7.407
 5616POPC   C1B71119  16.513  35.596   6.239
 5616POPC   C2B71120  16.689  35.619   6.658
 5616POPC   C3B71121  16.469  35.818   6.991
 5616POPC   C4B71122  16.568  35.989   7.383
 5617POPC   NC371123  41.463  35.019   5.347
 5617POPC   PO471124  41.577  35.711   5.513
 5617POPC   GL171125  41.428  35.545   5.888
 5617POPC   GL271126  41.324  35.190   5.839
 5617POPC   C1A71127  41.631  35.330   6.240
 5617POPC   D2A71128  41.902  35.349   6.614
 5617POPC   C3A71129  41.658  35.392   7.020
 5617POPC   C4A71130  41.612  35.605   7.445
 5617POPC   C1B71131  41.181  34.947   6.165
 5617POPC   C2B71132  41.387  34.984   6.586
 5617POPC   C3B71133  41.276  35.010   7.048
 5617POPC   C4B71134  41.300  35.230   7.439
 5618POPC   NC371135  16.099  16.398   5.709
 5618POPC   PO471136  15.660  16.793   5.411
 5618POPC   GL171137  15.861  16.808   5.835
 5618POPC   GL271138  16.175  16.921   5.709
 5618POPC   C1A71139  15.990  16.649   6.279
 5618POPC   D2A71140  16.090  16.832   6.647
 5618POPC   C3A71141  15.969  16.695   7.077
 5618POPC   C4A71142  16.104  16.381   7.378
 5618POPC   C1B71143  16.115  17.134   6.123
 5618POPC   C2B71144  16.342  17.267   6.513
 5618POPC   C3B71145  16.322  17.136   6.960
 5618POPC   C4B71146  16.093  17.249   7.314
 5619POPC   NC371147  37.806  19.260   5.509
 5619POPC   PO471148  37.457  18.671   5.452
 5619POPC   GL171149  37.595  18.877   5.804
 5619POPC   GL271150  37.412  19.199   5.842
 5619POPC   C1A71151  37.430  18.903   6.227
 5619POPC   D2A71152  37.615  19.001   6.559
 5619POPC   C3A71153  37.441  19.002   6.896
 5619POPC   C4A71154  37.438  18.810   7.225
 5619POPC   C1B71155  37.630  19.366   6.164
 5619POPC   C2B71156  37.921  19.388   6.473
 5619POPC   C3B71157  37.711  19.427   6.840
 5619POPC   C4B71158  37.834  19.442   7.229
 5620POPC   NC371159  33.018  18.717   5.433
 5620POPC   PO471160  32.952  18.038   5.475
 5620POPC   GL171161  33.172  18.234   5.814
 5620POPC   GL271162  33.354  18.547   5.770
 5620POPC   C1A71163  33.235  18.217   6.255
 5620POPC   D2A71164  33.041  18.138   6.649
 5620POPC   C3A71165  32.720  18.423   6.765
 5620POPC   C4A71166  32.900  18.458   7.163
 5620POPC   C1B71167  33.334  18.729   6.197
 5620POPC   C2B71168  33.407  18.539   6.624
 5620POPC   C3B71169  33.456  18.653   7.056
 5620POPC   C4B71170  33.415  18.532   7.523
 5621POPC   NC371171  39.005   9.388   5.070
 5621POPC   PO471172  39.007  10.055   5.164
 5621POPC   GL171173  38.975   9.722   5.606
 5621POPC   GL271174  39.249   9.470   5.726
 5621POPC   C1A71175  38.986   9.598   6.134
 5621POPC   D2A71176  39.278   9.635   6.535
 5621POPC   C3A71177  39.066   9.724   6.963
 5621POPC   C4A71178  38.847   9.985   7.281
 5621POPC   C1B71179  39.433   9.322   6.132
 5621POPC   C2B71180  39.571   9.195   6.552
 5621POPC   C3B71181  39.481   9.400   6.952
 5621POPC   C4B71182  39.409   9.631   7.366
 5622POPC   NC371183  20.323  29.540   5.068
 5622POPC   PO471184  20.601  30.074   5.384
 5622POPC   GL171185  20.794  29.929   5.819
 5622POPC   GL271186  20.590  29.670   5.907
 5622POPC   C1A71187  20.886  29.735   6.300
 5622POPC   D2A71188  21.014  29.532   6.692
 5622POPC   C3A71189  20.825  29.758   7.038
 5622POPC   C4A71190  20.710  29.969   7.436
 5622POPC   C1B71191  20.488  30.051   6.213
 5622POPC   C2B71192  20.579  30.201   6.634
 5622POPC   C3B71193  20.393  30.055   7.017
 5622POPC   C4B71194  20.345  29.649   7.225
 5623POPC   NC371195  39.098  15.143   5.338
 5623POPC   PO471196  39.603  15.568   5.556
 5623POPC   GL171197  39.303  15.295   5.851
 5623POPC   GL271198  39.110  14.957   5.872
 5623POPC   C1A71199  39.234  15.188   6.307
 5623POPC   D2A71200  38.966  15.425   6.561
 5623POPC   C3A71201  39.085  15.447   6.979
 5623POPC   C4A71202  38.926  15.495   7.378
 5623POPC   C1B71203  38.806  14.923   6.287
 5623POPC   C2B71204  38.751  15.003   6.755
 5623POPC   C3B71205  39.046  14.946   7.135
 5623POPC   C4B71206  38.941  14.990   7.588
 5624POPC   NC371207  28.294  30.812   5.330
 5624POPC   PO471208  28.344  31.534   5.447
 5624POPC   GL171209  28.342  31.553   5.882
 5624POPC   GL271210  28.540  31.847   5.872
 5624POPC   C1A71211  28.158  31.473   6.312
 5624POPC   D2A71212  28.100  31.546   6.772
 5624POPC   C3A71213  28.184  31.271   7.132
 5624POPC   C4A71214  28.212  30.998   7.488
 5624POPC   C1B71215  28.669  31.694   6.282
 5624POPC   C2B71216  28.553  31.776   6.702
 5624POPC   C3B71217  28.481  31.699   7.140
 5624POPC   C4B71218  28.775  31.518   7.452
 5625POPC   NC371219  43.454   7.334   5.325
 5625POPC   PO471220  44.072   7.686   5.244
 5625POPC   GL171221  43.827   7.569   5.676
 5625POPC   GL271222  44.058   7.560   5.883
 5625POPC   C1A71223  43.776   7.241   6.112
 5625POPC   D2A71224  43.565   7.200   6.534
 5625POPC   C3A71225  43.767   7.219   6.953
 5625POPC   C4A71226  43.545   7.408   7.300
 5625POPC   C1B71227  43.915   7.778   6.230
 5625POPC   C2B71228  43.898   7.605   6.605
 5625POPC   C3B71229  43.719   7.755   6.959
 5625POPC   C4B71230  43.889   7.861   7.330
 5626POPC   NC371231  40.750  14.972   5.453
 5626POPC   PO471232  41.087  15.504   5.343
 5626POPC   GL171233  40.915  15.333   5.766
 5626POPC   GL271234  40.509  15.242   5.801
 5626POPC   C1A71235  40.826  15.232   6.213
 5626POPC   D2A71236  41.021  15.177   6.617
 5626POPC   C3A71237  40.994  15.403   7.011
 5626POPC   C4A71238  41.035  15.108   7.349
 5626POPC   C1B71239  40.495  14.883   6.084
 5626POPC   C2B71240  40.490  14.989   6.520
 5626POPC   C3B71241  40.533  15.258   6.836
 5626POPC   C4B71242  40.554  15.109   7.213
 5627POPC   NC371243   3.214   5.811   5.562
 5627POPC   PO471244   2.613   5.884   5.138
 5627POPC   GL171245   2.704   5.835   5.648
 5627POPC   GL271246   2.886   5.524   5.820
 5627POPC   C1A71247   2.707   5.927   6.125
 5627POPC   D2A71248   2.502   6.002   6.540
 5627POPC   C3A71249   2.732   6.178   6.858
 5627POPC   C4A71250   2.813   6.071   7.282
 5627POPC   C1B71251   3.034   5.479   6.256
 5627POPC   C2B71252   2.744   5.456   6.630
 5627POPC   C3B71253   2.717   5.670   7.009
 5627POPC   C4B71254   2.831   5.562   7.452
 5628POPC   NC371255  31.567  12.453   5.351
 5628POPC   PO471256  31.123  11.990   5.406
 5628POPC   GL171257  31.414  12.090   5.744
 5628POPC   GL271258  31.570  11.792   5.841
 5628POPC   C1A71259  31.608  12.256   6.144
 5628POPC   D2A71260  31.486  12.160   6.592
 5628POPC   C3A71261  31.588  12.343   7.019
 5628POPC   C4A71262  31.382  12.232   7.419
 5628POPC   C1B71263  31.891  11.681   6.151
 5628POPC   C2B71264  32.007  11.704   6.598
 5628POPC   C3B71265  31.926  11.634   7.024
 5628POPC   C4B71266  31.768  11.936   7.283
 5629POPC   NC371267   0.326  23.721   5.343
 5629POPC   PO471268   0.893  23.603   5.376
 5629POPC   GL171269   0.634  23.793   5.766
 5629POPC   GL271270   0.256  23.904   5.828
 5629POPC   C1A71271   0.568  23.811   6.243
 5629POPC   D2A71272   0.606  23.545   6.622
 5629POPC   C3A71273   0.495  23.632   7.030
 5629POPC   C4A71274   0.654  23.766   7.410
 5629POPC   C1B71275   0.044  24.070   6.218
 5629POPC   C2B71276   0.063  24.116   6.693
 5629POPC   C3B71277   0.060  23.894   7.057
 5629POPC   C4B71278   0.162  23.701   7.418
 5630POPC   NC371279  44.249  28.264   5.339
 5630POPC   PO471280  44.943  28.561   5.377
 5630POPC   GL171281  44.887  28.411   5.794
 5630POPC   GL271282  44.551  28.407   5.765
 5630POPC   C1A71283  44.884  28.454   6.241
 5630POPC   D2A71284  44.679  28.245   6.579
 5630POPC   C3A71285  44.809  28.391   6.955
 5630POPC   C4A71286  44.816  28.104   7.254
 5630POPC   C1B71287  44.362  28.392   6.180
 5630POPC   C2B71288  44.139  28.574   6.526
 5630POPC   C3B71289  44.236  28.597   6.968
 5630POPC   C4B71290  44.495  28.474   7.338
 5631POPC   NC371291   3.495  29.561   5.396
 5631POPC   PO471292   3.346  30.317   5.390
 5631POPC   GL171293   3.469  30.035   5.794
 5631POPC   GL271294   3.690  29.730   5.844
 5631POPC   C1A71295   3.380  29.929   6.222
 5631POPC   D2A71296   3.498  30.215   6.540
 5631POPC   C3A71297   3.525  30.107   6.959
 5631POPC   C4A71298   3.695  30.177   7.348
 5631POPC   C1B71299   3.880  29.906   6.212
 5631POPC   C2B71300   3.825  29.769   6.641
 5631POPC   C3B71301   3.948  29.815   7.079
 5631POPC   C4B71302   3.865  29.723   7.537
 5632POPC   NC371303   3.708  39.003   5.435
 5632POPC   PO471304   3.844  39.652   5.167
 5632POPC   GL171305   3.820  39.487   5.650
 5632POPC   GL271306   3.474  39.338   5.785
 5632POPC   C1A71307   3.860  39.328   6.110
 5632POPC   D2A71308   3.621  39.376   6.485
 5632POPC   C3A71309   3.687  39.181   6.892
 5632POPC   C4A71310   3.716  39.325   7.287
 5632POPC   C1B71311   3.340  39.065   6.177
 5632POPC   C2B71312   3.235  39.083   6.638
 5632POPC   C3B71313   3.226  39.324   7.030
 5632POPC   C4B71314   3.255  39.174   7.461
 5633POPC   NC371315  27.120   0.351   5.380
 5633POPC   PO471316  26.524   0.561   5.359
 5633POPC   GL171317  26.697   0.355   5.699
 5633POPC   GL271318  26.989   0.619   5.813
 5633POPC   C1A71319  26.716   0.332   6.135
 5633POPC   D2A71320  26.923   0.380   6.516
 5633POPC   C3A71321  26.630   0.490   6.856
 5633POPC   C4A71322  26.699   0.362   7.264
 5633POPC   C1B71323  27.014   0.849   6.247
 5633POPC   C2B71324  26.892   0.886   6.699
 5633POPC   C3B71325  26.889   0.816   7.158
 5633POPC   C4B71326  27.167   0.722   7.518
 5634POPC   NC371327   8.513  24.238   5.382
 5634POPC   PO471328   8.984  23.692   5.445
 5634POPC   GL171329   8.973  23.637   5.850
 5634POPC   GL271330   9.059  23.986   5.874
 5634POPC   C1A71331   8.989  23.378   6.219
 5634POPC   D2A71332   8.828  23.316   6.623
 5634POPC   C3A71333   8.904  23.557   6.976
 5634POPC   C4A71334   8.612  23.710   7.293
 5634POPC   C1B71335   8.840  23.889   6.278
 5634POPC   C2B71336   9.034  23.959   6.660
 5634POPC   C3B71337   8.953  24.050   7.085
 5634POPC   C4B71338   9.221  24.036   7.442
 5635POPC   NC371339  42.650  16.169   5.496
 5635POPC   PO471340  42.887  15.547   5.404
 5635POPC   GL171341  43.189  15.774   5.739
 5635POPC   GL271342  43.097  16.106   5.778
 5635POPC   C1A71343  43.171  15.781   6.192
 5635POPC   D2A71344  43.236  16.027   6.557
 5635POPC   C3A71345  43.151  15.818   6.932
 5635POPC   C4A71346  43.308  15.785   7.358
 5635POPC   C1B71347  42.957  16.256   6.172
 5635POPC   C2B71348  43.014  16.505   6.521
 5635POPC   C3B71349  43.020  16.333   6.899
 5635POPC   C4B71350  43.075  16.235   7.297
 5636POPC   NC371351  29.089   6.034   5.492
 5636POPC   PO471352  29.696   5.876   5.319
 5636POPC   GL171353  29.535   5.997   5.750
 5636POPC   GL271354  29.285   5.745   5.855
 5636POPC   C1A71355  29.368   6.131   6.155
 5636POPC   D2A71356  29.213   5.920   6.498
 5636POPC   C3A71357  29.415   6.013   6.849
 5636POPC   C4A71358  29.481   6.020   7.236
 5636POPC   C1B71359  28.946   5.641   6.170
 5636POPC   C2B71360  28.798   5.661   6.624
 5636POPC   C3B71361  29.090   5.639   6.956
 5636POPC   C4B71362  29.028   5.842   7.331
 5637POPC   NC371363  12.225  13.418   5.418
 5637POPC   PO471364  11.866  14.040   5.399
 5637POPC   GL171365  11.894  13.668   5.774
 5637POPC   GL271366  12.251  13.504   5.895
 5637POPC   C1A71367  11.991  13.691   6.259
 5637POPC   D2A71368  12.138  13.987   6.598
 5637POPC   C3A71369  12.122  13.743   7.004
 5637POPC   C4A71370  11.822  13.551   7.304
 5637POPC   C1B71371  12.402  13.131   6.080
 5637POPC   C2B71372  12.498  13.113   6.519
 5637POPC   C3B71373  12.294  13.216   6.877
 5637POPC   C4B71374  12.316  13.335   7.286
 5638POPC   NC371375   2.884  27.798   5.088
 5638POPC   PO471376   2.629  27.319   5.452
 5638POPC   GL171377   2.462  27.506   5.876
 5638POPC   GL271378   2.597  27.820   5.995
 5638POPC   C1A71379   2.567  27.416   6.325
 5638POPC   D2A71380   2.870  27.592   6.665
 5638POPC   C3A71381   2.695  27.502   7.101
 5638POPC   C4A71382   2.825  27.314   7.507
 5638POPC   C1B71383   2.904  27.997   6.276
 5638POPC   C2B71384   2.849  28.115   6.677
 5638POPC   C3B71385   2.960  27.953   7.073
 5638POPC   C4B71386   2.874  27.809   7.487
 5639POPC   NC371387   7.614  11.690   5.326
 5639POPC   PO471388   7.286  11.044   5.464
 5639POPC   GL171389   7.421  11.222   5.848
 5639POPC   GL271390   7.156  11.449   5.877
 5639POPC   C1A71391   7.274  11.109   6.267
 5639POPC   D2A71392   7.045  11.033   6.614
 5639POPC   C3A71393   7.338  11.089   6.914
 5639POPC   C4A71394   7.390  11.027   7.325
 5639POPC   C1B71395   7.419  11.586   6.238
 5639POPC   C2B71396   7.592  11.487   6.645
 5639POPC   C3B71397   7.432  11.541   7.080
 5639POPC   C4B71398   7.437  11.488   7.529
 5640POPC   NC371399  29.998  22.471   5.444
 5640POPC   PO471400  29.657  23.057   5.434
 5640POPC   GL171401  29.839  23.040   5.827
 5640POPC   GL271402  29.712  22.700   5.815
 5640POPC   C1A71403  29.911  22.892   6.264
 5640POPC   D2A71404  30.247  22.765   6.545
 5640POPC   C3A71405  30.191  23.021   6.879
 5640POPC   C4A71406  30.032  22.969   7.240
 5640POPC   C1B71407  29.452  22.647   6.152
 5640POPC   C2B71408  29.444  22.760   6.556
 5640POPC   C3B71409  29.766  22.640   6.816
 5640POPC   C4B71410  29.705  22.581   7.256
 5641POPC   NC371411  18.454  41.706   5.425
 5641POPC   PO471412  19.164  41.617   5.398
 5641POPC   GL171413  19.076  41.703   5.785
 5641POPC   GL271414  19.327  41.453   5.875
 5641POPC   C1A71415  18.841  41.715   6.152
 5641POPC   D2A71416  18.729  41.891   6.555
 5641POPC   C3A71417  18.738  41.583   6.863
 5641POPC   C4A71418  18.840  41.574   7.271
 5641POPC   C1B71419  19.343  41.693   6.226
 5641POPC   C2B71420  19.186  41.588   6.596
 5641POPC   C3B71421  19.273  41.633   6.982
 5641POPC   C4B71422  19.449  41.478   7.336
 5642POPC   NC371423  34.173  21.220   5.541
 5642POPC   PO471424  34.750  21.616   5.398
 5642POPC   GL171425  34.536  21.605   5.822
 5642POPC   GL271426  34.556  21.258   5.937
 5642POPC   C1A71427  34.448  21.601   6.300
 5642POPC   D2A71428  34.594  21.335   6.652
 5642POPC   C3A71429  34.413  21.384   7.057
 5642POPC   C4A71430  34.676  21.368   7.429
 5642POPC   C1B71431  34.322  21.058   6.262
 5642POPC   C2B71432  34.406  20.846   6.651
 5642POPC   C3B71433  34.220  20.880   7.023
 5642POPC   C4B71434  34.285  21.045   7.433
 5643POPC   NC371435  39.804  35.939   5.458
 5643POPC   PO471436  40.235  36.436   5.516
 5643POPC   GL171437  39.967  36.267   5.792
 5643POPC   GL271438  40.196  35.957   5.782
 5643POPC   C1A71439  39.728  36.288   6.167
 5643POPC   D2A71440  39.929  36.401   6.546
 5643POPC   C3A71441  39.806  36.230   6.899
 5643POPC   C4A71442  39.813  35.900   7.184
 5643POPC   C1B71443  40.211  36.113   6.209
 5643POPC   C2B71444  40.269  36.001   6.622
 5643POPC   C3B71445  40.274  36.069   7.031
 5643POPC   C4B71446  40.272  35.866   7.418
 5644POPC   NC371447  18.931  32.717   5.280
 5644POPC   PO471448  19.447  33.086   5.091
 5644POPC   GL171449  19.232  32.978   5.611
 5644POPC   GL271450  18.924  32.881   5.770
 5644POPC   C1A71451  19.291  32.953   6.119
 5644POPC   D2A71452  19.358  33.174   6.535
 5644POPC   C3A71453  19.252  32.967   6.923
 5644POPC   C4A71454  19.263  33.148   7.339
 5644POPC   C1B71455  18.791  33.111   6.144
 5644POPC   C2B71456  18.864  33.052   6.575
 5644POPC   C3B71457  18.686  33.070   6.987
 5644POPC   C4B71458  18.831  32.864   7.327
 5645POPC   NC371459   5.427  32.897   5.509
 5645POPC   PO471460   4.839  32.776   5.261
 5645POPC   GL171461   4.886  33.039   5.670
 5645POPC   GL271462   5.190  33.207   5.845
 5645POPC   C1A71463   4.853  32.965   6.143
 5645POPC   D2A71464   5.161  32.883   6.476
 5645POPC   C3A71465   4.953  32.887   6.884
 5645POPC   C4A71466   4.798  33.090   7.231
 5645POPC   C1B71467   5.424  33.320   6.253
 5645POPC   C2B71468   5.550  33.202   6.678
 5645POPC   C3B71469   5.403  33.065   7.089
 5645POPC   C4B71470   5.255  33.176   7.485
 5646POPC   NC371471   4.559  38.573   5.569
 5646POPC   PO471472   4.055  38.805   5.142
 5646POPC   GL171473   4.009  38.582   5.674
 5646POPC   GL271474   4.297  38.701   5.984
 5646POPC   C1A71475   4.017  38.327   6.101
 5646POPC   D2A71476   4.167  38.575   6.483
 5646POPC   C3A71477   4.169  38.339   6.863
 5646POPC   C4A71478   4.160  38.457   7.270
 5646POPC   C1B71479   4.640  38.509   6.240
 5646POPC   C2B71480   4.655  38.409   6.675
 5646POPC   C3B71481   4.624  38.343   7.104
 5646POPC   C4B71482   4.415  37.935   7.190
 5647POPC   NC371483  25.896  37.075   5.416
 5647POPC   PO471484  26.070  36.516   5.141
 5647POPC   GL171485  26.233  36.759   5.655
 5647POPC   GL271486  26.220  37.134   5.797
 5647POPC   C1A71487  26.203  36.772   6.160
 5647POPC   D2A71488  26.123  36.955   6.611
 5647POPC   C3A71489  26.193  36.692   6.995
 5647POPC   C4A71490  25.982  36.346   7.223
 5647POPC   C1B71491  25.880  37.175   6.128
 5647POPC   C2B71492  25.723  37.317   6.551
 5647POPC   C3B71493  25.762  37.141   6.937
 5647POPC   C4B71494  26.109  37.181   7.158
 5648POPC   NC371495  20.460  38.058   5.451
 5648POPC   PO471496  21.057  37.544   5.433
 5648POPC   GL171497  20.798  37.609   5.838
 5648POPC   GL271498  20.501  37.404   5.918
 5648POPC   C1A71499  20.804  37.462   6.315
 5648POPC   D2A71500  20.610  37.631   6.700
 5648POPC   C3A71501  20.802  37.649   7.104
 5648POPC   C4A71502  20.693  37.265   7.248
 5648POPC   C1B71503  20.379  37.734   6.240
 5648POPC   C2B71504  20.241  37.973   6.656
 5648POPC   C3B71505  20.329  37.853   7.104
 5648POPC   C4B71506  20.321  37.592   7.488
 5649POPC   NC371507  42.639   4.383   5.555
 5649POPC   PO471508  43.322   4.630   5.318
 5649POPC   GL171509  43.352   4.465   5.737
 5649POPC   GL271510  43.121   4.214   5.694
 5649POPC   C1A71511  43.226   4.406   6.206
 5649POPC   D2A71512  43.137   4.548   6.644
 5649POPC   C3A71513  43.173   4.369   7.074
 5649POPC   C4A71514  43.302   4.112   7.423
 5649POPC   C1B71515  42.850   4.085   6.078
 5649POPC   C2B71516  42.881   4.095   6.517
 5649POPC   C3B71517  42.847   3.949   6.929
 5649POPC   C4B71518  42.552   4.047   7.244
 5650POPC   NC371519  28.603   1.457   5.637
 5650POPC   PO471520  28.312   0.893   5.288
 5650POPC   GL171521  28.232   0.972   5.735
 5650POPC   GL271522  28.098   1.276   5.791
 5650POPC   C1A71523  28.416   1.034   6.150
 5650POPC   D2A71524  28.291   1.043   6.550
 5650POPC   C3A71525  28.517   1.225   6.863
 5650POPC   C4A71526  28.411   1.154   7.248
 5650POPC   C1B71527  28.005   1.381   6.219
 5650POPC   C2B71528  27.923   1.411   6.666
 5650POPC   C3B71529  28.083   1.503   7.093
 5650POPC   C4B71530  28.234   1.498   7.570
 5651POPC   NC371531   6.704   5.295   5.399
 5651POPC   PO471532   6.450   4.718   5.696
 5651POPC   GL171533   6.673   5.079   5.868
 5651POPC   GL271534   6.503   5.419   5.842
 5651POPC   C1A71535   6.948   5.073   6.231
 5651POPC   D2A71536   6.983   5.234   6.657
 5651POPC   C3A71537   6.749   4.996   6.963
 5651POPC   C4A71538   6.472   4.724   7.135
 5651POPC   C1B71539   6.624   5.451   6.251
 5651POPC   C2B71540   6.452   5.322   6.627
 5651POPC   C3B71541   6.646   5.492   6.949
 5651POPC   C4B71542   6.708   5.361   7.354
 5652POPC   NC371543  42.647  20.402   5.382
 5652POPC   PO471544  42.207  20.793   5.080
 5652POPC   GL171545  42.238  20.635   5.560
 5652POPC   GL271546  42.527  20.756   5.752
 5652POPC   C1A71547  42.156  20.480   6.014
 5652POPC   D2A71548  42.304  20.456   6.466
 5652POPC   C3A71549  42.146  20.657   6.847
 5652POPC   C4A71550  42.222  20.572   7.271
 5652POPC   C1B71551  42.509  20.897   6.193
 5652POPC   C2B71552  42.702  20.873   6.619
 5652POPC   C3B71553  42.618  20.811   7.070
 5652POPC   C4B71554  42.621  20.775   7.535
 5653POPC   NC371555  41.813  41.054   5.551
 5653POPC   PO471556  41.153  40.779   5.427
 5653POPC   GL171557  41.406  40.733   5.811
 5653POPC   GL271558  41.360  41.080   5.904
 5653POPC   C1A71559  41.620  40.491   6.161
 5653POPC   D2A71560  41.967  40.583   6.466
 5653POPC   C3A71561  41.871  40.426   6.886
 5653POPC   C4A71562  41.597  40.533   7.222
 5653POPC   C1B71563  41.687  41.012   6.226
 5653POPC   C2B71564  41.863  41.142   6.636
 5653POPC   C3B71565  41.789  40.975   7.045
 5653POPC   C4B71566  41.826  40.922   7.517
 5654POPC   NC371567  27.071   3.488   5.529
 5654POPC   PO471568  26.416   3.669   5.477
 5654POPC   GL171569  26.580   3.575   5.849
 5654POPC   GL271570  26.919   3.608   5.986
 5654POPC   C1A71571  26.489   3.549   6.247
 5654POPC   D2A71572  26.667   3.360   6.558
 5654POPC   C3A71573  26.660   3.540   6.946
 5654POPC   C4A71574  26.448   3.621   7.317
 5654POPC   C1B71575  27.035   3.231   6.207
 5654POPC   C2B71576  27.030   2.980   6.580
 5654POPC   C3B71577  26.967   3.132   7.007
 5654POPC   C4B71578  26.922   3.427   7.391
 5655POPC   NC371579  18.937  24.796   5.045
 5655POPC   PO471580  18.687  24.238   5.388
 5655POPC   GL171581  18.974  24.482   5.728
 5655POPC   GL271582  19.266  24.726   5.770
 5655POPC   C1A71583  19.082  24.402   6.178
 5655POPC   D2A71584  18.975  24.558   6.598
 5655POPC   C3A71585  19.069  24.299   6.947
 5655POPC   C4A71586  19.108  24.445   7.329
 5655POPC   C1B71587  19.135  24.910   6.179
 5655POPC   C2B71588  19.327  24.987   6.579
 5655POPC   C3B71589  19.282  24.789   6.970
 5655POPC   C4B71590  18.867  24.867   7.122
 5656POPC   NC371591   1.711  29.493   5.308
 5656POPC   PO471592   1.153  29.026   5.375
 5656POPC   GL171593   1.123  29.328   5.699
 5656POPC   GL271594   1.462  29.474   5.780
 5656POPC   C1A71595   1.121  29.233   6.132
 5656POPC   D2A71596   1.325  29.022   6.472
 5656POPC   C3A71597   1.100  29.163   6.816
 5656POPC   C4A71598   0.860  28.979   7.112
 5656POPC   C1B71599   1.642  29.453   6.231
 5656POPC   C2B71600   1.543  29.498   6.687
 5656POPC   C3B71601   1.518  29.251   7.090
 5656POPC   C4B71602   1.586  29.182   7.542
 5657POPC   NC371603  30.804  13.209   5.242
 5657POPC   PO471604  30.574  13.830   5.532
 5657POPC   GL171605  30.832  13.608   5.819
 5657POPC   GL271606  30.638  13.272   5.806
 5657POPC   C1A71607  30.952  13.796   6.251
 5657POPC   D2A71608  30.995  13.896   6.717
 5657POPC   C3A71609  30.875  13.558   7.000
 5657POPC   C4A71610  30.758  13.462   7.424
 5657POPC   C1B71611  30.517  13.476   6.209
 5657POPC   C2B71612  30.528  13.627   6.601
 5657POPC   C3B71613  30.302  13.848   6.878
 5657POPC   C4B71614  30.500  13.853   7.247
 5658POPC   NC371615  43.173  27.015   5.377
 5658POPC   PO471616  43.304  26.392   5.479
 5658POPC   GL171617  43.302  26.712   5.791
 5658POPC   GL271618  43.164  27.070   5.875
 5658POPC   C1A71619  43.383  26.741   6.211
 5658POPC   D2A71620  43.261  27.019   6.534
 5658POPC   C3A71621  43.318  26.897   6.929
 5658POPC   C4A71622  43.369  26.701   7.274
 5658POPC   C1B71623  42.878  26.996   6.196
 5658POPC   C2B71624  42.607  27.035   6.551
 5658POPC   C3B71625  42.818  27.080   6.912
 5658POPC   C4B71626  42.890  26.847   7.218
 5659POPC   NC371627  25.747   4.926   5.531
 5659POPC   PO471628  26.409   5.259   5.498
 5659POPC   GL171629  26.196   5.001   5.789
 5659POPC   GL271630  25.937   5.213   5.927
 5659POPC   C1A71631  26.086   4.785   6.190
 5659POPC   D2A71632  26.164   4.973   6.601
 5659POPC   C3A71633  26.183   4.794   6.995
 5659POPC   C4A71634  26.156   5.064   7.316
 5659POPC   C1B71635  25.776   5.165   6.321
 5659POPC   C2B71636  25.708   5.258   6.710
 5659POPC   C3B71637  25.937   5.414   7.017
 5659POPC   C4B71638  25.663   5.389   7.302
 5660POPC   NC371639  41.318  26.814   5.276
 5660POPC   PO471640  41.861  26.493   5.441
 5660POPC   GL171641  41.659  26.768   5.751
 5660POPC   GL271642  41.289  26.780   5.787
 5660POPC   C1A71643  41.693  26.920   6.185
 5660POPC   D2A71644  41.550  26.862   6.622
 5660POPC   C3A71645  41.821  26.804   7.007
 5660POPC   C4A71646  41.990  26.463   7.255
 5660POPC   C1B71647  41.188  27.078   6.122
 5660POPC   C2B71648  41.244  27.281   6.540
 5660POPC   C3B71649  41.195  27.057   6.925
 5660POPC   C4B71650  41.402  26.929   7.271
 5661POPC   NC371651  43.490   9.637   5.530
 5661POPC   PO471652  42.765   9.667   5.647
 5661POPC   GL171653  43.060   9.838   5.875
 5661POPC   GL271654  43.280   9.598   5.975
 5661POPC   C1A71655  42.960   9.786   6.317
 5661POPC   D2A71656  43.076   9.923   6.693
 5661POPC   C3A71657  42.940   9.721   7.036
 5661POPC   C4A71658  42.841   9.827   7.434
 5661POPC   C1B71659  43.472   9.769   6.312
 5661POPC   C2B71660  43.390   9.512   6.636
 5661POPC   C3B71661  43.455   9.683   7.006
 5661POPC   C4B71662  43.407   9.678   7.415
 5662POPC   NC371663  25.242  26.350   5.353
 5662POPC   PO471664  25.568  26.998   5.397
 5662POPC   GL171665  25.262  26.953   5.727
 5662POPC   GL271666  25.188  26.614   5.829
 5662POPC   C1A71667  25.235  27.024   6.148
 5662POPC   D2A71668  25.039  26.828   6.463
 5662POPC   C3A71669  25.237  26.839   6.848
 5662POPC   C4A71670  25.354  27.128   7.179
 5662POPC   C1B71671  25.363  26.473   6.274
 5662POPC   C2B71672  25.492  26.395   6.738
 5662POPC   C3B71673  25.434  26.397   7.209
 5662POPC   C4B71674  25.571  26.277   7.614
 5663POPC   NC371675   8.303   3.801   5.448
 5663POPC   PO471676   8.205   3.115   5.354
 5663POPC   GL171677   8.152   3.365   5.717
 5663POPC   GL271678   8.469   3.351   5.819
 5663POPC   C1A71679   8.197   3.624   6.149
 5663POPC   D2A71680   8.177   3.820   6.570
 5663POPC   C3A71681   8.212   3.596   6.934
 5663POPC   C4A71682   8.202   3.379   7.306
 5663POPC   C1B71683   8.640   3.306   6.200
 5663POPC   C2B71684   8.574   3.454   6.593
 5663POPC   C3B71685   8.593   3.252   6.971
 5663POPC   C4B71686   8.696   3.354   7.370
 5664POPC   NC371687  37.077  31.812   5.376
 5664POPC   PO471688  36.609  32.384   5.435
 5664POPC   GL171689  36.660  32.306   5.872
 5664POPC   GL271690  36.662  31.947   5.792
 5664POPC   C1A71691  36.821  32.434   6.299
 5664POPC   D2A71692  37.120  32.615   6.654
 5664POPC   C3A71693  36.914  32.732   7.069
 5664POPC   C4A71694  36.676  32.544   7.435
 5664POPC   C1B71695  36.883  31.914   6.206
 5664POPC   C2B71696  36.978  32.093   6.641
 5664POPC   C3B71697  36.750  32.215   6.983
 5664POPC   C4B71698  36.559  31.906   7.223
 5665POPC   NC371699   5.328  17.821   5.344
 5665POPC   PO471700   5.033  18.424   5.342
 5665POPC   GL171701   5.250  18.416   5.716
 5665POPC   GL271702   5.152  18.049   5.759
 5665POPC   C1A71703   5.366  18.612   6.125
 5665POPC   D2A71704   5.302  18.426   6.515
 5665POPC   C3A71705   5.188  18.551   6.897
 5665POPC   C4A71706   5.070  18.256   7.210
 5665POPC   C1B71707   4.993  18.243   6.127
 5665POPC   C2B71708   4.780  18.423   6.461
 5665POPC   C3B71709   4.681  18.400   6.871
 5665POPC   C4B71710   4.577  18.472   7.265
 5666POPC   NC371711  29.942  34.742   5.392
 5666POPC   PO471712  30.091  34.090   5.637
 5666POPC   GL171713  29.952  34.441   5.886
 5666POPC   GL271714  29.764  34.756   5.871
 5666POPC   C1A71715  29.960  34.439   6.325
 5666POPC   D2A71716  30.250  34.390   6.635
 5666POPC   C3A71717  29.967  34.475   6.944
 5666POPC   C4A71718  29.919  34.625   7.376
 5666POPC   C1B71719  29.712  34.897   6.319
 5666POPC   C2B71720  29.554  34.611   6.655
 5666POPC   C3B71721  29.494  34.540   7.099
 5666POPC   C4B71722  29.475  34.880   7.391
 5667POPC   NC371723  14.198   3.524   5.373
 5667POPC   PO471724  14.767   3.256   5.511
 5667POPC   GL171725  14.438   3.367   5.814
 5667POPC   GL271726  14.121   3.154   5.689
 5667POPC   C1A71727  14.495   3.651   6.209
 5667POPC   D2A71728  14.663   3.617   6.668
 5667POPC   C3A71729  14.397   3.736   7.005
 5667POPC   C4A71730  13.981   3.627   7.143
 5667POPC   C1B71731  14.108   3.149   6.131
 5667POPC   C2B71732  14.254   3.319   6.496
 5667POPC   C3B71733  14.186   3.243   6.866
 5667POPC   C4B71734  14.119   3.167   7.278
 5668POPC   NC371735  28.128  11.954   5.321
 5668POPC   PO471736  28.835  12.049   5.389
 5668POPC   GL171737  28.476  12.075   5.693
 5668POPC   GL271738  28.594  11.870   5.915
 5668POPC   C1A71739  28.247  12.181   6.105
 5668POPC   D2A71740  28.317  12.311   6.541
 5668POPC   C3A71741  28.316  12.066   6.913
 5668POPC   C4A71742  28.055  12.057   7.268
 5668POPC   C1B71743  28.785  11.829   6.283
 5668POPC   C2B71744  28.780  11.890   6.703
 5668POPC   C3B71745  28.752  11.902   7.129
 5668POPC   C4B71746  28.553  11.972   7.480
 5669POPC   NC371747  13.665  22.327   5.132
 5669POPC   PO471748  13.864  21.709   5.439
 5669POPC   GL171749  13.619  22.034   5.721
 5669POPC   GL271750  13.516  22.364   5.873
 5669POPC   C1A71751  13.468  21.951   6.153
 5669POPC   D2A71752  13.392  22.148   6.551
 5669POPC   C3A71753  13.547  21.999   6.942
 5669POPC   C4A71754  13.386  21.806   7.286
 5669POPC   C1B71755  13.713  22.467   6.303
 5669POPC   C2B71756  13.883  22.303   6.694
 5669POPC   C3B71757  13.761  22.408   7.148
 5669POPC   C4B71758  13.972  22.583   7.542
 5670POPC   NC371759  31.158  39.350   5.409
 5670POPC   PO471760  31.820  39.078   5.477
 5670POPC   GL171761  31.539  39.283   5.755
 5670POPC   GL271762  31.236  39.105   5.843
 5670POPC   C1A71763  31.585  39.259   6.202
 5670POPC   D2A71764  31.697  39.449   6.582
 5670POPC   C3A71765  31.770  39.256   6.976
 5670POPC   C4A71766  31.645  39.526   7.355
 5670POPC   C1B71767  31.145  39.493   6.070
 5670POPC   C2B71768  31.173  39.490   6.519
 5670POPC   C3B71769  31.257  39.213   6.892
 5670POPC   C4B71770  31.256  39.205   7.345
 5671POPC   NC371771   3.905  20.807   5.553
 5671POPC   PO471772   4.574  20.894   5.450
 5671POPC   GL171773   4.462  20.622   5.813
 5671POPC   GL271774   4.134  20.407   5.831
 5671POPC   C1A71775   4.528  20.474   6.232
 5671POPC   D2A71776   4.286  20.264   6.583
 5671POPC   C3A71777   4.422  20.367   7.000
 5671POPC   C4A71778   4.551  20.778   7.107
 5671POPC   C1B71779   4.052  20.626   6.245
 5671POPC   C2B71780   4.215  20.756   6.686
 5671POPC   C3B71781   4.049  20.677   7.123
 5671POPC   C4B71782   3.947  20.513   7.532
 5672POPC   NC371783  28.634  12.497   5.442
 5672POPC   PO471784  28.180  12.882   5.590
 5672POPC   GL171785  28.313  12.703   5.963
 5672POPC   GL271786  28.693  12.765   5.890
 5672POPC   C1A71787  28.115  12.901   6.354
 5672POPC   D2A71788  28.060  13.173   6.721
 5672POPC   C3A71789  28.100  12.888   7.059
 5672POPC   C4A71790  28.294  12.509   7.140
 5672POPC   C1B71791  28.623  12.931   6.300
 5672POPC   C2B71792  28.512  12.838   6.735
 5672POPC   C3B71793  28.659  12.905   7.171
 5672POPC   C4B71794  28.848  12.832   7.591
 5673POPC   NC371795  25.843  30.012   5.384
 5673POPC   PO471796  26.096  29.429   5.452
 5673POPC   GL171797  26.078  29.748   5.803
 5673POPC   GL271798  26.118  30.120   5.797
 5673POPC   C1A71799  26.111  29.806   6.252
 5673POPC   D2A71800  25.974  29.644   6.645
 5673POPC   C3A71801  26.059  29.820   7.028
 5673POPC   C4A71802  26.317  29.700   7.358
 5673POPC   C1B71803  25.988  30.296   6.171
 5673POPC   C2B71804  26.020  30.168   6.607
 5673POPC   C3B71805  25.987  30.332   7.016
 5673POPC   C4B71806  26.087  30.166   7.424
 5674POPC   NC371807   7.970  16.906   5.579
 5674POPC   PO471808   8.166  17.548   5.434
 5674POPC   GL171809   8.131  17.505   5.868
 5674POPC   GL271810   8.477  17.536   5.976
 5674POPC   C1A71811   7.857  17.653   6.207
 5674POPC   D2A71812   7.755  17.467   6.613
 5674POPC   C3A71813   7.788  17.729   6.965
 5674POPC   C4A71814   7.834  17.647   7.380
 5674POPC   C1B71815   8.324  17.460   6.388
 5674POPC   C2B71816   8.198  17.174   6.692
 5674POPC   C3B71817   8.092  17.310   7.097
 5674POPC   C4B71818   8.278  17.422   7.514
 5675POPC   NC371819   2.927  26.967   5.538
 5675POPC   PO471820   2.301  26.828   5.673
 5675POPC   GL171821   2.581  26.581   5.881
 5675POPC   GL271822   2.942  26.659   5.943
 5675POPC   C1A71823   2.584  26.727   6.300
 5675POPC   D2A71824   2.443  26.593   6.637
 5675POPC   C3A71825   2.649  26.610   6.978
 5675POPC   C4A71826   2.744  26.968   7.157
 5675POPC   C1B71827   2.950  27.056   6.209
 5675POPC   C2B71828   2.825  27.082   6.656
 5675POPC   C3B71829   3.118  27.248   6.976
 5675POPC   C4B71830   3.212  27.053   7.356
 5676POPC   NC371831  15.610  19.821   5.473
 5676POPC   PO471832  16.103  19.401   5.350
 5676POPC   GL171833  16.020  19.678   5.756
 5676POPC   GL271834  15.681  19.692   5.961
 5676POPC   C1A71835  16.037  19.973   6.149
 5676POPC   D2A71836  15.775  19.967   6.521
 5676POPC   C3A71837  15.958  19.938   6.926
 5676POPC   C4A71838  15.820  20.001   7.323
 5676POPC   C1B71839  15.766  19.502   6.363
 5676POPC   C2B71840  15.894  19.387   6.820
 5676POPC   C3B71841  15.963  19.512   7.248
 5676POPC   C4B71842  16.124  19.587   7.693
 5677POPC   NC371843  10.897  19.524   5.484
 5677POPC   PO471844  11.418  19.957   5.413
 5677POPC   GL171845  11.463  20.025   5.819
 5677POPC   GL271846  11.734  20.239   5.891
 5677POPC   C1A71847  11.272  20.018   6.223
 5677POPC   D2A71848  11.091  19.774   6.532
 5677POPC   C3A71849  11.098  19.957   6.914
 5677POPC   C4A71850  11.049  19.689   7.243
 5677POPC   C1B71851  11.778  19.891   6.188
 5677POPC   C2B71852  11.625  19.852   6.584
 5677POPC   C3B71853  11.534  19.729   6.990
 5677POPC   C4B71854  11.453  19.960   7.360
 5678POPC   NC371855  44.353   9.144   5.427
 5678POPC   PO471856  43.930   8.676   5.267
 5678POPC   GL171857  43.839   8.691   5.725
 5678POPC   GL271858  43.743   9.069   5.736
 5678POPC   C1A71859  44.012   8.829   6.134
 5678POPC   D2A71860  44.109   8.735   6.562
 5678POPC   C3A71861  44.121   9.058   6.866
 5678POPC   C4A71862  43.969   8.918   7.258
 5678POPC   C1B71863  43.642   9.245   6.141
 5678POPC   C2B71864  43.677   9.069   6.562
 5678POPC   C3B71865  43.622   9.197   6.992
 5678POPC   C4B71866  43.875   9.439   7.237
 5679POPC   NC371867   8.513   5.754   5.606
 5679POPC   PO471868   7.906   5.972   5.514
 5679POPC   GL171869   8.133   5.953   5.880
 5679POPC   GL271870   8.023   5.598   5.857
 5679POPC   C1A71871   8.311   5.992   6.293
 5679POPC   D2A71872   8.016   5.840   6.608
 5679POPC   C3A71873   8.111   5.864   7.032
 5679POPC   C4A71874   8.545   5.883   7.131
 5679POPC   C1B71875   8.254   5.483   6.225
 5679POPC   C2B71876   8.458   5.245   6.541
 5679POPC   C3B71877   8.591   5.337   6.936
 5679POPC   C4B71878   8.284   5.441   7.234
 5680POPC   NC371879  21.206  20.042   5.543
 5680POPC   PO471880  21.526  19.426   5.434
 5680POPC   GL171881  21.435  19.653   5.831
 5680POPC   GL271882  21.545  19.987   5.932
 5680POPC   C1A71883  21.360  19.621   6.293
 5680POPC   D2A71884  21.354  19.957   6.612
 5680POPC   C3A71885  21.294  19.916   7.040
 5680POPC   C4A71886  20.932  19.637   7.120
 5680POPC   C1B71887  21.792  19.898   6.332
 5680POPC   C2B71888  21.782  19.681   6.748
 5680POPC   C3B71889  21.816  19.796   7.195
 5680POPC   C4B71890  21.554  19.784   7.585
 5681POPC   NC371891  24.983  28.915   5.263
 5681POPC   PO471892  24.530  28.378   5.409
 5681POPC   GL171893  24.658  28.486   5.834
 5681POPC   GL271894  24.805  28.791   5.764
 5681POPC   C1A71895  24.579  28.406   6.270
 5681POPC   D2A71896  24.451  28.561   6.674
 5681POPC   C3A71897  24.687  28.340   6.996
 5681POPC   C4A71898  24.666  28.216   7.435
 5681POPC   C1B71899  24.695  28.910   6.189
 5681POPC   C2B71900  24.854  28.861   6.588
 5681POPC   C3B71901  24.708  28.881   7.015
 5681POPC   C4B71902  24.490  28.682   7.330
 5682POPC   NC371903  14.168  14.579   5.608
 5682POPC   PO471904  14.822  14.278   5.572
 5682POPC   GL171905  14.589  14.412   5.918
 5682POPC   GL271906  14.268  14.260   5.982
 5682POPC   C1A71907  14.583  14.291   6.366
 5682POPC   D2A71908  14.565  14.569   6.704
 5682POPC   C3A71909  14.476  14.378   7.084
 5682POPC   C4A71910  14.455  14.067   7.428
 5682POPC   C1B71911  14.083  14.470   6.296
 5682POPC   C2B71912  14.074  14.408   6.724
 5682POPC   C3B71913  14.091  14.699   7.034
 5682POPC   C4B71914  14.137  15.011   7.282
 5683POPC   NC371915  18.772   6.787   5.251
 5683POPC   PO471916  18.152   6.575   5.476
 5683POPC   GL171917  18.140   6.622   5.874
 5683POPC   GL271918  18.470   6.790   5.899
 5683POPC   C1A71919  18.228   6.401   6.231
 5683POPC   D2A71920  18.067   6.461   6.623
 5683POPC   C3A71921  18.336   6.501   6.975
 5683POPC   C4A71922  18.092   6.739   7.192
 5683POPC   C1B71923  18.283   6.898   6.288
 5683POPC   C2B71924  18.320   6.923   6.709
 5683POPC   C3B71925  18.503   7.046   7.074
 5683POPC   C4B71926  18.449   6.950   7.492
 5684POPC   NC371927  31.749  17.775   5.579
 5684POPC   PO471928  31.293  17.315   5.329
 5684POPC   GL171929  31.337  17.453   5.777
 5684POPC   GL271930  31.683  17.300   5.820
 5684POPC   C1A71931  31.366  17.733   6.207
 5684POPC   D2A71932  31.126  17.877   6.615
 5684POPC   C3A71933  31.290  17.687   6.988
 5684POPC   C4A71934  31.694  17.684   7.128
 5684POPC   C1B71935  31.463  17.240   6.228
 5684POPC   C2B71936  31.559  17.434   6.630
 5684POPC   C3B71937  31.503  17.204   7.015
 5684POPC   C4B71938  31.133  17.033   7.214
 5685POPC   NC371939  33.994  15.627   5.036
 5685POPC   PO471940  33.769  16.139   5.424
 5685POPC   GL171941  33.767  15.951   5.863
 5685POPC   GL271942  34.016  15.627   5.878
 5685POPC   C1A71943  34.042  15.951   6.272
 5685POPC   D2A71944  33.906  15.703   6.649
 5685POPC   C3A71945  33.938  15.865   7.057
 5685POPC   C4A71946  34.208  16.176   7.216
 5685POPC   C1B71947  33.710  15.566   6.180
 5685POPC   C2B71948  33.544  15.952   6.361
 5685POPC   C3B71949  33.423  15.944   6.750
 5685POPC   C4B71950  33.449  15.926   7.219
 5686POPC   NC371951   5.388  26.888   5.446
 5686POPC   PO471952   4.911  26.522   5.444
 5686POPC   GL171953   5.000  26.636   5.841
 5686POPC   GL271954   5.152  26.949   5.878
 5686POPC   C1A71955   5.240  26.549   6.207
 5686POPC   D2A71956   5.421  26.530   6.613
 5686POPC   C3A71957   5.081  26.697   6.843
 5686POPC   C4A71958   5.122  26.895   7.198
 5686POPC   C1B71959   4.829  27.146   6.107
 5686POPC   C2B71960   4.815  27.383   6.476
 5686POPC   C3B71961   4.976  27.246   6.858
 5686POPC   C4B71962   4.770  27.243   7.256
 5687POPC   NC371963  21.746   5.768   5.405
 5687POPC   PO471964  21.425   6.327   5.572
 5687POPC   GL171965  21.390   6.003   5.871
 5687POPC   GL271966  21.274   5.657   5.762
 5687POPC   C1A71967  21.412   5.989   6.315
 5687POPC   D2A71968  21.290   5.853   6.710
 5687POPC   C3A71969  21.402   6.117   7.045
 5687POPC   C4A71970  21.573   6.011   7.441
 5687POPC   C1B71971  21.068   5.389   6.085
 5687POPC   C2B71972  20.925   5.425   6.518
 5687POPC   C3B71973  20.950   5.553   6.935
 5687POPC   C4B71974  21.134   5.740   7.299
 5688POPC   NC371975  24.283   3.262   5.636
 5688POPC   PO471976  24.915   3.438   5.457
 5688POPC   GL171977  24.760   3.525   5.799
 5688POPC   GL271978  24.718   3.182   5.891
 5688POPC   C1A71979  24.847   3.837   6.085
 5688POPC   D2A71980  24.665   3.872   6.488
 5688POPC   C3A71981  24.838   3.722   6.902
 5688POPC   C4A71982  24.693   3.736   7.323
 5688POPC   C1B71983  24.582   3.384   6.269
 5688POPC   C2B71984  24.456   3.468   6.684
 5688POPC   C3B71985  24.305   3.527   7.072
 5688POPC   C4B71986  24.372   3.337   7.496
 5689POPC   NC371987  13.398  15.510   5.594
 5689POPC   PO471988  13.824  14.925   5.544
 5689POPC   GL171989  13.713  14.773   5.935
 5689POPC   GL271990  13.569  15.129   5.971
 5689POPC   C1A71991  13.719  14.852   6.376
 5689POPC   D2A71992  13.825  15.052   6.766
 5689POPC   C3A71993  13.640  14.935   7.170
 5689POPC   C4A71994  13.718  15.104   7.622
 5689POPC   C1B71995  13.282  15.257   6.277
 5689POPC   C2B71996  13.422  15.382   6.671
 5689POPC   C3B71997  13.602  15.431   7.040
 5689POPC   C4B71998  13.372  15.334   7.352
 5690POPC   NC371999  17.183  39.425   5.188
 5690POPC   PO472000  17.786  39.540   5.522
 5690POPC   GL172001  17.682  39.172   5.836
 5690POPC   GL272002  17.635  39.425   6.095
 5690POPC   C1A72003  17.670  38.927   6.269
 5690POPC   D2A72004  17.577  39.254   6.578
 5690POPC   C3A72005  17.717  39.258   7.016
 5690POPC   C4A72006  17.659  39.591   7.339
 5690POPC   C1B72007  17.238  39.149   6.143
 5690POPC   C2B72008  17.195  38.850   6.489
 5690POPC   C3B72009  17.247  39.025   6.877
 5690POPC   C4B72010  17.232  39.338   7.182
 5691POPC   NC372011  38.120  22.895   5.494
 5691POPC   PO472012  38.787  22.670   5.575
 5691POPC   GL172013  38.732  22.915   5.942
 5691POPC   GL272014  38.401  23.106   5.891
 5691POPC   C1A72015  38.522  22.871   6.320
 5691POPC   D2A72016  38.491  23.046   6.711
 5691POPC   C3A72017  38.335  22.725   6.984
 5691POPC   C4A72018  38.634  22.521   7.238
 5691POPC   C1B72019  38.164  23.239   6.300
 5691POPC   C2B72020  37.973  23.130   6.721
 5691POPC   C3B72021  38.202  23.234   7.090
 5691POPC   C4B72022  38.381  23.601   7.158
 5692POPC   NC372023  35.529   4.053   5.463
 5692POPC   PO472024  35.652   4.760   5.467
 5692POPC   GL172025  35.412   4.643   5.847
 5692POPC   GL272026  35.288   4.287   5.852
 5692POPC   C1A72027  35.117   4.664   6.207
 5692POPC   D2A72028  34.980   4.501   6.628
 5692POPC   C3A72029  35.298   4.522   6.966
 5692POPC   C4A72030  35.315   4.488   7.421
 5692POPC   C1B72031  35.518   4.040   6.150
 5692POPC   C2B72032  35.442   4.086   6.571
 5692POPC   C3B72033  35.437   4.029   6.994
 5692POPC   C4B72034  35.109   4.053   7.297
 5693POPC   NC372035   2.178  27.255   5.541
 5693POPC   PO472036   1.801  26.779   5.301
 5693POPC   GL172037   1.805  26.846   5.777
 5693POPC   GL272038   1.826  26.524   5.851
 5693POPC   C1A72039   1.915  26.805   6.266
 5693POPC   D2A72040   2.179  27.000   6.608
 5693POPC   C3A72041   2.219  26.871   7.026
 5693POPC   C4A72042   2.307  27.175   7.303
 5693POPC   C1B72043   1.703  26.340   6.248
 5693POPC   C2B72044   1.540  26.431   6.648
 5693POPC   C3B72045   1.766  26.639   6.946
 5693POPC   C4B72046   1.805  26.848   7.338
 5694POPC   NC372047   3.106  31.722   5.350
 5694POPC   PO472048   3.545  32.213   5.382
 5694POPC   GL172049   3.723  32.152   5.772
 5694POPC   GL272050   3.439  32.361   5.891
 5694POPC   C1A72051   3.844  32.313   6.189
 5694POPC   D2A72052   3.589  32.405   6.549
 5694POPC   C3A72053   3.783  32.306   6.957
 5694POPC   C4A72054   3.667  32.485   7.344
 5694POPC   C1B72055   3.255  32.042   6.158
 5694POPC   C2B72056   3.306  31.934   6.556
 5694POPC   C3B72057   3.258  32.198   6.904
 5694POPC   C4B72058   3.411  32.061   7.281
 5695POPC   NC372059  34.772  43.348   5.516
 5695POPC   PO472060  34.546  42.613   5.499
 5695POPC   GL172061  34.560  42.859   5.848
 5695POPC   GL272062  34.896  42.954   5.863
 5695POPC   C1A72063  34.335  42.810   6.231
 5695POPC   D2A72064  34.174  42.985   6.576
 5695POPC   C3A72065  34.438  43.020   6.917
 5695POPC   C4A72066  34.391  42.978   7.349
 5695POPC   C1B72067  34.799  43.112   6.307
 5695POPC   C2B72068  34.942  43.117   6.767
 5695POPC   C3B72069  34.807  43.345   7.138
 5695POPC   C4B72070  34.925  43.778   7.171
 5696POPC   NC372071  39.488  38.333   5.428
 5696POPC   PO472072  40.068  38.661   5.175
 5696POPC   GL172073  39.974  38.486   5.658
 5696POPC   GL272074  39.898  38.750   5.913
 5696POPC   C1A72075  40.020  38.304   6.137
 5696POPC   D2A72076  39.998  38.452   6.599
 5696POPC   C3A72077  39.977  38.250   6.989
 5696POPC   C4A72078  40.151  37.917   7.242
 5696POPC   C1B72079  40.209  38.793   6.248
 5696POPC   C2B72080  40.393  38.789   6.671
 5696POPC   C3B72081  40.266  38.707   7.095
 5696POPC   C4B72082  40.270  38.395   7.380
 5697POPC   NC372083   6.315  32.452   5.391
 5697POPC   PO472084   6.656  31.884   5.455
 5697POPC   GL172085   6.637  32.218   5.759
 5697POPC   GL272086   6.988  32.360   5.750
 5697POPC   C1A72087   6.440  32.414   6.145
 5697POPC   D2A72088   6.567  32.311   6.576
 5697POPC   C3A72089   6.321  32.419   6.958
 5697POPC   C4A72090   6.543  32.408   7.328
 5697POPC   C1B72091   7.084  32.673   6.076
 5697POPC   C2B72092   7.015  32.686   6.525
 5697POPC   C3B72093   6.923  32.484   6.930
 5697POPC   C4B72094   6.993  32.653   7.349
 5698POPC   NC372095  42.942  16.965   4.966
 5698POPC   PO472096  42.918  16.537   5.543
 5698POPC   GL172097  42.989  16.702   5.919
 5698POPC   GL272098  43.300  16.545   5.957
 5698POPC   C1A72099  43.102  16.945   6.261
 5698POPC   D2A72100  43.296  16.961   6.672
 5698POPC   C3A72101  42.986  16.837   6.969
 5698POPC   C4A72102  42.759  17.004   7.320
 5698POPC   C1B72103  43.486  16.630   6.316
 5698POPC   C2B72104  43.555  16.447   6.666
 5698POPC   C3B72105  43.436  16.565   7.051
 5698POPC   C4B72106  43.239  16.742   7.404
 5699POPC   NC372107   1.533  40.837   5.258
 5699POPC   PO472108   1.350  40.196   5.464
 5699POPC   GL172109   1.206  40.481   5.787
 5699POPC   GL272110   1.316  40.841   5.735
 5699POPC   C1A72111   1.427  40.594   6.169
 5699POPC   D2A72112   1.433  40.447   6.568
 5699POPC   C3A72113   1.170  40.646   6.832
 5699POPC   C4A72114   1.349  40.760   7.191
 5699POPC   C1B72115   1.057  40.954   6.088
 5699POPC   C2B72116   0.987  41.040   6.517
 5699POPC   C3B72117   1.121  41.156   6.927
 5699POPC   C4B72118   0.968  41.066   7.342
 5700POPC   NC372119  38.863  37.765   5.498
 5700POPC   PO472120  39.475  37.874   5.348
 5700POPC   GL172121  39.340  37.665   5.794
 5700POPC   GL272122  39.078  37.839   6.001
 5700POPC   C1A72123  39.252  37.420   6.244
 5700POPC   D2A72124  39.199  37.124   6.631
 5700POPC   C3A72125  39.101  37.329   7.041
 5700POPC   C4A72126  39.368  37.554   7.327
 5700POPC   C1B72127  39.108  38.135   6.361
 5700POPC   C2B72128  39.032  37.968   6.727
 5700POPC   C3B72129  39.167  37.968   7.120
 5700POPC   C4B72130  38.962  37.871   7.495
 5701POPC   NC372131  19.347  22.914   5.408
 5701POPC   PO472132  18.722  22.577   5.456
 5701POPC   GL172133  18.984  22.824   5.770
 5701POPC   GL272134  19.266  23.090   5.861
 5701POPC   C1A72135  18.945  22.792   6.204
 5701POPC   D2A72136  18.702  22.886   6.571
 5701POPC   C3A72137  18.871  22.766   6.949
 5701POPC   C4A72138  18.817  23.125   7.157
 5701POPC   C1B72139  19.289  23.165   6.277
 5701POPC   C2B72140  19.216  23.008   6.674
 5701POPC   C3B72141  19.323  23.091   7.091
 5701POPC   C4B72142  19.598  23.411   7.229
 5702POPC   NC372143   0.034  34.828   5.639
 5702POPC   PO472144   0.550  34.446   5.356
 5702POPC   GL172145   0.540  34.675   5.754
 5702POPC   GL272146   0.758  34.474   5.921
 5702POPC   C1A72147   0.422  34.772   6.186
 5702POPC   D2A72148   0.137  34.599   6.496
 5702POPC   C3A72149   0.256  34.590   6.935
 5702POPC   C4A72150   0.606  34.830   7.157
 5702POPC   C1B72151   0.806  34.493   6.362
 5702POPC   C2B72152   0.778  34.528   6.778
 5702POPC   C3B72153   0.612  34.259   7.076
 5702POPC   C4B72154   0.590  34.322   7.506
 5703POPC   NC372155  16.251  35.490   5.621
 5703POPC   PO472156  16.846  35.215   5.473
 5703POPC   GL172157  16.764  35.336   5.861
 5703POPC   GL272158  16.486  35.159   5.930
 5703POPC   C1A72159  17.000  35.478   6.220
 5703POPC   D2A72160  17.108  35.309   6.617
 5703POPC   C3A72161  16.908  35.274   7.025
 5703POPC   C4A72162  16.889  35.650   7.218
 5703POPC   C1B72163  16.670  35.069   6.309
 5703POPC   C2B72164  16.559  35.123   6.697
 5703POPC   C3B72165  16.397  35.307   7.052
 5703POPC   C4B72166  16.288  35.517   7.405
 5704POPC   NC372167  22.235  34.931   5.322
 5704POPC   PO472168  22.054  34.281   5.379
 5704POPC   GL172169  22.264  34.549   5.688
 5704POPC   GL272170  22.101  34.847   5.801
 5704POPC   C1A72171  22.398  34.543   6.113
 5704POPC   D2A72172  22.520  34.638   6.528
 5704POPC   C3A72173  22.173  34.603   6.862
 5704POPC   C4A72174  22.217  34.473   7.268
 5704POPC   C1B72175  21.918  34.790   6.196
 5704POPC   C2B72176  21.759  34.825   6.597
 5704POPC   C3B72177  21.808  35.017   6.974
 5704POPC   C4B72178  21.959  34.894   7.333
 5705POPC   NC372179   2.624  42.988   5.423
 5705POPC   PO472180   3.292  43.075   5.331
 5705POPC   GL172181   2.999  43.065   5.784
 5705POPC   GL272182   2.689  43.276   5.845
 5705POPC   C1A72183   2.897  43.201   6.287
 5705POPC   D2A72184   2.601  43.255   6.669
 5705POPC   C3A72185   2.856  43.179   7.052
 5705POPC   C4A72186   3.241  43.305   7.260
 5705POPC   C1B72187   2.544  42.881   6.078
 5705POPC   C2B72188   2.388  42.778   6.509
 5705POPC   C3B72189   2.425  42.824   6.948
 5705POPC   C4B72190   2.380  43.169   7.249
 5706POPC   NC372191   7.650  21.081   5.739
 5706POPC   PO472192   7.710  21.598   5.338
 5706POPC   GL172193   7.418  21.652   5.719
 5706POPC   GL272194   7.186  21.387   5.744
 5706POPC   C1A72195   7.280  21.748   6.179
 5706POPC   D2A72196   7.354  21.511   6.579
 5706POPC   C3A72197   7.275  21.659   6.994
 5706POPC   C4A72198   7.387  21.535   7.422
 5706POPC   C1B72199   7.097  21.282   6.165
 5706POPC   C2B72200   7.133  21.035   6.546
 5706POPC   C3B72201   7.063  21.187   6.981
 5706POPC   C4B72202   7.015  21.172   7.436
 5707POPC   NC372203  36.528   9.820   5.239
 5707POPC   PO472204  35.918   9.680   5.399
 5707POPC   GL172205  35.865   9.508   5.818
 5707POPC   GL272206  36.214   9.499   5.890
 5707POPC   C1A72207  35.850   9.387   6.256
 5707POPC   D2A72208  36.053   9.360   6.679
 5707POPC   C3A72209  35.903   9.601   7.063
 5707POPC   C4A72210  35.916   9.641   7.529
 5707POPC   C1B72211  36.266   9.680   6.338
 5707POPC   C2B72212  36.279   9.848   6.794
 5707POPC   C3B72213  36.500  10.142   7.112
 5707POPC   C4B72214  36.463  10.289   7.555
 5708POPC   NC372215   6.800  19.861   5.111
 5708POPC   PO472216   7.395  19.883   5.344
 5708POPC   GL172217   7.304  19.728   5.735
 5708POPC   GL272218   7.563  19.952   5.842
 5708POPC   C1A72219   7.317  19.678   6.204
 5708POPC   D2A72220   7.558  19.578   6.583
 5708POPC   C3A72221   7.367  19.677   6.979
 5708POPC   C4A72222   7.094  19.851   7.292
 5708POPC   C1B72223   7.776  19.943   6.241
 5708POPC   C2B72224   7.819  20.221   6.584
 5708POPC   C3B72225   7.871  20.130   6.995
 5708POPC   C4B72226   7.605  19.974   7.336
 5709POPC   NC372227  41.307  10.232   5.323
 5709POPC   PO472228  40.642  10.481   5.459
 5709POPC   GL172229  40.913  10.453   5.835
 5709POPC   GL272230  41.115  10.140   5.923
 5709POPC   C1A72231  40.895  10.539   6.277
 5709POPC   D2A72232  40.683  10.631   6.659
 5709POPC   C3A72233  40.853  10.794   7.008
 5709POPC   C4A72234  40.964  10.602   7.342
 5709POPC   C1B72235  41.259  10.177   6.375
 5709POPC   C2B72236  41.250  10.194   6.851
 5709POPC   C3B72237  41.219   9.981   7.273
 5709POPC   C4B72238  41.078  10.216   7.654
 5710POPC   NC372239  22.446  33.035   5.650
 5710POPC   PO472240  21.771  32.981   5.518
 5710POPC   GL172241  21.884  32.905   5.948
 5710POPC   GL272242  22.079  33.210   5.970
 5710POPC   C1A72243  21.968  32.956   6.418
 5710POPC   D2A72244  22.373  32.931   6.591
 5710POPC   C3A72245  22.320  32.900   7.007
 5710POPC   C4A72246  22.326  33.203   7.277
 5710POPC   C1B72247  21.954  33.440   6.323
 5710POPC   C2B72248  22.056  33.348   6.773
 5710POPC   C3B72249  21.849  33.128   7.081
 5710POPC   C4B72250  21.795  33.199   7.501
 5711POPC   NC372251   6.054  22.910   5.334
 5711POPC   PO472252   5.349  22.899   5.274
 5711POPC   GL172253   5.582  22.792   5.702
 5711POPC   GL272254   5.947  22.704   5.805
 5711POPC   C1A72255   5.669  23.015   6.125
 5711POPC   D2A72256   5.700  23.278   6.526
 5711POPC   C3A72257   5.665  23.165   6.954
 5711POPC   C4A72258   5.623  22.788   7.229
 5711POPC   C1B72259   6.127  22.794   6.230
 5711POPC   C2B72260   5.927  22.804   6.648
 5711POPC   C3B72261   6.105  22.937   7.026
 5711POPC   C4B72262   6.420  22.904   7.272
 5712POPC   NC372263  13.604  42.013   5.482
 5712POPC   PO472264  13.455  41.404   5.152
 5712POPC   GL172265  13.401  41.414   5.633
 5712POPC   GL272266  13.703  41.569   5.760
 5712POPC   C1A72267  13.373  41.381   6.120
 5712POPC   D2A72268  13.290  41.199   6.559
 5712POPC   C3A72269  13.487  41.320   6.967
 5712POPC   C4A72270  13.825  41.297   7.300
 5712POPC   C1B72271  13.667  41.859   6.124
 5712POPC   C2B72272  13.687  41.882   6.579
 5712POPC   C3B72273  13.816  41.714   6.964
 5712POPC   C4B72274  13.806  41.789   7.398
 5713POPC   NC372275  20.161  31.469   5.408
 5713POPC   PO472276  19.709  31.878   5.457
 5713POPC   GL172277  19.834  31.615   5.820
 5713POPC   GL272278  19.561  31.346   5.833
 5713POPC   C1A72279  20.017  31.467   6.230
 5713POPC   D2A72280  20.237  31.264   6.582
 5713POPC   C3A72281  20.173  31.445   6.980
 5713POPC   C4A72282  20.062  31.372   7.414
 5713POPC   C1B72283  19.491  31.453   6.282
 5713POPC   C2B72284  19.735  31.347   6.669
 5713POPC   C3B72285  19.652  31.351   7.108
 5713POPC   C4B72286  19.347  31.286   7.445
 5714POPC   NC372287  34.312   4.694   5.407
 5714POPC   PO472288  34.383   4.034   5.600
 5714POPC   GL172289  34.748   4.179   5.840
 5714POPC   GL272290  34.591   4.500   5.829
 5714POPC   C1A72291  34.983   4.124   6.251
 5714POPC   D2A72292  34.972   3.933   6.693
 5714POPC   C3A72293  34.729   4.179   6.973
 5714POPC   C4A72294  34.855   4.498   7.218
 5714POPC   C1B72295  34.426   4.300   6.227
 5714POPC   C2B72296  34.437   4.467   6.645
 5714POPC   C3B72297  34.420   4.689   7.039
 5714POPC   C4B72298  34.427   4.573   7.494
 5715POPC   NC372299  24.226  13.512   5.269
 5715POPC   PO472300  24.743  13.218   5.529
 5715POPC   GL172301  24.488  13.342   5.922
 5715POPC   GL272302  24.107  13.385   5.809
 5715POPC   C1A72303  24.594  13.336   6.372
 5715POPC   D2A72304  24.663  13.271   6.809
 5715POPC   C3A72305  24.846  13.611   7.038
 5715POPC   C4A72306  24.757  14.032   7.157
 5715POPC   C1B72307  24.080  13.481   6.246
 5715POPC   C2B72308  24.182  13.555   6.682
 5715POPC   C3B72309  24.289  13.468   7.094
 5715POPC   C4B72310  24.093  13.596   7.431
 5716POPC   NC372311  41.044   9.268   5.356
 5716POPC   PO472312  41.601   8.976   5.428
 5716POPC   GL172313  41.541   8.905   5.824
 5716POPC   GL272314  41.888   8.941   5.868
 5716POPC   C1A72315  41.364   9.029   6.224
 5716POPC   D2A72316  41.209   9.205   6.590
 5716POPC   C3A72317  41.409   8.973   6.878
 5716POPC   C4A72318  41.284   9.039   7.255
 5716POPC   C1B72319  42.028   8.704   6.198
 5716POPC   C2B72320  41.804   8.761   6.557
 5716POPC   C3B72321  41.812   8.617   6.945
 5716POPC   C4B72322  41.789   8.911   7.252
 5717POPC   NC372323  39.539  13.804   5.053
 5717POPC   PO472324  39.050  13.673   5.507
 5717POPC   GL172325  39.119  13.649   5.908
 5717POPC   GL272326  39.424  13.463   5.891
 5717POPC   C1A72327  39.184  13.613   6.352
 5717POPC   D2A72328  39.352  13.302   6.639
 5717POPC   C3A72329  39.112  13.336   7.017
 5717POPC   C4A72330  39.169  13.527   7.395
 5717POPC   C1B72331  39.636  13.717   6.183
 5717POPC   C2B72332  39.561  13.878   6.570
 5717POPC   C3B72333  39.396  13.760   6.965
 5717POPC   C4B72334  39.437  13.960   7.391
 5718POPC   NC372335  34.631  31.189   5.457
 5718POPC   PO472336  34.842  30.548   5.261
 5718POPC   GL172337  34.646  30.602   5.724
 5718POPC   GL272338  34.766  30.906   5.885
 5718POPC   C1A72339  34.358  30.653   6.149
 5718POPC   D2A72340  34.333  30.797   6.594
 5718POPC   C3A72341  34.226  30.564   6.970
 5718POPC   C4A72342  34.418  30.517   7.380
 5718POPC   C1B72343  34.751  31.022   6.330
 5718POPC   C2B72344  34.828  30.931   6.771
 5718POPC   C3B72345  34.804  30.821   7.211
 5718POPC   C4B72346  35.005  30.899   7.605
 5719POPC   NC372347  19.876  39.100   5.545
 5719POPC   PO472348  20.158  39.662   5.210
 5719POPC   GL172349  19.742  39.653   5.569
 5719POPC   GL272350  19.456  39.395   5.651
 5719POPC   C1A72351  19.683  39.635   6.059
 5719POPC   D2A72352  20.018  39.590   6.421
 5719POPC   C3A72353  20.017  39.349   6.828
 5719POPC   C4A72354  19.728  39.206   7.151
 5719POPC   C1B72355  19.462  39.181   6.085
 5719POPC   C2B72356  19.449  39.143   6.556
 5719POPC   C3B72357  19.333  38.965   6.968
 5719POPC   C4B72358  19.630  38.700   7.219
 5720POPC   NC372359  24.354  12.992   5.592
 5720POPC   PO472360  24.775  12.549   5.273
 5720POPC   GL172361  24.560  12.416   5.669
 5720POPC   GL272362  24.263  12.571   5.843
 5720POPC   C1A72363  24.648  12.450   6.143
 5720POPC   D2A72364  24.331  12.456   6.491
 5720POPC   C3A72365  24.380  12.623   6.932
 5720POPC   C4A72366  24.522  12.980   7.196
 5720POPC   C1B72367  24.381  12.882   6.212
 5720POPC   C2B72368  24.242  13.030   6.613
 5720POPC   C3B72369  24.018  13.029   6.997
 5720POPC   C4B72370  24.097  13.085   7.438
 5721POPC   NC372371  33.642  31.730   5.433
 5721POPC   PO472372  34.251  31.480   5.342
 5721POPC   GL172373  33.979  31.538   5.796
 5721POPC   GL272374  33.632  31.484   5.884
 5721POPC   C1A72375  34.044  31.493   6.286
 5721POPC   D2A72376  34.187  31.723   6.678
 5721POPC   C3A72377  34.090  31.532   7.077
 5721POPC   C4A72378  33.689  31.336   7.190
 5721POPC   C1B72379  33.569  31.676   6.286
 5721POPC   C2B72380  33.674  31.577   6.715
 5721POPC   C3B72381  33.463  31.797   7.036
 5721POPC   C4B72382  33.248  31.608   7.366
 5722POPC   NC372383  20.534  13.029   5.452
 5722POPC   PO472384  20.976  12.641   5.578
 5722POPC   GL172385  20.792  12.869   5.884
 5722POPC   GL272386  20.493  12.698   5.860
 5722POPC   C1A72387  20.649  12.931   6.316
 5722POPC   D2A72388  20.902  12.809   6.669
 5722POPC   C3A72389  20.670  12.886   7.040
 5722POPC   C4A72390  20.409  12.866   7.407
 5722POPC   C1B72391  20.266  12.493   6.178
 5722POPC   C2B72392  20.010  12.556   6.556
 5722POPC   C3B72393  20.252  12.611   6.917
 5722POPC   C4B72394  20.454  12.352   7.207
 5723POPC   NC372395  39.502  28.511   5.391
 5723POPC   PO472396  38.863  28.398   5.434
 5723POPC   GL172397  38.968  28.287   5.841
 5723POPC   GL272398  39.265  28.490   5.838
 5723POPC   C1A72399  39.208  28.100   6.193
 5723POPC   D2A72400  39.390  27.957   6.581
 5723POPC   C3A72401  39.197  27.990   6.974
 5723POPC   C4A72402  39.404  28.123   7.334
 5723POPC   C1B72403  39.136  28.621   6.235
 5723POPC   C2B72404  39.029  28.469   6.643
 5723POPC   C3B72405  39.243  28.512   7.017
 5723POPC   C4B72406  39.352  28.710   7.366
 5724POPC   NC372407  41.415  42.943   5.321
 5724POPC   PO472408  41.767  43.461   5.325
 5724POPC   GL172409  41.545  43.320   5.747
 5724POPC   GL272410  41.425  42.956   5.825
 5724POPC   C1A72411  41.663  43.236   6.216
 5724POPC   D2A72412  41.771  43.448   6.616
 5724POPC   C3A72413  41.542  43.370   7.002
 5724POPC   C4A72414  41.640  43.066   7.319
 5724POPC   C1B72415  41.216  42.966   6.223
 5724POPC   C2B72416  41.242  43.163   6.625
 5724POPC   C3B72417  41.239  42.947   7.022
 5724POPC   C4B72418  40.980  42.846   7.352
 5725POPC   NC372419   9.894  22.542   5.017
 5725POPC   PO472420   9.724  23.030   5.333
 5725POPC   GL172421   9.601  22.975   5.802
 5725POPC   GL272422   9.322  23.215   5.850
 5725POPC   C1A72423   9.664  22.802   6.252
 5725POPC   D2A72424  10.037  22.759   6.559
 5725POPC   C3A72425   9.976  22.893   7.004
 5725POPC   C4A72426   9.600  22.795   7.244
 5725POPC   C1B72427   9.622  23.326   6.182
 5725POPC   C2B72428   9.675  23.412   6.622
 5725POPC   C3B72429   9.603  23.271   7.031
 5725POPC   C4B72430   9.850  23.214   7.414
 5726POPC   NC372431   7.165  32.969   5.492
 5726POPC   PO472432   6.496  32.867   5.282
 5726POPC   GL172433   6.567  32.978   5.742
 5726POPC   GL272434   6.850  33.172   5.836
 5726POPC   C1A72435   6.639  32.896   6.219
 5726POPC   D2A72436   6.440  32.799   6.644
 5726POPC   C3A72437   6.597  32.880   7.086
 5726POPC   C4A72438   6.475  33.159   7.459
 5726POPC   C1B72439   6.864  33.352   6.251
 5726POPC   C2B72440   6.744  33.202   6.637
 5726POPC   C3B72441   6.736  33.381   7.031
 5726POPC   C4B72442   7.102  33.450   7.238
 5727POPC   NC372443  30.644  18.957   5.463
 5727POPC   PO472444  30.650  19.651   5.625
 5727POPC   GL172445  30.755  19.266   5.880
 5727POPC   GL272446  30.431  19.093   5.913
 5727POPC   C1A72447  30.885  18.928   6.218
 5727POPC   D2A72448  31.110  18.615   6.496
 5727POPC   C3A72449  31.150  18.670   6.956
 5727POPC   C4A72450  30.881  18.969   7.183
 5727POPC   C1B72451  30.496  19.224   6.326
 5727POPC   C2B72452  30.625  19.066   6.728
 5727POPC   C3B72453  30.397  19.137   7.131
 5727POPC   C4B72454  30.462  18.870   7.486
 5728POPC   NC372455  41.051  11.610   5.314
 5728POPC   PO472456  40.812  12.135   5.612
 5728POPC   GL172457  40.558  12.041   5.905
 5728POPC   GL272458  40.391  11.775   5.755
 5728POPC   C1A72459  40.630  12.009   6.337
 5728POPC   D2A72460  40.918  12.180   6.604
 5728POPC   C3A72461  40.766  12.397   6.935
 5728POPC   C4A72462  40.923  12.326   7.327
 5728POPC   C1B72463  40.210  11.768   6.170
 5728POPC   C2B72464  40.357  11.662   6.596
 5728POPC   C3B72465  40.351  11.634   7.032
 5728POPC   C4B72466  40.631  11.910   7.228
 5729POPC   NC372467  12.612  40.508   5.619
 5729POPC   PO472468  12.984  39.872   5.413
 5729POPC   GL172469  12.993  39.945   5.801
 5729POPC   GL272470  13.356  39.841   5.814
 5729POPC   C1A72471  12.749  40.002   6.210
 5729POPC   D2A72472  12.770  39.748   6.604
 5729POPC   C3A72473  12.686  39.991   6.952
 5729POPC   C4A72474  12.534  39.927   7.344
 5729POPC   C1B72475  13.253  40.149   6.163
 5729POPC   C2B72476  13.106  40.140   6.567
 5729POPC   C3B72477  13.195  39.954   6.933
 5729POPC   C4B72478  13.026  39.776   7.270
 5730POPC   NC372479  15.423  17.302   5.319
 5730POPC   PO472480  14.935  17.834   5.411
 5730POPC   GL172481  15.218  17.816   5.796
 5730POPC   GL272482  15.290  17.469   5.818
 5730POPC   C1A72483  15.198  17.713   6.257
 5730POPC   D2A72484  15.409  17.571   6.617
 5730POPC   C3A72485  15.183  17.774   6.935
 5730POPC   C4A72486  15.238  17.774   7.327
 5730POPC   C1B72487  15.246  17.210   6.242
 5730POPC   C2B72488  15.351  17.039   6.638
 5730POPC   C3B72489  15.237  17.256   7.002
 5730POPC   C4B72490  15.219  17.268   7.425
 5731POPC   NC372491  32.553   7.433   5.518
 5731POPC   PO472492  31.975   7.382   5.122
 5731POPC   GL172493  32.071   7.423   5.671
 5731POPC   GL272494  32.285   7.118   5.860
 5731POPC   C1A72495  32.295   7.547   6.117
 5731POPC   D2A72496  32.217   7.505   6.550
 5731POPC   C3A72497  32.452   7.505   6.937
 5731POPC   C4A72498  32.083   7.552   7.159
 5731POPC   C1B72499  32.416   7.056   6.315
 5731POPC   C2B72500  32.305   7.041   6.777
 5731POPC   C3B72501  32.336   7.036   7.249
 5731POPC   C4B72502  32.218   6.936   7.700
 5732POPC   NC372503  22.465   5.665   5.363
 5732POPC   PO472504  22.005   6.144   5.312
 5732POPC   GL172505  22.046   6.142   5.738
 5732POPC   GL272506  22.404   6.119   5.721
 5732POPC   C1A72507  21.864   6.224   6.160
 5732POPC   D2A72508  21.781   6.279   6.613
 5732POPC   C3A72509  21.826   5.884   6.817
 5732POPC   C4A72510  21.957   5.752   7.241
 5732POPC   C1B72511  22.328   5.820   6.052
 5732POPC   C2B72512  22.218   5.967   6.477
 5732POPC   C3B72513  22.302   6.172   6.882
 5732POPC   C4B72514  22.461   5.957   7.275
 5733POPC   NC372515  42.025   6.653   5.284
 5733POPC   PO472516  42.684   6.644   5.369
 5733POPC   GL172517  42.381   6.424   5.637
 5733POPC   GL272518  42.132   6.643   5.791
 5733POPC   C1A72519  42.350   6.270   6.065
 5733POPC   D2A72520  42.498   6.412   6.434
 5733POPC   C3A72521  42.453   6.388   6.861
 5733POPC   C4A72522  42.322   6.451   7.287
 5733POPC   C1B72523  42.225   6.829   6.200
 5733POPC   C2B72524  42.101   7.039   6.598
 5733POPC   C3B72525  42.179   6.859   6.980
 5733POPC   C4B72526  42.013   6.826   7.356
 5734POPC   NC372527  18.183  39.851   5.483
 5734POPC   PO472528  18.589  40.340   5.246
 5734POPC   GL172529  18.490  40.185   5.743
 5734POPC   GL272530  18.507  39.802   5.874
 5734POPC   C1A72531  18.292  40.197   6.213
 5734POPC   D2A72532  18.124  40.015   6.644
 5734POPC   C3A72533  18.325  40.133   7.037
 5734POPC   C4A72534  18.668  39.885   7.172
 5734POPC   C1B72535  18.161  39.704   6.199
 5734POPC   C2B72536  18.054  39.511   6.612
 5734POPC   C3B72537  18.083  39.629   7.034
 5734POPC   C4B72538  18.100  39.834   7.405
 5735POPC   NC372539  10.062   6.116   5.442
 5735POPC   PO472540   9.551   5.636   5.565
 5735POPC   GL172541   9.708   5.843   5.852
 5735POPC   GL272542  10.026   5.789   5.823
 5735POPC   C1A72543   9.623   6.009   6.223
 5735POPC   D2A72544   9.603   6.238   6.596
 5735POPC   C3A72545   9.641   5.997   6.975
 5735POPC   C4A72546   9.907   6.126   7.256
 5735POPC   C1B72547  10.093   5.669   6.202
 5735POPC   C2B72548   9.880   5.722   6.569
 5735POPC   C3B72549   9.965   5.540   6.927
 5735POPC   C4B72550   9.826   5.648   7.319
 5736POPC   NC372551  30.912  22.150   5.197
 5736POPC   PO472552  30.432  22.448   5.604
 5736POPC   GL172553  30.614  22.110   5.940
 5736POPC   GL272554  30.931  22.021   5.751
 5736POPC   C1A72555  30.511  21.952   6.374
 5736POPC   D2A72556  30.542  21.847   6.817
 5736POPC   C3A72557  30.595  22.169   7.143
 5736POPC   C4A72558  30.567  22.223   7.578
 5736POPC   C1B72559  30.992  21.850   6.189
 5736POPC   C2B72560  30.992  22.021   6.643
 5736POPC   C3B72561  31.020  21.875   7.065
 5736POPC   C4B72562  30.983  21.927   7.533
 5737POPC   NC372563  42.972   2.032   5.384
 5737POPC   PO472564  43.493   1.555   5.497
 5737POPC   GL172565  43.457   1.892   5.816
 5737POPC   GL272566  43.289   2.213   5.767
 5737POPC   C1A72567  43.496   2.019   6.270
 5737POPC   D2A72568  43.567   2.068   6.709
 5737POPC   C3A72569  43.303   2.222   6.973
 5737POPC   C4A72570  43.085   1.881   7.141
 5737POPC   C1B72571  43.037   1.989   6.098
 5737POPC   C2B72572  43.025   2.134   6.528
 5737POPC   C3B72573  42.703   2.038   6.820
 5737POPC   C4B72574  42.674   2.150   7.246
 5738POPC   NC372575  12.773  38.686   5.366
 5738POPC   PO472576  12.927  38.134   5.711
 5738POPC   GL172577  12.696  38.359   5.986
 5738POPC   GL272578  12.634  38.715   5.892
 5738POPC   C1A72579  12.826  38.321   6.401
 5738POPC   D2A72580  12.772  38.466   6.796
 5738POPC   C3A72581  12.847  38.212   7.174
 5738POPC   C4A72582  13.099  38.222   7.575
 5738POPC   C1B72583  12.489  38.707   6.336
 5738POPC   C2B72584  12.413  38.838   6.770
 5738POPC   C3B72585  12.478  38.607   7.166
 5738POPC   C4B72586  12.612  38.469   7.581
 5739POPC   NC372587  20.047  19.153   5.555
 5739POPC   PO472588  19.472  19.091   5.220
 5739POPC   GL172589  19.521  18.991   5.679
 5739POPC   GL272590  19.627  19.285   5.838
 5739POPC   C1A72591  19.780  18.859   6.095
 5739POPC   D2A72592  19.943  18.777   6.518
 5739POPC   C3A72593  19.752  18.915   6.915
 5739POPC   C4A72594  19.891  18.986   7.321
 5739POPC   C1B72595  19.845  19.368   6.216
 5739POPC   C2B72596  19.972  19.273   6.619
 5739POPC   C3B72597  19.908  19.420   7.015
 5739POPC   C4B72598  20.108  19.603   7.335
 5740POPC   NC372599  29.355  15.789   5.486
 5740POPC   PO472600  29.066  15.169   5.290
 5740POPC   GL172601  29.096  15.087   5.725
 5740POPC   GL272602  29.222  15.397   5.772
 5740POPC   C1A72603  28.898  15.026   6.138
 5740POPC   D2A72604  28.766  15.312   6.495
 5740POPC   C3A72605  28.890  15.260   6.905
 5740POPC   C4A72606  28.752  15.068   7.276
 5740POPC   C1B72607  29.142  15.468   6.174
 5740POPC   C2B72608  29.318  15.387   6.567
 5740POPC   C3B72609  29.319  15.515   6.988
 5740POPC   C4B72610  29.176  15.337   7.352
 5741POPC   NC372611  31.732  42.856   5.495
 5741POPC   PO472612  31.296  43.510   5.370
 5741POPC   GL172613  31.475  43.270   5.773
 5741POPC   GL272614  31.319  42.963   5.900
 5741POPC   C1A72615  31.737  43.169   6.147
 5741POPC   D2A72616  31.849  43.094   6.594
 5741POPC   C3A72617  31.565  43.336   6.870
 5741POPC   C4A72618  31.547  43.377   7.325
 5741POPC   C1B72619  31.457  42.744   6.274
 5741POPC   C2B72620  31.433  42.816   6.720
 5741POPC   C3B72621  31.403  42.920   7.150
 5741POPC   C4B72622  31.140  43.119   7.498
 5742POPC   NC372623  38.222  41.092   5.494
 5742POPC   PO472624  38.789  40.851   5.486
 5742POPC   GL172625  38.595  40.621   5.823
 5742POPC   GL272626  38.240  40.647   5.806
 5742POPC   C1A72627  38.518  40.522   6.239
 5742POPC   D2A72628  38.652  40.742   6.598
 5742POPC   C3A72629  38.582  40.749   7.023
 5742POPC   C4A72630  38.304  40.501   7.234
 5742POPC   C1B72631  38.391  40.996   6.142
 5742POPC   C2B72632  38.451  41.198   6.570
 5742POPC   C3B72633  38.454  41.251   7.011
 5742POPC   C4B72634  38.337  41.000   7.425
 5743POPC   NC372635   6.855   1.628   5.535
 5743POPC   PO472636   6.255   1.343   5.370
 5743POPC   GL172637   6.485   1.207   5.768
 5743POPC   GL272638   6.773   0.997   5.888
 5743POPC   C1A72639   6.325   1.107   6.174
 5743POPC   D2A72640   6.276   1.213   6.627
 5743POPC   C3A72641   6.344   0.975   7.038
 5743POPC   C4A72642   6.765   0.993   7.175
 5743POPC   C1B72643   6.805   1.118   6.343
 5743POPC   C2B72644   6.854   1.461   6.626
 5743POPC   C3B72645   6.984   1.487   7.027
 5743POPC   C4B72646   7.075   1.351   7.396
 5744POPC   NC372647  39.246  25.721   5.409
 5744POPC   PO472648  39.194  26.430   5.328
 5744POPC   GL172649  39.303  26.141   5.725
 5744POPC   GL272650  39.573  25.838   5.781
 5744POPC   C1A72651  39.162  26.175   6.171
 5744POPC   D2A72652  39.026  26.050   6.584
 5744POPC   C3A72653  39.077  26.288   6.904
 5744POPC   C4A72654  38.905  26.251   7.300
 5744POPC   C1B72655  39.634  25.622   6.217
 5744POPC   C2B72656  39.507  25.671   6.663
 5744POPC   C3B72657  39.304  25.816   7.045
 5744POPC   C4B72658  39.402  26.178   7.279
 5745POPC   NC372659  16.585  28.386   5.452
 5745POPC   PO472660  17.199  28.445   5.297
 5745POPC   GL172661  17.009  28.372   5.753
 5745POPC   GL272662  16.835  28.038   5.766
 5745POPC   C1A72663  16.825  28.494   6.188
 5745POPC   D2A72664  16.548  28.698   6.523
 5745POPC   C3A72665  16.622  28.524   6.941
 5745POPC   C4A72666  16.780  28.436   7.334
 5745POPC   C1B72667  16.668  28.004   6.190
 5745POPC   C2B72668  16.592  28.111   6.651
 5745POPC   C3B72669  16.587  27.983   7.113
 5745POPC   C4B72670  16.784  27.973   7.554
 5746POPC   NC372671  15.156   2.181   5.162
 5746POPC   PO472672  15.239   2.804   5.296
 5746POPC   GL172673  15.244   2.769   5.793
 5746POPC   GL272674  14.986   2.980   5.902
 5746POPC   C1A72675  15.065   2.503   6.197
 5746POPC   D2A72676  14.813   2.581   6.603
 5746POPC   C3A72677  14.904   2.489   7.040
 5746POPC   C4A72678  15.253   2.676   7.218
 5746POPC   C1B72679  15.129   2.977   6.326
 5746POPC   C2B72680  15.251   2.876   6.738
 5746POPC   C3B72681  15.129   3.146   7.102
 5746POPC   C4B72682  15.078   3.271   7.534
 5747POPC   NC372683  19.308  18.658   5.098
 5747POPC   PO472684  19.058  18.095   5.283
 5747POPC   GL172685  18.877  18.229   5.700
 5747POPC   GL272686  18.817  17.902   5.820
 5747POPC   C1A72687  18.914  18.480   6.114
 5747POPC   D2A72688  19.052  18.305   6.499
 5747POPC   C3A72689  18.965  18.483   6.869
 5747POPC   C4A72690  18.978  18.468   7.307
 5747POPC   C1B72691  19.190  18.014   6.090
 5747POPC   C2B72692  19.465  17.967   6.465
 5747POPC   C3B72693  19.247  17.980   6.855
 5747POPC   C4B72694  19.369  18.094   7.239
 5748POPC   NC372695   7.491   3.923   5.430
 5748POPC   PO472696   7.233   4.582   5.534
 5748POPC   GL172697   7.283   4.218   5.826
 5748POPC   GL272698   7.647   4.143   5.868
 5748POPC   C1A72699   7.359   4.296   6.271
 5748POPC   D2A72700   7.516   4.574   6.615
 5748POPC   C3A72701   7.341   4.554   7.068
 5748POPC   C4A72702   6.924   4.430   7.296
 5748POPC   C1B72703   7.754   3.947   6.280
 5748POPC   C2B72704   7.453   3.962   6.639
 5748POPC   C3B72705   7.385   4.042   7.059
 5748POPC   C4B72706   7.775   4.179   7.212
 5749POPC   NC372707  28.867  38.790   5.386
 5749POPC   PO472708  29.404  38.382   5.349
 5749POPC   GL172709  29.299  38.549   5.747
 5749POPC   GL272710  28.969  38.614   5.876
 5749POPC   C1A72711  29.432  38.674   6.138
 5749POPC   D2A72712  29.274  38.634   6.526
 5749POPC   C3A72713  29.520  38.529   6.904
 5749POPC   C4A72714  29.460  38.739   7.292
 5749POPC   C1B72715  28.698  38.663   6.261
 5749POPC   C2B72716  28.794  38.758   6.685
 5749POPC   C3B72717  29.025  38.461   6.940
 5749POPC   C4B72718  29.038  38.438   7.370
 5750POPC   NC372719  26.411  13.865   5.003
 5750POPC   PO472720  26.953  13.737   5.439
 5750POPC   GL172721  26.825  13.520   5.829
 5750POPC   GL272722  26.472  13.405   5.825
 5750POPC   C1A72723  26.857  13.459   6.294
 5750POPC   D2A72724  26.566  13.334   6.650
 5750POPC   C3A72725  26.626  13.410   7.104
 5750POPC   C4A72726  26.864  13.403   7.496
 5750POPC   C1B72727  26.417  13.680   6.219
 5750POPC   C2B72728  26.553  13.831   6.674
 5750POPC   C3B72729  26.441  13.888   7.123
 5750POPC   C4B72730  26.399  13.647   7.513
 5751POPC   NC372731  36.961  42.089   5.374
 5751POPC   PO472732  37.193  42.740   5.251
 5751POPC   GL172733  37.190  42.450   5.665
 5751POPC   GL272734  36.863  42.350   5.807
 5751POPC   C1A72735  37.251  42.351   6.130
 5751POPC   D2A72736  37.010  42.376   6.531
 5751POPC   C3A72737  37.135  42.131   6.901
 5751POPC   C4A72738  37.103  42.330   7.278
 5751POPC   C1B72739  36.646  42.229   6.191
 5751POPC   C2B72740  36.498  42.159   6.640
 5751POPC   C3B72741  36.646  42.351   7.037
 5751POPC   C4B72742  36.659  42.307   7.504
 5752POPC   NC372743   6.070   2.192   5.456
 5752POPC   PO472744   6.715   2.207   5.562
 5752POPC   GL172745   6.698   1.965   5.910
 5752POPC   GL272746   6.442   1.719   5.816
 5752POPC   C1A72747   6.523   2.110   6.304
 5752POPC   D2A72748   6.733   2.243   6.682
 5752POPC   C3A72749   6.745   1.954   7.008
 5752POPC   C4A72750   6.330   1.919   7.199
 5752POPC   C1B72751   6.530   1.587   6.237
 5752POPC   C2B72752   6.388   1.720   6.663
 5752POPC   C3B72753   6.483   1.471   7.027
 5752POPC   C4B72754   6.590   1.505   7.452
 5753POPC   NC372755  42.714  18.443   5.560
 5753POPC   PO472756  42.097  18.469   5.505
 5753POPC   GL172757  42.318  18.356   5.881
 5753POPC   GL272758  42.467  18.033   5.783
 5753POPC   C1A72759  42.351  18.514   6.310
 5753POPC   D2A72760  42.143  18.445   6.712
 5753POPC   C3A72761  42.394  18.324   7.049
 5753POPC   C4A72762  42.321  18.337   7.487
 5753POPC   C1B72763  42.677  18.116   6.174
 5753POPC   C2B72764  42.535  18.086   6.586
 5753POPC   C3B72765  42.824  18.037   6.943
 5753POPC   C4B72766  42.726  18.069   7.363
 5754POPC   NC372767  39.483  17.356   5.149
 5754POPC   PO472768  39.070  17.714   5.416
 5754POPC   GL172769  39.315  17.652   5.777
 5754POPC   GL272770  39.559  17.387   5.729
 5754POPC   C1A72771  39.177  17.753   6.200
 5754POPC   D2A72772  39.083  17.565   6.597
 5754POPC   C3A72773  39.110  17.829   6.943
 5754POPC   C4A72774  39.187  17.623   7.328
 5754POPC   C1B72775  39.349  17.257   6.130
 5754POPC   C2B72776  39.518  17.289   6.547
 5754POPC   C3B72777  39.350  17.274   6.940
 5754POPC   C4B72778  39.557  17.317   7.288
 5755POPC   NC372779  11.864  17.906   5.465
 5755POPC   PO472780  12.172  17.237   5.399
 5755POPC   GL172781  12.086  17.365   5.836
 5755POPC   GL272782  11.798  17.531   5.860
 5755POPC   C1A72783  12.126  17.139   6.256
 5755POPC   D2A72784  11.955  17.211   6.678
 5755POPC   C3A72785  12.158  17.324   7.041
 5755POPC   C4A72786  12.392  17.706   7.102
 5755POPC   C1B72787  11.971  17.601   6.296
 5755POPC   C2B72788  12.093  17.780   6.670
 5755POPC   C3B72789  11.867  17.775   7.027
 5755POPC   C4B72790  11.633  17.395   7.157
 5756POPC   NC372791  34.110  42.711   5.638
 5756POPC   PO472792  33.558  42.912   5.599
 5756POPC   GL172793  33.798  43.042   5.941
 5756POPC   GL272794  34.090  43.236   5.828
 5756POPC   C1A72795  33.784  43.299   6.301
 5756POPC   D2A72796  33.663  43.232   6.702
 5756POPC   C3A72797  33.923  43.081   7.015
 5756POPC   C4A72798  33.826  43.315   7.357
 5756POPC   C1B72799  34.290  43.339   6.223
 5756POPC   C2B72800  34.182  43.486   6.674
 5756POPC   C3B72801  34.289  43.461   7.134
 5756POPC   C4B72802  34.173  43.642   7.530
 5757POPC   NC372803  10.034   4.479   5.389
 5757POPC   PO472804   9.440   4.126   5.442
 5757POPC   GL172805   9.682   4.340   5.763
 5757POPC   GL272806   9.974   4.103   5.758
 5757POPC   C1A72807   9.711   4.379   6.220
 5757POPC   D2A72808   9.495   4.327   6.619
 5757POPC   C3A72809   9.785   4.360   6.956
 5757POPC   C4A72810   9.735   4.505   7.350
 5757POPC   C1B72811   9.988   3.844   6.130
 5757POPC   C2B72812   9.853   3.967   6.532
 5757POPC   C3B72813   9.938   3.874   6.954
 5757POPC   C4B72814   9.827   3.995   7.361
 5758POPC   NC372815  13.463   3.111   5.365
 5758POPC   PO472816  13.937   2.702   5.449
 5758POPC   GL172817  13.781   2.805   5.846
 5758POPC   GL272818  13.436   2.921   5.839
 5758POPC   C1A72819  13.940   2.665   6.231
 5758POPC   D2A72820  13.853   2.950   6.542
 5758POPC   C3A72821  13.951   2.787   6.930
 5758POPC   C4A72822  13.744   2.819   7.325
 5758POPC   C1B72823  13.435   2.756   6.273
 5758POPC   C2B72824  13.594   2.512   6.628
 5758POPC   C3B72825  13.423   2.575   7.021
 5758POPC   C4B72826  13.101   2.390   7.228
 5759POPC   NC372827  44.740  33.300   5.440
 5759POPC   PO472828  44.485  32.618   5.600
 5759POPC   GL172829  44.717  32.935   5.825
 5759POPC   GL272830   0.040  32.896   5.814
 5759POPC   C1A72831  44.591  33.199   6.179
 5759POPC   D2A72832  44.295  33.089   6.482
 5759POPC   C3A72833  44.422  33.276   6.868
 5759POPC   C4A72834  44.600  33.084   7.229
 5759POPC   C1B72835   0.091  33.158   6.223
 5759POPC   C2B72836  44.900  33.165   6.643
 5759POPC   C3B72837  44.927  33.434   7.013
 5759POPC   C4B72838  44.986  33.310   7.452
 5760POPC   NC372839  39.282  24.157   5.491
 5760POPC   PO472840  38.829  24.624   5.452
 5760POPC   GL172841  39.161  24.588   5.830
 5760POPC   GL272842  39.434  24.318   5.931
 5760POPC   C1A72843  39.328  24.632   6.302
 5760POPC   D2A72844  39.402  24.357   6.654
 5760POPC   C3A72845  39.336  24.561   7.008
 5760POPC   C4A72846  39.250  24.850   7.296
 5760POPC   C1B72847  39.584  24.062   6.287
 5760POPC   C2B72848  39.692  23.899   6.700
 5760POPC   C3B72849  39.690  24.191   7.063
 5760POPC   C4B72850  39.482  24.397   7.477
 5761POPC   NC372851  15.536  42.705   5.514
 5761POPC   PO472852  16.168  43.056   5.461
 5761POPC   GL172853  16.022  43.026   5.884
 5761POPC   GL272854  15.674  43.094   5.832
 5761POPC   C1A72855  15.967  43.261   6.279
 5761POPC   D2A72856  16.172  43.571   6.551
 5761POPC   C3A72857  16.154  43.415   6.979
 5761POPC   C4A72858  16.007  43.015   7.093
 5761POPC   C1B72859  15.590  42.882   6.230
 5761POPC   C2B72860  15.646  43.008   6.678
 5761POPC   C3B72861  15.532  42.909   7.113
 5761POPC   C4B72862  15.469  42.997   7.603
 5762POPC   NC372863  21.897   4.070   5.361
 5762POPC   PO472864  22.165   4.612   5.296
 5762POPC   GL172865  22.172   4.439   5.736
 5762POPC   GL272866  21.974   4.158   5.864
 5762POPC   C1A72867  22.340   4.365   6.177
 5762POPC   D2A72868  22.269   4.209   6.606
 5762POPC   C3A72869  22.384   4.421   7.005
 5762POPC   C4A72870  22.303   4.353   7.472
 5762POPC   C1B72871  21.853   4.041   6.290
 5762POPC   C2B72872  21.768   4.192   6.722
 5762POPC   C3B72873  21.961   4.193   7.141
 5762POPC   C4B72874  21.807   4.161   7.604
 5763POPC   NC372875  39.823  31.141   5.375
 5763POPC   PO472876  40.305  31.567   5.436
 5763POPC   GL172877  39.899  31.482   5.769
 5763POPC   GL272878  39.646  31.169   5.845
 5763POPC   C1A72879  40.037  31.607   6.196
 5763POPC   D2A72880  40.299  31.778   6.539
 5763POPC   C3A72881  40.186  31.584   6.942
 5763POPC   C4A72882  39.957  31.553   7.321
 5763POPC   C1B72883  39.545  31.432   6.199
 5763POPC   C2B72884  39.722  31.541   6.602
 5763POPC   C3B72885  39.682  31.349   6.982
 5763POPC   C4B72886  39.678  31.112   7.408
 5764POPC   NC372887  17.104   7.666   5.492
 5764POPC   PO472888  17.773   7.307   5.422
 5764POPC   GL172889  17.554   7.444   5.763
 5764POPC   GL272890  17.237   7.246   5.761
 5764POPC   C1A72891  17.694   7.599   6.188
 5764POPC   D2A72892  17.633   7.391   6.598
 5764POPC   C3A72893  17.576   7.471   7.039
 5764POPC   C4A72894  17.787   7.727   7.315
 5764POPC   C1B72895  17.232   7.379   6.194
 5764POPC   C2B72896  17.124   7.442   6.641
 5764POPC   C3B72897  17.177   7.152   6.978
 5764POPC   C4B72898  17.247   7.194   7.391
 5765POPC   NC372899  24.275  41.255   5.678
 5765POPC   PO472900  24.445  41.847   5.441
 5765POPC   GL172901  24.544  41.658   5.805
 5765POPC   GL272902  24.728  41.910   5.921
 5765POPC   C1A72903  24.496  41.576   6.225
 5765POPC   D2A72904  24.439  41.809   6.574
 5765POPC   C3A72905  24.501  41.459   6.807
 5765POPC   C4A72906  24.493  41.414   7.188
 5765POPC   C1B72907  24.951  41.819   6.318
 5765POPC   C2B72908  24.956  41.662   6.753
 5765POPC   C3B72909  24.768  41.830   7.143
 5765POPC   C4B72910  24.855  41.888   7.606
 5766POPC   NC372911  40.334  20.067   5.432
 5766POPC   PO472912  39.758  19.630   5.415
 5766POPC   GL172913  39.888  19.974   5.680
 5766POPC   GL272914  39.725  20.292   5.610
 5766POPC   C1A72915  40.049  19.853   6.080
 5766POPC   D2A72916  40.029  19.510   6.388
 5766POPC   C3A72917  40.117  19.590   6.822
 5766POPC   C4A72918  39.913  19.687   7.203
 5766POPC   C1B72919  39.640  20.202   6.072
 5766POPC   C2B72920  39.763  20.021   6.478
 5766POPC   C3B72921  39.623  20.014   6.902
 5766POPC   C4B72922  39.772  20.178   7.281
 5767POPC   NC372923   8.733  27.528   5.209
 5767POPC   PO472924   9.182  27.917   5.538
 5767POPC   GL172925   8.938  27.600   5.754
 5767POPC   GL272926   8.999  27.275   5.662
 5767POPC   C1A72927   8.703  27.538   6.146
 5767POPC   D2A72928   8.733  27.424   6.589
 5767POPC   C3A72929   8.973  27.763   6.796
 5767POPC   C4A72930   8.848  27.725   7.178
 5767POPC   C1B72931   9.143  27.292   6.112
 5767POPC   C2B72932   9.247  27.409   6.537
 5767POPC   C3B72933   9.203  27.317   6.986
 5767POPC   C4B72934   9.509  27.285   7.323
 5768POPC   NC372935  36.598  36.807   5.607
 5768POPC   PO472936  35.937  37.012   5.472
 5768POPC   GL172937  36.089  37.121   5.885
 5768POPC   GL272938  36.355  37.351   5.925
 5768POPC   C1A72939  36.239  36.869   6.235
 5768POPC   D2A72940  36.351  36.524   6.528
 5768POPC   C3A72941  36.436  36.654   6.949
 5768POPC   C4A72942  36.138  36.814   7.255
 5768POPC   C1B72943  36.358  37.362   6.361
 5768POPC   C2B72944  36.275  37.097   6.703
 5768POPC   C3B72945  36.460  37.169   7.064
 5768POPC   C4B72946  36.442  37.124   7.511
 5769POPC   NC372947  37.991   6.737   5.378
 5769POPC   PO472948  37.393   6.939   5.426
 5769POPC   GL172949  37.631   6.821   5.782
 5769POPC   GL272950  37.805   6.539   5.835
 5769POPC   C1A72951  37.534   6.782   6.215
 5769POPC   D2A72952  37.274   6.587   6.515
 5769POPC   C3A72953  37.453   6.726   6.867
 5769POPC   C4A72954  37.603   6.734   7.239
 5769POPC   C1B72955  38.022   6.597   6.202
 5769POPC   C2B72956  37.865   6.563   6.579
 5769POPC   C3B72957  37.990   6.531   6.978
 5769POPC   C4B72958  37.845   6.269   7.291
 5770POPC   NC372959   9.602  16.391   5.401
 5770POPC   PO472960   9.985  15.760   5.453
 5770POPC   GL172961   9.956  15.911   5.901
 5770POPC   GL272962   9.721  16.197   5.871
 5770POPC   C1A72963   9.908  15.968   6.362
 5770POPC   D2A72964   9.662  16.231   6.667
 5770POPC   C3A72965   9.623  16.095   7.100
 5770POPC   C4A72966   9.840  15.779   7.357
 5770POPC   C1B72967   9.426  16.096   6.213
 5770POPC   C2B72968   9.456  15.757   6.515
 5770POPC   C3B72969   9.331  15.730   6.930
 5770POPC   C4B72970   9.278  15.796   7.345
 5771POPC   NC372971  44.197  15.388   5.495
 5771POPC   PO472972  43.792  14.887   5.461
 5771POPC   GL172973  43.879  15.058   5.842
 5771POPC   GL272974  43.597  15.295   5.850
 5771POPC   C1A72975  44.035  15.213   6.244
 5771POPC   D2A72976  43.940  15.417   6.643
 5771POPC   C3A72977  44.206  15.326   6.997
 5771POPC   C4A72978  44.276  14.902   7.193
 5771POPC   C1B72979  43.645  15.589   6.208
 5771POPC   C2B72980  43.434  15.528   6.589
 5771POPC   C3B72981  43.542  15.112   6.693
 5771POPC   C4B72982  43.741  15.045   7.056
 5772POPC   NC372983  41.335  16.573   5.455
 5772POPC   PO472984  41.975  16.817   5.363
 5772POPC   GL172985  41.694  16.872   5.736
 5772POPC   GL272986  41.366  16.889   5.850
 5772POPC   C1A72987  41.744  16.823   6.174
 5772POPC   D2A72988  41.942  16.991   6.510
 5772POPC   C3A72989  41.865  16.764   6.873
 5772POPC   C4A72990  41.692  16.902   7.259
 5772POPC   C1B72991  41.273  16.576   6.170
 5772POPC   C2B72992  41.393  16.583   6.596
 5772POPC   C3B72993  41.289  16.827   6.951
 5772POPC   C4B72994  41.307  16.585   7.320
 5773POPC   NC372995  11.835  14.558   5.049
 5773POPC   PO472996  11.335  14.469   5.486
 5773POPC   GL172997  11.244  14.522   5.873
 5773POPC   GL272998  10.925  14.616   5.885
 5773POPC   C1A72999  11.341  14.418   6.267
 5773POPC   D2A73000  11.340  14.183   6.618
 5773POPC   C3A73001  11.419  14.459   6.932
 5773POPC   C4A73002  11.594  14.599   7.295
 5773POPC   C1B73003  10.996  14.866   6.204
 5773POPC   C2B73004  11.117  14.756   6.587
 5773POPC   C3B73005  10.899  14.831   6.915
 5773POPC   C4B73006  11.045  14.643   7.256
 5774POPC   NC373007  41.814  21.585   5.398
 5774POPC   PO473008  41.306  21.114   5.372
 5774POPC   GL173009  41.473  21.290   5.739
 5774POPC   GL273010  41.439  21.640   5.738
 5774POPC   C1A73011  41.326  21.215   6.175
 5774POPC   D2A73012  41.342  21.011   6.600
 5774POPC   C3A73013  41.534  21.190   6.986
 5774POPC   C4A73014  41.334  21.110   7.393
 5774POPC   C1B73015  41.470  21.706   6.152
 5774POPC   C2B73016  41.455  21.543   6.560
 5774POPC   C3B73017  41.578  21.705   6.937
 5774POPC   C4B73018  41.395  21.646   7.283
 5775POPC   NC373019  21.449  25.059   5.341
 5775POPC   PO473020  21.139  24.272   5.416
 5775POPC   GL173021  21.228  24.484   5.810
 5775POPC   GL273022  21.546  24.686   5.685
 5775POPC   C1A73023  21.155  24.467   6.288
 5775POPC   D2A73024  21.238  24.735   6.676
 5775POPC   C3A73025  21.051  24.594   7.067
 5775POPC   C4A73026  21.186  24.264   7.292
 5775POPC   C1B73027  21.617  24.608   6.110
 5775POPC   C2B73028  21.695  24.498   6.526
 5775POPC   C3B73029  21.567  24.407   6.925
 5775POPC   C4B73030  21.579  24.590   7.293
 5776POPC   NC373031  34.084  12.503   5.304
 5776POPC   PO473032  34.082  11.778   5.373
 5776POPC   GL173033  33.994  11.826   5.830
 5776POPC   GL273034  33.660  12.008   5.842
 5776POPC   C1A73035  34.041  11.974   6.251
 5776POPC   D2A73036  34.006  12.281   6.606
 5776POPC   C3A73037  34.036  12.072   7.009
 5776POPC   C4A73038  33.909  12.043   7.439
 5776POPC   C1B73039  33.649  12.281   6.204
 5776POPC   C2B73040  33.478  12.304   6.601
 5776POPC   C3B73041  33.627  12.366   7.030
 5776POPC   C4B73042  33.407  12.127   7.356
 5777POPC   NC373043   5.499  32.052   5.528
 5777POPC   PO473044   5.890  32.636   5.430
 5777POPC   GL173045   5.847  32.347   5.806
 5777POPC   GL273046   5.992  32.019   5.691
 5777POPC   C1A73047   5.679  32.347   6.274
 5777POPC   D2A73048   5.454  32.457   6.696
 5777POPC   C3A73049   5.719  32.309   7.058
 5777POPC   C4A73050   5.838  32.347   7.506
 5777POPC   C1B73051   6.079  32.012   6.149
 5777POPC   C2B73052   6.067  32.145   6.583
 5777POPC   C3B73053   6.106  31.949   6.991
 5777POPC   C4B73054   6.254  32.014   7.394
 5778POPC   NC373055   1.046  13.112   5.513
 5778POPC   PO473056   1.123  13.807   5.457
 5778POPC   GL173057   1.161  13.666   5.887
 5778POPC   GL273058   1.043  13.358   5.955
 5778POPC   C1A73059   1.414  13.576   6.265
 5778POPC   D2A73060   1.533  13.759   6.679
 5778POPC   C3A73061   1.267  13.643   7.019
 5778POPC   C4A73062   1.110  14.035   7.192
 5778POPC   C1B73063   1.111  13.184   6.338
 5778POPC   C2B73064   0.957  13.390   6.673
 5778POPC   C3B73065   0.765  13.462   7.046
 5778POPC   C4B73066   0.970  13.476   7.412
 5779POPC   NC373067  10.425  22.877   5.561
 5779POPC   PO473068  11.089  23.231   5.452
 5779POPC   GL173069  10.820  23.083   5.804
 5779POPC   GL273070  10.859  22.713   5.857
 5779POPC   C1A73071  10.594  23.052   6.215
 5779POPC   D2A73072  10.699  23.248   6.612
 5779POPC   C3A73073  10.666  23.067   7.018
 5779POPC   C4A73074  10.836  23.244   7.391
 5779POPC   C1B73075  10.602  22.534   6.216
 5779POPC   C2B73076  10.501  22.540   6.677
 5779POPC   C3B73077  10.412  22.623   7.125
 5779POPC   C4B73078  10.521  22.864   7.490
 5780POPC   NC373079  42.257  30.026   5.466
 5780POPC   PO473080  42.848  30.283   5.616
 5780POPC   GL173081  42.511  30.062   5.901
 5780POPC   GL273082  42.148  30.212   5.938
 5780POPC   C1A73083  42.468  29.881   6.324
 5780POPC   D2A73084  42.323  30.071   6.719
 5780POPC   C3A73085  42.616  29.966   7.051
 5780POPC   C4A73086  42.712  29.681   7.363
 5780POPC   C1B73087  42.005  29.795   6.137
 5780POPC   C2B73088  42.035  29.660   6.606
 5780POPC   C3B73089  42.082  29.780   7.085
 5780POPC   C4B73090  42.030  29.779   7.552
 5781POPC   NC373091  10.220  32.648   5.638
 5781POPC   PO473092  10.643  32.245   5.313
 5781POPC   GL173093  10.575  32.300   5.787
 5781POPC   GL273094  10.894  32.450   5.884
 5781POPC   C1A73095  10.360  32.217   6.230
 5781POPC   D2A73096  10.316  31.931   6.631
 5781POPC   C3A73097  10.304  32.203   7.037
 5781POPC   C4A73098  10.190  32.639   7.205
 5781POPC   C1B73099  10.867  32.202   6.253
 5781POPC   C2B73100  10.679  32.272   6.654
 5781POPC   C3B73101  10.819  32.197   7.044
 5781POPC   C4B73102  10.946  32.232   7.458
 5782POPC   NC373103  12.697  15.064   5.038
 5782POPC   PO473104  12.952  15.448   5.518
 5782POPC   GL173105  13.012  15.105   5.839
 5782POPC   GL273106  13.225  14.820   5.771
 5782POPC   C1A73107  12.805  15.055   6.242
 5782POPC   D2A73108  12.900  15.235   6.654
 5782POPC   C3A73109  12.703  15.247   7.040
 5782POPC   C4A73110  12.872  15.289   7.424
 5782POPC   C1B73111  13.227  14.733   6.225
 5782POPC   C2B73112  13.278  14.897   6.652
 5782POPC   C3B73113  13.144  14.984   7.063
 5782POPC   C4B73114  13.233  14.887   7.529
 5783POPC   NC373115  40.962  10.904   5.547
 5783POPC   PO473116  40.635  11.307   5.080
 5783POPC   GL173117  40.655  11.357   5.582
 5783POPC   GL273118  40.558  11.068   5.812
 5783POPC   C1A73119  40.770  11.549   6.017
 5783POPC   D2A73120  41.005  11.503   6.434
 5783POPC   C3A73121  40.829  11.616   6.840
 5783POPC   C4A73122  40.849  11.453   7.276
 5783POPC   C1B73123  40.857  11.052   6.175
 5783POPC   C2B73124  41.085  10.965   6.547
 5783POPC   C3B73125  41.129  11.204   6.904
 5783POPC   C4B73126  41.260  11.098   7.291
 5784POPC   NC373127  42.256  26.679   5.594
 5784POPC   PO473128  42.694  27.188   5.429
 5784POPC   GL173129  42.567  27.004   5.809
 5784POPC   GL273130  42.779  26.713   5.752
 5784POPC   C1A73131  42.240  26.985   6.170
 5784POPC   D2A73132  42.074  26.896   6.566
 5784POPC   C3A73133  42.180  27.179   6.890
 5784POPC   C4A73134  42.206  27.020   7.295
 5784POPC   C1B73135  42.570  26.584   6.153
 5784POPC   C2B73136  42.441  26.552   6.540
 5784POPC   C3B73137  42.424  26.736   6.932
 5784POPC   C4B73138  42.489  26.570   7.305
 5785POPC   NC373139  16.573   8.513   5.473
 5785POPC   PO473140  16.693   7.823   5.270
 5785POPC   GL173141  16.637   8.041   5.694
 5785POPC   GL273142  16.966   8.146   5.695
 5785POPC   C1A73143  16.447   8.220   6.113
 5785POPC   D2A73144  16.291   8.319   6.561
 5785POPC   C3A73145  16.396   8.069   6.924
 5785POPC   C4A73146  16.606   8.142   7.318
 5785POPC   C1B73147  16.963   8.318   6.105
 5785POPC   C2B73148  16.793   8.213   6.503
 5785POPC   C3B73149  16.886   8.265   6.911
 5785POPC   C4B73150  16.878   8.551   7.278
 5786POPC   NC373151  36.689  20.501   5.475
 5786POPC   PO473152  37.223  20.763   5.026
 5786POPC   GL173153  37.120  20.820   5.572
 5786POPC   GL273154  37.118  20.556   5.840
 5786POPC   C1A73155  36.793  20.912   6.000
 5786POPC   D2A73156  36.633  20.858   6.453
 5786POPC   C3A73157  36.729  21.032   6.863
 5786POPC   C4A73158  36.862  20.710   7.158
 5786POPC   C1B73159  36.873  20.439   6.227
 5786POPC   C2B73160  36.992  20.471   6.683
 5786POPC   C3B73161  37.159  20.292   7.092
 5786POPC   C4B73162  36.984  20.309   7.523
 5787POPC   NC373163   5.527   0.647   5.540
 5787POPC   PO473164   4.893   0.472   5.539
 5787POPC   GL173165   5.166   0.492   5.889
 5787POPC   GL273166   5.434   0.227   5.868
 5787POPC   C1A73167   5.073   0.660   6.287
 5787POPC   D2A73168   4.952   0.530   6.707
 5787POPC   C3A73169   5.031   0.829   7.054
 5787POPC   C4A73170   4.914   0.711   7.509
 5787POPC   C1B73171   5.293   0.192   6.309
 5787POPC   C2B73172   5.353   0.181   6.759
 5787POPC   C3B73173   5.335   0.208   7.227
 5787POPC   C4B73174   5.429   0.320   7.679
 5788POPC   NC373175  24.873   2.014   5.421
 5788POPC   PO473176  24.167   2.217   5.327
 5788POPC   GL173177  24.357   2.194   5.729
 5788POPC   GL273178  24.506   1.906   5.780
 5788POPC   C1A73179  24.294   2.195   6.193
 5788POPC   D2A73180  24.175   2.050   6.612
 5788POPC   C3A73181  24.424   2.094   6.982
 5788POPC   C4A73182  24.323   2.063   7.409
 5788POPC   C1B73183  24.721   1.880   6.184
 5788POPC   C2B73184  24.775   2.035   6.597
 5788POPC   C3B73185  24.847   1.778   6.979
 5788POPC   C4B73186  24.681   1.701   7.380
 5789POPC   NC373187   4.828  20.442   5.435
 5789POPC   PO473188   5.285  20.980   5.429
 5789POPC   GL173189   4.984  20.893   5.805
 5789POPC   GL273190   4.965  20.514   5.915
 5789POPC   C1A73191   4.976  20.869   6.283
 5789POPC   D2A73192   4.739  20.706   6.629
 5789POPC   C3A73193   5.003  20.575   6.938
 5789POPC   C4A73194   5.018  20.930   7.219
 5789POPC   C1B73195   5.026  20.368   6.339
 5789POPC   C2B73196   4.776  20.196   6.654
 5789POPC   C3B73197   4.834  20.084   7.060
 5789POPC   C4B73198   5.192  20.098   7.326
 5790POPC   NC373199  13.039  43.206   5.448
 5790POPC   PO473200  12.484  42.776   5.367
 5790POPC   GL173201  12.725  42.824   5.769
 5790POPC   GL273202  13.101  42.845   5.823
 5790POPC   C1A73203  12.728  42.954   6.218
 5790POPC   D2A73204  12.462  43.044   6.589
 5790POPC   C3A73205  12.627  43.087   6.997
 5790POPC   C4A73206  12.770  43.504   7.063
 5790POPC   C1B73207  13.225  43.116   6.199
 5790POPC   C2B73208  13.072  43.203   6.638
 5790POPC   C3B73209  13.139  43.106   7.075
 5790POPC   C4B73210  13.040  42.712   7.242
 5791POPC   NC373211  37.369  41.364   5.053
 5791POPC   PO473212  37.793  40.901   5.410
 5791POPC   GL173213  37.560  40.863   5.751
 5791POPC   GL273214  37.717  40.567   5.834
 5791POPC   C1A73215  37.439  40.940   6.182
 5791POPC   D2A73216  37.657  40.831   6.584
 5791POPC   C3A73217  37.566  40.822   7.003
 5791POPC   C4A73218  37.342  41.127   7.180
 5791POPC   C1B73219  37.926  40.781   6.163
 5791POPC   C2B73220  38.149  40.735   6.559
 5791POPC   C3B73221  38.078  40.881   6.980
 5791POPC   C4B73222  37.900  40.721   7.410
 5792POPC   NC373223  35.886  12.953   5.389
 5792POPC   PO473224  35.232  12.795   5.395
 5792POPC   GL173225  35.395  12.906   5.824
 5792POPC   GL273226  35.681  13.142   5.866
 5792POPC   C1A73227  35.349  12.969   6.287
 5792POPC   D2A73228  35.261  13.217   6.669
 5792POPC   C3A73229  35.325  12.990   7.054
 5792POPC   C4A73230  35.409  13.113   7.471
 5792POPC   C1B73231  35.818  13.174   6.318
 5792POPC   C2B73232  35.721  12.989   6.735
 5792POPC   C3B73233  35.813  13.124   7.181
 5792POPC   C4B73234  35.811  12.831   7.583
 5793POPC   NC373235  14.909  30.274   5.526
 5793POPC   PO473236  15.084  29.592   5.394
 5793POPC   GL173237  15.083  29.795   5.801
 5793POPC   GL273238  14.749  29.882   5.798
 5793POPC   C1A73239  15.294  29.745   6.229
 5793POPC   D2A73240  15.350  29.902   6.651
 5793POPC   C3A73241  15.254  29.786   7.065
 5793POPC   C4A73242  15.260  30.060   7.496
 5793POPC   C1B73243  14.849  30.010   6.213
 5793POPC   C2B73244  14.860  29.778   6.564
 5793POPC   C3B73245  14.716  29.814   6.965
 5793POPC   C4B73246  14.875  29.750   7.385
 5794POPC   NC373247  12.582   0.712   5.273
 5794POPC   PO473248  12.356   0.071   5.407
 5794POPC   GL173249  12.250   0.225   5.828
 5794POPC   GL273250  12.308   0.569   5.843
 5794POPC   C1A73251  11.914   0.292   6.157
 5794POPC   D2A73252  12.010   0.169   6.613
 5794POPC   C3A73253  11.896   0.443   6.947
 5794POPC   C4A73254  11.874   0.619   7.333
 5794POPC   C1B73255  12.394   0.368   6.294
 5794POPC   C2B73256  12.404   0.515   6.739
 5794POPC   C3B73257  12.366   0.838   7.084
 5794POPC   C4B73258  12.349   0.764   7.545
 5795POPC   NC373259   3.962  35.840   5.383
 5795POPC   PO473260   3.424  35.796   5.743
 5795POPC   GL173261   3.740  36.083   5.795
 5795POPC   GL273262   3.492  36.354   5.825
 5795POPC   C1A73263   3.898  36.148   6.213
 5795POPC   D2A73264   3.679  35.985   6.600
 5795POPC   C3A73265   3.745  36.176   7.011
 5795POPC   C4A73266   3.606  36.083   7.425
 5795POPC   C1B73267   3.176  36.495   6.171
 5795POPC   C2B73268   3.159  36.407   6.638
 5795POPC   C3B73269   3.235  36.322   7.111
 5795POPC   C4B73270   3.297  36.466   7.572
 5796POPC   NC373271   9.172   8.202   5.429
 5796POPC   PO473272   8.639   7.934   5.557
 5796POPC   GL173273   8.791   8.151   5.921
 5796POPC   GL273274   8.976   8.468   5.850
 5796POPC   C1A73275   8.967   7.958   6.282
 5796POPC   D2A73276   9.203   7.840   6.642
 5796POPC   C3A73277   8.898   7.912   6.973
 5796POPC   C4A73278   8.590   8.201   7.113
 5796POPC   C1B73279   9.233   8.514   6.225
 5796POPC   C2B73280   9.208   8.426   6.683
 5796POPC   C3B73281   9.018   8.499   7.079
 5796POPC   C4B73282   8.639   8.698   7.217
 5797POPC   NC373283  34.869  10.610   5.403
 5797POPC   PO473284  34.296  10.285   5.525
 5797POPC   GL173285  34.510  10.491   5.798
 5797POPC   GL273286  34.766  10.287   5.822
 5797POPC   C1A73287  34.589  10.640   6.191
 5797POPC   D2A73288  34.431  10.501   6.552
 5797POPC   C3A73289  34.393  10.775   6.877
 5797POPC   C4A73290  34.444  10.629   7.258
 5797POPC   C1B73291  34.991  10.265   6.192
 5797POPC   C2B73292  35.010  10.467   6.576
 5797POPC   C3B73293  34.802  10.488   6.938
 5797POPC   C4B73294  34.906  10.494   7.373
 5798POPC   NC373295  19.395  21.920   5.499
 5798POPC   PO473296  20.089  22.000   5.376
 5798POPC   GL173297  19.920  22.157   5.791
 5798POPC   GL273298  19.665  22.413   5.842
 5798POPC   C1A73299  19.777  22.108   6.224
 5798POPC   D2A73300  19.557  22.231   6.590
 5798POPC   C3A73301  19.607  21.974   6.951
 5798POPC   C4A73302  19.951  21.794   7.205
 5798POPC   C1B73303  19.491  22.681   6.150
 5798POPC   C2B73304  19.646  22.749   6.557
 5798POPC   C3B73305  19.490  22.634   6.937
 5798POPC   C4B73306  19.611  22.380   7.261
 5799POPC   NC373307  31.491  23.345   5.550
 5799POPC   PO473308  31.190  24.049   5.499
 5799POPC   GL173309  31.402  23.792   5.804
 5799POPC   GL273310  31.752  23.774   5.812
 5799POPC   C1A73311  31.248  23.632   6.219
 5799POPC   D2A73312  31.275  23.421   6.632
 5799POPC   C3A73313  31.300  23.688   6.953
 5799POPC   C4A73314  31.121  23.819   7.298
 5799POPC   C1B73315  31.739  23.495   6.218
 5799POPC   C2B73316  31.792  23.364   6.664
 5799POPC   C3B73317  31.608  23.299   7.080
 5799POPC   C4B73318  31.640  23.702   7.337
 5800POPC   NC373319   6.898  35.322   5.281
 5800POPC   PO473320   6.327  35.622   5.239
 5800POPC   GL173321   6.478  35.489   5.641
 5800POPC   GL273322   6.240  35.249   5.723
 5800POPC   C1A73323   6.494  35.475   6.114
 5800POPC   D2A73324   6.692  35.343   6.521
 5800POPC   C3A73325   6.498  35.343   6.892
 5800POPC   C4A73326   6.639  35.271   7.283
 5800POPC   C1B73327   6.277  35.004   6.106
 5800POPC   C2B73328   6.435  34.885   6.535
 5800POPC   C3B73329   6.356  34.860   6.987
 5800POPC   C4B73330   6.152  35.159   7.225
 5801POPC   NC373331  43.548  28.290   5.610
 5801POPC   PO473332  43.959  28.737   5.350
 5801POPC   GL173333  44.027  28.400   5.772
 5801POPC   GL273334  44.160  28.075   5.803
 5801POPC   C1A73335  43.852  28.205   6.212
 5801POPC   D2A73336  43.663  28.211   6.643
 5801POPC   C3A73337  43.841  28.222   7.074
 5801POPC   C4A73338  43.945  28.480   7.412
 5801POPC   C1B73339  44.231  27.877   6.178
 5801POPC   C2B73340  44.193  28.062   6.601
 5801POPC   C3B73341  44.340  28.082   7.034
 5801POPC   C4B73342  44.208  28.043   7.482
 5802POPC   NC373343   7.952   9.135   5.267
 5802POPC   PO473344   8.596   8.864   5.415
 5802POPC   GL173345   8.287   8.888   5.696
 5802POPC   GL273346   8.240   9.223   5.738
 5802POPC   C1A73347   8.288   8.833   6.152
 5802POPC   D2A73348   8.378   9.074   6.525
 5802POPC   C3A73349   8.331   8.916   6.900
 5802POPC   C4A73350   8.329   9.100   7.323
 5802POPC   C1B73351   7.862   9.067   5.988
 5802POPC   C2B73352   7.862   9.038   6.457
 5802POPC   C3B73353   7.927   9.194   6.905
 5802POPC   C4B73354   7.840   8.965   7.253
 5803POPC   NC373355  28.469  37.407   5.484
 5803POPC   PO473356  28.755  38.030   5.458
 5803POPC   GL173357  28.638  37.787   5.848
 5803POPC   GL273358  28.328  37.584   5.926
 5803POPC   C1A73359  28.699  37.775   6.278
 5803POPC   D2A73360  28.843  37.512   6.617
 5803POPC   C3A73361  28.664  37.702   6.991
 5803POPC   C4A73362  28.364  37.669   7.313
 5803POPC   C1B73363  28.143  37.820   6.227
 5803POPC   C2B73364  28.316  37.861   6.628
 5803POPC   C3B73365  28.255  38.061   6.992
 5803POPC   C4B73366  28.075  38.082   7.354
 5804POPC   NC373367  17.695  17.765   5.336
 5804POPC   PO473368  17.232  17.330   5.565
 5804POPC   GL173369  17.375  17.561   5.848
 5804POPC   GL273370  17.734  17.581   5.817
 5804POPC   C1A73371  17.212  17.531   6.241
 5804POPC   D2A73372  17.418  17.570   6.571
 5804POPC   C3A73373  17.268  17.398   6.906
 5804POPC   C4A73374  17.248  17.251   7.291
 5804POPC   C1B73375  17.815  17.671   6.255
 5804POPC   C2B73376  17.903  17.567   6.720
 5804POPC   C3B73377  17.727  17.605   7.156
 5804POPC   C4B73378  17.765  17.844   7.572
 5805POPC   NC373379  35.221  23.087   5.128
 5805POPC   PO473380  35.734  23.171   5.590
 5805POPC   GL173381  35.441  23.061   5.961
 5805POPC   GL273382  35.174  22.796   5.957
 5805POPC   C1A73383  35.422  23.131   6.403
 5805POPC   D2A73384  35.754  23.063   6.706
 5805POPC   C3A73385  35.542  23.078   7.060
 5805POPC   C4A73386  35.273  23.186   7.389
 5805POPC   C1B73387  35.393  22.633   6.320
 5805POPC   C2B73388  35.431  22.674   6.750
 5805POPC   C3B73389  35.241  22.678   7.141
 5805POPC   C4B73390  34.825  22.604   7.254
 5806POPC   NC373391  32.696  26.319   5.520
 5806POPC   PO473392  32.097  26.020   5.434
 5806POPC   GL173393  32.354  26.004   5.791
 5806POPC   GL273394  32.262  25.710   5.967
 5806POPC   C1A73395  32.624  26.083   6.132
 5806POPC   D2A73396  32.675  25.991   6.549
 5806POPC   C3A73397  32.399  26.160   6.824
 5806POPC   C4A73398  32.444  26.237   7.251
 5806POPC   C1B73399  32.149  25.992   6.320
 5806POPC   C2B73400  31.917  26.187   6.664
 5806POPC   C3B73401  31.949  26.082   7.128
 5806POPC   C4B73402  32.001  25.853   7.563
 5807POPC   NC373403  21.025  41.107   5.259
 5807POPC   PO473404  21.484  40.602   5.455
 5807POPC   GL173405  21.401  40.541   5.894
 5807POPC   GL273406  21.607  40.773   6.045
 5807POPC   C1A73407  21.293  40.572   6.363
 5807POPC   D2A73408  21.667  40.672   6.620
 5807POPC   C3A73409  21.604  40.563   7.049
 5807POPC   C4A73410  21.166  40.447   7.132
 5807POPC   C1B73411  21.478  41.070   6.369
 5807POPC   C2B73412  21.354  41.032   6.804
 5807POPC   C3B73413  21.443  41.017   7.218
 5807POPC   C4B73414  21.649  40.753   7.541
 5808POPC   NC373415  40.247  13.817   5.399
 5808POPC   PO473416  39.629  13.529   5.420
 5808POPC   GL173417  39.912  13.610   5.762
 5808POPC   GL273418  39.956  13.937   5.859
 5808POPC   C1A73419  40.112  13.547   6.196
 5808POPC   D2A73420  40.140  13.310   6.567
 5808POPC   C3A73421  39.838  13.378   6.909
 5808POPC   C4A73422  39.786  13.629   7.266
 5808POPC   C1B73423  40.014  14.058   6.315
 5808POPC   C2B73424  40.046  13.826   6.705
 5808POPC   C3B73425  40.259  13.727   7.077
 5808POPC   C4B73426  40.270  13.831   7.567
 5809POPC   NC373427  37.539  34.152   5.411
 5809POPC   PO473428  37.489  34.884   5.392
 5809POPC   GL173429  37.564  34.759   5.794
 5809POPC   GL273430  37.400  34.473   5.767
 5809POPC   C1A73431  37.744  34.562   6.182
 5809POPC   D2A73432  37.924  34.450   6.568
 5809POPC   C3A73433  37.743  34.604   6.926
 5809POPC   C4A73434  38.034  34.733   7.200
 5809POPC   C1B73435  37.348  34.224   6.107
 5809POPC   C2B73436  37.422  34.299   6.555
 5809POPC   C3B73437  37.446  34.177   6.998
 5809POPC   C4B73438  37.186  34.263   7.337
 5810POPC   NC373439   0.013  18.878   5.449
 5810POPC   PO473440  44.345  19.161   5.437
 5810POPC   GL173441  44.623  19.174   5.743
 5810POPC   GL273442  44.704  18.833   5.837
 5810POPC   C1A73443  44.543  19.200   6.183
 5810POPC   D2A73444  44.598  19.363   6.609
 5810POPC   C3A73445  44.475  19.059   6.939
 5810POPC   C4A73446  44.653  19.061   7.366
 5810POPC   C1B73447  44.911  18.803   6.231
 5810POPC   C2B73448  44.755  18.690   6.650
 5810POPC   C3B73449  44.936  18.839   7.029
 5810POPC   C4B73450   0.158  18.926   7.416
 5811POPC   NC373451   6.406   9.309   5.441
 5811POPC   PO473452   6.740   8.719   5.529
 5811POPC   GL173453   6.485   8.667   5.891
 5811POPC   GL273454   6.408   9.006   5.863
 5811POPC   C1A73455   6.457   8.835   6.347
 5811POPC   D2A73456   6.819   8.997   6.567
 5811POPC   C3A73457   6.830   9.007   6.989
 5811POPC   C4A73458   6.670   8.791   7.305
 5811POPC   C1B73459   6.665   9.231   6.115
 5811POPC   C2B73460   6.415   9.352   6.496
 5811POPC   C3B73461   6.325   9.085   6.831
 5811POPC   C4B73462   6.397   9.225   7.234
 5812POPC   NC373463  39.718  23.421   5.181
 5812POPC   PO473464  39.075  23.657   5.518
 5812POPC   GL173465  39.129  23.845   5.879
 5812POPC   GL273466  38.917  24.131   5.851
 5812POPC   C1A73467  39.227  23.690   6.266
 5812POPC   D2A73468  39.170  23.830   6.672
 5812POPC   C3A73469  39.390  23.615   7.009
 5812POPC   C4A73470  39.335  23.224   7.187
 5812POPC   C1B73471  39.074  24.190   6.256
 5812POPC   C2B73472  38.897  24.367   6.585
 5812POPC   C3B73473  38.946  24.217   6.908
 5812POPC   C4B73474  39.215  24.067   7.170
 5813POPC   NC373475  40.355  29.796   5.495
 5813POPC   PO473476  39.696  29.904   5.401
 5813POPC   GL173477  39.736  29.986   5.849
 5813POPC   GL273478  40.092  30.054   5.874
 5813POPC   C1A73479  39.808  30.029   6.315
 5813POPC   D2A73480  39.878  29.790   6.680
 5813POPC   C3A73481  39.749  29.982   7.041
 5813POPC   C4A73482  40.060  29.980   7.286
 5813POPC   C1B73483  40.250  29.762   6.243
 5813POPC   C2B73484  40.370  29.528   6.604
 5813POPC   C3B73485  40.420  29.703   7.019
 5813POPC   C4B73486  40.417  29.715   7.490
 5814POPC   NC373487  18.191  32.769   5.211
 5814POPC   PO473488  18.729  33.131   5.380
 5814POPC   GL173489  18.430  33.048   5.760
 5814POPC   GL273490  18.174  32.740   5.787
 5814POPC   C1A73491  18.254  33.260   6.163
 5814POPC   D2A73492  18.016  33.235   6.551
 5814POPC   C3A73493  18.188  33.223   6.977
 5814POPC   C4A73494  18.032  33.135   7.389
 5814POPC   C1B73495  18.397  32.778   6.207
 5814POPC   C2B73496  18.383  32.890   6.630
 5814POPC   C3B73497  18.264  32.699   7.049
 5814POPC   C4B73498  18.360  32.673   7.507
 5815POPC   NC373499  20.363  27.757   5.087
 5815POPC   PO473500  19.783  27.624   5.388
 5815POPC   GL173501  19.881  27.519   5.803
 5815POPC   GL273502  19.616  27.277   5.837
 5815POPC   C1A73503  19.899  27.662   6.245
 5815POPC   D2A73504  20.138  27.517   6.627
 5815POPC   C3A73505  19.933  27.673   6.993
 5815POPC   C4A73506  19.878  27.964   7.320
 5815POPC   C1B73507  19.777  27.162   6.254
 5815POPC   C2B73508  19.664  27.303   6.656
 5815POPC   C3B73509  19.760  27.174   7.063
 5815POPC   C4B73510  19.708  27.426   7.421
 5816POPC   NC373511   6.188   0.879   5.475
 5816POPC   PO473512   5.741   0.252   5.445
 5816POPC   GL173513   5.966   0.429   5.775
 5816POPC   GL273514   5.919   0.771   5.888
 5816POPC   C1A73515   6.063   0.343   6.199
 5816POPC   D2A73516   5.856   0.285   6.586
 5816POPC   C3A73517   6.014   0.474   6.948
 5816POPC   C4A73518   5.811   0.405   7.322
 5816POPC   C1B73519   5.618   0.605   6.175
 5816POPC   C2B73520   5.504   0.658   6.560
 5816POPC   C3B73521   5.504   0.625   6.966
 5816POPC   C4B73522   5.409   0.721   7.362
 5817POPC   NC373523  30.585   7.037   5.422
 5817POPC   PO473524  30.951   6.449   5.637
 5817POPC   GL173525  30.669   6.538   5.965
 5817POPC   GL273526  30.499   6.841   5.872
 5817POPC   C1A73527  30.335   6.538   6.280
 5817POPC   D2A73528  30.082   6.599   6.635
 5817POPC   C3A73529  30.311   6.705   7.008
 5817POPC   C4A73530  30.582   6.477   7.311
 5817POPC   C1B73531  30.674   6.949   6.264
 5817POPC   C2B73532  30.680   6.772   6.650
 5817POPC   C3B73533  30.838   6.836   7.044
 5817POPC   C4B73534  30.641   6.993   7.314
 5818POPC   NC373535  39.603  23.316   5.696
 5818POPC   PO473536  39.981  23.815   5.346
 5818POPC   GL173537  40.008  23.873   5.824
 5818POPC   GL273538  39.653  23.823   5.856
 5818POPC   C1A73539  40.123  23.862   6.305
 5818POPC   D2A73540  40.155  23.435   6.556
 5818POPC   C3A73541  40.228  23.471   7.002
 5818POPC   C4A73542  40.016  23.815   7.163
 5818POPC   C1B73543  39.720  23.566   6.262
 5818POPC   C2B73544  39.574  23.342   6.603
 5818POPC   C3B73545  39.786  23.228   6.955
 5818POPC   C4B73546  39.777  23.413   7.352
 5819POPC   NC373547  42.683  25.357   5.538
 5819POPC   PO473548  42.121  25.018   5.468
 5819POPC   GL173549  42.327  25.134   5.855
 5819POPC   GL273550  42.689  25.067   5.960
 5819POPC   C1A73551  42.249  24.994   6.272
 5819POPC   D2A73552  42.435  25.026   6.664
 5819POPC   C3A73553  42.153  25.046   6.997
 5819POPC   C4A73554  42.306  24.987   7.388
 5819POPC   C1B73555  42.570  25.424   6.241
 5819POPC   C2B73556  42.688  25.555   6.663
 5819POPC   C3B73557  42.573  25.346   7.052
 5819POPC   C4B73558  42.262  25.478   7.320
 5820POPC   NC373559  26.478  33.509   5.510
 5820POPC   PO473560  27.085  33.302   5.545
 5820POPC   GL173561  26.822  33.590   5.861
 5820POPC   GL273562  26.769  33.964   5.817
 5820POPC   C1A73563  26.661  33.714   6.253
 5820POPC   D2A73564  26.828  33.686   6.668
 5820POPC   C3A73565  26.692  33.872   7.030
 5820POPC   C4A73566  26.691  33.575   7.361
 5820POPC   C1B73567  27.074  33.997   6.184
 5820POPC   C2B73568  27.094  34.162   6.616
 5820POPC   C3B73569  27.116  34.189   7.074
 5820POPC   C4B73570  26.990  34.009   7.488
 5821POPC   NC373571   4.712  18.094   5.431
 5821POPC   PO473572   4.150  18.450   5.365
 5821POPC   GL173573   4.221  18.436   5.784
 5821POPC   GL273574   4.588  18.404   5.840
 5821POPC   C1A73575   4.034  18.300   6.170
 5821POPC   D2A73576   4.261  18.305   6.552
 5821POPC   C3A73577   4.102  18.414   6.933
 5821POPC   C4A73578   4.066  18.102   7.239
 5821POPC   C1B73579   4.515  18.058   6.173
 5821POPC   C2B73580   4.582  17.920   6.642
 5821POPC   C3B73581   4.542  17.972   7.118
 5821POPC   C4B73582   4.445  18.110   7.586
 5822POPC   NC373583  11.890  32.210   5.400
 5822POPC   PO473584  12.520  31.984   5.446
 5822POPC   GL173585  12.228  32.066   5.848
 5822POPC   GL273586  11.847  32.034   5.894
 5822POPC   C1A73587  12.126  31.948   6.317
 5822POPC   D2A73588  11.899  31.922   6.740
 5822POPC   C3A73589  12.140  32.079   7.106
 5822POPC   C4A73590  12.292  32.118   7.542
 5822POPC   C1B73591  11.644  32.142   6.290
 5822POPC   C2B73592  11.703  32.405   6.641
 5822POPC   C3B73593  11.685  32.311   7.067
 5822POPC   C4B73594  11.817  32.250   7.472
 5823POPC   NC373595  34.265   5.559   5.658
 5823POPC   PO473596  34.659   5.909   5.272
 5823POPC   GL173597  34.682   5.916   5.784
 5823POPC   GL273598  34.339   5.904   5.995
 5823POPC   C1A73599  34.705   6.114   6.239
 5823POPC   D2A73600  34.362   6.036   6.570
 5823POPC   C3A73601  34.521   6.037   6.988
 5823POPC   C4A73602  34.881   6.306   7.106
 5823POPC   C1B73603  34.553   5.629   6.304
 5823POPC   C2B73604  34.594   5.576   6.749
 5823POPC   C3B73605  34.567   5.526   7.194
 5823POPC   C4B73606  34.688   5.417   7.607
 5824POPC   NC373607  29.275  23.288   5.287
 5824POPC   PO473608  28.950  22.699   5.466
 5824POPC   GL173609  29.073  22.785   5.857
 5824POPC   GL273610  29.309  23.052   5.814
 5824POPC   C1A73611  29.059  23.007   6.268
 5824POPC   D2A73612  29.208  23.223   6.642
 5824POPC   C3A73613  29.092  22.983   7.019
 5824POPC   C4A73614  28.972  22.854   7.424
 5824POPC   C1B73615  29.528  23.238   6.188
 5824POPC   C2B73616  29.728  23.278   6.606
 5824POPC   C3B73617  29.603  23.082   6.985
 5824POPC   C4B73618  29.497  23.042   7.406
 5825POPC   NC373619  21.440  10.648   5.446
 5825POPC   PO473620  21.839  10.155   5.664
 5825POPC   GL173621  21.514  10.319   5.916
 5825POPC   GL273622  21.198  10.125   5.977
 5825POPC   C1A73623  21.395  10.569   6.232
 5825POPC   D2A73624  21.576  10.687   6.595
 5825POPC   C3A73625  21.321  10.588   6.928
 5825POPC   C4A73626  21.463  10.568   7.321
 5825POPC   C1B73627  21.199  10.131   6.439
 5825POPC   C2B73628  21.117  10.084   6.883
 5825POPC   C3B73629  21.028  10.299   7.265
 5825POPC   C4B73630  21.264  10.288   7.686
 5826POPC   NC373631  20.001   0.078   5.598
 5826POPC   PO473632  19.495   0.571   5.482
 5826POPC   GL173633  19.555   0.433   5.883
 5826POPC   GL273634  19.874   0.424   5.936
 5826POPC   C1A73635  19.517   0.183   6.245
 5826POPC   D2A73636  19.392   0.260   6.671
 5826POPC   C3A73637  19.509   0.637   6.908
 5826POPC   C4A73638  19.694   0.579   7.331
 5826POPC   C1B73639  20.048   0.260   6.303
 5826POPC   C2B73640  19.918   0.393   6.694
 5826POPC   C3B73641  19.806   0.184   7.041
 5826POPC   C4B73642  20.147   0.045   7.267
 5827POPC   NC373643  11.793  16.589   5.497
 5827POPC   PO473644  11.247  16.878   5.274
 5827POPC   GL173645  11.219  16.775   5.721
 5827POPC   GL273646  11.532  16.728   5.900
 5827POPC   C1A73647  11.114  16.526   6.109
 5827POPC   D2A73648  11.337  16.568   6.519
 5827POPC   C3A73649  11.197  16.397   6.920
 5827POPC   C4A73650  11.360  16.572   7.311
 5827POPC   C1B73651  11.645  17.073   6.143
 5827POPC   C2B73652  11.486  17.057   6.555
 5827POPC   C3B73653  11.547  16.918   6.959
 5827POPC   C4B73654  11.762  16.922   7.350
 5828POPC   NC373655  16.796  32.222   5.182
 5828POPC   PO473656  16.377  31.952   5.625
 5828POPC   GL173657  16.644  32.176   5.889
 5828POPC   GL273658  16.936  32.414   5.852
 5828POPC   C1A73659  16.837  32.107   6.260
 5828POPC   D2A73660  16.911  31.835   6.564
 5828POPC   C3A73661  16.855  32.046   6.922
 5828POPC   C4A73662  16.609  32.193   7.244
 5828POPC   C1B73663  16.663  32.612   6.151
 5828POPC   C2B73664  16.739  32.525   6.546
 5828POPC   C3B73665  16.651  32.594   6.917
 5828POPC   C4B73666  16.592  32.701   7.295
 5829POPC   NC373667  17.822  10.439   5.538
 5829POPC   PO473668  17.152  10.465   5.599
 5829POPC   GL173669  17.482  10.489   5.938
 5829POPC   GL273670  17.882  10.433   6.033
 5829POPC   C1A73671  17.418  10.584   6.348
 5829POPC   D2A73672  17.612  10.710   6.714
 5829POPC   C3A73673  17.384  10.788   7.055
 5829POPC   C4A73674  17.062  10.563   7.234
 5829POPC   C1B73675  17.847  10.313   6.469
 5829POPC   C2B73676  17.419  10.175   6.629
 5829POPC   C3B73677  17.284  10.168   7.002
 5829POPC   C4B73678  17.603  10.361   7.226
 5830POPC   NC373679  41.452  38.587   5.322
 5830POPC   PO473680  41.900  38.165   5.473
 5830POPC   GL173681  41.784  38.421   5.856
 5830POPC   GL273682  41.409  38.519   5.833
 5830POPC   C1A73683  41.566  38.293   6.258
 5830POPC   D2A73684  41.371  38.441   6.622
 5830POPC   C3A73685  41.615  38.271   6.936
 5830POPC   C4A73686  41.429  38.093   7.254
 5830POPC   C1B73687  41.264  38.746   6.216
 5830POPC   C2B73688  41.351  38.988   6.614
 5830POPC   C3B73689  41.203  38.993   7.035
 5830POPC   C4B73690  41.280  38.576   7.188
 5831POPC   NC373691   9.719   6.866   5.447
 5831POPC   PO473692   9.627   6.217   5.338
 5831POPC   GL173693   9.753   6.352   5.800
 5831POPC   GL273694   9.834   6.708   5.910
 5831POPC   C1A73695   9.988   6.364   6.228
 5831POPC   D2A73696   9.920   6.657   6.598
 5831POPC   C3A73697   9.742   6.531   7.013
 5831POPC   C4A73698   9.957   6.587   7.437
 5831POPC   C1B73699   9.523   6.629   6.250
 5831POPC   C2B73700   9.360   6.722   6.686
 5831POPC   C3B73701   9.448   6.952   7.105
 5831POPC   C4B73702   9.513   6.836   7.544
 5832POPC   NC373703  34.182  16.024   5.611
 5832POPC   PO473704  34.731  15.968   5.275
 5832POPC   GL173705  34.702  16.050   5.742
 5832POPC   GL273706  34.535  15.754   5.924
 5832POPC   C1A73707  34.609  16.207   6.190
 5832POPC   D2A73708  34.788  16.321   6.619
 5832POPC   C3A73709  34.699  16.135   7.050
 5832POPC   C4A73710  34.837  15.729   7.179
 5832POPC   C1B73711  34.452  15.631   6.378
 5832POPC   C2B73712  34.400  15.631   6.862
 5832POPC   C3B73713  34.337  15.644   7.330
 5832POPC   C4B73714  34.183  15.875   7.721
 5833POPC   NC373715   5.444  16.977   5.692
 5833POPC   PO473716   5.225  17.380   5.219
 5833POPC   GL173717   5.229  17.479   5.724
 5833POPC   GL273718   5.521  17.640   5.876
 5833POPC   C1A73719   5.065  17.721   6.141
 5833POPC   D2A73720   5.101  17.963   6.557
 5833POPC   C3A73721   5.018  17.775   6.979
 5833POPC   C4A73722   4.836  17.408   7.238
 5833POPC   C1B73723   5.400  17.340   6.215
 5833POPC   C2B73724   5.445  17.151   6.608
 5833POPC   C3B73725   5.290  17.310   6.986
 5833POPC   C4B73726   5.401  17.226   7.374
 5834POPC   NC373727  14.809   1.968   5.542
 5834POPC   PO473728  14.198   1.732   5.637
 5834POPC   GL173729  14.404   1.946   5.904
 5834POPC   GL273730  14.659   1.712   5.974
 5834POPC   C1A73731  14.289   2.063   6.319
 5834POPC   D2A73732  14.153   2.315   6.688
 5834POPC   C3A73733  14.379   2.251   7.103
 5834POPC   C4A73734  14.145   2.232   7.551
 5834POPC   C1B73735  14.788   2.074   6.222
 5834POPC   C2B73736  14.696   2.064   6.652
 5834POPC   C3B73737  14.637   1.788   6.981
 5834POPC   C4B73738  14.871   2.008   7.233
 5835POPC   NC373739  38.581  32.489   5.493
 5835POPC   PO473740  38.140  32.047   5.343
 5835POPC   GL173741  38.401  31.961   5.722
 5835POPC   GL273742  38.657  32.211   5.944
 5835POPC   C1A73743  38.242  32.046   6.145
 5835POPC   D2A73744  38.470  32.332   6.408
 5835POPC   C3A73745  38.442  32.285   6.821
 5835POPC   C4A73746  38.234  31.967   7.021
 5835POPC   C1B73747  38.806  32.620   6.175
 5835POPC   C2B73748  38.709  32.729   6.639
 5835POPC   C3B73749  38.830  32.539   7.038
 5835POPC   C4B73750  38.725  32.141   7.238
 5836POPC   NC373751  41.016  38.915   5.633
 5836POPC   PO473752  40.435  39.283   5.616
 5836POPC   GL173753  40.570  39.178   6.009
 5836POPC   GL273754  40.663  38.828   6.005
 5836POPC   C1A73755  40.759  39.452   6.315
 5836POPC   D2A73756  41.129  39.452   6.554
 5836POPC   C3A73757  41.084  39.602   6.960
 5836POPC   C4A73758  40.984  39.397   7.298
 5836POPC   C1B73759  40.832  38.948   6.418
 5836POPC   C2B73760  40.755  39.185   6.800
 5836POPC   C3B73761  40.673  39.025   7.207
 5836POPC   C4B73762  40.486  38.840   7.558
 5837POPC   NC373763  32.333  25.610   5.446
 5837POPC   PO473764  32.565  24.962   5.595
 5837POPC   GL173765  32.419  25.209   5.959
 5837POPC   GL273766  32.028  25.175   6.065
 5837POPC   C1A73767  32.430  25.072   6.364
 5837POPC   D2A73768  32.149  25.056   6.703
 5837POPC   C3A73769  32.339  25.249   7.019
 5837POPC   C4A73770  32.747  25.226   7.256
 5837POPC   C1B73771  32.056  25.481   6.382
 5837POPC   C2B73772  32.080  25.708   6.790
 5837POPC   C3B73773  31.889  25.532   7.158
 5837POPC   C4B73774  31.852  25.078   7.128
 5838POPC   NC373775  32.204  38.807   5.504
 5838POPC   PO473776  32.411  38.164   5.477
 5838POPC   GL173777  32.250  38.392   5.834
 5838POPC   GL273778  32.566  38.321   5.941
 5838POPC   C1A73779  32.047  38.600   6.217
 5838POPC   D2A73780  32.015  38.859   6.613
 5838POPC   C3A73781  32.129  38.613   6.949
 5838POPC   C4A73782  32.313  38.486   7.312
 5838POPC   C1B73783  32.391  38.213   6.319
 5838POPC   C2B73784  32.208  38.172   6.710
 5838POPC   C3B73785  32.527  38.116   7.010
 5838POPC   C4B73786  32.729  38.163   7.389
 5839POPC   NC373787   9.547  32.519   5.296
 5839POPC   PO473788  10.112  32.200   5.494
 5839POPC   GL173789   9.970  32.277   5.879
 5839POPC   GL273790   9.630  32.271   5.752
 5839POPC   C1A73791   9.836  32.343   6.284
 5839POPC   D2A73792   9.904  32.259   6.679
 5839POPC   C3A73793   9.690  32.421   7.007
 5839POPC   C4A73794   9.864  32.269   7.347
 5839POPC   C1B73795   9.484  32.022   6.086
 5839POPC   C2B73796   9.421  32.130   6.512
 5839POPC   C3B73797   9.446  31.961   6.895
 5839POPC   C4B73798   9.403  32.070   7.309
 5840POPC   NC373799  17.649  23.544   5.497
 5840POPC   PO473800  17.447  24.197   5.463
 5840POPC   GL173801  17.492  23.937   5.801
 5840POPC   GL273802  17.832  23.952   5.776
 5840POPC   C1A73803  17.224  23.810   6.157
 5840POPC   D2A73804  17.078  23.812   6.590
 5840POPC   C3A73805  17.300  23.500   6.833
 5840POPC   C4A73806  17.447  23.488   7.241
 5840POPC   C1B73807  17.769  23.641   6.113
 5840POPC   C2B73808  17.736  23.656   6.529
 5840POPC   C3B73809  17.824  23.574   6.929
 5840POPC   C4B73810  17.969  23.625   7.340
 5841POPC   NC373811   9.107  28.950   5.140
 5841POPC   PO473812   8.534  29.231   5.507
 5841POPC   GL173813   8.838  29.189   5.831
 5841POPC   GL273814   9.216  29.278   5.825
 5841POPC   C1A73815   8.990  29.035   6.228
 5841POPC   D2A73816   9.145  29.174   6.624
 5841POPC   C3A73817   8.806  29.103   6.903
 5841POPC   C4A73818   8.757  28.975   7.311
 5841POPC   C1B73819   9.272  29.503   6.235
 5841POPC   C2B73820   9.552  29.599   6.600
 5841POPC   C3B73821   9.701  29.440   7.007
 5841POPC   C4B73822   9.296  29.236   7.117
 5842POPC   NC373823  12.004  16.956   5.082
 5842POPC   PO473824  12.045  16.328   5.200
 5842POPC   GL173825  12.206  16.505   5.740
 5842POPC   GL273826  12.171  16.857   5.793
 5842POPC   C1A73827  11.952  16.613   6.196
 5842POPC   D2A73828  11.911  16.703   6.661
 5842POPC   C3A73829  11.787  16.454   7.055
 5842POPC   C4A73830  11.727  16.211   7.460
 5842POPC   C1B73831  12.433  16.755   6.189
 5842POPC   C2B73832  12.404  16.922   6.646
 5842POPC   C3B73833  12.434  16.790   7.086
 5842POPC   C4B73834  12.252  16.889   7.491
 5843POPC   NC373835  11.525  23.398   5.573
 5843POPC   PO473836  11.547  24.109   5.559
 5843POPC   GL173837  11.340  23.789   5.889
 5843POPC   GL273838  11.050  23.548   5.864
 5843POPC   C1A73839  11.339  23.506   6.286
 5843POPC   D2A73840  11.462  23.648   6.708
 5843POPC   C3A73841  11.349  23.444   7.098
 5843POPC   C4A73842  11.374  23.617   7.510
 5843POPC   C1B73843  10.838  23.627   6.273
 5843POPC   C2B73844  10.917  23.714   6.692
 5843POPC   C3B73845  11.125  24.034   6.885
 5843POPC   C4B73846  11.314  24.115   7.265
 5844POPC   NC373847  28.100  41.506   5.281
 5844POPC   PO473848  28.748  41.517   5.469
 5844POPC   GL173849  28.562  41.330   5.820
 5844POPC   GL273850  28.212  41.400   5.784
 5844POPC   C1A73851  28.420  41.479   6.247
 5844POPC   D2A73852  28.064  41.516   6.558
 5844POPC   C3A73853  28.261  41.506   6.985
 5844POPC   C4A73854  28.355  41.665   7.420
 5844POPC   C1B73855  28.003  41.187   6.146
 5844POPC   C2B73856  27.812  41.035   6.545
 5844POPC   C3B73857  27.938  41.097   6.974
 5844POPC   C4B73858  27.945  41.341   7.358
 5845POPC   NC373859   3.361  36.055   5.370
 5845POPC   PO473860   2.683  35.958   5.472
 5845POPC   GL173861   2.747  35.937   5.899
 5845POPC   GL273862   3.041  36.079   5.893
 5845POPC   C1A73863   2.771  36.186   6.306
 5845POPC   D2A73864   2.512  36.259   6.637
 5845POPC   C3A73865   2.754  36.291   6.923
 5845POPC   C4A73866   2.676  36.214   7.273
 5845POPC   C1B73867   3.041  35.762   6.267
 5845POPC   C2B73868   3.162  35.876   6.685
 5845POPC   C3B73869   3.340  35.809   7.089
 5845POPC   C4B73870   3.119  35.980   7.464
 5846POPC   NC373871  42.192  40.155   5.450
 5846POPC   PO473872  42.876  40.437   5.502
 5846POPC   GL173873  42.560  40.123   5.788
 5846POPC   GL273874  42.302  39.822   5.812
 5846POPC   C1A73875  42.244  40.261   6.117
 5846POPC   D2A73876  42.242  40.153   6.570
 5846POPC   C3A73877  42.377  40.228   6.994
 5846POPC   C4A73878  42.081  40.148   7.306
 5846POPC   C1B73879  42.355  39.747   6.229
 5846POPC   C2B73880  42.103  39.666   6.590
 5846POPC   C3B73881  42.229  39.733   6.982
 5846POPC   C4B73882  42.360  39.732   7.378
 5847POPC   NC373883  19.526  10.754   5.594
 5847POPC   PO473884  20.027  10.321   5.374
 5847POPC   GL173885  19.885  10.374   5.767
 5847POPC   GL273886  20.057  10.684   5.761
 5847POPC   C1A73887  19.762  10.268   6.185
 5847POPC   D2A73888  19.942  10.152   6.599
 5847POPC   C3A73889  19.692  10.293   6.948
 5847POPC   C4A73890  19.663  10.538   7.305
 5847POPC   C1B73891  19.997  10.717   6.181
 5847POPC   C2B73892  19.743  10.650   6.549
 5847POPC   C3B73893  19.869  10.799   6.926
 5847POPC   C4B73894  20.222  10.913   7.180
 5848POPC   NC373895  19.648  35.781   5.610
 5848POPC   PO473896  20.085  35.240   5.490
 5848POPC   GL173897  19.988  35.457   5.821
 5848POPC   GL273898  19.631  35.344   5.869
 5848POPC   C1A73899  19.987  35.476   6.249
 5848POPC   D2A73900  19.815  35.254   6.595
 5848POPC   C3A73901  19.987  35.422   6.933
 5848POPC   C4A73902  20.054  35.217   7.278
 5848POPC   C1B73903  19.467  35.472   6.273
 5848POPC   C2B73904  19.346  35.449   6.716
 5848POPC   C3B73905  19.510  35.376   7.155
 5848POPC   C4B73906  19.444  35.586   7.550
 5849POPC   NC373907  30.461  40.670   5.382
 5849POPC   PO473908  31.123  40.500   5.499
 5849POPC   GL173909  30.787  40.674   5.795
 5849POPC   GL273910  30.485  40.908   5.828
 5849POPC   C1A73911  30.548  40.534   6.172
 5849POPC   D2A73912  30.821  40.571   6.499
 5849POPC   C3A73913  30.764  40.505   6.931
 5849POPC   C4A73914  31.001  40.745   7.219
 5849POPC   C1B73915  30.690  41.013   6.221
 5849POPC   C2B73916  30.488  40.938   6.633
 5849POPC   C3B73917  30.567  41.006   7.062
 5849POPC   C4B73918  30.777  41.177   7.419
 5850POPC   NC373919  23.747  24.461   5.314
 5850POPC   PO473920  23.076  24.420   5.528
 5850POPC   GL173921  23.384  24.605   5.808
 5850POPC   GL273922  23.699  24.404   5.820
 5850POPC   C1A73923  23.637  24.723   6.211
 5850POPC   D2A73924  23.972  24.667   6.552
 5850POPC   C3A73925  23.782  24.569   6.960
 5850POPC   C4A73926  23.526  24.767   7.280
 5850POPC   C1B73927  23.904  24.261   6.212
 5850POPC   C2B73928  23.900  24.049   6.620
 5850POPC   C3B73929  23.979  24.094   7.066
 5850POPC   C4B73930  23.705  24.221   7.374
 5851POPC   NC373931  20.196  39.877   5.622
 5851POPC   PO473932  20.915  40.035   5.446
 5851POPC   GL173933  20.654  40.113   5.835
 5851POPC   GL273934  20.318  40.225   5.968
 5851POPC   C1A73935  20.771  40.315   6.250
 5851POPC   D2A73936  20.929  40.293   6.673
 5851POPC   C3A73937  20.642  40.160   7.033
 5851POPC   C4A73938  20.747  40.138   7.483
 5851POPC   C1B73939  20.425  39.913   6.296
 5851POPC   C2B73940  20.447  39.699   6.718
 5851POPC   C3B73941  20.255  39.780   7.078
 5851POPC   C4B73942  20.314  39.797   7.496
 5852POPC   NC373943   7.041  34.565   5.458
 5852POPC   PO473944   7.588  34.142   5.459
 5852POPC   GL173945   7.809  34.344   5.828
 5852POPC   GL273946   7.652  34.667   5.832
 5852POPC   C1A73947   7.733  34.416   6.280
 5852POPC   D2A73948   7.385  34.476   6.588
 5852POPC   C3A73949   7.401  34.481   7.020
 5852POPC   C4A73950   7.039  34.317   7.229
 5852POPC   C1B73951   7.376  34.798   6.196
 5852POPC   C2B73952   7.397  35.000   6.638
 5852POPC   C3B73953   7.356  34.984   7.099
 5852POPC   C4B73954   7.137  35.127   7.459
 5853POPC   NC373955  10.877  28.824   5.476
 5853POPC   PO473956  10.322  29.150   5.339
 5853POPC   GL173957  10.453  29.205   5.799
 5853POPC   GL273958  10.226  29.434   5.899
 5853POPC   C1A73959  10.570  29.005   6.223
 5853POPC   D2A73960  10.667  28.760   6.609
 5853POPC   C3A73961  10.811  29.005   6.972
 5853POPC   C4A73962  10.590  29.194   7.283
 5853POPC   C1B73963  10.403  29.480   6.319
 5853POPC   C2B73964  10.480  29.375   6.753
 5853POPC   C3B73965  10.323  29.596   7.130
 5853POPC   C4B73966  10.488  29.618   7.545
 5854POPC   NC373967  40.188  28.811   5.545
 5854POPC   PO473968  39.836  28.168   5.453
 5854POPC   GL173969  39.989  28.378   5.799
 5854POPC   GL273970  39.770  28.665   5.854
 5854POPC   C1A73971  40.099  28.373   6.222
 5854POPC   D2A73972  40.117  28.473   6.646
 5854POPC   C3A73973  40.256  28.155   6.928
 5854POPC   C4A73974  40.292  28.410   7.251
 5854POPC   C1B73975  39.609  28.438   6.223
 5854POPC   C2B73976  39.611  28.399   6.667
 5854POPC   C3B73977  39.786  28.484   7.071
 5854POPC   C4B73978  39.798  28.556   7.525
 5855POPC   NC373979  20.417  14.859   5.298
 5855POPC   PO473980  20.720  15.397   5.521
 5855POPC   GL173981  20.592  15.051   5.803
 5855POPC   GL273982  20.245  14.905   5.776
 5855POPC   C1A73983  20.688  15.155   6.223
 5855POPC   D2A73984  20.532  15.357   6.583
 5855POPC   C3A73985  20.504  15.200   6.987
 5855POPC   C4A73986  20.709  15.533   7.150
 5855POPC   C1B73987  20.313  14.738   6.153
 5855POPC   C2B73988  20.346  14.880   6.560
 5855POPC   C3B73989  20.308  14.725   6.967
 5855POPC   C4B73990  20.459  14.769   7.365
 5856POPC   NC373991  30.625  31.072   5.452
 5856POPC   PO473992  31.023  31.667   5.458
 5856POPC   GL173993  30.838  31.565   5.838
 5856POPC   GL273994  30.913  31.210   5.846
 5856POPC   C1A73995  30.663  31.463   6.241
 5856POPC   D2A73996  30.821  31.496   6.663
 5856POPC   C3A73997  30.683  31.556   7.082
 5856POPC   C4A73998  30.725  31.915   7.341
 5856POPC   C1B73999  30.861  30.976   6.220
 5856POPC   C2B74000  31.026  31.031   6.613
 5856POPC   C3B74001  30.803  31.053   6.975
 5856POPC   C4B74002  30.892  31.124   7.373
 5857POPC   NC374003  18.851  36.045   5.440
 5857POPC   PO474004  19.564  36.179   5.377
 5857POPC   GL174005  19.346  36.118   5.825
 5857POPC   GL274006  19.199  36.370   5.719
 5857POPC   C1A74007  19.249  35.958   6.299
 5857POPC   D2A74008  19.035  35.875   6.743
 5857POPC   C3A74009  19.178  35.907   7.218
 5857POPC   C4A74010  19.115  35.944   7.699
 5857POPC   C1B74011  18.950  36.327   6.116
 5857POPC   C2B74012  18.829  36.347   6.550
 5857POPC   C3B74013  19.013  36.346   6.960
 5857POPC   C4B74014  18.943  36.351   7.385
 5858POPC   NC374015   0.454  37.095   5.442
 5858POPC   PO474016   0.138  36.538   5.239
 5858POPC   GL174017   0.275  36.653   5.696
 5858POPC   GL274018   0.618  36.731   5.787
 5858POPC   C1A74019   0.180  36.700   6.167
 5858POPC   D2A74020   0.196  36.956   6.589
 5858POPC   C3A74021   0.202  36.762   7.032
 5858POPC   C4A74022   0.580  36.698   7.291
 5858POPC   C1B74023   0.568  37.099   6.103
 5858POPC   C2B74024   0.710  37.158   6.532
 5858POPC   C3B74025   0.602  37.143   6.964
 5858POPC   C4B74026   0.707  37.173   7.401
 5859POPC   NC374027  39.555  29.469   5.673
 5859POPC   PO474028  39.390  28.962   5.263
 5859POPC   GL174029  39.355  28.998   5.757
 5859POPC   GL274030  39.113  29.277   5.897
 5859POPC   C1A74031  39.474  29.047   6.207
 5859POPC   D2A74032  39.423  28.861   6.626
 5859POPC   C3A74033  39.270  29.071   6.996
 5859POPC   C4A74034  39.411  29.211   7.409
 5859POPC   C1B74035  38.914  29.479   6.289
 5859POPC   C2B74036  38.910  29.398   6.757
 5859POPC   C3B74037  39.050  29.524   7.169
 5859POPC   C4B74038  39.045  29.479   7.610
 5860POPC   NC374039  40.118  41.402   5.351
 5860POPC   PO474040  40.117  42.072   5.243
 5860POPC   GL174041  40.159  41.785   5.688
 5860POPC   GL274042  39.900  41.567   5.915
 5860POPC   C1A74043  40.203  41.862   6.165
 5860POPC   D2A74044  39.965  41.679   6.517
 5860POPC   C3A74045  40.091  41.732   6.977
 5860POPC   C4A74046  39.995  41.757   7.442
 5860POPC   C1B74047  39.729  41.274   6.271
 5860POPC   C2B74048  39.833  41.242   6.741
 5860POPC   C3B74049  39.949  41.237   7.194
 5860POPC   C4B74050  40.002  41.114   7.621
 5861POPC   NC374051  12.414  29.900   5.388
 5861POPC   PO474052  11.738  30.047   5.364
 5861POPC   GL174053  12.034  29.991   5.718
 5861POPC   GL274054  11.887  29.747   5.809
 5861POPC   C1A74055  12.163  30.067   6.172
 5861POPC   D2A74056  12.258  30.256   6.592
 5861POPC   C3A74057  12.343  30.006   6.955
 5861POPC   C4A74058  12.151  29.928   7.348
 5861POPC   C1B74059  11.963  29.584   6.200
 5861POPC   C2B74060  12.165  29.662   6.584
 5861POPC   C3B74061  11.952  29.643   6.968
 5861POPC   C4B74062  11.752  29.564   7.366
 5862POPC   NC374063  20.751  28.689   5.338
 5862POPC   PO474064  20.528  28.075   5.372
 5862POPC   GL174065  20.497  28.357   5.773
 5862POPC   GL274066  20.376  28.737   5.782
 5862POPC   C1A74067  20.659  28.334   6.225
 5862POPC   D2A74068  20.847  28.192   6.620
 5862POPC   C3A74069  20.713  28.340   7.041
 5862POPC   C4A74070  20.740  28.138   7.448
 5862POPC   C1B74071  20.235  28.637   6.235
 5862POPC   C2B74072  20.388  28.579   6.673
 5862POPC   C3B74073  20.376  28.745   7.112
 5862POPC   C4B74074  20.561  28.610   7.505
 5863POPC   NC374075  16.290  20.781   5.583
 5863POPC   PO474076  15.912  20.216   5.517
 5863POPC   GL174077  15.984  20.444   5.882
 5863POPC   GL274078  15.856  20.777   5.873
 5863POPC   C1A74079  15.776  20.439   6.285
 5863POPC   D2A74080  15.830  20.410   6.739
 5863POPC   C3A74081  16.119  20.443   7.045
 5863POPC   C4A74082  15.851  20.678   7.277
 5863POPC   C1B74083  16.161  20.795   6.239
 5863POPC   C2B74084  16.078  20.862   6.677
 5863POPC   C3B74085  16.204  20.987   7.075
 5863POPC   C4B74086  16.326  20.785   7.472
 5864POPC   NC374087  36.977   4.607   5.050
 5864POPC   PO474088  36.570   4.390   5.548
 5864POPC   GL174089  36.738   4.485   5.905
 5864POPC   GL274090  37.008   4.264   5.830
 5864POPC   C1A74091  36.607   4.516   6.299
 5864POPC   D2A74092  36.470   4.316   6.680
 5864POPC   C3A74093  36.774   4.398   6.996
 5864POPC   C4A74094  36.691   4.563   7.397
 5864POPC   C1B74095  36.788   4.059   6.172
 5864POPC   C2B74096  36.969   4.165   6.558
 5864POPC   C3B74097  37.162   4.025   6.923
 5864POPC   C4B74098  37.094   4.156   7.338
 5865POPC   NC374099  30.524  28.730   5.476
 5865POPC   PO474100  31.155  28.463   5.370
 5865POPC   GL174101  31.038  28.421   5.810
 5865POPC   GL274102  30.782  28.673   5.948
 5865POPC   C1A74103  31.037  28.332   6.274
 5865POPC   D2A74104  30.822  28.574   6.621
 5865POPC   C3A74105  30.929  28.499   7.060
 5865POPC   C4A74106  30.815  28.282   7.450
 5865POPC   C1B74107  30.443  28.678   6.299
 5865POPC   C2B74108  30.284  28.558   6.748
 5865POPC   C3B74109  30.402  28.391   7.193
 5865POPC   C4B74110  30.387  28.497   7.692
 5866POPC   NC374111  21.877  22.201   5.391
 5866POPC   PO474112  22.532  22.458   5.519
 5866POPC   GL174113  22.245  22.264   5.774
 5866POPC   GL274114  22.377  22.481   6.044
 5866POPC   C1A74115  22.028  22.039   6.083
 5866POPC   D2A74116  21.968  21.992   6.531
 5866POPC   C3A74117  21.981  22.158   6.970
 5866POPC   C4A74118  21.945  22.012   7.381
 5866POPC   C1B74119  22.460  22.114   6.357
 5866POPC   C2B74120  22.427  21.945   6.788
 5866POPC   C3B74121  22.445  22.127   7.196
 5866POPC   C4B74122  22.325  22.480   7.403
 5867POPC   NC374123  41.383  23.550   5.467
 5867POPC   PO474124  41.513  24.077   5.077
 5867POPC   GL174125  41.651  24.021   5.568
 5867POPC   GL274126  41.836  23.707   5.714
 5867POPC   C1A74127  41.610  23.995   6.075
 5867POPC   D2A74128  41.538  23.710   6.453
 5867POPC   C3A74129  41.429  23.898   6.856
 5867POPC   C4A74130  41.620  23.849   7.278
 5867POPC   C1B74131  41.871  23.448   6.131
 5867POPC   C2B74132  42.006  23.427   6.564
 5867POPC   C3B74133  41.769  23.499   6.940
 5867POPC   C4B74134  41.851  23.357   7.365
 5868POPC   NC374135  11.486  21.354   5.354
 5868POPC   PO474136  10.882  21.663   5.449
 5868POPC   GL174137  11.160  21.438   5.743
 5868POPC   GL274138  11.479  21.654   5.787
 5868POPC   C1A74139  11.153  21.108   6.079
 5868POPC   D2A74140  11.396  21.012   6.455
 5868POPC   C3A74141  11.233  21.218   6.840
 5868POPC   C4A74142  11.208  21.250   7.283
 5868POPC   C1B74143  11.457  21.500   6.225
 5868POPC   C2B74144  11.652  21.461   6.649
 5868POPC   C3B74145  11.587  21.531   7.093
 5868POPC   C4B74146  11.261  21.790   7.247
 5869POPC   NC374147   4.636  19.644   5.539
 5869POPC   PO474148   5.149  20.077   5.500
 5869POPC   GL174149   5.021  19.965   5.905
 5869POPC   GL274150   4.989  19.622   5.900
 5869POPC   C1A74151   5.129  19.874   6.328
 5869POPC   D2A74152   5.264  20.058   6.711
 5869POPC   C3A74153   5.199  19.730   6.936
 5869POPC   C4A74154   5.272  19.591   7.285
 5869POPC   C1B74155   4.751  19.511   6.247
 5869POPC   C2B74156   4.774  19.692   6.660
 5869POPC   C3B74157   4.736  19.587   7.074
 5869POPC   C4B74158   4.835  19.793   7.480
 5870POPC   NC374159  12.128  42.892   5.094
 5870POPC   PO474160  12.178  42.281   5.374
 5870POPC   GL174161  12.005  42.220   5.831
 5870POPC   GL274162  11.817  41.992   5.962
 5870POPC   C1A74163  11.834  42.378   6.303
 5870POPC   D2A74164  11.705  42.409   6.770
 5870POPC   C3A74165  11.867  42.270   7.167
 5870POPC   C4A74166  12.166  42.391   7.531
 5870POPC   C1B74167  12.211  42.055   6.270
 5870POPC   C2B74168  12.183  42.217   6.706
 5870POPC   C3B74169  12.332  42.055   7.105
 5870POPC   C4B74170  12.010  41.785   7.197
 5871POPC   NC374171  13.994  37.144   5.452
 5871POPC   PO474172  14.694  36.985   5.364
 5871POPC   GL174173  14.435  36.971   5.776
 5871POPC   GL274174  14.245  37.273   5.888
 5871POPC   C1A74175  14.234  36.792   6.170
 5871POPC   D2A74176  14.225  36.722   6.659
 5871POPC   C3A74177  14.542  36.648   7.040
 5871POPC   C4A74178  14.402  36.433   7.436
 5871POPC   C1B74179  14.545  37.184   6.253
 5871POPC   C2B74180  14.615  37.050   6.698
 5871POPC   C3B74181  14.396  37.148   7.090
 5871POPC   C4B74182  14.488  37.252   7.526
 5872POPC   NC374183  36.789  42.949   5.121
 5872POPC   PO474184  37.110  43.359   5.636
 5872POPC   GL174185  36.949  43.157   6.026
 5872POPC   GL274186  37.099  42.862   5.925
 5872POPC   C1A74187  36.713  42.831   6.290
 5872POPC   D2A74188  36.775  42.783   6.739
 5872POPC   C3A74189  36.947  43.198   6.904
 5872POPC   C4A74190  36.999  43.198   7.362
 5872POPC   C1B74191  37.239  42.839   6.307
 5872POPC   C2B74192  37.288  42.801   6.697
 5872POPC   C3B74193  37.152  42.788   7.096
 5872POPC   C4B74194  37.427  42.799   7.413
 5873POPC   NC374195  26.228  10.942   5.563
 5873POPC   PO474196  25.986  10.324   5.451
 5873POPC   GL174197  25.759  10.399   5.864
 5873POPC   GL274198  25.895  10.725   5.899
 5873POPC   C1A74199  25.771  10.409   6.338
 5873POPC   D2A74200  26.161  10.385   6.629
 5873POPC   C3A74201  26.034  10.624   6.984
 5873POPC   C4A74202  25.686  10.345   7.099
 5873POPC   C1B74203  26.228  10.612   6.178
 5873POPC   C2B74204  26.410  10.846   6.550
 5873POPC   C3B74205  26.640  10.909   6.931
 5873POPC   C4B74206  26.420  10.877   7.337
 5874POPC   NC374207  32.909  44.166   5.482
 5874POPC   PO474208  33.380  43.721   5.441
 5874POPC   GL174209  33.158  43.744   5.806
 5874POPC   GL274210  32.908  43.503   5.833
 5874POPC   C1A74211  32.993  43.925   6.170
 5874POPC   D2A74212  33.097  43.819   6.568
 5874POPC   C3A74213  33.044  44.062   6.902
 5874POPC   C4A74214  32.791  44.024   7.228
 5874POPC   C1B74215  33.126  43.391   6.235
 5874POPC   C2B74216  33.162  43.350   6.719
 5874POPC   C3B74217  33.047  43.422   7.172
 5874POPC   C4B74218  33.271  43.423   7.572
 5875POPC   NC374219  29.281   2.232   5.523
 5875POPC   PO474220  29.014   1.659   5.715
 5875POPC   GL174221  29.189   1.968   5.979
 5875POPC   GL274222  28.990   2.254   5.935
 5875POPC   C1A74223  29.400   2.073   6.384
 5875POPC   D2A74224  29.521   2.129   6.793
 5875POPC   C3A74225  29.255   1.858   6.972
 5875POPC   C4A74226  29.169   1.806   7.365
 5875POPC   C1B74227  28.944   2.342   6.353
 5875POPC   C2B74228  29.012   2.304   6.799
 5875POPC   C3B74229  29.179   2.359   7.214
 5875POPC   C4B74230  29.428   2.222   7.571
 5876POPC   NC374231  19.397  33.402   5.434
 5876POPC   PO474232  18.957  33.929   5.310
 5876POPC   GL174233  18.936  33.779   5.739
 5876POPC   GL274234  18.957  33.412   5.749
 5876POPC   C1A74235  18.999  33.978   6.127
 5876POPC   D2A74236  19.160  34.064   6.508
 5876POPC   C3A74237  18.943  33.935   6.911
 5876POPC   C4A74238  19.137  33.762   7.308
 5876POPC   C1B74239  19.182  33.474   6.133
 5876POPC   C2B74240  19.030  33.570   6.541
 5876POPC   C3B74241  19.043  33.428   6.947
 5876POPC   C4B74242  18.815  33.381   7.365
 5877POPC   NC374243  27.764  35.122   5.571
 5877POPC   PO474244  27.384  35.611   5.518
 5877POPC   GL174245  27.510  35.463   5.886
 5877POPC   GL274246  27.405  35.125   5.932
 5877POPC   C1A74247  27.556  35.627   6.293
 5877POPC   D2A74248  27.752  35.431   6.644
 5877POPC   C3A74249  27.905  35.639   6.980
 5877POPC   C4A74250  27.591  35.476   7.220
 5877POPC   C1B74251  27.717  35.059   6.265
 5877POPC   C2B74252  27.805  34.908   6.700
 5877POPC   C3B74253  27.948  35.129   7.078
 5877POPC   C4B74254  27.817  35.067   7.544
 5878POPC   NC374255  21.481  37.369   5.449
 5878POPC   PO474256  21.801  36.843   5.434
 5878POPC   GL174257  21.924  36.868   5.874
 5878POPC   GL274258  21.813  36.601   6.060
 5878POPC   C1A74259  22.047  36.959   6.336
 5878POPC   D2A74260  22.373  36.838   6.628
 5878POPC   C3A74261  22.316  36.888   7.052
 5878POPC   C4A74262  22.281  37.207   7.356
 5878POPC   C1B74263  21.648  36.647   6.471
 5878POPC   C2B74264  21.856  36.836   6.812
 5878POPC   C3B74265  21.822  36.998   7.230
 5878POPC   C4B74266  21.663  37.050   7.654
 5879POPC   NC374267   9.899  26.448   5.324
 5879POPC   PO474268   9.889  25.783   5.278
 5879POPC   GL174269   9.621  25.865   5.666
 5879POPC   GL274270   9.588  25.536   5.800
 5879POPC   C1A74271   9.590  26.096   6.114
 5879POPC   D2A74272   9.788  26.049   6.550
 5879POPC   C3A74273   9.632  26.090   6.983
 5879POPC   C4A74274   9.906  25.999   7.350
 5879POPC   C1B74275   9.287  25.692   6.096
 5879POPC   C2B74276   9.282  25.859   6.517
 5879POPC   C3B74277   9.228  25.756   6.953
 5879POPC   C4B74278   9.377  25.834   7.360
 5880POPC   NC374279   5.506  17.022   5.097
 5880POPC   PO474280   5.056  16.745   5.534
 5880POPC   GL174281   5.129  16.597   5.930
 5880POPC   GL274282   4.805  16.718   5.997
 5880POPC   C1A74283   5.317  16.682   6.346
 5880POPC   D2A74284   5.240  16.532   6.764
 5880POPC   C3A74285   5.416  16.739   7.158
 5880POPC   C4A74286   5.262  16.574   7.584
 5880POPC   C1B74287   4.836  16.449   6.359
 5880POPC   C2B74288   4.720  16.612   6.755
 5880POPC   C3B74289   4.912  16.718   7.120
 5880POPC   C4B74290   4.995  16.968   7.470
 5881POPC   NC374291  27.122  17.279   5.669
 5881POPC   PO474292  27.614  17.519   5.347
 5881POPC   GL174293  27.644  17.377   5.770
 5881POPC   GL274294  27.527  17.679   5.849
 5881POPC   C1A74295  27.536  17.203   6.187
 5881POPC   D2A74296  27.588  16.990   6.602
 5881POPC   C3A74297  27.538  17.334   6.919
 5881POPC   C4A74298  27.309  17.681   7.157
 5881POPC   C1B74299  27.818  17.665   6.187
 5881POPC   C2B74300  27.664  17.790   6.602
 5881POPC   C3B74301  27.802  17.778   7.024
 5881POPC   C4B74302  28.180  17.854   7.231
 5882POPC   NC374303  20.274  35.654   5.388
 5882POPC   PO474304  20.675  35.226   5.150
 5882POPC   GL174305  20.660  35.404   5.637
 5882POPC   GL274306  20.480  35.179   5.863
 5882POPC   C1A74307  20.738  35.585   6.102
 5882POPC   D2A74308  20.942  35.793   6.498
 5882POPC   C3A74309  20.803  35.695   6.919
 5882POPC   C4A74310  20.502  35.421   7.114
 5882POPC   C1B74311  20.741  35.078   6.249
 5882POPC   C2B74312  20.809  35.207   6.674
 5882POPC   C3B74313  20.707  34.971   7.029
 5882POPC   C4B74314  20.955  34.973   7.329
 5883POPC   NC374315  37.243  43.907   5.383
 5883POPC   PO474316  36.718  43.409   5.268
 5883POPC   GL174317  36.824  43.782   5.664
 5883POPC   GL274318  37.089  43.731   5.941
 5883POPC   C1A74319  36.660  43.874   6.145
 5883POPC   D2A74320  36.576  43.771   6.628
 5883POPC   C3A74321  36.700  44.057   6.981
 5883POPC   C4A74322  36.556  44.096   7.399
 5883POPC   C1B74323  37.158  43.931   6.324
 5883POPC   C2B74324  37.090  43.805   6.754
 5883POPC   C3B74325  37.223  43.615   7.125
 5883POPC   C4B74326  37.154  43.608   7.606
 5884POPC   NC374327  20.213  16.741   5.382
 5884POPC   PO474328  19.550  16.996   5.402
 5884POPC   GL174329  19.767  16.913   5.795
 5884POPC   GL274330  19.982  16.639   5.835
 5884POPC   C1A74331  19.875  16.960   6.208
 5884POPC   D2A74332  19.874  16.688   6.558
 5884POPC   C3A74333  20.047  16.807   6.918
 5884POPC   C4A74334  20.078  16.809   7.327
 5884POPC   C1B74335  19.631  16.494   6.127
 5884POPC   C2B74336  19.487  16.364   6.561
 5884POPC   C3B74337  19.610  16.504   6.985
 5884POPC   C4B74338  19.899  16.341   7.308
 5885POPC   NC374339  14.608  10.835   5.734
 5885POPC   PO474340  14.196  10.468   5.314
 5885POPC   GL174341  14.365  10.353   5.727
 5885POPC   GL274342  14.677  10.193   5.799
 5885POPC   C1A74343  14.257  10.423   6.141
 5885POPC   D2A74344  14.355  10.270   6.541
 5885POPC   C3A74345  14.072  10.336   6.877
 5885POPC   C4A74346  14.236  10.436   7.273
 5885POPC   C1B74347  14.765  10.362   6.209
 5885POPC   C2B74348  14.651  10.703   6.476
 5885POPC   C3B74349  14.479  10.690   6.892
 5885POPC   C4B74350  14.694  10.678   7.286
 5886POPC   NC374351  29.426  13.237   5.465
 5886POPC   PO474352  29.004  12.762   5.459
 5886POPC   GL174353  29.260  12.721   5.816
 5886POPC   GL274354  29.539  12.926   5.848
 5886POPC   C1A74355  29.272  12.634   6.226
 5886POPC   D2A74356  29.021  12.721   6.572
 5886POPC   C3A74357  29.122  12.688   6.999
 5886POPC   C4A74358  29.293  12.956   7.275
 5886POPC   C1B74359  29.583  13.040   6.277
 5886POPC   C2B74360  29.537  12.815   6.660
 5886POPC   C3B74361  29.760  12.954   6.977
 5886POPC   C4B74362  29.745  13.237   7.271
 5887POPC   NC374363  41.942  10.791   5.709
 5887POPC   PO474364  42.126  11.342   5.307
 5887POPC   GL174365  42.334  11.302   5.706
 5887POPC   GL274366  42.531  10.991   5.773
 5887POPC   C1A74367  42.361  11.566   6.065
 5887POPC   D2A74368  42.485  11.531   6.516
 5887POPC   C3A74369  42.271  11.619   6.895
 5887POPC   C4A74370  42.173  11.441   7.276
 5887POPC   C1B74371  42.421  11.074   6.187
 5887POPC   C2B74372  42.546  10.999   6.584
 5887POPC   C3B74373  42.505  11.160   6.973
 5887POPC   C4B74374  42.560  10.997   7.368
 5888POPC   NC374375  43.398  11.559   5.449
 5888POPC   PO474376  43.656  10.980   5.610
 5888POPC   GL174377  43.803  11.175   5.956
 5888POPC   GL274378  43.677  11.509   5.896
 5888POPC   C1A74379  43.975  11.096   6.382
 5888POPC   D2A74380  44.039  10.874   6.802
 5888POPC   C3A74381  43.772  11.038   7.136
 5888POPC   C4A74382  43.572  11.409   7.273
 5888POPC   C1B74383  44.061  11.580   6.138
 5888POPC   C2B74384  44.207  11.547   6.533
 5888POPC   C3B74385  44.009  11.390   6.861
 5888POPC   C4B74386  44.072  11.503   7.270
 5889POPC   NC374387   7.393  39.740   5.393
 5889POPC   PO474388   7.586  39.158   5.581
 5889POPC   GL174389   7.222  39.263   5.810
 5889POPC   GL274390   7.369  39.536   5.893
 5889POPC   C1A74391   7.094  39.264   6.240
 5889POPC   D2A74392   7.233  39.430   6.636
 5889POPC   C3A74393   7.274  39.176   6.984
 5889POPC   C4A74394   7.643  39.145   7.121
 5889POPC   C1B74395   7.612  39.308   6.223
 5889POPC   C2B74396   7.756  39.450   6.619
 5889POPC   C3B74397   7.643  39.679   6.955
 5889POPC   C4B74398   7.616  39.626   7.395
 5890POPC   NC374399   2.988  33.323   5.528
 5890POPC   PO474400   2.688  32.797   5.225
 5890POPC   GL174401   2.683  32.925   5.706
 5890POPC   GL274402   2.989  32.973   5.915
 5890POPC   C1A74403   2.473  33.093   6.103
 5890POPC   D2A74404   2.389  32.911   6.534
 5890POPC   C3A74405   2.689  32.889   6.892
 5890POPC   C4A74406   2.649  33.090   7.293
 5890POPC   C1B74407   2.912  32.963   6.374
 5890POPC   C2B74408   3.132  32.716   6.702
 5890POPC   C3B74409   3.147  32.644   7.168
 5890POPC   C4B74410   3.034  32.847   7.565
 5891POPC   NC374411  19.835  33.043   5.379
 5891POPC   PO474412  20.334  33.477   5.593
 5891POPC   GL174413  20.045  33.203   5.877
 5891POPC   GL274414  19.675  33.154   5.857
 5891POPC   C1A74415  20.037  32.899   6.196
 5891POPC   D2A74416  19.777  32.867   6.542
 5891POPC   C3A74417  19.911  32.845   6.951
 5891POPC   C4A74418  19.602  32.752   7.259
 5891POPC   C1B74419  19.754  33.350   6.268
 5891POPC   C2B74420  19.827  33.349   6.739
 5891POPC   C3B74421  20.051  33.322   7.150
 5891POPC   C4B74422  19.952  33.377   7.586
 5892POPC   NC374423   4.792   7.422   5.443
 5892POPC   PO474424   5.254   7.906   5.578
 5892POPC   GL174425   5.095   7.519   5.842
 5892POPC   GL274426   4.711   7.479   5.936
 5892POPC   C1A74427   5.230   7.337   6.254
 5892POPC   D2A74428   5.079   7.194   6.667
 5892POPC   C3A74429   5.072   7.413   7.054
 5892POPC   C4A74430   5.163   7.319   7.479
 5892POPC   C1B74431   4.764   7.496   6.374
 5892POPC   C2B74432   4.692   7.791   6.678
 5892POPC   C3B74433   4.618   7.778   7.089
 5892POPC   C4B74434   4.714   7.539   7.431
 5893POPC   NC374435   6.347  17.435   5.446
 5893POPC   PO474436   5.781  17.768   5.448
 5893POPC   GL174437   6.046  17.729   5.816
 5893POPC   GL274438   6.047  17.382   5.893
 5893POPC   C1A74439   6.196  17.811   6.242
 5893POPC   D2A74440   6.042  17.797   6.690
 5893POPC   C3A74441   5.707  17.612   6.874
 5893POPC   C4A74442   5.789  17.530   7.299
 5893POPC   C1B74443   5.887  17.428   6.316
 5893POPC   C2B74444   6.003  17.233   6.681
 5893POPC   C3B74445   5.766  17.114   7.012
 5893POPC   C4B74446   5.873  17.038   7.418
 5894POPC   NC374447  36.867  25.884   5.384
 5894POPC   PO474448  37.244  26.436   5.605
 5894POPC   GL174449  36.976  26.139   5.818
 5894POPC   GL274450  36.586  26.131   5.772
 5894POPC   C1A74451  37.041  26.122   6.238
 5894POPC   D2A74452  37.219  26.291   6.623
 5894POPC   C3A74453  36.954  26.133   6.944
 5894POPC   C4A74454  37.001  25.943   7.361
 5894POPC   C1B74455  36.527  26.195   6.219
 5894POPC   C2B74456  36.545  25.984   6.644
 5894POPC   C3B74457  36.495  26.015   7.104
 5894POPC   C4B74458  36.537  25.692   7.392
 5895POPC   NC374459  18.567  31.903   5.540
 5895POPC   PO474460  18.303  31.366   5.201
 5895POPC   GL174461  18.455  31.421   5.664
 5895POPC   GL274462  18.200  31.334   5.857
 5895POPC   C1A74463  18.564  31.466   6.153
 5895POPC   D2A74464  18.388  31.744   6.482
 5895POPC   C3A74465  18.310  31.520   6.850
 5895POPC   C4A74466  18.363  31.442   7.260
 5895POPC   C1B74467  18.046  31.452   6.226
 5895POPC   C2B74468  17.959  31.215   6.561
 5895POPC   C3B74469  17.652  31.160   6.803
 5895POPC   C4B74470  17.848  31.259   7.168
 5896POPC   NC374471   5.519  33.865   5.277
 5896POPC   PO474472   6.163  33.804   5.390
 5896POPC   GL174473   5.947  33.603   5.730
 5896POPC   GL274474   5.633  33.754   5.819
 5896POPC   C1A74475   5.890  33.504   6.189
 5896POPC   D2A74476   5.912  33.720   6.568
 5896POPC   C3A74477   5.827  33.546   6.960
 5896POPC   C4A74478   5.945  33.821   7.317
 5896POPC   C1B74479   5.467  33.843   6.226
 5896POPC   C2B74480   5.402  33.727   6.630
 5896POPC   C3B74481   5.475  33.909   7.010
 5896POPC   C4B74482   5.491  33.618   7.349
 5897POPC   NC374483  38.064  44.165   5.347
 5897POPC   PO474484  37.693  43.628   5.219
 5897POPC   GL174485  37.590  43.747   5.725
 5897POPC   GL274486  37.453  44.069   5.875
 5897POPC   C1A74487  37.615  43.695   6.203
 5897POPC   D2A74488  37.587  43.874   6.620
 5897POPC   C3A74489  37.729  43.633   6.976
 5897POPC   C4A74490  37.638  43.784   7.377
 5897POPC   C1B74491  37.852  44.138   6.139
 5897POPC   C2B74492  37.928  44.272   6.582
 5897POPC   C3B74493  37.850  44.122   7.025
 5897POPC   C4B74494  37.637  44.286   7.396
 5898POPC   NC374495   1.687  44.260   5.552
 5898POPC   PO474496   1.281  44.777   5.346
 5898POPC   GL174497   1.289  44.701   5.781
 5898POPC   GL274498   1.648  44.702   5.817
 5898POPC   C1A74499   1.091  44.831   6.184
 5898POPC   D2A74500   0.963  44.972   6.612
 5898POPC   C3A74501   1.195  44.775   6.962
 5898POPC   C4A74502   1.112  44.482   7.268
 5898POPC   C1B74503   1.509  44.480   6.190
 5898POPC   C2B74504   1.617  44.554   6.614
 5898POPC   C3B74505   1.617  44.446   7.030
 5898POPC   C4B74506   1.564  44.702   7.374
 5899POPC   NC374507  11.104  17.300   5.352
 5899POPC   PO474508  11.395  17.860   5.396
 5899POPC   GL174509  11.315  17.673   5.811
 5899POPC   GL274510  11.283  17.292   5.833
 5899POPC   C1A74511  11.458  17.571   6.237
 5899POPC   D2A74512  11.570  17.540   6.653
 5899POPC   C3A74513  11.218  17.380   6.857
 5899POPC   C4A74514  11.110  17.549   7.229
 5899POPC   C1B74515  11.140  17.030   6.183
 5899POPC   C2B74516  10.950  17.000   6.572
 5899POPC   C3B74517  11.041  16.883   6.987
 5899POPC   C4B74518  11.227  17.069   7.348
 5900POPC   NC374519  40.885  30.665   5.517
 5900POPC   PO474520  40.461  30.213   5.331
 5900POPC   GL174521  40.503  30.451   5.773
 5900POPC   GL274522  40.564  30.816   5.889
 5900POPC   C1A74523  40.855  30.472   6.153
 5900POPC   D2A74524  40.737  30.412   6.598
 5900POPC   C3A74525  40.855  30.663   6.954
 5900POPC   C4A74526  40.882  30.537   7.354
 5900POPC   C1B74527  40.394  30.729   6.324
 5900POPC   C2B74528  40.369  30.728   6.786
 5900POPC   C3B74529  40.428  30.720   7.247
 5900POPC   C4B74530  40.594  30.899   7.641
 5901POPC   NC374531  18.061  44.936   5.647
 5901POPC   PO474532  17.460  44.766   5.456
 5901POPC   GL174533  17.340  44.701   5.848
 5901POPC   GL274534  17.693  44.594   5.936
 5901POPC   C1A74535  17.290  44.853   6.257
 5901POPC   D2A74536  17.552  44.732   6.601
 5901POPC   C3A74537  17.356  44.800   6.984
 5901POPC   C4A74538  17.541  44.713   7.392
 5901POPC   C1B74539  17.835  44.232   6.198
 5901POPC   C2B74540  17.637  44.185   6.612
 5901POPC   C3B74541  17.703  44.341   7.026
 5901POPC   C4B74542  17.920  44.355   7.412
 5902POPC   NC374543  44.464  39.041   5.571
 5902POPC   PO474544   0.097  39.288   5.593
 5902POPC   GL174545  44.864  39.551   5.872
 5902POPC   GL274546  44.493  39.488   5.864
 5902POPC   C1A74547  44.744  39.627   6.276
 5902POPC   D2A74548  44.473  39.463   6.568
 5902POPC   C3A74549  44.686  39.319   6.923
 5902POPC   C4A74550  44.419  39.393   7.264
 5902POPC   C1B74551  44.622  39.137   6.188
 5902POPC   C2B74552  44.392  38.942   6.527
 5902POPC   C3B74553  44.285  39.009   6.953
 5902POPC   C4B74554  44.638  38.911   7.234
 5903POPC   NC374555  17.517  28.750   5.437
 5903POPC   PO474556  17.259  29.329   5.485
 5903POPC   GL174557  17.583  29.236   5.805
 5903POPC   GL274558  17.822  28.949   5.829
 5903POPC   C1A74559  17.805  29.387   6.159
 5903POPC   D2A74560  17.732  29.244   6.545
 5903POPC   C3A74561  17.859  29.362   6.912
 5903POPC   C4A74562  17.601  29.373   7.254
 5903POPC   C1B74563  17.732  28.824   6.266
 5903POPC   C2B74564  17.535  28.824   6.727
 5903POPC   C3B74565  17.617  28.848   7.193
 5903POPC   C4B74566  17.903  28.676   7.543
 5904POPC   NC374567  33.305  13.623   5.258
 5904POPC   PO474568  33.993  13.789   5.363
 5904POPC   GL174569  33.713  13.649   5.681
 5904POPC   GL274570  33.802  13.299   5.770
 5904POPC   C1A74571  33.567  13.585   6.129
 5904POPC   D2A74572  33.751  13.654   6.524
 5904POPC   C3A74573  33.639  13.467   6.903
 5904POPC   C4A74574  33.735  13.647   7.294
 5904POPC   C1B74575  34.039  13.320   6.203
 5904POPC   C2B74576  34.184  13.407   6.668
 5904POPC   C3B74577  34.089  13.312   7.167
 5904POPC   C4B74578  34.129  13.420   7.683
 5905POPC   NC374579   3.821  30.373   5.443
 5905POPC   PO474580   3.535  30.966   5.460
 5905POPC   GL174581   3.380  30.878   5.840
 5905POPC   GL274582   3.539  30.553   5.828
 5905POPC   C1A74583   3.533  30.856   6.252
 5905POPC   D2A74584   3.751  30.689   6.590
 5905POPC   C3A74585   3.501  30.616   6.928
 5905POPC   C4A74586   3.608  30.674   7.335
 5905POPC   C1B74587   3.239  30.437   6.119
 5905POPC   C2B74588   3.159  30.598   6.521
 5905POPC   C3B74589   3.032  30.383   6.879
 5905POPC   C4B74590   3.174  30.405   7.281
 5906POPC   NC374591  31.011   8.199   5.368
 5906POPC   PO474592  30.376   8.170   5.490
 5906POPC   GL174593  30.514   8.345   5.867
 5906POPC   GL274594  30.891   8.395   5.860
 5906POPC   C1A74595  30.565   8.332   6.309
 5906POPC   D2A74596  30.426   8.573   6.674
 5906POPC   C3A74597  30.534   8.423   7.086
 5906POPC   C4A74598  30.754   8.046   7.294
 5906POPC   C1B74599  30.949   8.674   6.273
 5906POPC   C2B74600  30.948   8.626   6.739
 5906POPC   C3B74601  31.031   8.503   7.201
 5906POPC   C4B74602  30.935   8.662   7.637
 5907POPC   NC374603  11.825  12.502   5.462
 5907POPC   PO474604  11.271  11.976   5.538
 5907POPC   GL174605  11.438  12.241   5.834
 5907POPC   GL274606  11.126  12.399   5.877
 5907POPC   C1A74607  11.544  12.305   6.272
 5907POPC   D2A74608  11.357  12.069   6.618
 5907POPC   C3A74609  11.391  11.990   7.047
 5907POPC   C4A74610  11.033  11.976   7.321
 5907POPC   C1B74611  11.024  12.289   6.265
 5907POPC   C2B74612  11.163  12.554   6.587
 5907POPC   C3B74613  11.070  12.376   6.953
 5907POPC   C4B74614  10.837  12.447   7.291
 5908POPC   NC374615  36.635  39.075   5.098
 5908POPC   PO474616  36.948  38.530   5.436
 5908POPC   GL174617  37.021  38.656   5.818
 5908POPC   GL274618  37.268  38.396   5.835
 5908POPC   C1A74619  36.803  38.558   6.203
 5908POPC   D2A74620  36.916  38.621   6.617
 5908POPC   C3A74621  36.741  38.439   7.013
 5908POPC   C4A74622  36.926  38.558   7.442
 5908POPC   C1B74623  37.310  38.548   6.237
 5908POPC   C2B74624  37.322  38.323   6.599
 5908POPC   C3B74625  37.231  38.507   6.986
 5908POPC   C4B74626  37.389  38.378   7.329
 5909POPC   NC374627  41.386  33.134   5.335
 5909POPC   PO474628  41.908  32.700   5.322
 5909POPC   GL174629  41.760  32.989   5.685
 5909POPC   GL274630  41.454  32.777   5.735
 5909POPC   C1A74631  41.503  33.134   6.090
 5909POPC   D2A74632  41.412  32.874   6.472
 5909POPC   C3A74633  41.360  33.068   6.895
 5909POPC   C4A74634  41.661  33.069   7.207
 5909POPC   C1B74635  41.747  32.677   6.105
 5909POPC   C2B74636  41.915  32.753   6.505
 5909POPC   C3B74637  41.741  32.711   6.868
 5909POPC   C4B74638  41.855  32.589   7.300
 5910POPC   NC374639  23.922  32.154   5.226
 5910POPC   PO474640  23.391  32.493   5.138
 5910POPC   GL174641  23.366  32.353   5.670
 5910POPC   GL274642  23.727  32.198   5.830
 5910POPC   C1A74643  23.487  32.516   6.135
 5910POPC   D2A74644  23.700  32.451   6.573
 5910POPC   C3A74645  23.472  32.451   6.988
 5910POPC   C4A74646  23.649  32.500   7.425
 5910POPC   C1B74647  24.012  32.237   6.211
 5910POPC   C2B74648  24.161  32.214   6.624
 5910POPC   C3B74649  23.907  32.220   7.004
 5910POPC   C4B74650  23.673  31.989   7.362
 5911POPC   NC374651  27.737  12.853   5.431
 5911POPC   PO474652  27.100  12.624   5.475
 5911POPC   GL174653  27.397  12.767   5.797
 5911POPC   GL274654  27.757  12.571   5.847
 5911POPC   C1A74655  27.592  12.945   6.161
 5911POPC   D2A74656  27.539  12.835   6.562
 5911POPC   C3A74657  27.598  13.044   6.937
 5911POPC   C4A74658  27.393  12.765   7.182
 5911POPC   C1B74659  27.855  12.475   6.275
 5911POPC   C2B74660  27.918  12.548   6.711
 5911POPC   C3B74661  27.756  12.424   7.066
 5911POPC   C4B74662  27.841  12.573   7.446
 5912POPC   NC374663  15.661   2.666   5.455
 5912POPC   PO474664  16.261   2.350   5.447
 5912POPC   GL174665  16.038   2.510   5.822
 5912POPC   GL274666  15.665   2.492   5.921
 5912POPC   C1A74667  16.042   2.689   6.241
 5912POPC   D2A74668  15.897   2.889   6.651
 5912POPC   C3A74669  16.149   2.739   6.971
 5912POPC   C4A74670  16.319   2.960   7.287
 5912POPC   C1B74671  15.545   2.635   6.314
 5912POPC   C2B74672  15.760   2.403   6.609
 5912POPC   C3B74673  15.701   2.511   7.003
 5912POPC   C4B74674  15.732   2.913   7.195
 5913POPC   NC374675  34.012   6.429   5.430
 5913POPC   PO474676  33.342   6.513   5.393
 5913POPC   GL174677  33.403   6.413   5.794
 5913POPC   GL274678  33.639   6.168   5.769
 5913POPC   C1A74679  33.583   6.562   6.202
 5913POPC   D2A74680  33.756   6.841   6.542
 5913POPC   C3A74681  33.686   6.629   6.914
 5913POPC   C4A74682  33.908   6.548   7.298
 5913POPC   C1B74683  33.957   6.211   6.108
 5913POPC   C2B74684  33.948   6.346   6.534
 5913POPC   C3B74685  33.911   6.176   6.942
 5913POPC   C4B74686  34.097   6.075   7.290
 5914POPC   NC374687  30.721  33.096   5.385
 5914POPC   PO474688  31.157  32.658   5.552
 5914POPC   GL174689  30.835  32.911   5.832
 5914POPC   GL274690  30.860  33.308   5.838
 5914POPC   C1A74691  30.543  32.866   6.180
 5914POPC   D2A74692  30.517  32.596   6.552
 5914POPC   C3A74693  30.438  32.783   6.943
 5914POPC   C4A74694  30.716  32.794   7.291
 5914POPC   C1B74695  30.623  33.465   6.183
 5914POPC   C2B74696  30.478  33.258   6.548
 5914POPC   C3B74697  30.225  33.334   6.867
 5914POPC   C4B74698  30.300  33.185   7.253
 5915POPC   NC374699  38.047   2.728   5.655
 5915POPC   PO474700  37.438   2.936   5.334
 5915POPC   GL174701  37.605   2.982   5.730
 5915POPC   GL274702  37.522   2.643   5.773
 5915POPC   C1A74703  37.668   2.927   6.196
 5915POPC   D2A74704  37.507   3.120   6.603
 5915POPC   C3A74705  37.468   2.980   7.055
 5915POPC   C4A74706  37.467   2.958   7.519
 5915POPC   C1B74707  37.398   2.378   6.088
 5915POPC   C2B74708  37.486   2.561   6.492
 5915POPC   C3B74709  37.460   2.487   6.912
 5915POPC   C4B74710  37.559   2.471   7.333
 5916POPC   NC374711  35.976  25.444   5.493
 5916POPC   PO474712  36.365  24.884   5.542
 5916POPC   GL174713  36.003  25.035   5.847
 5916POPC   GL274714  36.075  25.400   5.982
 5916POPC   C1A74715  36.003  25.040   6.318
 5916POPC   D2A74716  36.427  25.165   6.455
 5916POPC   C3A74717  36.470  25.403   6.834
 5916POPC   C4A74718  36.251  25.309   7.195
 5916POPC   C1B74719  35.749  25.495   6.275
 5916POPC   C2B74720  35.529  25.397   6.639
 5916POPC   C3B74721  35.823  25.294   6.906
 5916POPC   C4B74722  35.775  25.325   7.334
 5917POPC   NC374723  39.829   2.628   5.408
 5917POPC   PO474724  40.300   3.078   5.542
 5917POPC   GL174725  40.153   2.673   5.811
 5917POPC   GL274726  39.784   2.676   5.903
 5917POPC   C1A74727  40.088   2.475   6.242
 5917POPC   D2A74728  40.072   2.732   6.616
 5917POPC   C3A74729  40.074   2.522   6.996
 5917POPC   C4A74730  40.237   2.423   7.386
 5917POPC   C1B74731  39.889   2.984   6.200
 5917POPC   C2B74732  39.714   3.112   6.612
 5917POPC   C3B74733  39.698   2.879   6.948
 5917POPC   C4B74734  39.816   2.989   7.318
 5918POPC   NC374735   3.806   0.396   5.275
 5918POPC   PO474736   3.199   0.162   5.407
 5918POPC   GL174737   3.409   0.384   5.743
 5918POPC   GL274738   3.772   0.464   5.785
 5918POPC   C1A74739   3.481   0.238   6.171
 5918POPC   D2A74740   3.369   0.314   6.611
 5918POPC   C3A74741   3.638   0.109   6.931
 5918POPC   C4A74742   3.514   0.203   7.385
 5918POPC   C1B74743   3.777   0.641   6.219
 5918POPC   C2B74744   3.862   0.485   6.620
 5918POPC   C3B74745   3.688   0.592   7.038
 5918POPC   C4B74746   3.628   0.840   7.376
 5919POPC   NC374747  10.903  14.682   5.392
 5919POPC   PO474748  10.487  14.165   5.330
 5919POPC   GL174749  10.594  14.227   5.750
 5919POPC   GL274750  10.933  14.147   5.644
 5919POPC   C1A74751  10.511  14.497   6.132
 5919POPC   D2A74752  10.570  14.677   6.561
 5919POPC   C3A74753  10.462  14.529   6.974
 5919POPC   C4A74754  10.625  14.239   7.283
 5919POPC   C1B74755  10.971  14.117   6.081
 5919POPC   C2B74756  10.877  14.304   6.448
 5919POPC   C3B74757  10.928  14.314   6.884
 5919POPC   C4B74758  11.149  14.147   7.249
 5920POPC   NC374759  30.060  30.248   5.431
 5920POPC   PO474760  29.638  29.744   5.540
 5920POPC   GL174761  29.875  29.978   5.848
 5920POPC   GL274762  30.216  29.874   5.810
 5920POPC   C1A74763  29.753  30.091   6.277
 5920POPC   D2A74764  29.673  30.362   6.652
 5920POPC   C3A74765  29.756  30.084   7.002
 5920POPC   C4A74766  29.557  29.749   7.181
 5920POPC   C1B74767  30.280  30.094   6.191
 5920POPC   C2B74768  30.126  30.049   6.610
 5920POPC   C3B74769  30.261  29.990   7.006
 5920POPC   C4B74770  30.261  30.303   7.315
 5921POPC   NC374771  43.530  39.500   5.394
 5921POPC   PO474772  44.113  39.253   5.377
 5921POPC   GL174773  43.798  39.190   5.733
 5921POPC   GL274774  43.577  39.437   5.887
 5921POPC   C1A74775  43.796  39.091   6.180
 5921POPC   D2A74776  43.981  39.244   6.568
 5921POPC   C3A74777  43.800  39.160   6.972
 5921POPC   C4A74778  43.895  39.072   7.391
 5921POPC   C1B74779  43.524  39.647   6.275
 5921POPC   C2B74780  43.572  39.531   6.696
 5921POPC   C3B74781  43.493  39.562   7.121
 5921POPC   C4B74782  43.548  39.472   7.572
 5922POPC   NC374783  25.747  13.974   5.437
 5922POPC   PO474784  26.306  13.594   5.361
 5922POPC   GL174785  26.090  13.750   5.744
 5922POPC   GL274786  25.860  13.462   5.768
 5922POPC   C1A74787  25.925  13.792   6.191
 5922POPC   D2A74788  26.090  13.584   6.611
 5922POPC   C3A74789  25.955  13.676   7.047
 5922POPC   C4A74790  25.990  13.959   7.379
 5922POPC   C1B74791  26.013  13.291   6.172
 5922POPC   C2B74792  26.128  13.058   6.544
 5922POPC   C3B74793  25.975  13.172   6.928
 5922POPC   C4B74794  26.150  13.240   7.272
 5923POPC   NC374795  43.009  35.823   5.377
 5923POPC   PO474796  43.373  36.398   5.515
 5923POPC   GL174797  43.078  36.118   5.794
 5923POPC   GL274798  42.803  35.826   5.826
 5923POPC   C1A74799  43.198  35.898   6.172
 5923POPC   D2A74800  43.322  36.094   6.554
 5923POPC   C3A74801  43.241  36.005   6.966
 5923POPC   C4A74802  43.214  36.377   7.205
 5923POPC   C1B74803  42.704  36.010   6.195
 5923POPC   C2B74804  42.844  35.878   6.561
 5923POPC   C3B74805  42.745  35.901   6.941
 5923POPC   C4B74806  42.948  35.664   7.247
 5924POPC   NC374807  32.781  13.931   5.571
 5924POPC   PO474808  32.878  13.435   5.150
 5924POPC   GL174809  32.917  13.409   5.631
 5924POPC   GL274810  33.207  13.580   5.763
 5924POPC   C1A74811  32.891  13.428   6.128
 5924POPC   D2A74812  33.179  13.518   6.503
 5924POPC   C3A74813  33.103  13.418   6.939
 5924POPC   C4A74814  33.268  13.476   7.321
 5924POPC   C1B74815  33.112  13.886   6.128
 5924POPC   C2B74816  32.870  13.943   6.506
 5924POPC   C3B74817  32.972  13.926   6.949
 5924POPC   C4B74818  32.929  13.978   7.401
 5925POPC   NC374819  43.189  13.904   5.461
 5925POPC   PO474820  42.591  13.651   5.225
 5925POPC   GL174821  42.757  13.509   5.738
 5925POPC   GL274822  43.102  13.641   5.883
 5925POPC   C1A74823  42.813  13.360   6.195
 5925POPC   D2A74824  42.880  13.579   6.595
 5925POPC   C3A74825  42.802  13.394   7.017
 5925POPC   C4A74826  42.870  13.673   7.374
 5925POPC   C1B74827  43.320  13.528   6.280
 5925POPC   C2B74828  43.322  13.331   6.710
 5925POPC   C3B74829  43.323  13.440   7.171
 5925POPC   C4B74830  43.287  13.213   7.579
 5926POPC   NC374831  24.830  21.310   5.384
 5926POPC   PO474832  24.340  21.769   5.378
 5926POPC   GL174833  24.534  21.542   5.736
 5926POPC   GL274834  24.543  21.161   5.779
 5926POPC   C1A74835  24.816  21.518   6.091
 5926POPC   D2A74836  24.899  21.382   6.513
 5926POPC   C3A74837  24.672  21.592   6.844
 5926POPC   C4A74838  24.747  21.408   7.215
 5926POPC   C1B74839  24.519  21.097   6.218
 5926POPC   C2B74840  24.339  21.341   6.533
 5926POPC   C3B74841  24.229  21.296   6.952
 5926POPC   C4B74842  24.374  21.096   7.289
 5927POPC   NC374843  36.870  38.055   5.450
 5927POPC   PO474844  36.625  37.334   5.492
 5927POPC   GL174845  36.729  37.666   5.767
 5927POPC   GL274846  37.093  37.764   5.825
 5927POPC   C1A74847  36.741  37.714   6.213
 5927POPC   D2A74848  36.972  37.592   6.542
 5927POPC   C3A74849  36.736  37.638   6.883
 5927POPC   C4A74850  36.548  37.774   7.244
 5927POPC   C1B74851  37.077  38.084   6.185
 5927POPC   C2B74852  36.857  38.103   6.588
 5927POPC   C3B74853  37.069  38.025   6.981
 5927POPC   C4B74854  37.018  38.058   7.422
 5928POPC   NC374855   0.517  30.268   5.308
 5928POPC   PO474856   0.258  30.862   5.398
 5928POPC   GL174857   0.511  30.798   5.771
 5928POPC   GL274858   0.345  30.475   5.799
 5928POPC   C1A74859   0.649  30.639   6.212
 5928POPC   D2A74860   0.500  30.670   6.661
 5928POPC   C3A74861   0.711  30.668   7.072
 5928POPC   C4A74862   0.664  30.776   7.509
 5928POPC   C1B74863   0.179  30.275   6.199
 5928POPC   C2B74864   0.254  30.193   6.651
 5928POPC   C3B74865   0.242  30.425   7.053
 5928POPC   C4B74866   0.178  30.799   7.320
 5929POPC   NC374867   9.865  23.444   5.448
 5929POPC   PO474868   9.761  24.019   5.158
 5929POPC   GL174869   9.771  23.894   5.663
 5929POPC   GL274870   9.487  23.692   5.769
 5929POPC   C1A74871   9.842  23.810   6.146
 5929POPC   D2A74872  10.012  23.787   6.592
 5929POPC   C3A74873   9.921  23.674   7.047
 5929POPC   C4A74874  10.004  23.679   7.523
 5929POPC   C1B74875   9.342  23.750   6.218
 5929POPC   C2B74876   9.526  23.897   6.596
 5929POPC   C3B74877   9.405  23.777   7.009
 5929POPC   C4B74878   9.530  23.634   7.402
 5930POPC   NC374879  23.297   7.155   5.673
 5930POPC   PO474880  22.950   7.708   5.491
 5930POPC   GL174881  22.931   7.453   5.924
 5930POPC   GL274882  23.033   7.114   6.093
 5930POPC   C1A74883  22.772   7.431   6.374
 5930POPC   D2A74884  22.604   7.471   6.771
 5930POPC   C3A74885  22.920   7.472   7.076
 5930POPC   C4A74886  22.791   7.098   7.267
 5930POPC   C1B74887  23.382   7.189   6.380
 5930POPC   C2B74888  23.343   7.360   6.778
 5930POPC   C3B74889  23.297   7.117   7.148
 5930POPC   C4B74890  23.270   7.215   7.580
 5931POPC   NC374891  30.165  43.127   5.516
 5931POPC   PO474892  29.494  43.273   5.521
 5931POPC   GL174893  29.776  43.013   5.819
 5931POPC   GL274894  30.162  42.865   5.938
 5931POPC   C1A74895  29.882  43.176   6.215
 5931POPC   D2A74896  29.757  43.048   6.588
 5931POPC   C3A74897  29.611  43.316   6.876
 5931POPC   C4A74898  29.640  43.251   7.320
 5931POPC   C1B74899  30.308  42.898   6.332
 5931POPC   C2B74900  30.247  43.045   6.711
 5931POPC   C3B74901  30.000  42.961   7.092
 5931POPC   C4B74902  30.173  42.896   7.527
 5932POPC   NC374903  16.360  20.022   5.494
 5932POPC   PO474904  17.000  19.821   5.488
 5932POPC   GL174905  16.704  19.805   5.844
 5932POPC   GL274906  16.508  19.490   5.827
 5932POPC   C1A74907  16.537  19.975   6.263
 5932POPC   D2A74908  16.362  20.171   6.667
 5932POPC   C3A74909  16.653  20.084   7.030
 5932POPC   C4A74910  16.836  19.690   7.185
 5932POPC   C1B74911  16.251  19.492   6.182
 5932POPC   C2B74912  16.220  19.681   6.558
 5932POPC   C3B74913  16.379  19.629   6.955
 5932POPC   C4B74914  16.441  19.365   7.314
 5933POPC   NC374915  17.400  40.336   5.321
 5933POPC   PO474916  18.006  40.270   5.610
 5933POPC   GL174917  17.790  39.959   5.867
 5933POPC   GL274918  17.463  40.133   5.806
 5933POPC   C1A74919  17.693  39.895   6.326
 5933POPC   D2A74920  17.631  39.761   6.775
 5933POPC   C3A74921  17.755  40.079   7.087
 5933POPC   C4A74922  17.669  40.101   7.534
 5933POPC   C1B74923  17.143  40.389   6.009
 5933POPC   C2B74924  17.051  40.413   6.466
 5933POPC   C3B74925  17.230  40.253   6.858
 5933POPC   C4B74926  17.318  40.386   7.272
 5934POPC   NC374927   7.931  24.435   5.175
 5934POPC   PO474928   8.418  24.637   5.596
 5934POPC   GL174929   8.331  24.371   5.911
 5934POPC   GL274930   8.568  24.139   5.906
 5934POPC   C1A74931   8.023  24.375   6.281
 5934POPC   D2A74932   8.082  24.250   6.683
 5934POPC   C3A74933   8.187  24.588   6.928
 5934POPC   C4A74934   8.016  24.469   7.291
 5934POPC   C1B74935   8.521  24.291   6.356
 5934POPC   C2B74936   8.560  24.096   6.714
 5934POPC   C3B74937   8.458  24.175   7.108
 5934POPC   C4B74938   8.539  24.537   7.298
 5935POPC   NC374939   5.656  28.119   5.550
 5935POPC   PO474940   6.137  28.599   5.446
 5935POPC   GL174941   5.962  28.512   5.863
 5935POPC   GL274942   5.885  28.157   5.982
 5935POPC   C1A74943   5.857  28.559   6.300
 5935POPC   D2A74944   5.971  28.309   6.686
 5935POPC   C3A74945   5.928  28.313   7.134
 5935POPC   C4A74946   6.052  28.362   7.572
 5935POPC   C1B74947   5.525  28.150   6.249
 5935POPC   C2B74948   5.580  27.986   6.647
 5935POPC   C3B74949   5.467  28.118   7.017
 5935POPC   C4B74950   5.581  28.018   7.399
 5936POPC   NC374951  31.506  28.662   5.616
 5936POPC   PO474952  31.459  28.029   5.525
 5936POPC   GL174953  31.504  28.193   5.930
 5936POPC   GL274954  31.453  28.555   6.096
 5936POPC   C1A74955  31.597  28.166   6.367
 5936POPC   D2A74956  31.441  28.468   6.626
 5936POPC   C3A74957  31.329  28.196   6.928
 5936POPC   C4A74958  31.618  28.162   7.228
 5936POPC   C1B74959  31.803  28.781   6.302
 5936POPC   C2B74960  32.039  28.835   6.695
 5936POPC   C3B74961  31.826  28.787   7.080
 5936POPC   C4B74962  31.432  28.644   7.149
 5937POPC   NC374963  26.752  19.999   5.427
 5937POPC   PO474964  26.396  19.498   5.367
 5937POPC   GL174965  26.588  19.645   5.798
 5937POPC   GL274966  26.766  19.992   5.925
 5937POPC   C1A74967  26.456  19.772   6.230
 5937POPC   D2A74968  26.564  20.044   6.547
 5937POPC   C3A74969  26.607  19.785   6.884
 5937POPC   C4A74970  26.544  19.960   7.248
 5937POPC   C1B74971  27.035  19.921   6.283
 5937POPC   C2B74972  27.082  19.911   6.706
 5937POPC   C3B74973  27.061  19.884   7.150
 5937POPC   C4B74974  26.899  19.900   7.605
 5938POPC   NC374975  22.348  23.580   5.327
 5938POPC   PO474976  22.185  24.127   5.492
 5938POPC   GL174977  22.235  23.834   5.815
 5938POPC   GL274978  21.881  23.775   5.920
 5938POPC   C1A74979  22.321  23.489   6.116
 5938POPC   D2A74980  22.422  23.520   6.542
 5938POPC   C3A74981  22.134  23.623   6.854
 5938POPC   C4A74982  22.176  23.476   7.249
 5938POPC   C1B74983  21.960  23.787   6.362
 5938POPC   C2B74984  21.833  24.015   6.706
 5938POPC   C3B74985  21.947  24.100   7.137
 5938POPC   C4B74986  22.062  23.883   7.500
 5939POPC   NC374987  13.749  20.691   5.289
 5939POPC   PO474988  13.150  20.513   5.502
 5939POPC   GL174989  13.475  20.673   5.791
 5939POPC   GL274990  13.682  20.968   5.950
 5939POPC   C1A74991  13.410  20.602   6.219
 5939POPC   D2A74992  13.454  20.721   6.611
 5939POPC   C3A74993  13.565  20.580   6.979
 5939POPC   C4A74994  13.436  20.765   7.342
 5939POPC   C1B74995  13.908  20.724   6.296
 5939POPC   C2B74996  13.991  20.789   6.705
 5939POPC   C3B74997  14.046  20.690   7.089
 5939POPC   C4B74998  13.912  20.733   7.483
 5940POPC   NC374999  37.957  34.982   5.379
 5940POPC   PO475000  38.397  34.466   5.410
 5940POPC   GL175001  38.366  34.550   5.833
 5940POPC   GL275002  38.078  34.739   5.836
 5940POPC   C1A75003  38.197  34.290   6.154
 5940POPC   D2A75004  38.283  34.081   6.547
 5940POPC   C3A75005  38.434  34.370   6.848
 5940POPC   C4A75006  38.458  34.428   7.278
 5940POPC   C1B75007  38.246  34.813   6.272
 5940POPC   C2B75008  38.271  34.843   6.731
 5940POPC   C3B75009  38.509  34.935   7.091
 5940POPC   C4B75010  38.443  34.855   7.537
 5941POPC   NC375011  36.991  31.103   5.427
 5941POPC   PO475012  36.594  31.628   5.310
 5941POPC   GL175013  36.717  31.445   5.705
 5941POPC   GL275014  37.025  31.513   5.805
 5941POPC   C1A75015  36.674  31.409   6.188
 5941POPC   D2A75016  36.810  31.587   6.616
 5941POPC   C3A75017  36.944  31.355   6.994
 5941POPC   C4A75018  36.767  31.446   7.420
 5941POPC   C1B75019  37.174  31.477   6.238
 5941POPC   C2B75020  37.327  31.764   6.470
 5941POPC   C3B75021  37.273  31.743   6.880
 5941POPC   C4B75022  37.049  31.821   7.213
 5942POPC   NC375023   5.794  10.856   5.417
 5942POPC   PO475024   5.948  10.265   5.256
 5942POPC   GL175025   6.036  10.440   5.668
 5942POPC   GL275026   5.721  10.420   5.839
 5942POPC   C1A75027   6.147  10.443   6.133
 5942POPC   D2A75028   5.930  10.301   6.541
 5942POPC   C3A75029   6.035  10.622   6.865
 5942POPC   C4A75030   5.964  10.591   7.297
 5942POPC   C1B75031   5.702  10.676   6.235
 5942POPC   C2B75032   5.530  10.602   6.651
 5942POPC   C3B75033   5.633  10.319   6.991
 5942POPC   C4B75034   5.456  10.585   7.284
 5943POPC   NC375035   8.378  20.438   5.524
 5943POPC   PO475036   7.857  20.762   5.460
 5943POPC   GL175037   8.132  20.906   5.822
 5943POPC   GL275038   8.484  20.836   5.822
 5943POPC   C1A75039   8.097  20.885   6.290
 5943POPC   D2A75040   7.949  20.739   6.699
 5943POPC   C3A75041   8.123  20.767   7.101
 5943POPC   C4A75042   8.085  20.419   7.368
 5943POPC   C1B75043   8.454  20.531   6.183
 5943POPC   C2B75044   8.591  20.585   6.623
 5943POPC   C3B75045   8.482  20.412   7.003
 5943POPC   C4B75046   8.573  20.553   7.392
 5944POPC   NC375047   3.830  41.695   5.214
 5944POPC   PO475048   3.479  41.382   5.673
 5944POPC   GL175049   3.271  41.659   5.910
 5944POPC   GL275050   3.243  41.388   6.112
 5944POPC   C1A75051   3.414  41.869   6.287
 5944POPC   D2A75052   3.572  42.054   6.664
 5944POPC   C3A75053   3.589  41.768   7.011
 5944POPC   C4A75054   3.687  41.503   7.358
 5944POPC   C1B75055   3.341  41.363   6.502
 5944POPC   C2B75056   3.393  41.198   6.888
 5944POPC   C3B75057   3.221  41.056   7.249
 5944POPC   C4B75058   3.251  41.285   7.603
 5945POPC   NC375059   5.321  18.875   5.402
 5945POPC   PO475060   4.658  19.224   5.323
 5945POPC   GL175061   4.869  19.137   5.744
 5945POPC   GL275062   5.242  19.194   5.792
 5945POPC   C1A75063   4.842  19.011   6.213
 5945POPC   D2A75064   4.984  19.221   6.625
 5945POPC   C3A75065   4.787  19.086   7.018
 5945POPC   C4A75066   4.914  19.270   7.428
 5945POPC   C1B75067   5.347  19.187   6.235
 5945POPC   C2B75068   5.403  18.937   6.608
 5945POPC   C3B75069   5.308  19.054   7.031
 5945POPC   C4B75070   5.537  18.851   7.351
 5946POPC   NC375071  21.743  36.415   5.596
 5946POPC   PO475072  21.244  36.014   5.384
 5946POPC   GL175073  21.424  35.974   5.780
 5946POPC   GL275074  21.444  36.273   5.968
 5946POPC   C1A75075  21.354  35.836   6.194
 5946POPC   D2A75076  21.510  35.711   6.565
 5946POPC   C3A75077  21.307  35.841   6.918
 5946POPC   C4A75078  21.439  36.075   7.265
 5946POPC   C1B75079  21.740  36.151   6.318
 5946POPC   C2B75080  21.673  36.175   6.783
 5946POPC   C3B75081  21.541  36.514   7.050
 5946POPC   C4B75082  21.682  36.565   7.472
 5947POPC   NC375083  24.982  43.021   5.330
 5947POPC   PO475084  25.025  43.511   5.741
 5947POPC   GL175085  25.201  43.110   5.805
 5947POPC   GL275086  24.878  42.937   5.845
 5947POPC   C1A75087  25.477  43.015   6.147
 5947POPC   D2A75088  25.509  42.830   6.560
 5947POPC   C3A75089  25.272  43.031   6.835
 5947POPC   C4A75090  25.391  42.991   7.227
 5947POPC   C1B75091  24.988  42.820   6.292
 5947POPC   C2B75092  24.861  42.703   6.729
 5947POPC   C3B75093  24.898  42.839   7.188
 5947POPC   C4B75094  24.928  42.689   7.633
 5948POPC   NC375095  29.435   9.025   5.518
 5948POPC   PO475096  28.747   8.921   5.400
 5948POPC   GL175097  29.013   8.974   5.795
 5948POPC   GL275098  29.166   8.635   5.794
 5948POPC   C1A75099  29.233   9.078   6.214
 5948POPC   D2A75100  29.065   9.221   6.654
 5948POPC   C3A75101  29.209   8.980   7.019
 5948POPC   C4A75102  29.152   9.002   7.490
 5948POPC   C1B75103  28.885   8.591   6.143
 5948POPC   C2B75104  28.966   8.711   6.589
 5948POPC   C3B75105  28.930   8.523   7.003
 5948POPC   C4B75106  29.184   8.510   7.372
 5949POPC   NC375107  27.708  13.842   5.251
 5949POPC   PO475108  27.475  13.255   5.437
 5949POPC   GL175109  27.628  13.597   5.726
 5949POPC   GL275110  27.313  13.717   5.837
 5949POPC   C1A75111  27.711  13.794   6.164
 5949POPC   D2A75112  27.959  13.889   6.558
 5949POPC   C3A75113  27.839  13.635   6.932
 5949POPC   C4A75114  27.547  13.743   7.246
 5949POPC   C1B75115  27.356  13.396   6.137
 5949POPC   C2B75116  27.565  13.398   6.540
 5949POPC   C3B75117  27.298  13.482   6.904
 5949POPC   C4B75118  27.026  13.751   7.174
 5950POPC   NC375119  44.977  21.718   5.117
 5950POPC   PO475120   0.510  21.458   5.431
 5950POPC   GL175121   0.509  21.241   5.852
 5950POPC   GL275122   0.219  21.430   5.994
 5950POPC   C1A75123   0.572  21.151   6.310
 5950POPC   D2A75124   0.558  21.418   6.667
 5950POPC   C3A75125   0.708  21.221   7.041
 5950POPC   C4A75126   0.893  21.450   7.396
 5950POPC   C1B75127   0.072  21.151   6.262
 5950POPC   C2B75128   0.069  21.275   6.708
 5950POPC   C3B75129   0.243  21.407   7.112
 5950POPC   C4B75130   0.281  21.168   7.497
 5951POPC   NC375131  19.462  41.253   5.422
 5951POPC   PO475132  20.142  41.396   5.489
 5951POPC   GL175133  19.839  41.469   5.777
 5951POPC   GL275134  19.775  41.796   5.936
 5951POPC   C1A75135  19.723  41.315   6.164
 5951POPC   D2A75136  19.717  41.514   6.523
 5951POPC   C3A75137  19.706  41.356   6.901
 5951POPC   C4A75138  19.945  41.561   7.201
 5951POPC   C1B75139  19.735  42.002   6.356
 5951POPC   C2B75140  19.687  41.930   6.823
 5951POPC   C3B75141  19.472  42.031   7.214
 5951POPC   C4B75142  19.642  41.830   7.622
 5952POPC   NC375143  16.687  33.280   5.296
 5952POPC   PO475144  16.711  32.603   5.435
 5952POPC   GL175145  16.698  32.965   5.754
 5952POPC   GL275146  17.002  33.154   5.828
 5952POPC   C1A75147  16.608  33.166   6.175
 5952POPC   D2A75148  16.548  33.021   6.594
 5952POPC   C3A75149  16.677  33.160   7.024
 5952POPC   C4A75150  16.502  33.153   7.476
 5952POPC   C1B75151  17.060  32.925   6.232
 5952POPC   C2B75152  17.040  32.943   6.687
 5952POPC   C3B75153  17.060  32.850   7.126
 5952POPC   C4B75154  17.018  33.187   7.451
 5953POPC   NC375155  38.554   0.697   5.374
 5953POPC   PO475156  38.580   1.396   5.607
 5953POPC   GL175157  38.342   1.068   5.798
 5953POPC   GL275158  38.659   0.893   5.840
 5953POPC   C1A75159  38.198   1.090   6.227
 5953POPC   D2A75160  38.388   1.348   6.571
 5953POPC   C3A75161  38.287   1.174   6.969
 5953POPC   C4A75162  38.375   1.292   7.390
 5953POPC   C1B75163  38.731   1.143   6.222
 5953POPC   C2B75164  38.925   1.408   6.568
 5953POPC   C3B75165  38.754   1.428   7.004
 5953POPC   C4B75166  38.762   1.020   7.210
 5954POPC   NC375167   1.714  16.086   5.466
 5954POPC   PO475168   2.299  15.726   5.235
 5954POPC   GL175169   2.201  16.049   5.691
 5954POPC   GL275170   1.921  16.015   5.916
 5954POPC   C1A75171   2.285  16.212   6.178
 5954POPC   D2A75172   1.974  16.226   6.520
 5954POPC   C3A75173   2.030  16.122   6.947
 5954POPC   C4A75174   2.171  16.211   7.370
 5954POPC   C1B75175   1.850  15.800   6.270
 5954POPC   C2B75176   1.989  15.691   6.646
 5954POPC   C3B75177   1.828  15.661   7.013
 5954POPC   C4B75178   2.078  15.692   7.340
 5955POPC   NC375179  24.207  19.809   5.575
 5955POPC   PO475180  24.822  20.210   5.542
 5955POPC   GL175181  24.718  19.905   5.879
 5955POPC   GL275182  24.372  19.677   6.038
 5955POPC   C1A75183  24.792  19.734   6.258
 5955POPC   D2A75184  24.470  19.891   6.518
 5955POPC   C3A75185  24.521  19.883   6.949
 5955POPC   C4A75186  24.674  19.856   7.351
 5955POPC   C1B75187  24.081  19.591   6.359
 5955POPC   C2B75188  24.235  19.471   6.736
 5955POPC   C3B75189  24.102  19.565   7.100
 5955POPC   C4B75190  24.244  19.621   7.480
 5956POPC   NC375191   8.961  37.066   5.232
 5956POPC   PO475192   9.275  36.659   5.712
 5956POPC   GL175193   8.872  36.739   5.888
 5956POPC   GL275194   8.871  37.084   5.822
 5956POPC   C1A75195   8.753  36.885   6.323
 5956POPC   D2A75196   8.596  37.094   6.716
 5956POPC   C3A75197   8.731  36.822   7.075
 5956POPC   C4A75198   9.028  36.467   7.094
 5956POPC   C1B75199   9.116  37.244   6.223
 5956POPC   C2B75200   9.116  37.295   6.701
 5956POPC   C3B75201   9.085  37.171   7.163
 5956POPC   C4B75202   9.052  37.276   7.635
 5957POPC   NC375203  26.296  23.405   5.299
 5957POPC   PO475204  27.044  23.542   5.456
 5957POPC   GL175205  26.890  23.484   5.849
 5957POPC   GL275206  26.969  23.831   5.986
 5957POPC   C1A75207  26.553  23.561   6.136
 5957POPC   D2A75208  26.609  23.805   6.513
 5957POPC   C3A75209  26.510  23.743   6.948
 5957POPC   C4A75210  26.486  23.457   7.280
 5957POPC   C1B75211  27.077  23.551   6.322
 5957POPC   C2B75212  27.039  23.588   6.741
 5957POPC   C3B75213  26.965  23.609   7.183
 5957POPC   C4B75214  27.175  23.693   7.576
 5958POPC   NC375215  22.233  20.299   5.600
 5958POPC   PO475216  22.521  20.895   5.482
 5958POPC   GL175217  22.311  20.823   5.843
 5958POPC   GL275218  21.965  20.735   5.788
 5958POPC   C1A75219  22.192  20.708   6.242
 5958POPC   D2A75220  22.051  20.482   6.580
 5958POPC   C3A75221  22.119  20.616   6.960
 5958POPC   C4A75222  22.007  20.811   7.330
 5958POPC   C1B75223  21.819  20.392   6.113
 5958POPC   C2B75224  21.583  20.378   6.481
 5958POPC   C3B75225  21.712  20.222   6.885
 5958POPC   C4B75226  21.725  20.389   7.285
 5959POPC   NC375227  25.496   0.392   5.126
 5959POPC   PO475228  25.398   0.876   5.520
 5959POPC   GL175229  25.343   0.523   5.793
 5959POPC   GL275230  24.972   0.483   5.871
 5959POPC   C1A75231  25.531   0.355   6.178
 5959POPC   D2A75232  25.363   0.308   6.589
 5959POPC   C3A75233  25.550   0.093   6.936
 5959POPC   C4A75234  25.456   0.327   7.347
 5959POPC   C1B75235  25.159   0.703   6.249
 5959POPC   C2B75236  25.180   0.870   6.666
 5959POPC   C3B75237  25.061   0.812   7.082
 5959POPC   C4B75238  24.991   0.517   7.439
 5960POPC   NC375239  26.829  17.603   5.362
 5960POPC   PO475240  26.748  17.020   5.699
 5960POPC   GL175241  26.705  17.470   5.885
 5960POPC   GL275242  27.043  17.617   6.027
 5960POPC   C1A75243  26.619  17.693   6.278
 5960POPC   D2A75244  26.868  17.709   6.642
 5960POPC   C3A75245  26.651  17.612   7.031
 5960POPC   C4A75246  26.856  17.698   7.414
 5960POPC   C1B75247  27.037  17.265   6.350
 5960POPC   C2B75248  27.102  17.044   6.773
 5960POPC   C3B75249  26.987  17.253   7.165
 5960POPC   C4B75250  27.186  17.338   7.561
 5961POPC   NC375251  34.012   3.848   5.396
 5961POPC   PO475252  33.870   4.526   5.249
 5961POPC   GL175253  33.734   4.302   5.650
 5961POPC   GL275254  34.065   4.395   5.804
 5961POPC   C1A75255  33.684   4.356   6.144
 5961POPC   D2A75256  33.856   4.395   6.593
 5961POPC   C3A75257  33.612   4.310   7.001
 5961POPC   C4A75258  33.636   4.212   7.513
 5961POPC   C1B75259  34.084   4.702   6.156
 5961POPC   C2B75260  34.096   4.860   6.575
 5961POPC   C3B75261  33.925   4.798   6.992
 5961POPC   C4B75262  33.979   4.500   7.293
 5962POPC   NC375263  30.734  20.384   5.193
 5962POPC   PO475264  30.315  20.877   5.147
 5962POPC   GL175265  30.430  20.755   5.640
 5962POPC   GL275266  30.732  20.592   5.816
 5962POPC   C1A75267  30.324  20.562   6.111
 5962POPC   D2A75268  30.485  20.385   6.522
 5962POPC   C3A75269  30.300  20.418   6.956
 5962POPC   C4A75270  30.565  20.436   7.299
 5962POPC   C1B75271  30.872  20.861   6.188
 5962POPC   C2B75272  30.788  21.008   6.620
 5962POPC   C3B75273  30.844  20.786   7.021
 5962POPC   C4B75274  31.115  20.517   7.267
 5963POPC   NC375275  31.873  43.764   5.540
 5963POPC   PO475276  32.461  44.116   5.451
 5963POPC   GL175277  32.177  44.137   5.812
 5963POPC   GL275278  32.173  43.798   5.939
 5963POPC   C1A75279  32.059  44.126   6.287
 5963POPC   D2A75280  32.193  43.779   6.576
 5963POPC   C3A75281  32.280  43.926   6.996
 5963POPC   C4A75282  32.021  44.045   7.319
 5963POPC   C1B75283  32.538  43.704   6.138
 5963POPC   C2B75284  32.678  43.508   6.488
 5963POPC   C3B75285  32.705  43.654   6.870
 5963POPC   C4B75286  32.567  43.575   7.267
 5964POPC   NC375287  36.862  30.475   5.664
 5964POPC   PO475288  37.229  31.032   5.802
 5964POPC   GL175289  37.023  30.828   5.998
 5964POPC   GL275290  36.710  30.971   5.888
 5964POPC   C1A75291  37.113  30.596   6.353
 5964POPC   D2A75292  36.962  30.429   6.778
 5964POPC   C3A75293  37.182  30.536   7.162
 5964POPC   C4A75294  37.120  30.585   7.626
 5964POPC   C1B75295  36.643  30.846   6.305
 5964POPC   C2B75296  36.905  30.959   6.651
 5964POPC   C3B75297  36.696  30.892   7.022
 5964POPC   C4B75298  36.695  30.814   7.428
 5965POPC   NC375299   3.745  18.302   5.539
 5965POPC   PO475300   3.240  17.936   5.255
 5965POPC   GL175301   3.382  17.975   5.715
 5965POPC   GL275302   3.269  18.270   5.838
 5965POPC   C1A75303   3.530  17.995   6.187
 5965POPC   D2A75304   3.770  18.113   6.601
 5965POPC   C3A75305   3.573  18.067   7.033
 5965POPC   C4A75306   3.639  18.055   7.495
 5965POPC   C1B75307   3.459  18.549   6.163
 5965POPC   C2B75308   3.364  18.752   6.548
 5965POPC   C3B75309   3.415  18.555   6.941
 5965POPC   C4B75310   3.711  18.512   7.265
 5966POPC   NC375311  20.444  10.560   5.436
 5966POPC   PO475312  21.064  10.478   5.644
 5966POPC   GL175313  20.702  10.355   5.893
 5966POPC   GL275314  20.386  10.150   5.773
 5966POPC   C1A75315  20.744  10.373   6.355
 5966POPC   D2A75316  20.673  10.323   6.792
 5966POPC   C3A75317  20.804  10.725   6.938
 5966POPC   C4A75318  20.988  10.800   7.315
 5966POPC   C1B75319  20.270  10.280   6.198
 5966POPC   C2B75320  20.250  10.544   6.600
 5966POPC   C3B75321  20.196  10.406   7.034
 5966POPC   C4B75322  20.544  10.481   7.291
 5967POPC   NC375323  27.001  35.705   5.286
 5967POPC   PO475324  26.595  35.183   5.194
 5967POPC   GL175325  26.657  35.255   5.682
 5967POPC   GL275326  26.984  35.375   5.746
 5967POPC   C1A75327  26.522  35.463   6.122
 5967POPC   D2A75328  26.444  35.662   6.572
 5967POPC   C3A75329  26.590  35.474   6.996
 5967POPC   C4A75330  26.759  35.231   7.391
 5967POPC   C1B75331  27.056  35.492   6.190
 5967POPC   C2B75332  27.017  35.530   6.656
 5967POPC   C3B75333  27.084  35.518   7.131
 5967POPC   C4B75334  27.088  35.584   7.598
 5968POPC   NC375335  24.482   9.237   5.404
 5968POPC   PO475336  24.381   8.666   5.180
 5968POPC   GL175337  24.324   8.761   5.650
 5968POPC   GL275338  24.644   8.908   5.778
 5968POPC   C1A75339  24.270   8.748   6.129
 5968POPC   D2A75340  24.495   8.791   6.553
 5968POPC   C3A75341  24.250   8.747   6.929
 5968POPC   C4A75342  24.354   8.988   7.282
 5968POPC   C1B75343  24.903   9.051   6.122
 5968POPC   C2B75344  24.902   9.150   6.523
 5968POPC   C3B75345  24.956   9.324   6.903
 5968POPC   C4B75346  24.889   9.164   7.306
 5969POPC   NC375347   1.462   6.118   5.379
 5969POPC   PO475348   0.953   5.723   5.286
 5969POPC   GL175349   1.102   5.913   5.719
 5969POPC   GL275350   0.962   5.665   5.915
 5969POPC   C1A75351   1.276   5.942   6.190
 5969POPC   D2A75352   1.528   5.770   6.548
 5969POPC   C3A75353   1.407   5.839   6.978
 5969POPC   C4A75354   1.362   5.953   7.420
 5969POPC   C1B75355   0.769   5.825   6.288
 5969POPC   C2B75356   0.912   6.001   6.664
 5969POPC   C3B75357   0.910   5.819   7.084
 5969POPC   C4B75358   0.991   5.624   7.476
 5970POPC   NC375359  14.635  42.728   5.374
 5970POPC   PO475360  14.138  43.161   5.587
 5970POPC   GL175361  14.325  42.997   5.925
 5970POPC   GL275362  14.670  42.990   5.839
 5970POPC   C1A75363  14.230  43.039   6.348
 5970POPC   D2A75364  14.152  43.303   6.665
 5970POPC   C3A75365  14.239  43.243   7.078
 5970POPC   C4A75366  14.001  43.061   7.385
 5970POPC   C1B75367  14.699  43.185   6.263
 5970POPC   C2B75368  14.606  43.016   6.694
 5970POPC   C3B75369  14.694  42.926   7.156
 5970POPC   C4B75370  14.708  43.243   7.451
 5971POPC   NC375371  34.248   2.881   5.304
 5971POPC   PO475372  34.731   2.502   5.446
 5971POPC   GL175373  34.649   2.811   5.748
 5971POPC   GL275374  34.298   2.801   5.833
 5971POPC   C1A75375  34.666   2.945   6.181
 5971POPC   D2A75376  34.570   2.820   6.594
 5971POPC   C3A75377  34.820   2.842   6.947
 5971POPC   C4A75378  34.676   2.679   7.296
 5971POPC   C1B75379  34.174   2.715   6.263
 5971POPC   C2B75380  34.071   2.863   6.697
 5971POPC   C3B75381  34.234   2.722   7.064
 5971POPC   C4B75382  34.291   2.964   7.472
 5972POPC   NC375383  28.964  24.791   5.353
 5972POPC   PO475384  29.196  25.368   5.495
 5972POPC   GL175385  29.211  24.997   5.779
 5972POPC   GL275386  28.872  24.966   5.886
 5972POPC   C1A75387  29.261  24.834   6.215
 5972POPC   D2A75388  29.345  24.838   6.683
 5972POPC   C3A75389  29.227  25.114   7.049
 5972POPC   C4A75390  28.907  25.137   7.394
 5972POPC   C1B75391  28.949  25.237   6.274
 5972POPC   C2B75392  28.977  25.410   6.716
 5972POPC   C3B75393  29.047  25.590   7.151
 5972POPC   C4B75394  29.051  25.606   7.610
 5973POPC   NC375395   4.115  15.628   5.511
 5973POPC   PO475396   4.250  14.984   5.586
 5973POPC   GL175397   4.234  15.209   5.948
 5973POPC   GL275398   4.474  15.451   5.832
 5973POPC   C1A75399   4.330  14.981   6.328
 5973POPC   D2A75400   4.469  14.978   6.765
 5973POPC   C3A75401   4.169  15.055   7.128
 5973POPC   C4A75402   4.151  15.379   7.464
 5973POPC   C1B75403   4.698  15.378   6.198
 5973POPC   C2B75404   4.642  15.457   6.613
 5973POPC   C3B75405   4.730  15.413   7.035
 5973POPC   C4B75406   4.647  15.450   7.480
 5974POPC   NC375407  43.858   2.259   5.499
 5974POPC   PO475408  44.236   1.769   5.343
 5974POPC   GL175409  43.961   1.799   5.732
 5974POPC   GL275410  43.902   2.095   5.970
 5974POPC   C1A75411  43.817   1.621   6.131
 5974POPC   D2A75412  43.950   1.881   6.457
 5974POPC   C3A75413  43.957   1.782   6.914
 5974POPC   C4A75414  43.603   1.853   7.206
 5974POPC   C1B75415  43.834   2.400   6.310
 5974POPC   C2B75416  43.805   2.508   6.721
 5974POPC   C3B75417  43.851   2.304   7.090
 5974POPC   C4B75418  43.621   2.335   7.445
 5975POPC   NC375419  21.968  13.066   5.444
 5975POPC   PO475420  22.507  12.530   5.371
 5975POPC   GL175421  22.337  12.811   5.743
 5975POPC   GL275422  21.950  12.777   5.856
 5975POPC   C1A75423  22.287  12.911   6.211
 5975POPC   D2A75424  22.363  13.135   6.595
 5975POPC   C3A75425  22.255  12.914   6.972
 5975POPC   C4A75426  22.139  13.260   7.213
 5975POPC   C1B75427  21.737  12.885   6.240
 5975POPC   C2B75428  21.855  13.069   6.648
 5975POPC   C3B75429  21.725  12.971   7.070
 5975POPC   C4B75430  21.855  12.600   7.225
 5976POPC   NC375431   7.371  41.240   5.481
 5976POPC   PO475432   7.150  41.904   5.560
 5976POPC   GL175433   7.369  41.604   5.836
 5976POPC   GL275434   7.170  41.304   5.942
 5976POPC   C1A75435   7.531  41.513   6.246
 5976POPC   D2A75436   7.297  41.592   6.634
 5976POPC   C3A75437   7.465  41.607   7.050
 5976POPC   C4A75438   7.390  41.921   7.395
 5976POPC   C1B75439   7.121  41.171   6.358
 5976POPC   C2B75440   7.174  41.122   6.810
 5976POPC   C3B75441   7.056  41.262   7.221
 5976POPC   C4B75442   7.019  41.234   7.706
 5977POPC   NC375443   9.080  25.660   5.395
 5977POPC   PO475444   8.782  26.189   5.217
 5977POPC   GL175445   8.953  26.112   5.661
 5977POPC   GL275446   8.845  25.791   5.818
 5977POPC   C1A75447   9.045  26.164   6.129
 5977POPC   D2A75448   8.852  26.122   6.553
 5977POPC   C3A75449   9.144  26.277   6.852
 5977POPC   C4A75450   9.242  26.372   7.264
 5977POPC   C1B75451   8.777  25.700   6.246
 5977POPC   C2B75452   8.797  25.564   6.666
 5977POPC   C3B75453   8.650  25.613   7.084
 5977POPC   C4B75454   8.853  25.969   7.216
 5978POPC   NC375455  43.922  35.823   5.368
 5978POPC   PO475456  43.913  35.198   5.488
 5978POPC   GL175457  44.013  35.320   5.906
 5978POPC   GL275458  44.288  35.571   5.834
 5978POPC   C1A75459  43.873  35.258   6.357
 5978POPC   D2A75460  44.028  35.061   6.743
 5978POPC   C3A75461  43.879  35.231   7.160
 5978POPC   C4A75462  43.599  35.204   7.553
 5978POPC   C1B75463  44.176  35.655   6.266
 5978POPC   C2B75464  44.140  35.567   6.705
 5978POPC   C3B75465  44.269  35.650   7.101
 5978POPC   C4B75466  43.964  35.657   7.444
 5979POPC   NC375467  44.808   2.850   5.374
 5979POPC   PO475468  44.227   2.510   5.347
 5979POPC   GL175469  44.493   2.656   5.715
 5979POPC   GL275470  44.564   2.971   5.917
 5979POPC   C1A75471  44.693   2.499   6.088
 5979POPC   D2A75472  44.668   2.445   6.547
 5979POPC   C3A75473  44.683   2.799   6.864
 5979POPC   C4A75474  44.647   2.634   7.268
 5979POPC   C1B75475  44.814   3.229   6.217
 5979POPC   C2B75476  44.966   3.308   6.660
 5979POPC   C3B75477   0.004   3.280   7.107
 5979POPC   C4B75478  44.909   3.066   7.460
 5980POPC   NC375479  18.626  16.378   5.310
 5980POPC   PO475480  18.019  16.721   5.437
 5980POPC   GL175481  17.963  16.679   5.884
 5980POPC   GL275482  18.213  16.466   5.939
 5980POPC   C1A75483  17.895  16.782   6.333
 5980POPC   D2A75484  18.117  16.585   6.638
 5980POPC   C3A75485  18.161  16.712   7.074
 5980POPC   C4A75486  18.512  16.511   7.268
 5980POPC   C1B75487  18.382  16.800   6.231
 5980POPC   C2B75488  18.593  16.846   6.595
 5980POPC   C3B75489  18.618  16.976   6.991
 5980POPC   C4B75490  18.749  16.932   7.393
 5981POPC   NC375491   3.576   4.800   5.475
 5981POPC   PO475492   3.307   5.347   5.508
 5981POPC   GL175493   3.654   5.243   5.742
 5981POPC   GL275494   3.746   5.560   5.760
 5981POPC   C1A75495   3.800   5.185   6.158
 5981POPC   D2A75496   3.531   5.230   6.515
 5981POPC   C3A75497   3.459   4.959   6.906
 5981POPC   C4A75498   3.064   4.751   7.044
 5981POPC   C1B75499   3.557   5.634   6.163
 5981POPC   C2B75500   3.537   5.761   6.585
 5981POPC   C3B75501   3.560   5.481   6.942
 5981POPC   C4B75502   3.702   5.215   7.281
 5982POPC   NC375503  31.415   6.406   5.539
 5982POPC   PO475504  31.745   7.055   5.582
 5982POPC   GL175505  31.518   6.790   5.864
 5982POPC   GL275506  31.147   6.855   5.857
 5982POPC   C1A75507  31.591   6.502   6.203
 5982POPC   D2A75508  31.516   6.661   6.599
 5982POPC   C3A75509  31.596   6.432   6.940
 5982POPC   C4A75510  31.686   6.457   7.332
 5982POPC   C1B75511  31.099   6.647   6.244
 5982POPC   C2B75512  30.928   6.361   6.477
 5982POPC   C3B75513  31.071   6.440   6.860
 5982POPC   C4B75514  31.152   6.421   7.279
 5983POPC   NC375515   0.411  38.945   5.473
 5983POPC   PO475516   0.604  39.618   5.400
 5983POPC   GL175517   0.545  39.522   5.861
 5983POPC   GL275518   0.494  39.138   5.939
 5983POPC   C1A75519   0.568  39.430   6.341
 5983POPC   D2A75520   0.507  39.024   6.605
 5983POPC   C3A75521   0.495  39.130   7.057
 5983POPC   C4A75522   0.601  39.548   7.197
 5983POPC   C1B75523   0.141  38.947   6.226
 5983POPC   C2B75524  44.890  38.820   6.621
 5983POPC   C3B75525  44.987  38.607   7.013
 5983POPC   C4B75526   0.212  38.724   7.392
 5984POPC   NC375527  38.376   0.101   5.506
 5984POPC   PO475528  38.037   0.635   5.252
 5984POPC   GL175529  38.264   0.545   5.747
 5984POPC   GL275530  38.222   0.231   5.965
 5984POPC   C1A75531  38.377   0.626   6.210
 5984POPC   D2A75532  38.222   0.718   6.612
 5984POPC   C3A75533  38.531   0.697   6.891
 5984POPC   C4A75534  38.581   0.537   7.285
 5984POPC   C1B75535  38.516   0.108   6.257
 5984POPC   C2B75536  38.473   0.247   6.626
 5984POPC   C3B75537  38.678   0.164   6.966
 5984POPC   C4B75538  38.484   0.037   7.314
 5985POPC   NC375539  28.303   2.429   5.576
 5985POPC   PO475540  28.417   3.130   5.488
 5985POPC   GL175541  28.419   2.881   5.872
 5985POPC   GL275542  28.568   2.563   5.994
 5985POPC   C1A75543  28.488   2.974   6.302
 5985POPC   D2A75544  28.354   2.814   6.675
 5985POPC   C3A75545  28.430   2.983   7.046
 5985POPC   C4A75546  28.338   3.161   7.424
 5985POPC   C1B75547  28.156   2.561   6.245
 5985POPC   C2B75548  27.995   2.465   6.675
 5985POPC   C3B75549  28.240   2.471   7.056
 5985POPC   C4B75550  28.689   2.548   7.131
 5986POPC   NC375551  11.006  11.598   5.464
 5986POPC   PO475552  11.537  11.044   5.290
 5986POPC   GL175553  11.285  11.208   5.704
 5986POPC   GL275554  11.334  11.566   5.838
 5986POPC   C1A75555  11.301  11.211   6.194
 5986POPC   D2A75556  11.234  10.872   6.524
 5986POPC   C3A75557  11.182  11.072   6.932
 5986POPC   C4A75558  11.421  11.021   7.318
 5986POPC   C1B75559  11.333  11.754   6.222
 5986POPC   C2B75560  11.379  11.537   6.621
 5986POPC   C3B75561  11.649  11.374   6.948
 5986POPC   C4B75562  11.577  11.586   7.316
 5987POPC   NC375563  32.973   6.436   5.139
 5987POPC   PO475564  32.658   6.933   5.501
 5987POPC   GL175565  32.739   6.804   5.923
 5987POPC   GL275566  32.856   6.474   5.808
 5987POPC   C1A75567  32.915   6.819   6.313
 5987POPC   D2A75568  33.254   6.704   6.583
 5987POPC   C3A75569  33.241   6.928   6.961
 5987POPC   C4A75570  33.465   6.831   7.322
 5987POPC   C1B75571  33.098   6.347   6.179
 5987POPC   C2B75572  32.941   6.303   6.570
 5987POPC   C3B75573  33.093   6.392   6.993
 5987POPC   C4B75574  32.902   6.280   7.392
 5988POPC   NC375575  19.806  44.320   5.409
 5988POPC   PO475576  19.564  44.944   5.520
 5988POPC   GL175577  19.740  44.634   5.800
 5988POPC   GL275578  19.511  44.309   5.798
 5988POPC   C1A75579  19.856  44.745   6.221
 5988POPC   D2A75580  19.772  44.900   6.605
 5988POPC   C3A75581  19.978  44.697   6.931
 5988POPC   C4A75582  20.077  44.478   7.292
 5988POPC   C1B75583  19.681  44.274   6.210
 5988POPC   C2B75584  19.671  44.379   6.665
 5988POPC   C3B75585  19.604  44.391   7.117
 5988POPC   C4B75586  19.592  44.375   7.589
 5989POPC   NC375587  12.961  16.053   5.282
 5989POPC   PO475588  13.636  15.907   5.469
 5989POPC   GL175589  13.506  15.940   5.881
 5989POPC   GL275590  13.484  16.296   5.909
 5989POPC   C1A75591  13.572  15.679   6.264
 5989POPC   D2A75592  13.887  15.565   6.600
 5989POPC   C3A75593  13.904  15.830   6.990
 5989POPC   C4A75594  13.538  15.915   7.226
 5989POPC   C1B75595  13.638  16.185   6.343
 5989POPC   C2B75596  13.481  15.937   6.701
 5989POPC   C3B75597  13.119  16.065   6.927
 5989POPC   C4B75598  13.174  16.258   7.291
 5990POPC   NC375599   7.221   7.566   5.409
 5990POPC   PO475600   7.597   7.143   5.396
 5990POPC   GL175601   7.569   7.456   5.793
 5990POPC   GL275602   7.235   7.455   5.903
 5990POPC   C1A75603   7.587   7.666   6.246
 5990POPC   D2A75604   7.897   7.626   6.637
 5990POPC   C3A75605   7.740   7.544   7.081
 5990POPC   C4A75606   7.626   7.123   7.260
 5990POPC   C1B75607   7.370   7.189   6.244
 5990POPC   C2B75608   7.303   7.126   6.696
 5990POPC   C3B75609   7.206   7.329   7.093
 5990POPC   C4B75610   7.186   7.634   7.418
 5991POPC   NC375611   9.420  34.038   5.181
 5991POPC   PO475612   8.878  33.579   5.356
 5991POPC   GL175613   8.959  33.779   5.762
 5991POPC   GL275614   8.889  34.125   5.715
 5991POPC   C1A75615   9.182  33.870   6.154
 5991POPC   D2A75616   9.387  33.855   6.592
 5991POPC   C3A75617   9.068  33.779   6.923
 5991POPC   C4A75618   8.862  33.817   7.323
 5991POPC   C1B75619   8.704  34.218   6.143
 5991POPC   C2B75620   8.678  34.349   6.573
 5991POPC   C3B75621   8.692  34.159   6.951
 5991POPC   C4B75622   8.561  34.277   7.332
 5992POPC   NC375623   8.256  44.641   4.973
 5992POPC   PO475624   7.942  44.301   5.464
 5992POPC   GL175625   8.045  44.463   5.843
 5992POPC   GL275626   8.328  44.707   5.839
 5992POPC   C1A75627   8.035  44.537   6.276
 5992POPC   D2A75628   8.251  44.432   6.670
 5992POPC   C3A75629   8.090  44.285   7.081
 5992POPC   C4A75630   8.146  44.342   7.558
 5992POPC   C1B75631   8.431  44.952   6.184
 5992POPC   C2B75632   8.345   0.018   6.589
 5992POPC   C3B75633   8.245   0.055   6.984
 5992POPC   C4B75634   8.192  44.753   7.254
 5993POPC   NC375635  19.952  30.700   5.512
 5993POPC   PO475636  19.426  30.946   5.488
 5993POPC   GL175637  19.510  30.723   5.879
 5993POPC   GL275638  19.338  30.952   6.097
 5993POPC   C1A75639  19.748  30.481   6.227
 5993POPC   D2A75640  20.115  30.362   6.506
 5993POPC   C3A75641  20.000  30.396   6.932
 5993POPC   C4A75642  19.623  30.601   7.034
 5993POPC   C1B75643  19.763  31.004   6.251
 5993POPC   C2B75644  19.916  30.840   6.633
 5993POPC   C3B75645  19.990  30.961   7.055
 5993POPC   C4B75646  19.720  30.928   7.384
 5994POPC   NC375647  18.963  37.821   5.545
 5994POPC   PO475648  19.320  37.312   5.503
 5994POPC   GL175649  19.270  37.552   5.827
 5994POPC   GL275650  19.593  37.441   5.945
 5994POPC   C1A75651  18.922  37.635   6.166
 5994POPC   D2A75652  18.749  37.839   6.529
 5994POPC   C3A75653  18.893  37.652   6.901
 5994POPC   C4A75654  18.943  37.743   7.328
 5994POPC   C1B75655  19.280  37.255   6.206
 5994POPC   C2B75656  19.062  37.293   6.542
 5994POPC   C3B75657  19.263  37.261   6.904
 5994POPC   C4B75658  19.296  37.284   7.298
 5995POPC   NC375659   8.441   2.359   5.412
 5995POPC   PO475660   8.077   1.790   5.517
 5995POPC   GL175661   8.180   2.110   5.818
 5995POPC   GL275662   7.858   2.131   5.912
 5995POPC   C1A75663   8.214   2.131   6.298
 5995POPC   D2A75664   8.319   1.855   6.637
 5995POPC   C3A75665   8.187   1.918   7.068
 5995POPC   C4A75666   8.508   2.027   7.313
 5995POPC   C1B75667   7.899   1.724   6.176
 5995POPC   C2B75668   7.878   1.604   6.621
 5995POPC   C3B75669   7.776   2.020   6.790
 5995POPC   C4B75670   7.771   2.302   7.167
 5996POPC   NC375671   8.331  26.295   5.207
 5996POPC   PO475672   7.890  25.738   5.259
 5996POPC   GL175673   8.060  26.022   5.606
 5996POPC   GL275674   8.427  26.075   5.654
 5996POPC   C1A75675   8.012  26.117   6.058
 5996POPC   D2A75676   8.063  26.378   6.437
 5996POPC   C3A75677   7.930  26.192   6.822
 5996POPC   C4A75678   8.103  26.353   7.201
 5996POPC   C1B75679   8.523  26.122   6.098
 5996POPC   C2B75680   8.371  25.968   6.494
 5996POPC   C3B75681   8.416  26.032   6.929
 5996POPC   C4B75682   8.245  25.848   7.313
 5997POPC   NC375683  27.185  12.172   5.367
 5997POPC   PO475684  27.881  12.345   5.344
 5997POPC   GL175685  27.635  12.089   5.667
 5997POPC   GL275686  27.353  12.255   5.828
 5997POPC   C1A75687  27.658  12.003   6.140
 5997POPC   D2A75688  27.882  12.037   6.549
 5997POPC   C3A75689  27.644  11.944   6.905
 5997POPC   C4A75690  27.549  11.964   7.292
 5997POPC   C1B75691  27.349  12.470   6.218
 5997POPC   C2B75692  27.441  12.313   6.623
 5997POPC   C3B75693  27.244  12.293   7.040
 5997POPC   C4B75694  27.309  12.354   7.504
 5998POPC   NC375695  22.388  30.546   5.445
 5998POPC   PO475696  21.770  30.401   5.512
 5998POPC   GL175697  22.031  30.654   5.816
 5998POPC   GL275698  22.364  30.872   5.827
 5998POPC   C1A75699  22.179  30.491   6.189
 5998POPC   D2A75700  22.258  30.629   6.595
 5998POPC   C3A75701  21.994  30.552   6.904
 5998POPC   C4A75702  22.172  30.615   7.311
 5998POPC   C1B75703  22.272  31.009   6.238
 5998POPC   C2B75704  22.312  31.152   6.611
 5998POPC   C3B75705  22.254  31.003   6.989
 5998POPC   C4B75706  22.369  31.090   7.386
 5999POPC   NC375707  27.319  41.847   5.573
 5999POPC   PO475708  27.596  42.516   5.452
 5999POPC   GL175709  27.673  42.451   5.880
 5999POPC   GL275710  27.677  42.102   5.904
 5999POPC   C1A75711  27.610  42.455   6.321
 5999POPC   D2A75712  27.460  42.269   6.667
 5999POPC   C3A75713  27.657  42.298   7.038
 5999POPC   C4A75714  27.524  42.608   7.290
 5999POPC   C1B75715  27.289  42.079   6.173
 5999POPC   C2B75716  27.127  41.909   6.537
 5999POPC   C3B75717  27.298  41.867   6.922
 5999POPC   C4B75718  27.222  42.140   7.258
 6000POPC   NC375719  16.118  43.518   5.482
 6000POPC   PO475720  15.531  43.820   5.358
 6000POPC   GL175721  15.831  43.846   5.754
 6000POPC   GL275722  16.121  43.669   5.972
 6000POPC   C1A75723  15.699  43.863   6.186
 6000POPC   D2A75724  15.864  44.028   6.534
 6000POPC   C3A75725  15.901  43.836   6.890
 6000POPC   C4A75726  15.871  43.901   7.271
 6000POPC   C1B75727  16.314  43.987   6.276
 6000POPC   C2B75728  16.332  44.071   6.748
 6000POPC   C3B75729  16.207  44.294   7.126
 6000POPC   C4B75730  16.131  44.223   7.593
 6001POPC   NC375731  12.268  43.600   5.442
 6001POPC   PO475732  12.022  44.213   5.522
 6001POPC   GL175733  11.892  43.982   5.875
 6001POPC   GL275734  11.991  43.605   5.881
 6001POPC   C1A75735  11.950  44.153   6.277
 6001POPC   D2A75736  12.123  44.156   6.666
 6001POPC   C3A75737  11.891  44.044   7.034
 6001POPC   C4A75738  12.150  44.075   7.362
 6001POPC   C1B75739  12.207  43.696   6.253
 6001POPC   C2B75740  12.434  43.738   6.643
 6001POPC   C3B75741  12.281  43.700   7.043
 6001POPC   C4B75742  11.971  43.593   7.360
 6002POPC   NC375743  34.853  12.499   5.448
 6002POPC   PO475744  34.329  12.869   5.162
 6002POPC   GL175745  34.565  12.944   5.590
 6002POPC   GL275746  34.881  13.001   5.697
 6002POPC   C1A75747  34.510  13.072   6.060
 6002POPC   D2A75748  34.311  12.943   6.456
 6002POPC   C3A75749  34.384  12.753   6.861
 6002POPC   C4A75750  34.415  12.938   7.264
 6002POPC   C1B75751  34.908  12.762   6.083
 6002POPC   C2B75752  34.836  12.928   6.494
 6002POPC   C3B75753  34.813  13.058   6.911
 6002POPC   C4B75754  34.903  12.840   7.277
 6003POPC   NC375755  19.684  12.864   4.979
 6003POPC   PO475756  20.161  12.772   5.463
 6003POPC   GL175757  19.987  12.802   5.853
 6003POPC   GL275758  19.831  12.465   5.873
 6003POPC   C1A75759  20.088  12.966   6.274
 6003POPC   D2A75760  19.790  13.012   6.631
 6003POPC   C3A75761  19.917  13.003   7.041
 6003POPC   C4A75762  19.824  12.623   7.201
 6003POPC   C1B75763  19.644  12.702   6.220
 6003POPC   C2B75764  19.348  12.768   6.546
 6003POPC   C3B75765  19.412  12.858   6.977
 6003POPC   C4B75766  19.385  12.767   7.420
 6004POPC   NC375767  20.704  33.722   5.473
 6004POPC   PO475768  20.530  34.227   5.750
 6004POPC   GL175769  20.374  33.954   6.024
 6004POPC   GL275770  20.576  33.689   5.975
 6004POPC   C1A75771  20.538  33.916   6.421
 6004POPC   D2A75772  20.803  34.158   6.651
 6004POPC   C3A75773  20.757  33.902   6.987
 6004POPC   C4A75774  20.634  34.095   7.302
 6004POPC   C1B75775  20.798  33.475   6.299
 6004POPC   C2B75776  20.686  33.471   6.697
 6004POPC   C3B75777  20.580  33.422   7.098
 6004POPC   C4B75778  20.803  33.517   7.476
 6005POPC   NC375779  39.385   3.804   5.159
 6005POPC   PO475780  38.871   3.506   5.583
 6005POPC   GL175781  39.192   3.304   5.872
 6005POPC   GL275782  38.919   3.279   6.067
 6005POPC   C1A75783  39.422   3.271   6.221
 6005POPC   D2A75784  39.264   3.396   6.593
 6005POPC   C3A75785  39.419   3.312   7.001
 6005POPC   C4A75786  39.100   3.102   7.219
 6005POPC   C1B75787  38.984   3.705   6.234
 6005POPC   C2B75788  39.125   3.888   6.595
 6005POPC   C3B75789  39.083   3.711   6.977
 6005POPC   C4B75790  39.036   3.990   7.265
 6006POPC   NC375791  17.688  29.688   5.458
 6006POPC   PO475792  17.153  30.142   5.509
 6006POPC   GL175793  17.341  29.953   5.816
 6006POPC   GL275794  17.659  30.105   5.807
 6006POPC   C1A75795  17.385  29.894   6.245
 6006POPC   D2A75796  17.688  29.751   6.521
 6006POPC   C3A75797  17.550  29.782   6.903
 6006POPC   C4A75798  17.202  29.752   7.168
 6006POPC   C1B75799  17.735  30.285   6.205
 6006POPC   C2B75800  17.591  30.278   6.624
 6006POPC   C3B75801  17.468  30.276   7.044
 6006POPC   C4B75802  17.818  30.334   7.318
 6007POPC   NC375803  10.806  23.685   5.421
 6007POPC   PO475804  10.276  23.309   5.614
 6007POPC   GL175805  10.504  23.494   5.920
 6007POPC   GL275806  10.594  23.836   5.863
 6007POPC   C1A75807  10.328  23.480   6.329
 6007POPC   D2A75808  10.186  23.308   6.706
 6007POPC   C3A75809  10.420  23.529   7.000
 6007POPC   C4A75810  10.350  23.344   7.373
 6007POPC   C1B75811  10.353  23.968   6.223
 6007POPC   C2B75812  10.460  23.965   6.667
 6007POPC   C3B75813  10.651  23.986   7.056
 6007POPC   C4B75814  10.933  23.715   7.245
 6008POPC   NC375815  21.690  26.066   5.248
 6008POPC   PO475816  22.296  25.820   5.534
 6008POPC   GL175817  22.232  25.898   6.001
 6008POPC   GL275818  22.062  26.239   6.014
 6008POPC   C1A75819  21.993  25.861   6.402
 6008POPC   D2A75820  22.163  26.017   6.810
 6008POPC   C3A75821  22.096  25.837   7.222
 6008POPC   C4A75822  22.209  25.847   7.640
 6008POPC   C1B75823  22.044  26.377   6.450
 6008POPC   C2B75824  21.979  26.597   6.817
 6008POPC   C3B75825  21.994  26.342   7.167
 6008POPC   C4B75826  21.979  26.309   7.593
 6009POPC   NC375827  30.941  34.694   5.385
 6009POPC   PO475828  30.306  34.501   5.191
 6009POPC   GL175829  30.416  34.589   5.674
 6009POPC   GL275830  30.772  34.654   5.849
 6009POPC   C1A75831  30.436  34.422   6.121
 6009POPC   D2A75832  30.739  34.428   6.450
 6009POPC   C3A75833  30.638  34.686   6.782
 6009POPC   C4A75834  30.372  34.709   7.116
 6009POPC   C1B75835  31.079  34.396   6.066
 6009POPC   C2B75836  31.241  34.358   6.501
 6009POPC   C3B75837  31.029  34.362   6.944
 6009POPC   C4B75838  30.886  34.709   7.236
 6010POPC   NC375839  30.215  44.284   5.607
 6010POPC   PO475840  29.822  44.819   5.425
 6010POPC   GL175841  29.995  44.733   5.817
 6010POPC   GL275842  30.358  44.814   5.724
 6010POPC   C1A75843  29.791  44.734   6.240
 6010POPC   D2A75844  29.732  44.540   6.645
 6010POPC   C3A75845  29.747  44.714   7.050
 6010POPC   C4A75846  29.677  44.335   7.217
 6010POPC   C1B75847  30.418  44.633   6.144
 6010POPC   C2B75848  30.256  44.612   6.550
 6010POPC   C3B75849  30.192  44.464   6.946
 6010POPC   C4B75850  30.259  44.665   7.347
 6011POPC   NC375851  41.395   2.218   5.475
 6011POPC   PO475852  41.596   1.620   5.569
 6011POPC   GL175853  41.605   1.920   5.878
 6011POPC   GL275854  41.249   2.012   5.910
 6011POPC   C1A75855  41.830   2.020   6.256
 6011POPC   D2A75856  41.739   2.140   6.674
 6011POPC   C3A75857  42.013   2.145   6.979
 6011POPC   C4A75858  41.929   1.946   7.354
 6011POPC   C1B75859  41.316   1.865   6.325
 6011POPC   C2B75860  41.250   2.063   6.718
 6011POPC   C3B75861  41.283   2.081   7.200
 6011POPC   C4B75862  41.066   2.164   7.629
 6012POPC   NC375863  15.615  18.843   5.668
 6012POPC   PO475864  14.988  18.888   5.418
 6012POPC   GL175865  14.951  19.173   5.740
 6012POPC   GL275866  15.227  19.065   5.904
 6012POPC   C1A75867  14.815  19.230   6.171
 6012POPC   D2A75868  15.001  19.066   6.524
 6012POPC   C3A75869  14.947  19.287   6.876
 6012POPC   C4A75870  14.933  19.174   7.270
 6012POPC   C1B75871  15.467  19.089   6.281
 6012POPC   C2B75872  15.422  19.290   6.657
 6012POPC   C3B75873  15.419  19.195   7.060
 6012POPC   C4B75874  15.630  19.151   7.389
 6013POPC   NC375875  18.462  44.101   5.631
 6013POPC   PO475876  17.902  43.705   5.538
 6013POPC   GL175877  18.131  43.799   5.906
 6013POPC   GL275878  18.485  43.685   5.899
 6013POPC   C1A75879  18.132  43.804   6.347
 6013POPC   D2A75880  17.906  43.724   6.707
 6013POPC   C3A75881  18.048  43.921   7.092
 6013POPC   C4A75882  18.191  43.935   7.524
 6013POPC   C1B75883  18.636  43.803   6.297
 6013POPC   C2B75884  18.503  43.897   6.730
 6013POPC   C3B75885  18.705  44.037   7.101
 6013POPC   C4B75886  18.719  43.938   7.548
 6014POPC   NC375887  12.011  10.978   5.186
 6014POPC   PO475888  11.763  11.396   5.652
 6014POPC   GL175889  11.836  11.510   6.019
 6014POPC   GL275890  12.117  11.699   5.876
 6014POPC   C1A75891  11.998  11.440   6.444
 6014POPC   D2A75892  12.352  11.297   6.700
 6014POPC   C3A75893  12.201  11.115   7.076
 6014POPC   C4A75894  11.901  11.217   7.421
 6014POPC   C1B75895  12.401  11.685   6.205
 6014POPC   C2B75896  12.347  11.828   6.601
 6014POPC   C3B75897  12.467  11.711   6.981
 6014POPC   C4B75898  12.228  11.579   7.316
 6015POPC   NC375899  32.371   6.112   5.526
 6015POPC   PO475900  32.204   5.409   5.388
 6015POPC   GL175901  32.159   5.711   5.763
 6015POPC   GL275902  31.817   5.841   5.823
 6015POPC   C1A75903  32.214   5.938   6.171
 6015POPC   D2A75904  32.365   6.149   6.547
 6015POPC   C3A75905  32.348   5.893   6.895
 6015POPC   C4A75906  32.458   6.056   7.262
 6015POPC   C1B75907  31.729   5.971   6.252
 6015POPC   C2B75908  31.883   6.070   6.682
 6015POPC   C3B75909  31.957   6.101   7.120
 6015POPC   C4B75910  32.040   6.101   7.580
 6016POPC   NC375911  13.740  38.936   5.429
 6016POPC   PO475912  13.752  38.287   5.527
 6016POPC   GL175913  13.665  38.590   5.865
 6016POPC   GL275914  13.845  38.891   5.951
 6016POPC   C1A75915  13.433  38.496   6.245
 6016POPC   D2A75916  13.193  38.684   6.578
 6016POPC   C3A75917  13.258  38.488   6.995
 6016POPC   C4A75918  13.064  38.649   7.341
 6016POPC   C1B75919  13.786  38.849   6.396
 6016POPC   C2B75920  13.689  38.592   6.727
 6016POPC   C3B75921  13.771  38.443   7.133
 6016POPC   C4B75922  13.592  38.355   7.505
 6017POPC   NC375923  37.886  23.619   5.446
 6017POPC   PO475924  37.313  24.005   5.297
 6017POPC   GL175925  37.477  23.922   5.738
 6017POPC   GL275926  37.520  23.562   5.819
 6017POPC   C1A75927  37.490  23.976   6.205
 6017POPC   D2A75928  37.806  24.013   6.529
 6017POPC   C3A75929  37.600  24.035   6.925
 6017POPC   C4A75930  37.693  23.948   7.364
 6017POPC   C1B75931  37.774  23.570   6.205
 6017POPC   C2B75932  37.650  23.546   6.660
 6017POPC   C3B75933  37.818  23.557   7.079
 6017POPC   C4B75934  37.814  23.311   7.487
 6018POPC   NC375935  21.112  23.802   5.385
 6018POPC   PO475936  21.437  23.298   5.425
 6018POPC   GL175937  21.232  23.521   5.798
 6018POPC   GL275938  21.300  23.927   5.832
 6018POPC   C1A75939  21.297  23.609   6.240
 6018POPC   D2A75940  21.527  23.549   6.635
 6018POPC   C3A75941  21.262  23.430   7.001
 6018POPC   C4A75942  21.107  23.682   7.349
 6018POPC   C1B75943  21.513  24.092   6.203
 6018POPC   C2B75944  21.336  24.055   6.611
 6018POPC   C3B75945  21.445  23.908   7.027
 6018POPC   C4B75946  21.550  23.973   7.464
 6019POPC   NC375947   4.820  30.385   5.465
 6019POPC   PO475948   4.931  31.026   5.431
 6019POPC   GL175949   4.936  30.796   5.835
 6019POPC   GL275950   4.765  30.484   5.947
 6019POPC   C1A75951   5.178  30.696   6.215
 6019POPC   D2A75952   5.372  30.450   6.537
 6019POPC   C3A75953   5.214  30.557   6.917
 6019POPC   C4A75954   5.065  30.641   7.349
 6019POPC   C1B75955   4.651  30.707   6.262
 6019POPC   C2B75956   4.777  30.743   6.679
 6019POPC   C3B75957   4.623  30.689   7.072
 6019POPC   C4B75958   4.567  30.467   7.447
 6020POPC   NC375959   6.015  37.866   5.114
 6020POPC   PO475960   6.297  37.519   5.596
 6020POPC   GL175961   6.076  37.704   5.899
 6020POPC   GL275962   6.088  37.993   5.715
 6020POPC   C1A75963   5.808  37.637   6.249
 6020POPC   D2A75964   5.896  37.645   6.678
 6020POPC   C3A75965   5.683  37.453   6.996
 6020POPC   C4A75966   5.725  37.301   7.432
 6020POPC   C1B75967   5.882  38.141   6.113
 6020POPC   C2B75968   5.758  38.133   6.553
 6020POPC   C3B75969   5.931  38.071   6.982
 6020POPC   C4B75970   5.961  37.767   7.301
 6021POPC   NC375971  25.877   0.905   5.600
 6021POPC   PO475972  25.974   0.419   5.155
 6021POPC   GL175973  26.117   0.377   5.632
 6021POPC   GL275974  26.263   0.650   5.804
 6021POPC   C1A75975  26.180   0.262   6.112
 6021POPC   D2A75976  25.965   0.333   6.540
 6021POPC   C3A75977  26.149   0.305   6.941
 6021POPC   C4A75978  25.916   0.152   7.265
 6021POPC   C1B75979  25.935   0.703   6.187
 6021POPC   C2B75980  25.656   0.756   6.524
 6021POPC   C3B75981  25.621   0.604   6.927
 6021POPC   C4B75982  25.905   0.661   7.239
 6022POPC   NC375983   4.719  31.427   5.481
 6022POPC   PO475984   4.044  31.483   5.360
 6022POPC   GL175985   4.157  31.518   5.806
 6022POPC   GL275986   4.487  31.635   5.861
 6022POPC   C1A75987   4.090  31.415   6.263
 6022POPC   D2A75988   4.281  31.565   6.668
 6022POPC   C3A75989   4.090  31.355   7.022
 6022POPC   C4A75990   4.040  31.452   7.452
 6022POPC   C1B75991   4.592  31.579   6.252
 6022POPC   C2B75992   4.817  31.516   6.603
 6022POPC   C3B75993   4.709  31.715   6.972
 6022POPC   C4B75994   4.483  31.579   7.267
 6023POPC   NC375995  21.796  27.663   5.083
 6023POPC   PO475996  21.353  27.355   5.457
 6023POPC   GL175997  21.226  27.374   5.864
 6023POPC   GL275998  21.256  27.699   5.886
 6023POPC   C1A75999  21.048  27.342   6.278
 6023POPC   D2A76000  21.261  27.212   6.637
 6023POPC   C3A76001  21.457  27.484   6.923
 6023POPC   C4A76002  21.297  27.443   7.355
 6023POPC   C1B76003  21.456  27.673   6.257
 6023POPC   C2B76004  21.770  27.659   6.541
 6023POPC   C3B76005  21.757  27.886   6.915
 6023POPC   C4B76006  21.663  27.801   7.322
 6024POPC   NC376007  35.236  19.563   5.219
 6024POPC   PO476008  34.936  20.019   5.604
 6024POPC   GL176009  35.337  19.866   5.766
 6024POPC   GL276010  35.167  19.608   5.938
 6024POPC   C1A76011  35.537  19.806   6.206
 6024POPC   D2A76012  35.255  19.595   6.542
 6024POPC   C3A76013  35.345  19.706   6.983
 6024POPC   C4A76014  35.784  19.535   7.047
 6024POPC   C1B76015  35.021  19.941   6.228
 6024POPC   C2B76016  34.875  19.933   6.631
 6024POPC   C3B76017  34.980  20.113   7.000
 6024POPC   C4B76018  35.067  19.991   7.413
 6025POPC   NC376019   8.874  15.476   5.582
 6025POPC   PO476020   9.205  16.172   5.497
 6025POPC   GL176021   9.049  16.175   5.871
 6025POPC   GL276022   9.062  15.822   5.931
 6025POPC   C1A76023   8.887  16.186   6.248
 6025POPC   D2A76024   9.048  16.020   6.608
 6025POPC   C3A76025   8.841  15.925   6.990
 6025POPC   C4A76026   8.784  15.851   7.429
 6025POPC   C1B76027   8.849  15.645   6.292
 6025POPC   C2B76028   8.951  15.478   6.689
 6025POPC   C3B76029   8.957  15.441   7.146
 6025POPC   C4B76030   9.083  15.385   7.588
 6026POPC   NC376031   2.243   0.648   5.493
 6026POPC   PO476032   1.760   0.295   5.101
 6026POPC   GL176033   1.895   0.314   5.593
 6026POPC   GL276034   1.745   0.635   5.662
 6026POPC   C1A76035   2.019   0.278   6.074
 6026POPC   D2A76036   2.191   0.460   6.485
 6026POPC   C3A76037   2.043   0.344   6.880
 6026POPC   C4A76038   2.266   0.352   7.237
 6026POPC   C1B76039   1.573   0.530   6.054
 6026POPC   C2B76040   1.666   0.497   6.485
 6026POPC   C3B76041   1.602   0.601   6.913
 6026POPC   C4B76042   1.789   0.540   7.305
 6027POPC   NC376043  33.748  22.623   5.395
 6027POPC   PO476044  34.216  23.087   5.515
 6027POPC   GL176045  33.910  22.914   5.802
 6027POPC   GL276046  33.721  23.226   5.735
 6027POPC   C1A76047  33.754  22.820   6.238
 6027POPC   D2A76048  33.602  22.598   6.610
 6027POPC   C3A76049  33.769  22.798   6.972
 6027POPC   C4A76050  33.567  23.161   7.103
 6027POPC   C1B76051  33.923  23.297   6.149
 6027POPC   C2B76052  33.779  23.217   6.600
 6027POPC   C3B76053  34.056  23.237   6.926
 6027POPC   C4B76054  34.003  23.245   7.340
 6028POPC   NC376055  44.240  16.945   5.436
 6028POPC   PO476056  44.908  16.722   5.363
 6028POPC   GL176057  44.880  16.885   5.768
 6028POPC   GL276058  44.620  17.081   5.776
 6028POPC   C1A76059  44.788  16.789   6.204
 6028POPC   D2A76060  44.803  16.621   6.601
 6028POPC   C3A76061  44.790  16.869   6.929
 6028POPC   C4A76062  44.799  16.736   7.305
 6028POPC   C1B76063  44.330  17.009   6.123
 6028POPC   C2B76064  44.315  16.810   6.531
 6028POPC   C3B76065  44.275  16.924   6.947
 6028POPC   C4B76066  44.297  16.743   7.322
 6029POPC   NC376067  27.031  43.598   5.444
 6029POPC   PO476068  26.720  42.999   5.433
 6029POPC   GL176069  26.929  42.991   5.830
 6029POPC   GL276070  26.625  43.153   5.945
 6029POPC   C1A76071  26.996  43.084   6.290
 6029POPC   D2A76072  26.745  43.259   6.655
 6029POPC   C3A76073  26.849  43.116   7.086
 6029POPC   C4A76074  27.177  43.194   7.437
 6029POPC   C1B76075  26.621  42.733   6.167
 6029POPC   C2B76076  26.669  42.773   6.605
 6029POPC   C3B76077  26.387  42.966   6.918
 6029POPC   C4B76078  26.493  42.778   7.301
 6030POPC   NC376079   6.061  26.551   5.551
 6030POPC   PO476080   5.735  27.180   5.535
 6030POPC   GL176081   5.696  26.838   5.843
 6030POPC   GL276082   6.028  26.885   5.922
 6030POPC   C1A76083   5.770  26.605   6.233
 6030POPC   D2A76084   6.035  26.760   6.588
 6030POPC   C3A76085   5.941  26.558   6.985
 6030POPC   C4A76086   5.509  26.567   7.127
 6030POPC   C1B76087   5.834  27.126   6.252
 6030POPC   C2B76088   6.103  27.311   6.516
 6030POPC   C3B76089   6.025  27.280   6.933
 6030POPC   C4B76090   5.911  27.078   7.303
 6031POPC   NC376091   8.827  24.883   5.385
 6031POPC   PO476092   9.362  25.309   5.370
 6031POPC   GL176093   9.151  25.280   5.805
 6031POPC   GL276094   9.004  24.956   5.845
 6031POPC   C1A76095   9.070  25.270   6.258
 6031POPC   D2A76096   9.247  25.347   6.662
 6031POPC   C3A76097   9.003  25.270   7.066
 6031POPC   C4A76098   8.912  25.477   7.508
 6031POPC   C1B76099   8.795  24.850   6.219
 6031POPC   C2B76100   8.831  25.013   6.629
 6031POPC   C3B76101   8.558  25.012   6.961
 6031POPC   C4B76102   8.658  25.016   7.370
 6032POPC   NC376103   2.355   6.155   5.427
 6032POPC   PO476104   2.417   6.780   5.537
 6032POPC   GL176105   2.160   6.865   5.879
 6032POPC   GL276106   2.017   6.527   5.855
 6032POPC   C1A76107   1.900   6.792   6.276
 6032POPC   D2A76108   1.820   6.548   6.618
 6032POPC   C3A76109   1.932   6.686   6.975
 6032POPC   C4A76110   1.712   6.784   7.342
 6032POPC   C1B76111   2.234   6.382   6.233
 6032POPC   C2B76112   2.324   6.479   6.659
 6032POPC   C3B76113   2.350   6.419   7.090
 6032POPC   C4B76114   2.204   6.690   7.399
 6033POPC   NC376115  15.237  33.945   5.397
 6033POPC   PO476116  14.749  33.572   5.439
 6033POPC   GL176117  15.054  33.590   5.766
 6033POPC   GL276118  15.236  33.870   5.893
 6033POPC   C1A76119  14.883  33.530   6.163
 6033POPC   D2A76120  14.686  33.481   6.565
 6033POPC   C3A76121  14.836  33.757   6.846
 6033POPC   C4A76122  15.147  33.806   7.167
 6033POPC   C1B76123  15.399  33.568   6.207
 6033POPC   C2B76124  15.315  33.690   6.649
 6033POPC   C3B76125  15.590  33.932   6.940
 6033POPC   C4B76126  15.651  33.720   7.312
 6034POPC   NC376127   2.167  32.035   5.494
 6034POPC   PO476128   1.599  32.045   5.202
 6034POPC   GL176129   1.661  32.116   5.695
 6034POPC   GL276130   1.947  32.359   5.853
 6034POPC   C1A76131   1.654  32.150   6.188
 6034POPC   D2A76132   1.858  32.384   6.526
 6034POPC   C3A76133   1.813  32.209   6.926
 6034POPC   C4A76134   1.931  32.352   7.317
 6034POPC   C1B76135   2.206  32.140   6.247
 6034POPC   C2B76136   2.314  32.186   6.743
 6034POPC   C3B76137   2.376  32.105   7.224
 6034POPC   C4B76138   2.266  31.808   7.597
 6035POPC   NC376139  43.738  42.142   5.348
 6035POPC   PO476140  44.335  42.353   5.420
 6035POPC   GL176141  44.120  42.266   5.811
 6035POPC   GL276142  43.782  42.349   5.821
 6035POPC   C1A76143  44.003  42.367   6.273
 6035POPC   D2A76144  44.130  42.592   6.651
 6035POPC   C3A76145  44.039  42.393   7.068
 6035POPC   C4A76146  43.993  42.200   7.523
 6035POPC   C1B76147  43.551  42.576   6.143
 6035POPC   C2B76148  43.632  42.669   6.546
 6035POPC   C3B76149  43.633  42.748   6.980
 6035POPC   C4B76150  43.770  42.658   7.397
 6036POPC   NC376151  19.044  40.397   5.280
 6036POPC   PO476152  19.355  39.785   5.246
 6036POPC   GL176153  19.282  39.875   5.687
 6036POPC   GL276154  18.993  40.072   5.731
 6036POPC   C1A76155  19.371  40.040   6.103
 6036POPC   D2A76156  19.171  40.139   6.500
 6036POPC   C3A76157  18.993  39.835   6.768
 6036POPC   C4A76158  19.184  39.926   7.150
 6036POPC   C1B76159  18.803  40.122   6.156
 6036POPC   C2B76160  18.651  40.222   6.594
 6036POPC   C3B76161  18.843  40.317   6.984
 6036POPC   C4B76162  18.928  40.265   7.436
 6037POPC   NC376163  17.716  25.383   5.476
 6037POPC   PO476164  17.336  24.989   5.879
 6037POPC   GL176165  17.710  25.220   5.984
 6037POPC   GL276166  17.673  25.570   5.935
 6037POPC   C1A76167  17.685  25.336   6.403
 6037POPC   D2A76168  17.294  25.309   6.576
 6037POPC   C3A76169  17.327  24.962   6.815
 6037POPC   C4A76170  17.433  25.072   7.203
 6037POPC   C1B76171  17.382  25.737   6.250
 6037POPC   C2B76172  17.291  25.810   6.697
 6037POPC   C3B76173  17.351  25.563   7.046
 6037POPC   C4B76174  17.158  25.462   7.434
 6038POPC   NC376175  38.252  34.027   5.358
 6038POPC   PO476176  38.825  33.737   5.472
 6038POPC   GL176177  38.572  33.568   5.807
 6038POPC   GL276178  38.222  33.629   5.705
 6038POPC   C1A76179  38.628  33.518   6.244
 6038POPC   D2A76180  38.622  33.683   6.639
 6038POPC   C3A76181  38.732  33.583   7.037
 6038POPC   C4A76182  38.699  33.996   7.116
 6038POPC   C1B76183  38.173  33.748   6.144
 6038POPC   C2B76184  38.144  33.589   6.589
 6038POPC   C3B76185  38.229  33.684   7.042
 6038POPC   C4B76186  38.153  33.517   7.489
 6039POPC   NC376187  21.784  19.016   5.450
 6039POPC   PO476188  21.204  18.790   5.623
 6039POPC   GL176189  21.394  18.967   5.972
 6039POPC   GL276190  21.636  19.195   5.895
 6039POPC   C1A76191  21.363  19.109   6.399
 6039POPC   D2A76192  21.069  19.358   6.675
 6039POPC   C3A76193  21.041  19.134   7.068
 6039POPC   C4A76194  21.183  18.736   7.247
 6039POPC   C1B76195  21.821  19.333   6.260
 6039POPC   C2B76196  21.848  19.116   6.637
 6039POPC   C3B76197  21.525  19.224   6.884
 6039POPC   C4B76198  21.413  19.460   7.222
 6040POPC   NC376199  23.592  41.702   5.427
 6040POPC   PO476200  23.900  41.077   5.456
 6040POPC   GL176201  23.798  41.419   5.788
 6040POPC   GL276202  24.015  41.726   5.731
 6040POPC   C1A76203  23.500  41.638   6.117
 6040POPC   D2A76204  23.634  41.708   6.550
 6040POPC   C3A76205  23.483  41.624   6.968
 6040POPC   C4A76206  23.425  41.735   7.369
 6040POPC   C1B76207  24.010  41.712   6.182
 6040POPC   C2B76208  24.069  41.441   6.543
 6040POPC   C3B76209  24.031  41.620   6.954
 6040POPC   C4B76210  23.909  41.635   7.381
 6041POPC   NC376211  17.037  13.111   5.384
 6041POPC   PO476212  16.781  13.720   5.573
 6041POPC   GL176213  16.979  13.471   5.863
 6041POPC   GL276214  17.035  13.778   6.039
 6041POPC   C1A76215  16.870  13.361   6.293
 6041POPC   D2A76216  16.693  13.548   6.668
 6041POPC   C3A76217  16.824  13.307   7.032
 6041POPC   C4A76218  16.810  13.373   7.472
 6041POPC   C1B76219  16.619  13.848   6.240
 6041POPC   C2B76220  16.626  14.064   6.634
 6041POPC   C3B76221  16.605  13.886   7.057
 6041POPC   C4B76222  16.574  14.160   7.367
 6042POPC   NC376223  40.904  15.957   5.386
 6042POPC   PO476224  40.266  15.743   5.346
 6042POPC   GL176225  40.565  15.736   5.699
 6042POPC   GL276226  40.620  16.059   5.804
 6042POPC   C1A76227  40.838  15.722   6.093
 6042POPC   D2A76228  40.690  15.632   6.519
 6042POPC   C3A76229  40.838  15.888   6.846
 6042POPC   C4A76230  41.000  15.894   7.261
 6042POPC   C1B76231  40.594  16.163   6.256
 6042POPC   C2B76232  40.877  16.351   6.552
 6042POPC   C3B76233  40.959  16.406   6.982
 6042POPC   C4B76234  40.833  16.374   7.411
 6043POPC   NC376235   0.670  17.341   5.182
 6043POPC   PO476236   0.637  16.808   5.652
 6043POPC   GL176237   0.596  16.980   6.065
 6043POPC   GL276238   0.296  16.805   6.095
 6043POPC   C1A76239   0.597  16.773   6.501
 6043POPC   D2A76240   0.282  16.620   6.809
 6043POPC   C3A76241   0.297  16.743   7.208
 6043POPC   C4A76242   0.491  17.104   7.390
 6043POPC   C1B76243   0.206  16.426   6.342
 6043POPC   C2B76244   0.078  16.167   6.728
 6043POPC   C3B76245   0.010  16.285   7.157
 6043POPC   C4B76246   0.052  16.370   7.593
 6044POPC   NC376247  28.244  43.639   5.013
 6044POPC   PO476248  28.298  44.035   5.600
 6044POPC   GL176249  28.384  43.821   5.925
 6044POPC   GL276250  28.088  43.982   6.065
 6044POPC   C1A76251  28.543  43.867   6.335
 6044POPC   D2A76252  28.633  43.768   6.752
 6044POPC   C3A76253  28.309  43.879   7.050
 6044POPC   C4A76254  28.103  44.204   7.275
 6044POPC   C1B76255  28.081  43.570   6.243
 6044POPC   C2B76256  28.219  43.448   6.613
 6044POPC   C3B76257  28.020  43.467   6.979
 6044POPC   C4B76258  28.152  43.463   7.374
 6045POPC   NC376259  39.607   8.900   5.295
 6045POPC   PO476260  40.216   8.604   5.432
 6045POPC   GL176261  39.888   8.696   5.716
 6045POPC   GL276262  39.905   9.037   5.754
 6045POPC   C1A76263  40.045   8.716   6.147
 6045POPC   D2A76264  40.183   8.770   6.561
 6045POPC   C3A76265  39.926   8.974   6.862
 6045POPC   C4A76266  39.784   8.802   7.242
 6045POPC   C1B76267  39.936   9.200   6.189
 6045POPC   C2B76268  40.195   9.302   6.537
 6045POPC   C3B76269  40.161   9.442   6.983
 6045POPC   C4B76270  39.863   9.330   7.278
 6046POPC   NC376271  25.714  38.873   5.456
 6046POPC   PO476272  26.237  38.328   5.425
 6046POPC   GL176273  26.069  38.562   5.778
 6046POPC   GL276274  25.719  38.506   5.795
 6046POPC   C1A76275  26.252  38.603   6.212
 6046POPC   D2A76276  26.163  38.338   6.578
 6046POPC   C3A76277  26.316  38.549   6.924
 6046POPC   C4A76278  26.193  38.476   7.319
 6046POPC   C1B76279  25.770  38.710   6.188
 6046POPC   C2B76280  25.944  38.815   6.602
 6046POPC   C3B76281  25.842  38.744   7.033
 6046POPC   C4B76282  25.705  38.770   7.464
 6047POPC   NC376283   7.123  32.009   5.362
 6047POPC   PO476284   7.410  32.556   5.459
 6047POPC   GL176285   7.514  32.364   5.849
 6047POPC   GL276286   7.404  32.022   5.804
 6047POPC   C1A76287   7.366  32.283   6.275
 6047POPC   D2A76288   7.463  32.080   6.653
 6047POPC   C3A76289   7.454  32.290   7.045
 6047POPC   C4A76290   7.845  32.208   7.275
 6047POPC   C1B76291   7.102  31.877   6.115
 6047POPC   C2B76292   6.970  31.967   6.545
 6047POPC   C3B76293   7.101  31.917   6.979
 6047POPC   C4B76294   6.986  32.161   7.336
 6048POPC   NC376295  37.196   2.468   5.326
 6048POPC   PO476296  36.524   2.559   5.260
 6048POPC   GL176297  36.707   2.810   5.681
 6048POPC   GL276298  37.054   2.860   5.662
 6048POPC   C1A76299  36.740   3.052   6.151
 6048POPC   D2A76300  37.020   2.977   6.546
 6048POPC   C3A76301  36.852   2.983   6.942
 6048POPC   C4A76302  36.607   2.697   7.183
 6048POPC   C1B76303  37.163   2.806   6.088
 6048POPC   C2B76304  36.981   2.480   6.379
 6048POPC   C3B76305  36.945   2.474   6.847
 6048POPC   C4B76306  37.111   2.668   7.253
 6049POPC   NC376307  35.264  40.559   5.319
 6049POPC   PO476308  35.786  40.788   5.179
 6049POPC   GL176309  35.544  40.790   5.680
 6049POPC   GL276310  35.210  40.936   5.734
 6049POPC   C1A76311  35.311  40.653   6.147
 6049POPC   D2A76312  35.352  40.414   6.541
 6049POPC   C3A76313  35.341  40.633   6.952
 6049POPC   C4A76314  35.390  40.482   7.374
 6049POPC   C1B76315  35.453  41.135   6.103
 6049POPC   C2B76316  35.474  40.987   6.540
 6049POPC   C3B76317  35.345  41.145   6.942
 6049POPC   C4B76318  35.136  41.070   7.301
 6050POPC   NC376319  23.839  34.887   5.254
 6050POPC   PO476320  23.708  34.216   5.359
 6050POPC   GL176321  23.718  34.394   5.766
 6050POPC   GL276322  23.841  34.730   5.770
 6050POPC   C1A76323  23.759  34.452   6.216
 6050POPC   D2A76324  23.602  34.571   6.617
 6050POPC   C3A76325  23.740  34.446   7.011
 6050POPC   C4A76326  23.930  34.092   7.187
 6050POPC   C1B76327  23.984  34.935   6.164
 6050POPC   C2B76328  24.016  34.947   6.624
 6050POPC   C3B76329  23.909  34.989   7.059
 6050POPC   C4B76330  23.806  34.734   7.419
 6051POPC   NC376331   5.708   7.814   5.532
 6051POPC   PO476332   5.876   7.147   5.384
 6051POPC   GL176333   5.899   7.166   5.809
 6051POPC   GL276334   5.546   7.251   5.828
 6051POPC   C1A76335   6.216   7.254   6.145
 6051POPC   D2A76336   6.165   7.488   6.521
 6051POPC   C3A76337   6.220   7.251   6.896
 6051POPC   C4A76338   5.956   7.313   7.247
 6051POPC   C1B76339   5.729   7.433   6.221
 6051POPC   C2B76340   5.641   7.384   6.667
 6051POPC   C3B76341   5.553   7.609   7.044
 6051POPC   C4B76342   5.756   7.781   7.383
 6052POPC   NC376343   8.667  10.453   5.502
 6052POPC   PO476344   8.203  10.871   5.521
 6052POPC   GL176345   8.275  10.622   5.873
 6052POPC   GL276346   8.267  10.242   5.833
 6052POPC   C1A76347   8.166  10.705   6.299
 6052POPC   D2A76348   8.325  10.538   6.676
 6052POPC   C3A76349   8.191  10.813   6.932
 6052POPC   C4A76350   8.174  10.774   7.322
 6052POPC   C1B76351   7.932  10.259   6.150
 6052POPC   C2B76352   7.834  10.381   6.596
 6052POPC   C3B76353   7.993  10.309   7.024
 6052POPC   C4B76354   7.818  10.182   7.437
 6053POPC   NC376355  28.985  36.187   5.327
 6053POPC   PO476356  29.429  35.775   5.532
 6053POPC   GL176357  29.164  36.068   5.786
 6053POPC   GL276358  28.900  35.855   5.835
 6053POPC   C1A76359  29.177  36.312   6.174
 6053POPC   D2A76360  29.085  36.144   6.581
 6053POPC   C3A76361  29.236  36.326   6.933
 6053POPC   C4A76362  29.187  36.210   7.343
 6053POPC   C1B76363  29.153  35.782   6.214
 6053POPC   C2B76364  29.276  35.654   6.627
 6053POPC   C3B76365  29.155  35.816   7.013
 6053POPC   C4B76366  28.753  35.860   7.168
 6054POPC   NC376367  38.441  37.039   5.101
 6054POPC   PO476368  38.342  37.694   5.380
 6054POPC   GL176369  38.418  37.765   5.822
 6054POPC   GL276370  38.626  38.069   5.836
 6054POPC   C1A76371  38.475  37.476   6.222
 6054POPC   D2A76372  38.787  37.446   6.596
 6054POPC   C3A76373  38.567  37.453   7.019
 6054POPC   C4A76374  38.203  37.402   7.320
 6054POPC   C1B76375  38.649  37.943   6.270
 6054POPC   C2B76376  38.495  37.859   6.678
 6054POPC   C3B76377  38.652  37.976   7.079
 6054POPC   C4B76378  38.392  37.879   7.396
 6055POPC   NC376379  20.204  36.423   5.570
 6055POPC   PO476380  19.727  36.845   5.300
 6055POPC   GL176381  19.757  37.032   5.698
 6055POPC   GL276382  20.063  37.227   5.691
 6055POPC   C1A76383  19.681  36.944   6.118
 6055POPC   D2A76384  19.509  36.955   6.543
 6055POPC   C3A76385  19.627  36.741   6.915
 6055POPC   C4A76386  19.703  36.943   7.325
 6055POPC   C1B76387  20.061  37.285   6.118
 6055POPC   C2B76388  20.012  37.051   6.484
 6055POPC   C3B76389  19.967  37.131   6.906
 6055POPC   C4B76390  20.198  37.135   7.285
 6056POPC   NC376391   9.817  25.343   5.380
 6056POPC   PO476392  10.179  24.855   5.512
 6056POPC   GL176393   9.823  25.040   5.811
 6056POPC   GL276394   9.514  24.916   5.761
 6056POPC   C1A76395   9.592  25.221   6.215
 6056POPC   D2A76396   9.694  25.545   6.552
 6056POPC   C3A76397   9.687  25.494   7.025
 6056POPC   C4A76398   9.843  25.120   7.325
 6056POPC   C1B76399   9.352  24.765   6.171
 6056POPC   C2B76400   9.351  24.866   6.606
 6056POPC   C3B76401   9.445  25.045   7.020
 6056POPC   C4B76402   9.380  25.319   7.397
 6057POPC   NC376403  14.971   6.022   5.446
 6057POPC   PO476404  15.635   6.119   5.506
 6057POPC   GL176405  15.314   5.980   5.839
 6057POPC   GL276406  14.965   6.145   5.919
 6057POPC   C1A76407  15.213   5.713   6.203
 6057POPC   D2A76408  15.405   5.809   6.593
 6057POPC   C3A76409  15.376   5.586   7.002
 6057POPC   C4A76410  15.365   5.823   7.390
 6057POPC   C1B76411  15.141   6.230   6.276
 6057POPC   C2B76412  14.992   6.134   6.654
 6057POPC   C3B76413  15.193   6.120   7.019
 6057POPC   C4B76414  14.991   6.182   7.410
 6058POPC   NC376415  24.838  39.708   5.326
 6058POPC   PO476416  25.291  40.095   5.395
 6058POPC   GL176417  25.321  40.197   5.827
 6058POPC   GL276418  25.694  40.087   5.839
 6058POPC   C1A76419  25.057  40.301   6.225
 6058POPC   D2A76420  24.912  40.013   6.585
 6058POPC   C3A76421  24.906  40.032   7.049
 6058POPC   C4A76422  25.047  39.771   7.418
 6058POPC   C1B76423  25.601  40.296   6.235
 6058POPC   C2B76424  25.380  40.210   6.611
 6058POPC   C3B76425  25.408  40.024   6.982
 6058POPC   C4B76426  25.666  40.291   7.136
 6059POPC   NC376427   5.522  15.204   5.055
 6059POPC   PO476428   5.001  14.917   5.398
 6059POPC   GL176429   4.969  15.109   5.789
 6059POPC   GL276430   4.681  14.986   5.857
 6059POPC   C1A76431   5.196  15.238   6.141
 6059POPC   D2A76432   5.163  15.501   6.498
 6059POPC   C3A76433   5.220  15.349   6.925
 6059POPC   C4A76434   5.114  15.179   7.330
 6059POPC   C1B76435   4.805  14.824   6.230
 6059POPC   C2B76436   5.015  14.991   6.569
 6059POPC   C3B76437   4.934  14.885   6.966
 6059POPC   C4B76438   4.646  14.972   7.262
 6060POPC   NC376439  12.351  22.835   5.549
 6060POPC   PO476440  12.333  22.214   5.237
 6060POPC   GL176441  11.977  22.508   5.663
 6060POPC   GL276442  12.201  22.688   5.996
 6060POPC   C1A76443  11.776  22.541   6.166
 6060POPC   D2A76444  12.002  22.824   6.538
 6060POPC   C3A76445  12.000  22.764   7.028
 6060POPC   C4A76446  12.040  22.869   7.494
 6060POPC   C1B76447  12.421  23.007   6.299
 6060POPC   C2B76448  12.366  23.151   6.747
 6060POPC   C3B76449  12.296  23.211   7.206
 6060POPC   C4B76450  12.355  23.224   7.675
 6061POPC   NC376451  27.193  31.890   5.479
 6061POPC   PO476452  27.831  32.181   5.548
 6061POPC   GL176453  27.556  32.023   5.842
 6061POPC   GL276454  27.874  31.795   5.911
 6061POPC   C1A76455  27.334  32.273   6.208
 6061POPC   D2A76456  27.501  32.556   6.537
 6061POPC   C3A76457  27.362  32.426   6.944
 6061POPC   C4A76458  27.316  32.169   7.326
 6061POPC   C1B76459  27.768  32.041   6.288
 6061POPC   C2B76460  27.560  31.942   6.654
 6061POPC   C3B76461  27.711  32.057   7.031
 6061POPC   C4B76462  27.883  32.411   7.199
 6062POPC   NC376463  31.420  25.239   5.276
 6062POPC   PO476464  31.919  25.500   5.647
 6062POPC   GL176465  31.578  25.454   5.876
 6062POPC   GL276466  31.551  25.102   5.786
 6062POPC   C1A76467  31.544  25.294   6.290
 6062POPC   D2A76468  31.617  24.962   6.595
 6062POPC   C3A76469  31.383  25.137   6.929
 6062POPC   C4A76470  31.341  25.541   7.124
 6062POPC   C1B76471  31.226  24.947   6.076
 6062POPC   C2B76472  31.047  24.966   6.476
 6062POPC   C3B76473  30.879  25.008   6.873
 6062POPC   C4B76474  31.011  25.122   7.286
 6063POPC   NC376475  31.551  18.544   5.544
 6063POPC   PO476476  31.305  17.949   5.584
 6063POPC   GL176477  31.489  18.168   5.910
 6063POPC   GL276478  31.833  18.207   5.860
 6063POPC   C1A76479  31.411  18.227   6.334
 6063POPC   D2A76480  31.597  18.114   6.715
 6063POPC   C3A76481  31.330  18.180   7.033
 6063POPC   C4A76482  31.348  17.944   7.424
 6063POPC   C1B76483  31.815  18.495   6.199
 6063POPC   C2B76484  31.630  18.627   6.612
 6063POPC   C3B76485  31.732  18.514   7.038
 6063POPC   C4B76486  31.789  18.157   7.294
 6064POPC   NC376487  31.673  32.917   5.124
 6064POPC   PO476488  31.572  32.340   5.382
 6064POPC   GL176489  31.410  32.286   5.836
 6064POPC   GL276490  31.138  32.004   5.930
 6064POPC   C1A76491  31.373  32.317   6.279
 6064POPC   D2A76492  31.484  32.090   6.634
 6064POPC   C3A76493  31.423  32.353   6.952
 6064POPC   C4A76494  31.611  32.463   7.314
 6064POPC   C1B76495  31.035  31.910   6.396
 6064POPC   C2B76496  31.069  31.901   6.873
 6064POPC   C3B76497  31.273  31.992   7.269
 6064POPC   C4B76498  31.064  31.994   7.704
 6065POPC   NC376499  44.081  39.907   5.249
 6065POPC   PO476500  44.692  40.086   5.407
 6065POPC   GL176501  44.626  40.015   5.787
 6065POPC   GL276502  44.283  40.141   5.787
 6065POPC   C1A76503  44.827  40.123   6.176
 6065POPC   D2A76504  44.860  40.403   6.518
 6065POPC   C3A76505  44.899  40.264   6.922
 6065POPC   C4A76506  44.826  40.178   7.313
 6065POPC   C1B76507  44.341  39.948   6.183
 6065POPC   C2B76508  44.531  39.991   6.581
 6065POPC   C3B76509  44.626  39.821   6.958
 6065POPC   C4B76510  44.349  39.930   7.249
 6066POPC   NC376511  27.422   7.254   5.390
 6066POPC   PO476512  28.035   7.537   5.490
 6066POPC   GL176513  27.670   7.610   5.777
 6066POPC   GL276514  27.340   7.465   5.878
 6066POPC   C1A76515  27.745   7.527   6.219
 6066POPC   D2A76516  27.606   7.475   6.644
 6066POPC   C3A76517  27.900   7.628   6.939
 6066POPC   C4A76518  27.961   7.526   7.363
 6066POPC   C1B76519  27.353   7.197   6.252
 6066POPC   C2B76520  27.519   6.960   6.601
 6066POPC   C3B76521  27.516   7.119   7.022
 6066POPC   C4B76522  27.728   7.094   7.380
 6067POPC   NC376523  41.816  15.714   5.629
 6067POPC   PO476524  41.292  16.128   5.605
 6067POPC   GL176525  41.588  16.110   5.921
 6067POPC   GL276526  41.444  15.791   5.978
 6067POPC   C1A76527  41.569  16.132   6.374
 6067POPC   D2A76528  41.304  16.072   6.740
 6067POPC   C3A76529  41.438  16.113   7.174
 6067POPC   C4A76530  41.261  16.178   7.629
 6067POPC   C1B76531  41.737  15.637   6.270
 6067POPC   C2B76532  41.763  15.719   6.680
 6067POPC   C3B76533  41.877  15.460   7.015
 6067POPC   C4B76534  41.902  15.851   7.229
 6068POPC   NC376535   5.578  29.841   5.553
 6068POPC   PO476536   4.871  29.855   5.506
 6068POPC   GL176537   5.060  30.075   5.838
 6068POPC   GL276538   5.278  30.363   5.825
 6068POPC   C1A76539   5.122  30.054   6.271
 6068POPC   D2A76540   5.137  29.716   6.564
 6068POPC   C3A76541   4.872  29.888   6.858
 6068POPC   C4A76542   4.867  30.243   7.087
 6068POPC   C1B76543   5.599  30.179   6.150
 6068POPC   C2B76544   5.634  29.989   6.559
 6068POPC   C3B76545   5.360  30.049   6.919
 6068POPC   C4B76546   5.168  29.857   7.275
 6069POPC   NC376547  41.858  42.050   5.627
 6069POPC   PO476548  41.384  42.492   5.423
 6069POPC   GL176549  41.485  42.402   5.825
 6069POPC   GL276550  41.405  42.056   5.819
 6069POPC   C1A76551  41.624  42.589   6.216
 6069POPC   D2A76552  41.458  42.705   6.618
 6069POPC   C3A76553  41.683  42.638   7.003
 6069POPC   C4A76554  41.416  42.569   7.332
 6069POPC   C1B76555  41.593  42.063   6.241
 6069POPC   C2B76556  41.756  42.252   6.619
 6069POPC   C3B76557  41.556  42.148   7.007
 6069POPC   C4B76558  41.544  41.790   7.239
 6070POPC   NC376559   1.218  17.938   5.570
 6070POPC   PO476560   1.437  18.587   5.555
 6070POPC   GL176561   1.234  18.529   5.949
 6070POPC   GL276562   1.170  18.154   6.014
 6070POPC   C1A76563   1.043  18.479   6.365
 6070POPC   D2A76564   1.079  18.072   6.596
 6070POPC   C3A76565   1.035  18.148   7.025
 6070POPC   C4A76566   1.230  18.439   7.243
 6070POPC   C1B76567   1.454  17.879   6.241
 6070POPC   C2B76568   1.609  18.002   6.628
 6070POPC   C3B76569   1.600  18.133   7.043
 6070POPC   C4B76570   1.410  17.970   7.380
 6071POPC   NC376571  40.911  23.088   5.250
 6071POPC   PO476572  40.741  22.557   5.460
 6071POPC   GL176573  40.662  22.774   5.861
 6071POPC   GL276574  40.435  23.082   5.823
 6071POPC   C1A76575  40.997  22.912   6.160
 6071POPC   D2A76576  41.192  23.114   6.528
 6071POPC   C3A76577  41.017  22.979   6.917
 6071POPC   C4A76578  40.963  22.779   7.313
 6071POPC   C1B76579  40.559  23.205   6.263
 6071POPC   C2B76580  40.642  23.278   6.719
 6071POPC   C3B76581  40.608  23.147   7.170
 6071POPC   C4B76582  40.646  23.042   7.631
 6072POPC   NC376583  17.708  18.590   5.119
 6072POPC   PO476584  17.327  18.057   5.249
 6072POPC   GL176585  17.368  18.057   5.674
 6072POPC   GL276586  17.396  18.401   5.757
 6072POPC   C1A76587  17.351  18.006   6.122
 6072POPC   D2A76588  17.565  18.063   6.507
 6072POPC   C3A76589  17.406  17.945   6.912
 6072POPC   C4A76590  17.705  18.130   7.170
 6072POPC   C1B76591  17.311  18.528   6.188
 6072POPC   C2B76592  17.187  18.442   6.614
 6072POPC   C3B76593  17.277  18.410   7.076
 6072POPC   C4B76594  17.353  18.313   7.536
 6073POPC   NC376595  31.795   0.385   5.447
 6073POPC   PO476596  32.418   0.474   5.417
 6073POPC   GL176597  32.278   0.437   5.870
 6073POPC   GL276598  31.946   0.272   5.926
 6073POPC   C1A76599  32.306   0.206   6.304
 6073POPC   D2A76600  32.137   0.352   6.724
 6073POPC   C3A76601  32.304   0.296   7.140
 6073POPC   C4A76602  32.467   0.290   7.555
 6073POPC   C1B76603  31.948   0.584   6.282
 6073POPC   C2B76604  31.790   0.741   6.676
 6073POPC   C3B76605  31.967   0.721   7.090
 6073POPC   C4B76606  31.985   0.474   7.499
 6074POPC   NC376607  29.379  14.813   5.323
 6074POPC   PO476608  29.043  14.244   5.505
 6074POPC   GL176609  29.283  14.267   5.875
 6074POPC   GL276610  29.306  14.604   5.821
 6074POPC   C1A76611  29.123  14.081   6.244
 6074POPC   D2A76612  28.897  14.156   6.586
 6074POPC   C3A76613  29.139  14.281   6.926
 6074POPC   C4A76614  29.500  14.099   7.179
 6074POPC   C1B76615  29.145  14.592   6.260
 6074POPC   C2B76616  29.096  14.873   6.606
 6074POPC   C3B76617  29.098  14.798   7.038
 6074POPC   C4B76618  29.246  14.552   7.340
 6075POPC   NC376619   4.062   8.994   5.424
 6075POPC   PO476620   4.561   9.201   5.839
 6075POPC   GL176621   4.150   9.088   5.973
 6075POPC   GL276622   4.098   8.760   5.985
 6075POPC   C1A76623   4.073   8.980   6.441
 6075POPC   D2A76624   4.463   8.844   6.680
 6075POPC   C3A76625   4.424   8.845   7.109
 6075POPC   C4A76626   4.256   9.180   7.393
 6075POPC   C1B76627   4.205   8.502   6.358
 6075POPC   C2B76628   4.071   8.558   6.803
 6075POPC   C3B76629   3.945   8.758   7.199
 6075POPC   C4B76630   4.217   8.732   7.611
 6076POPC   NC376631   3.158  28.895   5.591
 6076POPC   PO476632   3.059  29.488   5.562
 6076POPC   GL176633   2.951  29.233   5.907
 6076POPC   GL276634   2.707  29.457   5.973
 6076POPC   C1A76635   2.791  29.079   6.315
 6076POPC   D2A76636   2.430  29.137   6.597
 6076POPC   C3A76637   2.566  29.195   7.047
 6076POPC   C4A76638   2.902  28.925   7.238
 6076POPC   C1B76639   3.003  29.555   6.311
 6076POPC   C2B76640   2.912  29.402   6.722
 6076POPC   C3B76641   3.039  29.397   7.145
 6076POPC   C4B76642   3.052  29.293   7.591
 6077POPC   NC376643  13.998  10.082   5.488
 6077POPC   PO476644  13.438   9.815   5.324
 6077POPC   GL176645  13.671   9.784   5.751
 6077POPC   GL276646  13.455   9.975   5.843
 6077POPC   C1A76647  13.880   9.936   6.186
 6077POPC   D2A76648  14.085   9.838   6.608
 6077POPC   C3A76649  13.931   9.501   6.837
 6077POPC   C4A76650  13.698   9.730   7.130
 6077POPC   C1B76651  13.437   9.693   6.209
 6077POPC   C2B76652  13.516   9.827   6.655
 6077POPC   C3B76653  13.202   9.825   7.017
 6077POPC   C4B76654  13.194  10.017   7.427
 6078POPC   NC376655  27.017  11.205   5.422
 6078POPC   PO476656  26.399  11.205   5.219
 6078POPC   GL176657  26.627  11.467   5.669
 6078POPC   GL276658  26.971  11.329   5.887
 6078POPC   C1A76659  26.709  11.640   6.138
 6078POPC   D2A76660  26.975  11.531   6.480
 6078POPC   C3A76661  26.683  11.413   6.806
 6078POPC   C4A76662  26.663  11.564   7.208
 6078POPC   C1B76663  27.171  10.987   6.151
 6078POPC   C2B76664  27.345  11.115   6.548
 6078POPC   C3B76665  27.128  11.218   6.917
 6078POPC   C4B76666  26.934  11.142   7.301
 6079POPC   NC376667  21.243  21.515   5.561
 6079POPC   PO476668  20.577  21.338   5.423
 6079POPC   GL176669  20.612  21.428   5.809
 6079POPC   GL276670  20.784  21.131   5.885
 6079POPC   C1A76671  20.428  21.434   6.208
 6079POPC   D2A76672  20.582  21.275   6.596
 6079POPC   C3A76673  20.408  21.479   6.971
 6079POPC   C4A76674  20.450  21.188   7.299
 6079POPC   C1B76675  20.949  21.415   6.218
 6079POPC   C2B76676  20.906  21.668   6.632
 6079POPC   C3B76677  20.914  21.449   7.047
 6079POPC   C4B76678  20.912  21.248   7.509
 6080POPC   NC376679  12.749  11.010   5.647
 6080POPC   PO476680  12.750  10.527   5.187
 6080POPC   GL176681  12.819  10.437   5.713
 6080POPC   GL276682  12.575  10.605   5.921
 6080POPC   C1A76683  12.954  10.447   6.216
 6080POPC   D2A76684  12.757  10.478   6.652
 6080POPC   C3A76685  12.916  10.352   7.072
 6080POPC   C4A76686  12.867  10.386   7.500
 6080POPC   C1B76687  12.707  10.882   6.281
 6080POPC   C2B76688  12.781  11.018   6.690
 6080POPC   C3B76689  12.642  10.815   7.040
 6080POPC   C4B76690  12.439  10.487   7.257
 6081POPC   NC376691  12.888  44.901   5.355
 6081POPC   PO476692  13.001   0.499   5.249
 6081POPC   GL176693  12.846   0.595   5.693
 6081POPC   GL276694  12.776   0.268   5.846
 6081POPC   C1A76695  12.702   0.729   6.123
 6081POPC   D2A76696  12.868   0.426   6.485
 6081POPC   C3A76697  12.877   0.552   6.943
 6081POPC   C4A76698  12.553   0.390   7.234
 6081POPC   C1B76699  13.153   0.126   6.100
 6081POPC   C2B76700  13.332   0.167   6.507
 6081POPC   C3B76701  13.112   0.098   6.878
 6081POPC   C4B76702  13.178   0.174   7.285
 6082POPC   NC376703   1.074  28.542   5.423
 6082POPC   PO476704   1.778  28.530   5.483
 6082POPC   GL176705   1.423  28.487   5.804
 6082POPC   GL276706   1.260  28.153   5.801
 6082POPC   C1A76707   1.239  28.427   6.229
 6082POPC   D2A76708   1.340  28.050   6.470
 6082POPC   C3A76709   1.497  28.227   6.823
 6082POPC   C4A76710   1.286  28.644   6.893
 6082POPC   C1B76711   0.942  28.016   6.105
 6082POPC   C2B76712   0.794  28.231   6.455
 6082POPC   C3B76713   0.985  28.204   6.812
 6082POPC   C4B76714   1.188  28.107   7.182
 6083POPC   NC376715  38.253  16.902   5.154
 6083POPC   PO476716  38.739  16.472   5.296
 6083POPC   GL176717  38.470  16.604   5.672
 6083POPC   GL276718  38.102  16.512   5.625
 6083POPC   C1A76719  38.545  16.781   6.124
 6083POPC   D2A76720  38.796  16.645   6.490
 6083POPC   C3A76721  38.595  16.649   6.866
 6083POPC   C4A76722  38.507  16.919   7.213
 6083POPC   C1B76723  38.097  16.491   6.090
 6083POPC   C2B76724  38.173  16.677   6.490
 6083POPC   C3B76725  38.088  16.787   6.919
 6083POPC   C4B76726  38.059  16.537   7.265
 6084POPC   NC376727  29.482  21.668   5.313
 6084POPC   PO476728  30.174  21.631   5.335
 6084POPC   GL176729  29.855  21.384   5.597
 6084POPC   GL276730  29.843  21.680   5.794
 6084POPC   C1A76731  29.734  21.264   6.064
 6084POPC   D2A76732  29.762  21.370   6.499
 6084POPC   C3A76733  29.942  21.168   6.871
 6084POPC   C4A76734  30.010  21.168   7.322
 6084POPC   C1B76735  29.830  21.855   6.232
 6084POPC   C2B76736  30.042  21.775   6.630
 6084POPC   C3B76737  30.094  21.859   7.063
 6084POPC   C4B76738  29.826  21.627   7.325
 6085POPC   NC376739  28.166  40.590   5.357
 6085POPC   PO476740  28.854  40.666   5.421
 6085POPC   GL176741  28.520  40.556   5.724
 6085POPC   GL276742  28.295  40.865   5.776
 6085POPC   C1A76743  28.422  40.382   6.121
 6085POPC   D2A76744  28.419  40.588   6.539
 6085POPC   C3A76745  28.469  40.433   6.950
 6085POPC   C4A76746  28.452  40.629   7.346
 6085POPC   C1B76747  28.469  40.960   6.173
 6085POPC   C2B76748  28.319  41.076   6.571
 6085POPC   C3B76749  28.439  40.970   6.963
 6085POPC   C4B76750  28.475  41.172   7.344
 6086POPC   NC376751  13.120   1.788   5.212
 6086POPC   PO476752  12.502   2.090   5.062
 6086POPC   GL176753  12.612   1.877   5.561
 6086POPC   GL276754  12.944   1.950   5.759
 6086POPC   C1A76755  12.575   1.839   6.089
 6086POPC   D2A76756  12.768   2.093   6.488
 6086POPC   C3A76757  12.761   1.967   6.960
 6086POPC   C4A76758  12.460   1.866   7.293
 6086POPC   C1B76759  13.073   1.727   6.166
 6086POPC   C2B76760  12.919   1.587   6.569
 6086POPC   C3B76761  13.108   1.581   6.982
 6086POPC   C4B76762  13.266   1.912   7.231
 6087POPC   NC376763   6.246  34.552   5.263
 6087POPC   PO476764   6.800  34.885   5.239
 6087POPC   GL176765   6.539  34.793   5.620
 6087POPC   GL276766   6.684  35.009   5.767
 6087POPC   C1A76767   6.575  34.595   6.082
 6087POPC   D2A76768   6.461  34.371   6.490
 6087POPC   C3A76769   6.666  34.454   6.896
 6087POPC   C4A76770   6.518  34.386   7.345
 6087POPC   C1B76771   6.860  35.019   6.168
 6087POPC   C2B76772   6.934  34.768   6.512
 6087POPC   C3B76773   6.868  34.942   6.892
 6087POPC   C4B76774   6.827  34.783   7.277
 6088POPC   NC376775  43.456  44.711   5.675
 6088POPC   PO476776  42.843  44.573   5.447
 6088POPC   GL176777  42.979  44.498   5.900
 6088POPC   GL276778  43.097  44.801   6.061
 6088POPC   C1A76779  42.886  44.506   6.391
 6088POPC   D2A76780  43.192  44.799   6.637
 6088POPC   C3A76781  43.100  44.817   7.055
 6088POPC   C4A76782  42.763  44.513   7.080
 6088POPC   C1B76783  43.396  44.485   6.289
 6088POPC   C2B76784  43.447  44.326   6.744
 6088POPC   C3B76785  43.261  44.363   7.185
 6088POPC   C4B76786  43.329  44.511   7.623
 6089POPC   NC376787  20.094  25.983   5.525
 6089POPC   PO476788  19.420  26.012   5.630
 6089POPC   GL176789  19.721  25.948   5.899
 6089POPC   GL276790  19.889  26.282   5.893
 6089POPC   C1A76791  19.657  26.098   6.316
 6089POPC   D2A76792  19.899  26.319   6.607
 6089POPC   C3A76793  19.771  26.199   6.994
 6089POPC   C4A76794  19.722  25.808   7.160
 6089POPC   C1B76795  20.171  26.109   6.219
 6089POPC   C2B76796  20.232  25.931   6.664
 6089POPC   C3B76797  20.251  25.857   7.128
 6089POPC   C4B76798  20.052  25.985   7.521
 6090POPC   NC376799   2.154  26.456   5.439
 6090POPC   PO476800   1.708  25.950   5.548
 6090POPC   GL176801   1.924  26.034   5.884
 6090POPC   GL276802   2.242  26.160   5.841
 6090POPC   C1A76803   2.055  25.917   6.247
 6090POPC   D2A76804   2.365  25.885   6.519
 6090POPC   C3A76805   2.148  25.769   6.860
 6090POPC   C4A76806   2.247  25.796   7.269
 6090POPC   C1B76807   2.220  26.385   6.207
 6090POPC   C2B76808   2.048  26.291   6.610
 6090POPC   C3B76809   2.266  26.241   6.948
 6090POPC   C4B76810   2.105  26.410   7.260
 6091POPC   NC376811  29.784  31.008   5.345
 6091POPC   PO476812  30.359  30.625   5.444
 6091POPC   GL176813  29.978  30.646   5.750
 6091POPC   GL276814  29.858  30.980   5.835
 6091POPC   C1A76815  29.801  30.605   6.182
 6091POPC   D2A76816  30.029  30.771   6.524
 6091POPC   C3A76817  30.118  30.500   6.867
 6091POPC   C4A76818  29.832  30.542   7.196
 6091POPC   C1B76819  29.706  31.142   6.196
 6091POPC   C2B76820  29.535  30.988   6.566
 6091POPC   C3B76821  29.763  30.964   6.920
 6091POPC   C4B76822  29.870  31.142   7.277
 6092POPC   NC376823  39.403  19.912   5.358
 6092POPC   PO476824  38.752  19.975   5.513
 6092POPC   GL176825  39.094  19.895   5.788
 6092POPC   GL276826  39.246  20.185   5.763
 6092POPC   C1A76827  39.318  19.806   6.203
 6092POPC   D2A76828  39.404  19.446   6.527
 6092POPC   C3A76829  39.319  19.560   6.970
 6092POPC   C4A76830  38.942  19.595   7.228
 6092POPC   C1B76831  39.107  20.293   6.142
 6092POPC   C2B76832  39.263  20.241   6.551
 6092POPC   C3B76833  39.039  20.223   6.937
 6092POPC   C4B76834  39.256  20.078   7.283
 6093POPC   NC376835  25.344  22.887   5.509
 6093POPC   PO476836  24.773  23.160   5.355
 6093POPC   GL176837  25.016  23.187   5.792
 6093POPC   GL276838  25.098  22.886   5.953
 6093POPC   C1A76839  25.292  23.283   6.199
 6093POPC   D2A76840  25.118  23.258   6.555
 6093POPC   C3A76841  25.169  23.322   6.962
 6093POPC   C4A76842  25.129  23.068   7.329
 6093POPC   C1B76843  25.368  22.791   6.319
 6093POPC   C2B76844  25.410  22.880   6.736
 6093POPC   C3B76845  25.135  22.706   6.994
 6093POPC   C4B76846  25.179  22.505   7.354
 6094POPC   NC376847  26.366  37.917   5.213
 6094POPC   PO476848  26.905  37.778   5.514
 6094POPC   GL176849  26.880  37.647   5.902
 6094POPC   GL276850  26.901  37.981   5.986
 6094POPC   C1A76851  26.906  37.471   6.308
 6094POPC   D2A76852  26.885  37.820   6.569
 6094POPC   C3A76853  26.758  37.746   7.001
 6094POPC   C4A76854  26.885  37.526   7.382
 6094POPC   C1B76855  27.156  38.199   6.241
 6094POPC   C2B76856  27.405  38.167   6.601
 6094POPC   C3B76857  27.196  38.039   6.955
 6094POPC   C4B76858  27.051  37.994   7.396
 6095POPC   NC376859  30.410  21.982   5.513
 6095POPC   PO476860  29.704  22.115   5.415
 6095POPC   GL176861  29.703  22.189   5.836
 6095POPC   GL276862  29.427  21.977   5.830
 6095POPC   C1A76863  29.923  22.379   6.205
 6095POPC   D2A76864  30.112  22.268   6.622
 6095POPC   C3A76865  30.200  22.487   7.019
 6095POPC   C4A76866  30.092  22.278   7.380
 6095POPC   C1B76867  29.353  22.138   6.227
 6095POPC   C2B76868  29.595  22.207   6.562
 6095POPC   C3B76869  29.625  21.989   6.919
 6095POPC   C4B76870  29.617  22.081   7.335
 6096POPC   NC376871  44.219  20.299   5.540
 6096POPC   PO476872  43.937  20.902   5.523
 6096POPC   GL176873  43.892  20.620   5.849
 6096POPC   GL276874  43.780  20.258   5.834
 6096POPC   C1A76875  43.692  20.584   6.232
 6096POPC   D2A76876  43.670  20.389   6.607
 6096POPC   C3A76877  43.545  20.688   6.923
 6096POPC   C4A76878  43.632  20.779   7.349
 6096POPC   C1B76879  44.084  20.220   6.178
 6096POPC   C2B76880  44.144  20.180   6.605
 6096POPC   C3B76881  44.048  20.479   6.930
 6096POPC   C4B76882  44.124  20.627   7.317
 6097POPC   NC376883  14.117   9.179   5.372
 6097POPC   PO476884  14.632   8.776   5.483
 6097POPC   GL176885  14.575   8.933   5.860
 6097POPC   GL276886  14.229   8.930   5.865
 6097POPC   C1A76887  14.506   9.097   6.257
 6097POPC   D2A76888  14.324   8.959   6.632
 6097POPC   C3A76889  14.289   9.131   7.007
 6097POPC   C4A76890  14.564   9.226   7.351
 6097POPC   C1B76891  13.979   8.876   6.255
 6097POPC   C2B76892  13.801   8.928   6.695
 6097POPC   C3B76893  13.913   8.775   7.120
 6097POPC   C4B76894  14.125   8.982   7.486
 6098POPC   NC376895  14.535   1.433   5.513
 6098POPC   PO476896  13.967   1.155   5.391
 6098POPC   GL176897  14.139   1.218   5.791
 6098POPC   GL276898  14.448   1.031   5.817
 6098POPC   C1A76899  14.301   1.399   6.177
 6098POPC   D2A76900  14.433   1.612   6.526
 6098POPC   C3A76901  14.281   1.360   6.855
 6098POPC   C4A76902  14.259   1.396   7.278
 6098POPC   C1B76903  14.430   0.887   6.240
 6098POPC   C2B76904  14.553   0.950   6.679
 6098POPC   C3B76905  14.377   0.877   7.094
 6098POPC   C4B76906  14.564   0.961   7.484
 6099POPC   NC376907   1.579  13.668   5.583
 6099POPC   PO476908   2.133  13.424   5.258
 6099POPC   GL176909   2.060  13.417   5.734
 6099POPC   GL276910   2.028  13.780   5.826
 6099POPC   C1A76911   1.900  13.403   6.193
 6099POPC   D2A76912   1.656  13.279   6.619
 6099POPC   C3A76913   1.762  13.458   7.050
 6099POPC   C4A76914   1.977  13.354   7.466
 6099POPC   C1B76915   1.807  13.908   6.220
 6099POPC   C2B76916   1.907  14.090   6.606
 6099POPC   C3B76917   1.978  13.938   7.003
 6099POPC   C4B76918   2.078  13.833   7.417
 6100POPC   NC376919  21.257   9.172   5.341
 6100POPC   PO476920  21.609   8.596   5.406
 6100POPC   GL176921  21.398   8.834   5.738
 6100POPC   GL276922  21.591   9.150   5.767
 6100POPC   C1A76923  21.141   8.763   6.120
 6100POPC   D2A76924  21.020   8.912   6.531
 6100POPC   C3A76925  21.182   8.784   6.884
 6100POPC   C4A76926  21.171   8.972   7.221
 6100POPC   C1B76927  21.653   8.924   6.173
 6100POPC   C2B76928  21.530   9.001   6.561
 6100POPC   C3B76929  21.526   9.190   6.947
 6100POPC   C4B76930  21.694   9.175   7.364
 6101POPC   NC376931   6.282   9.984   5.378
 6101POPC   PO476932   6.841   9.542   5.373
 6101POPC   GL176933   6.619   9.741   5.727
 6101POPC   GL276934   6.692  10.110   5.796
 6101POPC   C1A76935   6.658   9.726   6.179
 6101POPC   D2A76936   6.878   9.500   6.506
 6101POPC   C3A76937   6.714   9.491   6.912
 6101POPC   C4A76938   6.916   9.414   7.326
 6101POPC   C1B76939   6.769  10.221   6.248
 6101POPC   C2B76940   6.779  10.007   6.665
 6101POPC   C3B76941   6.584   9.936   7.110
 6101POPC   C4B76942   6.446  10.171   7.495
 6102POPC   NC376943  17.136  25.224   5.535
 6102POPC   PO476944  16.508  25.077   5.356
 6102POPC   GL176945  16.644  25.288   5.761
 6102POPC   GL276946  16.664  24.986   5.981
 6102POPC   C1A76947  16.879  25.392   6.190
 6102POPC   D2A76948  16.835  25.553   6.631
 6102POPC   C3A76949  16.937  25.259   6.991
 6102POPC   C4A76950  16.852  25.043   7.379
 6102POPC   C1B76951  16.350  25.312   6.193
 6102POPC   C2B76952  16.234  25.499   6.622
 6102POPC   C3B76953  16.458  25.472   7.045
 6102POPC   C4B76954  16.620  25.515   7.501
 6103POPC   NC376955  23.187  28.609   5.635
 6103POPC   PO476956  22.742  28.193   5.448
 6103POPC   GL176957  22.866  28.253   5.866
 6103POPC   GL276958  22.743  28.582   5.918
 6103POPC   C1A76959  22.992  28.014   6.257
 6103POPC   D2A76960  23.124  27.880   6.681
 6103POPC   C3A76961  23.052  28.236   6.939
 6103POPC   C4A76962  22.932  28.281   7.343
 6103POPC   C1B76963  22.965  28.524   6.300
 6103POPC   C2B76964  22.755  28.542   6.653
 6103POPC   C3B76965  22.758  28.684   7.049
 6103POPC   C4B76966  23.169  28.710   7.208
 6104POPC   NC376967  11.804   6.485   5.554
 6104POPC   PO476968  11.188   6.390   5.448
 6104POPC   GL176969  11.327   6.506   5.831
 6104POPC   GL276970  11.386   6.854   5.891
 6104POPC   C1A76971  11.150   6.573   6.245
 6104POPC   D2A76972  11.323   6.784   6.590
 6104POPC   C3A76973  11.123   6.549   6.884
 6104POPC   C4A76974  11.080   6.673   7.278
 6104POPC   C1B76975  11.651   6.603   6.220
 6104POPC   C2B76976  11.787   6.530   6.627
 6104POPC   C3B76977  11.609   6.646   7.025
 6104POPC   C4B76978  11.544   6.659   7.448
 6105POPC   NC376979  20.539   9.573   5.306
 6105POPC   PO476980  20.942  10.043   5.240
 6105POPC   GL176981  20.831   9.872   5.679
 6105POPC   GL276982  20.641   9.530   5.808
 6105POPC   C1A76983  20.764   9.904   6.134
 6105POPC   D2A76984  20.491   9.899   6.473
 6105POPC   C3A76985  20.675   9.790   6.857
 6105POPC   C4A76986  20.468   9.973   7.179
 6105POPC   C1B76987  20.348   9.431   6.177
 6105POPC   C2B76988  20.211   9.500   6.620
 6105POPC   C3B76989  20.355   9.421   7.035
 6105POPC   C4B76990  20.702   9.459   7.309
 6106POPC   NC376991   7.510  44.376   5.584
 6106POPC   PO476992   7.241  44.991   5.472
 6106POPC   GL176993   7.252  44.767   5.872
 6106POPC   GL276994   7.604  44.727   5.971
 6106POPC   C1A76995   7.231  44.853   6.331
 6106POPC   D2A76996   7.308  44.635   6.737
 6106POPC   C3A76997   7.275  44.779   7.183
 6106POPC   C4A76998   7.259  44.545   7.589
 6106POPC   C1B76999   7.519  44.409   6.284
 6106POPC   C2B77000   7.733  44.293   6.660
 6106POPC   C3B77001   7.571  44.316   7.061
 6106POPC   C4B77002   7.727  44.574   7.371
 6107POPC   NC377003  33.127   6.859   5.604
 6107POPC   PO477004  33.036   7.559   5.550
 6107POPC   GL177005  32.912   7.276   5.861
 6107POPC   GL277006  33.219   7.153   6.031
 6107POPC   C1A77007  32.785   7.404   6.258
 6107POPC   D2A77008  33.003   7.729   6.483
 6107POPC   C3A77009  32.941   7.726   6.914
 6107POPC   C4A77010  32.879   7.763   7.347
 6107POPC   C1B77011  33.199   7.215   6.495
 6107POPC   C2B77012  32.812   7.153   6.744
 6107POPC   C3B77013  32.864   7.272   7.166
 6107POPC   C4B77014  33.291   7.448   7.160
 6108POPC   NC377015  21.682  44.617   5.265
 6108POPC   PO477016  21.086  44.516   5.501
 6108POPC   GL177017  21.405  44.539   5.789
 6108POPC   GL277018  21.658  44.281   5.656
 6108POPC   C1A77019  21.318  44.586   6.270
 6108POPC   D2A77020  21.375  44.861   6.664
 6108POPC   C3A77021  21.322  44.785   7.135
 6108POPC   C4A77022  21.397  44.816   7.612
 6108POPC   C1B77023  21.733  44.256   6.096
 6108POPC   C2B77024  21.620  44.238   6.515
 6108POPC   C3B77025  21.670  44.434   6.906
 6108POPC   C4B77026  21.921  44.265   7.208
 6109POPC   NC377027  10.334  42.609   5.395
 6109POPC   PO477028  10.849  42.199   5.546
 6109POPC   GL177029  10.640  42.450   5.814
 6109POPC   GL277030  10.325  42.293   5.831
 6109POPC   C1A77031  10.649  42.411   6.258
 6109POPC   D2A77032  10.779  42.471   6.671
 6109POPC   C3A77033  10.575  42.243   6.986
 6109POPC   C4A77034  10.520  42.419   7.370
 6109POPC   C1B77035  10.166  42.538   6.177
 6109POPC   C2B77036  10.273  42.625   6.605
 6109POPC   C3B77037  10.126  42.510   7.058
 6109POPC   C4B77038  10.096  42.629   7.536
 6110POPC   NC377039  22.436   1.593   5.461
 6110POPC   PO477040  23.075   1.258   5.390
 6110POPC   GL177041  23.119   1.266   5.812
 6110POPC   GL277042  22.792   1.390   5.807
 6110POPC   C1A77043  22.943   1.075   6.190
 6110POPC   D2A77044  22.901   1.090   6.633
 6110POPC   C3A77045  23.129   1.279   6.970
 6110POPC   C4A77046  23.158   1.127   7.394
 6110POPC   C1B77047  22.540   1.456   6.132
 6110POPC   C2B77048  22.449   1.376   6.542
 6110POPC   C3B77049  22.626   1.376   6.949
 6110POPC   C4B77050  22.700   0.958   7.094
 6111POPC   NC377051  41.262  41.977   5.116
 6111POPC   PO477052  41.820  41.608   5.462
 6111POPC   GL177053  41.598  41.563   5.836
 6111POPC   GL277054  41.250  41.570   5.700
 6111POPC   C1A77055  41.670  41.552   6.282
 6111POPC   D2A77056  41.546  41.745   6.673
 6111POPC   C3A77057  41.418  41.394   6.920
 6111POPC   C4A77058  41.534  41.291   7.332
 6111POPC   C1B77059  41.134  41.754   6.110
 6111POPC   C2B77060  40.979  41.820   6.533
 6111POPC   C3B77061  41.091  41.820   6.951
 6111POPC   C4B77062  41.086  41.526   7.296
 6112POPC   NC377063  13.526  14.543   5.468
 6112POPC   PO477064  14.051  14.102   5.553
 6112POPC   GL177065  13.750  14.239   5.877
 6112POPC   GL277066  13.370  14.240   5.831
 6112POPC   C1A77067  13.592  14.311   6.302
 6112POPC   D2A77068  13.562  14.501   6.702
 6112POPC   C3A77069  13.659  14.420   7.080
 6112POPC   C4A77070  14.018  14.244   7.243
 6112POPC   C1B77071  13.098  14.245   6.137
 6112POPC   C2B77072  13.112  14.294   6.559
 6112POPC   C3B77073  13.104  14.470   6.955
 6112POPC   C4B77074  13.176  14.400   7.351
 6113POPC   NC377075  27.816   8.788   5.184
 6113POPC   PO477076  27.212   9.111   5.424
 6113POPC   GL177077  27.550   9.020   5.806
 6113POPC   GL277078  27.780   9.289   5.876
 6113POPC   C1A77079  27.760   8.851   6.229
 6113POPC   D2A77080  27.953   8.790   6.684
 6113POPC   C3A77081  27.744   8.873   7.110
 6113POPC   C4A77082  27.803   8.807   7.572
 6113POPC   C1B77083  27.577   9.308   6.308
 6113POPC   C2B77084  27.682   9.284   6.758
 6113POPC   C3B77085  27.454   9.302   7.129
 6113POPC   C4B77086  27.071   9.314   7.323
 6114POPC   NC377087  36.325  24.428   5.390
 6114POPC   PO477088  35.651  24.298   5.327
 6114POPC   GL177089  35.924  24.304   5.730
 6114POPC   GL277090  36.169  24.539   5.864
 6114POPC   C1A77091  36.057  24.190   6.199
 6114POPC   D2A77092  35.912  24.065   6.642
 6114POPC   C3A77093  35.997  24.413   6.972
 6114POPC   C4A77094  35.935  24.853   7.161
 6114POPC   C1B77095  36.329  24.638   6.286
 6114POPC   C2B77096  36.255  24.774   6.733
 6114POPC   C3B77097  36.454  24.832   7.149
 6114POPC   C4B77098  36.732  24.824   7.556
 6115POPC   NC377099  19.888  22.416   5.346
 6115POPC   PO477100  19.810  23.094   5.370
 6115POPC   GL177101  19.780  22.913   5.762
 6115POPC   GL277102  20.085  22.713   5.741
 6115POPC   C1A77103  19.816  23.088   6.189
 6115POPC   D2A77104  19.675  23.269   6.589
 6115POPC   C3A77105  19.880  23.104   6.932
 6115POPC   C4A77106  19.739  22.893   7.303
 6115POPC   C1B77107  20.045  22.633   6.181
 6115POPC   C2B77108  20.165  22.803   6.584
 6115POPC   C3B77109  20.019  22.626   6.973
 6115POPC   C4B77110  20.116  22.515   7.407
 6116POPC   NC377111  23.988   4.127   5.550
 6116POPC   PO477112  23.410   3.779   5.517
 6116POPC   GL177113  23.554   4.097   5.839
 6116POPC   GL277114  23.582   4.466   5.773
 6116POPC   C1A77115  23.791   4.202   6.213
 6116POPC   D2A77116  23.713   4.043   6.617
 6116POPC   C3A77117  23.919   4.230   6.953
 6116POPC   C4A77118  23.796   4.233   7.387
 6116POPC   C1B77119  23.438   4.612   6.187
 6116POPC   C2B77120  23.547   4.530   6.591
 6116POPC   C3B77121  23.394   4.685   6.956
 6116POPC   C4B77122  23.553   4.689   7.335
 6117POPC   NC377123  32.601  20.497   5.385
 6117POPC   PO477124  33.103  20.930   5.291
 6117POPC   GL177125  32.915  20.862   5.730
 6117POPC   GL277126  32.887  20.495   5.803
 6117POPC   C1A77127  32.775  20.798   6.186
 6117POPC   D2A77128  32.988  20.691   6.569
 6117POPC   C3A77129  32.972  20.584   6.997
 6117POPC   C4A77130  33.307  20.683   7.325
 6117POPC   C1B77131  32.974  20.322   6.210
 6117POPC   C2B77132  32.962  20.074   6.564
 6117POPC   C3B77133  33.064  20.071   6.976
 6117POPC   C4B77134  33.081  20.231   7.348
 6118POPC   NC377135  20.506   3.960   5.533
 6118POPC   PO477136  20.289   3.279   5.455
 6118POPC   GL177137  20.546   3.525   5.811
 6118POPC   GL277138  20.461   3.836   6.039
 6118POPC   C1A77139  20.850   3.486   6.148
 6118POPC   D2A77140  20.750   3.328   6.559
 6118POPC   C3A77141  20.681   3.593   6.895
 6118POPC   C4A77142  20.793   3.368   7.229
 6118POPC   C1B77143  20.339   3.556   6.371
 6118POPC   C2B77144  20.240   3.355   6.796
 6118POPC   C3B77145  20.320   3.499   7.260
 6118POPC   C4B77146  20.253   3.701   7.745
 6119POPC   NC377147  22.515   7.461   5.603
 6119POPC   PO477148  22.356   6.996   5.118
 6119POPC   GL177149  22.249   7.052   5.629
 6119POPC   GL277150  22.053   7.348   5.798
 6119POPC   C1A77151  22.426   7.145   6.141
 6119POPC   D2A77152  22.192   7.239   6.554
 6119POPC   C3A77153  22.279   7.160   7.027
 6119POPC   C4A77154  22.007   7.342   7.356
 6119POPC   C1B77155  22.204   7.609   6.181
 6119POPC   C2B77156  22.123   7.763   6.571
 6119POPC   C3B77157  22.281   7.853   6.939
 6119POPC   C4B77158  22.458   7.603   7.249
 6120POPC   NC377159  17.516   2.859   5.203
 6120POPC   PO477160  17.962   3.097   5.698
 6120POPC   GL177161  17.645   2.783   5.820
 6120POPC   GL277162  17.348   2.886   5.719
 6120POPC   C1A77163  17.436   2.593   6.189
 6120POPC   D2A77164  17.519   2.817   6.562
 6120POPC   C3A77165  17.612   2.693   6.966
 6120POPC   C4A77166  17.786   2.891   7.329
 6120POPC   C1B77167  17.124   3.000   6.119
 6120POPC   C2B77168  17.007   2.751   6.501
 6120POPC   C3B77169  17.135   2.874   6.907
 6120POPC   C4B77170  17.291   2.906   7.305
 6121POPC   NC377171  32.601   9.223   5.431
 6121POPC   PO477172  32.105   8.724   5.425
 6121POPC   GL177173  32.255   8.863   5.824
 6121POPC   GL277174  32.589   8.951   5.858
 6121POPC   C1A77175  32.182   9.034   6.253
 6121POPC   D2A77176  31.912   9.179   6.610
 6121POPC   C3A77177  32.067   9.231   7.028
 6121POPC   C4A77178  32.422   8.977   7.179
 6121POPC   C1B77179  32.669   8.878   6.262
 6121POPC   C2B77180  32.509   8.934   6.667
 6121POPC   C3B77181  32.807   8.707   6.923
 6121POPC   C4B77182  32.912   8.828   7.313
 6122POPC   NC377183  33.264  28.083   5.497
 6122POPC   PO477184  33.132  27.412   5.462
 6122POPC   GL177185  33.014  27.479   5.863
 6122POPC   GL277186  33.028  27.853   5.888
 6122POPC   C1A77187  33.092  27.366   6.255
 6122POPC   D2A77188  33.328  27.627   6.479
 6122POPC   C3A77189  33.201  27.608   6.895
 6122POPC   C4A77190  33.230  27.689   7.334
 6122POPC   C1B77191  32.717  27.771   6.200
 6122POPC   C2B77192  32.769  27.748   6.630
 6122POPC   C3B77193  32.755  27.811   7.071
 6122POPC   C4B77194  32.701  27.482   7.377
 6123POPC   NC377195  11.856   3.881   5.219
 6123POPC   PO477196  12.274   4.308   5.394
 6123POPC   GL177197  12.154   4.459   5.835
 6123POPC   GL277198  11.818   4.572   5.815
 6123POPC   C1A77199  12.045   4.317   6.251
 6123POPC   D2A77200  12.288   4.260   6.604
 6123POPC   C3A77201  12.131   4.133   6.988
 6123POPC   C4A77202  11.985   4.118   7.414
 6123POPC   C1B77203  11.748   4.748   6.259
 6123POPC   C2B77204  11.897   4.599   6.696
 6123POPC   C3B77205  11.976   4.607   7.176
 6123POPC   C4B77206  11.916   4.590   7.655
 6124POPC   NC377207  16.257  19.075   5.633
 6124POPC   PO477208  15.618  19.307   5.649
 6124POPC   GL177209  15.884  19.188   5.983
 6124POPC   GL277210  15.995  18.859   5.991
 6124POPC   C1A77211  16.020  19.064   6.430
 6124POPC   D2A77212  16.162  18.760   6.748
 6124POPC   C3A77213  16.084  18.976   7.141
 6124POPC   C4A77214  16.076  19.095   7.574
 6124POPC   C1B77215  15.730  18.650   6.299
 6124POPC   C2B77216  15.638  18.818   6.714
 6124POPC   C3B77217  15.646  18.683   7.133
 6124POPC   C4B77218  15.795  18.674   7.571
 6125POPC   NC377219   3.777  26.574   5.175
 6125POPC   PO477220   3.284  26.678   5.563
 6125POPC   GL177221   3.630  26.939   5.792
 6125POPC   GL277222   3.820  26.747   6.081
 6125POPC   C1A77223   3.645  27.234   6.151
 6125POPC   D2A77224   3.817  27.189   6.577
 6125POPC   C3A77225   3.625  27.140   7.013
 6125POPC   C4A77226   3.565  26.741   7.210
 6125POPC   C1B77227   3.374  26.748   6.234
 6125POPC   C2B77228   3.040  26.633   6.512
 6125POPC   C3B77229   3.135  26.720   6.940
 6125POPC   C4B77230   3.048  26.576   7.356
 6126POPC   NC377231   6.338  39.284   5.417
 6126POPC   PO477232   6.933  38.960   5.492
 6126POPC   GL177233   6.709  39.128   5.895
 6126POPC   GL277234   6.392  39.311   5.906
 6126POPC   C1A77235   6.597  39.220   6.362
 6126POPC   D2A77236   6.874  39.074   6.696
 6126POPC   C3A77237   6.767  39.112   7.135
 6126POPC   C4A77238   6.346  38.976   7.154
 6126POPC   C1B77239   6.081  39.565   6.114
 6126POPC   C2B77240   6.241  39.627   6.496
 6126POPC   C3B77241   6.253  39.406   6.870
 6126POPC   C4B77242   6.205  39.627   7.216
 6127POPC   NC377243  34.432  38.202   5.447
 6127POPC   PO477244  34.940  38.669   5.395
 6127POPC   GL177245  34.676  38.540   5.759
 6127POPC   GL277246  34.818  38.252   5.864
 6127POPC   C1A77247  34.516  38.515   6.209
 6127POPC   D2A77248  34.299  38.561   6.599
 6127POPC   C3A77249  34.394  38.767   6.987
 6127POPC   C4A77250  34.648  38.500   7.228
 6127POPC   C1B77251  34.781  38.092   6.274
 6127POPC   C2B77252  34.560  38.066   6.694
 6127POPC   C3B77253  34.732  37.959   7.094
 6127POPC   C4B77254  34.974  38.088   7.420
 6128POPC   NC377255  44.883  13.886   5.479
 6128POPC   PO477256  44.498  13.295   5.351
 6128POPC   GL177257  44.658  13.490   5.743
 6128POPC   GL277258  44.525  13.831   5.845
 6128POPC   C1A77259  44.696  13.423   6.188
 6128POPC   D2A77260  44.426  13.271   6.519
 6128POPC   C3A77261  44.528  13.523   6.841
 6128POPC   C4A77262  44.811  13.442   7.175
 6128POPC   C1B77263  44.787  13.936   6.193
 6128POPC   C2B77264  44.923  13.775   6.591
 6128POPC   C3B77265  44.861  13.917   7.012
 6128POPC   C4B77266  44.884  13.944   7.470
 6129POPC   NC377267  28.797   2.993   5.285
 6129POPC   PO477268  28.775   2.330   5.441
 6129POPC   GL177269  28.960   2.703   5.692
 6129POPC   GL277270  29.304   2.661   5.789
 6129POPC   C1A77271  28.978   2.864   6.152
 6129POPC   D2A77272  28.855   2.769   6.608
 6129POPC   C3A77273  29.065   2.866   6.984
 6129POPC   C4A77274  29.429   3.040   7.124
 6129POPC   C1B77275  29.386   2.561   6.232
 6129POPC   C2B77276  29.392   2.628   6.668
 6129POPC   C3B77277  29.618   2.568   7.058
 6129POPC   C4B77278  29.780   2.592   7.489
 6130POPC   NC377279  40.762   5.873   5.332
 6130POPC   PO477280  41.108   5.659   5.831
 6130POPC   GL177281  40.773   5.939   5.851
 6130POPC   GL277282  40.529   5.657   5.835
 6130POPC   C1A77283  40.843   6.187   6.216
 6130POPC   D2A77284  40.633   6.123   6.588
 6130POPC   C3A77285  40.742   5.900   6.938
 6130POPC   C4A77286  40.971   6.190   7.141
 6130POPC   C1B77287  40.651   5.641   6.296
 6130POPC   C2B77288  40.646   5.352   6.657
 6130POPC   C3B77289  40.540   5.442   7.073
 6130POPC   C4B77290  40.239   5.721   7.212
 6131POPC   NC377291  17.071   0.025   5.534
 6131POPC   PO477292  16.565  44.586   5.314
 6131POPC   GL177293  16.843  44.573   5.665
 6131POPC   GL277294  16.658  44.872   5.794
 6131POPC   C1A77295  16.855  44.501   6.123
 6131POPC   D2A77296  16.592  44.576   6.500
 6131POPC   C3A77297  16.694  44.460   6.911
 6131POPC   C4A77298  16.741  44.240   7.311
 6131POPC   C1B77299  16.794   0.018   6.204
 6131POPC   C2B77300  16.922  44.946   6.626
 6131POPC   C3B77301  16.824  44.943   7.032
 6131POPC   C4B77302  17.011  44.671   7.330
 6132POPC   NC377303  30.851  17.852   5.739
 6132POPC   PO477304  30.718  18.470   5.459
 6132POPC   GL177305  30.634  18.331   5.871
 6132POPC   GL277306  30.395  18.597   5.860
 6132POPC   C1A77307  30.799  18.214   6.312
 6132POPC   D2A77308  30.692  18.230   6.763
 6132POPC   C3A77309  30.861  17.973   7.131
 6132POPC   C4A77310  30.931  18.109   7.589
 6132POPC   C1B77311  30.437  18.666   6.283
 6132POPC   C2B77312  30.214  18.548   6.646
 6132POPC   C3B77313  30.456  18.647   6.988
 6132POPC   C4B77314  30.756  18.459   7.238
 6133POPC   NC377315  23.421  22.671   5.520
 6133POPC   PO477316  23.919  23.085   5.277
 6133POPC   GL177317  23.832  22.949   5.699
 6133POPC   GL277318  23.923  23.220   5.908
 6133POPC   C1A77319  23.644  22.842   6.124
 6133POPC   D2A77320  23.743  23.003   6.547
 6133POPC   C3A77321  23.579  22.775   6.937
 6133POPC   C4A77322  23.663  22.767   7.409
 6133POPC   C1B77323  24.147  23.355   6.274
 6133POPC   C2B77324  24.211  23.195   6.709
 6133POPC   C3B77325  23.957  23.090   7.063
 6133POPC   C4B77326  23.951  23.208   7.529
 6134POPC   NC377327  34.213  32.547   5.519
 6134POPC   PO477328  33.631  32.257   5.446
 6134POPC   GL177329  33.594  32.035   5.840
 6134POPC   GL277330  33.958  32.038   5.798
 6134POPC   C1A77331  33.488  32.188   6.262
 6134POPC   D2A77332  33.543  32.507   6.590
 6134POPC   C3A77333  33.501  32.319   7.002
 6134POPC   C4A77334  33.657  32.314   7.426
 6134POPC   C1B77335  33.974  31.998   6.246
 6134POPC   C2B77336  33.800  32.062   6.665
 6134POPC   C3B77337  33.958  32.032   7.094
 6134POPC   C4B77338  34.244  31.890   7.460
 6135POPC   NC377339  11.702  11.840   5.572
 6135POPC   PO477340  12.222  12.244   5.386
 6135POPC   GL177341  12.306  12.170   5.795
 6135POPC   GL277342  11.952  12.198   5.904
 6135POPC   C1A77343  12.353  12.204   6.230
 6135POPC   D2A77344  12.090  12.279   6.582
 6135POPC   C3A77345  12.351  12.262   6.929
 6135POPC   C4A77346  12.362  12.081   7.318
 6135POPC   C1B77347  11.888  11.925   6.283
 6135POPC   C2B77348  11.827  11.837   6.734
 6135POPC   C3B77349  11.897  11.968   7.163
 6135POPC   C4B77350  11.625  12.081   7.509
 6136POPC   NC377351  31.653  19.212   5.086
 6136POPC   PO477352  31.098  19.166   5.454
 6136POPC   GL177353  31.246  19.083   5.897
 6136POPC   GL277354  31.363  18.731   5.995
 6136POPC   C1A77355  31.231  19.302   6.307
 6136POPC   D2A77356  31.151  19.116   6.711
 6136POPC   C3A77357  31.212  19.357   7.076
 6136POPC   C4A77358  31.536  19.511   7.324
 6136POPC   C1B77359  31.648  18.997   6.237
 6136POPC   C2B77360  31.745  19.123   6.682
 6136POPC   C3B77361  31.571  18.998   7.082
 6136POPC   C4B77362  31.689  18.803   7.471
 6137POPC   NC377363  12.698   8.628   5.424
 6137POPC   PO477364  13.295   8.995   5.532
 6137POPC   GL177365  13.038   8.790   5.840
 6137POPC   GL277366  12.634   8.781   5.892
 6137POPC   C1A77367  12.940   8.913   6.261
 6137POPC   D2A77368  12.642   8.945   6.572
 6137POPC   C3A77369  12.871   8.907   6.963
 6137POPC   C4A77370  12.705   9.011   7.341
 6137POPC   C1B77371  12.547   8.546   6.273
 6137POPC   C2B77372  12.455   8.401   6.731
 6137POPC   C3B77373  12.627   8.473   7.192
 6137POPC   C4B77374  12.589   8.607   7.662
 6138POPC   NC377375  33.264  39.929   5.385
 6138POPC   PO477376  32.548  39.909   5.353
 6138POPC   GL177377  32.879  39.812   5.689
 6138POPC   GL277378  33.009  40.153   5.785
 6138POPC   C1A77379  32.939  39.812   6.157
 6138POPC   D2A77380  33.084  39.988   6.561
 6138POPC   C3A77381  33.013  39.859   6.978
 6138POPC   C4A77382  33.397  39.726   7.188
 6138POPC   C1B77383  32.936  40.341   6.216
 6138POPC   C2B77384  32.846  40.417   6.669
 6138POPC   C3B77385  33.019  40.345   7.083
 6138POPC   C4B77386  32.940  40.307   7.540
 6139POPC   NC377387   3.817   7.228   5.548
 6139POPC   PO477388   4.365   7.625   5.392
 6139POPC   GL177389   4.175   7.560   5.789
 6139POPC   GL277390   4.241   7.199   5.849
 6139POPC   C1A77391   4.281   7.588   6.235
 6139POPC   D2A77392   4.275   7.410   6.659
 6139POPC   C3A77393   4.121   7.585   7.024
 6139POPC   C4A77394   4.254   7.716   7.448
 6139POPC   C1B77395   4.276   7.045   6.277
 6139POPC   C2B77396   4.600   7.036   6.600
 6139POPC   C3B77397   4.625   7.175   7.023
 6139POPC   C4B77398   4.299   7.177   7.322
 6140POPC   NC377399  38.910  13.232   5.580
 6140POPC   PO477400  39.323  12.711   5.532
 6140POPC   GL177401  39.403  12.738   5.934
 6140POPC   GL277402  39.197  13.012   5.936
 6140POPC   C1A77403  39.387  12.836   6.370
 6140POPC   D2A77404  39.257  12.657   6.738
 6140POPC   C3A77405  39.201  12.852   7.128
 6140POPC   C4A77406  39.452  12.666   7.444
 6140POPC   C1B77407  38.976  13.158   6.274
 6140POPC   C2B77408  38.877  12.993   6.686
 6140POPC   C3B77409  38.712  13.006   7.121
 6140POPC   C4B77410  38.867  12.737   7.478
 6141POPC   NC377411  28.694  22.322   5.334
 6141POPC   PO477412  28.206  21.919   5.417
 6141POPC   GL177413  28.441  22.037   5.818
 6141POPC   GL277414  28.517  22.412   5.807
 6141POPC   C1A77415  28.382  21.948   6.298
 6141POPC   D2A77416  28.069  21.991   6.675
 6141POPC   C3A77417  28.272  21.914   7.082
 6141POPC   C4A77418  28.718  22.018   7.130
 6141POPC   C1B77419  28.266  22.428   6.159
 6141POPC   C2B77420  28.436  22.368   6.583
 6141POPC   C3B77421  28.253  22.413   6.963
 6141POPC   C4B77422  28.286  22.388   7.382
 6142POPC   NC377423  38.994  44.069   5.671
 6142POPC   PO477424  39.476  43.785   5.465
 6142POPC   GL177425  39.456  44.085   5.867
 6142POPC   GL277426  39.164  44.315   6.058
 6142POPC   C1A77427  39.458  43.938   6.298
 6142POPC   D2A77428  39.307  43.708   6.653
 6142POPC   C3A77429  39.299  44.045   6.943
 6142POPC   C4A77430  39.275  44.147   7.370
 6142POPC   C1B77431  38.916  44.045   6.311
 6142POPC   C2B77432  38.835  43.917   6.711
 6142POPC   C3B77433  38.809  44.156   7.071
 6142POPC   C4B77434  38.710  43.887   7.341
 6143POPC   NC377435   6.699  40.163   5.596
 6143POPC   PO477436   6.229  39.725   5.490
 6143POPC   GL177437   6.487  39.817   5.901
 6143POPC   GL277438   6.825  39.638   5.917
 6143POPC   C1A77439   6.591  40.121   6.254
 6143POPC   D2A77440   6.512  40.024   6.672
 6143POPC   C3A77441   6.773  40.109   7.007
 6143POPC   C4A77442   6.693  40.074   7.459
 6143POPC   C1B77443   6.830  39.687   6.373
 6143POPC   C2B77444   6.750  39.574   6.816
 6143POPC   C3B77445   6.694  39.603   7.278
 6143POPC   C4B77446   6.770  39.646   7.735
 6144POPC   NC377447  12.912   3.483   5.338
 6144POPC   PO477448  12.545   3.900   5.610
 6144POPC   GL177449  12.767   3.560   5.812
 6144POPC   GL277450  13.160   3.507   5.777
 6144POPC   C1A77451  12.628   3.373   6.161
 6144POPC   D2A77452  12.668   3.477   6.541
 6144POPC   C3A77453  12.694   3.203   6.846
 6144POPC   C4A77454  12.692   3.340   7.233
 6144POPC   C1B77455  13.082   3.670   6.186
 6144POPC   C2B77456  13.145   3.713   6.583
 6144POPC   C3B77457  12.956   3.687   6.947
 6144POPC   C4B77458  13.117   3.595   7.323
 6145POPC   NC377459  18.010  15.478   5.306
 6145POPC   PO477460  18.450  15.003   5.555
 6145POPC   GL177461  18.142  15.106   5.841
 6145POPC   GL277462  18.010  15.473   5.835
 6145POPC   C1A77463  18.215  15.097   6.266
 6145POPC   D2A77464  18.081  15.267   6.641
 6145POPC   C3A77465  18.384  15.191   6.909
 6145POPC   C4A77466  18.215  15.076   7.269
 6145POPC   C1B77467  18.154  15.614   6.234
 6145POPC   C2B77468  18.133  15.780   6.659
 6145POPC   C3B77469  18.145  15.609   7.085
 6145POPC   C4B77470  18.566  15.524   7.279
 6146POPC   NC377471  18.374  30.911   5.352
 6146POPC   PO477472  18.761  30.295   5.439
 6146POPC   GL177473  18.428  30.508   5.726
 6146POPC   GL277474  18.418  30.864   5.844
 6146POPC   C1A77475  18.264  30.426   6.164
 6146POPC   D2A77476  18.459  30.405   6.597
 6146POPC   C3A77477  18.224  30.388   6.977
 6146POPC   C4A77478  18.425  30.553   7.331
 6146POPC   C1B77479  18.260  30.961   6.231
 6146POPC   C2B77480  18.409  30.948   6.651
 6146POPC   C3B77481  18.268  30.967   7.066
 6146POPC   C4B77482  18.003  30.814   7.410
 6147POPC   NC377483  30.201  37.410   5.350
 6147POPC   PO477484  29.734  37.859   5.285
 6147POPC   GL177485  29.839  37.749   5.730
 6147POPC   GL277486  30.140  37.967   5.838
 6147POPC   C1A77487  29.717  37.635   6.171
 6147POPC   D2A77488  29.864  37.748   6.578
 6147POPC   C3A77489  29.810  37.536   6.955
 6147POPC   C4A77490  29.934  37.772   7.289
 6147POPC   C1B77491  30.239  37.582   6.048
 6147POPC   C2B77492  30.280  37.392   6.439
 6147POPC   C3B77493  30.324  37.509   6.852
 6147POPC   C4B77494  30.196  37.334   7.252
 6148POPC   NC377495  20.468  20.053   5.443
 6148POPC   PO477496  20.940  19.695   5.693
 6148POPC   GL177497  20.622  19.883   5.900
 6148POPC   GL277498  20.826  20.170   5.879
 6148POPC   C1A77499  20.477  19.778   6.299
 6148POPC   D2A77500  20.575  19.548   6.670
 6148POPC   C3A77501  20.465  19.818   6.986
 6148POPC   C4A77502  20.497  19.931   7.372
 6148POPC   C1B77503  20.963  19.960   6.275
 6148POPC   C2B77504  20.844  19.998   6.701
 6148POPC   C3B77505  20.853  20.157   7.117
 6148POPC   C4B77506  21.022  19.929   7.520
 6149POPC   NC377507  27.059  39.377   5.775
 6149POPC   PO477508  27.649  39.136   5.428
 6149POPC   GL177509  27.505  39.122   5.795
 6149POPC   GL277510  27.582  39.476   5.823
 6149POPC   C1A77511  27.689  39.108   6.196
 6149POPC   D2A77512  28.015  39.108   6.508
 6149POPC   C3A77513  27.834  39.073   6.897
 6149POPC   C4A77514  27.686  38.916   7.299
 6149POPC   C1B77515  27.647  39.667   6.193
 6149POPC   C2B77516  27.676  39.498   6.568
 6149POPC   C3B77517  27.770  39.649   6.941
 6149POPC   C4B77518  27.703  39.412   7.255
 6150POPC   NC377519   5.443  44.879   5.443
 6150POPC   PO477520   4.963  44.526   5.245
 6150POPC   GL177521   5.099  44.643   5.726
 6150POPC   GL277522   5.433  44.523   5.824
 6150POPC   C1A77523   4.965  44.791   6.162
 6150POPC   D2A77524   4.899  44.991   6.582
 6150POPC   C3A77525   4.828  44.687   6.909
 6150POPC   C4A77526   4.831  44.748   7.299
 6150POPC   C1B77527   5.429  44.507   6.245
 6150POPC   C2B77528   5.226  44.616   6.603
 6150POPC   C3B77529   5.322  44.734   7.020
 6150POPC   C4B77530   5.642  44.531   7.208
 6151POPC   NC377531  44.953  14.734   5.473
 6151POPC   PO477532  44.542  14.227   5.501
 6151POPC   GL177533  44.408  14.344   5.880
 6151POPC   GL277534  44.538  14.671   5.867
 6151POPC   C1A77535  44.315  14.186   6.268
 6151POPC   D2A77536  44.605  14.205   6.612
 6151POPC   C3A77537  44.538  14.538   6.895
 6151POPC   C4A77538  44.712  14.364   7.241
 6151POPC   C1B77539  44.575  14.636   6.298
 6151POPC   C2B77540  44.874  14.756   6.587
 6151POPC   C3B77541   0.033  14.729   6.981
 6151POPC   C4B77542  44.790  14.844   7.326
 6152POPC   NC377543   2.284  36.222   5.481
 6152POPC   PO477544   1.713  35.791   5.590
 6152POPC   GL177545   1.930  36.066   5.829
 6152POPC   GL277546   2.245  35.861   5.823
 6152POPC   C1A77547   1.868  36.362   6.172
 6152POPC   D2A77548   2.047  36.493   6.566
 6152POPC   C3A77549   1.927  36.291   6.922
 6152POPC   C4A77550   1.800  36.386   7.309
 6152POPC   C1B77551   2.293  36.080   6.183
 6152POPC   C2B77552   2.110  35.974   6.539
 6152POPC   C3B77553   2.287  35.907   6.933
 6152POPC   C4B77554   2.182  36.040   7.289
 6153POPC   NC377555  17.428  22.814   5.409
 6153POPC   PO477556  17.161  23.430   5.539
 6153POPC   GL177557  17.440  23.091   5.834
 6153POPC   GL277558  17.355  22.670   5.882
 6153POPC   C1A77559  17.572  22.928   6.264
 6153POPC   D2A77560  17.657  23.153   6.653
 6153POPC   C3A77561  17.565  22.971   7.033
 6153POPC   C4A77562  17.305  23.016   7.359
 6153POPC   C1B77563  17.173  22.566   6.274
 6153POPC   C2B77564  17.241  22.775   6.656
 6153POPC   C3B77565  17.143  22.616   7.050
 6153POPC   C4B77566  17.249  22.483   7.431
 6154POPC   NC377567  39.310   0.050   5.221
 6154POPC   PO477568  39.085  44.495   5.537
 6154POPC   GL177569  39.434  44.636   5.761
 6154POPC   GL277570  39.281  44.985   5.748
 6154POPC   C1A77571  39.620  44.475   6.170
 6154POPC   D2A77572  39.386  44.415   6.583
 6154POPC   C3A77573  39.532  44.496   7.036
 6154POPC   C4A77574  39.555  44.567   7.514
 6154POPC   C1B77575  39.054   0.041   6.140
 6154POPC   C2B77576  38.908  44.954   6.561
 6154POPC   C3B77577  39.154  44.806   6.897
 6154POPC   C4B77578  39.080  44.616   7.303
 6155POPC   NC377579  14.389  30.615   5.220
 6155POPC   PO477580  14.753  31.086   5.448
 6155POPC   GL177581  14.665  30.700   5.722
 6155POPC   GL277582  14.338  30.553   5.813
 6155POPC   C1A77583  14.756  30.537   6.172
 6155POPC   D2A77584  14.823  30.744   6.615
 6155POPC   C3A77585  14.676  30.597   7.020
 6155POPC   C4A77586  14.374  30.584   7.338
 6155POPC   C1B77587  14.238  30.660   6.265
 6155POPC   C2B77588  14.277  30.756   6.724
 6155POPC   C3B77589  13.977  30.713   7.073
 6155POPC   C4B77590  14.002  30.821   7.593
 6156POPC   NC377591   9.760  21.782   5.594
 6156POPC   PO477592   9.548  22.290   5.205
 6156POPC   GL177593   9.832  22.324   5.634
 6156POPC   GL277594   9.679  22.140   5.927
 6156POPC   C1A77595  10.043  22.419   6.094
 6156POPC   D2A77596   9.733  22.319   6.444
 6156POPC   C3A77597   9.779  22.421   6.878
 6156POPC   C4A77598   9.819  22.351   7.322
 6156POPC   C1B77599   9.625  21.846   6.261
 6156POPC   C2B77600   9.479  21.877   6.687
 6156POPC   C3B77601   9.636  21.924   7.102
 6156POPC   C4B77602   9.553  21.982   7.543
 6157POPC   NC377603  11.382  18.237   5.139
 6157POPC   PO477604  11.518  18.819   5.458
 6157POPC   GL177605  11.618  18.562   5.847
 6157POPC   GL277606  11.473  18.212   5.777
 6157POPC   C1A77607  11.584  18.456   6.275
 6157POPC   D2A77608  11.288  18.345   6.612
 6157POPC   C3A77609  11.310  18.464   7.058
 6157POPC   C4A77610  11.369  18.517   7.516
 6157POPC   C1B77611  11.242  18.057   6.160
 6157POPC   C2B77612  11.143  17.849   6.560
 6157POPC   C3B77613  11.364  17.916   6.947
 6157POPC   C4B77614  11.249  18.037   7.338
 6158POPC   NC377615  41.229   5.060   5.587
 6158POPC   PO477616  40.562   4.861   5.574
 6158POPC   GL177617  40.489   5.093   5.939
 6158POPC   GL277618  40.822   5.236   5.934
 6158POPC   C1A77619  40.669   4.921   6.333
 6158POPC   D2A77620  40.968   4.887   6.689
 6158POPC   C3A77621  40.694   4.960   7.020
 6158POPC   C4A77622  40.684   5.052   7.438
 6158POPC   C1B77623  41.066   5.242   6.327
 6158POPC   C2B77624  41.135   5.419   6.732
 6158POPC   C3B77625  41.036   5.354   7.199
 6158POPC   C4B77626  41.020   5.339   7.688
 6159POPC   NC377627   6.523  22.429   5.556
 6159POPC   PO477628   6.488  21.818   5.241
 6159POPC   GL177629   6.416  21.981   5.757
 6159POPC   GL277630   6.189  21.794   5.974
 6159POPC   C1A77631   6.497  22.133   6.220
 6159POPC   D2A77632   6.670  22.316   6.612
 6159POPC   C3A77633   6.474  22.430   6.984
 6159POPC   C4A77634   6.719  22.499   7.327
 6159POPC   C1B77635   6.081  21.796   6.380
 6159POPC   C2B77636   6.366  21.875   6.687
 6159POPC   C3B77637   6.249  21.977   7.066
 6159POPC   C4B77638   6.567  22.032   7.320
 6160POPC   NC377639   3.945   9.888   5.393
 6160POPC   PO477640   4.368  10.322   5.471
 6160POPC   GL177641   4.521  10.480   5.856
 6160POPC   GL277642   4.821  10.657   5.870
 6160POPC   C1A77643   4.583  10.300   6.273
 6160POPC   D2A77644   4.246  10.454   6.542
 6160POPC   C3A77645   4.125  10.375   6.958
 6160POPC   C4A77646   4.053  10.500   7.367
 6160POPC   C1B77647   4.653  10.801   6.285
 6160POPC   C2B77648   4.555  10.804   6.744
 6160POPC   C3B77649   4.478  10.744   7.186
 6160POPC   C4B77650   4.680  11.012   7.501
 6161POPC   NC377651  41.432  26.335   5.536
 6161POPC   PO477652  41.469  25.686   5.527
 6161POPC   GL177653  41.505  25.965   5.923
 6161POPC   GL277654  41.717  26.287   5.951
 6161POPC   C1A77655  41.665  25.917   6.360
 6161POPC   D2A77656  41.860  26.061   6.764
 6161POPC   C3A77657  41.559  26.010   7.095
 6161POPC   C4A77658  41.426  25.828   7.479
 6161POPC   C1B77659  41.371  26.442   6.205
 6161POPC   C2B77660  41.325  26.258   6.613
 6161POPC   C3B77661  41.378  26.489   6.975
 6161POPC   C4B77662  41.038  26.588   7.214
 6162POPC   NC377663  38.989  29.111   5.421
 6162POPC   PO477664  38.416  29.183   5.300
 6162POPC   GL177665  38.573  29.086   5.754
 6162POPC   GL277666  38.846  28.813   5.804
 6162POPC   C1A77667  38.342  29.188   6.166
 6162POPC   D2A77668  38.436  29.383   6.564
 6162POPC   C3A77669  38.447  29.231   7.030
 6162POPC   C4A77670  38.149  29.131   7.395
 6162POPC   C1B77671  38.788  28.976   6.233
 6162POPC   C2B77672  38.622  28.882   6.650
 6162POPC   C3B77673  38.773  28.797   7.067
 6162POPC   C4B77674  38.943  29.026   7.404
 6163POPC   NC377675  28.299   7.667   5.144
 6163POPC   PO477676  28.660   7.072   5.353
 6163POPC   GL177677  28.478   7.304   5.705
 6163POPC   GL277678  28.567   7.053   5.896
 6163POPC   C1A77679  28.436   7.531   6.130
 6163POPC   D2A77680  28.173   7.435   6.514
 6163POPC   C3A77681  28.386   7.478   6.883
 6163POPC   C4A77682  28.419   7.630   7.240
 6163POPC   C1B77683  28.429   7.025   6.310
 6163POPC   C2B77684  28.328   6.969   6.721
 6163POPC   C3B77685  28.035   7.130   6.967
 6163POPC   C4B77686  28.271   7.141   7.333
 6164POPC   NC377687  27.599   5.337   5.250
 6164POPC   PO477688  27.814   4.658   5.443
 6164POPC   GL177689  27.594   4.966   5.729
 6164POPC   GL277690  27.292   4.780   5.816
 6164POPC   C1A77691  27.521   5.171   6.173
 6164POPC   D2A77692  27.284   5.322   6.571
 6164POPC   C3A77693  27.502   5.266   6.982
 6164POPC   C4A77694  27.449   5.039   7.376
 6164POPC   C1B77695  27.611   4.652   6.157
 6164POPC   C2B77696  27.806   4.831   6.551
 6164POPC   C3B77697  27.756   4.801   6.999
 6164POPC   C4B77698  27.381   4.603   7.134
 6165POPC   NC377699  22.232  17.940   5.694
 6165POPC   PO477700  21.867  18.502   5.423
 6165POPC   GL177701  21.998  18.389   5.811
 6165POPC   GL277702  22.321  18.421   5.848
 6165POPC   C1A77703  21.907  18.241   6.223
 6165POPC   D2A77704  21.909  18.069   6.641
 6165POPC   C3A77705  21.968  18.296   7.006
 6165POPC   C4A77706  21.722  18.426   7.346
 6165POPC   C1B77707  22.292  18.565   6.245
 6165POPC   C2B77708  22.330  18.350   6.603
 6165POPC   C3B77709  22.478  18.331   7.020
 6165POPC   C4B77710  22.509  17.979   7.322
 6166POPC   NC377711   6.516  36.904   5.070
 6166POPC   PO477712   7.093  36.920   5.502
 6166POPC   GL177713   6.810  36.840   5.840
 6166POPC   GL277714   6.451  36.731   5.915
 6166POPC   C1A77715   6.825  36.874   6.262
 6166POPC   D2A77716   6.687  37.156   6.551
 6166POPC   C3A77717   6.808  37.010   6.910
 6166POPC   C4A77718   6.979  37.168   7.263
 6166POPC   C1B77719   6.314  36.887   6.304
 6166POPC   C2B77720   6.406  36.714   6.685
 6166POPC   C3B77721   6.351  36.718   7.103
 6166POPC   C4B77722   6.751  36.690   7.295
 6167POPC   NC377723  27.910  44.204   5.358
 6167POPC   PO477724  27.383  44.719   5.467
 6167POPC   GL177725  27.704  44.555   5.768
 6167POPC   GL277726  27.849  44.840   5.990
 6167POPC   C1A77727  27.641  44.378   6.192
 6167POPC   D2A77728  27.555  44.222   6.625
 6167POPC   C3A77729  27.768  44.432   6.945
 6167POPC   C4A77730  27.756  44.580   7.353
 6167POPC   C1B77731  27.543  44.984   6.252
 6167POPC   C2B77732  27.420   0.154   6.645
 6167POPC   C3B77733  27.628  44.935   6.995
 6167POPC   C4B77734  27.815   0.095   7.382
 6168POPC   NC377735  20.617  41.420   5.421
 6168POPC   PO477736  21.087  40.944   5.685
 6168POPC   GL177737  20.891  41.362   5.842
 6168POPC   GL277738  20.535  41.587   5.885
 6168POPC   C1A77739  20.877  41.567   6.238
 6168POPC   D2A77740  20.675  41.495   6.629
 6168POPC   C3A77741  20.889  41.727   6.929
 6168POPC   C4A77742  20.702  41.553   7.224
 6168POPC   C1B77743  20.205  41.502   6.214
 6168POPC   C2B77744  20.167  41.220   6.595
 6168POPC   C3B77745  20.349  41.202   7.035
 6168POPC   C4B77746  20.322  41.377   7.484
 6169POPC   NC377747  10.230  36.070   5.406
 6169POPC   PO477748  10.723  36.415   5.159
 6169POPC   GL177749  10.587  36.247   5.713
 6169POPC   GL277750  10.435  36.001   5.868
 6169POPC   C1A77751  10.584  36.341   6.181
 6169POPC   D2A77752  10.383  36.185   6.547
 6169POPC   C3A77753  10.497  36.321   6.925
 6169POPC   C4A77754  10.535  36.070   7.281
 6169POPC   C1B77755  10.229  35.860   6.184
 6169POPC   C2B77756  10.170  35.667   6.556
 6169POPC   C3B77757  10.210  35.866   6.929
 6169POPC   C4B77758  10.129  35.785   7.333
 6170POPC   NC377759  30.074  39.749   5.428
 6170POPC   PO477760  29.480  40.095   5.420
 6170POPC   GL177761  29.764  39.986   5.768
 6170POPC   GL277762  29.584  39.668   5.759
 6170POPC   C1A77763  30.005  40.119   6.182
 6170POPC   D2A77764  29.820  40.209   6.612
 6170POPC   C3A77765  30.046  40.104   7.001
 6170POPC   C4A77766  30.255  40.115   7.403
 6170POPC   C1B77767  29.624  39.787   6.213
 6170POPC   C2B77768  29.654  39.728   6.623
 6170POPC   C3B77769  29.585  39.878   7.066
 6170POPC   C4B77770  29.665  40.107   7.460
 6171POPC   NC377771  20.490  20.906   5.314
 6171POPC   PO477772  20.843  20.354   5.406
 6171POPC   GL177773  20.644  20.635   5.740
 6171POPC   GL277774  20.834  20.654   6.072
 6171POPC   C1A77775  20.347  20.749   6.085
 6171POPC   D2A77776  20.387  20.725   6.560
 6171POPC   C3A77777  20.831  20.826   6.727
 6171POPC   C4A77778  21.077  20.953   7.096
 6171POPC   C1B77779  20.571  20.314   6.279
 6171POPC   C2B77780  20.344  20.189   6.639
 6171POPC   C3B77781  20.347  20.335   7.055
 6171POPC   C4B77782  20.648  20.654   7.184
 6172POPC   NC377783  28.065  30.079   5.347
 6172POPC   PO477784  28.635  30.539   5.534
 6172POPC   GL177785  28.605  30.148   5.868
 6172POPC   GL277786  28.228  30.039   5.927
 6172POPC   C1A77787  28.591  29.809   6.227
 6172POPC   D2A77788  28.339  29.721   6.617
 6172POPC   C3A77789  28.525  29.853   6.986
 6172POPC   C4A77790  28.330  29.789   7.365
 6172POPC   C1B77791  28.294  30.202   6.393
 6172POPC   C2B77792  28.151  30.418   6.778
 6172POPC   C3B77793  28.121  30.182   7.142
 6172POPC   C4B77794  28.173  30.173   7.635
 6173POPC   NC377795  19.189  44.273   5.263
 6173POPC   PO477796  18.743  43.764   5.456
 6173POPC   GL177797  19.135  43.920   5.704
 6173POPC   GL277798  19.353  43.663   5.890
 6173POPC   C1A77799  19.183  44.124   6.125
 6173POPC   D2A77800  18.993  44.092   6.515
 6173POPC   C3A77801  19.207  44.125   6.902
 6173POPC   C4A77802  19.154  44.247   7.320
 6173POPC   C1B77803  19.140  43.624   6.285
 6173POPC   C2B77804  18.932  43.623   6.692
 6173POPC   C3B77805  18.804  43.526   7.081
 6173POPC   C4B77806  19.106  43.730   7.307
 6174POPC   NC377807   3.588  34.914   5.342
 6174POPC   PO477808   3.565  35.622   5.264
 6174POPC   GL177809   3.414  35.303   5.620
 6174POPC   GL277810   3.717  35.216   5.782
 6174POPC   C1A77811   3.305  35.269   6.090
 6174POPC   D2A77812   3.454  35.521   6.430
 6174POPC   C3A77813   3.267  35.371   6.799
 6174POPC   C4A77814   3.455  35.288   7.159
 6174POPC   C1B77815   3.927  35.146   6.185
 6174POPC   C2B77816   4.077  35.054   6.608
 6174POPC   C3B77817   3.941  35.205   7.005
 6174POPC   C4B77818   4.145  35.128   7.377
 6175POPC   NC377819   8.575   8.404   5.527
 6175POPC   PO477820   8.016   8.051   5.382
 6175POPC   GL177821   8.228   8.105   5.803
 6175POPC   GL277822   8.121   8.421   5.817
 6175POPC   C1A77823   8.381   8.278   6.245
 6175POPC   D2A77824   8.259   8.334   6.711
 6175POPC   C3A77825   8.123   8.005   7.068
 6175POPC   C4A77826   8.039   7.809   7.496
 6175POPC   C1B77827   7.723   8.532   6.003
 6175POPC   C2B77828   7.663   8.574   6.444
 6175POPC   C3B77829   7.883   8.671   6.826
 6175POPC   C4B77830   8.153   8.528   7.168
 6176POPC   NC377831  26.860  37.324   5.512
 6176POPC   PO477832  26.763  36.718   5.568
 6176POPC   GL177833  26.983  36.953   5.881
 6176POPC   GL277834  26.703  37.154   5.952
 6176POPC   C1A77835  26.920  36.933   6.341
 6176POPC   D2A77836  26.605  36.728   6.587
 6176POPC   C3A77837  26.722  36.672   7.021
 6176POPC   C4A77838  26.812  36.767   7.494
 6176POPC   C1B77839  26.459  37.197   6.315
 6176POPC   C2B77840  26.516  37.303   6.761
 6176POPC   C3B77841  26.616  37.154   7.193
 6176POPC   C4B77842  26.624  37.226   7.676
 6177POPC   NC377843  15.048   4.906   5.397
 6177POPC   PO477844  15.456   5.418   5.518
 6177POPC   GL177845  15.248   5.114   5.814
 6177POPC   GL277846  14.851   5.118   5.815
 6177POPC   C1A77847  15.395   5.064   6.208
 6177POPC   D2A77848  15.329   5.298   6.557
 6177POPC   C3A77849  15.387   5.043   6.894
 6177POPC   C4A77850  15.589   5.135   7.230
 6177POPC   C1B77851  14.892   5.191   6.245
 6177POPC   C2B77852  14.920   4.993   6.643
 6177POPC   C3B77853  14.951   5.301   6.948
 6177POPC   C4B77854  15.119   5.293   7.367
 6178POPC   NC377855   8.824  21.632   5.623
 6178POPC   PO477856   9.254  21.107   5.465
 6178POPC   GL177857   9.086  21.305   5.867
 6178POPC   GL277858   8.738  21.247   5.945
 6178POPC   C1A77859   8.976  21.544   6.263
 6178POPC   D2A77860   8.697  21.449   6.596
 6178POPC   C3A77861   8.920  21.534   6.953
 6178POPC   C4A77862   8.880  21.425   7.372
 6178POPC   C1B77863   8.601  21.014   6.305
 6178POPC   C2B77864   8.400  21.043   6.719
 6178POPC   C3B77865   8.624  20.957   7.088
 6178POPC   C4B77866   8.569  21.044   7.534
 6179POPC   NC377867  22.333  28.253   5.256
 6179POPC   PO477868  21.963  28.751   5.551
 6179POPC   GL177869  22.162  28.495   5.894
 6179POPC   GL277870  22.346  28.181   5.786
 6179POPC   C1A77871  22.135  28.580   6.341
 6179POPC   D2A77872  22.268  28.559   6.752
 6179POPC   C3A77873  22.048  28.650   7.083
 6179POPC   C4A77874  21.910  28.267   7.189
 6179POPC   C1B77875  22.502  28.211   6.224
 6179POPC   C2B77876  22.626  28.069   6.630
 6179POPC   C3B77877  22.516  28.230   7.050
 6179POPC   C4B77878  22.522  28.027   7.477
 6180POPC   NC377879  31.135  13.181   5.685
 6180POPC   PO477880  30.589  12.835   5.434
 6180POPC   GL177881  30.556  12.757   5.837
 6180POPC   GL277882  30.720  12.433   5.926
 6180POPC   C1A77883  30.797  12.875   6.173
 6180POPC   D2A77884  30.769  12.752   6.580
 6180POPC   C3A77885  30.669  13.095   6.852
 6180POPC   C4A77886  30.625  12.998   7.283
 6180POPC   C1B77887  30.409  12.508   6.249
 6180POPC   C2B77888  30.437  12.331   6.645
 6180POPC   C3B77889  30.624  12.492   7.001
 6180POPC   C4B77890  30.369  12.455   7.330
 6181POPC   NC377891  28.918   1.886   5.330
 6181POPC   PO477892  28.207   1.682   5.501
 6181POPC   GL177893  28.202   1.976   5.794
 6181POPC   GL277894  28.574   1.991   5.772
 6181POPC   C1A77895  28.006   2.062   6.187
 6181POPC   D2A77896  28.142   1.879   6.568
 6181POPC   C3A77897  28.016   2.014   6.964
 6181POPC   C4A77898  28.245   1.939   7.321
 6181POPC   C1B77899  28.509   2.111   6.202
 6181POPC   C2B77900  28.488   2.307   6.610
 6181POPC   C3B77901  28.580   2.064   6.967
 6181POPC   C4B77902  28.763   2.092   7.363
 6182POPC   NC377903   5.433   3.419   5.472
 6182POPC   PO477904   6.078   3.587   5.411
 6182POPC   GL177905   5.864   3.519   5.787
 6182POPC   GL277906   6.041   3.239   5.875
 6182POPC   C1A77907   5.922   3.627   6.239
 6182POPC   D2A77908   5.672   3.502   6.597
 6182POPC   C3A77909   5.667   3.748   6.957
 6182POPC   C4A77910   5.965   3.829   7.267
 6182POPC   C1B77911   6.024   3.146   6.261
 6182POPC   C2B77912   6.159   3.276   6.623
 6182POPC   C3B77913   5.959   3.320   6.974
 6182POPC   C4B77914   6.087   3.357   7.336
 6183POPC   NC377915  22.791   2.525   5.538
 6183POPC   PO477916  23.368   2.984   5.514
 6183POPC   GL177917  23.055   2.913   5.798
 6183POPC   GL277918  23.170   2.592   5.914
 6183POPC   C1A77919  22.825   2.924   6.181
 6183POPC   D2A77920  22.896   2.723   6.558
 6183POPC   C3A77921  22.752   2.882   6.937
 6183POPC   C4A77922  22.694   2.946   7.372
 6183POPC   C1B77923  23.363   2.558   6.338
 6183POPC   C2B77924  23.277   2.511   6.801
 6183POPC   C3B77925  23.224   2.576   7.212
 6183POPC   C4B77926  23.197   2.899   7.499
 6184POPC   NC377927  14.743   4.082   5.528
 6184POPC   PO477928  15.301   4.513   5.422
 6184POPC   GL177929  15.196   4.447   5.817
 6184POPC   GL277930  14.869   4.598   5.799
 6184POPC   C1A77931  15.016   4.176   6.153
 6184POPC   D2A77932  15.057   3.907   6.522
 6184POPC   C3A77933  14.884   4.058   6.915
 6184POPC   C4A77934  15.117   4.132   7.277
 6184POPC   C1B77935  15.024   4.688   6.225
 6184POPC   C2B77936  15.120   4.439   6.603
 6184POPC   C3B77937  15.227   4.572   7.034
 6184POPC   C4B77938  14.904   4.853   7.190
 6185POPC   NC377939  17.099  20.274   5.523
 6185POPC   PO477940  17.547  20.785   5.551
 6185POPC   GL177941  17.733  20.652   5.919
 6185POPC   GL277942  17.750  20.287   5.816
 6185POPC   C1A77943  17.562  20.753   6.327
 6185POPC   D2A77944  17.705  20.733   6.738
 6185POPC   C3A77945  17.447  20.926   7.060
 6185POPC   C4A77946  17.592  20.915   7.504
 6185POPC   C1B77947  17.647  20.258   6.254
 6185POPC   C2B77948  17.332  20.357   6.604
 6185POPC   C3B77949  17.439  20.416   7.027
 6185POPC   C4B77950  17.884  20.336   7.086
 6186POPC   NC377951   8.963  13.658   5.304
 6186POPC   PO477952   8.453  13.394   5.551
 6186POPC   GL177953   8.831  13.480   5.813
 6186POPC   GL277954   9.177  13.636   5.745
 6186POPC   C1A77955   8.747  13.576   6.250
 6186POPC   D2A77956   8.764  13.864   6.592
 6186POPC   C3A77957   8.926  13.752   7.003
 6186POPC   C4A77958   8.996  13.445   7.311
 6186POPC   C1B77959   9.206  13.737   6.146
 6186POPC   C2B77960   9.334  13.697   6.565
 6186POPC   C3B77961   9.383  13.480   6.952
 6186POPC   C4B77962   9.447  13.727   7.298
 6187POPC   NC377963  29.100   3.439   5.543
 6187POPC   PO477964  29.488   3.927   5.554
 6187POPC   GL177965  29.251   3.799   5.931
 6187POPC   GL277966  28.942   3.656   5.962
 6187POPC   C1A77967  29.318   3.543   6.309
 6187POPC   D2A77968  29.276   3.236   6.656
 6187POPC   C3A77969  29.233   3.497   6.991
 6187POPC   C4A77970  28.974   3.826   7.090
 6187POPC   C1B77971  28.835   3.368   6.315
 6187POPC   C2B77972  28.750   3.261   6.734
 6187POPC   C3B77973  28.822   3.284   7.174
 6187POPC   C4B77974  28.818   2.951   7.431
 6188POPC   NC377975  34.142  10.745   5.539
 6188POPC   PO477976  33.615  10.403   5.495
 6188POPC   GL177977  33.746  10.617   5.877
 6188POPC   GL277978  33.427  10.834   5.885
 6188POPC   C1A77979  34.003  10.575   6.278
 6188POPC   D2A77980  33.861  10.424   6.722
 6188POPC   C3A77981  33.955  10.638   7.142
 6188POPC   C4A77982  34.108  10.641   7.615
 6188POPC   C1B77983  33.424  10.676   6.303
 6188POPC   C2B77984  33.310  10.818   6.718
 6188POPC   C3B77985  33.453  10.586   7.050
 6188POPC   C4B77986  33.622  10.211   7.204
 6189POPC   NC377987  14.301   6.441   5.376
 6189POPC   PO477988  14.541   5.807   5.408
 6189POPC   GL177989  14.493   5.817   5.844
 6189POPC   GL277990  14.460   6.149   5.795
 6189POPC   C1A77991  14.657   5.870   6.276
 6189POPC   D2A77992  14.437   5.929   6.671
 6189POPC   C3A77993  14.589   5.949   7.083
 6189POPC   C4A77994  14.894   5.717   7.245
 6189POPC   C1B77995  14.200   6.266   6.116
 6189POPC   C2B77996  14.155   6.345   6.564
 6189POPC   C3B77997  14.155   6.226   7.001
 6189POPC   C4B77998  14.393   6.358   7.379
 6190POPC   NC377999  21.676  31.690   5.464
 6190POPC   PO478000  21.278  31.149   5.592
 6190POPC   GL178001  21.458  31.323   5.921
 6190POPC   GL278002  21.287  31.611   5.831
 6190POPC   C1A78003  21.402  31.281   6.359
 6190POPC   D2A78004  21.524  31.468   6.725
 6190POPC   C3A78005  21.430  31.349   7.134
 6190POPC   C4A78006  21.411  31.288   7.556
 6190POPC   C1B78007  21.036  31.592   6.174
 6190POPC   C2B78008  20.987  31.574   6.598
 6190POPC   C3B78009  21.098  31.848   6.903
 6190POPC   C4B78010  21.109  31.705   7.294
 6191POPC   NC378011  14.964  12.482   5.466
 6191POPC   PO478012  15.202  11.910   5.520
 6191POPC   GL178013  15.263  12.191   5.848
 6191POPC   GL278014  14.966  12.362   5.946
 6191POPC   C1A78015  15.307  12.124   6.293
 6191POPC   D2A78016  15.129  11.925   6.639
 6191POPC   C3A78017  15.282  12.078   7.003
 6191POPC   C4A78018  15.348  12.258   7.358
 6191POPC   C1B78019  14.919  12.485   6.332
 6191POPC   C2B78020  15.147  12.446   6.687
 6191POPC   C3B78021  15.036  12.566   7.080
 6191POPC   C4B78022  15.081  12.670   7.484
 6192POPC   NC378023  18.664  33.580   5.351
 6192POPC   PO478024  18.034  33.869   5.445
 6192POPC   GL178025  18.335  33.908   5.770
 6192POPC   GL278026  18.453  33.579   5.811
 6192POPC   C1A78027  18.238  33.902   6.203
 6192POPC   D2A78028  18.378  33.916   6.618
 6192POPC   C3A78029  18.132  33.892   7.006
 6192POPC   C4A78030  18.150  34.027   7.441
 6192POPC   C1B78031  18.652  33.599   6.198
 6192POPC   C2B78032  18.526  33.426   6.600
 6192POPC   C3B78033  18.549  33.605   7.004
 6192POPC   C4B78034  18.323  33.550   7.389
 6193POPC   NC378035  44.417  19.669   5.509
 6193POPC   PO478036   0.118  19.387   5.447
 6193POPC   GL178037  44.903  19.622   5.775
 6193POPC   GL278038  44.912  19.993   5.796
 6193POPC   C1A78039  44.729  19.690   6.189
 6193POPC   D2A78040  44.599  19.904   6.573
 6193POPC   C3A78041  44.758  19.742   6.946
 6193POPC   C4A78042  44.470  19.501   7.193
 6193POPC   C1B78043  44.639  20.202   6.147
 6193POPC   C2B78044  44.772  20.370   6.570
 6193POPC   C3B78045  44.559  20.302   6.989
 6193POPC   C4B78046  44.585  19.986   7.363
 6194POPC   NC378047   9.465  43.424   5.511
 6194POPC   PO478048  10.003  42.958   5.400
 6194POPC   GL178049   9.820  43.084   5.744
 6194POPC   GL278050   9.882  43.422   5.838
 6194POPC   C1A78051  10.018  43.035   6.144
 6194POPC   D2A78052   9.985  43.213   6.531
 6194POPC   C3A78053  10.028  42.976   6.883
 6194POPC   C4A78054   9.835  43.016   7.280
 6194POPC   C1B78055   9.522  43.200   6.130
 6194POPC   C2B78056   9.349  43.006   6.493
 6194POPC   C3B78057   9.545  43.169   6.857
 6194POPC   C4B78058   9.521  43.432   7.211
 6195POPC   NC378059  20.068  27.986   5.537
 6195POPC   PO478060  19.692  28.619   5.430
 6195POPC   GL178061  19.634  28.429   5.826
 6195POPC   GL278062  19.981  28.404   5.849
 6195POPC   C1A78063  19.699  28.254   6.240
 6195POPC   D2A78064  19.916  28.381   6.595
 6195POPC   C3A78065  19.673  28.177   6.892
 6195POPC   C4A78066  19.465  28.285   7.258
 6195POPC   C1B78067  20.188  28.133   6.163
 6195POPC   C2B78068  20.327  28.048   6.573
 6195POPC   C3B78069  20.215  28.194   6.987
 6195POPC   C4B78070  19.960  28.452   7.217
 6196POPC   NC378071   8.594   6.761   5.523
 6196POPC   PO478072   9.299   6.952   5.649
 6196POPC   GL178073   9.086   6.585   5.862
 6196POPC   GL278074   9.207   6.266   6.045
 6196POPC   C1A78075   8.995   6.665   6.291
 6196POPC   D2A78076   8.787   6.640   6.656
 6196POPC   C3A78077   8.924   6.913   6.945
 6196POPC   C4A78078   9.003   6.936   7.375
 6196POPC   C1B78079   8.860   6.159   6.372
 6196POPC   C2B78080   8.546   6.201   6.726
 6196POPC   C3B78081   8.776   6.357   7.098
 6196POPC   C4B78082   9.206   6.518   7.138
 6197POPC   NC378083   7.580  13.487   5.332
 6197POPC   PO478084   7.216  14.001   5.386
 6197POPC   GL178085   7.323  13.822   5.826
 6197POPC   GL278086   7.451  13.468   5.847
 6197POPC   C1A78087   7.463  13.746   6.283
 6197POPC   D2A78088   7.651  13.608   6.679
 6197POPC   C3A78089   7.402  13.808   6.996
 6197POPC   C4A78090   7.207  13.934   7.376
 6197POPC   C1B78091   7.262  13.295   6.242
 6197POPC   C2B78092   7.158  13.505   6.642
 6197POPC   C3B78093   7.198  13.330   7.023
 6197POPC   C4B78094   7.597  13.379   7.180
 6198POPC   NC378095  33.707  14.142   5.397
 6198POPC   PO478096  33.920  14.782   5.470
 6198POPC   GL178097  34.058  14.615   5.868
 6198POPC   GL278098  33.860  14.306   5.870
 6198POPC   C1A78099  34.096  14.452   6.294
 6198POPC   D2A78100  33.802  14.310   6.579
 6198POPC   C3A78101  34.053  14.360   6.916
 6198POPC   C4A78102  33.938  14.658   7.246
 6198POPC   C1B78103  33.582  14.100   6.156
 6198POPC   C2B78104  33.384  14.005   6.555
 6198POPC   C3B78105  33.579  13.987   6.941
 6198POPC   C4B78106  33.808  14.163   7.303
 6199POPC   NC378107   7.799  29.629   5.735
 6199POPC   PO478108   7.319  30.029   5.451
 6199POPC   GL178109   7.370  29.870   5.861
 6199POPC   GL278110   7.126  29.641   5.863
 6199POPC   C1A78111   7.439  30.088   6.269
 6199POPC   D2A78112   7.182  30.022   6.653
 6199POPC   C3A78113   7.355  30.131   7.035
 6199POPC   C4A78114   7.536  30.173   7.441
 6199POPC   C1B78115   7.291  29.609   6.318
 6199POPC   C2B78116   7.615  29.747   6.648
 6199POPC   C3B78117   7.502  29.643   7.078
 6199POPC   C4B78118   7.072  29.624   7.002
 6200POPC   NC378119  44.439   5.476   5.619
 6200POPC   PO478120  44.418   6.058   5.278
 6200POPC   GL178121  44.412   6.095   5.742
 6200POPC   GL278122  44.701   5.920   5.829
 6200POPC   C1A78123  44.323   5.908   6.176
 6200POPC   D2A78124  44.447   5.796   6.611
 6200POPC   C3A78125  44.487   6.064   6.965
 6200POPC   C4A78126  44.241   5.961   7.294
 6200POPC   C1B78127  44.806   5.737   6.239
 6200POPC   C2B78128  44.912   5.581   6.642
 6200POPC   C3B78129  44.974   5.891   6.939
 6200POPC   C4B78130  44.959   6.020   7.355
 6201POPC   NC378131  12.936   7.147   5.326
 6201POPC   PO478132  12.628   7.573   5.675
 6201POPC   GL178133  12.921   7.261   5.831
 6201POPC   GL278134  12.687   6.960   5.784
 6201POPC   C1A78135  13.089   7.372   6.251
 6201POPC   D2A78136  12.859   7.414   6.648
 6201POPC   C3A78137  13.143   7.605   6.950
 6201POPC   C4A78138  13.277   7.464   7.359
 6201POPC   C1B78139  12.642   7.095   6.224
 6201POPC   C2B78140  12.370   7.104   6.581
 6201POPC   C3B78141  12.497   7.114   6.974
 6201POPC   C4B78142  12.881   7.199   7.165
 6202POPC   NC378143  33.429  37.596   5.527
 6202POPC   PO478144  34.124  37.822   5.408
 6202POPC   GL178145  33.859  37.814   5.753
 6202POPC   GL278146  33.865  37.441   5.767
 6202POPC   C1A78147  33.850  37.861   6.210
 6202POPC   D2A78148  33.550  37.760   6.547
 6202POPC   C3A78149  33.722  37.880   6.950
 6202POPC   C4A78150  33.748  37.713   7.340
 6202POPC   C1B78151  33.619  37.403   6.149
 6202POPC   C2B78152  33.715  37.274   6.569
 6202POPC   C3B78153  33.507  37.406   6.951
 6202POPC   C4B78154  33.243  37.243   7.244
 6203POPC   NC378155  12.387  23.390   5.327
 6203POPC   PO478156  12.500  24.069   5.497
 6203POPC   GL178157  12.241  23.706   5.732
 6203POPC   GL278158  11.867  23.719   5.773
 6203POPC   C1A78159  12.246  23.500   6.178
 6203POPC   D2A78160  12.317  23.655   6.629
 6203POPC   C3A78161  12.138  23.687   7.053
 6203POPC   C4A78162  12.366  23.696   7.458
 6203POPC   C1B78163  11.791  23.719   6.234
 6203POPC   C2B78164  11.880  23.372   6.555
 6203POPC   C3B78165  11.835  23.267   6.997
 6203POPC   C4B78166  11.907  23.442   7.447
 6204POPC   NC378167  18.432   0.751   5.425
 6204POPC   PO478168  18.302   0.128   5.296
 6204POPC   GL178169  18.357   0.337   5.732
 6204POPC   GL278170  18.606   0.557   5.857
 6204POPC   C1A78171  18.222   0.354   6.178
 6204POPC   D2A78172  18.421   0.329   6.597
 6204POPC   C3A78173  18.061   0.287   6.831
 6204POPC   C4A78174  18.008   0.208   7.236
 6204POPC   C1B78175  18.557   0.712   6.293
 6204POPC   C2B78176  18.383   0.855   6.699
 6204POPC   C3B78177  18.247   0.680   7.095
 6204POPC   C4B78178  17.794   0.655   7.259
 6205POPC   NC378179  37.598  41.333   5.526
 6205POPC   PO478180  37.369  41.962   5.575
 6205POPC   GL178181  37.716  41.663   5.871
 6205POPC   GL278182  37.911  41.262   5.897
 6205POPC   C1A78183  37.586  41.431   6.266
 6205POPC   D2A78184  37.467  41.304   6.710
 6205POPC   C3A78185  37.535  41.573   7.081
 6205POPC   C4A78186  37.867  41.706   7.413
 6205POPC   C1B78187  38.104  41.414   6.227
 6205POPC   C2B78188  37.958  41.251   6.590
 6205POPC   C3B78189  37.974  41.385   6.972
 6205POPC   C4B78190  37.848  41.210   7.305
 6206POPC   NC378191  39.036   8.442   5.393
 6206POPC   PO478192  39.160   9.097   5.402
 6206POPC   GL178193  39.393   8.956   5.759
 6206POPC   GL278194  39.215   8.675   5.831
 6206POPC   C1A78195  39.543   8.818   6.180
 6206POPC   D2A78196  39.278   8.692   6.547
 6206POPC   C3A78197  39.387   8.895   6.945
 6206POPC   C4A78198  39.410   9.116   7.366
 6206POPC   C1B78199  39.060   8.987   6.169
 6206POPC   C2B78200  39.059   9.172   6.580
 6206POPC   C3B78201  39.000   9.233   7.019
 6206POPC   C4B78202  38.954   9.369   7.453
 6207POPC   NC378203  21.585  34.172   5.321
 6207POPC   PO478204  21.157  34.582   5.057
 6207POPC   GL178205  21.304  34.596   5.560
 6207POPC   GL278206  21.690  34.569   5.642
 6207POPC   C1A78207  21.391  34.621   6.072
 6207POPC   D2A78208  21.337  34.420   6.512
 6207POPC   C3A78209  21.375  34.663   6.916
 6207POPC   C4A78210  21.446  34.876   7.327
 6207POPC   C1B78211  21.871  34.323   6.005
 6207POPC   C2B78212  21.930  34.342   6.461
 6207POPC   C3B78213  21.710  34.278   6.844
 6207POPC   C4B78214  21.728  34.453   7.223
 6208POPC   NC378215  41.366  39.684   5.306
 6208POPC   PO478216  41.411  39.036   5.422
 6208POPC   GL178217  41.579  39.007   5.821
 6208POPC   GL278218  41.940  38.910   5.807
 6208POPC   C1A78219  41.502  39.253   6.201
 6208POPC   D2A78220  41.614  39.568   6.512
 6208POPC   C3A78221  41.570  39.389   6.909
 6208POPC   C4A78222  41.483  39.528   7.325
 6208POPC   C1B78223  41.769  38.782   6.235
 6208POPC   C2B78224  41.790  38.709   6.692
 6208POPC   C3B78225  41.730  38.910   7.057
 6208POPC   C4B78226  41.535  38.925   7.438
 6209POPC   NC378227   8.764  42.712   5.545
 6209POPC   PO478228   8.846  42.042   5.511
 6209POPC   GL178229   9.060  42.327   5.832
 6209POPC   GL278230   9.241  42.077   6.047
 6209POPC   C1A78231   9.183  42.539   6.256
 6209POPC   D2A78232   9.319  42.323   6.650
 6209POPC   C3A78233   9.109  42.516   7.029
 6209POPC   C4A78234   8.647  42.468   7.064
 6209POPC   C1B78235   8.814  42.156   6.263
 6209POPC   C2B78236   8.669  42.064   6.693
 6209POPC   C3B78237   8.970  42.028   6.980
 6209POPC   C4B78238   9.033  42.142   7.407
 6210POPC   NC378239  29.715  42.064   5.482
 6210POPC   PO478240  30.052  42.676   5.495
 6210POPC   GL178241  29.816  42.490   5.825
 6210POPC   GL278242  29.915  42.168   5.929
 6210POPC   C1A78243  29.850  42.618   6.261
 6210POPC   D2A78244  29.967  42.587   6.689
 6210POPC   C3A78245  29.774  42.492   7.079
 6210POPC   C4A78246  30.037  42.418   7.428
 6210POPC   C1B78247  29.994  42.001   6.322
 6210POPC   C2B78248  30.176  42.105   6.698
 6210POPC   C3B78249  30.022  42.063   7.067
 6210POPC   C4B78250  29.589  42.012   7.178
 6211POPC   NC378251  39.333   7.770   5.349
 6211POPC   PO478252  39.510   8.432   5.364
 6211POPC   GL178253  39.328   8.182   5.730
 6211POPC   GL278254  39.461   7.890   5.900
 6211POPC   C1A78255  39.216   8.300   6.174
 6211POPC   D2A78256  39.389   8.141   6.562
 6211POPC   C3A78257  39.403   8.373   6.955
 6211POPC   C4A78258  39.128   8.367   7.307
 6211POPC   C1B78259  39.105   7.803   6.220
 6211POPC   C2B78260  38.963   7.875   6.687
 6211POPC   C3B78261  38.974   7.871   7.176
 6211POPC   C4B78262  39.059   7.743   7.633
 6212POPC   NC378263  24.256  29.751   5.258
 6212POPC   PO478264  24.834  30.046   5.546
 6212POPC   GL178265  24.733  29.873   5.890
 6212POPC   GL278266  24.380  29.888   5.853
 6212POPC   C1A78267  24.684  29.979   6.302
 6212POPC   D2A78268  24.547  29.828   6.680
 6212POPC   C3A78269  24.745  29.898   7.065
 6212POPC   C4A78270  24.693  30.062   7.462
 6212POPC   C1B78271  24.314  29.617   6.213
 6212POPC   C2B78272  24.144  29.529   6.641
 6212POPC   C3B78273  24.233  29.684   7.092
 6212POPC   C4B78274  24.246  29.815   7.552
 6213POPC   NC378275   6.485  28.911   5.544
 6213POPC   PO478276   6.990  29.333   5.362
 6213POPC   GL178277   6.839  29.235   5.793
 6213POPC   GL278278   6.652  29.001   6.006
 6213POPC   C1A78279   6.760  29.468   6.204
 6213POPC   D2A78280   6.502  29.325   6.566
 6213POPC   C3A78281   6.669  29.286   7.007
 6213POPC   C4A78282   6.785  29.069   7.420
 6213POPC   C1B78283   6.354  28.743   6.210
 6213POPC   C2B78284   6.203  28.750   6.617
 6213POPC   C3B78285   6.204  29.046   6.910
 6213POPC   C4B78286   6.486  28.776   7.129
 6214POPC   NC378287  11.075  37.971   5.458
 6214POPC   PO478288  11.430  37.421   5.426
 6214POPC   GL178289  11.237  37.544   5.844
 6214POPC   GL278290  11.337  37.891   5.885
 6214POPC   C1A78291  11.438  37.635   6.288
 6214POPC   D2A78292  11.477  37.919   6.623
 6214POPC   C3A78293  11.583  37.595   6.878
 6214POPC   C4A78294  11.310  37.459   7.208
 6214POPC   C1B78295  11.133  38.094   6.269
 6214POPC   C2B78296  11.018  38.228   6.699
 6214POPC   C3B78297  11.152  38.035   7.087
 6214POPC   C4B78298  11.513  37.944   7.228
 6215POPC   NC378299  26.016  25.826   5.328
 6215POPC   PO478300  26.098  25.104   5.390
 6215POPC   GL178301  26.206  25.250   5.780
 6215POPC   GL278302  25.938  25.511   5.781
 6215POPC   C1A78303  26.043  25.222   6.214
 6215POPC   D2A78304  26.024  25.393   6.623
 6215POPC   C3A78305  25.928  25.124   6.949
 6215POPC   C4A78306  26.139  24.973   7.276
 6215POPC   C1B78307  25.954  25.738   6.193
 6215POPC   C2B78308  25.755  25.838   6.606
 6215POPC   C3B78309  25.954  25.770   6.998
 6215POPC   C4B78310  25.990  25.491   7.326
 6216POPC   NC378311  43.333  15.458   5.383
 6216POPC   PO478312  42.882  14.987   5.494
 6216POPC   GL178313  43.066  15.260   5.796
 6216POPC   GL278314  42.809  15.492   5.931
 6216POPC   C1A78315  43.212  15.250   6.213
 6216POPC   D2A78316  43.049  15.166   6.623
 6216POPC   C3A78317  43.220  15.297   7.029
 6216POPC   C4A78318  43.206  14.982   7.330
 6216POPC   C1B78319  42.654  15.367   6.354
 6216POPC   C2B78320  42.712  15.507   6.793
 6216POPC   C3B78321  42.824  15.554   7.211
 6216POPC   C4B78322  43.011  15.402   7.525
 6217POPC   NC378323   6.998   9.084   5.386
 6217POPC   PO478324   7.623   8.819   5.192
 6217POPC   GL178325   7.411   8.790   5.621
 6217POPC   GL278326   7.235   8.476   5.727
 6217POPC   C1A78327   7.338   8.991   6.051
 6217POPC   D2A78328   7.317   9.198   6.467
 6217POPC   C3A78329   7.464   8.971   6.823
 6217POPC   C4A78330   7.289   9.003   7.211
 6217POPC   C1B78331   7.052   8.579   6.145
 6217POPC   C2B78332   7.181   8.634   6.572
 6217POPC   C3B78333   7.064   8.549   6.996
 6217POPC   C4B78334   7.098   8.606   7.465
 6218POPC   NC378335   2.914  27.928   5.609
 6218POPC   PO478336   2.848  28.578   5.363
 6218POPC   GL178337   2.753  28.635   5.788
 6218POPC   GL278338   2.658  28.326   5.878
 6218POPC   C1A78339   2.919  28.582   6.231
 6218POPC   D2A78340   2.720  28.627   6.627
 6218POPC   C3A78341   2.983  28.499   6.976
 6218POPC   C4A78342   3.285  28.537   7.260
 6218POPC   C1B78343   2.476  28.274   6.299
 6218POPC   C2B78344   2.328  28.265   6.708
 6218POPC   C3B78345   2.537  28.281   7.075
 6218POPC   C4B78346   2.438  28.038   7.374
 6219POPC   NC378347  29.831  28.634   5.460
 6219POPC   PO478348  30.336  28.323   5.590
 6219POPC   GL178349  30.106  28.626   5.914
 6219POPC   GL278350  29.737  28.582   5.945
 6219POPC   C1A78351  29.938  28.726   6.383
 6219POPC   D2A78352  29.733  28.547   6.760
 6219POPC   C3A78353  29.931  28.544   7.158
 6219POPC   C4A78354  30.012  28.221   7.495
 6219POPC   C1B78355  29.751  28.258   6.295
 6219POPC   C2B78356  29.821  28.024   6.694
 6219POPC   C3B78357  29.681  28.084   7.112
 6219POPC   C4B78358  29.461  28.433   7.299
 6220POPC   NC378359  18.501  23.898   5.112
 6220POPC   PO478360  18.371  23.430   5.555
 6220POPC   GL178361  18.242  23.618   5.911
 6220POPC   GL278362  18.293  23.954   5.958
 6220POPC   C1A78363  18.458  23.550   6.284
 6220POPC   D2A78364  18.224  23.484   6.628
 6220POPC   C3A78365  18.475  23.404   6.905
 6220POPC   C4A78366  18.449  23.481   7.304
 6220POPC   C1B78367  18.133  23.929   6.322
 6220POPC   C2B78368  18.369  23.968   6.639
 6220POPC   C3B78369  18.218  23.895   6.983
 6220POPC   C4B78370  18.294  24.018   7.349
 6221POPC   NC378371  28.793  16.941   5.422
 6221POPC   PO478372  28.165  16.769   5.457
 6221POPC   GL178373  28.330  16.627   5.828
 6221POPC   GL278374  28.637  16.724   5.854
 6221POPC   C1A78375  28.409  16.462   6.243
 6221POPC   D2A78376  28.320  16.689   6.590
 6221POPC   C3A78377  28.427  16.539   6.968
 6221POPC   C4A78378  28.251  16.557   7.343
 6221POPC   C1B78379  28.528  16.967   6.208
 6221POPC   C2B78380  28.413  17.182   6.594
 6221POPC   C3B78381  28.528  17.044   6.968
 6221POPC   C4B78382  28.669  16.843   7.333
 6222POPC   NC378383  36.842  24.891   5.500
 6222POPC   PO478384  37.181  25.478   5.325
 6222POPC   GL178385  37.044  25.305   5.733
 6222POPC   GL278386  37.325  25.230   5.925
 6222POPC   C1A78387  36.872  25.116   6.138
 6222POPC   D2A78388  36.920  25.292   6.544
 6222POPC   C3A78389  37.034  25.110   6.919
 6222POPC   C4A78390  36.757  25.225   7.240
 6222POPC   C1B78391  37.172  25.607   6.161
 6222POPC   C2B78392  37.084  25.771   6.586
 6222POPC   C3B78393  36.923  25.628   6.961
 6222POPC   C4B78394  37.191  25.480   7.273
 6223POPC   NC378395   5.314  21.452   5.355
 6223POPC   PO478396   4.751  21.753   5.498
 6223POPC   GL178397   4.970  21.433   5.736
 6223POPC   GL278398   5.332  21.447   5.849
 6223POPC   C1A78399   4.970  21.349   6.172
 6223POPC   D2A78400   5.267  21.305   6.506
 6223POPC   C3A78401   5.120  21.349   6.923
 6223POPC   C4A78402   5.044  21.431   7.323
 6223POPC   C1B78403   5.436  21.069   6.070
 6223POPC   C2B78404   5.511  20.842   6.451
 6223POPC   C3B78405   5.382  20.913   6.861
 6223POPC   C4B78406   5.494  21.114   7.251
 6224POPC   NC378407  34.139  25.840   5.487
 6224POPC   PO478408  34.431  26.444   5.309
 6224POPC   GL178409  34.468  26.150   5.712
 6224POPC   GL278410  34.807  25.987   5.709
 6224POPC   C1A78411  34.308  25.983   6.153
 6224POPC   D2A78412  34.173  25.877   6.608
 6224POPC   C3A78413  34.369  26.121   6.954
 6224POPC   C4A78414  34.675  26.363   7.199
 6224POPC   C1B78415  34.773  25.767   6.098
 6224POPC   C2B78416  34.707  25.842   6.529
 6224POPC   C3B78417  34.640  25.647   6.911
 6224POPC   C4B78418  34.619  25.812   7.301
 6225POPC   NC378419  40.697  31.589   5.184
 6225POPC   PO478420  40.979  31.104   5.625
 6225POPC   GL178421  40.699  31.389   5.878
 6225POPC   GL278422  40.350  31.285   5.880
 6225POPC   C1A78423  40.784  31.612   6.296
 6225POPC   D2A78424  41.129  31.494   6.621
 6225POPC   C3A78425  41.018  31.503   7.068
 6225POPC   C4A78426  40.643  31.752   7.188
 6225POPC   C1B78427  40.439  31.249   6.320
 6225POPC   C2B78428  40.612  31.366   6.713
 6225POPC   C3B78429  40.619  31.166   7.075
 6225POPC   C4B78430  40.347  31.255   7.359
 6226POPC   NC378431  42.885  29.810   5.640
 6226POPC   PO478432  43.433  30.075   5.399
 6226POPC   GL178433  43.268  30.119   5.868
 6226POPC   GL278434  42.984  29.991   6.105
 6226POPC   C1A78435  43.462  30.125   6.266
 6226POPC   D2A78436  43.514  29.932   6.658
 6226POPC   C3A78437  43.128  29.887   6.866
 6226POPC   C4A78438  43.097  29.974   7.295
 6226POPC   C1B78439  43.248  29.654   6.298
 6226POPC   C2B78440  43.367  29.450   6.692
 6226POPC   C3B78441  43.433  29.545   7.120
 6226POPC   C4B78442  43.175  29.523   7.479
 6227POPC   NC378443  41.522  14.123   5.581
 6227POPC   PO478444  41.595  13.530   5.319
 6227POPC   GL178445  41.583  13.592   5.769
 6227POPC   GL278446  41.247  13.760   5.813
 6227POPC   C1A78447  41.785  13.457   6.186
 6227POPC   D2A78448  41.549  13.422   6.598
 6227POPC   C3A78449  41.676  13.625   6.993
 6227POPC   C4A78450  41.872  13.479   7.332
 6227POPC   C1B78451  41.368  13.749   6.235
 6227POPC   C2B78452  41.491  13.931   6.614
 6227POPC   C3B78453  41.227  13.883   6.981
 6227POPC   C4B78454  41.469  13.972   7.329
 6228POPC   NC378455  29.646  19.219   5.375
 6228POPC   PO478456  30.165  18.808   5.432
 6228POPC   GL178457  29.945  18.865   5.836
 6228POPC   GL278458  29.671  19.120   5.881
 6228POPC   C1A78459  30.011  18.945   6.269
 6228POPC   D2A78460  30.124  19.043   6.691
 6228POPC   C3A78461  29.985  18.843   7.085
 6228POPC   C4A78462  29.978  18.982   7.534
 6228POPC   C1B78463  29.509  18.818   6.185
 6228POPC   C2B78464  29.659  18.801   6.625
 6228POPC   C3B78465  29.686  19.175   6.913
 6228POPC   C4B78466  29.535  19.080   7.318
 6229POPC   NC378467  40.736  34.445   5.317
 6229POPC   PO478468  40.998  35.031   5.475
 6229POPC   GL178469  40.695  34.701   5.747
 6229POPC   GL278470  40.545  34.324   5.767
 6229POPC   C1A78471  40.703  34.692   6.194
 6229POPC   D2A78472  40.882  34.877   6.577
 6229POPC   C3A78473  40.822  34.771   7.006
 6229POPC   C4A78474  40.996  34.839   7.466
 6229POPC   C1B78475  40.661  34.186   6.174
 6229POPC   C2B78476  40.757  34.344   6.592
 6229POPC   C3B78477  40.571  34.330   7.003
 6229POPC   C4B78478  40.825  34.389   7.363
 6230POPC   NC378479  33.391  12.710   5.392
 6230POPC   PO478480  34.074  12.828   5.629
 6230POPC   GL178481  33.852  12.825   5.989
 6230POPC   GL278482  33.597  12.645   5.861
 6230POPC   C1A78483  33.849  12.739   6.424
 6230POPC   D2A78484  33.894  13.001   6.782
 6230POPC   C3A78485  33.934  12.793   7.163
 6230POPC   C4A78486  33.932  12.981   7.579
 6230POPC   C1B78487  33.371  12.704   6.272
 6230POPC   C2B78488  33.420  12.805   6.730
 6230POPC   C3B78489  33.478  13.027   7.139
 6230POPC   C4B78490  33.435  12.999   7.590
 6231POPC   NC378491  20.185  24.997   5.665
 6231POPC   PO478492  19.861  25.608   5.412
 6231POPC   GL178493  19.846  25.420   5.805
 6231POPC   GL278494  19.605  25.155   5.742
 6231POPC   C1A78495  19.956  25.609   6.222
 6231POPC   D2A78496  19.781  25.713   6.629
 6231POPC   C3A78497  19.986  25.474   6.909
 6231POPC   C4A78498  19.864  25.327   7.301
 6231POPC   C1B78499  19.670  24.962   6.139
 6231POPC   C2B78500  19.791  25.189   6.507
 6231POPC   C3B78501  19.767  24.999   6.894
 6231POPC   C4B78502  19.740  24.834   7.271
 6232POPC   NC378503  23.689  14.178   5.548
 6232POPC   PO478504  23.576  14.817   5.430
 6232POPC   GL178505  23.566  14.592   5.878
 6232POPC   GL278506  23.298  14.343   5.883
 6232POPC   C1A78507  23.674  14.650   6.362
 6232POPC   D2A78508  23.886  14.834   6.770
 6232POPC   C3A78509  23.761  14.617   7.145
 6232POPC   C4A78510  23.949  14.340   7.432
 6232POPC   C1B78511  23.421  14.180   6.306
 6232POPC   C2B78512  23.613  14.267   6.725
 6232POPC   C3B78513  23.460  14.186   7.132
 6232POPC   C4B78514  23.446  14.376   7.527
 6233POPC   NC378515   6.901  18.346   5.490
 6233POPC   PO478516   6.289  18.588   5.539
 6233POPC   GL178517   6.523  18.293   5.838
 6233POPC   GL278518   6.883  18.435   5.983
 6233POPC   C1A78519   6.636  18.078   6.220
 6233POPC   D2A78520   6.769  18.321   6.559
 6233POPC   C3A78521   6.633  18.128   6.926
 6233POPC   C4A78522   6.380  18.183   7.305
 6233POPC   C1B78523   7.218  18.439   6.267
 6233POPC   C2B78524   7.256  18.380   6.685
 6233POPC   C3B78525   6.981  18.593   6.976
 6233POPC   C4B78526   6.835  18.393   7.335
 6234POPC   NC378527  13.596  11.680   5.179
 6234POPC   PO478528  13.952  12.049   5.565
 6234POPC   GL178529  13.855  12.046   5.970
 6234POPC   GL278530  13.511  11.996   6.035
 6234POPC   C1A78531  13.841  12.034   6.400
 6234POPC   D2A78532  13.999  12.276   6.663
 6234POPC   C3A78533  13.790  12.091   6.990
 6234POPC   C4A78534  13.780  12.253   7.364
 6234POPC   C1B78535  13.268  11.737   6.296
 6234POPC   C2B78536  13.321  11.467   6.636
 6234POPC   C3B78537  13.479  11.626   7.007
 6234POPC   C4B78538  13.285  11.818   7.330
 6235POPC   NC378539  33.327  42.519   5.469
 6235POPC   PO478540  33.944  42.069   5.458
 6235POPC   GL178541  33.861  42.238   5.872
 6235POPC   GL278542  33.738  41.925   5.933
 6235POPC   C1A78543  33.809  42.520   6.248
 6235POPC   D2A78544  33.742  42.744   6.640
 6235POPC   C3A78545  33.642  42.593   7.045
 6235POPC   C4A78546  33.617  42.178   7.169
 6235POPC   C1B78547  33.775  42.004   6.366
 6235POPC   C2B78548  33.870  42.241   6.696
 6235POPC   C3B78549  34.200  42.494   6.765
 6235POPC   C4B78550  34.151  42.608   7.130
 6236POPC   NC378551  30.869   1.912   5.429
 6236POPC   PO478552  30.320   1.625   5.712
 6236POPC   GL178553  30.677   1.780   5.894
 6236POPC   GL278554  30.665   2.126   5.852
 6236POPC   C1A78555  30.706   1.848   6.309
 6236POPC   D2A78556  30.511   2.106   6.641
 6236POPC   C3A78557  30.582   1.894   7.035
 6236POPC   C4A78558  30.760   1.797   7.471
 6236POPC   C1B78559  30.720   2.362   6.220
 6236POPC   C2B78560  30.865   2.478   6.599
 6236POPC   C3B78561  30.854   2.328   6.992
 6236POPC   C4B78562  30.631   2.277   7.375
 6237W        W78563  39.593  33.084  10.698
 6238W        W78564  30.537  33.452  11.048
 6239W        W78565  31.230   7.109   0.569
 6240W        W78566  24.973   9.638  11.017
 6241W        W78567  30.014  27.628   3.022
 6242W        W78568  44.794  27.057   1.511
 6243W        W78569  22.410  28.589   3.883
 6244W        W78570  44.024  37.540   4.260
 6245W        W78571  31.989  18.032   4.567
 6246W        W78572   2.761  15.248   4.244
 6247W        W78573   6.069  21.951  12.861
 6248W        W78574  17.815  10.012  12.066
 6249W        W78575  29.817  38.530  11.174
 6250W        W78576   0.758  10.725  10.515
 6251W        W78577   2.446   6.861  12.992
 6252W        W78578  10.757  31.636   4.209
 6253W        W78579  26.060  26.777  11.955
 6254W        W78580   8.908  18.755  11.302
 6255W        W78581   1.639   3.672  13.076
 6256W        W78582   4.458  22.540  11.031
 6257W        W78583  25.633  15.216   2.260
 6258W        W78584  19.193  33.183   3.429
 6259W        W78585  42.454   4.442  10.734
 6260W        W78586  31.199  43.542  14.894
 6261W        W78587  21.697  38.071  14.827
 6262W        W78588  33.968  12.268  13.062
 6263W        W78589  28.325  36.353   4.247
 6264W        W78590  20.288  38.579   3.577
 6265W        W78591  20.165   4.313  11.425
 6266W        W78592  42.700  29.100   0.910
 6267W        W78593  16.742  12.587   2.311
 6268W        W78594   1.965   7.778  12.514
 6269W        W78595   9.077  39.527   2.258
 6270W        W78596  32.667  10.248  12.016
 6271W        W78597  33.409  22.632   3.659
 6272W        W78598  42.980   1.465   2.837
 6273W        W78599  26.973   8.835   1.867
 6274W        W78600  17.867   3.384   3.205
 6275W        W78601  15.819  36.844   3.566
 6276W        W78602  29.013   2.678   0.262
 6277W        W78603   1.167  43.860   2.295
 6278W        W78604   2.669   2.214  13.365
 6279W        W78605  29.428  32.686   1.149
 6280W        W78606  24.439   0.483  11.279
 6281W        W78607   9.183  32.150  12.375
 6282W        W78608  28.657  21.608  11.154
 6283W        W78609   7.279  43.869   3.946
 6284W        W78610  18.321  37.886  13.967
 6285W        W78611  15.745   3.950   1.260
 6286W        W78612  37.924  27.209  11.545
 6287W        W78613  10.882   2.581   0.795
 6288W        W78614  33.522   8.381   2.241
 6289W        W78615  35.997  37.004  11.613
 6290W        W78616  43.612   7.857   4.301
 6291W        W78617  41.891  36.638   0.953
 6292W        W78618  27.918  23.269  13.015
 6293W        W78619  36.795  28.676   0.445
 6294W        W78620   9.755   7.238   4.229
 6295W        W78621  43.528  41.095   4.587
 6296W        W78622  23.020   4.170   2.737
 6297W        W78623  34.018  42.738  10.945
 6298W        W78624  28.405   5.230  13.878
 6299W        W78625  22.514  16.836  11.489
 6300W        W78626  31.376   9.742  13.200
 6301W        W78627  40.105  34.629   2.177
 6302W        W78628  20.952  38.487  14.501
 6303W        W78629  27.791  10.209   0.928
 6304W        W78630  28.964  15.016  13.450
 6305W        W78631  41.976  10.611  11.276
 6306W        W78632  43.461  29.176   4.742
 6307W        W78633  16.818  17.113  10.626
 6308W        W78634   1.730  17.263  13.529
 6309W        W78635   8.078  15.308   0.278
 6310W        W78636  14.736  42.434  12.608
 6311W        W78637  31.058  26.664  10.389
 6312W        W78638   8.792  23.052  13.706
 6313W        W78639  41.209   3.781  12.732
 6314W        W78640  13.224  23.493  13.098
 6315W        W78641   4.929  12.755  14.394
 6316W        W78642  15.042  22.202   3.464
 6317W        W78643  36.954  38.293  14.778
 6318W        W78644  31.475   4.777   4.632
 6319W        W78645  14.116  10.372   3.243
 6320W        W78646  27.716  27.189   3.128
 6321W        W78647  39.896  43.226  12.332
 6322W        W78648  32.886  13.078  14.364
 6323W        W78649  22.847  44.861   3.257
 6324W        W78650  26.063   3.497  10.860
 6325W        W78651   5.976  42.460  14.558
 6326W        W78652  16.112   8.330  12.884
 6327W        W78653   5.968  31.054   1.464
 6328W        W78654  41.325  15.795  14.523
 6329W        W78655  31.114  33.910   0.844
 6330W        W78656  38.443   9.060  13.505
 6331W        W78657   8.240  19.001   2.678
 6332W        W78658  23.959  19.008  12.611
 6333W        W78659   9.720  15.159   0.320
 6334W        W78660  37.376  12.652   2.851
 6335W        W78661   1.410   7.726   3.725
 6336W        W78662  31.470  36.321   0.033
 6337W        W78663  20.490  17.418   3.286
 6338W        W78664  17.782  34.339  12.529
 6339W        W78665  10.111  14.194   2.261
 6340W        W78666  14.173  29.558   5.031
 6341W        W78667   3.733   3.440  10.309
 6342W        W78668  12.133  24.594  14.926
 6343W        W78669  10.287  33.843   0.944
 6344W        W78670  17.505  43.559   2.773
 6345W        W78671  38.296  12.675   2.704
 6346W        W78672  41.000  12.655   0.950
 6347W        W78673  16.979   3.137  14.291
 6348W        W78674  25.596   9.571   4.946
 6349W        W78675  15.081  33.146  10.926
 6350W        W78676  28.566  39.507   0.370
 6351W        W78677  19.302  27.218  12.207
 6352W        W78678  27.716  13.754  12.840
 6353W        W78679  33.951  10.713   3.967
 6354W        W78680  29.196  28.198   3.242
 6355W        W78681  17.235   5.010  11.593
 6356W        W78682  42.876  31.218   3.686
 6357W        W78683  43.848  39.753  14.834
 6358W        W78684  42.250  11.440   2.025
 6359W        W78685  43.919  16.638   0.177
 6360W        W78686  32.835   1.751  14.851
 6361W        W78687  34.382  27.172  14.346
 6362W        W78688  43.573  44.911  12.839
 6363W        W78689  23.768  35.339  14.827
 6364W        W78690  10.835  30.893  12.593
 6365W        W78691  14.111  37.378   4.440
 6366W        W78692  10.721  38.333  13.075
 6367W        W78693  19.594  14.327  10.758
 6368W        W78694  23.161   2.503  12.012
 6369W        W78695  16.837  40.132   0.913
 6370W        W78696  28.073  42.955   0.988
 6371W        W78697   7.187   7.643   1.847
 6372W        W78698  13.718  17.940  11.856
 6373W        W78699  34.515  12.260  11.465
 6374W        W78700  25.252  38.348  12.158
 6375W        W78701  12.627   4.699  13.933
 6376W        W78702   6.305   3.247  14.771
 6377W        W78703  35.429  13.579   1.953
 6378W        W78704  17.790   8.456   0.476
 6379W        W78705  38.599  24.682   0.229
 6380W        W78706  31.154   2.371   0.840
 6381W        W78707   0.966  44.624   3.332
 6382W        W78708  10.329  28.445   1.151
 6383W        W78709  29.543   5.032   3.758
 6384W        W78710   1.908  17.669  10.592
 6385W        W78711  16.156  41.754  12.551
 6386W        W78712  41.371  24.592  11.198
 6387W        W78713  35.668   6.449   1.633
 6388W        W78714   3.003  25.040  10.981
 6389W        W78715  43.451  16.026  11.082
 6390W        W78716  44.150  42.848   0.958
 6391W        W78717  10.646  19.919   0.413
 6392W        W78718  26.296  34.453  12.948
 6393W        W78719   6.310  39.934   4.527
 6394W        W78720  31.466  23.578  11.637
 6395W        W78721  20.263  26.053  11.988
 6396W        W78722   7.945  22.927  11.340
 6397W        W78723   6.377   0.715   4.647
 6398W        W78724  21.254  10.390  11.041
 6399W        W78725   8.961  14.154  13.299
 6400W        W78726  15.649   7.840   3.349
 6401W        W78727  17.183  16.711  14.964
 6402W        W78728  17.019  19.102  11.545
 6403W        W78729  42.494  36.551  11.699
 6404W        W78730  26.621  15.625   2.661
 6405W        W78731  17.117  15.072   1.139
 6406W        W78732  29.838  41.453  12.051
 6407W        W78733  25.765  13.737  14.511
 6408W        W78734  29.782  18.198  14.833
 6409W        W78735   6.686  26.104  11.596
 6410W        W78736  34.468  28.869   4.890
 6411W        W78737  38.305   3.760  13.590
 6412W        W78738  38.418  11.466   4.208
 6413W        W78739  33.981  20.549   0.879
 6414W        W78740  26.508  17.801   3.966
 6415W        W78741   6.821  28.062  12.080
 6416W        W78742  22.060  26.994  10.540
 6417W        W78743  18.740  40.947   0.809
 6418W        W78744  36.009  27.982   0.292
 6419W        W78745   9.122  38.250   3.814
 6420W        W78746  18.080  34.504   3.672
 6421W        W78747  34.365  40.291  12.330
 6422W        W78748   7.705  11.429  11.155
 6423W        W78749  39.515   3.334  12.061
 6424W        W78750  35.442  12.786   1.438
 6425W        W78751  10.849  19.335   1.237
 6426W        W78752  35.523   4.918   0.241
 6427W        W78753  11.645  25.678  11.019
 6428W        W78754  26.501  38.052   0.207
 6429W        W78755  20.491  42.242  11.102
 6430W        W78756  38.990  43.493   2.851
 6431W        W78757  38.307   9.631   4.163
 6432W        W78758  30.145  29.557   3.684
 6433W        W78759   8.713  19.733  10.832
 6434W        W78760  19.524  14.624   1.487
 6435W        W78761   6.329   3.516   3.576
 6436W        W78762   7.383   4.921   1.892
 6437W        W78763   0.113  12.921   0.819
 6438W        W78764  36.821  15.645   0.670
 6439W        W78765  27.792  30.561   5.120
 6440W        W78766  44.499  10.780   2.224
 6441W        W78767  34.435  43.403  10.948
 6442W        W78768  12.346  43.542   2.673
 6443W        W78769  40.498  26.396  10.719
 6444W        W78770  30.130  20.390   5.104
 6445W        W78771  19.522  12.840   2.115
 6446W        W78772  20.191  13.849  11.399
 6447W        W78773  18.556  39.082   2.738
 6448W        W78774   1.858  29.834  11.497
 6449W        W78775  32.341  44.227   2.859
 6450W        W78776  44.974  30.912  11.237
 6451W        W78777  43.843  25.781  11.215
 6452W        W78778  40.596  29.146  10.853
 6453W        W78779  37.606  19.191  13.319
 6454W        W78780   4.890  16.625  13.591
 6455W        W78781   0.154  27.077   2.544
 6456W        W78782   9.468  23.678   4.649
 6457W        W78783  24.995  14.443   0.358
 6458W        W78784   0.371  11.168   1.426
 6459W        W78785  43.272  33.315   3.156
 6460W        W78786   0.708   5.699  11.243
 6461W        W78787  30.546  13.895   3.201
 6462W        W78788  14.749  25.431   4.633
 6463W        W78789   1.466   9.564  13.475
 6464W        W78790   2.548  32.485   4.822
 6465W        W78791   5.831  12.841   0.232
 6466W        W78792  35.137  21.796  12.378
 6467W        W78793  26.499  29.005   0.705
 6468W        W78794  37.406  40.845   4.101
 6469W        W78795  26.457  19.632   0.900
 6470W        W78796  10.445  32.079   0.563
 6471W        W78797  29.168   0.726  14.405
 6472W        W78798  12.710  14.698  12.316
 6473W        W78799  33.502  35.011   4.092
 6474W        W78800  17.943  20.595   2.850
 6475W        W78801  29.856  27.516  13.438
 6476W        W78802  11.213  15.976   3.832
 6477W        W78803  37.955  13.657   2.891
 6478W        W78804  16.579  30.145   0.209
 6479W        W78805   1.995  31.599  13.530
 6480W        W78806   8.084   2.936   3.738
 6481W        W78807   1.075   5.394  11.003
 6482W        W78808  34.550  42.824  12.924
 6483W        W78809  39.483   1.475   1.413
 6484W        W78810  11.064   9.043   3.214
 6485W        W78811  10.330  19.766   4.670
 6486W        W78812  24.958  14.792  14.533
 6487W        W78813   5.273  17.374   2.755
 6488W        W78814  12.357   5.923   0.050
 6489W        W78815  16.068  27.024  13.854
 6490W        W78816  29.233  24.258   4.052
 6491W        W78817   2.539  42.085   1.387
 6492W        W78818  15.013   9.609  14.462
 6493W        W78819   8.883  36.950  10.689
 6494W        W78820  40.010  34.462  14.008
 6495W        W78821  31.438  27.624   0.391
 6496W        W78822   3.263  35.473  13.773
 6497W        W78823   7.862  21.936  14.140
 6498W        W78824  15.309  27.035   3.664
 6499W        W78825  25.513   2.019  11.968
 6500W        W78826  30.164   7.404  11.133
 6501W        W78827  30.931  14.495   2.709
 6502W        W78828  42.215  44.228  12.437
 6503W        W78829  33.015  36.551   4.468
 6504W        W78830  29.231   9.236  12.249
 6505W        W78831  38.517  13.361  12.316
 6506W        W78832   7.296  33.709   1.255
 6507W        W78833  22.718  28.907  13.501
 6508W        W78834  44.217  11.914   0.953
 6509W        W78835  28.015  37.290   0.893
 6510W        W78836  25.091  19.838  13.290
 6511W        W78837  27.238  21.218   1.742
 6512W        W78838  36.392  27.216  11.858
 6513W        W78839  41.807  29.023   2.038
 6514W        W78840  23.813  41.294  13.966
 6515W        W78841  26.890   8.739   1.337
 6516W        W78842  35.309  11.562   3.775
 6517W        W78843  11.974  34.699  12.399
 6518W        W78844  38.967   7.435  13.600
 6519W        W78845   6.184   5.312   0.543
 6520W        W78846  40.012  26.174  12.070
 6521W        W78847  26.153  24.984   2.746
 6522W        W78848  38.102  12.836   2.191
 6523W        W78849  25.976  40.533  12.169
 6524W        W78850   2.649  42.854  14.887
 6525W        W78851  13.106  29.031   1.471
 6526W        W78852   5.442   5.945   3.336
 6527W        W78853  26.923  14.668  10.542
 6528W        W78854   1.931   2.839  11.620
 6529W        W78855  23.078  41.728  13.373
 6530W        W78856  24.747  16.517   1.370
 6531W        W78857  31.571  43.734   3.334
 6532W        W78858  24.577   0.204  10.735
 6533W        W78859  43.417  11.704  12.405
 6534W        W78860  13.887  25.040   3.261
 6535W        W78861  36.012  24.520  11.182
 6536W        W78862  17.498  39.553   4.325
 6537W        W78863   1.536  23.051  14.240
 6538W        W78864   3.950   8.563   2.956
 6539W        W78865  17.058  44.454  11.125
 6540W        W78866   2.319   5.240  11.565
 6541W        W78867  28.543  27.464  13.777
 6542W        W78868  23.610  39.661   5.444
 6543W        W78869  31.914  24.017  11.158
 6544W        W78870  28.436  20.173  11.953
 6545W        W78871  22.242   3.767  10.586
 6546W        W78872  30.677  29.483  10.832
 6547W        W78873  43.470   8.107   4.723
 6548W        W78874   6.580  30.672   3.790
 6549W        W78875  19.250   6.756  11.099
 6550W        W78876  12.062  17.197  10.668
 6551W        W78877  26.458   2.263   0.147
 6552W        W78878  31.651  33.346   3.593
 6553W        W78879  35.006  21.553  14.131
 6554W        W78880  37.388  17.071   2.104
 6555W        W78881  21.901   5.473  10.830
 6556W        W78882  13.201   4.320  12.606
 6557W        W78883  28.707  25.178   2.892
 6558W        W78884  39.840  15.448   1.761
 6559W        W78885  27.069  37.509   2.358
 6560W        W78886   1.197  39.968   0.538
 6561W        W78887  34.053  34.938   4.958
 6562W        W78888   5.430   6.327   2.095
 6563W        W78889   1.423  27.460   3.536
 6564W        W78890  38.541  42.494  12.147
 6565W        W78891   5.968  38.803  12.926
 6566W        W78892  41.706  24.144   0.818
 6567W        W78893  12.808  10.749   4.076
 6568W        W78894  28.001   5.030   2.277
 6569W        W78895  40.809  32.890  12.469
 6570W        W78896  13.026  33.921   1.742
 6571W        W78897  25.205  36.985   1.701
 6572W        W78898  39.717  44.011   3.226
 6573W        W78899  44.015  41.971   3.203
 6574W        W78900  42.291  16.005  10.384
 6575W        W78901  19.246  28.783   0.363
 6576W        W78902  42.805  13.356   4.661
 6577W        W78903   0.283   9.644   1.862
 6578W        W78904  15.687  38.273  10.759
 6579W        W78905  42.586  23.885   2.301
 6580W        W78906   2.868   2.452  13.920
 6581W        W78907  28.304  38.898  10.415
 6582W        W78908  22.268  39.475  13.040
 6583W        W78909   9.222   2.182   3.732
 6584W        W78910  39.072  41.391   2.703
 6585W        W78911   4.296  24.593   2.974
 6586W        W78912  11.747  13.112   1.823
 6587W        W78913   5.372  20.922   3.976
 6588W        W78914  18.245  31.955   2.752
 6589W        W78915  33.856   5.562  11.963
 6590W        W78916  16.767   8.228   3.828
 6591W        W78917  21.549  16.625  13.748
 6592W        W78918  22.735  25.455  13.543
 6593W        W78919  12.646  11.520   2.233
 6594W        W78920  27.543  10.818  11.122
 6595W        W78921  21.772  23.693   1.888
 6596W        W78922   6.810  34.590  12.848
 6597W        W78923  12.896  38.372   4.898
 6598W        W78924  38.395  12.771  12.375
 6599W        W78925  28.818  21.138   2.141
 6600W        W78926  18.988  24.487   3.908
 6601W        W78927  25.975  11.900   1.750
 6602W        W78928  28.394  43.996   1.932
 6603W        W78929  35.558  33.889   4.192
 6604W        W78930  42.822  41.468   4.973
 6605W        W78931  14.067  20.622   0.775
 6606W        W78932   1.716   3.400   3.313
 6607W        W78933  26.272  37.637   0.408
 6608W        W78934  31.771   6.954   0.668
 6609W        W78935  11.073  26.466   2.062
 6610W        W78936  22.482  30.003  14.697
 6611W        W78937  37.538  33.008   0.579
 6612W        W78938  40.061  29.156  12.029
 6613W        W78939  29.613  30.498  13.823
 6614W        W78940  28.258  35.094   1.899
 6615W        W78941  12.671  16.728   4.553
 6616W        W78942  11.964  10.611  11.602
 6617W        W78943  44.011  18.143   4.650
 6618W        W78944  14.993   1.493   1.939
 6619W        W78945  39.504  13.696   0.164
 6620W        W78946  43.271   3.340   4.558
 6621W        W78947   0.774  37.332   3.521
 6622W        W78948  44.899  16.274  12.974
 6623W        W78949  42.503  33.913   3.180
 6624W        W78950  40.276  14.574   0.321
 6625W        W78951  38.100  41.616  12.185
 6626W        W78952   4.396  40.800   4.382
 6627W        W78953   3.731   8.173   0.235
 6628W        W78954   0.792   8.719   1.603
 6629W        W78955  43.860  25.891  13.950
 6630W        W78956  18.728  39.368  11.699
 6631W        W78957  36.391  16.217  10.966
 6632W        W78958  37.320  15.082  11.932
 6633W        W78959  13.748  20.295   1.035
 6634W        W78960  34.597  44.963  11.259
 6635W        W78961  25.634  23.405  11.923
 6636W        W78962  37.021  16.614  10.556
 6637W        W78963  21.247   8.976   1.433
 6638W        W78964  14.153  29.935   3.927
 6639W        W78965  38.103  11.070   2.235
 6640W        W78966  24.010   0.305   1.821
 6641W        W78967  28.082  16.924   0.998
 6642W        W78968  18.611  38.035   1.156
 6643W        W78969  35.701  33.391  10.656
 6644W        W78970   4.472   1.391  10.904
 6645W        W78971  34.707  22.142   2.871
 6646W        W78972  37.960  38.366  12.205
 6647W        W78973   0.868  28.640   1.691
 6648W        W78974   0.896  19.045  13.539
 6649W        W78975  22.260  29.124   1.106
 6650W        W78976  40.783  14.107  13.816
 6651W        W78977  37.440  12.463  11.020
 6652W        W78978   5.746  15.292   0.375
 6653W        W78979  21.215  40.552  10.783
 6654W        W78980  21.328  13.260  12.616
 6655W        W78981   7.342  15.354   3.557
 6656W        W78982  29.766   2.437  13.987
 6657W        W78983  28.297  33.512   3.827
 6658W        W78984   7.969  38.864   5.400
 6659W        W78985  41.577  29.707   1.921
 6660W        W78986   7.334  38.896  14.874
 6661W        W78987   6.986  12.228  12.991
 6662W        W78988  24.099   9.638   3.790
 6663W        W78989   9.180   2.539  13.083
 6664W        W78990  44.291   4.998   5.398
 6665W        W78991  37.475  25.415  11.878
 6666W        W78992  36.174  33.869  12.259
 6667W        W78993   1.949  35.379   3.852
 6668W        W78994   8.659  10.798   1.974
 6669W        W78995   8.798  22.233   3.199
 6670W        W78996  16.958  10.332  14.794
 6671W        W78997  31.473  41.238   3.235
 6672W        W78998  38.874  11.534   4.529
 6673W        W78999  11.398  23.452   4.099
 6674W        W79000  28.966  27.135  10.595
 6675W        W79001  34.486  18.250   0.459
 6676W        W79002  35.306  18.620  14.991
 6677W        W79003  40.840  27.056  12.081
 6678W        W79004   6.508  15.741   5.038
 6679W        W79005   1.546   1.645   9.587
 6680W        W79006  14.351  11.416  14.482
 6681W        W79007  16.456  27.539   0.990
 6682W        W79008  35.823  14.951   0.994
 6683W        W79009  33.335  16.107   3.733
 6684W        W79010  11.868  24.155  10.409
 6685W        W79011  12.425   8.160   0.293
 6686W        W79012  13.742  35.427   1.299
 6687W        W79013   9.164   7.760   4.571
 6688W        W79014  35.854  14.080  11.445
 6689W        W79015  33.879  36.496  14.814
 6690W        W79016  15.819  32.851  14.900
 6691W        W79017  19.307  20.334  13.528
 6692W        W79018  40.291  23.911  11.156
 6693W        W79019  26.981  10.593  12.356
 6694W        W79020  43.458  26.627   4.702
 6695W        W79021  16.316  22.905  11.837
 6696W        W79022  15.638  42.827   1.953
 6697W        W79023  39.071  30.485  14.526
 6698W        W79024  15.320  10.087  11.525
 6699W        W79025  34.013  21.084   1.828
 6700W        W79026  20.966  35.854  13.053
 6701W        W79027  16.842  35.428   0.819
 6702W        W79028  18.714   3.580   2.213
 6703W        W79029   9.148  12.702  13.787
 6704W        W79030  10.342   3.751  12.275
 6705W        W79031  30.718  37.974  12.315
 6706W        W79032  11.695   3.368  14.286
 6707W        W79033   0.934  23.467   0.325
 6708W        W79034  14.075  10.795  13.970
 6709W        W79035  31.650  32.561   4.071
 6710W        W79036  42.760  43.958   3.320
 6711W        W79037  22.213  21.427  13.766
 6712W        W79038  34.374   0.923   2.372
 6713W        W79039  18.265  43.451   3.065
 6714W        W79040   7.325  36.441   0.135
 6715W        W79041  27.202  22.726   2.325
 6716W        W79042   4.188   3.524  10.051
 6717W        W79043   7.885   1.273   3.507
 6718W        W79044   5.021  22.544   0.436
 6719W        W79045  32.958  28.141  14.855
 6720W        W79046   7.321  35.335  12.868
 6721W        W79047   1.757  11.154   0.456
 6722W        W79048  40.792  10.443  13.509
 6723W        W79049  41.669  12.074  12.498
 6724W        W79050  14.009  27.162  12.965
 6725W        W79051  24.570  31.179  13.770
 6726W        W79052  34.495   3.674  12.091
 6727W        W79053   6.734   8.798   0.325
 6728W        W79054  22.614  33.140  12.251
 6729W        W79055  38.253  39.430   3.186
 6730W        W79056  42.670   5.877  11.518
 6731W        W79057  24.613  25.680  10.429
 6732W        W79058  43.424   4.865   2.203
 6733W        W79059   9.223  23.247  14.515
 6734W        W79060  11.534  27.822   4.116
 6735W        W79061  16.101  42.565  11.092
 6736W        W79062  34.343  31.992  14.908
 6737W        W79063  23.602   5.221   1.941
 6738W        W79064  44.792  36.934   3.141
 6739W        W79065  26.999  34.701  11.009
 6740W        W79066  44.791  10.824  13.105
 6741W        W79067  10.865  21.814   1.256
 6742W        W79068  22.090  35.978  14.011
 6743W        W79069  43.876   0.295  11.019
 6744W        W79070  17.138  41.290  13.286
 6745W        W79071  27.073  33.931  13.783
 6746W        W79072  23.082  43.947   3.202
 6747W        W79073  16.699   3.739   3.171
 6748W        W79074  10.708   9.058  13.037
 6749W        W79075  10.187  31.713   2.055
 6750W        W79076  25.739   2.808  13.424
 6751W        W79077  43.893  41.027   0.872
 6752W        W79078  28.482   7.753  11.350
 6753W        W79079  10.868  25.229  14.782
 6754W        W79080  40.870  29.029  13.480
 6755W        W79081  22.135  21.467  11.000
 6756W        W79082  37.945   6.142  14.735
 6757W        W79083  16.775  12.349   0.961
 6758W        W79084  36.073  12.353  10.289
 6759W        W79085  31.400   8.755   0.512
 6760W        W79086   1.311   5.821   4.123
 6761W        W79087   7.823  44.652   2.741
 6762W        W79088  17.075  29.808  14.355
 6763W        W79089  43.011  21.983   3.793
 6764W        W79090   0.834   3.907   4.569
 6765W        W79091  42.356  43.447   2.037
 6766W        W79092  15.379  33.572   1.779
 6767W        W79093  34.138  38.662  13.829
 6768W        W79094   4.974  39.588  12.070
 6769W        W79095  27.544  18.151   1.372
 6770W        W79096  11.556  44.779   2.508
 6771W        W79097   6.849  34.584   2.108
 6772W        W79098   2.881  31.321  14.514
 6773W        W79099  33.466   0.283   2.472
 6774W        W79100  21.301  19.327   3.668
 6775W        W79101  35.281  10.114   0.466
 6776W        W79102  27.957  33.730   0.328
 6777W        W79103  33.907  17.107  12.197
 6778W        W79104  42.469  33.455   3.462
 6779W        W79105  16.905  41.093   5.100
 6780W        W79106  40.927  16.151  12.936
 6781W        W79107  14.439  15.140  14.922
 6782W        W79108  44.321  18.698  11.764
 6783W        W79109  30.741  13.209  10.697
 6784W        W79110  10.077  13.669   4.887
 6785W        W79111  27.074  42.737  14.535
 6786W        W79112  28.436   1.861   0.941
 6787W        W79113  27.459  20.278   0.429
 6788W        W79114  16.645  10.398   1.191
 6789W        W79115   4.353  27.079  11.119
 6790W        W79116  33.087  20.757  11.073
 6791W        W79117  21.186   0.404   3.918
 6792W        W79118  24.639   9.881  14.547
 6793W        W79119  31.643  28.075   1.463
 6794W        W79120  25.016  37.570  11.460
 6795W        W79121  12.371  19.185  10.742
 6796W        W79122   4.949   1.775  13.458
 6797W        W79123  42.925  20.124  14.886
 6798W        W79124  43.335  42.791  11.545
 6799W        W79125  11.898  21.518   2.193
 6800W        W79126   8.031  13.566  10.776
 6801W        W79127   1.620  38.405   4.314
 6802W        W79128  28.295  29.176  11.395
 6803W        W79129  11.325   4.573  12.837
 6804W        W79130  24.813  33.020   2.830
 6805W        W79131  35.438  39.781  10.649
 6806W        W79132  23.487  33.027  13.891
 6807W        W79133  15.125  26.758  12.507
 6808W        W79134  14.186   4.516   3.120
 6809W        W79135   4.999  30.702  14.378
 6810W        W79136   6.214   5.376  14.535
 6811W        W79137  34.037   9.535   0.652
 6812W        W79138   6.408   5.995   4.812
 6813W        W79139   5.170  19.588  11.910
 6814W        W79140  39.456   3.668   1.915
 6815W        W79141   0.807  24.720   4.018
 6816W        W79142  32.894   7.411  14.852
 6817W        W79143  12.534  44.322   4.362
 6818W        W79144  29.205  15.627  12.192
 6819W        W79145  22.582   7.197   2.933
 6820W        W79146  31.634  19.064  14.537
 6821W        W79147  42.407  35.987  11.373
 6822W        W79148  19.846  21.240   1.346
 6823W        W79149  25.615   2.939  14.370
 6824W        W79150  27.138  14.855   3.209
 6825W        W79151   4.166  22.387  13.831
 6826W        W79152   4.196  13.319   2.682
 6827W        W79153  25.039   4.299   1.425
 6828W        W79154  11.387  26.108  11.690
 6829W        W79155  12.896  14.631   0.240
 6830W        W79156   4.265  42.411  14.353
 6831W        W79157  29.474  10.687  14.487
 6832W        W79158   7.649  25.130  13.621
 6833W        W79159  22.183  14.125  13.410
 6834W        W79160  39.993  31.359  11.422
 6835W        W79161   2.825  30.091  11.675
 6836W        W79162  18.037  43.476   0.749
 6837W        W79163  42.234  39.962  12.567
 6838W        W79164  25.505  42.625   3.678
 6839W        W79165  25.424  25.538   2.934
 6840W        W79166  24.670  23.645  14.739
 6841W        W79167   1.334  28.530   3.942
 6842W        W79168  44.395  36.452   3.163
 6843W        W79169  36.046   0.253   4.066
 6844W        W79170  22.527  16.649  14.019
 6845W        W79171  18.194  36.066   1.824
 6846W        W79172  10.299  17.008  10.600
 6847W        W79173  39.558  42.104  10.672
 6848W        W79174  41.324  18.319   3.684
 6849W        W79175  39.972  40.266  10.606
 6850W        W79176  28.923  25.625   4.319
 6851W        W79177  10.865   5.047  11.465
 6852W        W79178  32.115  28.573   3.965
 6853W        W79179  25.347  18.722  12.848
 6854W        W79180  18.727   6.712  12.270
 6855W        W79181   3.969   5.672   3.332
 6856W        W79182  36.910   6.568   4.178
 6857W        W79183  40.998   1.682   0.327
 6858W        W79184  18.723   6.539  14.280
 6859W        W79185  29.104  37.581  13.477
 6860W        W79186  22.158  23.199  14.418
 6861W        W79187  16.702  12.572   2.841
 6862W        W79188  42.877  22.563  11.550
 6863W        W79189  34.704  38.466   1.114
 6864W        W79190  35.389  39.438  12.816
 6865W        W79191  16.082  35.067  14.361
 6866W        W79192  26.538  27.190  11.058
 6867W        W79193  43.485  15.799  12.947
 6868W        W79194  40.942  11.907   2.430
 6869W        W79195   7.241  34.190   0.395
 6870W        W79196  21.531  34.232   3.822
 6871W        W79197  39.621   3.702  12.407
 6872W        W79198   7.225  26.990   4.903
 6873W        W79199  19.118  10.180  10.642
 6874W        W79200  12.509  39.954   1.189
 6875W        W79201   0.002  19.312   3.293
 6876W        W79202   7.658  15.855   2.301
 6877W        W79203  18.815  15.355   3.074
 6878W        W79204  22.921   5.827  14.913
 6879W        W79205  25.877   0.529  11.166
 6880W        W79206  21.165  40.032   2.434
 6881W        W79207  34.655   7.301  13.142
 6882W        W79208  26.129  17.777   4.329
 6883W        W79209  23.888  32.435   1.438
 6884W        W79210   8.133  27.060  11.082
 6885W        W79211  38.638   5.181  10.118
 6886W        W79212  22.547  42.229   2.600
 6887W        W79213   1.829  18.131   0.904
 6888W        W79214  23.529   5.661   1.680
 6889W        W79215   3.841   2.234   2.696
 6890W        W79216  41.182  18.978   1.773
 6891W        W79217   7.729  31.594   3.306
 6892W        W79218   4.712  12.717  11.929
 6893W        W79219  12.169  43.847  14.726
 6894W        W79220  13.952  26.571   5.187
 6895W        W79221   1.778   5.730   4.933
 6896W        W79222   4.750   1.403  13.022
 6897W        W79223  14.100  19.037   2.106
 6898W        W79224  30.159  26.474   3.378
 6899W        W79225   2.942  14.705  13.897
 6900W        W79226   5.349   4.071   1.587
 6901W        W79227  35.909  41.595   0.268
 6902W        W79228  16.090  12.123   4.594
 6903W        W79229  43.999  15.123  10.278
 6904W        W79230   1.836   1.668  13.829
 6905W        W79231   3.949   8.676  11.981
 6906W        W79232   8.698  36.061   3.728
 6907W        W79233  33.112  21.596   3.741
 6908W        W79234  24.304   4.954  11.475
 6909W        W79235  32.346  22.291  10.270
 6910W        W79236  28.484  34.925   3.769
 6911W        W79237  44.797  30.776  13.395
 6912W        W79238  42.501  13.772  10.824
 6913W        W79239  29.512  10.222  11.688
 6914W        W79240  25.014  13.331  14.014
 6915W        W79241  37.113  10.314   4.119
 6916W        W79242  41.498  27.103  12.393
 6917W        W79243  23.485  33.433   3.675
 6918W        W79244   1.827  44.800   1.764
 6919W        W79245   6.926   0.017  14.496
 6920W        W79246  22.292  43.141  10.035
 6921W        W79247  13.698  24.154   3.734
 6922W        W79248  17.236  24.424   2.622
 6923W        W79249  34.862  11.156  12.864
 6924W        W79250   3.536  30.562   1.250
 6925W        W79251  44.291  27.168   2.777
 6926W        W79252  23.076  21.581   1.916
 6927W        W79253  30.232  24.447  12.933
 6928W        W79254  43.791  18.628  13.411
 6929W        W79255  16.677  21.326   2.304
 6930W        W79256  36.228  34.503  13.261
 6931W        W79257   9.713  42.470   0.770
 6932W        W79258   2.693  28.564   1.189
 6933W        W79259  11.661  44.479  13.977
 6934W        W79260   8.758  31.523  13.875
 6935W        W79261  37.322  35.389   4.055
 6936W        W79262  13.721   6.766   2.709
 6937W        W79263  36.093  11.153   3.625
 6938W        W79264  13.039  39.815   3.356
 6939W        W79265  23.312  28.013  12.027
 6940W        W79266  36.920  33.845   2.788
 6941W        W79267  40.644  41.636  12.061
 6942W        W79268  27.640  28.984  12.362
 6943W        W79269  36.839  34.074   4.464
 6944W        W79270   2.209  16.225  13.466
 6945W        W79271  33.332  36.598  12.858
 6946W        W79272  23.807  32.664   3.269
 6947W        W79273   6.053  21.239  11.266
 6948W        W79274   5.478  42.069  12.939
 6949W        W79275  16.414  26.827   3.676
 6950W        W79276  38.449  10.698  14.564
 6951W        W79277  14.689  12.353  13.440
 6952W        W79278   9.324   3.114  11.921
 6953W        W79279  27.271  34.312   0.727
 6954W        W79280   2.961  37.021  12.339
 6955W        W79281  25.755  32.340   3.689
 6956W        W79282   1.317  18.072  12.045
 6957W        W79283  14.658  26.590  13.987
 6958W        W79284  23.574  20.368   0.825
 6959W        W79285  21.951  41.279  12.016
 6960W        W79286  29.642  11.778  11.487
 6961W        W79287  29.032  32.374  14.907
 6962W        W79288   0.986  39.950  13.335
 6963W        W79289  40.807  33.904   3.594
 6964W        W79290  11.032  22.338   4.673
 6965W        W79291  42.520  41.003  13.295
 6966W        W79292  19.841  16.239  11.211
 6967W        W79293   1.063  39.455  11.937
 6968W        W79294  16.558  14.979   4.448
 6969W        W79295  33.494  33.686  13.362
 6970W        W79296  16.327  29.764  13.954
 6971W        W79297   2.439  16.119   4.375
 6972W        W79298  40.088  26.937   4.901
 6973W        W79299  13.493  25.457  10.665
 6974W        W79300   8.831   2.697  10.656
 6975W        W79301   1.416   8.495  13.123
 6976W        W79302  12.667  44.636  12.400
 6977W        W79303   1.951  19.567   0.907
 6978W        W79304   0.366   2.866  10.965
 6979W        W79305  33.354  24.285  14.839
 6980W        W79306  20.440  40.336   2.441
 6981W        W79307  20.978   9.908   4.296
 6982W        W79308  24.334   8.810  10.274
 6983W        W79309  35.954  22.149  14.929
 6984W        W79310   0.197  38.623  12.579
 6985W        W79311  36.469   8.090  12.437
 6986W        W79312  40.383  33.816   2.629
 6987W        W79313  23.675  36.136   0.481
 6988W        W79314  17.362  36.005   0.250
 6989W        W79315   9.898  20.381   0.397
 6990W        W79316   3.381  21.534   3.735
 6991W        W79317  34.977  28.158   1.161
 6992W        W79318  28.938  33.327  14.726
 6993W        W79319  44.208  14.747   0.608
 6994W        W79320  17.319  12.088   3.311
 6995W        W79321  41.295   1.816   3.274
 6996W        W79322   8.462  17.617   1.259
 6997W        W79323   1.378  15.744   2.095
 6998W        W79324  34.019  23.108  12.154
 6999W        W79325  25.649   2.710   0.665
 7000W        W79326  44.409  12.556  13.055
 7001W        W79327  30.451   0.644   1.905
 7002W        W79328  18.066  12.047   1.212
 7003W        W79329  15.322  11.168   4.703
 7004W        W79330  44.824  33.279   4.607
 7005W        W79331  19.573  32.657   0.012
 7006W        W79332  26.108  30.629   1.324
 7007W        W79333  29.595  33.018  13.856
 7008W        W79334  33.862  12.845   3.384
 7009W        W79335  35.446  42.990  11.087
 7010W        W79336  31.289  38.362  13.300
 7011W        W79337   1.291  37.443   3.446
 7012W        W79338   8.415  27.219  12.965
 7013W        W79339  32.248  38.745   1.704
 7014W        W79340  22.077   4.992  11.120
 7015W        W79341   7.292  21.208  14.412
 7016W        W79342  40.035  17.659   1.961
 7017W        W79343  28.136  18.663  11.061
 7018W        W79344   3.759  35.448   2.245
 7019W        W79345  41.170  23.553  10.812
 7020W        W79346  26.985  18.388  11.568
 7021W        W79347  18.762  37.960  14.245
 7022W        W79348  25.469  30.839  13.403
 7023W        W79349  29.403  28.986   0.951
 7024W        W79350  36.378   9.739   3.867
 7025W        W79351  10.164   2.464  13.038
 7026W        W79352  39.328   6.662   4.587
 7027W        W79353  43.025  12.287   3.539
 7028W        W79354  33.000  16.794   4.173
 7029W        W79355  21.262  32.652   4.657
 7030W        W79356  25.507  27.931  12.673
 7031W        W79357  44.524  33.120   0.224
 7032W        W79358  40.221  26.485   4.185
 7033W        W79359  14.291  12.840   0.535
 7034W        W79360   4.329  20.772  10.803
 7035W        W79361  32.206  33.007  10.252
 7036W        W79362  19.699  43.290  13.496
 7037W        W79363  21.297  32.382   0.572
 7038W        W79364   3.864  35.892   4.081
 7039W        W79365  26.974   5.400   0.849
 7040W        W79366  34.417   6.231   1.390
 7041W        W79367   0.898  44.027  10.721
 7042W        W79368  12.697   9.049  13.456
 7043W        W79369  34.575  36.411  10.518
 7044W        W79370  13.837   9.067   3.298
 7045W        W79371  36.322   9.313   2.683
 7046W        W79372  22.333   0.959  10.119
 7047W        W79373   1.483  30.673  12.538
 7048W        W79374   8.884  35.604   0.210
 7049W        W79375  29.864   5.830   1.860
 7050W        W79376   6.719  15.682   2.601
 7051W        W79377   5.695  20.613  12.123
 7052W        W79378  18.246  41.073   4.692
 7053W        W79379  20.125  43.703   2.615
 7054W        W79380  18.611  35.384  12.008
 7055W        W79381   7.870  31.666  12.806
 7056W        W79382  35.674  41.400   1.563
 7057W        W79383  26.729  19.857   3.095
 7058W        W79384  29.833  28.084  11.644
 7059W        W79385  32.516   4.240   4.175
 7060W        W79386  21.988   7.318   1.796
 7061W        W79387  42.608  38.549  10.729
 7062W        W79388  33.791  28.436  13.407
 7063W        W79389  37.605  21.714   0.770
 7064W        W79390  21.904  20.595   1.466
 7065W        W79391   3.367  33.902  10.665
 7066W        W79392  26.972  16.205   1.360
 7067W        W79393  17.515  34.034   3.170
 7068W        W79394   8.155   2.464  14.709
 7069W        W79395  35.359   9.438  14.864
 7070W        W79396  13.587  16.547   4.283
 7071W        W79397  21.575  44.206   3.870
 7072W        W79398  14.802   3.266  14.990
 7073W        W79399  22.743  14.979   0.910
 7074W        W79400  12.737  39.603   1.904
 7075W        W79401  17.173  18.537  14.393
 7076W        W79402   7.916   0.329   3.317
 7077W        W79403   0.320  43.298   2.127
 7078W        W79404  37.300  31.776   9.915
 7079W        W79405  42.127   7.113   9.929
 7080W        W79406  18.502   0.971  10.634
 7081W        W79407  27.717  23.471  14.925
 7082W        W79408  16.118  23.939   0.752
 7083W        W79409  20.507  27.703  11.894
 7084W        W79410   3.531  25.015   1.654
 7085W        W79411  11.806  41.039   3.346
 7086W        W79412  19.723   5.739   0.541
 7087W        W79413   3.477  23.004  12.912
 7088W        W79414  23.947  11.852  13.497
 7089W        W79415   3.349  33.590   0.732
 7090W        W79416   5.478   7.165   1.820
 7091W        W79417  10.549   6.493   2.837
 7092W        W79418  18.227  11.776  10.611
 7093W        W79419  18.188  29.871   3.294
 7094W        W79420  16.354  10.296   2.754
 7095W        W79421  17.636   7.566   3.318
 7096W        W79422  27.364   6.727   2.196
 7097W        W79423   7.260  31.675  10.758
 7098W        W79424  43.661  25.745   0.457
 7099W        W79425  43.777  13.679   2.777
 7100W        W79426  16.043  31.106   2.093
 7101W        W79427  26.446   2.712  14.365
 7102W        W79428  39.934  13.842   1.836
 7103W        W79429  20.119  44.302   1.034
 7104W        W79430  29.982   4.386   2.739
 7105W        W79431  23.552   8.507  11.676
 7106W        W79432  26.733  25.557   3.879
 7107W        W79433  17.180  13.838  11.408
 7108W        W79434   3.514   4.040  14.420
 7109W        W79435  35.515  12.566   2.770
 7110W        W79436   7.943  21.974  12.343
 7111W        W79437  28.651  13.490  10.735
 7112W        W79438  20.025  33.179  14.351
 7113W        W79439  37.620  44.528  12.964
 7114W        W79440  44.439  29.709  14.013
 7115W        W79441  42.118  14.696  14.415
 7116W        W79442  16.891  34.857  14.969
 7117W        W79443  17.151   1.095   0.811
 7118W        W79444   8.861   1.684   1.493
 7119W        W79445  24.506  16.134  13.039
 7120W        W79446   5.958   8.372  12.551
 7121W        W79447  42.919  14.228  10.738
 7122W        W79448  32.283  38.365  13.454
 7123W        W79449  34.165   3.004   3.861
 7124W        W79450  19.716  27.712  11.465
 7125W        W79451  35.405   8.890   9.842
 7126W        W79452  35.100  30.466   1.993
 7127W        W79453   5.874   1.292  14.862
 7128W        W79454  12.771  42.861  11.883
 7129W        W79455  44.023  25.006   1.610
 7130W        W79456   2.909  27.651  12.065
 7131W        W79457  36.326  15.802   0.745
 7132W        W79458   4.385  42.305  10.991
 7133W        W79459  25.761  20.372  12.400
 7134W        W79460   7.192  25.102  10.647
 7135W        W79461  20.156  40.044  10.917
 7136W        W79462  11.386  12.618   1.244
 7137W        W79463  27.118  35.723  12.132
 7138W        W79464   1.106  15.853  14.326
 7139W        W79465  13.841   7.099   2.323
 7140W        W79466  15.383   3.765   0.324
 7141W        W79467  21.021   0.365   1.718
 7142W        W79468   8.266  12.290  13.520
 7143W        W79469  41.829  42.971  12.198
 7144W        W79470  18.879  26.004  13.855
 7145W        W79471  21.827  35.632  12.902
 7146W        W79472  43.059  32.022   4.585
 7147W        W79473  11.329  26.082  11.181
 7148W        W79474   8.170  28.887  14.089
 7149W        W79475  44.310  16.523   0.767
 7150W        W79476   3.800  14.734   1.192
 7151W        W79477   7.377  23.238  11.940
 7152W        W79478  34.394  27.094   1.940
 7153W        W79479  16.047   8.821   1.777
 7154W        W79480  10.278   1.861   5.226
 7155W        W79481  16.194  18.027   1.605
 7156W        W79482   0.265  41.689  13.027
 7157W        W79483   7.730   8.658  10.781
 7158W        W79484  15.935  26.111  13.813
 7159W        W79485  26.775  36.437  12.131
 7160W        W79486   1.207  24.251   2.273
 7161W        W79487  25.337  43.443   1.691
 7162W        W79488  30.149  36.666  12.564
 7163W        W79489  30.445  30.344  11.128
 7164W        W79490  23.979  31.632   3.218
 7165W        W79491   7.326  25.844  13.157
 7166W        W79492  36.164   4.487  12.439
 7167W        W79493  11.348  22.275   0.707
 7168W        W79494  18.787  30.395   1.761
 7169W        W79495   6.395  31.135   1.162
 7170W        W79496  43.063  42.507   0.855
 7171W        W79497  41.602  17.096  14.772
 7172W        W79498   7.122  39.421   3.557
 7173W        W79499  14.521  26.010   1.188
 7174W        W79500  42.152  13.288   0.153
 7175W        W79501   5.183  13.103  13.391
 7176W        W79502  44.355  14.728  10.318
 7177W        W79503   4.260  36.047   3.256
 7178W        W79504   8.217  30.538   4.438
 7179W        W79505  11.647   5.322  13.385
 7180W        W79506  26.385  24.618  12.265
 7181W        W79507   6.424  32.678  14.029
 7182W        W79508  37.407  13.649   5.105
 7183W        W79509  20.092  22.964   1.702
 7184W        W79510   9.436  39.047   1.609
 7185W        W79511   1.699  10.118   0.249
 7186W        W79512  14.766  21.738   3.342
 7187W        W79513  14.740  11.318   4.591
 7188W        W79514   7.140  41.422  13.114
 7189W        W79515   1.527   2.165  11.512
 7190W        W79516  31.247   2.568  12.817
 7191W        W79517  16.243  18.261   0.345
 7192W        W79518  13.132  32.562   4.556
 7193W        W79519   0.343  21.598   2.845
 7194W        W79520  18.075  35.880   1.332
 7195W        W79521   2.860  12.677  12.011
 7196W        W79522  13.147  15.122   2.254
 7197W        W79523  14.349  21.083  12.443
 7198W        W79524   0.945  36.846   4.892
 7199W        W79525  43.022  19.926   4.140
 7200W        W79526  40.607  22.112  12.495
 7201W        W79527  43.062  25.642  13.322
 7202W        W79528  22.143  41.914   1.310
 7203W        W79529  15.617   1.834  13.588
 7204W        W79530  27.112  14.859   2.663
 7205W        W79531  27.949  26.180   4.152
 7206W        W79532   9.356  34.962   2.272
 7207W        W79533  25.545  10.079  12.855
 7208W        W79534  13.803   2.326  12.048
 7209W        W79535  22.018  15.517  11.499
 7210W        W79536  10.683  12.832  11.658
 7211W        W79537  35.343  21.268  10.820
 7212W        W79538  41.909  21.204  14.855
 7213W        W79539  17.089  18.113   3.632
 7214W        W79540  19.822  32.525  12.369
 7215W        W79541   2.120  38.581   2.670
 7216W        W79542  16.604  42.225   3.271
 7217W        W79543  35.099  19.071   1.714
 7218W        W79544  36.997  29.849   3.284
 7219W        W79545  29.279  32.113   2.849
 7220W        W79546  32.986  34.382  10.707
 7221W        W79547  24.307  13.042   4.294
 7222W        W79548  28.211  36.935  11.531
 7223W        W79549  12.679   2.252   1.395
 7224W        W79550  38.987   8.284  14.992
 7225W        W79551  20.980  27.040   0.487
 7226W        W79552  17.452  38.189  14.033
 7227W        W79553   7.768  14.038   1.647
 7228W        W79554  21.981  10.100   2.850
 7229W        W79555  24.224  21.489  14.316
 7230W        W79556  31.457  22.474   5.077
 7231W        W79557  28.943  36.920  14.040
 7232W        W79558  30.907  14.561  14.668
 7233W        W79559  23.146  22.409   0.754
 7234W        W79560  21.502  16.125   3.634
 7235W        W79561  37.054  38.302  10.721
 7236W        W79562   7.909  39.393  12.801
 7237W        W79563  35.574  44.978   2.347
 7238W        W79564  12.911  29.021   3.650
 7239W        W79565  22.051  16.709   5.694
 7240W        W79566  16.227  44.049  14.225
 7241W        W79567  31.789  19.639   1.504
 7242W        W79568  17.301   7.646   1.448
 7243W        W79569   1.410  25.048   0.356
 7244W        W79570  32.559  35.031   1.122
 7245W        W79571   5.168  28.194   2.179
 7246W        W79572   3.278  18.521  12.519
 7247W        W79573  44.346  23.018   2.242
 7248W        W79574  15.576   1.858   0.259
 7249W        W79575  15.170  39.397  14.354
 7250W        W79576  35.411  32.074  12.813
 7251W        W79577  23.537  40.488  13.752
 7252W        W79578  28.553  14.800   0.707
 7253W        W79579  37.392  41.496   3.287
 7254W        W79580   3.413   3.357  11.971
 7255W        W79581  12.318  20.209  11.626
 7256W        W79582  35.853   6.320   2.085
 7257W        W79583   4.401  39.524  14.016
 7258W        W79584  42.083  30.700  12.583
 7259W        W79585  18.297  13.392  11.561
 7260W        W79586  20.762   9.766  13.095
 7261W        W79587  27.603  13.780   4.582
 7262W        W79588   4.187  36.886   1.421
 7263W        W79589  22.823  13.487   3.216
 7264W        W79590   1.909  12.115   2.330
 7265W        W79591  36.540  10.269   1.679
 7266W        W79592  29.731   0.791   5.052
 7267W        W79593   3.397   7.886  12.482
 7268W        W79594  11.810  41.309  14.673
 7269W        W79595  38.371  10.655   2.916
 7270W        W79596  16.508   6.892   1.293
 7271W        W79597  33.119  35.720  12.448
 7272W        W79598  44.700  43.872   1.328
 7273W        W79599  28.996  30.096   1.936
 7274W        W79600  18.265  34.030   4.600
 7275W        W79601  37.114  25.726   0.849
 7276W        W79602  27.330  42.999  12.097
 7277W        W79603  44.084   0.267  13.010
 7278W        W79604  12.627  33.889  12.173
 7279W        W79605   6.480  23.642   1.841
 7280W        W79606   6.855  30.995   4.090
 7281W        W79607  13.745   8.271   0.753
 7282W        W79608  28.483   0.181  14.914
 7283W        W79609   5.864  10.094  11.861
 7284W        W79610   6.420  37.412  14.495
 7285W        W79611  26.607   9.996   3.437
 7286W        W79612  15.745  29.564  13.429
 7287W        W79613   7.770   6.364  13.057
 7288W        W79614  33.306   9.330  10.728
 7289W        W79615   4.478  17.836  14.267
 7290W        W79616  27.193  14.330  14.333
 7291W        W79617  10.161   0.384  12.915
 7292W        W79618  26.548  26.904   5.454
 7293W        W79619  43.014  25.436  14.351
 7294W        W79620  24.720  27.163   4.123
 7295W        W79621  11.923   1.648  11.088
 7296W        W79622  35.589  36.333  12.076
 7297W        W79623   6.295  32.644   4.354
 7298W        W79624   6.923  13.277  12.922
 7299W        W79625   7.668   6.080   0.815
 7300W        W79626  15.606   3.143  13.340
 7301W        W79627   8.775  36.059   4.615
 7302W        W79628  13.679  34.392  12.413
 7303W        W79629  32.352   8.199  11.910
 7304W        W79630  10.365   9.573  11.600
 7305W        W79631   3.420  42.768  14.536
 7306W        W79632  32.169  26.655   2.662
 7307W        W79633  38.312   9.878   3.289
 7308W        W79634  34.043  19.304  10.695
 7309W        W79635  35.044  34.832  13.822
 7310W        W79636  43.103  38.476   0.065
 7311W        W79637  13.629  37.460   3.594
 7312W        W79638  19.592  20.025   0.614
 7313W        W79639  39.748  30.874   3.666
 7314W        W79640  44.966  31.691   0.404
 7315W        W79641  21.226  12.641   4.112
 7316W        W79642  11.417  26.460   3.744
 7317W        W79643  23.128  26.725   4.664
 7318W        W79644  30.265  24.393  11.418
 7319W        W79645  34.501  32.979  14.671
 7320W        W79646  12.709  23.042  13.358
 7321W        W79647  30.124   9.277   3.310
 7322W        W79648  40.191  28.576   0.285
 7323W        W79649  27.529  33.957   3.773
 7324W        W79650  40.562   4.936   0.357
 7325W        W79651  28.053  14.356   1.683
 7326W        W79652   0.520   2.279  14.002
 7327W        W79653  39.312  20.586   1.641
 7328W        W79654  18.325   4.094   0.307
 7329W        W79655   8.831  34.105   0.258
 7330W        W79656   4.038  22.290   9.831
 7331W        W79657  22.775  12.209  10.440
 7332W        W79658  29.111  31.941  12.509
 7333W        W79659   4.156  28.910   2.731
 7334W        W79660  15.072   1.280  11.286
 7335W        W79661  33.540  20.930   1.993
 7336W        W79662  16.612   1.698  12.349
 7337W        W79663  10.930  14.341  10.729
 7338W        W79664   9.029  17.194  13.073
 7339W        W79665   0.827  43.981  14.357
 7340W        W79666  34.999  37.128  10.959
 7341W        W79667   6.516  24.888  11.950
 7342W        W79668  29.507  20.582  10.721
 7343W        W79669  43.214  22.244   2.260
 7344W        W79670  19.246  11.827   3.680
 7345W        W79671  10.310  43.799   3.628
 7346W        W79672  25.438  42.978   1.855
 7347W        W79673  40.946  20.741   0.773
 7348W        W79674  22.969  42.868  14.311
 7349W        W79675  17.989  35.525  13.897
 7350W        W79676   2.660  39.497  13.063
 7351W        W79677   3.812   0.286  10.024
 7352W        W79678  27.238  35.538   1.916
 7353W        W79679  12.761   3.735   2.279
 7354W        W79680  42.704   3.278  12.319
 7355W        W79681   2.172  11.166   1.745
 7356W        W79682  20.099  25.904  14.456
 7357W        W79683  22.427  20.605   1.309
 7358W        W79684  26.111  35.432  12.654
 7359W        W79685  21.905  20.257  12.415
 7360W        W79686  27.874  35.300   1.247
 7361W        W79687  41.056  42.609  13.376
 7362W        W79688   0.301  22.686   9.761
 7363W        W79689  14.238  18.425  13.547
 7364W        W79690  15.785  38.928   3.212
 7365W        W79691  35.892  11.817   0.697
 7366W        W79692  15.836  43.066   2.386
 7367W        W79693  22.847  36.947  11.228
 7368W        W79694   2.797  16.238   3.531
 7369W        W79695  20.822  43.230  11.980
 7370W        W79696  13.880  38.932  11.547
 7371W        W79697  31.956   1.115  14.359
 7372W        W79698   7.448  24.645   1.343
 7373W        W79699  17.554  10.744  10.697
 7374W        W79700  44.204  24.704  13.062
 7375W        W79701  16.012  16.256   4.732
 7376W        W79702   5.318   8.140   3.344
 7377W        W79703  34.552   4.104  14.075
 7378W        W79704  28.733  24.153  14.294
 7379W        W79705  36.013  33.736   0.934
 7380W        W79706  31.067   1.730   2.315
 7381W        W79707  25.675  11.635  10.212
 7382W        W79708   3.394  36.319   0.684
 7383W        W79709  12.305  32.895   2.358
 7384W        W79710  21.635  34.401   2.905
 7385W        W79711  39.443  11.646  11.903
 7386W        W79712  35.137   6.247   1.796
 7387W        W79713   1.906   9.117   0.774
 7388W        W79714  14.903  34.547   9.799
 7389W        W79715   8.487  28.473  12.826
 7390W        W79716  28.919   0.824   0.299
 7391W        W79717   8.725  20.696  10.756
 7392W        W79718   2.503  22.161  11.596
 7393W        W79719  39.019  40.878   2.787
 7394W        W79720  21.849  41.392   0.005
 7395W        W79721  34.476  15.100  11.241
 7396W        W79722   2.766  33.943  14.393
 7397W        W79723   3.310  13.811  14.478
 7398W        W79724  35.434  28.360   1.003
 7399W        W79725  29.777  17.083  13.980
 7400W        W79726  15.860  36.464  11.473
 7401W        W79727  31.171  18.266  12.958
 7402W        W79728  16.759  29.143  11.258
 7403W        W79729   0.127   8.735  12.485
 7404W        W79730  25.660   2.183   0.720
 7405W        W79731   6.072  15.217  13.393
 7406W        W79732  11.190  23.657  10.542
 7407W        W79733   3.385  41.289  10.900
 7408W        W79734  17.218  43.581   4.750
 7409W        W79735  43.377  42.384   4.717
 7410W        W79736   7.185  18.617  13.328
 7411W        W79737  20.624  39.349  13.521
 7412W        W79738   3.303  34.460   4.053
 7413W        W79739  15.568  36.111   4.763
 7414W        W79740  32.265   0.195  10.199
 7415W        W79741  18.028  28.104   3.763
 7416W        W79742  24.324  29.212   4.469
 7417W        W79743   6.220  14.801   3.079
 7418W        W79744   6.166   2.593   4.492
 7419W        W79745   1.674   3.937  11.888
 7420W        W79746  37.722  35.645  14.206
 7421W        W79747   3.037  18.537  13.441
 7422W        W79748  21.238  24.445   4.144
 7423W        W79749   0.905  19.644  14.851
 7424W        W79750  44.910  44.027  10.504
 7425W        W79751  23.625  38.710  14.344
 7426W        W79752  28.995   5.306   3.875
 7427W        W79753  20.487  16.587  13.059
 7428W        W79754  15.857  17.541   3.386
 7429W        W79755   9.938  31.825   4.824
 7430W        W79756   4.002  42.957   1.420
 7431W        W79757  23.340  34.485  11.621
 7432W        W79758  34.842  34.850   2.842
 7433W        W79759  41.564   3.659   0.806
 7434W        W79760  16.684  37.369   3.850
 7435W        W79761  40.216  32.916   3.121
 7436W        W79762   3.798  13.786   3.232
 7437W        W79763  38.558  27.897  13.375
 7438W        W79764  43.543  34.280  11.741
 7439W        W79765  42.828  42.974  11.884
 7440W        W79766   1.273  25.063   4.696
 7441W        W79767  28.553  37.914  14.619
 7442W        W79768   7.425  30.037   0.926
 7443W        W79769  33.433  17.144   3.153
 7444W        W79770   2.780   5.463  11.432
 7445W        W79771  35.150  17.321   0.931
 7446W        W79772  34.857  42.831   2.870
 7447W        W79773  30.136   5.701  14.622
 7448W        W79774  13.234  43.369  14.027
 7449W        W79775  25.976  18.617  11.399
 7450W        W79776  35.092  41.396   4.486
 7451W        W79777  14.080  14.735   2.688
 7452W        W79778   2.669  43.864   1.377
 7453W        W79779  38.807  16.644  14.309
 7454W        W79780  12.773  29.172  11.946
 7455W        W79781  29.146   5.519   0.956
 7456W        W79782   9.171   0.981   1.449
 7457W        W79783  32.045  31.985  11.513
 7458W        W79784  33.582  19.495  10.789
 7459W        W79785  34.712  27.909   2.506
 7460W        W79786  40.385  30.642   2.375
 7461W        W79787  36.935   0.719  10.442
 7462W        W79788  32.323   0.755   4.960
 7463W        W79789  21.153   7.332  13.808
 7464W        W79790  10.247  35.072   1.784
 7465W        W79791  40.618  11.796  13.405
 7466W        W79792  18.173   1.340  12.344
 7467W        W79793  38.922  41.688   3.197
 7468W        W79794  30.054  37.858  11.639
 7469W        W79795  40.907  12.377   2.632
 7470W        W79796   5.567  18.947   2.365
 7471W        W79797   8.151  10.832   1.402
 7472W        W79798   6.181  28.824   2.746
 7473W        W79799  34.800   8.180   2.747
 7474W        W79800  11.603  40.664   4.252
 7475W        W79801  10.756  12.877   3.195
 7476W        W79802   5.773  31.036   4.314
 7477W        W79803   9.208  28.807  14.471
 7478W        W79804   5.374  39.793  12.336
 7479W        W79805  40.303   5.702  11.623
 7480W        W79806  44.343  22.001  11.501
 7481W        W79807  35.080   0.669  13.974
 7482W        W79808  22.535  43.771   3.246
 7483W        W79809  33.824  42.371  11.732
 7484W        W79810  11.987   1.193   5.065
 7485W        W79811  32.368  12.206  13.740
 7486W        W79812  20.287  21.690  10.153
 7487W        W79813  34.510  32.435  10.955
 7488W        W79814  12.311  38.439  10.617
 7489W        W79815   7.818  35.123  12.867
 7490W        W79816  18.810  23.731   2.318
 7491W        W79817  31.950  19.705   2.365
 7492W        W79818  18.366   5.490  11.973
 7493W        W79819   8.316  12.283  12.507
 7494W        W79820  25.503   4.277  12.749
 7495W        W79821  32.964  18.169   2.246
 7496W        W79822  42.494  20.699   3.914
 7497W        W79823  28.669  30.536  10.593
 7498W        W79824   6.195  25.084  11.546
 7499W        W79825  17.070   9.588  11.201
 7500W        W79826   0.292  10.444   0.833
 7501W        W79827   9.883  16.845  12.689
 7502W        W79828  42.807   0.861  12.342
 7503W        W79829  29.125  40.646  11.972
 7504W        W79830   7.776  35.334   1.337
 7505W        W79831  35.955  19.034  13.039
 7506W        W79832  30.652  35.309  13.452
 7507W        W79833  30.680  34.275  13.533
 7508W        W79834  16.230   4.316   2.595
 7509W        W79835  22.087  14.047   3.286
 7510W        W79836   2.254  29.669   0.226
 7511W        W79837  39.275  39.409   0.115
 7512W        W79838  21.667   3.522  12.115
 7513W        W79839  38.107   5.819   2.747
 7514W        W79840  10.392  27.171   5.063
 7515W        W79841  28.065  23.470  11.812
 7516W        W79842   9.110  42.063  12.953
 7517W        W79843  41.407  34.562  13.219
 7518W        W79844  29.639  26.663  14.550
 7519W        W79845  11.170  21.092  14.905
 7520W        W79846  19.077  35.684  13.503
 7521W        W79847  37.035  37.028   4.366
 7522W        W79848  27.830   5.316  10.624
 7523W        W79849  41.853  37.346  13.374
 7524W        W79850  21.401  28.037  11.142
 7525W        W79851  25.964  12.557   3.886
 7526W        W79852  33.059   5.190  14.001
 7527W        W79853  20.827  36.134  13.467
 7528W        W79854  44.420  18.663   4.126
 7529W        W79855  22.195   4.684   0.970
 7530W        W79856  31.147  38.956   0.792
 7531W        W79857  21.628  40.323  12.046
 7532W        W79858   1.392  43.658   1.863
 7533W        W79859  32.677   2.792   0.013
 7534W        W79860  15.578  32.986  11.492
 7535W        W79861   2.567  33.560  13.552
 7536W        W79862  41.881  33.092   4.528
 7537W        W79863  27.451   9.486  13.920
 7538W        W79864  17.756  16.413  12.972
 7539W        W79865  20.535  20.040  10.909
 7540W        W79866  25.988  15.249  10.106
 7541W        W79867  35.958  25.440  13.468
 7542W        W79868   4.352  38.118  10.387
 7543W        W79869   6.280   7.349   1.489
 7544W        W79870  43.209   7.438   3.223
 7545W        W79871  36.155   5.982  12.176
 7546W        W79872  41.215  24.003  11.999
 7547W        W79873   9.255  37.409  10.521
 7548W        W79874   4.690  21.819  10.980
 7549W        W79875  16.380   6.037  11.396
 7550W        W79876  18.007  30.862   4.327
 7551W        W79877  31.967   8.479  10.974
 7552W        W79878   3.466  38.460  13.993
 7553W        W79879   6.375  32.049   5.033
 7554W        W79880  38.053  43.857   1.820
 7555W        W79881  13.664  16.725  14.001
 7556W        W79882   3.951  24.137  10.216
 7557W        W79883  30.912  43.973  14.894
 7558W        W79884   9.634  31.662   1.294
 7559W        W79885   4.553  10.721   4.143
 7560W        W79886  33.387  10.844   2.146
 7561W        W79887  32.888   6.965  11.261
 7562W        W79888  39.009  10.837   1.747
 7563W        W79889  43.954  35.237  12.078
 7564W        W79890  21.730  26.476  12.580
 7565W        W79891  20.261  26.653  13.111
 7566W        W79892  44.585   8.786  11.160
 7567W        W79893  23.784  25.571   1.426
 7568W        W79894  37.509  28.453   1.386
 7569W        W79895  42.045  30.268   2.402
 7570W        W79896  40.925  22.165   1.754
 7571W        W79897  36.401  16.527   4.394
 7572W        W79898   0.846  19.688  13.946
 7573W        W79899  21.244  34.717  12.324
 7574W        W79900  42.264  33.925  13.733
 7575W        W79901  26.474  28.033  13.988
 7576W        W79902   1.349  22.607  13.034
 7577W        W79903   6.236  43.308   0.944
 7578W        W79904  30.477  24.532   4.224
 7579W        W79905  29.724  26.552   0.870
 7580W        W79906  35.438  44.190  12.935
 7581W        W79907  41.634   6.086  11.641
 7582W        W79908  36.493  18.962   1.711
 7583W        W79909  17.083  29.899  11.851
 7584W        W79910  23.699  13.043   0.281
 7585W        W79911   2.746  28.483  10.600
 7586W        W79912  26.631  26.112  10.167
 7587W        W79913  11.342   0.973   1.304
 7588W        W79914  44.396  17.570  11.114
 7589W        W79915  12.650  23.374  10.975
 7590W        W79916  23.702  29.374   2.662
 7591W        W79917   1.785  41.068   3.540
 7592W        W79918  38.156   9.761  13.047
 7593W        W79919  38.084  36.871  13.384
 7594W        W79920  42.455   5.906   1.311
 7595W        W79921  10.604  17.278   3.367
 7596W        W79922   7.892  18.281  10.694
 7597W        W79923  22.410  11.656   3.174
 7598W        W79924  41.876  36.292  12.525
 7599W        W79925  17.176  31.944   3.753
 7600W        W79926  15.645   5.764   2.752
 7601W        W79927  30.181  34.063   2.558
 7602W        W79928  39.400  33.391   3.367
 7603W        W79929   9.575  38.844  11.682
 7604W        W79930  33.352  16.708  13.194
 7605W        W79931  25.021  26.900  11.580
 7606W        W79932  11.358  33.261  10.682
 7607W        W79933  15.852  31.334  14.860
 7608W        W79934  41.544   5.186  11.460
 7609W        W79935  24.648  28.534   2.355
 7610W        W79936  23.542   4.649   3.430
 7611W        W79937  33.946  37.321   1.424
 7612W        W79938  29.486  11.929  14.862
 7613W        W79939  15.035   6.258   4.030
 7614W        W79940  32.041  22.092  14.955
 7615W        W79941  15.698  22.738   2.437
 7616W        W79942  17.230  32.872  12.968
 7617W        W79943  11.637   6.197  10.936
 7618W        W79944   7.851  26.251  14.372
 7619W        W79945  21.106  28.029   3.596
 7620W        W79946  17.808  32.469  11.672
 7621W        W79947  34.215  26.022  11.453
 7622W        W79948  39.735   2.351   0.980
 7623W        W79949   9.633   9.186  12.005
 7624W        W79950   8.657  12.411   4.442
 7625W        W79951  11.657   2.721   3.385
 7626W        W79952  34.336  16.194   0.830
 7627W        W79953  38.542  41.596  12.433
 7628W        W79954  31.579  38.492   2.360
 7629W        W79955   4.198  44.169   0.129
 7630W        W79956  10.777  32.673   4.181
 7631W        W79957   4.166  40.866  12.146
 7632W        W79958   7.583  35.458  14.969
 7633W        W79959   4.498  33.994  12.508
 7634W        W79960  41.344  37.540   3.792
 7635W        W79961  29.887  33.506  12.383
 7636W        W79962  18.139   1.872   1.346
 7637W        W79963  24.973  36.025   1.758
 7638W        W79964  38.983   5.354  14.060
 7639W        W79965  22.169  19.231  12.949
 7640W        W79966  31.945  39.089  14.071
 7641W        W79967  32.381   2.699   4.858
 7642W        W79968  34.057   2.824   1.334
 7643W        W79969  18.360  41.424  14.129
 7644W        W79970  37.409  28.418  13.804
 7645W        W79971  40.909  23.117  10.772
 7646W        W79972  33.471  42.439   1.291
 7647W        W79973  26.666  25.032  13.348
 7648W        W79974  18.001  37.013  12.522
 7649W        W79975  26.528  43.392  14.296
 7650W        W79976   7.062  11.698  11.552
 7651W        W79977  20.302  27.628  14.986
 7652W        W79978  24.461  31.854   1.821
 7653W        W79979  42.681  40.839  12.413
 7654W        W79980   3.028  11.807  11.899
 7655W        W79981  28.238  20.789  11.610
 7656W        W79982   6.395   5.219  13.510
 7657W        W79983   2.920  32.527  12.217
 7658W        W79984   9.744   5.154  12.589
 7659W        W79985  43.222  33.356   0.252
 7660W        W79986  34.836  42.336  13.934
 7661W        W79987   6.629  39.414   3.740
 7662W        W79988  28.724  25.181   4.168
 7663W        W79989   0.839  34.144   0.978
 7664W        W79990   9.691   1.967   3.802
 7665W        W79991  15.182  10.202  14.391
 7666W        W79992  29.106   2.620  11.576
 7667W        W79993  40.715  23.873  12.041
 7668W        W79994  36.343   6.714  10.633
 7669W        W79995   2.909   7.723   0.217
 7670W        W79996  37.320  42.890  14.987
 7671W        W79997  29.485   6.152  11.477
 7672W        W79998  10.930   2.572   1.762
 7673W        W79999  31.565   7.472   4.834
 7674W        W80000  44.999  43.818  11.497
 7675W        W80001  35.683  22.964   1.106
 7676W        W80002   3.037  36.100   0.383
 7677W        W80003  37.350   2.518  14.368
 7678W        W80004  23.515   5.384   0.718
 7679W        W80005  13.283  16.200   4.070
 7680W        W80006  31.632  14.564  13.380
 7681W        W80007  44.517   1.945   4.651
 7682W        W80008   6.062  18.185   1.202
 7683W        W80009  10.087   3.395  12.938
 7684W        W80010   4.342  27.077  13.723
 7685W        W80011  24.765   5.858   0.171
 7686W        W80012  10.755  31.147   3.303
 7687W        W80013   3.723  12.130   5.355
 7688W        W80014   3.783  39.517   1.961
 7689W        W80015  42.327  18.053  10.735
 7690W        W80016  31.191  12.770   4.655
 7691W        W80017  16.118   5.098   3.132
 7692W        W80018  16.675  19.952  14.003
 7693W        W80019  35.598   9.059  11.210
 7694W        W80020  14.873  20.198  12.597
 7695W        W80021  36.802  38.799   3.873
 7696W        W80022  28.934  10.797   1.855
 7697W        W80023  10.180  22.972  14.607
 7698W        W80024  15.531  22.219   3.319
 7699W        W80025  33.341  23.513  12.575
 7700W        W80026  30.284   2.570  13.780
 7701W        W80027  44.050  38.480  10.712
 7702W        W80028  27.897  29.575  12.249
 7703W        W80029  12.497  24.450   2.826
 7704W        W80030  10.619   5.391  14.888
 7705W        W80031  22.115  29.906   0.282
 7706W        W80032  34.783   0.707  13.512
 7707W        W80033  25.648  12.876  14.795
 7708W        W80034   3.435  36.362  14.297
 7709W        W80035  17.497  37.064   0.864
 7710W        W80036  26.951  23.788   4.113
 7711W        W80037  17.720  40.445  11.569
 7712W        W80038  42.869  38.276   0.923
 7713W        W80039  25.050   5.836   2.440
 7714W        W80040  13.126  26.081   9.960
 7715W        W80041  21.013  37.142  14.009
 7716W        W80042  43.091  35.484   1.952
 7717W        W80043   3.768   7.425   2.899
 7718W        W80044  29.145  19.252  12.457
 7719W        W80045   3.988  17.771   0.703
 7720W        W80046   1.216   9.117  14.539
 7721W        W80047  15.820  39.645   4.397
 7722W        W80048  26.650  26.539   9.863
 7723W        W80049   0.616   0.457   1.265
 7724W        W80050  43.801   0.573   4.551
 7725W        W80051   4.696  26.131  14.380
 7726W        W80052  36.030   7.753  11.587
 7727W        W80053   4.463  19.246  10.663
 7728W        W80054  28.622  33.868   3.625
 7729W        W80055  13.155  23.120   3.017
 7730W        W80056  23.099   6.728  11.054
 7731W        W80057  34.579  17.809   3.661
 7732W        W80058  44.493  34.457  12.583
 7733W        W80059   4.825  39.225   1.270
 7734W        W80060  13.451  23.484   0.340
 7735W        W80061  42.949   5.351  10.677
 7736W        W80062  36.597  10.695   5.080
 7737W        W80063   7.217   7.710   4.465
 7738W        W80064  41.021  35.493  13.613
 7739W        W80065  20.632  10.070   3.929
 7740W        W80066  18.466  42.882   4.209
 7741W        W80067  35.083  11.753  11.067
 7742W        W80068  37.815  30.509   4.072
 7743W        W80069  31.414  15.201   1.893
 7744W        W80070  41.122   5.343   0.898
 7745W        W80071  33.171  15.813  12.418
 7746W        W80072  41.770  41.377   1.259
 7747W        W80073   3.772  37.606  10.778
 7748W        W80074  39.153  17.656  13.532
 7749W        W80075  17.047  35.661   2.155
 7750W        W80076   5.833  41.968   3.165
 7751W        W80077  35.603   4.973   4.046
 7752W        W80078  40.492  15.377  14.951
 7753W        W80079   9.878  35.332  14.292
 7754W        W80080  17.270  20.756   4.497
 7755W        W80081  34.561   7.704   2.880
 7756W        W80082  22.922  25.970   0.746
 7757W        W80083  35.862   6.827   0.853
 7758W        W80084  37.516  14.584   1.442
 7759W        W80085  41.910  22.111   0.825
 7760W        W80086  40.955   5.762   4.778
 7761W        W80087  39.210   1.523   4.388
 7762W        W80088  14.788  43.277  12.049
 7763W        W80089  38.391  12.736  10.887
 7764W        W80090  34.409  32.526  12.426
 7765W        W80091  28.159   1.413   1.450
 7766W        W80092  12.196   6.388  12.907
 7767W        W80093  34.001  23.353   4.058
 7768W        W80094  13.395  43.605   1.612
 7769W        W80095  27.666  27.207  13.304
 7770W        W80096  38.465  19.260  10.889
 7771W        W80097  15.835   2.919  12.940
 7772W        W80098  20.744  25.404   2.799
 7773W        W80099  41.237  32.792  14.273
 7774W        W80100   6.809  12.152  11.630
 7775W        W80101  17.205  41.580   4.400
 7776W        W80102  43.711  11.915  11.155
 7777W        W80103   3.488   6.734   0.965
 7778W        W80104  41.257  27.562   2.109
 7779W        W80105  42.308  43.755   3.208
 7780W        W80106  29.484   3.328   0.405
 7781W        W80107  11.655   8.616  13.094
 7782W        W80108   2.793   6.681   2.218
 7783W        W80109  30.029  14.197   3.170
 7784W        W80110  27.963  13.895   2.332
 7785W        W80111   7.124  35.607   0.158
 7786W        W80112   1.422   4.668   1.424
 7787W        W80113  38.448  26.043   1.977
 7788W        W80114   7.654  40.332  13.951
 7789W        W80115  36.660  17.681   2.681
 7790W        W80116  33.060  19.475  11.596
 7791W        W80117  16.115  43.078   4.544
 7792W        W80118  38.771   0.463   4.020
 7793W        W80119  25.228  39.909   2.183
 7794W        W80120  22.118  14.606   2.520
 7795W        W80121   0.500  34.558   1.192
 7796W        W80122  30.690  30.907   0.093
 7797W        W80123  30.599   1.262  13.264
 7798W        W80124   3.160   5.299   1.314
 7799W        W80125   3.664  41.576  10.599
 7800W        W80126  18.229   3.986  12.205
 7801W        W80127  42.015  15.002   3.125
 7802W        W80128  13.412  23.271  13.515
 7803W        W80129   5.701   1.783   2.283
 7804W        W80130  42.399  15.301   0.109
 7805W        W80131  24.657  30.438   3.424
 7806W        W80132  44.232  11.611  13.446
 7807W        W80133   5.244  34.057  14.565
 7808W        W80134  32.704   3.214  14.688
 7809W        W80135  34.573  21.383  13.064
 7810W        W80136  16.336  26.940  14.888
 7811W        W80137  31.646  43.648  12.896
 7812W        W80138  38.933  26.275  13.321
 7813W        W80139   4.286   7.327   2.598
 7814W        W80140  18.074  30.834  12.873
 7815W        W80141  16.749  28.392  14.061
 7816W        W80142   6.762  31.870  12.414
 7817W        W80143  43.586  33.397  12.996
 7818W        W80144  29.556   8.522   4.204
 7819W        W80145  44.352   1.775  14.638
 7820W        W80146  19.292  44.252   0.785
 7821W        W80147  13.496  29.003  13.437
 7822W        W80148  40.397  12.764  13.385
 7823W        W80149  19.763  36.727   2.190
 7824W        W80150   8.373   6.958  14.419
 7825W        W80151  11.161   1.227  14.808
 7826W        W80152  39.579  42.477   4.134
 7827W        W80153  19.384   8.805   3.249
 7828W        W80154  34.077  40.928  14.894
 7829W        W80155   9.647   5.710  14.362
 7830W        W80156   0.260  44.241   0.904
 7831W        W80157  13.710  23.607   3.560
 7832W        W80158  35.956  15.819  14.100
 7833W        W80159  29.450  19.041   0.752
 7834W        W80160  10.697  39.900  14.528
 7835W        W80161  28.261  21.681  14.701
 7836W        W80162  31.932  25.644  14.932
 7837W        W80163   4.020   3.255   4.746
 7838W        W80164  24.054  24.665   2.909
 7839W        W80165  35.114  30.741  10.150
 7840W        W80166  20.519  19.770  14.855
 7841W        W80167  19.756  19.244   1.301
 7842W        W80168   5.998  35.663  11.526
 7843W        W80169  27.627  34.159  11.506
 7844W        W80170  13.097  41.975   1.194
 7845W        W80171   1.051  44.834  14.199
 7846W        W80172  41.036  16.632   1.976
 7847W        W80173  43.762  40.832   3.604
 7848W        W80174  36.617  31.465  12.925
 7849W        W80175   4.157   5.800   1.171
 7850W        W80176  43.275   9.728   1.944
 7851W        W80177  35.087  13.684  14.541
 7852W        W80178  27.978  26.117  14.703
 7853W        W80179  39.937  28.988   2.809
 7854W        W80180  27.563  18.871   0.342
 7855W        W80181  40.440  21.559  13.050
 7856W        W80182  36.873   0.151   1.757
 7857W        W80183  21.443  28.908   4.079
 7858W        W80184  42.693   7.153  12.570
 7859W        W80185  24.772  32.673   4.556
 7860W        W80186  39.488  34.677   1.826
 7861W        W80187  16.085   9.759   3.654
 7862W        W80188   1.414   9.040  13.312
 7863W        W80189  44.410  14.367  13.925
 7864W        W80190  24.521   4.446   2.634
 7865W        W80191  34.092  10.684   4.456
 7866W        W80192  11.452  27.724  13.237
 7867W        W80193  33.475   4.663  12.032
 7868W        W80194  24.930  32.159   0.228
 7869W        W80195  27.463  15.668   4.064
 7870W        W80196  17.774  16.336   3.134
 7871W        W80197  24.090   4.357   4.028
 7872W        W80198  16.839  44.898  11.222
 7873W        W80199  13.139  27.181  10.248
 7874W        W80200  11.683  31.889   5.034
 7875W        W80201  34.821  16.931   0.648
 7876W        W80202   3.866  18.662   4.574
 7877W        W80203  19.280  39.755  10.842
 7878W        W80204   6.612   9.697   4.078
 7879W        W80205  17.599  21.023   1.616
 7880W        W80206  20.205  41.458  13.719
 7881W        W80207  35.480   8.666  13.013
 7882W        W80208  12.546   3.404   4.015
 7883W        W80209  42.598  12.212  14.311
 7884W        W80210   8.680  39.397  13.795
 7885W        W80211   1.531  41.636  12.555
 7886W        W80212  17.430  36.085   5.047
 7887W        W80213  20.060   3.631  11.384
 7888W        W80214   2.231   0.514  11.956
 7889W        W80215  19.600   6.659  13.787
 7890W        W80216  38.493  17.350  10.701
 7891W        W80217  43.916  33.213   4.135
 7892W        W80218  44.039  17.317  12.778
 7893W        W80219   7.984  40.359  11.185
 7894W        W80220  31.944  16.001  13.765
 7895W        W80221   8.698  20.204  13.394
 7896W        W80222  15.656   8.432  14.103
 7897W        W80223  32.574  17.269   3.667
 7898W        W80224  15.184  28.611  10.731
 7899W        W80225  36.920  44.488  13.704
 7900W        W80226  44.593  39.907   2.123
 7901W        W80227  28.644  17.748  13.612
 7902W        W80228   8.329  32.847   4.247
 7903W        W80229   6.643  10.936  11.625
 7904W        W80230  17.666  34.827   3.746
 7905W        W80231  31.419  13.687   1.233
 7906W        W80232   2.728  15.603   0.660
 7907W        W80233  31.589   6.718  12.506
 7908W        W80234  21.785  41.953  11.515
 7909W        W80235  35.956  42.791  11.116
 7910W        W80236  29.938  42.454   0.563
 7911W        W80237  23.409   6.241   3.068
 7912W        W80238  13.225  36.163   0.424
 7913W        W80239   8.864  30.248  10.253
 7914W        W80240  27.485  19.922  12.038
 7915W        W80241  17.768   3.801  11.912
 7916W        W80242   8.120   8.652   5.127
 7917W        W80243  33.120  36.797   3.244
 7918W        W80244   1.889  22.280  12.670
 7919W        W80245  13.956   6.721  14.828
 7920W        W80246  37.032  33.410  12.946
 7921W        W80247  13.809  43.446   0.229
 7922W        W80248  13.676   0.490   4.852
 7923W        W80249  28.686  13.194  14.310
 7924W        W80250  12.494  22.630  10.777
 7925W        W80251   6.142  38.133   3.117
 7926W        W80252  34.975  42.327  14.570
 7927W        W80253  36.328  25.736   4.237
 7928W        W80254  19.990  41.391   0.222
 7929W        W80255  13.666  21.969   4.527
 7930W        W80256  42.231  35.042  11.630
 7931W        W80257  44.396  44.572  13.625
 7932W        W80258  13.180  37.016  13.389
 7933W        W80259  16.069  35.834  12.431
 7934W        W80260  15.172  44.806  11.785
 7935W        W80261   0.372  37.868  11.714
 7936W        W80262  17.134   3.631  11.214
 7937W        W80263   1.740  31.128  13.786
 7938W        W80264  34.825   8.327  10.698
 7939W        W80265  23.596  40.807   0.251
 7940W        W80266  11.680  28.608   2.871
 7941W        W80267   7.189  29.579  12.524
 7942W        W80268   8.672  30.511   5.106
 7943W        W80269  26.209  29.217  13.428
 7944W        W80270  23.657   1.403  14.276
 7945W        W80271   7.688  35.343   4.066
 7946W        W80272   0.213   9.198   0.241
 7947W        W80273  12.930  12.084  12.965
 7948W        W80274   2.948  31.057  14.983
 7949W        W80275  40.761   6.173   4.075
 7950W        W80276  34.231  23.629   1.779
 7951W        W80277   6.709  28.594   4.670
 7952W        W80278  38.425  20.098   4.731
 7953W        W80279  21.318   5.372   1.305
 7954W        W80280   1.821  39.178  12.646
 7955W        W80281  44.503  31.580   4.031
 7956W        W80282  22.187  11.164   0.297
 7957W        W80283  27.673  13.462  13.744
 7958W        W80284  25.777  16.227  10.129
 7959W        W80285  31.610  20.151  13.008
 7960W        W80286   8.972  35.814  10.685
 7961W        W80287  37.517  15.277  10.931
 7962W        W80288  12.847  42.473   0.886
 7963W        W80289  28.169   1.853  12.453
 7964W        W80290  15.272   7.040   4.490
 7965W        W80291  33.540  22.548  14.532
 7966W        W80292  29.849  23.648  10.702
 7967W        W80293  25.270  23.224  13.991
 7968W        W80294   9.139  34.088  11.218
 7969W        W80295  36.050  12.336   3.446
 7970W        W80296  24.518  37.562  13.024
 7971W        W80297  26.730   5.861  14.054
 7972W        W80298  13.839  35.112  13.482
 7973W        W80299   9.754   0.706   0.287
 7974W        W80300  17.476  11.806  11.020
 7975W        W80301   2.673  21.680   2.985
 7976W        W80302  12.923   8.073   0.983
 7977W        W80303  39.548  15.365  14.929
 7978W        W80304   5.330   5.669   0.407
 7979W        W80305  40.524  23.618  13.343
 7980W        W80306  32.839  34.674   0.782
 7981W        W80307  10.186  44.752   0.554
 7982W        W80308  24.532   6.105  12.552
 7983W        W80309  33.857  17.795   3.279
 7984W        W80310  25.717  21.481  14.921
 7985W        W80311  14.222  21.742  13.669
 7986W        W80312   9.443  28.570  10.660
 7987W        W80313  17.515  30.113   4.938
 7988W        W80314  18.151  37.639   1.866
 7989W        W80315   0.689   5.978  10.312
 7990W        W80316  32.434  17.077  10.277
 7991W        W80317  38.065  24.949   1.336
 7992W        W80318  40.481  26.776   2.742
 7993W        W80319  43.335  10.202  13.447
 7994W        W80320  33.599  25.595  12.987
 7995W        W80321   5.140  26.163   4.722
 7996W        W80322   2.321  23.034   2.341
 7997W        W80323  44.957  11.224   4.815
 7998W        W80324  35.552  11.632  14.440
 7999W        W80325  37.121  31.986  13.642
 8000W        W80326  36.060  22.235  12.534
 8001W        W80327   8.307  30.173   3.630
 8002W        W80328  13.165  36.376   4.624
 8003W        W80329   3.932  28.041   4.750
 8004W        W80330  12.795  26.693  14.921
 8005W        W80331   5.856  31.878  12.366
 8006W        W80332  26.911   2.345   2.982
 8007W        W80333  30.203   0.934  13.370
 8008W        W80334   1.218  39.056  10.696
 8009W        W80335  41.553  22.719   0.836
 8010W        W80336   4.402  22.639  11.897
 8011W        W80337  35.695  21.946   2.638
 8012W        W80338  40.797   4.802   3.892
 8013W        W80339  22.101   5.758   1.718
 8014W        W80340  44.483   1.393  14.326
 8015W        W80341   4.894  32.908  14.807
 8016W        W80342  16.822   7.512   2.449
 8017W        W80343  43.759  37.412  13.835
 8018W        W80344  20.031   0.952  13.903
 8019W        W80345  21.076   3.353  12.879
 8020W        W80346  34.912  23.059  10.128
 8021W        W80347   1.960   5.629  12.759
 8022W        W80348  24.361   4.426  11.638
 8023W        W80349   0.865  38.485   2.142
 8024W        W80350  22.720  36.965   3.620
 8025W        W80351  31.899   0.977   2.622
 8026W        W80352  16.307  26.048  12.833
 8027W        W80353   6.895   8.137   1.781
 8028W        W80354  31.196  14.184  10.396
 8029W        W80355  21.146   1.064  12.138
 8030W        W80356  36.905  25.690   1.911
 8031W        W80357  12.013  31.379  13.980
 8032W        W80358   8.646  25.781  14.877
 8033W        W80359   7.908   1.900  12.493
 8034W        W80360  44.887  16.356   0.280
 8035W        W80361  43.922   3.199   0.486
 8036W        W80362   7.827  14.763  10.742
 8037W        W80363   2.305   9.283  11.715
 8038W        W80364  24.318  43.311  12.118
 8039W        W80365  20.192  34.569  11.924
 8040W        W80366  44.932   4.845  14.051
 8041W        W80367   6.399   3.494  10.913
 8042W        W80368  18.206  21.114  13.368
 8043W        W80369   2.493   1.255   1.718
 8044W        W80370   3.488  43.087   0.439
 8045W        W80371  28.679  28.936   4.248
 8046W        W80372   2.483  26.755  11.946
 8047W        W80373   1.948  11.348  14.422
 8048W        W80374  40.882  38.088   2.504
 8049W        W80375  10.743   9.400   3.884
 8050W        W80376  27.196  38.812   4.184
 8051W        W80377  35.547  31.066  11.669
 8052W        W80378  13.810  24.225  13.403
 8053W        W80379  31.162  20.548   3.193
 8054W        W80380   2.765   7.784  13.194
 8055W        W80381  22.273  13.294   0.289
 8056W        W80382  33.617   6.240  13.351
 8057W        W80383  21.200  36.586  13.571
 8058W        W80384  35.395  17.986   4.564
 8059W        W80385  18.069  14.638   0.270
 8060W        W80386  10.667  44.506   4.113
 8061W        W80387  10.618  18.826  13.392
 8062W        W80388  10.884  40.358   3.396
 8063W        W80389   0.160  10.010   5.630
 8064W        W80390  38.261  41.211   4.697
 8065W        W80391  40.082  26.068   3.610
 8066W        W80392   5.763  21.630  14.067
 8067W        W80393  27.259  17.075   4.645
 8068W        W80394   9.190  26.843  10.077
 8069W        W80395  42.511  32.359  13.657
 8070W        W80396  26.480  28.943  11.606
 8071W        W80397  35.969  19.566  12.089
 8072W        W80398  26.792  42.377   3.577
 8073W        W80399  22.726  13.753   1.691
 8074W        W80400  13.517  38.623   4.153
 8075W        W80401   8.883  17.006  11.112
 8076W        W80402  35.101  23.143   2.597
 8077W        W80403  26.153  18.013   1.406
 8078W        W80404   1.403   2.778   1.608
 8079W        W80405  39.418  15.268  11.113
 8080W        W80406   8.468  37.487  13.551
 8081W        W80407  28.020  44.802  14.329
 8082W        W80408  19.991   4.885  10.166
 8083W        W80409  39.444  38.976  11.187
 8084W        W80410   6.018  22.549   2.615
 8085W        W80411  16.743  32.163   4.344
 8086W        W80412  25.129   3.821  13.902
 8087W        W80413  21.151  12.009  13.664
 8088W        W80414   4.991  37.082  10.057
 8089W        W80415  36.375  37.353  11.490
 8090W        W80416  36.159  23.752  11.592
 8091W        W80417  28.177  25.891  11.754
 8092W        W80418  15.394  20.093   2.586
 8093W        W80419  24.587   5.156   4.442
 8094W        W80420   4.989  32.360  13.436
 8095W        W80421   8.239  36.042   1.383
 8096W        W80422  19.256   9.980   4.697
 8097W        W80423  27.799  35.513   5.240
 8098W        W80424   5.302   6.339   1.024
 8099W        W80425  36.278   4.343   0.450
 8100W        W80426  23.461  14.194   4.203
 8101W        W80427  12.186  13.142  12.249
 8102W        W80428   8.128  16.159   2.304
 8103W        W80429  27.441  10.828  13.462
 8104W        W80430  42.380  12.651   1.285
 8105W        W80431  23.267  23.516  12.576
 8106W        W80432  32.037  35.044  13.427
 8107W        W80433  11.142  41.283  14.044
 8108W        W80434   8.974  39.273   5.077
 8109W        W80435  24.486  40.338   4.674
 8110W        W80436  30.819  27.472   3.219
 8111W        W80437  25.994   5.338  12.085
 8112W        W80438   6.304  33.153  12.513
 8113W        W80439  22.793   3.396  14.252
 8114W        W80440  31.656  44.468   2.090
 8115W        W80441  27.137   1.298  13.497
 8116W        W80442   9.719   1.025   3.162
 8117W        W80443  13.812  26.693  13.032
 8118W        W80444  31.376  13.674   4.501
 8119W        W80445  38.881   6.897  12.064
 8120W        W80446  17.136  29.827   1.799
 8121W        W80447  29.246  22.688  12.914
 8122W        W80448  12.699  39.072   1.660
 8123W        W80449   9.249   0.207   1.837
 8124W        W80450  25.960   3.814   3.928
 8125W        W80451  40.376   9.329  12.132
 8126W        W80452  27.163  36.805  11.986
 8127W        W80453   5.768  27.696   1.452
 8128W        W80454  17.035   3.302   2.831
 8129W        W80455   5.436   3.807   2.376
 8130W        W80456  15.654  28.217   0.505
 8131W        W80457   5.983  43.015  11.160
 8132W        W80458  24.458  39.023   4.656
 8133W        W80459  28.675  33.105   2.859
 8134W        W80460  33.174   0.021   1.811
 8135W        W80461  26.956  36.358  12.868
 8136W        W80462  29.714  11.269  11.511
 8137W        W80463  13.551  34.669  13.519
 8138W        W80464   4.033   5.359   4.618
 8139W        W80465  44.381  28.884   3.191
 8140W        W80466  44.149  23.635   3.172
 8141W        W80467  12.867  43.951  13.006
 8142W        W80468  20.573   0.662  13.093
 8143W        W80469  21.771  23.126   4.361
 8144W        W80470  18.091  40.486  13.546
 8145W        W80471  37.469  12.311  12.338
 8146W        W80472  24.075  35.713  10.080
 8147W        W80473  35.598   2.938   4.132
 8148W        W80474  25.075  16.185  14.908
 8149W        W80475  34.004  25.441  14.925
 8150W        W80476  39.472  35.264   3.165
 8151W        W80477  18.213  32.519  11.348
 8152W        W80478   1.219  24.708  11.047
 8153W        W80479   7.214   0.416  14.206
 8154W        W80480  42.926  16.285   2.624
 8155W        W80481  28.526  30.602   1.699
 8156W        W80482  11.931  10.220  12.606
 8157W        W80483   2.782  38.875  10.548
 8158W        W80484  39.901  37.775   1.398
 8159W        W80485  22.749  42.083  11.695
 8160W        W80486  28.119  39.528   4.709
 8161W        W80487  31.311  10.388  13.381
 8162W        W80488  20.067   2.343   1.824
 8163W        W80489  13.848  20.150  13.540
 8164W        W80490   0.620  23.539   4.952
 8165W        W80491  18.172   1.434  12.841
 8166W        W80492  12.291  41.348  12.490
 8167W        W80493  15.269  36.079   1.538
 8168W        W80494   3.299   7.865   2.784
 8169W        W80495   5.102  22.191   0.983
 8170W        W80496  17.750  25.845   1.589
 8171W        W80497  42.912  38.918  14.340
 8172W        W80498  34.096  29.385  14.227
 8173W        W80499  19.223   3.053  14.081
 8174W        W80500   8.625  14.444   0.811
 8175W        W80501  42.764   8.442  14.115
 8176W        W80502  23.805  40.413  12.393
 8177W        W80503  34.380  36.059   4.731
 8178W        W80504  15.980  10.369  13.343
 8179W        W80505   7.893  21.483  11.062
 8180W        W80506  12.128  24.679   3.118
 8181W        W80507  12.409  35.979   4.800
 8182W        W80508  31.324   5.504   4.093
 8183W        W80509   2.234  17.307  14.580
 8184W        W80510   8.845  24.996  11.005
 8185W        W80511  12.840  12.273  14.810
 8186W        W80512  39.556  42.577   2.706
 8187W        W80513  21.540  16.653   3.583
 8188W        W80514  30.640  44.884  14.790
 8189W        W80515  20.650  25.758  14.040
 8190W        W80516   5.912  36.171   3.774
 8191W        W80517   1.820  11.773   1.871
 8192W        W80518  20.193   4.515   4.143
 8193W        W80519  13.614  24.959  10.613
 8194W        W80520  35.297  23.479   4.350
 8195W        W80521  17.735  14.264   3.050
 8196W        W80522  36.538   0.830   0.416
 8197W        W80523  30.783  18.437  12.621
 8198W        W80524   3.470  37.347   2.710
 8199W        W80525  43.202   4.310  12.522
 8200W        W80526  41.294  40.862   2.711
 8201W        W80527  11.405  15.309  13.969
 8202W        W80528   5.312  32.079  12.481
 8203W        W80529  14.109  12.668  13.070
 8204W        W80530  23.280  11.157  13.309
 8205W        W80531  24.307   9.266  11.605
 8206W        W80532   0.851  12.666  13.835
 8207W        W80533  38.234  44.738   3.249
 8208W        W80534  21.275  12.872   3.659
 8209W        W80535  12.151   3.534   3.256
 8210W        W80536  17.717  38.748  12.081
 8211W        W80537   4.408  43.487  11.974
 8212W        W80538  25.295  15.929  13.025
 8213W        W80539   1.714  29.057   2.844
 8214W        W80540   1.979  14.524   4.083
 8215W        W80541  19.404  28.033  11.760
 8216W        W80542  13.788  14.801  12.553
 8217W        W80543  15.340  12.184   4.597
 8218W        W80544  31.211   1.803  12.345
 8219W        W80545   7.855  11.710  13.819
 8220W        W80546   3.059   5.333   4.526
 8221W        W80547   0.027  37.749  13.736
 8222W        W80548   9.857   8.304   3.227
 8223W        W80549  13.825  16.811   0.466
 8224W        W80550  10.794   4.005  13.419
 8225W        W80551  32.380  38.747  10.343
 8226W        W80552  18.271  42.662  14.846
 8227W        W80553  41.591   1.427  13.801
 8228W        W80554  27.441  26.507   0.706
 8229W        W80555  29.280  36.828   2.272
 8230W        W80556   1.402  34.360   4.385
 8231W        W80557  30.918  37.247   3.708
 8232W        W80558  42.844  24.329  13.005
 8233W        W80559  12.224   8.799   3.367
 8234W        W80560  10.320  42.592  13.443
 8235W        W80561  19.423   5.619   2.407
 8236W        W80562  41.231  43.546  12.453
 8237W        W80563  13.871   9.589   2.249
 8238W        W80564  32.408  31.610   2.300
 8239W        W80565  32.942  33.012  12.588
 8240W        W80566  11.169  16.802   3.137
 8241W        W80567  10.396  27.139   4.545
 8242W        W80568   7.002   4.969   0.394
 8243W        W80569   1.456   5.195   2.108
 8244W        W80570  25.532  10.295  14.365
 8245W        W80571  16.147  24.703  10.674
 8246W        W80572  20.371  27.319  13.357
 8247W        W80573  41.571  34.429  12.266
 8248W        W80574  36.319  34.064  10.526
 8249W        W80575  34.348   2.432   1.101
 8250W        W80576  29.920   6.894   4.362
 8251W        W80577   1.833  30.628  11.885
 8252W        W80578  37.882  29.143   0.306
 8253W        W80579  28.427  39.936   4.279
 8254W        W80580  37.480  41.074  10.755
 8255W        W80581  19.480  30.874   4.178
 8256W        W80582  29.341  20.518  11.998
 8257W        W80583  43.083  12.162   1.438
 8258W        W80584  15.244  26.605  13.411
 8259W        W80585  31.151  19.447  12.384
 8260W        W80586  38.917  36.302  13.665
 8261W        W80587  30.540   7.671   3.385
 8262W        W80588  26.492   4.347   2.964
 8263W        W80589   3.795  36.340   3.310
 8264W        W80590  44.943   5.087  12.271
 8265W        W80591  39.343   3.426   4.813
 8266W        W80592  15.608  26.720   4.204
 8267W        W80593  29.888   3.809   4.881
 8268W        W80594   5.226  36.129  11.128
 8269W        W80595  32.662   5.398   0.750
 8270W        W80596  17.377  28.862  12.653
 8271W        W80597   8.658  17.585  10.480
 8272W        W80598   8.853   3.220  12.105
 8273W        W80599  15.955  20.553  12.721
 8274W        W80600  20.675  24.455   2.282
 8275W        W80601  18.738  24.967   0.477
 8276W        W80602  35.098  18.272   2.183
 8277W        W80603  11.168  16.268  14.052
 8278W        W80604  20.568  44.545  11.506
 8279W        W80605  25.568  44.183   4.976
 8280W        W80606  13.401  17.006  11.521
 8281W        W80607  17.231   8.388   3.614
 8282W        W80608  41.955  17.595   4.661
 8283W        W80609  36.330  25.184  14.411
 8284W        W80610  10.248  37.418  11.598
 8285W        W80611  33.962  17.555  13.962
 8286W        W80612  41.790  40.952   2.504
 8287W        W80613  19.666  28.874   0.058
 8288W        W80614   1.484  30.373  13.026
 8289W        W80615  35.342  42.821  11.560
 8290W        W80616  23.673  42.360  12.443
 8291W        W80617  39.411  15.335  12.531
 8292W        W80618  29.555  39.430   4.167
 8293W        W80619  43.695  11.524  13.431
 8294W        W80620  33.473  29.417  11.030
 8295W        W80621  33.321  19.640  11.199
 8296W        W80622  28.548  39.137  12.799
 8297W        W80623   3.996  14.239   2.861
 8298W        W80624   6.036  24.584  10.784
 8299W        W80625  32.701   0.351   1.714
 8300W        W80626  28.152  21.230  14.927
 8301W        W80627  42.309  42.674  11.040
 8302W        W80628  38.518  36.478   4.194
 8303W        W80629  32.030  36.988   2.411
 8304W        W80630   0.209  35.024  11.570
 8305W        W80631  41.007  43.412   1.909
 8306W        W80632  22.359   1.273  13.269
 8307W        W80633   1.950  26.593  10.746
 8308W        W80634   8.114  24.463  12.046
 8309W        W80635   1.215  16.469   4.571
 8310W        W80636   4.786  41.836   3.678
 8311W        W80637   8.482  39.518  11.096
 8312W        W80638   0.547  29.696  13.231
 8313W        W80639  25.268  28.977   4.817
 8314W        W80640   1.879   6.278   0.509
 8315W        W80641  27.241   7.911  14.994
 8316W        W80642  35.222  13.418   0.625
 8317W        W80643  35.800  18.522  14.846
 8318W        W80644  43.815   9.113   2.226
 8319W        W80645  18.294  42.099   3.799
 8320W        W80646  31.422  30.987  11.501
 8321W        W80647  11.852  40.055  13.617
 8322W        W80648  19.193   6.254  11.073
 8323W        W80649  15.134  43.264  14.621
 8324W        W80650  25.294  17.751   3.289
 8325W        W80651  29.068  40.416   0.146
 8326W        W80652   1.206  13.657   1.356
 8327W        W80653  34.157   5.893  12.194
 8328W        W80654  26.964   6.064  13.429
 8329W        W80655   2.518  43.768   1.876
 8330W        W80656   2.817  20.551   5.717
 8331W        W80657   0.895  32.957   4.737
 8332W        W80658  41.392  16.205  11.520
 8333W        W80659  39.412   2.969   4.092
 8334W        W80660  34.073  12.388  12.541
 8335W        W80661  21.424   8.241   4.571
 8336W        W80662  26.910  17.634   2.577
 8337W        W80663  27.703  14.859   0.030
 8338W        W80664  18.566  18.694  14.954
 8339W        W80665   3.274  44.454   4.914
 8340W        W80666  27.489   0.727  12.935
 8341W        W80667  32.094   3.939   3.364
 8342W        W80668  25.096  42.806   1.356
 8343W        W80669  39.129  32.210  12.010
 8344W        W80670  19.238  30.582   1.273
 8345W        W80671  39.474  16.159  11.153
 8346W        W80672  41.936   7.196  13.980
 8347W        W80673  18.557  40.574   2.709
 8348W        W80674  18.686  28.069  12.475
 8349W        W80675  11.295  36.263  11.090
 8350W        W80676  24.546  17.726  13.941
 8351W        W80677  18.872   7.872  11.976
 8352W        W80678  34.929  22.260  14.965
 8353W        W80679  35.981  25.543   0.262
 8354W        W80680   7.825  26.032  13.041
 8355W        W80681  18.073  13.860  11.613
 8356W        W80682  40.251  40.430   4.559
 8357W        W80683  13.456  13.225  11.590
 8358W        W80684   6.862  13.615   1.443
 8359W        W80685   4.342  21.963  10.210
 8360W        W80686  33.368  23.125  10.954
 8361W        W80687  28.476  20.536  10.730
 8362W        W80688   4.962  21.510   0.879
 8363W        W80689   3.443  33.182  14.826
 8364W        W80690  35.792  43.054   2.468
 8365W        W80691  25.616  17.085   0.757
 8366W        W80692  43.858  20.188  12.341
 8367W        W80693  11.909  43.277   0.286
 8368W        W80694  25.040   6.702  13.319
 8369W        W80695  21.006  17.861   2.564
 8370W        W80696  17.298   9.120  11.149
 8371W        W80697  21.083  35.611  11.049
 8372W        W80698   8.482  35.650   4.327
 8373W        W80699   7.950   9.333   0.053
 8374W        W80700   6.901  17.331  12.815
 8375W        W80701  17.549  20.106   0.854
 8376W        W80702  11.574  42.381  12.914
 8377W        W80703  18.523  15.021   0.708
 8378W        W80704  32.002  17.478   5.034
 8379W        W80705   3.785  38.498  11.884
 8380W        W80706  34.193   5.146  10.762
 8381W        W80707  31.475   7.127   3.885
 8382W        W80708  15.656  29.980   3.366
 8383W        W80709  23.521  43.219  13.554
 8384W        W80710  14.929  11.681  11.925
 8385W        W80711  15.345  41.545   4.513
 8386W        W80712  33.180   1.854  13.514
 8387W        W80713  31.855  15.576   3.634
 8388W        W80714  27.202  10.747   4.364
 8389W        W80715  36.955   9.856  13.517
 8390W        W80716  10.580  31.511   1.577
 8391W        W80717   9.796  22.784   2.744
 8392W        W80718  41.302   8.870   5.008
 8393W        W80719  27.378   0.490   2.943
 8394W        W80720  15.329  18.793   3.189
 8395W        W80721  44.217  16.703  13.787
 8396W        W80722   7.325  42.523   2.130
 8397W        W80723  22.955  30.386  14.892
 8398W        W80724  44.494  42.097  13.366
 8399W        W80725  10.692   2.824  12.075
 8400W        W80726  12.194  28.435   0.305
 8401W        W80727   3.710  44.311   4.115
 8402W        W80728  36.575   9.294   0.212
 8403W        W80729   9.264  12.745  10.913
 8404W        W80730  36.420   4.446  14.514
 8405W        W80731  29.945  25.702  14.480
 8406W        W80732  26.082   0.182  11.505
 8407W        W80733  15.124  17.678   1.233
 8408W        W80734   0.516   9.382  13.405
 8409W        W80735  19.867   5.868   2.368
 8410W        W80736  30.132  20.783   1.333
 8411W        W80737  39.059  11.971  12.073
 8412W        W80738  20.969  32.109  10.758
 8413W        W80739  41.463  41.804  11.717
 8414W        W80740  36.885   9.735  12.617
 8415W        W80741   9.873  22.130  10.385
 8416W        W80742  24.276  38.328   4.592
 8417W        W80743  23.625  35.992   0.972
 8418W        W80744  12.901  26.483   1.290
 8419W        W80745  44.278  31.696   4.996
 8420W        W80746  34.995  14.408  14.681
 8421W        W80747  40.002  25.086   0.909
 8422W        W80748  36.630   8.430   2.288
 8423W        W80749  32.490  36.273  13.445
 8424W        W80750  14.787  41.871   3.851
 8425W        W80751  34.490  38.766   3.610
 8426W        W80752  41.311  42.702  12.804
 8427W        W80753  23.052  37.272  12.733
 8428W        W80754  27.777   8.577  12.811
 8429W        W80755  12.540  31.354  14.514
 8430W        W80756  32.655   0.444   1.205
 8431W        W80757  33.388  13.547   4.234
 8432W        W80758   4.543   1.451  10.398
 8433W        W80759  16.316  15.044   0.906
 8434W        W80760   1.753  10.632  12.444
 8435W        W80761  27.651   6.815  13.834
 8436W        W80762  16.938  30.236   0.572
 8437W        W80763  42.227  43.253  12.483
 8438W        W80764  20.885  44.411  11.109
 8439W        W80765   9.947  21.364   1.001
 8440W        W80766  38.016  39.852   3.620
 8441W        W80767   2.628  18.899   4.186
 8442W        W80768   1.958  38.526   4.740
 8443W        W80769   4.517  30.532   0.303
 8444W        W80770  22.616  37.079  10.800
 8445W        W80771  40.052  29.606   3.636
 8446W        W80772   8.390  12.742  10.418
 8447W        W80773  35.428  14.337  14.408
 8448W        W80774  10.038  29.126  14.909
 8449W        W80775  20.736  25.944  14.936
 8450W        W80776  31.550  35.142   3.155
 8451W        W80777  33.666  32.025  14.211
 8452W        W80778  17.789  14.599   0.705
 8453W        W80779  34.051  38.949  13.375
 8454W        W80780   1.900   4.854   4.611
 8455W        W80781  12.670   5.675  10.561
 8456W        W80782  44.424  19.464   4.644
 8457W        W80783  29.020  34.299  13.771
 8458W        W80784  26.430   0.406   3.909
 8459W        W80785  42.827  15.392   3.275
 8460W        W80786  30.592  33.054  14.113
 8461W        W80787  16.053  18.225   3.686
 8462W        W80788   7.744  41.960  12.108
 8463W        W80789   7.908  12.034   5.058
 8464W        W80790   4.879  37.077  10.576
 8465W        W80791  12.692  10.921   1.058
 8466W        W80792  39.582  12.041  11.585
 8467W        W80793  38.805   2.793   4.789
 8468W        W80794   1.749  16.876   0.393
 8469W        W80795  35.431  23.405  13.784
 8470W        W80796  39.666  42.546  10.909
 8471W        W80797  43.805  11.726   3.820
 8472W        W80798   4.250  14.787   0.290
 8473W        W80799  17.610  32.015  11.918
 8474W        W80800  42.303  42.703   2.223
 8475W        W80801  37.435  19.694   9.987
 8476W        W80802  27.142  15.873  12.491
 8477W        W80803   9.271  31.233  13.091
 8478W        W80804  11.049  34.501   5.074
 8479W        W80805  19.889  13.317   4.247
 8480W        W80806  12.876  18.013  11.577
 8481W        W80807  30.447  13.803   1.770
 8482W        W80808  44.356  28.933  11.953
 8483W        W80809   9.417  25.969  12.245
 8484W        W80810  17.222  25.449   0.984
 8485W        W80811   5.701  30.158   1.448
 8486W        W80812  39.810  17.030  13.038
 8487W        W80813   5.215  15.187   3.228
 8488W        W80814  24.280  13.129   0.882
 8489W        W80815  24.192  24.132   1.164
 8490W        W80816   5.702  34.972   0.827
 8491W        W80817  44.804  37.378   1.457
 8492W        W80818  12.120  16.189   4.047
 8493W        W80819  20.624  20.171   3.195
 8494W        W80820   2.857  18.806  12.576
 8495W        W80821  33.014  35.654   4.154
 8496W        W80822  27.532  27.199  14.199
 8497W        W80823  10.806  28.066  14.719
 8498W        W80824   4.304  11.832   0.232
 8499W        W80825  34.872  41.971  11.376
 8500W        W80826  17.267  43.904  14.269
 8501W        W80827  44.451  38.509  11.034
 8502W        W80828  25.462  30.125  13.928
 8503W        W80829   8.755  44.748  11.475
 8504W        W80830  41.812  27.441   0.437
 8505W        W80831  26.434  27.073  10.532
 8506W        W80832   3.818  22.026   5.577
 8507W        W80833  21.751   5.326   4.179
 8508W        W80834  34.539  24.239  11.884
 8509W        W80835  22.221  32.556  14.108
 8510W        W80836  25.718  28.179   0.815
 8511W        W80837  30.854   4.248   1.466
 8512W        W80838  44.217  22.558  12.624
 8513W        W80839  42.068  32.466   2.356
 8514W        W80840  28.567  31.607  11.485
 8515W        W80841  44.095  11.280  14.270
 8516W        W80842  31.964  21.939  12.376
 8517W        W80843  18.270  31.932  11.239
 8518W        W80844  14.805  15.052  11.627
 8519W        W80845  24.258  13.436   3.378
 8520W        W80846  18.954  27.004   4.019
 8521W        W80847   3.376  12.771  10.631
 8522W        W80848   3.726   1.555   5.055
 8523W        W80849  43.321  33.062   0.670
 8524W        W80850   4.278  28.643  10.749
 8525W        W80851  23.670  15.748  11.124
 8526W        W80852   3.200  39.349   2.209
 8527W        W80853  20.949  28.616  12.361
 8528W        W80854  33.845  14.254  13.962
 8529W        W80855  13.710  11.525  12.958
 8530W        W80856  36.689   9.340   3.046
 8531W        W80857  25.536  14.286  10.896
 8532W        W80858   1.777  32.026   4.722
 8533W        W80859   1.677  37.806  12.938
 8534W        W80860  39.016  16.145   0.306
 8535W        W80861  14.621  38.380  10.754
 8536W        W80862  31.604  28.646   3.794
 8537W        W80863  18.835  25.605  13.380
 8538W        W80864  22.242  26.682   4.341
 8539W        W80865  25.471  31.978   4.698
 8540W        W80866   6.834  18.145   4.471
 8541W        W80867  14.773  14.667   3.527
 8542W        W80868  43.394  27.910  11.843
 8543W        W80869  35.158  35.841  13.819
 8544W        W80870   0.563  31.109  11.552
 8545W        W80871   8.838   8.374   2.757
 8546W        W80872  31.347  30.623  11.154
 8547W        W80873  36.041   1.745  13.426
 8548W        W80874   9.098  33.913  11.720
 8549W        W80875   8.999  25.409   1.354
 8550W        W80876  24.506  40.305  10.707
 8551W        W80877  42.348   0.687  12.464
 8552W        W80878  14.652   1.039  11.482
 8553W        W80879   5.095   2.423   1.285
 8554W        W80880  26.968  40.424   0.278
 8555W        W80881  17.621  44.410   1.862
 8556W        W80882  17.769  15.014   1.449
 8557W        W80883  20.796   8.735   1.269
 8558W        W80884  28.454  37.060  14.193
 8559W        W80885  24.592   3.900   4.412
 8560W        W80886  30.993  37.313   2.387
 8561W        W80887  17.365  19.197   4.144
 8562W        W80888  36.118  26.631  10.539
 8563W        W80889  31.565  43.383   0.221
 8564W        W80890   1.731   3.726   2.875
 8565W        W80891   1.798  36.702   0.119
 8566W        W80892  44.497  16.040   0.983
 8567W        W80893  35.646  27.558  10.459
 8568W        W80894  33.301  24.204   4.154
 8569W        W80895   1.409   1.064  10.651
 8570W        W80896  30.816  44.724   2.076
 8571W        W80897  26.088  12.730  14.551
 8572W        W80898  27.933   2.387  13.565
 8573W        W80899   4.912   1.084  10.449
 8574W        W80900  13.742  20.214   0.528
 8575W        W80901  20.658   9.306  13.558
 8576W        W80902  40.283   9.673  11.562
 8577W        W80903  17.615  25.120   0.810
 8578W        W80904   6.559  20.670  12.008
 8579W        W80905  41.781   9.865  14.877
 8580W        W80906  40.813  10.188  13.960
 8581W        W80907   0.625  44.272   3.129
 8582W        W80908   9.904  28.464  13.974
 8583W        W80909  16.295  17.625  12.179
 8584W        W80910  11.419  32.092   4.615
 8585W        W80911  41.652  22.082   2.668
 8586W        W80912  20.969   8.143  11.809
 8587W        W80913   4.536  10.163  13.498
 8588W        W80914   3.740  32.508  11.616
 8589W        W80915  12.725   0.834   3.927
 8590W        W80916  44.085  17.847   9.958
 8591W        W80917   8.875  15.455  11.870
 8592W        W80918  25.016   9.412  13.193
 8593W        W80919  40.309  17.302   3.267
 8594W        W80920  22.753  43.265   3.983
 8595W        W80921  13.706  35.325   3.160
 8596W        W80922  44.497  35.144  12.828
 8597W        W80923  38.446   8.286  13.465
 8598W        W80924  30.434   7.085  13.941
 8599W        W80925   3.968  18.083  10.740
 8600W        W80926  38.987  32.981  13.654
 8601W        W80927  10.387   1.896   1.898
 8602W        W80928  36.490  20.520   0.365
 8603W        W80929   1.297  42.421  10.548
 8604W        W80930  39.678  17.471  11.835
 8605W        W80931  43.919  32.237  13.235
 8606W        W80932  26.918  27.026   1.318
 8607W        W80933  16.772  15.588  14.427
 8608W        W80934   6.396  14.563   0.395
 8609W        W80935   9.261  12.056   0.856
 8610W        W80936  38.966  28.772   1.298
 8611W        W80937  23.738   9.241   4.346
 8612W        W80938  30.967  31.980  10.583
 8613W        W80939  14.413   1.851  11.219
 8614W        W80940  21.904  43.962   2.544
 8615W        W80941  27.464  18.191  14.510
 8616W        W80942  34.588  23.905   3.188
 8617W        W80943   8.573  37.920   0.599
 8618W        W80944  13.208  14.774   0.924
 8619W        W80945   0.799  23.125   5.202
 8620W        W80946   6.239  18.838  13.900
 8621W        W80947  18.892  28.010  11.677
 8622W        W80948   0.831   9.751   1.909
 8623W        W80949   7.996  31.561  11.533
 8624W        W80950  41.841  40.017  13.976
 8625W        W80951  32.633  38.471  10.700
 8626W        W80952   9.671   6.417   0.336
 8627W        W80953  19.698  32.161  11.951
 8628W        W80954  37.802  42.270  11.504
 8629W        W80955  19.880  26.235  12.334
 8630W        W80956  34.502  11.758   0.441
 8631W        W80957  14.490  16.503   3.417
 8632W        W80958  35.771  14.155   1.328
 8633W        W80959  17.341  34.446   1.184
 8634W        W80960  35.908  42.826   3.682
 8635W        W80961  24.034  42.742   4.486
 8636W        W80962   4.480  21.618   1.080
 8637W        W80963  38.971   9.117   2.207
 8638W        W80964  10.673  14.539  13.038
 8639W        W80965  38.866  12.951  12.305
 8640W        W80966  33.379  20.327  12.934
 8641W        W80967  17.025   7.499  12.446
 8642W        W80968  14.180   8.765  10.743
 8643W        W80969   7.913   2.896   1.244
 8644W        W80970  25.470  17.756   4.568
 8645W        W80971   3.841  21.666  11.439
 8646W        W80972  20.534  19.546  12.623
 8647W        W80973  36.985  41.387  14.424
 8648W        W80974  12.129  19.814   3.712
 8649W        W80975   4.417  11.231   9.811
 8650W        W80976   6.330  22.738   0.169
 8651W        W80977  38.484   4.371  12.413
 8652W        W80978  25.551  18.854   1.289
 8653W        W80979  22.589  26.996  12.297
 8654W        W80980   5.558  35.355  11.446
 8655W        W80981   3.988  32.611   3.549
 8656W        W80982  35.094  12.128   3.019
 8657W        W80983  10.615  30.466   4.565
 8658W        W80984  27.884  28.048  10.280
 8659W        W80985   7.276  13.723   1.745
 8660W        W80986  31.021  17.874  10.602
 8661W        W80987  33.910  24.727   0.452
 8662W        W80988  15.578   3.745   2.147
 8663W        W80989   3.850  19.091  14.807
 8664W        W80990  13.677   8.886  13.455
 8665W        W80991  11.905  34.639   2.870
 8666W        W80992   1.787  23.320   5.563
 8667W        W80993  35.468  38.523  12.652
 8668W        W80994  10.327  17.020   3.739
 8669W        W80995  13.844  29.880   0.906
 8670W        W80996  40.047  44.603  12.868
 8671W        W80997  37.058  24.103  10.636
 8672W        W80998  21.735  26.282  11.567
 8673W        W80999  12.819   3.895   0.849
 8674W        W81000   8.908  10.169  11.533
 8675W        W81001   7.629  38.962   0.762
 8676W        W81002   9.893  34.084   3.215
 8677W        W81003  26.034  22.379   3.313
 8678W        W81004   1.658   7.456  14.079
 8679W        W81005  18.610  36.414  13.407
 8680W        W81006  22.607  18.773   0.243
 8681W        W81007  11.336  28.420   1.354
 8682W        W81008  10.600  14.662   0.881
 8683W        W81009  19.776   7.595  13.955
 8684W        W81010  32.570   8.819  11.105
 8685W        W81011  15.577   7.299   1.839
 8686W        W81012   0.713  15.207   3.264
 8687W        W81013  23.989  20.978   4.982
 8688W        W81014  14.662  12.165  10.723
 8689W        W81015  34.971  21.697   2.793
 8690W        W81016  16.361  20.656  13.730
 8691W        W81017  31.879  25.619   1.375
 8692W        W81018   5.201  43.753  11.084
 8693W        W81019  17.834  32.552  12.603
 8694W        W81020  37.439  27.386   0.530
 8695W        W81021  26.141  20.950  14.859
 8696W        W81022  19.863  41.010  14.395
 8697W        W81023  10.258  43.759   4.476
 8698W        W81024  25.633  18.840  12.380
 8699W        W81025   0.606  31.352  12.912
 8700W        W81026  41.933  35.914  13.962
 8701W        W81027   4.226  26.654  11.526
 8702W        W81028  41.907  33.581  14.387
 8703W        W81029  16.659   3.436  11.038
 8704W        W81030  10.806  29.041   2.946
 8705W        W81031  34.699  29.005   3.500
 8706W        W81032  15.857  37.681   4.177
 8707W        W81033  21.226  15.318   1.622
 8708W        W81034   6.435  32.271  11.689
 8709W        W81035  41.633  19.619   0.529
 8710W        W81036   5.984  34.961   1.853
 8711W        W81037  21.561  33.224  13.074
 8712W        W81038  31.702  43.982  14.424
 8713W        W81039  33.826  11.074   0.902
 8714W        W81040  21.119  36.364  13.088
 8715W        W81041  26.744  38.746   3.265
 8716W        W81042  30.504  22.777  12.129
 8717W        W81043  12.189  43.426  12.530
 8718W        W81044  37.659   1.658   0.345
 8719W        W81045  36.103  27.244  14.032
 8720W        W81046   1.896  34.944   1.002
 8721W        W81047   0.579  33.520  11.370
 8722W        W81048  44.390   3.725   4.914
 8723W        W81049  20.787  17.559   1.544
 8724W        W81050   6.679   3.506   4.297
 8725W        W81051  12.767  43.860   4.230
 8726W        W81052  17.615   0.779   1.295
 8727W        W81053  12.285   3.887   0.823
 8728W        W81054  24.029   7.925  14.440
 8729W        W81055   0.848  44.866   1.902
 8730W        W81056   1.439   2.487  13.998
 8731W        W81057   1.045  30.944  11.687
 8732W        W81058  35.326  26.606  13.112
 8733W        W81059  12.303  34.545  11.984
 8734W        W81060  19.546   6.741  14.276
 8735W        W81061   6.324  11.413  13.014
 8736W        W81062  15.352  27.006  13.044
 8737W        W81063  33.221  19.368   0.891
 8738W        W81064  12.965  40.250   3.727
 8739W        W81065  22.429  12.244   3.729
 8740W        W81066   8.913  19.036  10.836
 8741W        W81067  24.512  22.694   4.342
 8742W        W81068  27.522  12.535   3.851
 8743W        W81069  40.498  20.119   4.222
 8744W        W81070  40.143  34.216  14.433
 8745W        W81071  27.572  31.382  12.848
 8746W        W81072  38.062  28.426  11.181
 8747W        W81073  32.637   9.410  11.571
 8748W        W81074   0.946   2.933   1.837
 8749W        W81075  22.783  13.934   4.551
 8750W        W81076  36.843  13.521   5.160
 8751W        W81077  26.607  42.363   0.401
 8752W        W81078  19.176   2.183  14.436
 8753W        W81079  20.703  16.227   1.696
 8754W        W81080   4.864  28.660   0.980
 8755W        W81081  38.417  32.563   1.343
 8756W        W81082  19.788  20.512  12.047
 8757W        W81083  40.522  18.700   0.942
 8758W        W81084  18.063  41.498  12.167
 8759W        W81085   1.787  17.524  14.404
 8760W        W81086   5.913  10.937   4.097
 8761W        W81087  41.007  34.164   0.395
 8762W        W81088  22.678  21.944   1.564
 8763W        W81089  36.846   2.028  14.952
 8764W        W81090  37.464  14.341  11.137
 8765W        W81091  20.119  19.563   4.095
 8766W        W81092  38.343  25.543  13.522
 8767W        W81093  25.277  29.887  13.161
 8768W        W81094  37.071  21.758   2.858
 8769W        W81095   2.359  30.881  12.053
 8770W        W81096  31.415  37.041  14.031
 8771W        W81097  40.753   0.402  11.497
 8772W        W81098  15.225   4.013   3.057
 8773W        W81099  21.275  32.434  10.987
 8774W        W81100  11.610  39.795  10.329
 8775W        W81101  25.310   7.107  12.961
 8776W        W81102   0.603   3.778  14.159
 8777W        W81103  22.703  32.496   0.679
 8778W        W81104  12.508   3.330   2.045
 8779W        W81105  20.411   1.784   4.679
 8780W        W81106  10.164  12.158  11.107
 8781W        W81107  14.984  31.552   1.458
 8782W        W81108  30.893  18.386  10.660
 8783W        W81109   9.430  28.043   0.716
 8784W        W81110  31.832   8.933   3.233
 8785W        W81111  23.284   2.762  13.320
 8786W        W81112  44.765  15.649   9.900
 8787W        W81113   8.160  43.230   3.194
 8788W        W81114  30.860  18.894  10.813
 8789W        W81115  39.675   7.298   3.848
 8790W        W81116  40.688  15.128   2.618
 8791W        W81117  30.590   0.710  14.523
 8792W        W81118   4.425  38.634   2.478
 8793W        W81119  18.854  22.488   1.837
 8794W        W81120  26.399  41.403   2.703
 8795W        W81121  24.515  33.147  11.445
 8796W        W81122  31.386   9.655   3.187
 8797W        W81123  35.164  27.554  10.677
 8798W        W81124  19.072  23.137  13.446
 8799W        W81125  13.616  19.366  13.009
 8800W        W81126  35.368   8.968   3.312
 8801W        W81127  32.506  25.215   0.319
 8802W        W81128  43.696  31.415   0.765
 8803W        W81129  32.956  20.702   0.489
 8804W        W81130  31.996  44.038   3.195
 8805W        W81131  31.478  12.810   2.196
 8806W        W81132  13.575  44.562  10.760
 8807W        W81133  39.966  44.279  14.310
 8808W        W81134  10.291  28.466  13.400
 8809W        W81135  15.682  31.184   2.679
 8810W        W81136  44.805   1.894  11.957
 8811W        W81137  26.098   9.399   4.912
 8812W        W81138  34.757  34.404  14.060
 8813W        W81139  14.302  35.489  14.293
 8814W        W81140  11.825  20.440  10.860
 8815W        W81141  43.451   8.433   1.976
 8816W        W81142  24.565   9.284   2.743
 8817W        W81143   1.972  39.805   4.115
 8818W        W81144  27.501  33.116  11.827
 8819W        W81145  25.549   5.852   3.736
 8820W        W81146  43.386  40.725  14.270
 8821W        W81147   0.864   1.818  14.880
 8822W        W81148   6.966  30.879   4.575
 8823W        W81149  34.137   8.165  12.209
 8824W        W81150   7.833  19.098   2.368
 8825W        W81151  38.947  34.295   2.278
 8826W        W81152   4.456  12.673   2.489
 8827W        W81153   5.220  23.017  14.362
 8828W        W81154  24.114   5.310   2.122
 8829W        W81155  13.074  35.663   1.184
 8830W        W81156   0.382   4.931  12.499
 8831W        W81157  39.597  20.556   4.127
 8832W        W81158  36.470  28.142  11.879
 8833W        W81159  44.957  15.326   0.240
 8834W        W81160  39.350  28.768  10.421
 8835W        W81161  44.476  21.090  13.318
 8836W        W81162  18.694  41.754  11.158
 8837W        W81163  43.572  35.611  11.953
 8838W        W81164  37.604  24.181   4.892
 8839W        W81165  10.004  44.770   1.975
 8840W        W81166  11.531   7.299  13.391
 8841W        W81167  35.201   7.796  10.446
 8842W        W81168  43.898  38.387  13.024
 8843W        W81169   9.701   2.522   3.923
 8844W        W81170   6.741  12.120  10.716
 8845W        W81171  37.419  27.968  10.672
 8846W        W81172  14.247  26.928  14.976
 8847W        W81173  17.664   1.135   0.035
 8848W        W81174  41.620  26.311   1.686
 8849W        W81175  31.302  10.783   1.009
 8850W        W81176  35.821  36.564   4.495
 8851W        W81177   2.877  16.200  10.718
 8852W        W81178  15.518  30.956  13.620
 8853W        W81179  14.338  26.750   9.398
 8854W        W81180  23.096  13.115  13.753
 8855W        W81181  21.210  35.098   4.550
 8856W        W81182  37.696  29.355  10.961
 8857W        W81183  12.388  30.075   2.262
 8858W        W81184   3.007  26.933  12.010
 8859W        W81185  40.487  43.045  10.071
 8860W        W81186   7.918  13.045  10.744
 8861W        W81187  22.093  26.895  13.796
 8862W        W81188   8.179  22.558   1.409
 8863W        W81189  37.900   1.920  13.805
 8864W        W81190  23.095  18.528   1.001
 8865W        W81191  37.872  43.457  12.088
 8866W        W81192  27.060  41.446   4.336
 8867W        W81193  12.587   1.544   1.924
 8868W        W81194  41.543  33.425   2.828
 8869W        W81195  33.637   5.991  14.043
 8870W        W81196  44.220   0.967  14.465
 8871W        W81197  28.051  42.342   4.492
 8872W        W81198  15.743  22.973   4.760
 8873W        W81199  43.983  44.755   2.706
 8874W        W81200   6.236   9.035   2.258
 8875W        W81201  31.669  11.571  13.298
 8876W        W81202  14.358  22.900  14.384
 8877W        W81203  32.938  42.267  13.931
 8878W        W81204  21.457  38.402  14.436
 8879W        W81205  30.737  34.041   4.920
 8880W        W81206  39.791   8.116  13.143
 8881W        W81207  43.990  37.868  11.794
 8882W        W81208  40.757  18.744   1.896
 8883W        W81209  18.397  44.226   1.630
 8884W        W81210  28.644  10.596  13.945
 8885W        W81211  26.479  40.434   4.642
 8886W        W81212  12.129  24.708   2.230
 8887W        W81213  42.864  36.974   3.614
 8888W        W81214   3.137  28.230   5.111
 8889W        W81215  20.559   6.913  13.345
 8890W        W81216  23.530  29.543   0.709
 8891W        W81217  20.657  21.676  14.737
 8892W        W81218  23.335  41.526  13.777
 8893W        W81219  15.410  42.788   3.297
 8894W        W81220  42.104  29.649  10.649
 8895W        W81221   1.946   1.313  11.065
 8896W        W81222  27.697   4.846   2.700
 8897W        W81223  10.658  20.041  10.742
 8898W        W81224   9.761  30.603  11.547
 8899W        W81225  16.390  37.463   1.665
 8900W        W81226  30.013  20.051  12.922
 8901W        W81227  12.648  13.135  11.263
 8902W        W81228  29.165  23.330  14.260
 8903W        W81229  42.578  42.279   2.322
 8904W        W81230  12.601  36.710  12.348
 8905W        W81231  22.224   9.245  11.629
 8906W        W81232   3.451  28.376  12.163
 8907W        W81233  24.578  26.089   3.742
 8908W        W81234  15.586  41.063  12.794
 8909W        W81235  26.520  22.211   3.370
 8910W        W81236  23.521  32.717   2.301
 8911W        W81237   7.618  12.894   4.591
 8912W        W81238  29.468  12.144  13.442
 8913W        W81239  28.266  16.462   3.260
 8914W        W81240   8.063   4.336   3.598
 8915W        W81241  11.037  41.162   3.140
 8916W        W81242   6.908  23.116   4.594
 8917W        W81243   6.720  36.459   0.336
 8918W        W81244  27.454  18.209   2.825
 8919W        W81245  20.223  14.563   4.212
 8920W        W81246  30.416  17.162  13.094
 8921W        W81247   3.269  39.774  13.373
 8922W        W81248   9.843   0.435  11.162
 8923W        W81249  35.400  10.519   1.383
 8924W        W81250  30.685   7.618   3.873
 8925W        W81251  31.238   4.800   2.408
 8926W        W81252  38.420  22.445   4.567
 8927W        W81253   4.289  19.179  13.837
 8928W        W81254   7.338  24.128  10.667
 8929W        W81255   7.236  28.010   1.271
 8930W        W81256  39.082   3.837  13.795
 8931W        W81257   2.234  24.335  11.210
 8932W        W81258  11.452   3.791   4.126
 8933W        W81259   4.965  37.034   3.660
 8934W        W81260  31.456  26.137   0.508
 8935W        W81261   2.231  34.995   1.398
 8936W        W81262  38.109   2.775   3.346
 8937W        W81263  36.013  25.600  14.336
 8938W        W81264  27.104  28.295   9.845
 8939W        W81265  17.328  24.953   0.300
 8940W        W81266  34.175  22.349   4.192
 8941W        W81267  17.482   3.873   1.869
 8942W        W81268  23.951  15.556   5.033
 8943W        W81269   4.958  41.319   1.241
 8944W        W81270   3.271   0.894   1.974
 8945W        W81271  42.965  32.212   3.067
 8946W        W81272  44.244  38.847   4.154
 8947W        W81273  16.066  28.692   2.366
 8948W        W81274   8.435  44.547  12.643
 8949W        W81275   2.384  37.784  14.255
 8950W        W81276  26.522  30.494   2.322
 8951W        W81277  36.586   4.575   1.919
 8952W        W81278  38.054  30.970   4.189
 8953W        W81279  13.790  12.272   2.402
 8954W        W81280  25.959   6.748   4.196
 8955W        W81281   1.776  43.277  13.423
 8956W        W81282  13.551  26.132  14.906
 8957W        W81283  10.682  33.042  14.918
 8958W        W81284  34.464  25.541   2.006
 8959W        W81285  35.608  12.895   4.120
 8960W        W81286  15.042  34.354  11.487
 8961W        W81287  31.628  22.471   4.007
 8962W        W81288  44.060  11.206  11.850
 8963W        W81289  38.052  34.942   2.224
 8964W        W81290  32.504  28.727  12.938
 8965W        W81291  43.677   3.697  11.861
 8966W        W81292  34.961  15.117  13.105
 8967W        W81293  24.577  36.802   2.363
 8968W        W81294  39.098  12.686   2.346
 8969W        W81295  13.654  21.125   3.299
 8970W        W81296  12.661  28.759  13.332
 8971W        W81297  15.512   6.755  10.524
 8972W        W81298  24.560  31.342  11.127
 8973W        W81299  44.882   9.268   4.377
 8974W        W81300   5.091  33.609  12.440
 8975W        W81301  41.040   1.909   0.807
 8976W        W81302  35.996  23.731   2.263
 8977W        W81303  43.864  39.977  10.519
 8978W        W81304   3.814   9.272  14.029
 8979W        W81305  27.910  25.508  12.970
 8980W        W81306   7.238   1.236   0.755
 8981W        W81307  24.557  12.912   1.798
 8982W        W81308  36.446   0.794  11.136
 8983W        W81309  24.811  18.164   2.140
 8984W        W81310  20.811  42.340  12.473
 8985W        W81311  11.668  40.918   4.695
 8986W        W81312  37.788  42.991   0.273
 8987W        W81313  27.958  23.913   1.444
 8988W        W81314  16.727  33.314   3.377
 8989W        W81315  10.216  18.538  10.831
 8990W        W81316   8.803  12.376  12.182
 8991W        W81317   5.850   5.753   0.511
 8992W        W81318  22.617  43.759   1.797
 8993W        W81319  39.624   2.811   0.787
 8994W        W81320  24.738  27.482  14.030
 8995W        W81321  35.444  28.609   4.674
 8996W        W81322  13.760  25.153   2.773
 8997W        W81323  37.546  27.524  10.920
 8998W        W81324  14.175  19.365  13.744
 8999W        W81325  36.076  22.753   0.223
 9000W        W81326  13.139   9.628  12.425
 9001W        W81327  15.245  26.079   2.645
 9002W        W81328  26.988   3.174   2.095
 9003W        W81329  41.119  31.646  14.327
 9004W        W81330  34.036  29.185  13.740
 9005W        W81331  25.732  33.039  11.335
 9006W        W81332  19.234  15.055   0.006
 9007W        W81333   9.401  10.774  10.970
 9008W        W81334   5.936  25.461  13.017
 9009W        W81335  33.009  23.630  11.587
 9010W        W81336   3.694  28.459   3.867
 9011W        W81337   2.381  14.917   2.695
 9012W        W81338   7.783  13.686   3.381
 9013W        W81339  18.520  22.608  14.935
 9014W        W81340  21.777  25.903  13.338
 9015W        W81341  35.295  44.672  14.866
 9016W        W81342  37.848   4.767  12.930
 9017W        W81343  37.378  28.006  14.989
 9018W        W81344  32.636   1.689   4.807
 9019W        W81345  31.602   3.356   2.043
 9020W        W81346  35.931  23.946   5.043
 9021W        W81347  21.217  38.866  14.286
 9022W        W81348   4.102  22.495  10.637
 9023W        W81349  29.929  26.147  12.845
 9024W        W81350   8.639  19.341   2.638
 9025W        W81351  19.619  18.036   3.262
 9026W        W81352  42.295  39.434   3.786
 9027W        W81353   0.786  36.423   4.529
 9028W        W81354  32.375  31.615   4.619
 9029W        W81355  18.707   4.248   1.564
 9030W        W81356  36.481  19.951   2.807
 9031W        W81357  18.687  44.767   0.235
 9032W        W81358  26.467  33.912   0.239
 9033W        W81359  38.432  31.508   1.328
 9034W        W81360  20.950  43.039  13.444
 9035W        W81361   1.349   5.443  11.942
 9036W        W81362  14.233   2.455   3.676
 9037W        W81363  22.611   9.989  14.950
 9038W        W81364  24.650   5.408   3.429
 9039W        W81365  22.295  24.130  12.957
 9040W        W81366  26.567  27.029  10.031
 9041W        W81367   8.383  25.240  10.924
 9042W        W81368  28.651  23.191  14.282
 9043W        W81369  31.400  22.057   4.237
 9044W        W81370   3.449  21.742  14.926
 9045W        W81371   5.821  16.092  12.783
 9046W        W81372  26.613  40.581   1.055
 9047W        W81373  20.590  42.920   3.125
 9048W        W81374  37.932  16.852   4.239
 9049W        W81375   0.473  31.871   2.643
 9050W        W81376  27.164  43.641  12.381
 9051W        W81377  29.399   2.204   4.584
 9052W        W81378   1.134   1.741   1.309
 9053W        W81379   6.868  19.172  14.677
 9054W        W81380  13.599  11.377   3.749
 9055W        W81381   7.544  29.573   1.218
 9056W        W81382  34.093  41.965  12.526
 9057W        W81383   5.412  41.554  10.939
 9058W        W81384  22.510  38.873   4.032
 9059W        W81385  20.214  26.066  14.942
 9060W        W81386  24.824  29.102  11.949
 9061W        W81387   7.234  24.735   0.426
 9062W        W81388  40.039  44.632   0.276
 9063W        W81389   0.394  41.409   0.365
 9064W        W81390   4.214   5.500  12.573
 9065W        W81391  12.777  17.322   1.825
 9066W        W81392  38.872  40.019  14.353
 9067W        W81393  20.658   3.499   1.411
 9068W        W81394  40.383   5.143  10.726
 9069W        W81395   0.405  31.419   0.621
 9070W        W81396  39.827   8.185   0.916
 9071W        W81397  23.314  20.455   0.258
 9072W        W81398  22.585  35.667  11.623
 9073W        W81399  37.041  12.257  11.364
 9074W        W81400  42.112  23.059   0.448
 9075W        W81401  32.575  39.935  13.918
 9076W        W81402  43.729  43.724   3.333
 9077W        W81403  30.968  36.666  13.132
 9078W        W81404  31.949  18.327  13.377
 9079W        W81405  37.536  10.820  14.270
 9080W        W81406  15.210  21.575   4.154
 9081W        W81407  35.789  33.015  14.271
 9082W        W81408   1.776  43.981  12.152
 9083W        W81409  13.510  30.197  10.470
 9084W        W81410  15.179   1.946  10.732
 9085W        W81411  13.260  43.562   0.336
 9086W        W81412  25.998  11.221   2.787
 9087W        W81413  22.362  15.218  12.089
 9088W        W81414   5.075  10.327   4.975
 9089W        W81415  32.136   0.929  10.638
 9090W        W81416  26.458  34.027   3.670
 9091W        W81417  20.837  32.636   0.495
 9092W        W81418  13.778   4.207   0.716
 9093W        W81419   1.928  34.330   4.574
 9094W        W81420  21.444  15.224   0.560
 9095W        W81421  11.750  13.204   3.644
 9096W        W81422  37.765  37.992   2.391
 9097W        W81423  29.464   0.203   1.163
 9098W        W81424  15.065   1.724  14.345
 9099W        W81425  19.649  16.982  13.573
 9100W        W81426  22.906  15.992   2.319
 9101W        W81427  26.397   5.878  12.084
 9102W        W81428   3.381  17.374   3.643
 9103W        W81429  26.963   4.862  14.356
 9104W        W81430  15.264  32.331  11.481
 9105W        W81431  31.099   2.903   4.903
 9106W        W81432   8.882  29.365  12.376
 9107W        W81433   4.591  13.636   0.876
 9108W        W81434  31.162  15.521   0.401
 9109W        W81435  31.021  44.862   4.204
 9110W        W81436  34.493  28.415   0.237
 9111W        W81437   4.789  11.292   4.134
 9112W        W81438  36.846  21.981   3.268
 9113W        W81439  20.246  30.053  12.571
 9114W        W81440   3.117   9.176  14.259
 9115W        W81441   6.649   1.968  14.183
 9116W        W81442  27.429   5.606  12.826
 9117W        W81443  34.029  33.618   5.505
 9118W        W81444  18.160  33.298  13.860
 9119W        W81445  31.941  23.279  12.085
 9120W        W81446  23.026   3.708  13.396
 9121W        W81447   1.740   1.879   4.341
 9122W        W81448  25.970  34.442   4.116
 9123W        W81449  42.813  44.376  10.549
 9124W        W81450  15.297  29.671   1.763
 9125W        W81451  20.072  37.375  14.272
 9126W        W81452  22.877  31.361  12.057
 9127W        W81453  36.547  16.044   0.337
 9128W        W81454  44.626  28.928   1.433
 9129W        W81455  25.912  11.190   4.437
 9130W        W81456  20.035  43.506  14.905
 9131W        W81457   6.335   7.962  12.444
 9132W        W81458   2.249   1.518  14.460
 9133W        W81459  19.733   7.065   4.261
 9134W        W81460  31.034  17.537   1.916
 9135W        W81461  35.977  12.618  14.794
 9136W        W81462  15.216  24.198   3.620
 9137W        W81463   0.341  17.872   0.879
 9138W        W81464  22.162   3.982   2.763
 9139W        W81465  44.990  18.674   4.949
 9140W        W81466  17.982  35.026  13.003
 9141W        W81467   3.929  27.067  12.443
 9142W        W81468  24.557  17.475  14.397
 9143W        W81469  19.577  19.681  14.010
 9144W        W81470   4.354  29.583   3.502
 9145W        W81471   7.920  24.969  12.662
 9146W        W81472  42.902  21.201  11.953
 9147W        W81473  24.140  13.315   0.384
 9148W        W81474  40.619  43.241   4.665
 9149W        W81475  30.191  12.675   1.903
 9150W        W81476  35.957  38.074   4.640
 9151W        W81477  35.091  35.940   2.342
 9152W        W81478  36.620   3.199  13.880
 9153W        W81479  11.916  29.611  12.617
 9154W        W81480   7.763  43.615   3.960
 9155W        W81481  36.159  13.841  11.081
 9156W        W81482  35.138   8.258  11.697
 9157W        W81483  37.842   5.892  11.690
 9158W        W81484  22.581  20.692   0.816
 9159W        W81485  43.050   0.686  11.463
 9160W        W81486  15.584   6.694   2.687
 9161W        W81487  32.560  30.122  13.357
 9162W        W81488   2.985  23.805   1.333
 9163W        W81489  31.117  18.652  12.081
 9164W        W81490  44.111  19.312   4.997
 9165W        W81491  16.293   5.151   1.392
 9166W        W81492  32.386   9.027  12.477
 9167W        W81493  17.701  37.912   3.347
 9168W        W81494  19.999   7.837  14.766
 9169W        W81495  42.860  11.404   3.971
 9170W        W81496   4.925   8.046   3.688
 9171W        W81497  36.442  23.195  14.411
 9172W        W81498   8.836  30.480  14.766
 9173W        W81499  38.786  25.005   5.137
 9174W        W81500  36.335  28.983  13.478
 9175W        W81501  30.383  23.261  14.342
 9176W        W81502  28.909  23.056  12.939
 9177W        W81503  17.684  17.730   1.226
 9178W        W81504  13.531  20.136   4.230
 9179W        W81505   5.721  42.932  12.060
 9180W        W81506  20.719  22.791   1.357
 9181W        W81507   5.300   4.652  11.005
 9182W        W81508  27.056  24.249  11.988
 9183W        W81509  10.037  11.588  10.388
 9184W        W81510  29.734  27.182  11.525
 9185W        W81511  39.344   2.808  11.986
 9186W        W81512  36.577   6.194  11.457
 9187W        W81513   1.800  44.784   1.234
 9188W        W81514  23.389   7.050   4.192
 9189W        W81515  29.574  13.415   2.272
 9190W        W81516  30.014  25.970   1.530
 9191W        W81517  38.077  25.658  11.477
 9192W        W81518  11.972  19.300   4.869
 9193W        W81519  19.667  41.876  11.573
 9194W        W81520  31.912  30.547   4.778
 9195W        W81521  43.116  27.984  12.699
 9196W        W81522   2.475  44.515   2.385
 9197W        W81523  14.659  44.987   4.207
 9198W        W81524  39.558  40.777   3.797
 9199W        W81525  19.772  17.489  11.813
 9200W        W81526  42.957  18.653  12.973
 9201W        W81527   2.400  23.230  13.737
 9202W        W81528  42.470   0.750  10.683
 9203W        W81529  20.838  39.131   4.739
 9204W        W81530  32.034   1.844   4.590
 9205W        W81531   9.189  33.913   0.568
 9206W        W81532  41.792  10.269   1.410
 9207W        W81533  34.796  28.072   4.325
 9208W        W81534   2.307  20.508  12.951
 9209W        W81535   2.601   1.730  12.473
 9210W        W81536  33.394  25.759  13.442
 9211W        W81537  40.241  17.114  13.822
 9212W        W81538  38.323  21.086  14.418
 9213W        W81539  11.004  34.591  10.217
 9214W        W81540  24.212  26.681   2.499
 9215W        W81541   6.341  26.034  13.838
 9216W        W81542  43.449  31.223   0.257
 9217W        W81543  14.880  20.320  14.506
 9218W        W81544  37.768  27.339  14.898
 9219W        W81545  16.102  27.616   3.270
 9220W        W81546  21.799  38.620  11.069
 9221W        W81547  32.502  21.206  14.299
 9222W        W81548  25.057   9.391   2.934
 9223W        W81549  25.937  38.351  12.913
 9224W        W81550  29.456   8.783  14.435
 9225W        W81551  40.268  17.636   4.166
 9226W        W81552  21.482  43.805  11.580
 9227W        W81553  16.720  31.863  12.431
 9228W        W81554  11.718  28.656  10.999
 9229W        W81555   8.881   6.314   3.147
 9230W        W81556   3.376  10.914   1.808
 9231W        W81557  27.735  19.526   1.453
 9232W        W81558  31.039  19.814   4.420
 9233W        W81559  23.962  34.031  14.247
 9234W        W81560  26.669  33.741  11.626
 9235W        W81561   5.429  20.741   4.720
 9236W        W81562  22.243   3.837   2.263
 9237W        W81563  26.912   7.204  11.516
 9238W        W81564  33.246  17.496  14.284
 9239W        W81565   7.873  27.541  12.544
 9240W        W81566   2.699  38.956  11.038
 9241W        W81567  21.111  13.712  12.547
 9242W        W81568   4.201  32.971   0.224
 9243W        W81569   2.483  22.062  14.000
 9244W        W81570  15.835  38.536  10.227
 9245W        W81571  26.096  29.414   2.855
 9246W        W81572  19.513  15.630   2.825
 9247W        W81573  36.134  18.815   3.680
 9248W        W81574  36.512  29.588  14.122
 9249W        W81575  27.096   3.073  13.949
 9250W        W81576  14.282  30.387   3.739
 9251W        W81577  36.428  16.763  11.214
 9252W        W81578  34.179  31.435   0.562
 9253W        W81579   5.557  23.171   1.772
 9254W        W81580  35.841  19.963  11.691
 9255W        W81581   8.899  27.499   3.420
 9256W        W81582   8.252  32.166   1.770
 9257W        W81583  38.911  28.703  14.374
 9258W        W81584  34.503  12.647   3.297
 9259W        W81585   4.607  17.002  14.354
 9260W        W81586  15.386  17.197   4.524
 9261W        W81587  20.034  27.591  12.068
 9262W        W81588  21.337  44.306   2.415
 9263W        W81589  12.403  35.190   0.003
 9264W        W81590   5.643  35.578  11.913
 9265W        W81591  35.921  40.319  11.192
 9266W        W81592  24.549  13.594  14.109
 9267W        W81593   5.447  32.384   4.295
 9268W        W81594   5.370  22.430   1.366
 9269W        W81595  15.698   0.049   0.969
 9270W        W81596  39.409  15.655  10.758
 9271W        W81597   6.462  25.274   0.259
 9272W        W81598  26.121   6.861   2.683
 9273W        W81599  40.808  15.127   0.784
 9274W        W81600   8.441  32.387  11.866
 9275W        W81601  31.906  27.703  12.428
 9276W        W81602   1.749   5.423   3.976
 9277W        W81603  25.084  30.873  10.689
 9278W        W81604   7.653  32.469   3.155
 9279W        W81605  18.625  43.620  12.423
 9280W        W81606  16.368  39.398  11.630
 9281W        W81607   1.951  22.943  14.524
 9282W        W81608  43.501  40.777  13.352
 9283W        W81609  10.297   0.716  11.062
 9284W        W81610  19.745  43.602  14.391
 9285W        W81611  41.059   8.179   0.492
 9286W        W81612  41.083  37.453  11.909
 9287W        W81613  12.504   4.732   9.962
 9288W        W81614  14.693  31.962  10.926
 9289W        W81615  27.982  10.352  10.721
 9290W        W81616   3.476   2.691   4.826
 9291W        W81617   7.343  32.162  10.713
 9292W        W81618  16.038  26.182  10.608
 9293W        W81619  25.643  41.989   3.052
 9294W        W81620  28.649   5.844  11.625
 9295W        W81621  41.826  21.387  11.007
 9296W        W81622  14.291   2.791   0.719
 9297W        W81623  21.495  33.363   0.924
 9298W        W81624  22.993  11.279   2.854
 9299W        W81625  24.600  12.948  12.279
 9300W        W81626  27.081   5.207   4.459
 9301W        W81627  20.588  10.816  12.131
 9302W        W81628  26.159  30.146  14.870
 9303W        W81629  28.289   3.019   2.314
 9304W        W81630  29.916   2.708  12.076
 9305W        W81631  35.351  35.376  13.941
 9306W        W81632  40.382  22.502   3.774
 9307W        W81633  33.560   7.494   1.735
 9308W        W81634  18.144  26.071  10.978
 9309W        W81635  34.518  26.861   2.388
 9310W        W81636  16.640  39.137   4.054
 9311W        W81637  39.782  22.083   3.016
 9312W        W81638   2.425  16.567   3.730
 9313W        W81639  24.925  19.277   0.950
 9314W        W81640  41.956   9.226   0.339
 9315W        W81641  22.010  14.973   3.873
 9316W        W81642  42.487  18.117   4.211
 9317W        W81643  19.042  31.760  12.903
 9318W        W81644  21.118  36.988   5.327
 9319W        W81645  34.512   8.643  14.430
 9320W        W81646  13.863   5.398  11.135
 9321W        W81647  15.505   4.507  12.140
 9322W        W81648  10.100   7.489  12.438
 9323W        W81649  40.128   2.292  11.131
 9324W        W81650  39.510  44.133   4.667
 9325W        W81651  33.605  28.960  14.983
 9326W        W81652  18.258  25.588  11.107
 9327W        W81653  32.939   3.221   3.670
 9328W        W81654  33.251  32.104  14.768
 9329W        W81655  29.011   4.476   3.751
 9330W        W81656  16.549  12.247   3.746
 9331W        W81657  18.614  40.529   1.694
 9332W        W81658  30.534   6.309   4.907
 9333W        W81659  40.473  17.224  14.280
 9334W        W81660  14.347   0.476  13.527
 9335W        W81661  32.638  31.361  11.183
 9336W        W81662  26.032  10.441  13.000
 9337W        W81663  44.245  14.738  11.938
 9338W        W81664  25.219  13.688   2.838
 9339W        W81665   5.803   8.209   0.391
 9340W        W81666   9.843  26.625  12.351
 9341W        W81667  19.755  30.962  13.542
 9342W        W81668   3.881   1.401  12.792
 9343W        W81669  41.319  41.582  12.571
 9344W        W81670  23.295  19.095   0.343
 9345W        W81671   0.268  22.534  10.617
 9346W        W81672   3.259   3.591  14.438
 9347W        W81673  23.268  34.007  13.234
 9348W        W81674  16.182  28.703   1.210
 9349W        W81675  35.963  20.939  11.771
 9350W        W81676  19.971  27.191   3.263
 9351W        W81677  41.521  38.847   0.916
 9352W        W81678   5.441  33.120   2.984
 9353W        W81679  41.555  24.694   2.568
 9354W        W81680  28.445  25.002  12.862
 9355W        W81681  34.843   1.319   4.403
 9356W        W81682  13.516  40.313   1.320
 9357W        W81683  25.238   8.029   4.932
 9358W        W81684  40.965  33.071  12.977
 9359W        W81685  28.953   2.258   3.571
 9360W        W81686  40.741  22.605  12.364
 9361W        W81687  26.773   8.516   4.225
 9362W        W81688  19.152  34.138   0.794
 9363W        W81689  28.264  28.429  10.242
 9364W        W81690  18.992  26.144  10.769
 9365W        W81691   7.829  31.433  13.698
 9366W        W81692  38.589  31.562  12.481
 9367W        W81693  40.973  29.294  12.998
 9368W        W81694  38.213  31.146   4.646
 9369W        W81695   7.672   8.299  10.419
 9370W        W81696  43.979   1.458  14.469
 9371W        W81697   0.049  42.836   3.297
 9372W        W81698  38.136   7.836   0.380
 9373W        W81699  43.992   9.645  11.112
 9374W        W81700  10.595  44.301  13.172
 9375W        W81701  29.949  32.788   3.555
 9376W        W81702   0.715  32.194   0.565
 9377W        W81703  28.613  14.180  12.092
 9378W        W81704   7.484  25.056  14.299
 9379W        W81705   4.836  37.157   2.235
 9380W        W81706  19.759  14.198   3.708
 9381W        W81707   0.096   2.002   2.832
 9382W        W81708  36.492  31.571   0.894
 9383W        W81709  11.945  27.758  11.095
 9384W        W81710  36.894  26.510  12.075
 9385W        W81711  23.916  41.374  11.615
 9386W        W81712  21.092  27.569  12.390
 9387W        W81713  23.043   0.450   4.144
 9388W        W81714  17.677   2.517  14.565
 9389W        W81715  32.387  22.781  13.827
 9390W        W81716  25.137  15.250  14.770
 9391W        W81717  22.445  12.350   2.709
 9392W        W81718   4.012   5.810  11.904
 9393W        W81719  16.739  23.430  14.459
 9394W        W81720  33.057  10.574  11.899
 9395W        W81721   0.534  13.234   2.792
 9396W        W81722  38.801  20.371  11.337
 9397W        W81723   5.828  34.042   4.440
 9398W        W81724  33.540   5.894   2.733
 9399W        W81725  32.674  29.709  14.831
 9400W        W81726  30.816  22.510   2.676
 9401W        W81727  16.562  30.047   0.940
 9402W        W81728  16.687  40.351   4.682
 9403W        W81729  43.802   8.484  10.911
 9404W        W81730  23.108   1.357   0.297
 9405W        W81731  18.212   3.917  14.526
 9406W        W81732  23.070  13.690  13.010
 9407W        W81733   9.082   2.527   4.104
 9408W        W81734  30.452  20.004  14.354
 9409W        W81735  44.287  37.381   4.692
 9410W        W81736  40.866  13.835   0.334
 9411W        W81737  35.531  20.785   0.010
 9412W        W81738   2.282  28.653   1.579
 9413W        W81739  39.893  31.491  13.747
 9414W        W81740  37.326  34.955  14.895
 9415W        W81741  15.584  36.935  11.107
 9416W        W81742  35.004  19.240   3.857
 9417W        W81743  19.909  22.947  13.890
 9418W        W81744  24.809  35.092   0.834
 9419W        W81745  28.376   5.713   0.718
 9420W        W81746  20.759  33.679   1.341
 9421W        W81747  14.751  19.425   0.825
 9422W        W81748  30.561  34.269  12.388
 9423W        W81749  30.942  36.312   2.906
 9424W        W81750  43.916  35.693   3.801
 9425W        W81751  37.917  20.457   4.572
 9426W        W81752  32.611  20.065  12.160
 9427W        W81753  10.246  32.580   2.268
 9428W        W81754  26.652  18.233   5.157
 9429W        W81755  34.451  32.490   3.722
 9430W        W81756  25.664  42.569  12.564
 9431W        W81757  17.764   6.242   4.542
 9432W        W81758  16.501  38.308  14.852
 9433W        W81759  25.981   9.754  14.118
 9434W        W81760   2.065   3.904   2.457
 9435W        W81761  27.955  15.408   1.176
 9436W        W81762  13.698   8.929  12.916
 9437W        W81763  42.162  29.171   0.949
 9438W        W81764  22.361  16.733  10.225
 9439W        W81765  10.277   6.415   4.712
 9440W        W81766  28.036  30.195  14.395
 9441W        W81767  33.065  11.114   0.241
 9442W        W81768  12.855  22.472   3.554
 9443W        W81769   5.033  26.422   3.542
 9444W        W81770  42.534   3.283   1.303
 9445W        W81771  33.410  30.336   1.238
 9446W        W81772  20.406  33.154  11.935
 9447W        W81773  39.910  16.780   0.410
 9448W        W81774  33.479  18.667   3.803
 9449W        W81775  22.226   1.484  14.938
 9450W        W81776  21.042  34.653  14.350
 9451W        W81777  33.350  28.174  13.398
 9452W        W81778  10.527   5.765   2.389
 9453W        W81779  15.137  33.480  10.521
 9454W        W81780  38.933  29.157   0.869
 9455W        W81781  18.658   2.869   2.944
 9456W        W81782  39.283  10.035   0.337
 9457W        W81783  41.133  25.005   4.295
 9458W        W81784   3.995   8.811   2.508
 9459W        W81785  44.897  17.824  12.944
 9460W        W81786   5.824  36.913   0.770
 9461W        W81787   2.164  14.666   1.423
 9462W        W81788   2.757  30.515  14.634
 9463W        W81789   6.909  32.157  14.575
 9464W        W81790  37.425   6.341   3.359
 9465W        W81791  13.113  26.692  14.475
 9466W        W81792   7.147  10.244   3.337
 9467W        W81793  43.942  33.836   3.344
 9468W        W81794  13.430  40.451   4.149
 9469W        W81795  42.444  35.046   4.136
 9470W        W81796   0.820  42.120  13.414
 9471W        W81797  35.302  12.732   3.735
 9472W        W81798  19.844  28.167  13.506
 9473W        W81799  31.111  25.613   0.210
 9474W        W81800   8.938  33.436   3.028
 9475W        W81801  16.697  17.752   3.300
 9476W        W81802  44.058  35.437  11.105
 9477W        W81803  15.615   9.786   3.382
 9478W        W81804  24.444  26.172   1.221
 9479W        W81805  33.437  41.296   4.086
 9480W        W81806  32.188   8.270  14.488
 9481W        W81807  40.291   6.547  12.268
 9482W        W81808  11.248  19.303  10.893
 9483W        W81809  31.475  34.692  11.896
 9484W        W81810   1.505  20.728   0.361
 9485W        W81811  20.171  43.286  13.322
 9486W        W81812  25.715  10.424   3.765
 9487W        W81813   2.999  12.632  10.281
 9488W        W81814  29.326  35.540   0.082
 9489W        W81815  28.916   5.755   0.547
 9490W        W81816  24.102  14.603  12.068
 9491W        W81817  15.701  34.139  14.500
 9492W        W81818   3.241  18.666  14.419
 9493W        W81819  28.902  32.438  13.523
 9494W        W81820  37.076   9.575   5.470
 9495W        W81821  38.007  11.126   4.111
 9496W        W81822  11.271  12.345   2.023
 9497W        W81823  24.667  16.209  14.524
 9498W        W81824  41.541  31.545   0.485
 9499W        W81825  24.685  42.765   3.411
 9500W        W81826  14.711  31.120   4.145
 9501W        W81827  15.253   8.300  13.391
 9502W        W81828  35.902  36.204   9.911
 9503W        W81829  15.722   2.183   4.589
 9504W        W81830  33.512   6.327   3.698
 9505W        W81831  25.221  39.834   3.228
 9506W        W81832  31.693   3.425  14.543
 9507W        W81833   1.914  23.190  10.552
 9508W        W81834  31.126  40.814   1.844
 9509W        W81835  31.468  17.113   4.258
 9510W        W81836  12.749  24.021   2.672
 9511W        W81837  16.884   3.675  14.301
 9512W        W81838  35.010   7.201   0.025
 9513W        W81839  38.866  31.212   1.351
 9514W        W81840  18.200  40.250   4.865
 9515W        W81841  14.792  27.501  11.082
 9516W        W81842   1.988  24.802   2.761
 9517W        W81843   4.959  15.451  12.779
 9518W        W81844   9.866  33.462   3.861
 9519W        W81845  13.173   7.842   2.762
 9520W        W81846  22.717  37.884  14.581
 9521W        W81847  31.428   4.383  12.899
 9522W        W81848  15.186  30.977   4.888
 9523W        W81849  41.803   7.899  14.923
 9524W        W81850   0.361  23.976   2.182
 9525W        W81851   1.254   3.277   0.327
 9526W        W81852  18.555  15.768   2.892
 9527W        W81853  21.922  40.462  13.271
 9528W        W81854  38.999  26.127   1.167
 9529W        W81855  26.206   4.791   1.722
 9530W        W81856   6.867  22.264  14.377
 9531W        W81857   8.642   0.310   2.874
 9532W        W81858  30.376  16.591   2.168
 9533W        W81859   9.255  11.680   3.272
 9534W        W81860   4.779   6.884  12.127
 9535W        W81861  15.114  15.676   0.419
 9536W        W81862  12.936  44.906   0.717
 9537W        W81863   3.259  44.239  12.417
 9538W        W81864  21.212  29.038   2.643
 9539W        W81865  22.658  27.531   3.182
 9540W        W81866  10.357  24.001  10.600
 9541W        W81867  29.762  29.443   2.753
 9542W        W81868   5.752  22.016   3.391
 9543W        W81869  20.007   3.244  11.722
 9544W        W81870  40.296  36.841  11.037
 9545W        W81871   5.741  32.986   0.215
 9546W        W81872  26.451  36.511  14.985
 9547W        W81873   6.730  12.455  14.887
 9548W        W81874  32.066  17.710  13.474
 9549W        W81875   9.286  14.867   0.307
 9550W        W81876  23.594  39.555   9.918
 9551W        W81877  31.047  37.035  12.778
 9552W        W81878  33.965  13.797  11.073
 9553W        W81879   6.394  12.129   3.475
 9554W        W81880   1.905   5.702   0.915
 9555W        W81881  39.465  44.716  11.543
 9556W        W81882  43.202  12.669   4.580
 9557W        W81883  24.622  21.957   0.300
 9558W        W81884  20.475  32.261   4.073
 9559W        W81885  11.385   5.640  12.984
 9560W        W81886  25.004  37.127  11.073
 9561W        W81887   0.510  15.055   4.064
 9562W        W81888  18.312   4.413  12.488
 9563W        W81889  23.644   9.177   1.407
 9564W        W81890  16.444  38.796   1.726
 9565W        W81891  12.199  14.822  10.536
 9566W        W81892  19.211  42.843   4.518
 9567W        W81893  40.497  38.080  13.049
 9568W        W81894  32.556  20.316  14.005
 9569W        W81895  30.953   0.356   4.362
 9570W        W81896  15.681  29.057  13.252
 9571W        W81897  22.497  27.684   4.401
 9572W        W81898  39.304   5.342  10.815
 9573W        W81899  35.771   2.500  10.603
 9574W        W81900  44.767  21.643  11.371
 9575W        W81901  37.393  24.437   3.631
 9576W        W81902  25.409  29.091  13.846
 9577W        W81903  16.292  14.702   2.762
 9578W        W81904   7.226  15.367   1.388
 9579W        W81905  25.520   0.954   0.424
 9580W        W81906  42.380  42.308  14.862
 9581W        W81907  41.489   8.079  14.196
 9582W        W81908   2.370   4.136  12.509
 9583W        W81909  23.889  37.153   1.226
 9584W        W81910  21.219  35.618  12.686
 9585W        W81911   1.767  17.015  13.054
 9586W        W81912  24.247  29.981   4.126
 9587W        W81913  19.498  30.948  13.084
 9588W        W81914  15.539  44.081   3.094
 9589W        W81915  29.969  26.426  12.436
 9590W        W81916   2.373   5.504   1.006
 9591W        W81917  42.372  15.508  12.635
 9592W        W81918   5.423  11.722   3.681
 9593W        W81919  23.099  35.704  12.421
 9594W        W81920  41.869  24.763   1.727
 9595W        W81921   6.434  24.641   1.226
 9596W        W81922  31.659  35.557   3.991
 9597W        W81923  16.677   9.894  14.860
 9598W        W81924  35.459   0.744   2.859
 9599W        W81925  41.772  23.189  11.046
 9600W        W81926  33.928  21.496   2.248
 9601W        W81927  36.036  30.443  11.600
 9602W        W81928  13.138  36.386   2.228
 9603W        W81929  43.955  36.073  13.434
 9604W        W81930  14.583  20.679  13.604
 9605W        W81931  34.272  37.333  13.769
 9606W        W81932  15.820  14.731   4.075
 9607W        W81933  41.690  16.171  14.330
 9608W        W81934  19.228  16.886  12.464
 9609W        W81935  11.196  37.106   2.351
 9610W        W81936  21.865   1.148   3.209
 9611W        W81937  33.003  35.804  14.718
 9612W        W81938  18.181  27.391  13.796
 9613W        W81939  26.137   3.608  14.438
 9614W        W81940  19.812  31.673   0.461
 9615W        W81941  35.461  26.710   4.505
 9616W        W81942  15.182  21.833  13.736
 9617W        W81943  15.649  28.878   2.113
 9618W        W81944  43.901  22.731   0.731
 9619W        W81945  14.820  31.387   0.331
 9620W        W81946   8.241  13.916   4.622
 9621W        W81947  31.139  44.997   1.729
 9622W        W81948  29.913   6.863   1.377
 9623W        W81949  43.716  34.601   3.908
 9624W        W81950   7.864  25.472  12.575
 9625W        W81951   3.280  23.074   0.257
 9626W        W81952  30.592  22.261  14.492
 9627W        W81953  35.491   6.952   1.675
 9628W        W81954  21.654  23.858   1.424
 9629W        W81955  10.155  33.092   4.082
 9630W        W81956   3.881  25.063   5.174
 9631W        W81957  36.962  40.616  13.460
 9632W        W81958  16.167  31.956   4.623
 9633W        W81959  22.096  26.159   0.272
 9634W        W81960  31.707  32.406  13.481
 9635W        W81961  36.363  35.892  10.648
 9636W        W81962  11.224  20.219  13.406
 9637W        W81963  23.180  42.467   4.899
 9638W        W81964  16.669  41.883  12.586
 9639W        W81965  43.291  16.333   3.834
 9640W        W81966  41.650   9.058  11.968
 9641W        W81967  41.387  12.788  14.839
 9642W        W81968  31.669  28.978   0.213
 9643W        W81969  14.292  25.717   1.910
 9644W        W81970  35.338   7.683   2.202
 9645W        W81971  21.115  18.305  11.681
 9646W        W81972  28.859  14.095  13.366
 9647W        W81973  34.606   2.390   2.489
 9648W        W81974  41.363  20.771   2.484
 9649W        W81975   5.791  32.121   1.849
 9650W        W81976  22.645  43.965   4.211
 9651W        W81977  31.181  16.529  11.759
 9652W        W81978  20.077  31.089   2.135
 9653W        W81979  34.031  22.679  10.392
 9654W        W81980  41.417  30.143  13.021
 9655W        W81981  24.452   5.005   1.847
 9656W        W81982   2.717  17.261   2.406
 9657W        W81983  27.420  18.243   3.800
 9658W        W81984  39.248  29.230   2.219
 9659W        W81985  31.430  35.557  12.986
 9660W        W81986  23.694  15.621  13.758
 9661W        W81987  34.960  23.640   1.395
 9662W        W81988  27.034  33.006  11.310
 9663W        W81989  44.051  28.162  14.975
 9664W        W81990   4.444  12.179   2.226
 9665W        W81991   9.589  31.247  10.910
 9666W        W81992  10.624  22.088   0.456
 9667W        W81993  38.605  15.034  13.537
 9668W        W81994   4.854   7.360  10.156
 9669W        W81995  37.375  28.341   1.903
 9670W        W81996  33.968  16.204  11.738
 9671W        W81997  22.521  25.034   0.918
 9672W        W81998  24.489  37.805  14.373
 9673W        W81999  38.788  40.541  11.090
 9674W        W82000  33.563   9.408  13.995
 9675W        W82001  25.686  24.185   0.274
 9676W        W82002   1.825  14.778   1.814
 9677W        W82003  21.220  18.294  14.501
 9678W        W82004   3.890  29.007  14.292
 9679W        W82005  30.925  28.153  14.887
 9680W        W82006  27.547  32.165  11.023
 9681W        W82007   1.063   8.736  14.193
 9682W        W82008  38.873   2.303  14.380
 9683W        W82009  10.965   5.700  12.004
 9684W        W82010  26.074  20.042  11.629
 9685W        W82011   3.279  27.407   0.964
 9686W        W82012  16.074   1.814   2.760
 9687W        W82013  20.716   9.879   4.778
 9688W        W82014  34.400  17.606  10.673
 9689W        W82015  19.550   2.584  12.283
 9690W        W82016   9.278  13.555   3.763
 9691W        W82017  11.231  22.626   2.359
 9692W        W82018  26.421   5.603  10.384
 9693W        W82019  25.167  40.327   3.325
 9694W        W82020   2.867  38.550   3.880
 9695W        W82021  35.623  20.567  14.560
 9696W        W82022  44.710   2.431   4.621
 9697W        W82023  39.743   5.211   3.195
 9698W        W82024  43.944   2.107  12.257
 9699W        W82025  19.034  17.213  11.120
 9700W        W82026  28.632  37.147   2.777
 9701W        W82027  41.517  20.075   0.766
 9702W        W82028  26.050   9.132   1.977
 9703W        W82029   3.455  42.270   1.439
 9704W        W82030  36.791  32.237   1.386
 9705W        W82031   2.354  13.964  12.360
 9706W        W82032   5.434  11.781   1.224
 9707W        W82033  42.359  41.279  11.524
 9708W        W82034  12.199  15.822   3.132
 9709W        W82035  34.927  42.938   5.274
 9710W        W82036  11.199   6.373  10.708
 9711W        W82037  14.534  10.670  14.872
 9712W        W82038  41.346  44.787   3.327
 9713W        W82039  33.573  44.836  14.987
 9714W        W82040   8.713  24.987   3.054
 9715W        W82041  16.014  39.967  11.863
 9716W        W82042  17.581  28.905   1.666
 9717W        W82043  36.376  39.468  14.741
 9718W        W82044  44.510  32.703   1.931
 9719W        W82045  21.257  19.765   4.738
 9720W        W82046   6.808  17.124   3.858
 9721W        W82047  43.563  36.008  14.411
 9722W        W82048  13.278  28.486   2.386
 9723W        W82049  18.703  19.606  12.078
 9724W        W82050  15.959   6.688   4.895
 9725W        W82051  20.665  25.659  11.101
 9726W        W82052  35.055  20.560  11.965
 9727W        W82053  10.926   4.527  13.372
 9728W        W82054  23.674  22.798   2.285
 9729W        W82055   4.780   2.850   3.062
 9730W        W82056  32.887  37.132  11.665
 9731W        W82057  35.351   2.993   0.869
 9732W        W82058  35.481  15.523  12.854
 9733W        W82059  28.134  31.923  13.818
 9734W        W82060   6.660  44.222   1.877
 9735W        W82061   4.173  24.627   4.716
 9736W        W82062  24.289   1.057   3.465
 9737W        W82063  41.413  38.635  14.437
 9738W        W82064   0.262  16.794   4.651
 9739W        W82065  35.320  36.442   0.851
 9740W        W82066  31.568  11.177  11.463
 9741W        W82067  28.203  21.480   3.224
 9742W        W82068   6.810  38.491  10.708
 9743W        W82069  17.211  15.254  10.193
 9744W        W82070  32.428  30.487  12.391
 9745W        W82071  27.833   3.930   4.578
 9746W        W82072   5.235  44.305  11.149
 9747W        W82073   6.743  42.878  13.049
 9748W        W82074  16.255  18.723   3.822
 9749W        W82075  34.579   2.065  11.687
 9750W        W82076  24.461  29.499   4.876
 9751W        W82077  33.122  11.674  13.497
 9752W        W82078  27.074  41.000   3.310
 9753W        W82079   3.799   4.588   4.306
 9754W        W82080  15.759  44.521  10.682
 9755W        W82081   5.441  42.302   3.222
 9756W        W82082  17.327  28.020  14.389
 9757W        W82083  25.740  34.572  14.767
 9758W        W82084  44.665  21.121  11.458
 9759W        W82085  18.563  23.962   1.913
 9760W        W82086   4.196   1.278   0.192
 9761W        W82087  36.417   6.677   0.505
 9762W        W82088  42.782  44.780  12.415
 9763W        W82089   7.247   6.679  14.023
 9764W        W82090  32.520  17.347  14.782
 9765W        W82091  40.383  15.727  11.354
 9766W        W82092  27.657  24.293   2.400
 9767W        W82093  27.709   4.361  13.870
 9768W        W82094  35.389  10.619  12.450
 9769W        W82095  29.674  11.641  10.977
 9770W        W82096  39.272  18.648  10.637
 9771W        W82097  13.058  23.231  14.837
 9772W        W82098  36.840   1.329  12.852
 9773W        W82099  21.791   4.331  13.801
 9774W        W82100  35.897  12.353  11.212
 9775W        W82101  25.652  40.081  12.346
 9776W        W82102  24.060  17.076  14.901
 9777W        W82103  23.268   3.975   2.332
 9778W        W82104   8.368  38.057   4.331
 9779W        W82105  39.166  26.124   2.401
 9780W        W82106  40.011  24.611  12.213
 9781W        W82107  36.566   7.949   2.498
 9782W        W82108   4.931  44.834  11.104
 9783W        W82109  27.167  25.668   0.012
 9784W        W82110  15.083  27.858   3.285
 9785W        W82111  18.545  33.395   2.198
 9786W        W82112  34.999   9.407   4.119
 9787W        W82113  38.170  32.981   4.216
 9788W        W82114  29.378   3.046  12.098
 9789W        W82115  13.734  21.502   4.294
 9790W        W82116   9.717  35.240   4.356
 9791W        W82117   2.723  21.464  13.378
 9792W        W82118  20.556  19.867   2.139
 9793W        W82119  38.984  28.275   1.498
 9794W        W82120  30.894  43.562  12.412
 9795W        W82121   1.315  11.711   3.061
 9796W        W82122   3.448  18.058  10.711
 9797W        W82123  10.316  36.949   1.766
 9798W        W82124  22.051  23.921   3.715
 9799W        W82125   5.956  12.383   2.376
 9800W        W82126  25.591  16.651   1.693
 9801W        W82127  43.141  24.816   1.345
 9802W        W82128  10.792  16.131  13.010
 9803W        W82129   8.420   8.651  12.050
 9804W        W82130  12.071  17.301  14.441
 9805W        W82131  35.182  17.335   5.140
 9806W        W82132  10.138  43.597  11.190
 9807W        W82133  25.878  22.711   4.215
 9808W        W82134  23.992  10.604   0.770
 9809W        W82135   3.962  22.814   9.827
 9810W        W82136  44.759  25.914  12.501
 9811W        W82137  37.717  10.669   5.125
 9812W        W82138  18.211  33.426   0.874
 9813W        W82139  15.609   5.234   3.605
 9814W        W82140  41.319  40.127   0.441
 9815W        W82141  26.573  13.017   4.647
 9816W        W82142  39.474  15.252   3.275
 9817W        W82143  20.078  39.406  12.958
 9818W        W82144  21.623  12.813   1.422
 9819W        W82145  44.110  20.272  11.885
 9820W        W82146  29.858  37.528   2.497
 9821W        W82147  35.822   1.880   3.884
 9822W        W82148   8.123  37.774  11.541
 9823W        W82149  34.150  41.401   4.920
 9824W        W82150  30.053  13.653  10.963
 9825W        W82151  11.177   1.475   4.753
 9826W        W82152  11.674  41.905   1.448
 9827W        W82153   6.766  42.878  12.176
 9828W        W82154  25.065  26.371  11.625
 9829W        W82155  38.918  20.296  14.291
 9830W        W82156  18.740  23.099  13.836
 9831W        W82157  12.556  29.132   2.721
 9832W        W82158  43.389  35.431  13.888
 9833W        W82159  40.854  41.017  12.480
 9834W        W82160  12.209  37.527  10.484
 9835W        W82161  12.991   6.203  13.346
 9836W        W82162  43.556  15.456  11.943
 9837W        W82163  18.370  31.505   1.932
 9838W        W82164  18.614  30.839   3.333
 9839W        W82165  11.291   2.067   0.476
 9840W        W82166  34.630  10.244  11.099
 9841W        W82167  17.274   5.700  12.950
 9842W        W82168  44.338  13.482   0.497
 9843W        W82169  44.007   3.510  12.554
 9844W        W82170  34.646  26.818   3.807
 9845W        W82171  37.123  34.568   1.746
 9846W        W82172   1.522   5.334  13.319
 9847W        W82173  14.068  20.175   1.437
 9848W        W82174  28.292   8.166  14.747
 9849W        W82175  17.399  42.722  14.828
 9850W        W82176   6.822   2.447   0.434
 9851W        W82177   8.316  14.164  12.324
 9852W        W82178  34.369  22.274   4.796
 9853W        W82179   9.671   5.343   2.575
 9854W        W82180   9.282  13.243   4.607
 9855W        W82181  31.693  23.164  11.425
 9856W        W82182   3.705  11.575   3.269
 9857W        W82183   9.801  15.849   1.022
 9858W        W82184  22.091   5.397  14.368
 9859W        W82185  15.108  25.960  12.076
 9860W        W82186  11.656  17.201   1.729
 9861W        W82187  43.741  26.212  10.957
 9862W        W82188  43.064  32.707   3.242
 9863W        W82189  40.526  18.295  12.523
 9864W        W82190  43.065  11.192  14.352
 9865W        W82191  28.014  41.313  10.671
 9866W        W82192  42.088  30.824  13.437
 9867W        W82193   6.050  16.847  14.968
 9868W        W82194  32.739  44.061  11.256
 9869W        W82195  14.149  21.955   0.476
 9870W        W82196  37.088  13.630   1.367
 9871W        W82197  18.673  10.416   0.540
 9872W        W82198  20.423  41.906   1.847
 9873W        W82199  34.562  13.852  14.179
 9874W        W82200  20.640  37.463   0.720
 9875W        W82201  36.545  30.136  12.510
 9876W        W82202  29.970  28.876   2.177
 9877W        W82203   6.435  28.452  13.937
 9878W        W82204  37.043  38.553   1.762
 9879W        W82205   5.465  30.937   1.334
 9880W        W82206  10.055  21.693  10.094
 9881W        W82207  27.210  16.942  10.202
 9882W        W82208  26.213  21.630   2.291
 9883W        W82209  18.278  16.447   2.379
 9884W        W82210  10.083  31.617  12.165
 9885W        W82211  34.570  42.356  11.229
 9886W        W82212  26.490   3.561  10.529
 9887W        W82213   4.150  19.693  12.638
 9888W        W82214  32.186  26.093   1.331
 9889W        W82215  26.082  29.256   3.392
 9890W        W82216  34.882  18.080   4.429
 9891W        W82217  15.158  28.436   3.662
 9892W        W82218  44.217  35.320   4.099
 9893W        W82219  43.800   0.535   2.102
 9894W        W82220   8.416  40.370  10.765
 9895W        W82221  15.642  24.945   1.955
 9896W        W82222  29.822  25.144  13.522
 9897W        W82223  31.662  39.924   4.959
 9898W        W82224  34.576   9.932   4.262
 9899W        W82225  20.516   7.649  12.511
 9900W        W82226  35.353  39.282  11.319
 9901W        W82227  42.320   8.208  11.515
 9902W        W82228   9.416  36.051   4.051
 9903W        W82229   2.200   1.939   4.096
 9904W        W82230  28.496  41.880   0.734
 9905W        W82231  38.258  44.656   2.360
 9906W        W82232  10.144  32.687  13.169
 9907W        W82233  37.529  24.530   1.865
 9908W        W82234  17.072  23.169  11.153
 9909W        W82235  41.049  36.091   2.701
 9910W        W82236   4.498  24.052  13.777
 9911W        W82237  33.407  27.112   3.798
 9912W        W82238  34.643  20.583  10.566
 9913W        W82239  42.992  39.983   1.238
 9914W        W82240  37.381   8.903   0.490
 9915W        W82241  12.184  26.529   5.089
 9916W        W82242  26.691  15.104   0.520
 9917W        W82243  39.842   8.245   3.378
 9918W        W82244  37.093  44.891   3.696
 9919W        W82245   1.439  36.120   4.196
 9920W        W82246  41.934  22.450  11.473
 9921W        W82247  44.990  25.124   2.579
 9922W        W82248  40.329  13.625  11.226
 9923W        W82249  38.382  32.833   1.843
 9924W        W82250  17.592  36.930  13.572
 9925W        W82251  20.700  21.043  13.442
 9926W        W82252  25.754   0.363   3.311
 9927W        W82253  42.184  18.731  14.517
 9928W        W82254  41.038  18.911   4.104
 9929W        W82255   7.123  29.342   3.836
 9930W        W82256  38.408  27.715   4.115
 9931W        W82257   5.656  10.211   4.455
 9932W        W82258  34.159  40.918  11.212
 9933W        W82259  30.704  35.270  11.133
 9934W        W82260  21.281  35.519   2.210
 9935W        W82261  16.502  32.642   0.022
 9936W        W82262   1.849  19.162   4.384
 9937W        W82263  22.236  28.166  13.365
 9938W        W82264  22.668  33.076  11.674
 9939W        W82265  34.003  34.423   2.818
 9940W        W82266  35.073  38.081   1.364
 9941W        W82267  16.175  15.368   2.244
 9942W        W82268  14.580  36.513  10.620
 9943W        W82269  18.078  44.301  12.055
 9944W        W82270  14.628  40.797  11.713
 9945W        W82271   1.729  30.463  13.761
 9946W        W82272  17.714  33.127  14.953
 9947W        W82273  12.764   3.846   2.783
 9948W        W82274  27.455  15.668   0.935
 9949W        W82275  40.756   2.786   3.872
 9950W        W82276  12.673   8.828   2.153
 9951W        W82277  39.268  23.071  14.489
 9952W        W82278  32.091  42.294  14.768
 9953W        W82279  18.772   7.134  12.542
 9954W        W82280  27.859   3.381   0.902
 9955W        W82281  39.126  30.605  10.750
 9956W        W82282  18.525  15.813  14.966
 9957W        W82283  20.288   8.110   1.416
 9958W        W82284  40.032  24.100   2.321
 9959W        W82285  39.480  40.919   0.884
 9960W        W82286  14.123   3.890   0.972
 9961W        W82287  10.199  38.279   1.459
 9962W        W82288  39.478  21.787   2.726
 9963W        W82289  19.203  34.590   2.680
 9964W        W82290   8.618  21.602   1.323
 9965W        W82291  34.905   6.419   1.372
 9966W        W82292  14.112  37.058  12.988
 9967W        W82293  25.505  24.775   3.349
 9968W        W82294   1.272  33.957  11.678
 9969W        W82295  37.096  34.440  13.001
 9970W        W82296  41.242  19.413  11.554
 9971W        W82297  36.431  29.249   4.217
 9972W        W82298  21.248   9.993  11.949
 9973W        W82299  37.465  40.201   4.912
 9974W        W82300  14.697   6.184  12.086
 9975W        W82301  40.570  20.790   2.052
 9976W        W82302  29.175  21.804   4.854
 9977W        W82303  35.237  15.249   1.340
 9978W        W82304  21.473  35.616  11.964
 9979W        W82305  17.025  39.514   3.372
 9980W        W82306  12.161  44.082  11.855
 9981W        W82307  41.019  43.411   1.393
 9982W        W82308   0.449  35.219  13.064
 9983W        W82309   7.232  27.122   4.289
 9984W        W82310   2.040   6.527  13.092
 9985W        W82311  14.858  33.661  14.892
 9986W        W82312   9.768  43.970  11.193
 9987W        W82313  28.993  27.702  10.509
 9988W        W82314   1.834  36.836   3.894
 9989W        W82315  29.891   3.710   3.258
 9990W        W82316   0.429  14.412   2.276
 9991W        W82317  31.113   4.139  11.202
 9992W        W82318  36.819  35.837  10.899
 9993W        W82319  13.226   4.149  13.445
 9994W        W82320  10.347  15.102   0.729
 9995W        W82321   9.247  16.239  12.990
 9996W        W82322  17.268  44.564   0.991
 9997W        W82323  17.834  35.370  14.846
 9998W        W82324  11.930  32.064   4.590
 9999W        W82325  23.008  30.970  14.713
10000W        W82326  10.747  43.855  13.922
10001W        W82327   9.766  29.931  11.135
10002W        W82328  40.010   9.706   3.455
10003W        W82329  30.674  35.316   0.153
10004W        W82330  36.030  31.056  12.895
10005W        W82331  13.258  14.778  12.487
10006W        W82332  12.646  26.582   3.273
10007W        W82333   3.183  30.090  13.539
10008W        W82334  22.099  30.402   2.893
10009W        W82335   1.334  24.016   3.527
10010W        W82336  21.791  37.139  14.923
10011W        W82337  41.784  14.141   3.279
10012W        W82338  13.224  17.530   2.206
10013W        W82339  38.350  22.287   2.804
10014W        W82340  33.998   5.281   2.301
10015W        W82341  25.621  13.923   3.131
10016W        W82342  42.844  23.838  11.592
10017W        W82343  11.149  36.482  11.560
10018W        W82344   7.869  15.067   4.671
10019W        W82345   9.839  13.915  12.246
10020W        W82346  39.854  23.611   2.604
10021W        W82347  28.364   2.430  10.780
10022W        W82348   3.407  31.669   4.302
10023W        W82349   8.692   3.226   4.663
10024W        W82350   4.439  11.643  12.474
10025W        W82351  43.301  29.112  10.470
10026W        W82352  36.356   4.589  14.009
10027W        W82353   6.635  40.484  11.902
10028W        W82354  18.466  23.023  12.344
10029W        W82355  44.411  22.507   5.026
10030W        W82356  22.499  22.583   3.643
10031W        W82357  13.328  32.345   3.550
10032W        W82358  38.273  19.590  14.994
10033W        W82359  12.751  32.987   3.640
10034W        W82360   4.198  17.348   3.571
10035W        W82361  42.930   4.475  12.023
10036W        W82362  35.955  29.761  14.865
10037W        W82363   5.463  38.866   1.931
10038W        W82364  37.370  33.284  10.566
10039W        W82365  27.906  13.857   4.150
10040W        W82366   4.202  34.986   3.193
10041W        W82367  13.556   4.709  12.610
10042W        W82368  37.425  34.944   0.443
10043W        W82369  36.986  14.807   4.168
10044W        W82370   3.296  13.198   2.905
10045W        W82371  37.889  19.651  11.583
10046W        W82372  33.727  32.528  11.409
10047W        W82373  35.603  14.536  12.357
10048W        W82374  21.183  27.221   0.054
10049W        W82375  39.756   9.310  11.354
10050W        W82376  26.502   0.756   1.088
10051W        W82377   4.889  40.529  10.891
10052W        W82378  21.719  42.483  12.515
10053W        W82379   2.786   7.216   0.404
10054W        W82380   9.733  40.024   1.819
10055W        W82381  22.844  31.899   4.900
10056W        W82382  32.242  43.950   2.246
10057W        W82383  25.686  19.358   1.221
10058W        W82384   6.796   8.275   0.381
10059W        W82385  16.178   1.192  13.853
10060W        W82386  24.187  40.434  14.349
10061W        W82387   0.522   6.917   4.188
10062W        W82388  17.128  20.617  14.227
10063W        W82389   3.792  27.230   0.427
10064W        W82390   9.430  15.672   4.055
10065W        W82391  38.941  33.947  13.039
10066W        W82392  42.935  12.952   4.239
10067W        W82393  10.213  18.170   4.051
10068W        W82394  30.557  37.561  11.603
10069W        W82395  18.740  39.470   4.711
10070W        W82396   9.922   9.437  12.347
10071W        W82397  17.949  36.286   5.122
10072W        W82398  43.332  13.098  11.712
10073W        W82399  32.887  23.762   1.800
10074W        W82400  44.753  26.597   3.726
10075W        W82401  17.266  29.351   3.143
10076W        W82402  18.637  38.871  11.903
10077W        W82403  38.151  32.339   4.112
10078W        W82404  24.299  30.568  14.499
10079W        W82405   5.991  12.228   3.798
10080W        W82406  12.705  19.535   2.612
10081W        W82407   6.388  19.313   2.582
10082W        W82408  18.559  44.852  13.453
10083W        W82409  20.143   7.638   1.614
10084W        W82410  41.978   1.531   2.758
10085W        W82411  38.798   3.395   0.947
10086W        W82412  11.184   4.873   0.848
10087W        W82413  43.818  23.266  14.812
10088W        W82414  18.606  14.385   3.694
10089W        W82415  25.933  44.389   1.282
10090W        W82416  25.175  41.769   1.489
10091W        W82417  39.465   0.912   0.930
10092W        W82418  44.384  27.489   2.377
10093W        W82419  27.971   7.690   2.683
10094W        W82420   9.716  12.269   2.686
10095W        W82421  28.678  23.718  13.443
10096W        W82422  42.558  44.378  13.501
10097W        W82423  27.872  37.599  11.129
10098W        W82424  37.747   8.188   1.674
10099W        W82425   3.922   6.124   4.366
10100W        W82426  42.911  24.593   4.852
10101W        W82427  25.245  42.377  11.491
10102W        W82428   2.037   3.245  12.455
10103W        W82429  35.631  21.974  12.432
10104W        W82430  37.589  21.284   3.211
10105W        W82431  12.315  24.669  11.103
10106W        W82432  37.437  30.945   1.687
10107W        W82433   6.378  42.361  13.316
10108W        W82434  43.420  19.747   3.786
10109W        W82435  32.335   0.865   1.702
10110W        W82436  20.050  34.618  14.290
10111W        W82437  40.845  39.898  13.353
10112W        W82438  12.102  11.891  14.916
10113W        W82439  18.997  13.803   1.218
10114W        W82440  21.784  33.258  10.174
10115W        W82441  23.097  11.810   4.048
10116W        W82442  39.552   0.489  14.435
10117W        W82443   1.199   9.397   4.533
10118W        W82444  34.599   3.181  11.199
10119W        W82445  10.850  31.609  13.766
10120W        W82446  34.465  30.071  13.488
10121W        W82447   0.249  32.563  10.786
10122W        W82448  31.123  36.321   5.021
10123W        W82449  41.332  16.810  10.969
10124W        W82450   8.671  28.050   2.782
10125W        W82451   1.993  37.407  12.958
10126W        W82452  14.917  17.603   3.806
10127W        W82453  28.565   2.961   1.782
10128W        W82454  43.513  32.170   4.855
10129W        W82455  21.260  23.058   3.577
10130W        W82456  37.640  25.248   4.084
10131W        W82457  28.137  34.583  13.842
10132W        W82458  25.449  24.372  12.791
10133W        W82459  32.515   2.317  10.728
10134W        W82460  20.824   6.336   0.496
10135W        W82461  12.088  32.353   0.823
10136W        W82462  30.517  32.681  13.264
10137W        W82463  41.049  37.613   4.755
10138W        W82464  18.150  34.115   1.691
10139W        W82465  39.566  25.184   0.321
10140W        W82466  44.665  22.020  14.820
10141W        W82467  33.559  10.916  11.041
10142W        W82468  19.545  36.854   4.116
10143W        W82469  37.461  38.588   1.458
10144W        W82470  21.585  36.044   1.305
10145W        W82471  24.683  21.629  14.871
10146W        W82472  31.125  37.277   1.863
10147W        W82473  26.717  18.748   5.026
10148W        W82474   5.617   4.519   3.929
10149W        W82475  13.211  41.466  14.360
10150W        W82476   7.726  21.000  10.988
10151W        W82477   0.102  25.685   1.355
10152W        W82478   4.890  40.960  12.563
10153W        W82479  15.256  32.922   1.347
10154W        W82480  30.371   4.736   0.689
10155W        W82481  25.626  43.417   4.208
10156W        W82482   6.967  35.868  12.102
10157W        W82483  37.506  40.322  11.762
10158W        W82484  14.318   2.831   3.297
10159W        W82485  31.692   6.209   3.450
10160W        W82486  20.558  14.128   3.322
10161W        W82487  38.299  42.452   0.821
10162W        W82488   5.741  12.714  13.867
10163W        W82489   0.366  43.857  11.069
10164W        W82490   1.522  38.801   4.695
10165W        W82491  30.707  41.574   4.140
10166W        W82492  29.000  36.975  10.457
10167W        W82493  34.791  12.789  12.539
10168W        W82494   9.682  12.053   3.211
10169W        W82495   1.681   7.361   2.321
10170W        W82496  36.354  37.413  12.839
10171W        W82497  13.582  15.255  11.989
10172W        W82498  14.956   2.731   2.324
10173W        W82499  14.294  39.824  11.845
10174W        W82500  23.180   4.896   3.673
10175W        W82501   4.700  24.163  10.715
10176W        W82502   3.032  23.227  13.030
10177W        W82503  14.658   9.206  14.584
10178W        W82504  29.395  20.678   0.938
10179W        W82505  35.351  42.783  10.641
10180W        W82506  29.138   0.616   3.816
10181W        W82507  25.484  24.803   1.524
10182W        W82508  43.426   4.308   1.308
10183W        W82509  34.967  31.499   0.963
10184W        W82510  18.271  29.135  11.606
10185W        W82511  14.745  33.426  13.899
10186W        W82512  24.690  37.001  13.285
10187W        W82513  40.272  13.811   2.834
10188W        W82514  39.163   9.827  13.098
10189W        W82515  21.434  43.549   3.260
10190W        W82516  21.468  37.686   9.849
10191W        W82517  20.643  41.954  11.558
10192W        W82518  15.714  25.531   4.709
10193W        W82519  22.972  31.855  12.011
10194W        W82520  26.127  33.205  11.970
10195W        W82521  22.148  23.489   4.858
10196W        W82522  43.787   0.885  10.462
10197W        W82523  32.840  29.858  11.624
10198W        W82524  32.377  25.177  14.361
10199W        W82525  23.150  11.941  12.877
10200W        W82526  36.908  39.541  13.347
10201W        W82527   6.284  17.115  10.754
10202W        W82528  27.580  14.560  14.076
10203W        W82529  30.385  13.336  12.509
10204W        W82530  22.475  13.524   0.760
10205W        W82531  36.277  11.286   2.167
10206W        W82532  28.105  38.004  11.478
10207W        W82533  28.994  13.068  12.480
10208W        W82534  24.898  40.303   3.759
10209W        W82535  26.674  19.563  12.011
10210W        W82536  28.997  19.064   1.387
10211W        W82537  41.630  30.487   3.208
10212W        W82538   4.557  34.663   1.757
10213W        W82539  22.572  29.000   0.252
10214W        W82540  24.024  25.128   2.705
10215W        W82541  35.565   0.961   1.003
10216W        W82542  22.039   2.665   4.544
10217W        W82543  43.985  10.228  14.916
10218W        W82544  44.825  10.146   3.190
10219W        W82545  31.806  16.798   2.659
10220W        W82546  11.075  20.769  11.119
10221W        W82547  26.694  32.849   3.162
10222W        W82548  33.032  12.159   0.938
10223W        W82549  23.579  20.501   2.298
10224W        W82550  15.138  23.452  14.844
10225W        W82551   1.235  14.421  12.578
10226W        W82552  31.647   1.689   3.225
10227W        W82553   4.112  30.535  14.734
10228W        W82554  11.809  22.617  13.085
10229W        W82555   7.006  29.094   4.393
10230W        W82556  43.366  11.335   0.855
10231W        W82557  25.476  16.634  12.168
10232W        W82558   3.185  32.869   1.302
10233W        W82559   7.180  44.357  12.865
10234W        W82560  20.025  10.125   4.306
10235W        W82561  24.235  23.226  13.027
10236W        W82562  31.484  37.866   3.101
10237W        W82563  11.691  18.294  14.652
10238W        W82564  40.263  30.010   3.845
10239W        W82565  12.142  23.518   0.288
10240W        W82566  34.347  43.298  12.089
10241W        W82567  39.882  12.015  14.522
10242W        W82568  39.994  41.535   2.712
10243W        W82569  21.345  43.448   4.178
10244W        W82570  40.798   1.114  11.110
10245W        W82571  31.772  37.334  14.957
10246W        W82572   6.029   4.227  10.590
10247W        W82573  33.288  34.155   3.592
10248W        W82574   9.818  44.004  13.606
10249W        W82575  23.543  19.582  12.879
10250W        W82576  31.612   0.686  11.934
10251W        W82577  33.149  18.251  10.950
10252W        W82578  18.312  28.985   3.112
10253W        W82579  12.389  14.502  13.002
10254W        W82580   7.955  27.819  13.388
10255W        W82581  42.868   4.241  11.550
10256W        W82582  19.274  35.480   3.771
10257W        W82583  33.146   4.100   4.839
10258W        W82584  27.788  32.009   1.020
10259W        W82585  25.702  11.046   1.466
10260W        W82586  14.752  18.025   1.857
10261W        W82587   9.188   8.273   3.865
10262W        W82588  38.953  44.443   3.516
10263W        W82589  37.744  38.564   0.671
10264W        W82590  15.883   6.399  14.914
10265W        W82591   3.167  25.980  12.142
10266W        W82592  41.221  40.761   1.889
10267W        W82593  43.175  41.908   4.910
10268W        W82594  25.904  43.334   3.270
10269W        W82595  22.740  23.938   4.153
10270W        W82596  30.973  41.061   3.123
10271W        W82597  29.736  11.949   1.844
10272W        W82598   8.005  38.973  14.255
10273W        W82599   8.132   6.256  13.902
10274W        W82600  21.644  15.040  12.532
10275W        W82601  16.684  20.963  11.186
10276W        W82602  22.059  38.504  11.500
10277W        W82603  22.075   4.598   4.764
10278W        W82604  28.515  27.744  13.319
10279W        W82605  28.457  24.940   0.637
10280W        W82606  36.623  39.843  14.102
10281W        W82607  22.514  21.724   4.121
10282W        W82608  35.968  11.865  10.487
10283W        W82609  32.560   3.910   1.059
10284W        W82610   7.353  12.109   2.712
10285W        W82611  27.950  31.177   3.366
10286W        W82612   8.652  16.146  11.204
10287W        W82613  12.312   6.909  14.804
10288W        W82614  28.598  26.626   4.493
10289W        W82615   2.952  42.062  14.945
10290W        W82616  36.589   0.654  12.888
10291W        W82617  35.471  37.910   4.413
10292W        W82618  20.834  41.545  10.629
10293W        W82619   3.313  34.894   0.579
10294W        W82620   5.754  27.958   0.474
10295W        W82621  28.976  23.258   1.014
10296W        W82622  11.438  15.136  14.860
10297W        W82623  19.965   9.506   3.551
10298W        W82624  34.919  38.609   3.317
10299W        W82625  40.290   7.713  14.342
10300W        W82626  19.152  12.466  13.905
10301W        W82627  24.975   3.395   1.448
10302W        W82628  30.213  27.981   0.790
10303W        W82629   2.846   2.995   2.096
10304W        W82630  14.390  13.120   0.956
10305W        W82631   8.399  21.784   0.862
10306W        W82632   9.349   7.469   0.281
10307W        W82633  37.550  42.872  13.587
10308W        W82634  42.131  15.064   1.913
10309W        W82635  24.529  11.392   1.832
10310W        W82636  42.034  10.976   3.122
10311W        W82637  33.808  35.624  11.197
10312W        W82638  44.296  29.956  14.481
10313W        W82639  38.971   4.940   0.805
10314W        W82640  30.048  10.654  10.929
10315W        W82641  29.450   4.476  13.356
10316W        W82642  30.485  26.526  12.439
10317W        W82643  37.359   1.240   0.212
10318W        W82644  27.426  41.388   0.130
10319W        W82645  10.777  43.398   2.468
10320W        W82646   8.341  39.312   2.681
10321W        W82647  17.786  38.925   3.195
10322W        W82648  32.515   2.564   0.875
10323W        W82649  19.297  43.373   0.536
10324W        W82650  23.115  16.385   4.717
10325W        W82651  11.328   6.608  14.895
10326W        W82652  13.549  11.897   3.695
10327W        W82653  37.800  44.319  12.493
10328W        W82654  27.179  25.560  11.608
10329W        W82655   6.134  11.848  11.102
10330W        W82656   6.328  27.504  12.073
10331W        W82657  31.750  28.201   0.973
10332W        W82658  30.022  38.406  10.694
10333W        W82659  29.989  32.727  12.754
10334W        W82660  18.775   2.948  10.606
10335W        W82661   6.701   6.804   0.308
10336W        W82662  30.088  33.598   3.253
10337W        W82663  26.180  32.865   3.240
10338W        W82664   6.357   1.987   2.887
10339W        W82665  17.043  23.281  12.912
10340W        W82666   2.965  10.746  10.923
10341W        W82667  36.606   4.061   1.936
10342W        W82668  36.885  16.699   4.256
10343W        W82669  42.055  18.596   2.225
10344W        W82670  19.469  23.718  12.961
10345W        W82671   0.751  30.969  10.678
10346W        W82672   3.353  37.865  11.415
10347W        W82673  23.544  10.703   3.268
10348W        W82674  13.128  18.292   1.740
10349W        W82675   9.172   7.818  11.450
10350W        W82676  13.817  36.151  10.985
10351W        W82677  29.959  26.179   3.007
10352W        W82678  29.877  29.972   3.923
10353W        W82679  35.185   0.466  11.112
10354W        W82680  31.296  37.977  13.970
10355W        W82681  18.050  18.699   0.957
10356W        W82682   3.650  30.077   1.350
10357W        W82683  15.743   8.076   4.251
10358W        W82684  42.561  22.611  10.322
10359W        W82685  16.207  22.601   2.346
10360W        W82686  27.513  11.259  10.771
10361W        W82687  25.310  30.569  14.234
10362W        W82688  32.002  20.538   1.147
10363W        W82689   2.513  21.993  10.120
10364W        W82690  40.999  19.262  13.896
10365W        W82691  12.951  32.968   0.487
10366W        W82692   5.830  43.834   0.386
10367W        W82693  40.796  41.287   4.738
10368W        W82694   0.991  24.101   0.408
10369W        W82695   7.774   4.463   2.689
10370W        W82696  42.895  39.639   2.413
10371W        W82697  14.185  18.977   4.115
10372W        W82698   7.174   9.734  11.459
10373W        W82699   1.226  26.539   4.114
10374W        W82700  31.628  19.585  12.422
10375W        W82701  21.225  17.132   0.742
10376W        W82702  27.117  27.062  13.911
10377W        W82703  39.281   0.507   1.631
10378W        W82704  17.737  12.667   0.096
10379W        W82705  26.514  42.237   1.349
10380W        W82706  28.266  43.924   0.310
10381W        W82707  43.300  10.647  14.401
10382W        W82708  40.109   5.274   0.937
10383W        W82709  37.707  24.672   2.346
10384W        W82710  24.481  33.499  12.698
10385W        W82711  30.658  26.070  14.014
10386W        W82712   4.345  38.825  12.487
10387W        W82713  13.790  41.942   1.946
10388W        W82714  19.801  41.839  12.449
10389W        W82715  17.784  15.601   2.076
10390W        W82716  36.151  18.631   2.468
10391W        W82717  41.896  38.161   4.535
10392W        W82718  12.128   1.851  12.842
10393W        W82719  22.579  24.706   2.826
10394W        W82720  11.302  14.923   0.356
10395W        W82721   5.989  25.572  11.649
10396W        W82722  43.418  41.777  11.688
10397W        W82723   6.048  11.770   4.596
10398W        W82724   9.579  44.993   2.911
10399W        W82725   1.744  27.399   0.395
10400W        W82726  43.527  41.308  13.427
10401W        W82727  22.497   8.346  11.667
10402W        W82728  12.675  15.136  14.393
10403W        W82729  33.247  43.958  14.732
10404W        W82730  24.072  41.495   1.276
10405W        W82731  37.975  30.393   4.978
10406W        W82732  25.871  42.890   2.587
10407W        W82733  44.480  22.790   4.124
10408W        W82734   7.833  29.172   1.384
10409W        W82735  42.225  28.054  13.602
10410W        W82736   6.425   4.783   3.719
10411W        W82737   1.882  32.631   4.183
10412W        W82738  23.982  26.479   0.056
10413W        W82739  41.081  40.070   3.919
10414W        W82740  16.420  32.906   0.505
10415W        W82741  24.923  43.802  12.636
10416W        W82742   0.704  35.968   3.755
10417W        W82743  32.544  27.137  14.427
10418W        W82744  29.618  28.228  14.470
10419W        W82745   3.464  33.906  12.953
10420W        W82746  11.008  21.342  11.702
10421W        W82747  29.862  16.547   4.960
10422W        W82748  40.304  16.778   4.731
10423W        W82749  34.391  42.288   2.723
10424W        W82750  26.090  36.348   3.855
10425W        W82751   3.415  22.536  11.512
10426W        W82752  31.549  22.970  13.604
10427W        W82753  22.489   4.418  12.998
10428W        W82754   7.190  30.408   4.505
10429W        W82755  10.100  13.654  13.758
10430W        W82756   2.929  13.934  13.561
10431W        W82757   7.715  35.344   1.842
10432W        W82758  22.220  43.612   4.122
10433W        W82759  18.595   1.996  10.711
10434W        W82760  32.594  19.532  10.775
10435W        W82761   7.370   0.790   0.467
10436W        W82762  33.892  38.756  14.290
10437W        W82763  35.649   1.740   1.428
10438W        W82764  26.413   8.125  14.990
10439W        W82765  24.757   8.735  12.477
10440W        W82766  35.943  16.542   2.404
10441W        W82767  16.174  12.716  14.344
10442W        W82768   2.841  33.190  13.049
10443W        W82769  39.827  35.265   1.376
10444W        W82770  25.851  30.442  11.179
10445W        W82771   3.255  27.939   0.981
10446W        W82772  44.714  40.396   2.326
10447W        W82773   4.191  18.476  11.043
10448W        W82774  23.167  14.240  12.610
10449W        W82775  11.825  18.017  12.470
10450W        W82776  26.860  10.076  13.073
10451W        W82777  43.000  41.393  10.485
10452W        W82778  17.283  13.538  14.780
10453W        W82779   8.316  14.846   1.724
10454W        W82780  42.586  14.372   3.101
10455W        W82781  32.375  31.838  13.871
10456W        W82782   9.909  10.871  11.013
10457W        W82783  32.693  26.033   1.195
10458W        W82784  41.807   7.137   1.329
10459W        W82785  32.082  38.486  11.602
10460W        W82786  23.433  23.202  11.509
10461W        W82787  16.248  39.496   1.387
10462W        W82788  41.428  23.773  14.926
10463W        W82789  14.101  13.909   4.188
10464W        W82790  18.628  22.349  10.688
10465W        W82791  29.380  23.747   4.177
10466W        W82792  26.482  35.516   2.783
10467W        W82793   0.339  31.069  12.521
10468W        W82794  16.550  38.077  11.653
10469W        W82795  42.939  27.574  13.650
10470W        W82796  10.389  21.676   3.799
10471W        W82797  39.833  29.700  11.741
10472W        W82798  23.119  40.906  12.470
10473W        W82799  12.274  36.428   1.688
10474W        W82800  13.832  44.102  10.737
10475W        W82801  36.338  25.094  12.373
10476W        W82802  16.842   9.435   3.036
10477W        W82803   2.426  21.131   9.878
10478W        W82804  16.032  31.105  13.549
10479W        W82805  38.799   5.350  10.689
10480W        W82806  37.919  37.301  13.112
10481W        W82807  42.404  33.219  12.414
10482W        W82808  39.552  17.667  14.556
10483W        W82809   9.360  32.093  13.863
10484W        W82810  22.024  32.876  13.035
10485W        W82811  19.354  18.130  12.952
10486W        W82812  33.863  40.865   0.352
10487W        W82813  39.410  37.137  11.370
10488W        W82814   4.293  36.146   4.854
10489W        W82815  26.544  18.289   1.183
10490W        W82816  12.313  34.862  14.095
10491W        W82817  41.417  26.933   3.649
10492W        W82818   7.732   8.780  14.412
10493W        W82819  36.345   3.556  14.268
10494W        W82820   5.363   2.766   2.379
10495W        W82821  39.189  12.428   0.381
10496W        W82822  39.956  42.427  13.884
10497W        W82823  38.530  44.064  10.123
10498W        W82824  35.469  38.845  14.449
10499W        W82825  29.795  39.492  12.184
10500W        W82826  36.044  32.539  14.335
10501W        W82827   7.326  42.759   4.887
10502W        W82828  27.886  22.817   2.841
10503W        W82829   3.721  33.555   2.655
10504W        W82830  17.012   4.965   0.462
10505W        W82831  21.945  32.656   4.160
10506W        W82832  31.536  44.448  10.541
10507W        W82833  36.083  40.518  13.038
10508W        W82834  32.602  28.475   2.667
10509W        W82835   0.265  18.147   2.383
10510W        W82836  41.023  10.789  12.556
10511W        W82837  10.057  15.132  13.357
10512W        W82838  17.159  17.208   3.502
10513W        W82839  15.678  32.500  13.523
10514W        W82840  29.351  27.716   3.639
10515W        W82841   8.644  16.397   3.656
10516W        W82842  13.176  18.796   1.731
10517W        W82843  29.961  22.814  13.721
10518W        W82844  31.120   9.437   0.997
10519W        W82845  20.589  13.736   3.912
10520W        W82846   5.865  38.584  14.279
10521W        W82847  31.602  15.254  14.068
10522W        W82848  14.796  29.564  12.426
10523W        W82849  33.533   9.948  11.260
10524W        W82850  36.923  19.284  14.356
10525W        W82851  30.236   8.623   2.360
10526W        W82852  18.052  13.692  14.410
10527W        W82853  29.634   7.166   4.941
10528W        W82854  42.965  38.637   2.257
10529W        W82855  22.643  36.795   2.745
10530W        W82856   6.969   8.163   4.361
10531W        W82857  10.863  40.833  14.053
10532W        W82858  29.902  38.580  12.926
10533W        W82859  37.008  25.963   0.385
10534W        W82860  29.076  32.970   3.823
10535W        W82861  44.387  36.598   1.296
10536W        W82862  34.465   0.950   4.477
10537W        W82863  27.032  16.103  10.399
10538W        W82864  18.340  35.552   2.915
10539W        W82865  17.520  40.632   0.258
10540W        W82866  12.758  30.636   1.819
10541W        W82867   2.413  38.516  10.681
10542W        W82868  27.944   4.382   3.749
10543W        W82869  35.636   6.338  14.873
10544W        W82870  41.885  41.585   4.448
10545W        W82871   6.742  30.571  12.088
10546W        W82872  24.956   2.444  11.211
10547W        W82873  41.540  41.159  11.859
10548W        W82874  15.226  41.114   1.886
10549W        W82875  28.570  24.059   2.162
10550W        W82876  41.981  13.412  10.663
10551W        W82877  18.695  33.438   4.123
10552W        W82878  10.805  37.606   1.315
10553W        W82879  44.825  35.989   0.237
10554W        W82880  33.942  24.099  12.706
10555W        W82881  36.356  42.501  13.004
10556W        W82882  21.152  27.637  14.295
10557W        W82883  33.139  38.135   0.854
10558W        W82884  13.576  32.000  13.328
10559W        W82885   3.520  37.369  11.170
10560W        W82886  31.662  33.914  12.904
10561W        W82887  39.816  33.154  13.293
10562W        W82888  37.466  21.206  12.104
10563W        W82889  15.755  39.698   2.702
10564W        W82890  38.419  30.920  12.833
10565W        W82891  10.108   6.970   3.227
10566W        W82892  22.490   9.247  11.174
10567W        W82893  20.974  35.522   2.679
10568W        W82894   1.912   3.980  13.707
10569W        W82895  24.178  18.100  13.918
10570W        W82896  15.340  34.659   0.394
10571W        W82897  15.157   9.387   0.782
10572W        W82898   0.744  22.047  10.122
10573W        W82899  36.912  15.019   3.709
10574W        W82900   7.348  20.627  10.541
10575W        W82901  23.213  36.880   3.708
10576W        W82902  30.980  23.038  13.842
10577W        W82903   6.266  29.074  12.625
10578W        W82904  37.106  26.183  14.143
10579W        W82905   8.450  23.584   3.392
10580W        W82906   4.464  17.518  11.973
10581W        W82907  18.202  15.677  14.603
10582W        W82908  15.828  43.959  11.013
10583W        W82909  41.436  13.068  13.398
10584W        W82910  43.392  41.072  13.863
10585W        W82911  19.759   4.695   2.831
10586W        W82912  18.558  40.368   2.211
10587W        W82913  25.616  10.103  10.900
10588W        W82914  18.406   4.926  12.551
10589W        W82915  37.361  27.431   1.547
10590W        W82916   9.415  37.316   0.390
10591W        W82917  27.346  38.991   0.403
10592W        W82918  40.370   6.392  12.782
10593W        W82919  23.721  25.182  13.477
10594W        W82920  33.712  17.510   5.105
10595W        W82921  14.098   6.859   1.207
10596W        W82922  27.399  26.049   5.031
10597W        W82923  20.072   7.805   4.217
10598W        W82924  18.789  43.971  13.969
10599W        W82925  39.357  26.566   4.522
10600W        W82926  14.672  28.467   2.308
10601W        W82927  21.493   7.130   0.370
10602W        W82928  31.041  35.406   0.481
10603W        W82929  23.334  24.477  13.019
10604W        W82930  34.426  35.043  12.844
10605W        W82931  39.339  24.215  13.095
10606W        W82932  35.625  20.812  10.724
10607W        W82933  36.864   8.282  11.176
10608W        W82934  35.894  17.692   0.443
10609W        W82935  42.104  12.163  10.514
10610W        W82936  39.289  19.451  13.450
10611W        W82937  40.641   9.428  10.804
10612W        W82938  25.477   2.656   1.869
10613W        W82939  41.876   1.822  13.610
10614W        W82940  38.470   5.918  11.987
10615W        W82941  36.424   0.394   0.678
10616W        W82942  25.510  38.759  12.432
10617W        W82943   2.577  15.742  14.500
10618W        W82944  30.052   5.166  14.597
10619W        W82945  10.615  13.362  12.139
10620W        W82946   8.886   4.005  10.871
10621W        W82947  24.558  39.424  14.229
10622W        W82948  27.746  13.415   0.041
10623W        W82949  33.396  30.353  13.588
10624W        W82950  20.543  14.596  11.846
10625W        W82951  21.750  40.526   1.316
10626W        W82952  28.936   9.429   0.277
10627W        W82953  12.498  10.204   4.712
10628W        W82954  26.413  12.702  10.604
10629W        W82955  36.280  12.131  12.624
10630W        W82956  37.026  22.825   1.415
10631W        W82957  10.259  13.219   1.739
10632W        W82958  22.072  30.196  13.389
10633W        W82959  44.805   6.361   1.748
10634W        W82960   5.269  34.508   2.354
10635W        W82961   5.407  15.739  12.194
10636W        W82962  23.966   3.365  10.647
10637W        W82963  34.489   5.151   2.338
10638W        W82964   1.921   1.253   3.655
10639W        W82965  30.141  24.465   3.592
10640W        W82966  42.767  38.853  11.640
10641W        W82967  33.045  39.696  13.927
10642W        W82968  16.079  40.888  11.125
10643W        W82969  40.110   5.370   2.289
10644W        W82970  20.924   8.719   0.461
10645W        W82971  42.045  11.741  12.723
10646W        W82972  32.811   0.319   3.139
10647W        W82973   7.238  25.672   4.558
10648W        W82974  28.080  27.659   2.408
10649W        W82975  30.397  38.838   3.877
10650W        W82976  18.669  22.260   1.404
10651W        W82977  42.011  40.532  13.113
10652W        W82978  42.561  34.463   2.449
10653W        W82979  21.764  43.558   0.904
10654W        W82980  23.995   9.833  14.293
10655W        W82981  32.132  36.986  12.152
10656W        W82982  28.402  33.475   0.330
10657W        W82983  34.895  10.145  14.100
10658W        W82984   8.126   9.758  14.802
10659W        W82985  10.539  36.379   4.667
10660W        W82986  18.944   3.484   4.201
10661W        W82987  21.111  40.712   0.858
10662W        W82988   1.845  15.872   1.900
10663W        W82989  11.743   7.178   4.753
10664W        W82990  27.685  39.176   1.351
10665W        W82991  21.937  22.191   3.389
10666W        W82992  28.542   5.251   4.644
10667W        W82993   6.284  41.099   2.892
10668W        W82994  44.313  16.640   1.695
10669W        W82995  30.575  33.571  14.022
10670W        W82996  24.710  12.628  13.154
10671W        W82997  25.559   5.880   4.622
10672W        W82998  44.252  26.158  12.033
10673W        W82999  16.367   0.410   1.147
10674W        W83000  15.383  30.480  13.398
10675W        W83001   9.745  12.877  13.960
10676W        W83002  30.327   5.996  12.758
10677W        W83003  35.013   4.976   2.514
10678W        W83004  39.861  24.160  13.907
10679W        W83005  30.603  42.304  13.475
10680W        W83006  19.267  22.294  11.342
10681W        W83007  39.577  34.878   1.024
10682W        W83008  20.285  24.439  14.588
10683W        W83009  34.114   9.083  11.470
10684W        W83010  38.535  25.272  12.055
10685W        W83011  18.749  33.961  13.319
10686W        W83012  44.035   3.372   3.193
10687W        W83013  18.067  28.093  12.899
10688W        W83014   0.653   9.995   5.499
10689W        W83015  37.037   0.669   4.057
10690W        W83016  34.448  13.334  10.604
10691W        W83017  36.436  18.773  11.951
10692W        W83018  32.637   1.349  14.623
10693W        W83019  38.608  23.214   1.387
10694W        W83020  20.350  42.516   0.740
10695W        W83021  34.325  10.323  10.705
10696W        W83022  19.587  36.502  13.147
10697W        W83023  20.097   3.460  12.678
10698W        W83024  40.365  30.094  14.006
10699W        W83025  23.648   1.900   0.803
10700W        W83026  35.059   1.008  14.806
10701W        W83027   3.376  10.444   0.995
10702W        W83028  19.682   3.197  13.858
10703W        W83029  12.097  34.202  12.324
10704W        W83030  27.664   8.167   0.960
10705W        W83031  37.088  16.094  10.613
10706W        W83032   9.865   4.866  10.510
10707W        W83033   6.778  22.660  12.934
10708W        W83034  18.758   2.944  11.474
10709W        W83035   6.343  15.868   0.177
10710W        W83036  26.525  35.915  13.572
10711W        W83037  42.038   1.042   0.903
10712W        W83038   8.297   5.534  13.126
10713W        W83039  39.481  21.524  14.554
10714W        W83040  36.419  21.170  11.650
10715W        W83041   2.438  25.527  10.618
10716W        W83042  25.986  29.856  10.533
10717W        W83043  31.044  11.685   2.369
10718W        W83044  22.099  26.365  11.931
10719W        W83045  18.306  34.281  12.408
10720W        W83046  27.621  27.405   5.124
10721W        W83047  24.622  29.647   1.000
10722W        W83048  18.139   7.773   4.638
10723W        W83049  11.593  42.930  14.000
10724W        W83050  38.467  27.087  11.953
10725W        W83051  16.400  40.874  10.717
10726W        W83052  13.449  25.953   2.896
10727W        W83053  36.879   3.017   0.013
10728W        W83054  32.074  26.937  10.432
10729W        W83055  35.429  42.520  13.432
10730W        W83056   5.182  21.075  12.905
10731W        W83057  14.854  44.363  10.131
10732W        W83058   7.157  31.911   2.279
10733W        W83059  34.394  17.605  13.448
10734W        W83060   7.275  23.488  13.788
10735W        W83061  19.604  24.556  11.582
10736W        W83062  17.823  43.462   1.865
10737W        W83063  22.501  40.503  13.575
10738W        W83064  39.574   4.322   4.183
10739W        W83065  23.078  35.763   0.204
10740W        W83066   0.066  16.852  12.115
10741W        W83067   9.723  14.063   3.133
10742W        W83068  13.327  23.554  14.017
10743W        W83069  10.319  19.630  11.423
10744W        W83070   7.015  22.023   4.404
10745W        W83071  14.746   7.478   0.079
10746W        W83072   3.206  14.107  14.916
10747W        W83073  13.380  13.112   4.373
10748W        W83074  18.682  19.664  12.593
10749W        W83075  29.113  33.849  11.595
10750W        W83076  35.570  11.146   3.677
10751W        W83077   2.803   9.204  11.864
10752W        W83078  12.867  22.164   0.289
10753W        W83079  10.925  11.845  12.534
10754W        W83080  14.213  30.110  12.898
10755W        W83081  32.726  34.443  12.385
10756W        W83082  23.077  25.681  14.804
10757W        W83083   6.853  11.353  14.802
10758W        W83084  19.082  28.148  12.140
10759W        W83085   7.970  13.786  12.465
10760W        W83086  27.598  15.372  13.342
10761W        W83087  44.200   9.578   1.748
10762W        W83088  42.966  38.169  10.828
10763W        W83089   4.131  42.662  13.857
10764W        W83090  36.634  13.224   2.765
10765W        W83091  24.970  32.976  11.604
10766W        W83092  29.097   6.906   2.796
10767W        W83093  25.997   8.752   3.112
10768W        W83094   0.950   3.677   5.006
10769W        W83095  22.473  12.178   1.839
10770W        W83096  33.832  31.086   1.259
10771W        W83097   4.763  16.689   4.543
10772W        W83098  38.304  41.990  14.250
10773W        W83099  34.811  21.633   0.321
10774W        W83100  32.556  18.480   2.338
10775W        W83101  12.404  42.930  10.716
10776W        W83102   1.954  42.190  14.802
10777W        W83103  41.486  43.306   2.194
10778W        W83104   2.934  43.934  13.474
10779W        W83105   4.910   8.875  11.986
10780W        W83106  26.243  36.630  14.187
10781W        W83107  30.864  33.984  13.928
10782W        W83108  22.796  10.665  12.019
10783W        W83109  27.033   3.129  11.110
10784W        W83110   3.803   9.490   4.581
10785W        W83111  19.529  20.467  11.223
10786W        W83112  40.726   0.721  10.281
10787W        W83113  29.690  40.642   1.444
10788W        W83114   6.912  21.362  11.516
10789W        W83115  34.164   3.779   0.203
10790W        W83116  12.719   6.028   2.344
10791W        W83117  12.284  42.460   0.225
10792W        W83118   2.563  33.367  10.153
10793W        W83119  40.038  37.511   1.971
10794W        W83120  32.382  23.250  12.362
10795W        W83121  44.769  42.380   0.357
10796W        W83122  29.984  30.486   3.166
10797W        W83123  42.629  36.695  12.624
10798W        W83124  11.880  44.250   0.410
10799W        W83125  15.654   7.660  10.729
10800W        W83126  26.025  13.853   3.647
10801W        W83127  40.063   2.366   3.263
10802W        W83128   3.101  15.788   3.326
10803W        W83129  10.321   8.337   1.434
10804W        W83130  41.122  19.302  10.712
10805W        W83131  28.644   7.840  14.912
10806W        W83132  42.111  26.755   5.076
10807W        W83133   3.932   1.100  13.981
10808W        W83134   3.367  14.125  11.155
10809W        W83135   5.432  35.229   1.525
10810W        W83136  14.181  28.478  11.980
10811W        W83137  11.920   3.974   4.116
10812W        W83138  26.959  33.979   2.875
10813W        W83139  19.572  25.469   1.809
10814W        W83140  17.095  44.450   1.904
10815W        W83141   5.125  30.925   1.725
10816W        W83142  34.945   0.887   4.674
10817W        W83143  28.020  23.603   3.257
10818W        W83144  27.359  19.286  12.519
10819W        W83145  21.430  27.366   9.965
10820W        W83146  42.851  40.521   4.481
10821W        W83147  28.142   9.688  13.922
10822W        W83148   8.291  44.368  12.167
10823W        W83149  23.228  16.837   0.519
10824W        W83150  12.379  25.366  11.441
10825W        W83151  34.093  31.569  12.889
10826W        W83152  23.609  26.214  13.420
10827W        W83153  14.280   1.721   4.643
10828W        W83154  32.086  22.132  12.934
10829W        W83155  12.739  32.106  10.072
10830W        W83156  28.172  34.674  12.927
10831W        W83157  14.161  14.264   1.854
10832W        W83158  11.213   3.968   4.747
10833W        W83159   1.670  18.263   0.414
10834W        W83160  36.729  43.559   3.126
10835W        W83161  41.370  37.949   2.658
10836W        W83162  15.513  19.524  10.164
10837W        W83163   8.245  43.279  12.969
10838W        W83164   2.787  33.879  12.432
10839W        W83165  34.620  24.305  14.312
10840W        W83166  11.729  44.817  12.390
10841W        W83167  38.071   3.661   4.491
10842W        W83168  22.524  19.159  14.429
10843W        W83169   9.189  13.594  11.923
10844W        W83170   6.332  25.199  12.376
10845W        W83171  13.539  17.869  12.704
10846W        W83172   6.883  25.259   1.680
10847W        W83173  21.232  35.625   4.612
10848W        W83174  37.300   0.984  13.321
10849W        W83175  30.632   4.619  13.892
10850W        W83176   2.698   5.079   0.843
10851W        W83177  20.034   7.293   0.834
10852W        W83178   2.231  36.285   2.355
10853W        W83179  10.912  24.049   1.334
10854W        W83180  20.641  15.254  14.959
10855W        W83181  21.806   3.031   4.234
10856W        W83182  20.097  21.792   3.878
10857W        W83183  40.277   0.899   0.513
10858W        W83184  14.675  34.564  13.884
10859W        W83185  25.570  25.468   0.987
10860W        W83186  11.816  19.046   1.834
10861W        W83187  23.164   1.645   3.409
10862W        W83188  21.702  36.509   2.442
10863W        W83189   4.001   6.290  14.370
10864W        W83190  39.376  17.089  10.906
10865W        W83191   6.414   7.460  10.474
10866W        W83192  32.530  27.217  12.221
10867W        W83193  18.308  17.460   0.440
10868W        W83194  32.619  37.863   2.324
10869W        W83195  34.338  10.297  11.537
10870W        W83196  30.971  16.602  11.282
10871W        W83197  11.306  17.026   4.713
10872W        W83198  30.454  14.303   1.910
10873W        W83199   5.410  44.754  10.920
10874W        W83200  18.137  40.523  12.380
10875W        W83201  37.009  41.865   3.380
10876W        W83202  19.250  40.987  13.762
10877W        W83203  36.917  16.838  14.107
10878W        W83204   6.698  41.799   1.339
10879W        W83205  24.006  40.294  11.907
10880W        W83206  27.203  42.795  12.596
10881W        W83207  41.790  39.908   3.245
10882W        W83208   3.690   2.025  10.309
10883W        W83209   7.347   7.874   3.108
10884W        W83210  24.949  10.684  13.477
10885W        W83211  36.244  18.940  11.510
10886W        W83212   4.150  44.476  13.345
10887W        W83213  40.963  37.011  11.613
10888W        W83214  39.595  15.715   4.828
10889W        W83215  29.677  21.101   0.978
10890W        W83216  25.710  17.635   9.726
10891W        W83217  29.063  14.234   2.611
10892W        W83218  40.821  40.389   0.379
10893W        W83219   0.874  20.042   4.888
10894W        W83220  36.479  19.180   1.230
10895W        W83221  30.566  38.984   1.881
10896W        W83222  44.985   8.183   0.687
10897W        W83223  18.161  21.503  14.806
10898W        W83224  21.494  27.646  13.877
10899W        W83225  42.473  22.777  10.811
10900W        W83226  41.942  25.613   2.215
10901W        W83227   4.923  13.928  12.489
10902W        W83228  17.842  39.491  12.386
10903W        W83229  22.500   3.665  13.386
10904W        W83230  43.899  21.617  13.589
10905W        W83231  36.840  37.073   2.832
10906W        W83232  36.398  41.938   3.600
10907W        W83233   6.972  42.781   3.203
10908W        W83234  24.560  17.865   5.471
10909W        W83235   2.929   7.951  11.700
10910W        W83236  14.314  39.697   3.670
10911W        W83237   3.944  16.829  11.741
10912W        W83238   7.193  22.453  13.923
10913W        W83239  30.131  20.155  11.958
10914W        W83240  35.605  35.404   0.275
10915W        W83241  44.729   3.690  14.180
10916W        W83242   6.713   7.765   4.143
10917W        W83243  37.007  41.792   1.920
10918W        W83244  18.710   2.326  14.139
10919W        W83245  30.484  18.547  13.029
10920W        W83246  35.540   7.930   2.642
10921W        W83247  24.184  11.573   4.010
10922W        W83248   1.294  36.260  14.527
10923W        W83249   4.454  17.471   2.248
10924W        W83250  12.389  33.346  10.559
10925W        W83251   7.809   7.084   3.176
10926W        W83252  16.173  11.358  10.696
10927W        W83253  35.041  33.946   2.411
10928W        W83254  26.254  40.288  14.078
10929W        W83255  15.718  34.421   1.846
10930W        W83256   1.677  24.014  12.710
10931W        W83257  44.933  23.469   1.175
10932W        W83258  19.327  23.504   0.164
10933W        W83259   2.025  29.208  10.704
10934W        W83260  43.058  44.255   3.635
10935W        W83261   7.907   4.987  12.283
10936W        W83262   2.707   3.844   3.116
10937W        W83263  13.251  29.454   4.678
10938W        W83264  18.136   7.661   1.062
10939W        W83265  18.759  10.989  13.965
10940W        W83266   2.821  30.786  12.271
10941W        W83267  13.088  11.329   3.171
10942W        W83268  15.274  26.998  14.411
10943W        W83269  13.168  25.703  14.464
10944W        W83270  13.256  43.815   2.632
10945W        W83271  39.809   1.934  14.015
10946W        W83272  29.712   0.356   3.118
10947W        W83273   7.675  32.214  11.086
10948W        W83274  20.546  16.156  12.779
10949W        W83275  39.118  16.665   1.241
10950W        W83276  23.586  23.645  13.031
10951W        W83277  37.844  42.966  14.412
10952W        W83278  28.219  12.629   9.910
10953W        W83279   3.989  41.233   3.433
10954W        W83280  21.635  41.588  13.571
10955W        W83281  27.208  31.576   4.000
10956W        W83282   5.866  33.368  12.381
10957W        W83283  29.687   9.247  14.479
10958W        W83284  11.759   6.833  11.642
10959W        W83285  14.152  14.133  11.941
10960W        W83286  16.715  25.978   3.880
10961W        W83287   0.701  41.272  11.139
10962W        W83288   2.675  34.739  13.391
10963W        W83289  31.226  34.196   4.873
10964W        W83290   2.262  33.941  13.425
10965W        W83291  31.172  42.776  13.074
10966W        W83292  41.353  11.763   3.644
10967W        W83293   6.648  43.697   1.823
10968W        W83294  44.499   1.991  13.729
10969W        W83295  27.476  28.419   5.051
10970W        W83296   0.464  31.318  14.613
10971W        W83297   4.400  24.544   4.223
10972W        W83298  44.570   7.421   4.117
10973W        W83299   1.982  18.223   2.883
10974W        W83300  17.331  29.898   3.086
10975W        W83301   1.963  12.626  10.448
10976W        W83302  10.877   8.266  11.623
10977W        W83303  40.382  40.809  12.414
10978W        W83304  33.257  34.493   1.656
10979W        W83305  28.679  43.734   0.030
10980W        W83306  15.366  20.533   2.330
10981W        W83307  14.792  17.669  11.711
10982W        W83308  41.383   6.725  13.324
10983W        W83309  27.708  32.078   0.023
10984W        W83310  24.061  11.507  11.630
10985W        W83311   6.176  42.972   2.341
10986W        W83312  41.727  24.124  11.999
10987W        W83313   0.341  27.502   4.303
10988W        W83314  37.473  10.111   3.804
10989W        W83315  18.428  20.264  12.013
10990W        W83316  12.875   1.916  11.237
10991W        W83317  24.174  18.171   9.947
10992W        W83318  27.687  27.465  13.782
10993W        W83319  42.968  10.383   1.841
10994W        W83320  20.620  31.873   2.131
10995W        W83321  43.714  42.391   0.281
10996W        W83322  19.091  18.945  14.009
10997W        W83323   1.706  42.721   1.536
10998W        W83324   0.425  31.872   0.255
10999W        W83325  38.777  23.576   5.114
11000W        W83326  34.367  34.476   1.135
11001W        W83327  37.995   1.412   4.626
11002W        W83328  22.588  35.036  12.585
11003W        W83329  27.175  26.948  13.373
11004W        W83330  44.800  14.775  13.988
11005W        W83331  34.015  15.297   2.211
11006W        W83332   6.013  33.630  14.946
11007W        W83333  14.081   6.725  11.564
11008W        W83334  44.920  42.936   0.496
11009W        W83335   5.076  13.447  12.485
11010W        W83336  35.003  39.340  14.127
11011W        W83337  38.888  40.926  14.306
11012W        W83338  14.124  30.845   2.721
11013W        W83339   0.180  11.782  13.045
11014W        W83340   6.137  20.296  14.422
11015W        W83341  32.441  21.219   1.159
11016W        W83342  29.962  18.599   0.313
11017W        W83343  18.752  11.414   1.784
11018W        W83344  27.467  13.043   3.738
11019W        W83345  27.727  25.996  10.891
11020W        W83346  37.869  38.804  10.474
11021W        W83347   3.016  43.875  12.124
11022W        W83348  40.329  42.210   0.943
11023W        W83349   4.694   6.520   3.669
11024W        W83350  16.858  44.389  13.477
11025W        W83351   6.977  12.373   0.809
11026W        W83352  12.839  44.003   1.910
11027W        W83353  13.401   6.872  11.986
11028W        W83354   5.723   3.933   1.940
11029W        W83355  36.503  25.688  12.008
11030W        W83356   6.230  14.615   3.570
11031W        W83357  12.598   3.428   3.515
11032W        W83358   9.630  14.247   1.419
11033W        W83359  31.544  17.787  13.605
11034W        W83360  41.472  16.304  13.862
11035W        W83361  19.707   1.349   0.339
11036W        W83362  13.151   0.471  14.533
11037W        W83363  34.547  19.110   4.142
11038W        W83364  21.081  34.592   4.527
11039W        W83365  14.088  35.496  12.450
11040W        W83366  21.697  20.294  14.522
11041W        W83367  35.356   6.292   4.626
11042W        W83368   2.981   6.934  12.446
11043W        W83369  11.553  41.089  12.598
11044W        W83370  16.175  30.162   4.674
11045W        W83371  13.783  35.582   4.715
11046W        W83372   0.495   8.126   2.276
11047W        W83373  29.172  22.555   0.371
11048W        W83374  29.408  31.146   2.872
11049W        W83375  12.172  36.684   0.390
11050W        W83376  34.267  29.841  14.409
11051W        W83377  13.926  22.910  10.510
11052W        W83378  15.393  36.694   1.025
11053W        W83379  35.105  15.449   2.878
11054W        W83380   9.867  34.391   1.856
11055W        W83381  26.038  11.350   0.908
11056W        W83382  24.176  29.910   2.771
11057W        W83383  16.161  42.008   4.591
11058W        W83384  32.495  21.639   0.354
11059W        W83385   3.870  31.948   0.203
11060W        W83386   8.652   2.472   3.148
11061W        W83387  22.763  27.086   2.381
11062W        W83388  16.327  30.416  12.015
11063W        W83389  12.070  23.453   1.761
11064W        W83390  39.309  17.154   3.083
11065W        W83391  30.969   6.517   4.153
11066W        W83392  18.488  12.097   4.196
11067W        W83393  23.264  36.908  14.410
11068W        W83394  14.195  37.845   3.125
11069W        W83395  18.729  20.599  14.227
11070W        W83396  22.231  14.862   0.290
11071W        W83397  31.353  26.180   3.273
11072W        W83398  19.064  25.869   3.512
11073W        W83399  41.862  39.327  11.696
11074W        W83400   1.023   0.030  12.052
11075W        W83401  38.907   4.671   2.138
11076W        W83402  14.768  28.764   3.714
11077W        W83403  19.283  36.638   1.001
11078W        W83404  36.058  40.410   1.731
11079W        W83405  18.859  33.565  13.836
11080W        W83406   7.198  41.200   1.440
11081W        W83407  27.148  19.782  12.455
11082W        W83408  42.835  12.827  13.537
11083W        W83409  32.020   6.403   0.008
11084W        W83410   3.997  11.240   2.325
11085W        W83411  21.233  27.150   2.288
11086W        W83412  39.920  30.111   0.183
11087W        W83413   6.288  40.346  10.011
11088W        W83414  30.128  27.662   4.074
11089W        W83415  42.324  14.249  10.846
11090W        W83416  23.224  13.202  11.754
11091W        W83417  23.925   1.486  14.989
11092W        W83418  12.402  12.852   2.445
11093W        W83419  42.423  21.749  13.566
11094W        W83420  33.920  26.319  12.390
11095W        W83421  19.560  29.658  12.390
11096W        W83422  41.495  18.514  14.852
11097W        W83423   2.204  31.919   0.334
11098W        W83424  19.472  36.022  11.450
11099W        W83425  33.031   4.835  13.572
11100W        W83426  31.978  15.819   0.752
11101W        W83427  39.425  14.286   5.098
11102W        W83428   8.912  44.900   2.074
11103W        W83429  31.862  25.242  14.543
11104W        W83430   1.507   2.829   4.677
11105W        W83431  36.178   1.168   1.692
11106W        W83432  16.417  10.240  10.967
11107W        W83433   3.330   3.614  11.235
11108W        W83434  36.196   3.719  11.982
11109W        W83435  32.570   6.448   0.224
11110W        W83436  41.555   7.803  13.215
11111W        W83437  34.848  38.008   0.873
11112W        W83438  34.341   3.364   0.705
11113W        W83439  26.345  28.183   1.373
11114W        W83440  33.438  44.795   3.841
11115W        W83441  12.078   7.900  14.976
11116W        W83442  43.933  27.124   1.808
11117W        W83443   1.923  25.078   0.121
11118W        W83444  37.154  21.071   1.697
11119W        W83445  34.808  29.158   2.378
11120W        W83446  43.026  40.000  11.377
11121W        W83447  28.789  11.594   1.787
11122W        W83448  28.410   8.334   0.608
11123W        W83449  18.622  19.463   3.083
11124W        W83450   8.332  32.502   0.354
11125W        W83451  27.165  16.356   2.890
11126W        W83452  16.712  12.437   4.213
11127W        W83453  31.631  28.174  12.073
11128W        W83454  14.552  26.344  14.439
11129W        W83455  14.351  29.576   3.168
11130W        W83456   7.273  21.120  10.770
11131W        W83457  32.492   4.771  12.875
11132W        W83458  30.921  28.505  12.504
11133W        W83459  23.019  29.963  10.964
11134W        W83460  34.854  16.490  13.690
11135W        W83461  29.470  26.305  12.663
11136W        W83462  26.319  15.373   3.020
11137W        W83463  34.225  37.306   1.899
11138W        W83464  22.579  40.325  10.209
11139W        W83465  22.179  29.998   2.586
11140W        W83466  25.172  11.794   4.662
11141W        W83467  41.202  36.484   5.060
11142W        W83468  33.680   3.632  11.117
11143W        W83469   3.976  36.989   2.202
11144W        W83470   4.184  34.849   0.029
11145W        W83471  16.776  12.707   3.786
11146W        W83472   7.556  42.341  11.545
11147W        W83473  32.094  19.669   0.027
11148W        W83474   1.007  32.181   3.689
11149W        W83475  38.937  14.338  10.692
11150W        W83476  30.175  17.083  10.683
11151W        W83477  36.615  32.928   0.739
11152W        W83478  15.246  22.696   2.699
11153W        W83479  28.708  20.180  11.039
11154W        W83480  40.066  34.737   2.681
11155W        W83481  21.954  16.303   1.555
11156W        W83482  21.270  40.969   1.837
11157W        W83483   2.957  35.469  11.483
11158W        W83484  40.111  20.538  14.025
11159W        W83485  23.295   4.972   2.319
11160W        W83486   7.157   8.700   5.035
11161W        W83487   8.166  44.324   0.289
11162W        W83488  21.174  18.190   0.474
11163W        W83489   8.946  40.337   1.767
11164W        W83490  31.648  38.080  12.386
11165W        W83491  21.775   4.362   4.334
11166W        W83492  33.952   3.025   0.856
11167W        W83493  32.016  21.556   2.859
11168W        W83494  32.970  29.361   0.072
11169W        W83495   2.809  19.586   2.341
11170W        W83496  15.660   9.624  11.647
11171W        W83497  27.048  44.124   1.211
11172W        W83498  17.071  17.634  10.501
11173W        W83499  41.258   2.030   3.759
11174W        W83500  24.233  20.077   2.407
11175W        W83501  14.912  23.779  12.860
11176W        W83502  36.483  24.887   1.853
11177W        W83503  37.156   6.417  11.535
11178W        W83504  37.498   1.759   1.186
11179W        W83505  18.117  37.170  10.664
11180W        W83506  29.520  21.615  10.551
11181W        W83507  18.723  26.036  12.830
11182W        W83508  31.569  20.693   4.575
11183W        W83509  15.613   2.361   0.434
11184W        W83510  38.572   4.300   1.193
11185W        W83511  26.362  31.901   3.269
11186W        W83512  27.510  39.143   3.102
11187W        W83513  29.123  20.215   4.694
11188W        W83514  14.670  16.117   2.304
11189W        W83515  41.008  36.054  11.649
11190W        W83516  18.560   9.873   3.344
11191W        W83517  10.798  31.602  11.161
11192W        W83518  23.594   3.302   3.601
11193W        W83519  42.265  33.669   2.328
11194W        W83520  32.663  13.683   3.781
11195W        W83521  26.494  17.978   0.343
11196W        W83522  34.764   6.733  10.737
11197W        W83523  20.569   7.439   1.870
11198W        W83524   3.226  26.441  12.388
11199W        W83525  13.231  14.895   3.810
11200W        W83526   5.651  40.348   1.802
11201W        W83527  30.884  22.570  11.139
11202W        W83528  32.077  44.836  13.962
11203W        W83529  12.244  10.198   0.437
11204W        W83530   2.854  15.778   1.642
11205W        W83531   7.496  12.742  13.578
11206W        W83532  44.792  10.163  14.491
11207W        W83533   7.416  25.952   3.264
11208W        W83534   8.347  23.826  10.702
11209W        W83535   3.429  44.751  12.025
11210W        W83536  14.723  24.263  12.002
11211W        W83537  17.984   9.528  11.903
11212W        W83538  31.928  40.926   3.171
11213W        W83539  13.098  20.552  11.579
11214W        W83540   1.665   0.792  14.040
11215W        W83541  31.610   7.423  13.420
11216W        W83542  40.457  21.113  12.657
11217W        W83543  31.611  27.525   2.786
11218W        W83544  29.581  35.763  11.626
11219W        W83545  20.528  17.103   1.211
11220W        W83546  42.410  19.890   4.943
11221W        W83547  20.390  12.121  11.585
11222W        W83548  21.994  24.005   4.557
11223W        W83549  16.384  38.361   2.256
11224W        W83550  32.507  42.962  11.119
11225W        W83551  21.341  42.272   4.709
11226W        W83552  29.130  30.692   2.819
11227W        W83553  17.247   7.772   2.327
11228W        W83554  13.202  44.679   3.255
11229W        W83555  39.520  12.175  12.062
11230W        W83556  36.471  23.002   2.495
11231W        W83557   0.033  42.848   2.349
11232W        W83558  27.926  12.756   4.088
11233W        W83559  29.477  29.883   4.694
11234W        W83560  25.592   1.284  13.541
11235W        W83561   2.977  44.511   0.130
11236W        W83562  25.360  18.319   1.439
11237W        W83563   9.635  43.357  13.428
11238W        W83564   8.346  31.500  12.935
11239W        W83565  24.613  34.437  12.024
11240W        W83566  28.017  28.197  12.556
11241W        W83567  12.344  14.088   2.799
11242W        W83568  28.210  13.179   3.264
11243W        W83569  14.401  36.455   2.681
11244W        W83570  41.417   9.261  10.695
11245W        W83571  27.553  27.961  12.409
11246W        W83572  21.573   2.859   0.542
11247W        W83573  17.283  40.846  10.476
11248W        W83574  35.529  34.433  12.120
11249W        W83575  43.041  25.073  13.987
11250W        W83576  38.849   2.276   3.580
11251W        W83577  36.339   3.645   3.608
11252W        W83578   2.398  29.798  13.128
11253W        W83579   1.154   9.746   0.814
11254W        W83580  41.055  41.072  11.644
11255W        W83581  36.449   2.513  11.513
11256W        W83582  24.194  33.514  14.805
11257W        W83583  33.207  30.656   3.775
11258W        W83584  30.674  18.076  11.004
11259W        W83585  17.142  30.614  12.134
11260W        W83586  21.466  22.126   3.163
11261W        W83587  24.411  34.805   1.287
11262W        W83588  33.563  37.001   1.492
11263W        W83589  38.353  19.152  13.839
11264W        W83590  10.063  30.099  13.905
11265W        W83591   8.600  40.286  11.674
11266W        W83592  31.612   5.750   3.200
11267W        W83593  12.424  14.347  10.559
11268W        W83594   5.226  35.638   2.973
11269W        W83595  12.778  42.044  11.237
11270W        W83596   9.362  19.641  11.111
11271W        W83597  19.147  11.301   3.259
11272W        W83598  41.977   4.832   0.417
11273W        W83599  14.755  32.990   4.473
11274W        W83600   6.561   1.432   1.337
11275W        W83601  13.649   0.471  14.331
11276W        W83602  30.511  17.691   3.687
11277W        W83603  22.098  41.108   2.017
11278W        W83604  28.142  27.171   2.227
11279W        W83605  16.609  10.901   1.001
11280W        W83606  25.286   2.839  12.508
11281W        W83607   1.932   9.157  11.122
11282W        W83608   9.594  17.691   1.049
11283W        W83609   7.819  16.724   0.338
11284W        W83610  34.545  40.321  11.605
11285W        W83611  12.861  14.274  11.988
11286W        W83612   3.819  10.429  12.501
11287W        W83613  11.413   5.227  14.595
11288W        W83614  21.148  13.357   2.704
11289W        W83615   8.724  21.789  14.323
11290W        W83616  29.091  27.458  14.970
11291W        W83617  25.489  37.535   1.402
11292W        W83618  27.646  42.275   0.950
11293W        W83619   2.316  20.503   3.799
11294W        W83620  19.917  39.711  14.868
11295W        W83621   2.172  44.014   2.295
11296W        W83622  42.295   1.703  11.616
11297W        W83623  21.625  24.954  13.550
11298W        W83624   4.935  11.521   2.131
11299W        W83625  19.316  10.663  11.528
11300W        W83626  28.981  14.702   3.327
11301W        W83627  28.649  42.513  12.959
11302W        W83628   3.969  44.704   2.771
11303W        W83629   2.478   4.688   2.318
11304W        W83630  18.225  44.511  14.589
11305W        W83631   3.444  17.238  10.981
11306W        W83632  11.402  26.724  12.116
11307W        W83633  14.164  27.799   3.726
11308W        W83634  43.687  25.594  13.101
11309W        W83635  22.980  20.079   0.390
11310W        W83636  30.061   8.877  12.525
11311W        W83637  15.862   8.793  10.243
11312W        W83638  18.484  29.602  11.417
11313W        W83639  41.920  15.178   4.785
11314W        W83640  31.527  23.951   4.547
11315W        W83641  17.119  39.504  12.913
11316W        W83642  38.715   1.132  11.228
11317W        W83643  12.780  15.808   1.827
11318W        W83644  14.860  33.555   0.842
11319W        W83645  38.345  27.012  10.568
11320W        W83646  29.641   4.313   4.554
11321W        W83647  33.864  17.621   0.848
11322W        W83648  43.820  21.196  14.833
11323W        W83649   4.807  40.054   0.815
11324W        W83650  34.979  15.233  14.144
11325W        W83651  26.001   8.688  12.231
11326W        W83652   0.459  31.135   4.339
11327W        W83653   9.136  27.693   0.964
11328W        W83654  28.998  44.096  14.841
11329W        W83655  10.888  13.128  10.814
11330W        W83656  11.311  22.467  12.399
11331W        W83657   6.466  29.169  13.535
11332W        W83658  41.546  24.524  13.378
11333W        W83659  15.857   3.196   1.456
11334W        W83660  15.780  31.210  11.174
11335W        W83661  24.518   9.955   3.646
11336W        W83662  32.587  32.264   1.789
11337W        W83663   4.132  39.915   1.714
11338W        W83664  11.274  28.944  11.010
11339W        W83665  25.157   4.159   3.441
11340W        W83666   4.373  26.176  11.654
11341W        W83667  21.559  12.582   0.470
11342W        W83668   1.480  16.199  10.974
11343W        W83669  37.776  13.264   5.101
11344W        W83670  25.479  18.740  11.473
11345W        W83671   0.803  20.841   3.721
11346W        W83672  13.702  35.935   3.896
11347W        W83673  19.398  36.577   5.020
11348W        W83674  28.626  22.774  11.562
11349W        W83675  12.279  41.046   1.747
11350W        W83676  41.020  33.858   4.614
11351W        W83677  40.111  41.356   2.219
11352W        W83678  30.051  44.048   3.421
11353W        W83679  22.721  27.712  12.027
11354W        W83680  18.134  16.277  11.437
11355W        W83681  12.811  41.359  12.531
11356W        W83682  40.008  18.479   0.916
11357W        W83683  39.410  36.049  14.867
11358W        W83684  27.148   5.713  13.751
11359W        W83685  19.752  41.719   3.295
11360W        W83686  32.416  10.821   3.814
11361W        W83687  35.140  28.974   3.222
11362W        W83688  20.591   4.007  12.377
11363W        W83689   2.272  19.978   3.767
11364W        W83690   7.750  21.504  12.274
11365W        W83691  24.311  35.692   1.274
11366W        W83692   5.725  12.280  11.647
11367W        W83693  21.723  32.988  12.626
11368W        W83694  11.664   3.134   1.858
11369W        W83695  13.166  34.907   0.732
11370W        W83696  40.950  25.565  10.571
11371W        W83697  26.402  36.681  11.381
11372W        W83698  39.016   3.779   4.575
11373W        W83699  22.728  28.649   4.282
11374W        W83700  11.244   6.007   4.572
11375W        W83701  31.031  29.017  10.697
11376W        W83702  44.237  18.232   2.399
11377W        W83703  27.166  12.760  13.997
11378W        W83704  19.002  26.344   0.364
11379W        W83705  10.009  25.516   4.324
11380W        W83706  27.227  20.258   2.300
11381W        W83707  14.245  16.988   2.235
11382W        W83708  18.222   7.346   0.023
11383W        W83709   9.605   7.318  11.559
11384W        W83710  31.032  24.282   4.711
11385W        W83711  29.350   2.689   4.130
11386W        W83712  27.015  39.123   1.806
11387W        W83713  27.169  33.852  10.699
11388W        W83714   0.805  17.304  10.841
11389W        W83715  30.963  12.197   0.750
11390W        W83716  11.915  17.235  12.856
11391W        W83717  38.241  37.103  11.915
11392W        W83718  34.080   0.554  14.708
11393W        W83719  22.673   1.283  10.936
11394W        W83720  21.283  26.072  11.469
11395W        W83721  24.583   0.836   2.610
11396W        W83722  31.022  37.448   1.368
11397W        W83723  11.348  27.546  10.247
11398W        W83724   8.512  34.200   1.818
11399W        W83725  38.304  37.010   3.706
11400W        W83726  13.089  41.637   4.896
11401W        W83727  35.543  27.007  12.882
11402W        W83728  17.833  19.197  13.998
11403W        W83729   8.028  43.669   3.455
11404W        W83730  44.872  39.856  12.597
11405W        W83731   6.937  10.216   0.826
11406W        W83732  25.327  29.353   5.193
11407W        W83733  12.069  37.096   4.365
11408W        W83734   8.614  36.918   0.686
11409W        W83735   2.918  27.557  14.967
11410W        W83736  34.113  30.002  14.867
11411W        W83737   3.381  13.593  11.228
11412W        W83738  39.738  32.057  13.784
11413W        W83739  32.606  29.884   0.325
11414W        W83740  40.997  15.539   2.607
11415W        W83741  13.185  42.020   0.250
11416W        W83742  11.488  34.691  13.789
11417W        W83743   2.787   1.545  10.303
11418W        W83744  24.086  22.595   4.692
11419W        W83745  32.405  15.500   2.914
11420W        W83746  34.517  40.970   2.225
11421W        W83747  33.401  19.523   3.275
11422W        W83748  36.371  34.289   3.318
11423W        W83749   2.657  38.582   1.929
11424W        W83750   9.275  39.461  14.345
11425W        W83751  39.035   7.845  12.169
11426W        W83752  34.473  18.746   0.295
11427W        W83753  15.708  17.614  14.323
11428W        W83754  23.151  20.622   2.047
11429W        W83755  36.878  13.923   0.927
11430W        W83756   2.404   5.030   5.269
11431W        W83757  37.972   3.639  13.955
11432W        W83758  10.584  13.528   3.820
11433W        W83759   8.614  44.934  11.020
11434W        W83760   0.743   7.643  12.969
11435W        W83761   7.808  11.425  14.237
11436W        W83762  26.033  16.870  13.402
11437W        W83763   0.944  40.379  14.534
11438W        W83764  10.356  22.282   0.884
11439W        W83765  40.944  43.978  12.445
11440W        W83766  17.324  28.404  12.414
11441W        W83767  12.379   5.947   1.940
11442W        W83768   4.488   6.179   1.270
11443W        W83769  13.472  10.540  11.506
11444W        W83770  23.717  19.667   4.667
11445W        W83771  37.521   2.404   4.617
11446W        W83772  23.965  23.979   3.690
11447W        W83773  11.258   1.649   2.839
11448W        W83774  28.722   7.767   0.859
11449W        W83775   3.503   2.496  12.518
11450W        W83776  35.927   0.060   3.179
11451W        W83777  20.512  26.126   0.390
11452W        W83778  27.680   5.284  11.920
11453W        W83779   3.949  38.968  13.443
11454W        W83780  19.901  33.300   4.614
11455W        W83781  39.598   7.418   1.851
11456W        W83782   1.939  29.777   0.949
11457W        W83783  23.513   6.217   2.555
11458W        W83784  20.334  29.336   0.409
11459W        W83785  44.888   2.832  11.128
11460W        W83786  36.437  34.199   4.119
11461W        W83787   0.395  14.125  14.598
11462W        W83788  30.968  39.713  10.893
11463W        W83789   0.709   4.027  11.614
11464W        W83790  15.616   1.755  10.127
11465W        W83791   6.118   8.311  12.062
11466W        W83792  40.077  21.005  13.778
11467W        W83793  31.669  42.818   2.366
11468W        W83794  18.048  15.720   2.803
11469W        W83795  21.222  36.832   4.794
11470W        W83796  30.603  22.681  10.721
11471W        W83797  17.742   9.407  11.124
11472W        W83798   6.259  32.820   1.927
11473W        W83799  11.842  33.015   1.538
11474W        W83800  13.675  10.632   0.081
11475W        W83801   1.390  44.162  10.810
11476W        W83802  38.497   4.790   2.894
11477W        W83803   8.234  42.010   0.481
11478W        W83804  15.067   3.419  11.731
11479W        W83805  32.357  33.196  12.806
11480W        W83806  32.038   7.459   9.869
11481W        W83807  31.762  23.418  10.466
11482W        W83808  22.722  12.776   2.618
11483W        W83809  19.321  10.318  14.954
11484W        W83810   4.228  19.195   3.367
11485W        W83811  28.529  31.606   0.000
11486W        W83812  41.434  20.590  11.108
11487W        W83813  24.035  12.364  13.383
11488W        W83814  15.229  19.523  13.529
11489W        W83815  35.050  33.153   9.552
11490W        W83816  38.420  36.322  14.902
11491W        W83817  31.666  22.772   2.192
11492W        W83818  44.038  31.475  10.563
11493W        W83819  11.619  16.021  13.953
11494W        W83820   3.898  32.911   0.654
11495W        W83821   8.047   8.759   4.599
11496W        W83822  15.112  17.270  11.639
11497W        W83823  17.754  19.581  12.969
11498W        W83824  36.874  28.086   0.149
11499W        W83825  38.379  26.432  14.381
11500W        W83826  17.826  19.871   1.865
11501W        W83827   1.246  39.325   3.269
11502W        W83828  11.341  17.603  11.289
11503W        W83829  36.835  33.868   3.688
11504W        W83830   8.953  26.086  12.405
11505W        W83831  22.592   2.821   3.261
11506W        W83832  11.761  14.858   3.223
11507W        W83833  23.076   7.610  12.488
11508W        W83834  25.886  16.715  13.910
11509W        W83835  19.730  40.981  13.453
11510W        W83836   2.938  29.625   4.118
11511W        W83837  18.713  33.562   0.164
11512W        W83838  29.083  14.367   4.635
11513W        W83839  39.850  44.467   1.837
11514W        W83840   2.390  22.579  10.271
11515W        W83841  24.251  41.466   0.387
11516W        W83842  40.982   0.873   4.780
11517W        W83843   5.811  13.405   2.410
11518W        W83844   2.831  23.986  13.874
11519W        W83845  36.347  10.455  12.276
11520W        W83846  22.497  17.343  13.395
11521W        W83847  38.657  23.012  14.441
11522W        W83848   5.339  41.454   2.350
11523W        W83849  23.033  20.723  12.489
11524W        W83850   0.170  41.518   2.262
11525W        W83851  36.586  14.626  14.257
11526W        W83852  39.057   6.735   2.895
11527W        W83853  40.178  37.352   1.460
11528W        W83854  39.255  40.856   3.357
11529W        W83855   9.415  38.585   4.106
11530W        W83856  35.029  43.261   1.350
11531W        W83857  31.053  18.704  14.892
11532W        W83858  40.111  19.848  12.931
11533W        W83859  40.950  20.718  14.809
11534W        W83860  26.734   9.187  12.612
11535W        W83861  21.047  43.557  13.390
11536W        W83862  15.303   6.525  13.312
11537W        W83863  41.848   4.716   3.709
11538W        W83864  39.923   0.488  11.199
11539W        W83865  13.298  40.610   0.902
11540W        W83866   4.618  32.106   0.906
11541W        W83867  25.962   3.223   2.336
11542W        W83868  39.885  10.828  13.897
11543W        W83869   0.754  26.746  14.101
11544W        W83870   0.078  35.292   0.905
11545W        W83871  38.466  23.050   2.317
11546W        W83872  37.055   8.692   1.383
11547W        W83873  13.330  26.048   2.382
11548W        W83874  19.509  27.099   0.679
11549W        W83875   6.848   3.001  10.461
11550W        W83876  12.408  32.537   3.183
11551W        W83877   6.177  30.182   3.352
11552W        W83878   8.837   5.410   0.940
11553W        W83879  30.884  16.149  11.942
11554W        W83880  27.646   1.427   0.751
11555W        W83881  11.901   5.485  12.966
11556W        W83882  39.409  21.115  10.662
11557W        W83883  13.114   3.800  10.687
11558W        W83884  28.102  28.468  11.116
11559W        W83885  43.568   3.435   1.217
11560W        W83886  10.114  15.962   0.486
11561W        W83887  44.903  16.162   1.292
11562W        W83888  18.510  37.084   0.974
11563W        W83889  11.624  44.215   1.788
11564W        W83890  17.283  42.118  10.174
11565W        W83891  21.722  44.831  11.584
11566W        W83892  43.545  43.958  12.587
11567W        W83893  44.190   8.160   1.284
11568W        W83894   7.645  12.635  11.571
11569W        W83895  14.802  30.916  10.807
11570W        W83896  13.912   6.298   2.805
11571W        W83897   8.675  10.587   4.184
11572W        W83898  39.335  25.363  10.697
11573W        W83899  27.604   9.586  13.015
11574W        W83900  43.383   9.922  10.704
11575W        W83901  38.876   6.637   0.830
11576W        W83902  34.382  33.616  11.491
11577W        W83903   9.726  32.453   4.216
11578W        W83904   9.528   0.355  11.559
11579W        W83905  32.354  17.673   1.823
11580W        W83906  43.279   8.312   4.291
11581W        W83907  31.549  30.968  12.007
11582W        W83908  43.863  25.966   0.892
11583W        W83909   9.143  27.706  11.869
11584W        W83910   5.591  16.246  14.277
11585W        W83911  38.379  43.817   2.790
11586W        W83912  36.520  22.161   1.175
11587W        W83913  31.073   6.454   5.141
11588W        W83914  29.377   4.001   2.563
11589W        W83915  41.078   6.154  12.461
11590W        W83916  22.259  23.461  14.012
11591W        W83917  17.232   9.909   4.610
11592W        W83918  23.560  24.120   2.415
11593W        W83919  20.744   4.991   3.707
11594W        W83920  15.233   3.360   2.266
11595W        W83921  30.021  20.624  10.695
11596W        W83922   7.880  43.335  11.520
11597W        W83923   6.664  24.061  14.289
11598W        W83924  33.622  23.479   1.413
11599W        W83925   8.336  11.840  13.737
11600W        W83926  41.010  21.584  14.215
11601W        W83927  34.100   3.176   3.349
11602W        W83928   3.844   7.071  12.553
11603W        W83929  28.651  26.011   5.735
11604W        W83930  18.183  43.443  14.314
11605W        W83931   1.630   9.655   4.541
11606W        W83932  22.028  33.465  11.462
11607W        W83933   2.011  37.974   1.479
11608W        W83934   4.718  39.982   2.584
11609W        W83935  33.025  24.748   2.314
11610W        W83936  38.346  16.053  14.816
11611W        W83937  18.973  12.641   4.801
11612W        W83938  39.713  41.371  10.734
11613W        W83939  12.123   2.718   3.632
11614W        W83940  28.020  23.017  12.571
11615W        W83941   1.687  38.099  11.900
11616W        W83942   5.497  31.983   3.331
11617W        W83943  14.842  28.469   0.896
11618W        W83944   2.371  21.556   2.119
11619W        W83945   7.438  40.349   1.425
11620W        W83946   7.799  18.679   3.668
11621W        W83947  28.982  40.375   4.389
11622W        W83948  37.233   7.355   3.167
11623W        W83949  21.759   0.083  14.866
11624W        W83950  17.283   6.423   1.929
11625W        W83951  43.809   8.976   4.863
11626W        W83952  10.196  30.379   1.345
11627W        W83953   5.324  36.379   0.178
11628W        W83954  38.330  27.025  12.434
11629W        W83955  24.739   1.774  12.498
11630W        W83956  27.043  35.609   1.441
11631W        W83957  22.409  10.559   2.020
11632W        W83958  40.060  32.001   1.640
11633W        W83959  40.295  17.834  12.541
11634W        W83960   4.175  30.229   2.198
11635W        W83961  19.601   7.782   3.340
11636W        W83962  38.030   7.726   3.060
11637W        W83963  17.201   2.869   1.251
11638W        W83964   1.209  26.331   2.206
11639W        W83965  10.813  33.671   4.243
11640W        W83966  10.397  36.119  11.201
11641W        W83967  34.004  12.946   0.395
11642W        W83968  27.727  34.406   3.626
11643W        W83969  13.093  23.598   1.764
11644W        W83970  22.224  44.191   3.240
11645W        W83971  24.168   7.412   2.741
11646W        W83972  35.952   8.665   1.341
11647W        W83973   6.817   9.609   2.772
11648W        W83974   3.357  38.408  11.650
11649W        W83975  31.464  13.633  11.903
11650W        W83976  32.267   5.517  12.437
11651W        W83977  26.162  43.486  14.948
11652W        W83978  13.785  23.219  11.953
11653W        W83979  11.796  23.317   0.925
11654W        W83980  22.009  27.104   1.691
11655W        W83981  31.010  37.821   2.893
11656W        W83982  42.763  33.583   0.369
11657W        W83983   0.767   1.671   4.096
11658W        W83984  13.369  36.584   0.156
11659W        W83985  11.733  29.185  11.063
11660W        W83986   0.390   5.825   0.303
11661W        W83987  31.590  36.488   3.786
11662W        W83988  19.698  37.897   3.226
11663W        W83989  38.977  30.539   1.905
11664W        W83990  15.698  29.265  12.399
11665W        W83991  16.698   2.147  12.582
11666W        W83992  20.784  38.644  12.943
11667W        W83993  32.141  13.380  12.915
11668W        W83994  43.065  24.785  14.992
11669W        W83995  40.135  28.149   3.601
11670W        W83996  20.689  14.145  11.533
11671W        W83997   3.464  44.334   2.798
11672W        W83998   4.662  13.011  14.799
11673W        W83999  24.645  41.574  14.480
11674W        W84000  16.244  34.028  13.931
11675W        W84001   8.107  21.507   1.228
11676W        W84002  41.064   9.619  10.572
11677W        W84003   8.925  33.832   4.916
11678W        W84004  42.636  29.929   2.703
11679W        W84005  27.022  39.805   0.904
11680W        W84006  30.980  38.202   5.114
11681W        W84007  11.314  41.458   3.788
11682W        W84008  34.069  12.091  13.558
11683W        W84009  41.322  15.852  14.006
11684W        W84010  18.436  34.706   0.430
11685W        W84011  22.780  39.763  10.591
11686W        W84012  39.081  31.308  11.453
11687W        W84013   8.790  26.242   2.463
11688W        W84014  43.082   0.510  12.052
11689W        W84015  44.759   8.408  11.844
11690W        W84016  42.541  17.632  10.533
11691W        W84017  14.937   3.380   2.732
11692W        W84018   9.681  42.189   1.380
11693W        W84019  35.566  39.496   1.924
11694W        W84020  38.633  17.787  13.455
11695W        W84021  19.729  26.186  14.239
11696W        W84022  27.746  19.780  14.294
11697W        W84023  44.391  20.530   4.574
11698W        W84024  38.905  41.090   4.411
11699W        W84025  17.752  27.991  14.707
11700W        W84026  31.604  11.273  10.655
11701W        W84027  34.429  33.129   4.341
11702W        W84028  10.702  43.549  13.439
11703W        W84029   8.822   4.915  14.754
11704W        W84030  44.271  16.262  10.527
11705W        W84031   4.792   6.983  13.508
11706W        W84032  34.311  34.950   3.691
11707W        W84033   9.151  16.208   2.219
11708W        W84034   2.762   2.415  11.939
11709W        W84035  29.035  33.516  10.591
11710W        W84036  15.849  14.148  14.405
11711W        W84037  32.103  31.116  12.087
11712W        W84038  34.411  36.471  11.042
11713W        W84039   5.943  23.751   0.947
11714W        W84040  39.372  43.246   1.073
11715W        W84041  35.474  43.026  12.014
11716W        W84042  26.215  24.570  11.162
11717W        W84043  20.281  39.937  13.840
11718W        W84044  24.341  10.888   2.803
11719W        W84045  11.208  20.562   4.170
11720W        W84046   5.648  25.587  13.440
11721W        W84047  30.470  34.436   4.711
11722W        W84048   3.060  14.193   5.117
11723W        W84049   3.832  16.433   0.310
11724W        W84050  30.168   2.001  13.424
11725W        W84051  33.629  10.271   1.003
11726W        W84052  21.770  36.473   3.443
11727W        W84053   6.072  18.064  14.458
11728W        W84054  10.260  41.908  13.038
11729W        W84055   6.896  23.052  12.077
11730W        W84056   0.405  28.002  12.694
11731W        W84057  27.587   2.974   3.693
11732W        W84058  31.094   1.322  13.543
11733W        W84059  26.452   0.882   0.211
11734W        W84060  39.914  17.994   4.625
11735W        W84061   5.327  10.270   1.625
11736W        W84062   9.358  19.119   1.678
11737W        W84063  42.934  42.902  12.829
11738W        W84064   8.509   7.859   2.204
11739W        W84065  27.185  20.713  14.416
11740W        W84066  16.514  21.592  13.009
11741W        W84067   7.162  10.230  10.544
11742W        W84068   5.033  38.330  12.994
11743W        W84069  44.742  34.012  12.456
11744W        W84070  43.901  35.360  13.346
11745W        W84071  16.785  39.047   3.195
11746W        W84072   3.721  12.820  12.332
11747W        W84073  43.784  30.549  10.723
11748W        W84074  11.272  17.239  12.113
11749W        W84075  19.422  33.908  13.091
11750W        W84076   8.842  41.929   4.482
11751W        W84077  28.574   6.552  12.590
11752W        W84078  23.484  12.797  12.027
11753W        W84079  19.584  21.895   0.137
11754W        W84080  19.854  28.387   0.036
11755W        W84081  10.774  19.900   4.902
11756W        W84082  16.068  17.377  14.643
11757W        W84083  31.187   1.269  11.148
11758W        W84084  11.269  36.072   4.264
11759W        W84085  37.556  36.941  10.732
11760W        W84086   7.313  42.347  14.746
11761W        W84087  16.834  18.739  12.872
11762W        W84088  18.513  43.951  11.960
11763W        W84089  28.638  14.609  13.384
11764W        W84090  26.968  22.507  14.500
11765W        W84091  13.587  38.418  14.277
11766W        W84092  22.984   2.230  11.558
11767W        W84093  14.252   9.584   3.667
11768W        W84094  39.335  18.628   4.524
11769W        W84095  43.969  33.137   1.141
11770W        W84096  19.468  29.461   2.365
11771W        W84097  34.227  12.844   3.753
11772W        W84098  32.557  21.205   2.192
11773W        W84099  21.795  43.260   3.939
11774W        W84100  14.572   9.745  12.951
11775W        W84101  26.276  16.290  10.004
11776W        W84102  38.901  16.530  10.662
11777W        W84103   5.541  11.667   4.548
11778W        W84104  29.094  25.927   3.493
11779W        W84105  30.722  39.481   0.339
11780W        W84106  31.130  29.573  13.721
11781W        W84107  39.354   7.177   2.872
11782W        W84108  27.453  37.477  13.484
11783W        W84109   3.793  24.915  10.607
11784W        W84110  32.475  22.474  14.245
11785W        W84111   7.801   5.632  11.040
11786W        W84112  15.348   1.990   0.783
11787W        W84113   0.967  25.129  10.914
11788W        W84114  27.126  33.446  11.045
11789W        W84115  30.568  26.216   2.792
11790W        W84116   7.652   3.201  12.001
11791W        W84117  12.321  27.905  14.448
11792W        W84118  28.252  36.344  12.408
11793W        W84119  15.011  24.362  11.544
11794W        W84120  20.700  34.489   3.283
11795W        W84121  11.335  21.665   3.448
11796W        W84122  37.387  41.561  10.910
11797W        W84123  14.590  43.176  14.352
11798W        W84124   0.444   4.343   2.886
11799W        W84125  25.687  17.194   2.764
11800W        W84126  16.549  21.713  11.551
11801W        W84127   2.989  35.565  12.867
11802W        W84128  11.163  43.894   4.538
11803W        W84129  34.854  20.809  12.382
11804W        W84130   6.243  11.175  10.711
11805W        W84131  27.210  30.059  13.380
11806W        W84132  38.707  41.881   4.030
11807W        W84133  29.101  25.284  13.994
11808W        W84134   3.589  41.551  13.028
11809W        W84135  38.117  32.150   1.256
11810W        W84136  31.007  44.034   4.529
11811W        W84137  31.943  12.621  10.593
11812W        W84138  42.456  10.815  11.152
11813W        W84139  10.291   3.784  13.282
11814W        W84140  44.410  17.618   0.486
11815W        W84141   4.723  37.817   5.108
11816W        W84142  13.586  30.302  10.976
11817W        W84143  34.187  13.585   4.927
11818W        W84144  28.352  38.428   2.340
11819W        W84145   3.379   0.144   3.269
11820W        W84146  19.713   2.658  10.741
11821W        W84147  31.686  40.769   4.453
11822W        W84148  40.182  42.473  11.033
11823W        W84149  24.980   0.767   1.278
11824W        W84150  23.457  42.073  12.057
11825W        W84151  40.892  38.843  14.402
11826W        W84152  10.331   2.196  10.813
11827W        W84153  24.256  43.958  13.431
11828W        W84154  44.724   4.742  13.601
11829W        W84155  36.119  27.023  13.565
11830W        W84156   0.821  33.186  11.037
11831W        W84157   8.813  17.741   3.389
11832W        W84158  41.567   7.644  11.696
11833W        W84159  11.689   9.235  10.904
11834W        W84160  39.685  37.359   1.610
11835W        W84161   8.929  44.430  14.822
11836W        W84162  22.580  26.585   2.285
11837W        W84163  43.070  10.994  12.536
11838W        W84164  34.994  30.618   2.465
11839W        W84165  17.517  32.337   3.682
11840W        W84166   5.765  29.630   2.651
11841W        W84167  13.614  22.029   1.323
11842W        W84168  43.637  16.353   2.028
11843W        W84169  29.426  21.012  13.555
11844W        W84170  17.121  28.509  14.446
11845W        W84171  27.062   9.369  10.513
11846W        W84172  25.689  31.407   0.495
11847W        W84173  42.015   6.123  11.157
11848W        W84174   2.668   9.504  11.444
11849W        W84175  14.372  30.667  11.623
11850W        W84176  44.001  27.707  10.647
11851W        W84177  16.302  31.142   1.279
11852W        W84178  19.144  42.310   2.262
11853W        W84179  18.355  20.127   3.638
11854W        W84180  41.074  30.067   2.181
11855W        W84181  19.550  31.527  14.087
11856W        W84182  13.784  29.897  14.097
11857W        W84183  41.378  35.032  10.419
11858W        W84184  13.113   4.778   1.783
11859W        W84185  35.938  41.021  12.966
11860W        W84186  34.972  33.729   0.153
11861W        W84187  40.975  21.458   1.207
11862W        W84188  12.396  30.330   3.520
11863W        W84189  20.148  15.039   1.277
11864W        W84190  20.598  25.498   4.262
11865W        W84191   4.549  24.242   4.949
11866W        W84192   1.841   5.421  14.327
11867W        W84193  43.038  11.923   3.158
11868W        W84194   2.491  43.856  14.416
11869W        W84195   1.445  12.252  11.074
11870W        W84196   8.743  25.767   2.101
11871W        W84197  38.385   3.312  14.351
11872W        W84198  28.960   8.224  14.765
11873W        W84199   4.843   9.829   0.427
11874W        W84200  23.095   5.846  11.982
11875W        W84201  20.609  19.047  14.492
11876W        W84202  31.545   8.258  10.736
11877W        W84203  12.105  38.530  12.849
11878W        W84204  39.251   1.232  11.149
11879W        W84205  12.920  30.498  14.385
11880W        W84206   0.649   2.929   0.876
11881W        W84207  43.509  39.126   3.625
11882W        W84208  25.090  35.451   2.482
11883W        W84209  34.129   9.516  14.286
11884W        W84210  31.237  24.185  14.460
11885W        W84211   7.631   6.795   2.801
11886W        W84212   6.320  38.717  10.755
11887W        W84213  31.912   3.952   1.755
11888W        W84214  42.798  32.507   4.175
11889W        W84215  19.225   3.228  12.256
11890W        W84216  14.198  32.306   3.647
11891W        W84217  23.467   2.976  12.900
11892W        W84218  25.941   2.219  10.942
11893W        W84219  19.959  19.292  12.610
11894W        W84220  11.800  40.394  12.475
11895W        W84221  41.417  25.208   3.641
11896W        W84222  15.921  25.241  11.484
11897W        W84223  12.341  44.122   2.196
11898W        W84224  29.101   5.208   1.817
11899W        W84225  35.727  37.914   3.118
11900W        W84226  11.209  36.768  11.090
11901W        W84227  12.135   6.310   4.611
11902W        W84228  18.310  35.579  11.564
11903W        W84229  36.495   5.331   1.373
11904W        W84230  30.581  25.418   4.136
11905W        W84231  23.295  15.644   0.951
11906W        W84232  30.518  14.132  12.095
11907W        W84233  40.775  41.905  11.156
11908W        W84234   2.276  28.267  10.693
11909W        W84235  33.041  35.949  14.239
11910W        W84236  18.013  24.526   4.188
11911W        W84237  39.650  42.726   2.199
11912W        W84238  30.966  33.892   3.828
11913W        W84239  22.729   8.087   3.325
11914W        W84240  39.789   2.688   0.273
11915W        W84241   2.349   6.142  14.516
11916W        W84242  24.380  23.918   2.560
11917W        W84243  39.597  14.720   3.306
11918W        W84244  15.286  42.486   2.872
11919W        W84245  43.845  16.323  13.923
11920W        W84246  11.022  24.718  10.643
11921W        W84247  31.927   1.669   1.689
11922W        W84248   1.027  32.459  13.717
11923W        W84249  42.116   7.777  11.710
11924W        W84250  19.507  43.766  13.501
11925W        W84251  41.384  14.240  12.274
11926W        W84252   1.870  25.365  13.892
11927W        W84253  34.510   9.438   0.455
11928W        W84254  14.060  16.736   1.307
11929W        W84255  39.474   3.970  13.460
11930W        W84256  22.021  18.609  12.063
11931W        W84257  33.308  32.030  13.802
11932W        W84258  19.958   2.935   3.875
11933W        W84259   5.207  37.815   4.891
11934W        W84260   0.451  30.222   1.402
11935W        W84261  27.127  32.761  14.962
11936W        W84262   1.407  43.881   2.752
11937W        W84263  12.763   6.406  14.280
11938W        W84264   3.560  12.852   2.295
11939W        W84265  17.000  32.906  11.164
11940W        W84266  34.609  41.015  14.893
11941W        W84267  36.362  34.733  11.578
11942W        W84268  43.911  42.440  14.807
11943W        W84269  10.139   9.457   5.008
11944W        W84270  22.972  16.110   5.124
11945W        W84271  30.123  14.777  11.040
11946W        W84272  33.384  36.985  11.672
11947W        W84273  32.152  14.820   1.346
11948W        W84274   0.372  44.934   1.167
11949W        W84275  35.237  27.513   0.366
11950W        W84276  12.709  11.534   4.776
11951W        W84277  12.071  30.675   1.681
11952W        W84278   6.729  36.523  10.493
11953W        W84279  43.486   5.334   3.120
11954W        W84280  31.585   3.249  11.470
11955W        W84281  28.896  11.868   3.643
11956W        W84282   0.189  28.405   4.890
11957W        W84283   3.721  29.614  13.013
11958W        W84284  23.718   9.737   4.145
11959W        W84285  13.965  12.875   1.496
11960W        W84286  11.642  24.303  12.775
11961W        W84287   5.705   8.915  11.219
11962W        W84288  19.010  41.062   1.236
11963W        W84289  19.325  34.861  12.348
11964W        W84290  28.944  35.724   0.418
11965W        W84291  16.530  32.863  12.470
11966W        W84292  27.016  40.145  12.936
11967W        W84293  39.437  44.171   1.432
11968W        W84294   4.773  34.486   4.351
11969W        W84295  21.814   6.672  11.711
11970W        W84296  10.580  35.463   1.951
11971W        W84297  12.840   1.555  13.364
11972W        W84298   8.291  42.881  11.162
11973W        W84299  15.478  35.843  14.886
11974W        W84300  38.804  36.933   1.237
11975W        W84301   1.287   6.581  11.578
11976W        W84302  21.025  18.043  12.112
11977W        W84303   3.950  40.313   1.414
11978W        W84304  25.617   2.944   1.136
11979W        W84305  25.125  26.744   2.988
11980W        W84306  41.355  22.959  13.012
11981W        W84307  29.872  35.890   3.992
11982W        W84308  20.215  16.705  12.061
11983W        W84309  14.654  41.830   4.798
11984W        W84310  16.808  37.667   4.250
11985W        W84311   0.397   0.204   2.902
11986W        W84312  42.921  16.818   2.702
11987W        W84313  20.243  34.041  11.925
11988W        W84314  32.839  21.183  11.265
11989W        W84315   0.493  28.468  11.206
11990W        W84316  28.712  13.868  12.908
11991W        W84317  10.194  33.547   2.293
11992W        W84318  21.708  37.282   1.771
11993W        W84319  23.299  14.680  12.911
11994W        W84320  32.661   8.200   0.428
11995W        W84321  28.676  36.830   2.353
11996W        W84322  11.757  19.541  13.047
11997W        W84323  31.626  26.255  13.507
11998W        W84324  23.380  16.701  11.983
11999W        W84325  35.807  16.747   3.798
12000W        W84326   5.856  20.798   4.151
12001W        W84327  20.087  34.460   3.816
12002W        W84328  16.653   3.705  13.478
12003W        W84329  34.631  20.690  13.591
12004W        W84330  15.338   6.304   3.617
12005W        W84331  15.123  33.382  14.522
12006W        W84332  15.566  30.030  13.642
12007W        W84333   4.935  42.297   3.375
12008W        W84334   7.340  35.451  13.372
12009W        W84335  42.073   2.304   3.342
12010W        W84336  27.501  40.708  12.275
12011W        W84337   4.782  33.139  10.072
12012W        W84338  21.135  23.149  13.377
12013W        W84339  23.559  15.121   4.661
12014W        W84340  11.285   2.916  13.800
12015W        W84341  43.053   3.997  13.822
12016W        W84342   0.234  12.804  12.805
12017W        W84343   7.936  31.344   1.021
12018W        W84344  19.735  12.389  12.540
12019W        W84345  13.460  40.409  12.071
12020W        W84346  13.085   5.474  12.674
12021W        W84347  17.064  21.229   4.745
12022W        W84348  25.414  36.543  13.047
12023W        W84349  32.569  16.727   3.687
12024W        W84350  37.599  25.009  10.923
12025W        W84351  43.866   8.905  10.609
12026W        W84352  35.517  13.883   2.386
12027W        W84353  42.765  33.116  14.018
12028W        W84354  39.568  28.063   2.148
12029W        W84355  41.518  28.601  11.131
12030W        W84356  12.088  27.719   3.771
12031W        W84357  43.955  11.753  14.948
12032W        W84358  27.006  19.433   4.656
12033W        W84359  44.465  18.090   4.931
12034W        W84360  11.771  17.268   4.630
12035W        W84361  24.540  10.838  14.574
12036W        W84362  11.678  35.671  14.607
12037W        W84363  40.400   4.208   0.735
12038W        W84364  16.458  42.916   0.977
12039W        W84365  42.808  33.877   1.667
12040W        W84366  27.600   3.001  14.207
12041W        W84367  44.024  17.813  11.371
12042W        W84368  28.144   6.127  12.824
12043W        W84369  41.859   2.984   4.552
12044W        W84370   5.496  42.378   0.761
12045W        W84371  43.897  27.144  10.616
12046W        W84372  43.463   9.641   1.329
12047W        W84373  10.090  13.668   3.792
12048W        W84374  42.124  29.253   4.936
12049W        W84375  20.456   6.523   4.453
12050W        W84376  39.307  11.301   4.339
12051W        W84377  19.219  23.055  12.934
12052W        W84378  17.300   2.218  14.300
12053W        W84379  15.120  11.696   4.583
12054W        W84380  36.065  31.469   4.390
12055W        W84381  17.775  18.046  11.988
12056W        W84382  32.819   3.475  11.146
12057W        W84383  33.029  13.296   3.714
12058W        W84384   9.407   9.307   1.274
12059W        W84385   8.329   2.324  11.288
12060W        W84386  43.827   5.186   0.404
12061W        W84387  28.380  30.304   1.296
12062W        W84388  25.490  43.162   3.598
12063W        W84389  26.346  17.214   1.855
12064W        W84390  29.869  43.429   4.271
12065W        W84391  10.625  28.680   4.716
12066W        W84392  33.534  33.702  10.984
12067W        W84393  41.354  39.874  14.048
12068W        W84394  19.645  41.614   4.662
12069W        W84395  15.708   4.617   4.631
12070W        W84396  27.580  27.878  11.542
12071W        W84397   4.598   1.611   2.322
12072W        W84398  37.406  37.550   1.304
12073W        W84399  19.086  24.503  13.091
12074W        W84400  17.367  34.335  14.334
12075W        W84401  15.313   7.904  12.560
12076W        W84402   9.341  34.885  14.282
12077W        W84403  44.536  10.390  14.081
12078W        W84404  15.974  35.963  14.806
12079W        W84405  16.392  39.391  11.115
12080W        W84406  31.470   0.362   2.087
12081W        W84407  25.483  15.569  11.676
12082W        W84408   1.986  16.978   2.415
12083W        W84409  42.790  37.056   0.374
12084W        W84410  35.492   9.473   4.225
12085W        W84411  13.310  35.303  12.929
12086W        W84412  10.051   5.969   2.363
12087W        W84413  44.442  10.599  11.115
12088W        W84414  25.099   5.873  11.424
12089W        W84415  37.562  44.386   2.891
12090W        W84416  11.871  14.348  12.425
12091W        W84417  36.076  44.834  11.998
12092W        W84418  40.797  38.785  10.928
12093W        W84419  17.347   1.689  12.968
12094W        W84420  13.294   8.961   4.695
12095W        W84421  28.157  16.780  10.707
12096W        W84422  37.461  11.587   0.793
12097W        W84423  38.915  32.582   1.210
12098W        W84424  26.047  43.699   4.204
12099W        W84425  31.876  34.433  12.096
12100W        W84426  17.161   3.358   1.421
12101W        W84427  34.526  25.923   1.211
12102W        W84428   8.112  17.212  12.647
12103W        W84429  28.410  39.850   3.195
12104W        W84430   4.446  26.678   4.616
12105W        W84431  13.048  14.161   3.640
12106W        W84432  34.755  26.963  12.385
12107W        W84433  27.660   3.090   2.821
12108W        W84434  26.329  18.682  10.492
12109W        W84435  30.558  21.618   3.717
12110W        W84436  14.915  12.869   2.227
12111W        W84437  36.969   5.928  11.653
12112W        W84438  41.197  11.072   4.598
12113W        W84439  36.508   4.216  14.956
12114W        W84440  14.359  10.374  14.093
12115W        W84441  22.674  22.848   4.867
12116W        W84442  37.110  33.064   1.438
12117W        W84443  12.715  34.391   3.195
12118W        W84444  10.697  37.863  13.982
12119W        W84445  21.759   8.852   1.351
12120W        W84446   8.144  42.272  12.844
12121W        W84447  40.989  10.697  13.932
12122W        W84448  15.134  40.862   0.979
12123W        W84449   2.987  21.151  13.062
12124W        W84450  12.276  13.604  12.540
12125W        W84451  28.509  44.940  13.344
12126W        W84452  39.308  43.661   1.481
12127W        W84453  30.030  40.896  12.566
12128W        W84454  30.795  37.932  14.071
12129W        W84455  33.546  14.983   3.122
12130W        W84456   9.779  18.176   1.266
12131W        W84457   1.956  36.535   1.643
12132W        W84458   0.367  34.657  13.808
12133W        W84459  43.369  19.580   2.836
12134W        W84460  41.527   4.320   3.841
12135W        W84461  27.424  38.734  11.513
12136W        W84462  28.007  15.880   3.802
12137W        W84463   8.779  11.651   0.406
12138W        W84464  15.750  13.560   4.629
12139W        W84465  28.653  32.038   0.917
12140W        W84466  23.700  39.854  14.898
12141W        W84467  24.330  40.954   1.968
12142W        W84468   2.920  38.172  11.533
12143W        W84469  31.151  23.257  10.618
12144W        W84470  42.317  28.643  12.363
12145W        W84471  23.708  25.629   0.456
12146W        W84472  36.625  32.437   4.119
12147W        W84473  30.513  21.521   2.766
12148W        W84474  29.313  14.283   2.165
12149W        W84475   0.976  28.691  12.551
12150W        W84476  19.527  37.510   1.843
12151W        W84477  35.357  33.926   2.842
12152W        W84478   6.766  14.216   0.211
12153W        W84479  20.782  36.056  14.348
12154W        W84480  34.185  11.253  13.412
12155W        W84481  36.014   3.757  10.610
12156W        W84482  18.126  38.122  13.535
12157W        W84483  35.997  13.139  11.548
12158W        W84484  20.891  18.115   3.002
12159W        W84485  12.492  21.786   1.486
12160W        W84486   8.412   0.200   3.368
12161W        W84487  27.619   1.073  12.578
12162W        W84488  29.205  20.634  13.299
12163W        W84489  16.559  42.361   4.226
12164W        W84490  18.198  19.996  13.828
12165W        W84491  35.287  30.392  11.006
12166W        W84492  18.736   5.270   1.148
12167W        W84493  33.211   8.635  12.363
12168W        W84494  39.217  16.350  14.873
12169W        W84495  23.192  28.553   1.332
12170W        W84496  23.010   0.862   3.061
12171W        W84497   5.902  38.671  10.146
12172W        W84498  23.791   7.163  12.077
12173W        W84499  44.026  21.665   0.479
12174W        W84500   1.909   5.183   0.207
12175W        W84501   6.773   3.995   2.446
12176W        W84502   1.075  28.968   0.881
12177W        W84503  21.351  40.913  12.569
12178W        W84504  17.156   7.741   3.315
12179W        W84505  38.436  44.909  11.122
12180W        W84506   9.755  37.255   4.244
12181W        W84507  29.565  27.998  11.213
12182W        W84508  13.062  19.800   1.691
12183W        W84509   2.201  34.798  11.688
12184W        W84510   9.333  43.869  13.415
12185W        W84511   3.760  43.415   3.683
12186W        W84512  13.723  40.993   0.006
12187W        W84513  24.383  20.232   0.423
12188W        W84514  17.359   5.933   2.189
12189W        W84515  10.078  23.231   0.034
12190W        W84516  44.257  35.478   2.771
12191W        W84517  30.098   7.425   3.631
12192W        W84518  44.253  14.769  11.372
12193W        W84519  18.156  25.230  14.975
12194W        W84520  34.646  13.055  10.985
12195W        W84521  31.138  15.181   3.263
12196W        W84522  24.262  39.544   4.652
12197W        W84523  35.402  35.999  10.212
12198W        W84524   6.224  31.663  10.963
12199W        W84525  19.014  36.189   3.281
12200W        W84526  40.830  27.844   4.139
12201W        W84527  36.962  19.506   3.716
12202W        W84528   0.295  39.514  13.047
12203W        W84529  24.427  17.525  11.055
12204W        W84530  33.876  38.211   1.900
12205W        W84531  28.659  41.990  12.069
12206W        W84532  31.104  22.817  12.439
12207W        W84533  42.835  28.514   3.532
12208W        W84534  28.522  29.123  11.868
12209W        W84535   7.726  36.769   0.174
12210W        W84536   9.860   1.229   2.266
12211W        W84537  15.540  22.082  11.022
12212W        W84538  25.591  17.100   1.423
12213W        W84539  15.629  25.587   0.298
12214W        W84540  27.022   5.241   3.146
12215W        W84541   8.168  42.517   4.691
12216W        W84542  31.092   4.383   1.964
12217W        W84543  14.080  31.613  12.999
12218W        W84544   0.010  33.113   1.158
12219W        W84545  23.729   2.504  12.901
12220W        W84546  33.579   2.726  13.480
12221W        W84547  44.757   1.015  14.497
12222W        W84548   0.089  37.813   2.209
12223W        W84549  41.978   4.370  10.896
12224W        W84550  28.942  43.477  12.559
12225W        W84551  42.017  16.582  12.047
12226W        W84552   4.803  35.310  11.045
12227W        W84553  16.324  16.335   1.287
12228W        W84554  24.052  14.345   0.508
12229W        W84555  42.924  24.874  11.724
12230W        W84556   2.904  17.281   2.891
12231W        W84557  12.900  12.643  11.019
12232W        W84558   2.639  35.552  10.352
12233W        W84559  11.755  25.305  11.910
12234W        W84560  23.430  43.699   1.721
12235W        W84561  12.928  29.640   3.210
12236W        W84562  21.995  32.047  10.551
12237W        W84563  28.091   7.202   2.641
12238W        W84564  14.821  29.080  13.721
12239W        W84565   3.846  15.068  14.866
12240W        W84566   0.677  20.108  14.968
12241W        W84567  38.393   6.204  12.444
12242W        W84568  10.384  35.919   1.713
12243W        W84569  37.385  16.259   0.706
12244W        W84570  15.385   7.219  11.563
12245W        W84571   5.536  24.960   1.877
12246W        W84572  26.992  31.567   3.541
12247W        W84573  33.611  18.380  11.753
12248W        W84574  28.799  29.991   1.447
12249W        W84575  34.762  27.542   0.526
12250W        W84576  18.376   1.012  11.979
12251W        W84577  24.009  35.817   2.715
12252W        W84578  18.969  37.436  10.631
12253W        W84579  10.451  29.176  11.289
12254W        W84580  34.082   2.113  11.104
12255W        W84581   3.449  32.109   2.792
12256W        W84582  25.198   3.823  10.704
12257W        W84583  38.811  11.310  12.807
12258W        W84584  19.598  10.899  10.996
12259W        W84585  18.126  26.079  14.379
12260W        W84586  12.243  26.915  13.250
12261W        W84587  33.492  37.824   1.957
12262W        W84588  21.074   1.894  10.873
12263W        W84589   9.212  24.243   3.448
12264W        W84590  23.959  32.930   1.312
12265W        W84591   8.210  18.701   1.493
12266W        W84592  33.986  22.217  10.645
12267W        W84593  37.193   6.759  14.001
12268W        W84594   1.413   3.812   3.687
12269W        W84595   0.654  38.339  14.345
12270W        W84596  23.732  32.569  14.610
12271W        W84597  13.833  26.172  11.034
12272W        W84598  33.938  32.129   3.194
12273W        W84599  20.307  27.851  14.503
12274W        W84600  23.197  41.301  14.192
12275W        W84601  41.892   3.439  12.294
12276W        W84602  31.678  16.225  10.641
12277W        W84603  28.044  28.708  12.500
12278W        W84604  15.328   4.981  12.063
12279W        W84605  19.288  12.128  12.493
12280W        W84606  27.962  29.052  13.938
12281W        W84607  19.763  25.146   3.162
12282W        W84608   2.309  32.720   0.706
12283W        W84609  11.240   2.247  11.086
12284W        W84610  22.505   4.453  11.654
12285W        W84611  17.146  13.747   2.930
12286W        W84612  14.586  10.620   2.125
12287W        W84613   9.132  30.745  12.085
12288W        W84614  25.486   5.102   5.128
12289W        W84615  12.663  39.068   2.163
12290W        W84616  29.859   8.364   1.451
12291W        W84617   1.861   8.693   0.463
12292W        W84618  15.534  14.094   0.279
12293W        W84619   3.321  16.163  10.320
12294W        W84620  18.638  39.765   0.332
12295W        W84621  18.636  40.504  11.677
12296W        W84622  32.340  27.041   4.913
12297W        W84623  16.967   7.738  14.980
12298W        W84624   0.955  25.878  13.072
12299W        W84625  35.279   6.819  10.712
12300W        W84626   9.340  27.455   2.216
12301W        W84627  18.133   5.752  12.624
12302W        W84628  15.551  22.827   1.940
12303W        W84629  22.981   3.021   0.392
12304W        W84630   8.881   2.238  13.430
12305W        W84631  31.298  12.272  10.924
12306W        W84632  25.571  36.480   2.217
12307W        W84633  37.601  10.846  10.612
12308W        W84634   4.149  17.641  13.361
12309W        W84635  21.944  37.775   0.906
12310W        W84636  25.280   3.827  12.904
12311W        W84637   0.109   7.185  13.460
12312W        W84638   7.489  12.237  12.892
12313W        W84639  21.745  33.408  14.505
12314W        W84640  44.108  24.428   3.395
12315W        W84641  33.817   5.043  11.924
12316W        W84642  29.400  29.000   4.835
12317W        W84643  19.277  31.531   1.776
12318W        W84644  37.255   8.307   1.721
12319W        W84645   2.685  30.894  14.282
12320W        W84646  44.395  38.875   2.663
12321W        W84647  27.666  32.005   0.527
12322W        W84648  12.811  22.020   2.731
12323W        W84649  13.125   9.660   4.066
12324W        W84650  11.078   9.704  10.567
12325W        W84651  41.406  35.733  11.563
12326W        W84652  19.882   9.016   1.417
12327W        W84653   9.225   9.911   3.797
12328W        W84654   1.737   2.388  13.259
12329W        W84655  17.819  25.149  13.996
12330W        W84656   1.020  25.981   0.121
12331W        W84657  35.472  35.994  10.783
12332W        W84658  40.043  13.898   0.810
12333W        W84659  32.557  31.541   3.220
12334W        W84660  35.375  34.829   2.846
12335W        W84661  19.510  38.981  11.387
12336W        W84662  29.935   9.194  13.867
12337W        W84663   8.041  33.267  10.307
12338W        W84664  23.269  35.355   3.887
12339W        W84665  38.416  32.597  12.587
12340W        W84666  19.589   5.677   1.050
12341W        W84667  38.354  37.511   1.174
12342W        W84668  26.508   4.375   3.479
12343W        W84669   1.214  20.155  14.853
12344W        W84670   4.274  17.139  13.572
12345W        W84671  22.583  29.123  12.002
12346W        W84672  29.667  30.384  12.029
12347W        W84673   3.477  30.539   1.754
12348W        W84674  34.472  23.191   4.304
12349W        W84675  41.300  30.094   1.712
12350W        W84676  17.807   9.206   3.493
12351W        W84677  18.322  23.503  14.814
12352W        W84678  21.205  40.897   0.375
12353W        W84679  40.812  35.374  11.471
12354W        W84680   4.511  30.600  13.442
12355W        W84681  31.985  12.454   1.604
12356W        W84682  19.092  37.956   4.116
12357W        W84683  30.912  40.716  14.944
12358W        W84684  43.430  10.351   1.015
12359W        W84685  40.477  15.088  10.980
12360W        W84686   6.378  14.209   1.882
12361W        W84687  32.342  26.947  14.873
12362W        W84688  23.517  19.529   2.151
12363W        W84689   7.996   6.847  12.104
12364W        W84690  12.235  31.541   4.370
12365W        W84691  44.025   8.012  10.811
12366W        W84692  11.348  25.460   0.387
12367W        W84693  22.068  20.505  11.936
12368W        W84694  19.635  18.590  10.723
12369W        W84695  36.800  12.055   0.301
12370W        W84696  40.255   9.266  12.615
12371W        W84697  23.028   5.202   0.883
12372W        W84698  26.115   3.545  11.886
12373W        W84699  27.652  35.652   1.576
12374W        W84700  26.973  31.356   0.919
12375W        W84701  19.713   6.570  13.310
12376W        W84702   8.803  19.802   3.678
12377W        W84703   6.618  25.588   3.252
12378W        W84704  37.847  30.780   0.413
12379W        W84705   1.882  17.819   4.567
12380W        W84706   5.779  30.934  13.122
12381W        W84707  27.575   7.486   0.069
12382W        W84708  41.213  36.518  13.604
12383W        W84709   2.767   5.941  10.588
12384W        W84710  23.690  33.705   2.391
12385W        W84711  29.216   3.412  11.189
12386W        W84712  38.728  42.742  14.183
12387W        W84713  35.433   2.922  13.629
12388W        W84714  28.176  14.832  12.495
12389W        W84715  37.663  43.098   3.232
12390W        W84716  38.898  16.640   0.214
12391W        W84717  33.781   6.629  12.996
12392W        W84718  11.360  21.081  12.468
12393W        W84719  23.615  13.034   1.253
12394W        W84720  28.174  43.277   4.649
12395W        W84721  33.366  40.910  10.750
12396W        W84722  32.822  17.748   2.512
12397W        W84723   6.329   7.514   9.926
12398W        W84724  27.644  35.966  12.121
12399W        W84725  39.842   2.912   4.417
12400W        W84726  22.946  34.884   1.982
12401W        W84727  38.602  26.587  13.563
12402W        W84728  37.349  18.781  13.133
12403W        W84729  31.284  18.531  12.540
12404W        W84730  35.124  36.506  14.415
12405W        W84731  24.510  38.891  12.609
12406W        W84732  19.213  25.782   4.062
12407W        W84733  12.149   2.114  13.290
12408W        W84734   5.664  11.688   1.681
12409W        W84735  42.383   9.795   4.621
12410W        W84736  42.879  29.891  14.422
12411W        W84737   6.906  11.133  14.179
12412W        W84738   2.683  32.061  11.591
12413W        W84739  26.600  10.635   4.913
12414W        W84740  34.926  26.443  13.370
12415W        W84741  42.818   4.416   0.747
12416W        W84742   5.731  12.301  12.562
12417W        W84743  17.187  13.861  11.949
12418W        W84744  16.231  32.541   3.095
12419W        W84745  16.210  10.675  14.329
12420W        W84746   4.854  31.617  14.341
12421W        W84747  21.254   1.887  10.392
12422W        W84748  38.321   4.863   2.373
12423W        W84749  19.832  37.415  11.053
12424W        W84750   3.272   1.144   3.279
12425W        W84751  34.541  19.872  11.156
12426W        W84752  15.549  11.384  11.412
12427W        W84753  14.094  10.975  14.861
12428W        W84754  32.219   0.874  13.987
12429W        W84755  34.316  29.696  13.864
12430W        W84756  23.676  31.253  11.627
12431W        W84757  33.622  38.294  10.692
12432W        W84758  35.235  35.991   4.556
12433W        W84759  20.128  43.062  10.052
12434W        W84760  35.129   8.191   0.450
12435W        W84761  22.289  41.354  14.686
12436W        W84762  18.997  16.948   3.769
12437W        W84763  10.286  16.095   4.430
12438W        W84764  42.971   7.146  13.940
12439W        W84765   6.418  21.024  10.370
12440W        W84766  44.423  21.184  11.003
12441W        W84767  36.374  17.720   1.391
12442W        W84768   0.159  38.294   0.479
12443W        W84769  25.998  31.576  14.582
12444W        W84770   1.917  36.966   2.459
12445W        W84771  11.333  40.972   2.723
12446W        W84772   3.952  17.179  11.090
12447W        W84773  28.105  41.084  11.487
12448W        W84774  28.652  18.686   2.350
12449W        W84775  17.825  32.901   1.927
12450W        W84776   3.785  39.386   3.781
12451W        W84777  35.356  15.803  11.587
12452W        W84778  10.054  16.019   1.468
12453W        W84779  25.524  10.183   2.518
12454W        W84780   5.164  33.110   3.727
12455W        W84781  33.492   6.924  11.876
12456W        W84782  27.224  19.552   1.355
12457W        W84783  13.830  11.673   1.005
12458W        W84784  19.380  23.989  14.342
12459W        W84785  41.700  42.822  14.422
12460W        W84786   0.814   3.270   3.301
12461W        W84787  28.951  34.222   2.786
12462W        W84788   9.294   9.035   4.734
12463W        W84789  22.981  26.176  14.938
12464W        W84790  29.497   5.892  11.956
12465W        W84791  22.691  10.001  10.927
12466W        W84792  15.022   6.757  10.686
12467W        W84793  44.785  31.282  13.387
12468W        W84794  20.338  11.890  12.047
12469W        W84795  43.821  34.727   4.907
12470W        W84796  17.427  38.944  10.616
12471W        W84797   2.461  22.252  10.677
12472W        W84798  36.459  20.806   2.193
12473W        W84799   2.547   3.543  14.900
12474W        W84800   2.795  17.023  12.063
12475W        W84801  24.588  39.943   2.865
12476W        W84802  10.465  33.299   2.682
12477W        W84803  38.052  27.640  14.543
12478W        W84804  14.886   3.112   4.087
12479W        W84805   2.735  37.961  12.823
12480W        W84806  24.494  36.589  14.062
12481W        W84807   4.888  42.611  14.494
12482W        W84808   8.906   2.832  13.435
12483W        W84809   5.360  36.469   2.098
12484W        W84810  23.785   9.302  12.441
12485W        W84811  26.715   4.897   0.937
12486W        W84812  36.493  35.992   1.342
12487W        W84813  29.756  32.000  11.838
12488W        W84814  11.121  43.242  14.860
12489W        W84815  32.921  29.555   1.000
12490W        W84816  27.012  29.464   0.850
12491W        W84817   8.382  14.807   3.097
12492W        W84818  13.757  13.505   0.481
12493W        W84819  33.284   8.548   3.414
12494W        W84820  29.335  32.339   2.180
12495W        W84821  25.231   2.773   2.374
12496W        W84822  23.571  44.704  11.542
12497W        W84823  28.218  44.315   0.824
12498W        W84824  15.079  39.321   3.116
12499W        W84825   7.390  19.977   3.803
12500W        W84826  20.040  33.847   4.628
12501W        W84827  34.581  21.926  13.963
12502W        W84828  26.687   1.028   1.469
12503W        W84829  24.708  15.399   5.307
12504W        W84830  15.659  16.831  12.170
12505W        W84831  39.787  44.699  12.443
12506W        W84832  33.065  14.600   1.410
12507W        W84833  22.095   8.364  12.867
12508W        W84834   0.029  36.769  13.404
12509W        W84835  31.205   6.719  10.686
12510W        W84836  35.138  41.366   5.001
12511W        W84837  43.181   0.597  12.575
12512W        W84838  33.502   8.670  14.524
12513W        W84839  34.039  29.735   3.737
12514W        W84840  19.292  25.252   1.350
12515W        W84841  40.043  19.345  10.743
12516W        W84842  14.927  17.762   0.235
12517W        W84843  33.227  38.987  13.013
12518W        W84844  42.774   8.300   4.338
12519W        W84845  22.055  20.500   2.683
12520W        W84846  36.510  31.622  11.135
12521W        W84847  34.100  35.417   2.846
12522W        W84848  37.143   4.655   3.272
12523W        W84849  29.658  29.427  13.837
12524W        W84850   1.288  37.446  12.484
12525W        W84851  10.969  42.035   1.917
12526W        W84852  10.571  34.470   9.716
12527W        W84853  19.095  24.203   1.535
12528W        W84854  16.447  27.105   0.430
12529W        W84855  16.614  35.854  10.758
12530W        W84856   7.023  25.981  12.420
12531W        W84857  38.895   6.167  12.330
12532W        W84858  30.895   8.826   0.468
12533W        W84859   5.371  40.291  13.579
12534W        W84860  34.414  43.313  14.712
12535W        W84861  18.488  21.115   3.614
12536W        W84862  13.055  41.405  13.876
12537W        W84863  12.946  14.295  10.571
12538W        W84864  26.264  38.619   4.252
12539W        W84865   8.650   4.402  14.873
12540W        W84866  34.864  33.808  14.613
12541W        W84867  14.413  13.874   3.289
12542W        W84868  20.325  29.177   1.290
12543W        W84869  35.950  33.009   2.683
12544W        W84870  16.595   2.678  12.519
12545W        W84871  41.411   8.462   4.700
12546W        W84872  36.074  13.777  14.444
12547W        W84873  17.479  38.810  13.128
12548W        W84874  29.366   2.531  12.017
12549W        W84875   7.833  43.036   2.698
12550W        W84876   8.877  30.828   4.283
12551W        W84877   7.254  24.904  13.354
12552W        W84878   5.701  13.884   2.292
12553W        W84879  36.774  44.199   1.784
12554W        W84880  28.097  10.376  11.704
12555W        W84881  26.960  11.774   0.551
12556W        W84882  35.596  12.274   3.189
12557W        W84883  27.435  37.468   1.737
12558W        W84884  19.174   2.531   4.812
12559W        W84885  43.517  12.215  13.356
12560W        W84886  12.158  36.592  12.610
12561W        W84887   9.416   6.330   4.802
12562W        W84888  28.653  35.304   4.123
12563W        W84889  13.613  36.451   3.749
12564W        W84890  28.957   1.523  13.110
12565W        W84891  23.902  40.015   5.223
12566W        W84892  25.538  40.419   2.451
12567W        W84893  39.308   0.996   1.428
12568W        W84894  21.174  34.601   3.108
12569W        W84895   1.197  40.550   1.240
12570W        W84896  44.903  19.268  13.224
12571W        W84897  43.559  29.541  10.631
12572W        W84898   3.412   7.318   4.832
12573W        W84899  18.927  26.452   5.142
12574W        W84900   8.867  12.076  11.495
12575W        W84901  23.947  21.176   2.844
12576W        W84902  26.277  19.922  12.082
12577W        W84903  42.812  23.147   0.576
12578W        W84904  37.630   7.440  12.265
12579W        W84905  39.970  19.821  12.116
12580W        W84906   0.908  23.826  14.951
12581W        W84907  41.129  12.384   4.209
12582W        W84908   9.591  36.430  10.714
12583W        W84909  30.112   0.836  10.458
12584W        W84910  24.264  38.411   3.702
12585W        W84911   6.211  40.826   0.824
12586W        W84912  32.084  28.290   2.452
12587W        W84913  42.968   3.484  13.744
12588W        W84914   8.819  32.946   4.341
12589W        W84915  39.146   3.575  12.498
12590W        W84916  35.407  17.742  10.598
12591W        W84917  32.893  20.134   1.814
12592W        W84918  40.413  35.019  10.845
12593W        W84919  27.505  39.240  11.528
12594W        W84920   2.739  25.146  10.381
12595W        W84921  18.559  26.974   1.687
12596W        W84922  36.301  14.967  11.022
12597W        W84923  11.364   0.745   4.053
12598W        W84924  44.173  12.771  14.435
12599W        W84925  40.254  34.132   2.213
12600W        W84926  16.857  16.887   3.180
12601W        W84927  36.590  43.761   3.755
12602W        W84928  20.534  17.278   1.887
12603W        W84929  31.031  13.214   0.250
12604W        W84930   7.898  44.204  14.810
12605W        W84931  10.720  24.523   1.391
12606W        W84932   1.833  12.845  13.817
12607W        W84933   6.097   6.930  13.181
12608W        W84934  23.702   1.200  13.337
12609W        W84935  34.130  36.691  10.647
12610W        W84936  27.933  40.511   0.924
12611W        W84937  29.217  11.191   3.722
12612W        W84938  35.012  22.217   2.375
12613W        W84939  29.049   1.456   0.930
12614W        W84940   0.285  36.546  10.726
12615W        W84941  12.287  19.887   0.311
12616W        W84942  23.346  39.251   0.444
12617W        W84943   5.791  19.168  13.970
12618W        W84944   8.556  44.213   0.775
12619W        W84945  18.735   2.782   4.630
12620W        W84946   3.038  39.320  10.646
12621W        W84947  34.807  30.476  14.243
12622W        W84948  13.811  40.760   2.767
12623W        W84949   5.761  14.271   4.694
12624W        W84950   6.888  19.048   3.577
12625W        W84951  17.115   9.400   0.403
12626W        W84952  36.870   0.343  14.916
12627W        W84953   1.263  28.216   2.415
12628W        W84954  13.724  12.596  11.572
12629W        W84955  19.561   0.399  10.979
12630W        W84956  17.142   2.419  12.453
12631W        W84957   6.904   5.633  14.516
12632W        W84958  37.137  25.152  11.064
12633W        W84959  38.094  22.689   2.170
12634W        W84960   6.513  18.504  11.852
12635W        W84961   1.773  25.889   3.686
12636W        W84962  18.547  36.077  12.443
12637W        W84963  42.338  20.951   1.693
12638W        W84964   3.256   1.744  10.986
12639W        W84965  25.065   7.213  13.399
12640W        W84966  43.322   4.898  11.810
12641W        W84967  28.200   0.247   2.258
12642W        W84968  40.816   7.283   0.574
12643W        W84969  25.154   4.213   2.928
12644W        W84970   5.233  33.741  13.087
12645W        W84971  33.177  20.732  10.558
12646W        W84972  16.030  30.866   1.629
12647W        W84973  16.739  21.117  10.712
12648W        W84974  12.732  27.083  14.557
12649W        W84975  17.961  20.481  12.091
12650W        W84976  42.804  27.612  12.524
12651W        W84977  33.434  23.626  11.171
12652W        W84978  37.848  13.245   9.826
12653W        W84979  10.573  25.978   3.776
12654W        W84980  29.016  26.241   1.306
12655W        W84981  25.604   5.163   2.311
12656W        W84982   6.185  10.411  12.619
12657W        W84983  40.745  30.392  12.607
12658W        W84984  28.979  12.208   4.606
12659W        W84985  12.070  31.964   1.356
12660W        W84986  44.312  27.379   0.067
12661W        W84987  31.687  24.670   1.936
12662W        W84988  12.857  24.681   1.795
12663W        W84989  38.612  10.179  10.224
12664W        W84990  25.113   3.542   3.759
12665W        W84991   6.934   1.838  11.789
12666W        W84992  30.546  22.808   0.424
12667W        W84993   6.797   5.886  12.144
12668W        W84994  35.825  35.928  12.369
12669W        W84995   1.016   3.779   2.189
12670W        W84996  37.925  13.218   3.155
12671W        W84997  10.155  26.396  11.590
12672W        W84998  23.592  18.755  11.967
12673W        W84999  29.383  40.533   2.681
12674W        W85000  29.507  10.610  11.000
12675W        W85001  43.403  35.461  13.022
12676W        W85002  23.050  40.488  12.152
12677W        W85003   9.161  36.585  10.424
12678W        W85004   5.179   3.826   1.131
12679W        W85005  30.656   3.962   1.068
12680W        W85006  38.720   5.823  13.826
12681W        W85007  43.272  42.864  14.300
12682W        W85008  38.825  16.337   3.740
12683W        W85009  44.082  44.529  10.755
12684W        W85010  38.452  29.809   1.877
12685W        W85011   4.424  12.663  14.451
12686W        W85012  43.801  13.311  13.365
12687W        W85013  32.424  15.203   0.275
12688W        W85014  15.209  20.719  10.594
12689W        W85015   9.004  29.529   2.592
12690W        W85016   5.056  37.781  12.806
12691W        W85017  33.260  29.195  13.293
12692W        W85018  26.165   9.238  11.410
12693W        W85019  17.145  14.789  11.471
12694W        W85020  27.225  29.026  13.400
12695W        W85021  22.722  41.568  14.889
12696W        W85022  41.435  31.911  10.508
12697W        W85023  27.283   9.179   2.681
12698W        W85024  34.485  24.966  10.740
12699W        W85025  29.534  33.407  13.040
12700W        W85026  10.887  37.418  14.181
12701W        W85027  14.430  37.855   3.625
12702W        W85028   0.345  30.087  10.333
12703W        W85029  43.815  21.079  11.913
12704W        W85030   8.323  42.921   2.812
12705W        W85031   9.947  18.917  13.920
12706W        W85032  41.906   1.725   4.342
12707W        W85033  43.795  39.968   4.700
12708W        W85034  20.172  32.857  10.785
12709W        W85035  22.611   5.630  10.719
12710W        W85036  11.852   3.308   4.667
12711W        W85037  42.864  37.815  11.676
12712W        W85038  25.654  41.019   3.102
12713W        W85039  36.812  18.817  14.166
12714W        W85040   2.231  29.176   3.266
12715W        W85041  13.165   8.160  14.067
12716W        W85042  41.374  38.863   4.631
12717W        W85043  44.341   3.916   1.258
12718W        W85044   6.413  25.546  10.585
12719W        W85045  27.648  15.811  14.903
12720W        W85046   5.769  15.606  12.573
12721W        W85047  23.189  37.850  14.338
12722W        W85048   5.045  38.911  14.171
12723W        W85049   4.275  14.522   3.215
12724W        W85050  12.313  11.933  11.381
12725W        W85051  20.467  42.893  13.525
12726W        W85052  34.366  13.160   4.361
12727W        W85053   9.438  34.543  11.940
12728W        W85054  15.599  37.814   1.420
12729W        W85055  38.034   2.328   4.648
12730W        W85056  12.949  16.653   0.412
12731W        W85057   8.851  28.837  13.454
12732W        W85058  32.044  31.597   1.154
12733W        W85059  23.017   7.288   0.199
12734W        W85060  18.182   0.851   0.781
12735W        W85061  12.639   7.409  10.964
12736W        W85062  24.715  24.002   0.393
12737W        W85063   5.572  19.853  14.734
12738W        W85064  41.370  13.637   2.474
12739W        W85065  32.003  37.004   3.901
12740W        W85066  44.308  28.756  11.066
12741W        W85067   0.907  13.331   3.128
12742W        W85068  14.656   5.284   0.690
12743W        W85069  20.704  11.720  12.361
12744W        W85070  32.455  15.190  11.115
12745W        W85071  17.606   2.193  14.996
12746W        W85072   3.760   9.288   0.041
12747W        W85073  32.650  42.796   0.743
12748W        W85074  29.945  43.219  11.125
12749W        W85075  34.343   9.249  10.513
12750W        W85076   7.847   8.921   0.804
12751W        W85077  31.834  30.697  11.344
12752W        W85078  35.031  42.402   3.990
12753W        W85079  31.849   1.845  14.794
12754W        W85080   6.401   0.254   4.394
12755W        W85081  42.861  42.715   2.524
12756W        W85082  42.835  30.635  10.437
12757W        W85083   9.089  39.198  11.048
12758W        W85084  22.313  25.065   5.017
12759W        W85085  44.083  42.951  11.188
12760W        W85086  25.083  13.358   4.697
12761W        W85087   4.917  30.261  12.374
12762W        W85088  24.435  26.180  12.361
12763W        W85089  13.113   7.165   4.136
12764W        W85090  21.439  20.555  11.669
12765W        W85091  17.813  35.724   0.914
12766W        W85092   1.993  43.089  12.640
12767W        W85093  27.109   3.494   4.180
12768W        W85094  40.911   8.980  13.452
12769W        W85095  15.815  26.904  14.942
12770W        W85096  24.697  30.409  12.796
12771W        W85097  34.784   7.224   2.709
12772W        W85098  41.855  17.786   2.738
12773W        W85099  29.933  17.226   4.207
12774W        W85100  19.824  25.254  13.105
12775W        W85101  32.450  22.974  13.310
12776W        W85102  25.542   2.686  13.894
12777W        W85103  29.582   2.892  14.225
12778W        W85104  38.107  33.567   2.397
12779W        W85105  33.449  29.903  13.347
12780W        W85106   5.340  39.820  13.347
12781W        W85107   6.221   9.601   3.110
12782W        W85108  22.880  41.890   0.287
12783W        W85109  21.741  36.994  10.997
12784W        W85110  33.541  14.125  12.060
12785W        W85111  38.780  36.470  14.517
12786W        W85112   4.015   9.946  11.148
12787W        W85113  10.828  12.385   1.756
12788W        W85114  19.475   6.376  11.530
12789W        W85115   8.198   6.347  11.954
12790W        W85116  17.198  25.964   0.946
12791W        W85117  24.697   6.344  14.898
12792W        W85118  11.855   0.266  13.323
12793W        W85119  36.994  22.065   0.920
12794W        W85120  39.844  14.575  12.951
12795W        W85121   7.079  22.041  10.973
12796W        W85122   9.652  28.599   5.083
12797W        W85123  27.546   4.981   1.331
12798W        W85124  19.171  28.096   3.832
12799W        W85125  27.006  40.314  10.215
12800W        W85126   1.272  12.126   2.772
12801W        W85127  14.692  38.774   3.725
12802W        W85128  21.562   3.601   1.308
12803W        W85129  42.919  39.404   0.435
12804W        W85130   0.404  24.486  12.414
12805W        W85131  44.825  39.069  10.727
12806W        W85132  34.633  39.230  10.400
12807W        W85133   7.542  19.937  14.792
12808W        W85134   5.338  33.364   4.387
12809W        W85135  17.081  36.131   3.634
12810W        W85136   6.328  20.753  12.739
12811W        W85137  20.291  27.555  12.895
12812W        W85138   6.489  26.946   3.162
12813W        W85139   9.009  22.046   2.598
12814W        W85140  33.098   8.398   5.185
12815W        W85141  26.915  21.311  10.646
12816W        W85142  18.714  20.820  10.610
12817W        W85143  16.220   5.435   0.054
12818W        W85144  33.843  32.874   1.885
12819W        W85145  10.923  42.306  11.125
12820W        W85146  23.859  29.920  10.655
12821W        W85147  38.754  12.113  13.461
12822W        W85148  22.979   6.225   1.796
12823W        W85149  14.186  19.110   0.679
12824W        W85150   6.123  40.383   3.266
12825W        W85151  39.414  23.124   3.801
12826W        W85152  23.041   0.176  14.399
12827W        W85153   3.036  15.757   0.287
12828W        W85154   6.766  34.429   4.974
12829W        W85155  19.755   8.915  10.368
12830W        W85156  42.791  18.043   0.744
12831W        W85157  24.741  31.592   2.880
12832W        W85158   2.363  37.360  13.886
12833W        W85159  14.617  18.948   0.980
12834W        W85160  21.484  39.329  11.969
12835W        W85161  18.692  18.020   2.924
12836W        W85162  21.696   7.534  14.700
12837W        W85163   4.964  16.689  13.079
12838W        W85164   6.401   1.183   4.371
12839W        W85165  22.446   6.896   4.228
12840W        W85166  41.096  40.550  11.590
12841W        W85167  44.717  33.051   0.714
12842W        W85168  14.336  12.655   4.579
12843W        W85169  27.502   1.715  13.913
12844W        W85170  25.417  27.797   1.023
12845W        W85171   8.981  10.190   2.691
12846W        W85172  23.119  19.472  11.121
12847W        W85173   6.461  26.651   5.248
12848W        W85174   0.097  33.378  11.309
12849W        W85175  16.127  33.293  13.108
12850W        W85176  26.629  27.866   4.998
12851W        W85177  39.146   2.546   3.248
12852W        W85178  10.214   5.921   4.533
12853W        W85179  22.911  32.992  10.674
12854W        W85180   8.355  29.299  14.336
12855W        W85181   1.850  43.952  11.157
12856W        W85182  33.884  18.163  12.169
12857W        W85183  44.311  22.077  12.429
12858W        W85184  31.637   5.338   3.631
12859W        W85185  41.066  42.865   0.611
12860W        W85186  38.237   1.293   0.909
12861W        W85187  15.893  34.642  14.625
12862W        W85188  32.975  44.422   1.191
12863W        W85189  33.607   0.953   0.428
12864W        W85190  11.872  41.245  10.570
12865W        W85191  12.301  36.032  10.704
12866W        W85192  10.097  25.076   0.328
12867W        W85193  20.618  10.261  11.486
12868W        W85194  33.343  11.766   1.254
12869W        W85195  17.647  42.963   1.933
12870W        W85196  29.190  25.765   3.000
12871W        W85197   5.138  42.054  14.454
12872W        W85198  26.576   4.278  11.146
12873W        W85199  23.173  17.835  12.607
12874W        W85200  36.751  27.200   3.429
12875W        W85201   0.816  18.847  11.823
12876W        W85202   5.801  41.833   1.206
12877W        W85203   7.385  19.987  11.614
12878W        W85204  22.253  38.679  11.961
12879W        W85205  36.021  17.091  11.117
12880W        W85206   1.758  34.315   3.152
12881W        W85207  32.072  41.291   3.857
12882W        W85208  38.344  17.173   4.181
12883W        W85209   4.812  33.306   1.697
12884W        W85210  17.797  28.284   4.179
12885W        W85211  22.634   8.973  13.985
12886W        W85212  42.927  15.335   1.265
12887W        W85213  42.946   7.984   0.757
12888W        W85214  29.975  23.535  14.476
12889W        W85215  13.337   9.797  10.720
12890W        W85216  36.043   4.882  11.560
12891W        W85217  28.656  17.753  12.032
12892W        W85218  10.667  27.013   1.631
12893W        W85219   9.173  42.223  14.778
12894W        W85220   2.390  27.029  12.393
12895W        W85221  35.357  44.713  12.626
12896W        W85222  18.253  26.732   2.748
12897W        W85223  28.527  26.722   0.872
12898W        W85224  15.304  29.145   0.233
12899W        W85225  31.527  30.840   0.178
12900W        W85226  24.154  38.164  10.094
12901W        W85227  11.604  38.965  13.505
12902W        W85228   5.801  32.583   2.152
12903W        W85229  28.096   0.458  11.211
12904W        W85230   2.992   8.728  11.905
12905W        W85231   5.939  43.869  13.923
12906W        W85232  11.149   6.154  11.195
12907W        W85233  25.475  28.039   1.490
12908W        W85234  24.278   8.743   0.926
12909W        W85235  14.622  34.342   3.312
12910W        W85236  43.796  29.915   0.852
12911W        W85237   0.114   5.520   1.490
12912W        W85238  10.674  31.715   0.273
12913W        W85239  26.981  26.200   1.871
12914W        W85240   0.961   6.713   0.731
12915W        W85241  23.461  30.465  14.966
12916W        W85242  41.060  14.134   1.244
12917W        W85243  35.806   4.945  14.793
12918W        W85244  19.979   9.738  11.460
12919W        W85245  35.911  20.487  13.252
12920W        W85246   6.289   6.243   2.446
12921W        W85247   7.764   7.192  14.297
12922W        W85248   9.112  38.914  11.480
12923W        W85249  23.197  38.370   0.795
12924W        W85250   3.804  23.635  10.248
12925W        W85251   6.676  25.129   2.608
12926W        W85252  43.481   9.293  14.874
12927W        W85253  10.905  15.586   1.375
12928W        W85254  26.513  35.830  14.469
12929W        W85255   1.338  19.620  13.380
12930W        W85256  28.418   9.819  14.351
12931W        W85257  44.059  35.626   3.309
12932W        W85258  37.793  27.061  12.522
12933W        W85259  31.006   5.359  14.915
12934W        W85260  11.696  38.718  14.260
12935W        W85261  23.746  23.926   2.864
12936W        W85262  26.086  26.363   1.817
12937W        W85263  28.101  31.885  14.763
12938W        W85264  29.689  18.801   2.329
12939W        W85265   2.786  26.922  14.228
12940W        W85266  43.793  21.647   1.832
12941W        W85267  42.428   4.498   0.432
12942W        W85268  24.645   0.157   2.143
12943W        W85269  20.826  25.916   3.326
12944W        W85270  12.269  11.694   1.502
12945W        W85271  36.423  33.426   0.843
12946W        W85272  29.021  43.329   1.753
12947W        W85273   8.325  42.716  13.399
12948W        W85274  38.424   6.409   3.319
12949W        W85275  26.065   1.171  13.319
12950W        W85276   5.203  14.635   3.313
12951W        W85277  36.450  36.702  10.356
12952W        W85278   7.313  12.269   4.109
12953W        W85279  17.850   0.260   2.993
12954W        W85280  38.807  27.801   1.451
12955W        W85281  24.447  17.283  11.517
12956W        W85282  40.516  42.706   0.951
12957W        W85283  16.215  39.844  10.320
12958W        W85284  42.552  20.942  14.270
12959W        W85285  13.368   6.178  12.089
12960W        W85286   8.194  20.657  10.905
12961W        W85287  24.814   6.348   4.661
12962W        W85288   5.685  37.012   4.866
12963W        W85289   1.822  31.131  12.769
12964W        W85290  21.022  34.161  10.996
12965W        W85291  19.632  31.233  14.522
12966W        W85292  32.153  35.473  13.688
12967W        W85293  11.714   4.708  13.129
12968W        W85294   3.294  23.624   2.777
12969W        W85295  19.004  37.564  13.251
12970W        W85296  13.599  14.139  14.706
12971W        W85297  28.406  41.436   2.057
12972W        W85298  24.739  30.891   1.407
12973W        W85299  21.617  36.531   1.418
12974W        W85300  10.393  38.828  11.147
12975W        W85301  29.798  11.093   0.330
12976W        W85302  28.625   5.655   3.836
12977W        W85303   4.955  29.550  12.119
12978W        W85304  32.830   6.905  12.863
12979W        W85305   0.887  43.852   2.772
12980W        W85306  18.215  36.887  13.991
12981W        W85307   8.119   3.918  13.533
12982W        W85308  10.621   7.559  12.460
12983W        W85309  41.975  11.109  14.412
12984W        W85310  30.969  37.309   0.359
12985W        W85311   7.764   5.822   3.262
12986W        W85312   3.095   8.458  13.034
12987W        W85313  25.446  29.035   4.238
12988W        W85314   0.934   4.346  10.663
12989W        W85315   3.278  10.005  10.264
12990W        W85316  29.496  17.268  14.384
12991W        W85317  28.253  31.785   1.089
12992W        W85318  17.573  43.514  10.608
12993W        W85319   3.390  15.162   1.663
12994W        W85320   2.710  28.062  13.498
12995W        W85321  22.379  40.721   2.247
12996W        W85322  26.665  10.662  11.488
12997W        W85323  35.506   0.291  10.763
12998W        W85324  22.404   3.286  12.480
12999W        W85325  44.466  24.008  11.072
13000W        W85326  32.399  19.729   0.893
13001W        W85327  42.612  36.807  11.246
13002W        W85328   5.798  37.767   3.237
13003W        W85329   8.120  12.435  11.644
13004W        W85330   2.044  22.389   4.626
13005W        W85331  21.134  30.209  14.252
13006W        W85332  22.051  23.659  12.821
13007W        W85333  40.312   4.637   4.587
13008W        W85334  12.670  29.209   1.256
13009W        W85335  25.387  13.167   1.725
13010W        W85336  20.125  19.104   0.876
13011W        W85337  20.641   2.257   3.169
13012W        W85338   9.106  35.993  12.500
13013W        W85339  22.241   1.028  10.741
13014W        W85340  40.911  15.279   4.922
13015W        W85341  44.022  18.757   2.326
13016W        W85342  38.843  38.089  14.775
13017W        W85343   6.608  35.122   3.880
13018W        W85344   0.289  42.428   1.300
13019W        W85345  18.751   2.256   3.733
13020W        W85346  22.949  16.186   1.390
13021W        W85347  31.080  23.917  14.934
13022W        W85348  28.857  36.926   3.209
13023W        W85349   1.466  40.592   2.653
13024W        W85350   4.035  43.029  12.376
13025W        W85351   6.763  17.703  11.448
13026W        W85352  38.585  27.575   3.199
13027W        W85353  41.388  24.498  12.100
13028W        W85354   4.913  13.007   3.846
13029W        W85355  27.009  20.219  14.510
13030W        W85356  22.801  15.451  11.980
13031W        W85357  44.044  32.109  12.403
13032W        W85358  29.235  17.481   3.728
13033W        W85359   0.026  41.900   4.191
13034W        W85360  10.218  22.700   4.609
13035W        W85361  36.167  31.118  14.808
13036W        W85362  26.620  38.449  13.451
13037W        W85363  35.405  26.579  11.688
13038W        W85364  37.933  31.026  12.959
13039W        W85365  22.080  42.963  14.170
13040W        W85366  12.929   4.735   0.465
13041W        W85367  14.547  29.119  11.142
13042W        W85368  19.156   6.774  12.571
13043W        W85369   5.434   7.939   0.005
13044W        W85370  44.029  42.876   3.171
13045W        W85371  37.409  12.591   0.852
13046W        W85372  43.667  44.376  10.445
13047W        W85373  18.342  40.109   3.619
13048W        W85374   2.468  11.502   4.509
13049W        W85375   7.043  43.429   3.703
13050W        W85376  22.410  26.219   2.860
13051W        W85377  32.549  39.275  12.108
13052W        W85378  41.827  25.071   1.289
13053W        W85379  42.480  14.729  11.042
13054W        W85380   2.329   7.799   1.913
13055W        W85381  17.198  41.325   3.408
13056W        W85382  36.906  43.264  14.266
13057W        W85383  43.484  36.967   4.959
13058W        W85384  11.407  13.467  12.430
13059W        W85385  24.537   4.442  14.239
13060W        W85386  14.224  10.880   4.118
13061W        W85387   5.908   0.053  13.439
13062W        W85388   8.597   9.437   3.441
13063W        W85389  22.492  35.080  13.397
13064W        W85390   3.251  40.105  12.041
13065W        W85391  28.756  21.968   2.625
13066W        W85392  22.052  31.265  10.471
13067W        W85393  16.889   0.949   1.883
13068W        W85394  29.612  40.830  12.873
13069W        W85395  23.692  27.657  12.058
13070W        W85396  14.674  30.659   1.480
13071W        W85397  43.019  15.458   4.920
13072W        W85398   8.866  15.258  12.737
13073W        W85399  28.039  30.384  13.432
13074W        W85400  35.994   5.616  10.771
13075W        W85401   7.758  35.439   2.795
13076W        W85402  28.117  39.359  14.245
13077W        W85403   0.765  24.301  14.994
13078W        W85404  15.029  31.103   0.752
13079W        W85405  43.094   5.850  13.683
13080W        W85406   6.083  33.087   3.605
13081W        W85407  37.939   2.940  13.771
13082W        W85408  34.938  33.293   5.742
13083W        W85409   6.687  39.839  11.140
13084W        W85410  17.656  41.483   3.227
13085W        W85411  37.954  21.484  10.639
13086W        W85412  34.411  17.357   1.487
13087W        W85413   4.338  43.834  10.708
13088W        W85414  36.619  13.916   0.336
13089W        W85415  14.594   0.413  14.326
13090W        W85416  43.445  12.273   4.821
13091W        W85417  12.729  13.147   1.805
13092W        W85418  42.697  29.821   4.490
13093W        W85419  11.188  15.589   3.287
13094W        W85420  20.296  38.486  12.932
13095W        W85421  34.822  28.430  14.434
13096W        W85422   7.385  29.026  14.599
13097W        W85423  13.295  19.540   4.977
13098W        W85424  12.186   6.728  13.482
13099W        W85425   3.481  28.874   4.610
13100W        W85426  39.715   6.262  14.981
13101W        W85427   0.912  16.103  10.758
13102W        W85428   3.590   4.785  12.360
13103W        W85429   3.812  23.612   2.733
13104W        W85430  22.110  15.480   3.732
13105W        W85431  15.845  33.134  14.418
13106W        W85432  29.392  23.874   0.526
13107W        W85433  11.201   8.730   4.923
13108W        W85434   7.145  25.737   2.773
13109W        W85435   1.851  14.214   1.421
13110W        W85436  20.911  20.813   1.962
13111W        W85437   6.921  18.529   3.638
13112W        W85438  44.810   7.221  12.957
13113W        W85439  42.104  26.829   4.160
13114W        W85440  41.565  44.869  10.349
13115W        W85441  22.101   5.362   4.644
13116W        W85442  25.587   5.366  12.425
13117W        W85443  43.315  42.479  13.924
13118W        W85444   6.242  20.339   0.772
13119W        W85445  22.556  20.973  12.479
13120W        W85446  14.585   9.893  11.009
13121W        W85447  16.859  15.749   4.475
13122W        W85448  43.622  12.719  10.951
13123W        W85449  22.840   2.205   0.108
13124W        W85450  27.668  15.264  14.720
13125W        W85451  42.437  23.617  10.306
13126W        W85452  10.393  44.164  11.923
13127W        W85453  29.335  15.335   1.340
13128W        W85454  25.509   8.754   4.405
13129W        W85455  14.155  22.135   4.650
13130W        W85456  31.008  11.809  14.049
13131W        W85457  25.084  44.075  13.955
13132W        W85458  26.427   7.819   1.372
13133W        W85459  25.571  28.692   0.714
13134W        W85460  17.120  32.652  10.503
13135W        W85461  22.178   5.924  10.593
13136W        W85462   2.543  13.922   2.784
13137W        W85463  39.897  27.258  11.926
13138W        W85464  27.426   4.304   3.790
13139W        W85465  11.233  31.067   2.658
13140W        W85466  41.424  15.416  14.936
13141W        W85467   4.955  13.572  13.383
13142W        W85468   4.168  23.133  11.848
13143W        W85469  14.172  16.788  10.714
13144W        W85470  22.234  33.807   1.411
13145W        W85471  40.605  40.760  11.601
13146W        W85472  28.093  16.709   2.395
13147W        W85473  13.392  43.075  10.666
13148W        W85474   9.257  21.732   4.678
13149W        W85475  40.750  32.788   0.473
13150W        W85476  10.347  19.377  10.458
13151W        W85477  34.154  44.248  14.518
13152W        W85478  25.700  26.373   0.632
13153W        W85479  26.604  15.813   1.357
13154W        W85480  19.707  31.323   2.412
13155W        W85481  37.340  10.787  11.993
13156W        W85482  39.314  34.747   3.170
13157W        W85483  37.297  29.489   0.817
13158W        W85484   7.151  30.866  11.051
13159W        W85485   2.497   8.327  12.451
13160W        W85486   7.666  39.397  12.352
13161W        W85487   7.385  21.289   3.413
13162W        W85488  32.959  22.128  11.535
13163W        W85489  11.815  26.579   0.495
13164W        W85490  16.545  17.331  12.585
13165W        W85491  29.958  18.205  11.581
13166W        W85492   7.793  12.049  13.355
13167W        W85493  18.944  28.541   3.786
13168W        W85494  12.399   0.580  12.496
13169W        W85495   7.455  20.548   4.647
13170W        W85496  20.042  44.021  14.341
13171W        W85497  16.236  28.920  12.535
13172W        W85498  20.258  33.059  13.794
13173W        W85499  37.526  32.752   2.135
13174W        W85500  38.531  12.407   9.832
13175W        W85501  37.935   2.299   2.707
13176W        W85502  26.036  12.872   3.468
13177W        W85503  10.373  38.197  14.247
13178W        W85504  38.460  34.082   1.363
13179W        W85505  24.503   0.346   2.796
13180W        W85506  18.560  31.368  12.394
13181W        W85507  25.043  10.185  14.478
13182W        W85508   0.357   5.817  12.337
13183W        W85509  26.022  33.872   2.449
13184W        W85510  44.038  13.199  14.740
13185W        W85511   6.874  10.183  11.425
13186W        W85512  25.519  23.235   2.435
13187W        W85513   8.851   7.726  14.760
13188W        W85514   6.649  16.574   2.690
13189W        W85515   3.470  17.679  11.923
13190W        W85516  10.862  24.187   3.179
13191W        W85517  24.767  25.620  11.388
13192W        W85518  29.531  17.245  13.547
13193W        W85519  43.977  31.588  12.367
13194W        W85520  39.557  37.232   3.858
13195W        W85521  35.667   9.837  10.709
13196W        W85522  28.107  22.651  12.086
13197W        W85523  27.501  31.110  13.948
13198W        W85524  23.209  14.588  11.992
13199W        W85525  39.951   6.731  14.931
13200W        W85526  25.945  39.415  12.860
13201W        W85527   5.072   4.380  10.612
13202W        W85528  33.072  34.000  14.529
13203W        W85529  32.911  21.286  11.779
13204W        W85530  39.077   7.979   0.420
13205W        W85531  33.982   8.064  13.037
13206W        W85532  14.273  31.692  10.710
13207W        W85533  31.204  12.947  13.286
13208W        W85534  13.558  19.493   1.393
13209W        W85535  26.049  18.971   1.365
13210W        W85536   2.322  23.299  10.901
13211W        W85537  11.193  15.291  14.441
13212W        W85538   0.464  42.914   0.491
13213W        W85539  44.287  23.669  10.666
13214W        W85540  33.128  13.572  11.555
13215W        W85541  34.102  27.011  10.125
13216W        W85542  12.802   6.757  14.816
13217W        W85543  44.870  38.836  11.176
13218W        W85544  18.556  17.520   4.230
13219W        W85545   2.105  41.953   0.243
13220W        W85546  43.894  32.692   4.158
13221W        W85547  13.051  27.073   1.806
13222W        W85548   5.481  33.043  10.967
13223W        W85549  11.688  23.539  10.592
13224W        W85550  29.102  26.629  12.310
13225W        W85551   3.477  44.309  14.414
13226W        W85552   1.193  31.651  14.717
13227W        W85553  29.871  20.560   1.732
13228W        W85554  26.929  12.065  12.832
13229W        W85555  16.305  31.571  12.418
13230W        W85556  27.405  33.059   0.972
13231W        W85557  12.657  37.811  10.432
13232W        W85558  25.446  13.215   0.315
13233W        W85559   4.462   9.852  11.603
13234W        W85560  11.334  32.694   3.688
13235W        W85561  20.119  29.066   3.667
13236W        W85562  35.113  38.783  14.864
13237W        W85563  34.367   1.770   3.766
13238W        W85564  17.119  41.630  10.265
13239W        W85565   6.186  41.397  14.850
13240W        W85566  42.850  23.677  14.242
13241W        W85567  35.077  37.625   4.177
13242W        W85568  35.259  37.644  12.683
13243W        W85569  26.550  32.019   2.804
13244W        W85570  35.113  14.215  13.357
13245W        W85571  28.958  16.383   1.379
13246W        W85572  34.457  41.546   0.773
13247W        W85573  44.860  28.197   0.854
13248W        W85574   5.806   8.163   1.696
13249W        W85575  35.272  30.551  14.041
13250W        W85576   8.326  41.972   1.846
13251W        W85577  22.200   4.597  13.985
13252W        W85578  22.144  15.295  12.589
13253W        W85579  35.506   9.720   4.690
13254W        W85580  42.551  28.936   2.789
13255W        W85581  18.099  31.527  12.556
13256W        W85582  41.227  16.983   3.627
13257W        W85583  43.383  34.075  10.940
13258W        W85584  38.389   2.904  12.341
13259W        W85585  14.034  28.954  11.140
13260W        W85586  41.445  22.281   4.131
13261W        W85587  14.166  37.392   1.820
13262W        W85588  43.388  26.669  13.905
13263W        W85589  28.551  22.466   4.160
13264W        W85590  14.196  39.423   2.618
13265W        W85591  18.100   1.257  10.378
13266W        W85592  33.436   3.126  10.266
13267W        W85593  20.076  42.912   0.954
13268W        W85594  39.862  29.744   3.191
13269W        W85595   0.079  28.865  14.796
13270W        W85596  29.877  14.106  13.613
13271W        W85597  33.622  24.049  11.912
13272W        W85598  30.157   2.796   2.775
13273W        W85599  20.745   0.057  11.581
13274W        W85600  30.964  39.522   1.298
13275W        W85601   2.671  22.629   0.906
13276W        W85602   2.962  37.655  14.414
13277W        W85603  10.865   3.046  13.488
13278W        W85604  17.827  41.868   2.892
13279W        W85605  43.881  24.626  10.802
13280W        W85606  12.594  21.166  10.639
13281W        W85607  27.108  26.999   0.837
13282W        W85608   2.508  15.128  13.019
13283W        W85609  41.251  14.110  13.581
13284W        W85610   4.961  23.726  14.410
13285W        W85611  24.709  26.613   4.930
13286W        W85612  36.480  41.303  12.060
13287W        W85613  38.819  29.569   5.025
13288W        W85614  27.144   7.342   2.201
13289W        W85615  24.591  35.500  11.914
13290W        W85616  12.839  31.522   1.324
13291W        W85617   5.413  25.567   0.645
13292W        W85618   8.267  14.390   0.389
13293W        W85619  35.116  29.242  14.295
13294W        W85620  39.634  25.691   0.260
13295W        W85621   7.407  26.179   2.793
13296W        W85622  26.138  23.492   4.445
13297W        W85623  37.857  19.186   4.808
13298W        W85624  17.668   8.339   0.956
13299W        W85625   4.335  20.462   2.662
13300W        W85626   8.470  40.540  11.236
13301W        W85627  14.648  43.390   1.341
13302W        W85628  10.218  41.575  13.573
13303W        W85629   7.258  38.440  11.029
13304W        W85630  23.191  41.905   0.790
13305W        W85631  14.514   0.879  10.394
13306W        W85632  30.679  44.431   4.258
13307W        W85633   2.753   8.211  13.979
13308W        W85634  32.611   6.754   3.274
13309W        W85635  15.281  41.055   2.857
13310W        W85636  27.738  26.479   4.935
13311W        W85637  30.012  20.996   3.286
13312W        W85638   7.381  34.321  11.091
13313W        W85639  38.461   0.682   0.384
13314W        W85640  14.260  23.181  11.662
13315W        W85641  36.540  38.409   1.787
13316W        W85642  27.252  16.328   0.895
13317W        W85643  12.320  10.799   3.934
13318W        W85644  13.625  34.071  11.940
13319W        W85645  27.949  41.593   3.287
13320W        W85646  16.333   7.359  13.902
13321W        W85647  39.693  18.978  11.960
13322W        W85648  13.667   7.131   1.307
13323W        W85649  42.067  37.063  14.809
13324W        W85650  11.345   3.745  11.310
13325W        W85651  28.099  26.411   0.919
13326W        W85652  16.226  10.671  12.908
13327W        W85653  38.246  21.604   2.235
13328W        W85654  38.609   9.863  13.959
13329W        W85655  19.045  33.401   2.110
13330W        W85656  26.633   5.659   4.669
13331W        W85657  13.267  20.776   3.060
13332W        W85658  40.824  28.927   1.138
13333W        W85659  36.125  18.136   2.320
13334W        W85660  26.189  44.406  13.744
13335W        W85661  12.644   1.893  12.994
13336W        W85662  22.696  25.544   0.936
13337W        W85663   2.827  28.051   1.304
13338W        W85664  17.681  32.418   2.181
13339W        W85665  22.492  29.652  12.749
13340W        W85666  44.742  39.967  12.097
13341W        W85667  17.639   3.401  14.310
13342W        W85668  30.018  11.093   4.780
13343W        W85669  23.513  22.945   1.444
13344W        W85670  40.822  34.929  11.151
13345W        W85671   8.560  39.578   2.293
13346W        W85672  22.399  16.362   3.698
13347W        W85673  11.768  13.626   0.918
13348W        W85674  34.901  18.578   1.802
13349W        W85675  23.223  31.198  10.578
13350W        W85676  25.972  19.562  12.769
13351W        W85677  20.958  41.678  13.031
13352W        W85678  25.910  23.250  12.339
13353W        W85679  14.890   4.280   4.604
13354W        W85680  41.096  38.861   1.773
13355W        W85681  32.990   0.014   0.401
13356W        W85682  17.513   3.959  12.381
13357W        W85683  18.665   0.365  13.843
13358W        W85684  19.161  31.461  11.102
13359W        W85685  33.051  33.845  11.077
13360W        W85686   4.436   5.018   4.618
13361W        W85687  38.606   2.171   3.158
13362W        W85688  43.197  38.210   2.784
13363W        W85689  23.964   6.573   0.876
13364W        W85690  28.168   9.321  14.317
13365W        W85691  17.587   3.307  10.514
13366W        W85692  33.608   3.672  11.971
13367W        W85693  44.471  34.222  10.286
13368W        W85694  42.468  17.681   2.429
13369W        W85695  15.092  35.933   4.701
13370W        W85696  15.213   2.483  14.789
13371W        W85697   2.356  10.175   4.116
13372W        W85698  29.948  15.404  13.447
13373W        W85699   2.699   5.457  14.682
13374W        W85700  23.534  15.683   2.791
13375W        W85701  25.196  12.103   2.272
13376W        W85702   3.781  43.062  13.890
13377W        W85703  20.043  33.872   0.344
13378W        W85704  25.147  20.549   0.513
13379W        W85705  13.409  18.722  11.537
13380W        W85706  18.807  29.137  11.493
13381W        W85707  39.149  13.033   2.744
13382W        W85708   2.739   3.885   1.252
13383W        W85709  23.018   2.002  12.028
13384W        W85710  27.213  36.218  11.973
13385W        W85711  15.386  29.203   1.436
13386W        W85712  21.328   5.798  13.844
13387W        W85713   3.801  32.120   3.649
13388W        W85714   8.891   1.314   1.848
13389W        W85715  35.656  21.698  14.932
13390W        W85716   7.032  26.622   4.093
13391W        W85717   4.214   6.733  11.362
13392W        W85718  19.715  27.700   2.365
13393W        W85719   5.379  37.936   3.534
13394W        W85720  38.802   0.195  11.333
13395W        W85721  14.372   4.872  10.642
13396W        W85722   7.145   2.811   1.821
13397W        W85723  24.427  14.240  14.255
13398W        W85724  22.732  36.372  12.071
13399W        W85725  17.130   4.783   1.837
13400W        W85726  29.586   8.850  13.045
13401W        W85727   7.303  32.576   1.827
13402W        W85728  41.873  31.061  11.584
13403W        W85729   8.902  35.096   0.309
13404W        W85730  15.823  10.722  12.564
13405W        W85731  32.000  44.315   5.275
13406W        W85732   5.307  26.165   1.257
13407W        W85733  30.999  21.394  10.172
13408W        W85734   4.812  27.121   2.801
13409W        W85735   5.492   4.428  12.876
13410W        W85736   9.287  39.062   2.121
13411W        W85737  26.226  21.458  14.808
13412W        W85738   0.234   6.312  12.455
13413W        W85739  22.921  39.305  12.014
13414W        W85740   1.806   2.524   0.275
13415W        W85741  33.388  24.195   1.925
13416W        W85742  12.652  13.144   1.271
13417W        W85743  42.780  14.865   2.188
13418W        W85744   8.237  34.799  12.853
13419W        W85745   9.746  18.776  10.725
13420W        W85746  14.021  32.692  14.406
13421W        W85747   2.427  14.281   4.100
13422W        W85748  10.347   3.403   3.365
13423W        W85749  17.198  27.652  11.690
13424W        W85750   1.405  37.958   2.449
13425W        W85751  40.527  43.628   3.221
13426W        W85752  18.267   0.266  12.426
13427W        W85753   3.110  29.308  11.755
13428W        W85754   7.358  33.193   4.050
13429W        W85755  43.052   3.503   0.400
13430W        W85756  27.421  12.208  14.885
13431W        W85757  22.526  36.623   0.375
13432W        W85758  28.087  38.305   2.779
13433W        W85759   2.990  19.646  11.170
13434W        W85760  21.807  23.569  14.221
13435W        W85761  44.492   0.488   1.774
13436W        W85762   5.286  30.008   0.229
13437W        W85763  29.218   9.005   0.335
13438W        W85764  41.380   8.642   1.244
13439W        W85765   1.401  17.137  12.667
13440W        W85766  32.106  44.987  14.478
13441W        W85767  34.705  10.670  14.996
13442W        W85768  17.635  39.727  13.702
13443W        W85769   9.554  23.980   4.200
13444W        W85770  12.614  35.221  13.424
13445W        W85771  16.683  26.366  11.764
13446W        W85772  28.155  39.928  10.635
13447W        W85773   5.347   0.669  11.074
13448W        W85774  27.110   1.798  12.562
13449W        W85775  11.581  35.839  13.333
13450W        W85776  18.926   4.108   4.763
13451W        W85777   1.299  29.467   1.859
13452W        W85778   7.701  11.745  12.873
13453W        W85779  19.328  23.784   2.300
13454W        W85780  38.795  35.907  14.016
13455W        W85781  31.092  36.152  13.585
13456W        W85782  40.510  36.521   1.100
13457W        W85783  25.946  15.718  11.851
13458W        W85784  44.244  16.634   2.719
13459W        W85785   8.989  28.679   1.667
13460W        W85786  33.985  43.456  14.976
13461W        W85787  26.883  35.469  11.183
13462W        W85788   0.777  29.184   3.351
13463W        W85789  38.429  41.408   3.289
13464W        W85790  20.539  17.714   2.799
13465W        W85791  42.290  15.757   4.155
13466W        W85792  18.752  43.225   0.432
13467W        W85793   3.785  39.555  14.963
13468W        W85794  19.030  22.243   2.263
13469W        W85795   5.448  31.453   3.294
13470W        W85796  22.785  30.960  12.391
13471W        W85797  27.134  23.083  10.762
13472W        W85798  36.595  35.818  13.973
13473W        W85799  34.157  39.927  13.399
13474W        W85800  14.538  15.498  11.644
13475W        W85801  31.798   0.239   1.137
13476W        W85802  23.336  44.918   4.639
13477W        W85803  34.873  36.583  13.951
13478W        W85804   6.139  14.807   1.207
13479W        W85805   2.369  36.075   3.208
13480W        W85806  25.505  26.134  11.572
13481W        W85807  11.709  36.243  10.773
13482W        W85808  34.611   8.343   3.193
13483W        W85809  42.079  44.307   2.776
13484W        W85810   0.422  36.332  11.685
13485W        W85811  25.192  17.834   0.889
13486W        W85812  43.399  13.954  10.231
13487W        W85813  35.044  38.637  12.907
13488W        W85814  30.115  44.186   1.869
13489W        W85815  28.661   6.177  14.393
13490W        W85816  35.491  32.328   1.750
13491W        W85817  19.067  22.988   1.173
13492W        W85818  27.470   2.864   1.839
13493W        W85819  20.959  34.894   0.773
13494W        W85820  33.107  28.506   4.353
13495W        W85821   6.809  21.410   2.688
13496W        W85822  19.819   9.219  14.858
13497W        W85823   7.810  28.032   3.611
13498W        W85824  24.105  39.262   2.267
13499W        W85825  14.343   7.782   2.314
13500W        W85826  24.539   6.814   4.763
13501W        W85827  12.611   1.341  12.930
13502W        W85828   3.409  21.735  14.051
13503W        W85829  25.952  34.846  13.846
13504W        W85830   9.351  29.833   2.255
13505W        W85831  25.808   6.595  11.149
13506W        W85832   0.759  14.363  10.659
13507W        W85833  38.820  23.669   3.639
13508W        W85834  17.555  15.960   4.054
13509W        W85835   3.832  42.835  11.947
13510W        W85836  12.629  38.460   2.932
13511W        W85837  15.313  34.272   0.726
13512W        W85838  19.366  16.148  13.545
13513W        W85839  14.834   7.618   2.391
13514W        W85840  16.175   2.376  10.516
13515W        W85841   1.396  23.766   0.043
13516W        W85842  35.869  41.142  11.504
13517W        W85843  39.918  23.289  11.884
13518W        W85844  25.739  17.293   4.544
13519W        W85845  24.466  22.435   0.279
13520W        W85846  32.704  44.674   0.074
13521W        W85847   9.226   7.347  10.720
13522W        W85848  44.052  14.763  13.481
13523W        W85849  44.832  13.126   3.240
13524W        W85850  30.600  24.718  11.640
13525W        W85851   1.329  19.314  12.772
13526W        W85852   2.910  33.878   2.873
13527W        W85853  24.480  32.003   2.677
13528W        W85854  13.814   8.973   0.255
13529W        W85855  15.671  36.507  10.854
13530W        W85856  32.687  27.526  12.589
13531W        W85857  25.706  16.873   2.272
13532W        W85858   2.336  28.618   3.887
13533W        W85859   8.234   7.691   1.787
13534W        W85860  33.371   0.296  10.711
13535W        W85861  13.237  10.633   2.915
13536W        W85862  13.202  22.737  14.769
13537W        W85863  32.223  35.376  14.179
13538W        W85864  23.023  36.176  11.652
13539W        W85865  24.062  34.862   4.198
13540W        W85866  11.687  19.361   3.101
13541W        W85867  32.570  15.736   5.068
13542W        W85868  38.938  22.998  11.909
13543W        W85869  33.014  22.191   4.528
13544W        W85870  23.177  12.579   2.421
13545W        W85871   9.378  20.665   0.406
13546W        W85872  22.510  22.481  13.405
13547W        W85873  18.738   7.286  14.808
13548W        W85874  12.156  42.529   1.216
13549W        W85875  38.571  10.375  13.787
13550W        W85876  27.950   0.762   2.322
13551W        W85877  27.490  28.699   0.771
13552W        W85878  36.424  15.303  11.368
13553W        W85879   6.953  24.399   0.029
13554W        W85880  28.851  25.133  12.102
13555W        W85881  17.336   4.442  12.501
13556W        W85882  35.653  27.421  14.546
13557W        W85883  17.665  31.152  12.849
13558W        W85884  44.401  23.317   1.835
13559W        W85885  26.954  11.755   3.883
13560W        W85886   6.876   5.287  11.410
13561W        W85887   0.865  20.231  10.954
13562W        W85888  23.525   3.678   4.163
13563W        W85889  43.416  34.038  10.423
13564W        W85890   0.883  28.648   2.213
13565W        W85891   4.664   9.006   0.466
13566W        W85892  41.344  16.857  10.459
13567W        W85893  12.915  21.082  14.958
13568W        W85894  29.972  24.560   4.087
13569W        W85895  27.992  26.349  13.249
13570W        W85896   2.377  35.722   0.908
13571W        W85897   9.775  37.507   1.511
13572W        W85898  37.830  30.747   1.402
13573W        W85899  16.574  18.661   0.946
13574W        W85900   3.318   3.345   2.672
13575W        W85901  43.835  25.500   1.782
13576W        W85902  10.366  22.654   1.857
13577W        W85903  34.352  35.574   3.265
13578W        W85904  12.216   0.663   2.709
13579W        W85905  12.775  35.449  14.466
13580W        W85906  22.205  37.803  10.970
13581W        W85907  25.789  20.756  13.306
13582W        W85908   5.218   9.428   2.673
13583W        W85909   4.804  23.184   3.112
13584W        W85910   4.935   7.249  14.348
13585W        W85911  36.115  13.792   0.332
13586W        W85912  15.624  30.504  12.414
13587W        W85913  29.542   2.056   0.786
13588W        W85914  42.287  43.476   4.070
13589W        W85915  27.412  20.615  13.893
13590W        W85916  28.089  40.019  14.904
13591W        W85917  32.031  39.163  12.189
13592W        W85918   2.799  10.786  13.961
13593W        W85919   1.716  39.891  10.698
13594W        W85920  37.435  36.588  11.211
13595W        W85921  10.454  19.998   3.229
13596W        W85922  33.980  29.153  11.666
13597W        W85923  33.531  41.074  14.983
13598W        W85924  16.640  29.055  13.436
13599W        W85925  22.699  18.127   4.910
13600W        W85926  33.919   9.192  12.466
13601W        W85927  10.741   9.453  14.549
13602W        W85928  38.024  23.199  12.405
13603W        W85929  33.133  33.721   3.799
13604W        W85930   4.839  17.066   2.903
13605W        W85931  37.874  28.103   1.209
13606W        W85932  11.307  24.152  13.817
13607W        W85933  21.276  13.064  13.668
13608W        W85934  41.101   5.966  11.161
13609W        W85935   1.794  27.468   2.708
13610W        W85936  33.435  34.655  13.574
13611W        W85937  13.852  16.276  12.540
13612W        W85938  39.907  44.095  12.921
13613W        W85939  40.019  43.495   0.492
13614W        W85940  24.496  31.090  13.269
13615W        W85941   0.622  41.604  10.314
13616W        W85942  40.460  25.250  14.237
13617W        W85943  33.966  42.437  12.643
13618W        W85944  32.048  12.134   0.776
13619W        W85945  29.435  41.537   0.937
13620W        W85946  33.784  32.108   2.686
13621W        W85947  12.189  12.533   4.205
13622W        W85948   7.682  27.061   4.585
13623W        W85949   6.797  30.955   1.459
13624W        W85950  12.303   9.409  14.993
13625W        W85951  43.773  19.781  14.698
13626W        W85952  17.765  38.725   2.380
13627W        W85953   5.469  17.144   4.586
13628W        W85954  25.516   3.525   4.641
13629W        W85955  39.539  20.576   2.613
13630W        W85956  32.166   0.236   1.780
13631W        W85957   2.430  23.947  12.939
13632W        W85958  12.888  13.999   1.410
13633W        W85959  10.481   6.426  13.030
13634W        W85960  18.059   5.676  10.691
13635W        W85961  17.129   5.231  12.862
13636W        W85962  37.681  20.761   1.882
13637W        W85963  21.699  31.621   0.314
13638W        W85964  37.542  20.240  11.917
13639W        W85965  19.671  37.980   0.286
13640W        W85966   2.332   9.682  10.061
13641W        W85967  35.613   5.956  12.932
13642W        W85968  41.840  22.155  14.310
13643W        W85969   6.263  12.216  14.831
13644W        W85970   5.297  40.481   4.357
13645W        W85971   8.236  18.301  11.974
13646W        W85972  24.958  37.950   2.065
13647W        W85973  36.490  11.299   2.761
13648W        W85974   3.527  25.385   3.423
13649W        W85975  44.999  44.338   1.363
13650W        W85976  32.421  22.929   0.961
13651W        W85977  11.727  35.041   9.870
13652W        W85978  26.051   5.085  11.219
13653W        W85979  32.920   7.280  13.588
13654W        W85980  28.975  10.365  13.362
13655W        W85981  12.400  26.619   9.733
13656W        W85982   5.888   5.448  11.086
13657W        W85983  30.018  30.667   2.163
13658W        W85984  30.602  35.781  12.485
13659W        W85985  28.158   1.328   3.766
13660W        W85986  25.498  26.112   2.329
13661W        W85987  32.369   8.824   0.332
13662W        W85988  23.995  25.906  11.506
13663W        W85989   1.261   7.866  11.482
13664W        W85990   9.502  35.687   3.605
13665W        W85991   7.716  36.079   1.367
13666W        W85992  10.813  23.642   3.884
13667W        W85993  26.018  44.876  14.432
13668W        W85994  43.795  22.127  14.316
13669W        W85995  28.178  22.045  11.320
13670W        W85996  30.438  38.269   1.726
13671W        W85997  14.424   9.476  10.231
13672W        W85998  11.766   8.767   2.152
13673W        W85999   0.057  27.962   1.917
13674W        W86000  17.302   4.002  14.273
13675W        W86001  12.437  10.218  12.566
13676W        W86002  11.822  15.190  12.810
13677W        W86003  42.689  33.018   4.398
13678W        W86004  21.645  15.225  14.513
13679W        W86005   6.340  38.503   4.315
13680W        W86006  35.059   6.343  14.049
13681W        W86007  36.403   5.415  10.998
13682W        W86008  28.530  27.547  10.253
13683W        W86009   8.804  31.897  11.152
13684W        W86010  31.005  11.821   1.429
13685W        W86011  39.955  24.439   0.292
13686W        W86012  23.943   6.410   2.771
13687W        W86013  24.665   4.867  13.302
13688W        W86014  28.590  32.036  12.754
13689W        W86015  35.515  26.517   2.319
13690W        W86016  21.879  36.306  11.592
13691W        W86017  22.138  12.178  14.504
13692W        W86018  43.493  18.865   3.103
13693W        W86019   5.693  26.459   3.589
13694W        W86020   3.476  26.097  12.671
13695W        W86021  11.099  15.768  11.564
13696W        W86022  31.693  25.656  11.086
13697W        W86023  18.190  31.325  12.054
13698W        W86024  12.337  21.273   2.671
13699W        W86025  27.077   4.123   2.374
13700W        W86026  34.986  38.852   0.816
13701W        W86027  39.987  20.089   1.446
13702W        W86028   0.401  11.883   3.578
13703W        W86029   2.345  14.922   1.840
13704W        W86030  16.357  29.946  11.272
13705W        W86031  24.672  33.561  10.682
13706W        W86032  10.837  41.248  10.925
13707W        W86033  27.736  36.336  12.555
13708W        W86034  41.748   9.257   0.825
13709W        W86035  27.671  16.802  11.415
13710W        W86036  24.684  29.959   0.062
13711W        W86037  28.573   9.883   4.292
13712W        W86038  32.909  14.054   1.478
13713W        W86039  22.651  21.086   0.471
13714W        W86040  14.827  18.642   1.371
13715W        W86041  35.947  34.637  11.893
13716W        W86042  27.492  21.736  14.043
13717W        W86043  17.818  29.171  14.375
13718W        W86044  43.441  25.934   2.802
13719W        W86045  42.047  25.567  10.756
13720W        W86046  19.691   7.843   1.448
13721W        W86047  28.494  32.898  10.950
13722W        W86048  33.043  13.306  14.799
13723W        W86049  40.861   9.887   3.674
13724W        W86050  29.605  11.620  13.409
13725W        W86051  24.601  22.190  12.479
13726W        W86052  11.306  26.773  13.385
13727W        W86053  24.778  43.710   2.328
13728W        W86054  10.114  32.946   2.605
13729W        W86055  11.843  15.681  11.932
13730W        W86056  18.644  16.557   3.854
13731W        W86057  14.277  23.539   3.183
13732W        W86058   8.924   2.818  14.417
13733W        W86059  37.384  11.575   2.642
13734W        W86060  15.581   1.454   4.081
13735W        W86061  44.394   1.754   1.984
13736W        W86062   3.737  38.885  13.910
13737W        W86063  30.195  40.797   3.771
13738W        W86064   0.987  16.737  13.451
13739W        W86065  38.089  15.372   1.758
13740W        W86066  11.789  32.383  12.451
13741W        W86067  18.787  25.326   4.993
13742W        W86068  17.635  41.378   4.795
13743W        W86069  15.593  24.726   4.278
13744W        W86070  33.536  19.663  12.176
13745W        W86071  43.541  30.489  11.561
13746W        W86072  35.824  40.278  12.495
13747W        W86073  28.625  22.085  14.443
13748W        W86074   6.452  20.153   3.003
13749W        W86075   6.133  37.183  13.803
13750W        W86076  18.669  14.350  14.877
13751W        W86077  11.417  39.427  12.136
13752W        W86078  12.285  12.156   3.772
13753W        W86079  41.322  32.975  12.491
13754W        W86080  20.748  43.839   3.381
13755W        W86081  12.686  33.394   3.324
13756W        W86082  29.057  25.558  11.908
13757W        W86083  44.827  14.390   1.820
13758W        W86084  22.174  10.706   0.042
13759W        W86085  26.728   8.712   2.373
13760W        W86086  37.475   7.707   1.467
13761W        W86087  21.961  29.938   1.175
13762W        W86088  24.086  35.007  10.872
13763W        W86089  12.789  17.288   0.910
13764W        W86090  27.518  21.581   1.483
13765W        W86091   1.278  18.161  13.527
13766W        W86092  37.867  13.957   5.090
13767W        W86093  31.033  43.743  13.986
13768W        W86094  34.005  19.758  12.903
13769W        W86095  35.114  31.966   9.957
13770W        W86096  23.607  44.551   1.067
13771W        W86097   0.651  34.311  14.639
13772W        W86098  25.899   0.883  14.066
13773W        W86099  24.749   3.758  12.996
13774W        W86100  27.662  28.738  13.368
13775W        W86101  42.309   6.157   0.862
13776W        W86102  14.703  43.441   3.349
13777W        W86103  24.185  22.243   1.524
13778W        W86104   1.655  13.873  12.105
13779W        W86105  42.320  37.652  12.470
13780W        W86106  37.856  14.893   1.775
13781W        W86107  34.830  17.258   2.784
13782W        W86108  43.314  37.689  14.423
13783W        W86109  20.228  10.055   4.818
13784W        W86110   1.330  40.027  14.594
13785W        W86111  44.778  38.287   4.648
13786W        W86112   6.637  16.152   2.362
13787W        W86113  26.257  16.342  13.122
13788W        W86114   1.841   0.787   0.975
13789W        W86115  11.579  13.733  13.927
13790W        W86116   8.490  17.543  12.897
13791W        W86117  35.318  14.670  11.102
13792W        W86118   3.805   4.711   3.236
13793W        W86119   7.633  22.623   1.197
13794W        W86120   5.670   2.377  11.533
13795W        W86121  21.961  41.619   3.113
13796W        W86122  42.281  34.756   3.720
13797W        W86123  14.877  10.324  13.976
13798W        W86124   9.361  37.368  12.503
13799W        W86125  10.223   2.630   3.940
13800W        W86126  18.220  40.781   0.967
13801W        W86127  32.232  19.284   3.234
13802W        W86128   7.389  29.090   1.108
13803W        W86129  28.152  20.583  11.146
13804W        W86130  42.683  13.581  12.896
13805W        W86131   1.828   2.833   4.236
13806W        W86132  28.691   5.304  11.948
13807W        W86133  44.385  30.547  13.630
13808W        W86134  37.711   7.361  12.823
13809W        W86135  13.555  21.251   0.754
13810W        W86136  13.097  13.165  14.243
13811W        W86137  22.713   6.119  12.170
13812W        W86138  35.481  12.837  10.742
13813W        W86139   1.897  27.706  10.674
13814W        W86140   8.291  25.965   4.706
13815W        W86141   6.188  26.672  14.006
13816W        W86142   4.365  11.579  10.752
13817W        W86143   1.466   9.701   4.034
13818W        W86144   7.097  24.506   2.294
13819W        W86145  36.882   7.701  14.872
13820W        W86146   2.828  24.695  10.127
13821W        W86147  38.981  38.927  12.776
13822W        W86148   6.905  31.798   4.145
13823W        W86149  43.225  24.164   3.156
13824W        W86150  16.086  37.426  10.561
13825W        W86151   9.423  14.820   2.124
13826W        W86152   2.205  43.235   5.056
13827W        W86153  11.865  23.634   1.339
13828W        W86154   9.959   8.464  11.101
13829W        W86155  18.103  42.533   4.033
13830W        W86156  37.961  15.590  10.810
13831W        W86157   9.350  43.072   3.671
13832W        W86158  22.182  19.190   1.818
13833W        W86159  10.276  36.940  12.483
13834W        W86160  11.289  36.938  14.693
13835W        W86161  22.765  27.222  11.881
13836W        W86162  24.497  26.748   3.790
13837W        W86163   8.886   2.973   4.272
13838W        W86164  37.126  34.401  11.592
13839W        W86165  24.648   9.296   0.378
13840W        W86166   3.414  16.862  14.067
13841W        W86167  42.887   6.835   4.713
13842W        W86168  40.833  13.462   1.804
13843W        W86169  14.740   1.645  14.874
13844W        W86170  29.110  25.063  11.642
13845W        W86171  39.274   8.782  14.470
13846W        W86172  37.678   9.594  11.074
13847W        W86173  39.699   3.916   3.766
13848W        W86174  16.384  21.090  13.429
13849W        W86175  23.730  26.741   3.228
13850W        W86176  43.405   7.936  12.548
13851W        W86177   2.410   5.840  14.933
13852W        W86178  10.334  31.174   2.420
13853W        W86179  17.262  16.965  14.419
13854W        W86180  32.476  14.728  13.070
13855W        W86181  27.285  32.081  10.534
13856W        W86182  43.595  20.799   0.863
13857W        W86183   7.856  30.361   2.794
13858W        W86184  10.198  19.671   2.235
13859W        W86185   3.263  17.284   1.180
13860W        W86186  29.781  12.677   0.372
13861W        W86187  33.609  43.050  11.044
13862W        W86188  10.398  15.891  11.892
13863W        W86189  23.558   7.890   4.093
13864W        W86190   7.225   0.377  14.717
13865W        W86191   1.851  41.945   2.768
13866W        W86192  19.723  36.971   4.622
13867W        W86193   7.881  44.258   1.302
13868W        W86194  25.630  29.513   3.056
13869W        W86195   6.028  28.684   1.348
13870W        W86196  41.353  35.888   1.854
13871W        W86197  36.325  13.168  10.595
13872W        W86198   2.709   0.134  14.338
13873W        W86199   1.330  13.621  10.406
13874W        W86200  22.404  41.457   3.360
13875W        W86201  13.973  25.756  12.931
13876W        W86202  36.864  25.601   3.321
13877W        W86203  23.132  31.572  12.447
13878W        W86204  36.935  28.258   1.393
13879W        W86205   2.494  42.632  11.950
13880W        W86206   7.215  17.456  11.483
13881W        W86207  30.965  29.777   3.360
13882W        W86208  10.323   8.134   1.909
13883W        W86209  32.666   5.390  10.682
13884W        W86210  18.171  22.905  11.709
13885W        W86211   7.028  37.890   3.196
13886W        W86212   3.827  38.537   3.587
13887W        W86213   1.809  22.958  10.993
13888W        W86214  34.007  16.283  14.759
13889W        W86215  34.279  18.181   2.767
13890W        W86216  39.452  29.025   1.017
13891W        W86217  19.691  19.438  11.107
13892W        W86218  41.937  41.981   4.113
13893W        W86219  17.241  19.207   0.954
13894W        W86220  39.469   6.181   2.869
13895W        W86221  30.501  13.789   1.243
13896W        W86222  41.594  27.496   3.078
13897W        W86223  28.422  32.152   3.211
13898W        W86224  37.834   5.367   2.776
13899W        W86225  14.542  41.437   4.096
13900W        W86226  30.419  39.557  12.443
13901W        W86227  25.475  31.666  11.708
13902W        W86228  31.410  13.150  12.053
13903W        W86229  20.513  24.626   1.435
13904W        W86230  32.516  38.871   2.133
13905W        W86231  19.131  30.885   0.350
13906W        W86232  44.774  19.377  12.712
13907W        W86233  18.704   8.732  14.440
13908W        W86234  13.622  36.980  14.839
13909W        W86235  29.703  22.622   3.304
13910W        W86236  13.262  33.596   4.172
13911W        W86237  12.724  10.182   2.706
13912W        W86238  27.682  14.949   3.321
13913W        W86239  19.231  30.789   3.545
13914W        W86240  44.266  16.234  13.608
13915W        W86241  40.379  21.013   4.106
13916W        W86242   3.961  12.122  13.934
13917W        W86243  44.262  33.203  11.099
13918W        W86244  18.565  24.260  13.015
13919W        W86245  42.315  32.411  14.121
13920W        W86246  28.455  19.179  13.570
13921W        W86247  10.259  28.096   2.060
13922W        W86248  32.295  25.065   0.761
13923W        W86249  20.335  22.555  14.762
13924W        W86250  22.690  13.797  10.087
13925W        W86251   2.457  13.564   1.924
13926W        W86252  30.384  17.785  14.789
13927W        W86253  12.249  14.836   0.581
13928W        W86254  14.606  35.701  10.722
13929W        W86255  38.102  37.781  13.883
13930W        W86256  20.183  34.090  14.341
13931W        W86257   4.527  14.324   0.425
13932W        W86258   0.910  36.314   0.549
13933W        W86259  22.085  20.155   0.221
13934W        W86260  43.524  24.992   1.756
13935W        W86261  41.822  44.298   0.324
13936W        W86262  31.421   4.222   3.145
13937W        W86263  32.140   7.393  12.501
13938W        W86264   0.317  21.537  12.564
13939W        W86265   4.281  15.034   4.133
13940W        W86266   2.262  39.797  12.428
13941W        W86267  22.043  42.017  11.043
13942W        W86268   6.398  27.073  11.708
13943W        W86269  43.031  29.766  12.132
13944W        W86270  19.738   8.611   0.039
13945W        W86271  35.939  44.870  14.307
13946W        W86272  35.550  29.648   2.315
13947W        W86273  31.712  32.023  13.085
13948W        W86274   3.845  35.594  14.929
13949W        W86275  22.599  22.936   3.271
13950W        W86276  11.278  20.639  12.115
13951W        W86277  43.078   5.205  12.479
13952W        W86278  37.641   2.693   0.503
13953W        W86279  32.604  40.085   2.380
13954W        W86280   4.854  27.255   3.851
13955W        W86281  31.637  36.052   0.431
13956W        W86282  22.211  10.164  10.866
13957W        W86283  18.516  11.573   4.205
13958W        W86284  27.058   4.327  13.632
13959W        W86285  13.597  32.126   2.282
13960W        W86286   9.636  10.210   3.438
13961W        W86287  25.075  36.430   3.421
13962W        W86288   4.341  44.918  10.744
13963W        W86289  13.235  20.585   4.488
13964W        W86290  17.843  39.369  13.994
13965W        W86291  32.460  15.598   0.761
13966W        W86292  41.217  12.263  10.869
13967W        W86293  11.747  29.715   3.133
13968W        W86294   5.587   5.424   0.808
13969W        W86295   9.803  25.016  12.561
13970W        W86296  34.599  12.318  12.442
13971W        W86297  23.987  22.723  14.407
13972W        W86298  20.619  12.399   2.207
13973W        W86299  13.892  10.389  11.200
13974W        W86300  30.207  10.503   1.700
13975W        W86301  16.034  17.260  12.594
13976W        W86302  15.032  40.124   1.861
13977W        W86303  32.019  36.533   4.132
13978W        W86304   2.977  27.009   2.098
13979W        W86305  33.512   4.411   1.755
13980W        W86306  37.612  34.689   1.787
13981W        W86307   9.980  20.014  12.121
13982W        W86308  23.667  10.072  13.948
13983W        W86309  18.376  44.276   3.206
13984W        W86310  32.888  23.762  12.939
13985W        W86311  43.575   1.380   1.058
13986W        W86312  17.304  28.956  12.164
13987W        W86313  38.141  36.513   3.709
13988W        W86314  34.607   3.841   0.547
13989W        W86315  11.315  25.764   4.695
13990W        W86316  18.179  22.281  10.947
13991W        W86317   3.461  32.107   4.592
13992W        W86318  12.257  14.128   4.120
13993W        W86319  11.244  39.985   4.725
13994W        W86320  19.267  43.840  13.046
13995W        W86321  31.319  11.306  12.375
13996W        W86322  30.978  26.550  14.760
13997W        W86323  41.469  37.896   3.183
13998W        W86324  13.614   9.191  10.607
13999W        W86325  23.586  20.188   2.715
14000W        W86326   0.274  33.552   1.252
14001W        W86327   3.106   0.925  14.617
14002W        W86328   0.350  23.212   0.969
14003W        W86329  20.230  26.004  11.465
14004W        W86330  25.957  17.198  10.716
14005W        W86331  11.120  38.659   4.529
14006W        W86332   8.970  39.134   0.250
14007W        W86333  21.499  25.062   2.317
14008W        W86334  29.380  34.978  13.990
14009W        W86335  30.098   9.241   0.759
14010W        W86336  27.001  13.042   4.068
14011W        W86337  16.704  17.247   0.962
14012W        W86338   1.535  21.169  10.616
14013W        W86339  30.644  11.633  11.631
14014W        W86340  32.132  22.409   4.072
14015W        W86341   3.899   4.258   4.673
14016W        W86342   0.447   7.362   3.816
14017W        W86343  36.397   7.921  11.954
14018W        W86344   1.795  27.938  13.840
14019W        W86345  39.849  40.410  12.173
14020W        W86346  35.936  27.720  14.855
14021W        W86347   3.134  39.878   1.482
14022W        W86348   0.209  15.238   4.459
14023W        W86349  37.009   5.002  13.882
14024W        W86350  25.557   2.230   2.168
14025W        W86351  17.132   6.368   2.409
14026W        W86352  26.469  24.524   1.456
14027W        W86353   3.862  30.913   3.731
14028W        W86354   0.424  15.085  13.087
14029W        W86355  27.148  26.126   4.590
14030W        W86356   7.428   6.847  13.548
14031W        W86357  36.078   3.268  13.928
14032W        W86358   3.241  20.987  14.494
14033W        W86359  35.180  11.390   1.289
14034W        W86360  25.983  14.637  11.520
14035W        W86361  34.141  23.956  13.579
14036W        W86362  31.628  39.944  13.998
14037W        W86363   6.278  26.118   4.640
14038W        W86364  23.972  17.783   3.883
14039W        W86365  30.509  20.979  13.173
14040W        W86366  22.778  35.286   1.307
14041W        W86367  30.931  14.808  11.553
14042W        W86368  43.899  10.402   1.919
14043W        W86369   9.741  25.004  13.990
14044W        W86370  29.971  13.712  10.453
14045W        W86371  19.996  10.574   0.302
14046W        W86372  33.949  16.147   4.931
14047W        W86373  24.510  15.077   4.235
14048W        W86374  34.334   0.004  14.140
14049W        W86375  12.792   4.951  11.097
14050W        W86376  25.450  33.141  13.986
14051W        W86377  12.606  28.673   0.489
14052W        W86378  33.926  15.762   0.873
14053W        W86379  17.630  36.432   0.372
14054W        W86380   0.215  39.954  13.573
14055W        W86381  24.466  42.059  13.384
14056W        W86382  18.682  41.090  12.544
14057W        W86383  42.145   9.491   1.263
14058W        W86384  16.050  14.757  13.319
14059W        W86385   4.035   5.971   0.276
14060W        W86386  27.074   5.266  11.121
14061W        W86387  28.996  18.859   3.601
14062W        W86388   5.846  32.634  12.970
14063W        W86389  26.087  20.577  10.223
14064W        W86390  39.594  27.862  11.089
14065W        W86391  40.493   7.485  10.922
14066W        W86392  43.406  17.268  14.535
14067W        W86393  15.600  21.808   0.862
14068W        W86394   8.332  32.521  14.803
14069W        W86395  42.980  34.026  13.658
14070W        W86396  22.430  37.537   3.265
14071W        W86397  19.442  39.186  13.850
14072W        W86398  43.473  18.271   3.749
14073W        W86399  18.784  20.243   0.002
14074W        W86400  17.862  41.398  14.349
14075W        W86401  31.620  37.311   4.216
14076W        W86402   5.633  14.347  10.614
14077W        W86403  27.384  33.634  13.190
14078W        W86404  28.634  13.276   1.810
14079W        W86405  27.724   1.760  14.739
14080W        W86406  17.578  11.077   2.422
14081W        W86407  20.743  26.141  11.499
14082W        W86408  41.546  40.870   1.128
14083W        W86409  30.809  26.274   5.031
14084W        W86410  24.168  42.363   4.126
14085W        W86411  30.508  40.997  14.028
14086W        W86412  42.363  38.152  14.337
14087W        W86413  28.698   9.175   0.782
14088W        W86414   0.416  37.890  14.532
14089W        W86415  10.037  40.333  13.831
14090W        W86416  29.759   3.377  14.746
14091W        W86417  42.390  35.461  14.818
14092W        W86418  34.258  10.532   3.575
14093W        W86419  13.598   5.150  14.772
14094W        W86420  11.679  16.682   1.846
14095W        W86421  32.124  42.923  10.768
14096W        W86422  31.541  36.070   2.577
14097W        W86423   2.526  40.618  12.978
14098W        W86424   9.760  38.748   4.582
14099W        W86425  42.466  25.107  11.607
14100W        W86426   2.203   1.292   2.628
14101W        W86427  12.332  13.703  14.241
14102W        W86428  21.005  37.515  14.498
14103W        W86429  41.940  42.994  11.701
14104W        W86430  16.052  32.877   0.946
14105W        W86431  15.154   9.770  12.907
14106W        W86432  30.561  11.400   1.632
14107W        W86433  38.441  26.068   4.334
14108W        W86434   9.714  10.139   4.466
14109W        W86435  11.273  35.963  10.649
14110W        W86436  16.537   1.937  14.271
14111W        W86437  32.659  20.959   4.037
14112W        W86438   1.378  27.404   3.026
14113W        W86439  33.888  44.381   4.870
14114W        W86440   8.159  12.819  14.750
14115W        W86441  17.979  27.128  10.738
14116W        W86442  18.659   7.290   0.860
14117W        W86443  24.613   1.200  13.330
14118W        W86444  41.006  43.989   0.687
14119W        W86445  14.308  36.387  11.113
14120W        W86446  12.597  26.488   2.281
14121W        W86447  20.074  11.904  13.713
14122W        W86448  40.373  36.297  10.078
14123W        W86449   5.321   0.550   3.661
14124W        W86450   8.743  10.335   3.744
14125W        W86451  27.990  20.662  14.750
14126W        W86452   3.807  20.173   3.677
14127W        W86453  18.413  28.500  14.747
14128W        W86454  37.479  34.898   4.126
14129W        W86455  25.612  37.805   0.705
14130W        W86456  37.163  17.536   2.740
14131W        W86457   7.825  14.845  14.016
14132W        W86458   6.418  14.076   3.564
14133W        W86459  36.554   8.323   0.392
14134W        W86460  10.725  21.505  12.099
14135W        W86461  32.383  26.055   3.197
14136W        W86462  38.521  15.665   1.915
14137W        W86463  17.342  16.330   1.432
14138W        W86464   5.136  10.156   0.724
14139W        W86465  11.285  21.532   1.382
14140W        W86466  44.574  16.941   4.996
14141W        W86467  24.004  17.251  12.449
14142W        W86468  11.425   2.451  11.939
14143W        W86469  32.514  21.151  10.047
14144W        W86470  35.925  38.009   1.664
14145W        W86471  38.416  10.156   2.811
14146W        W86472  39.097  40.812  13.807
14147W        W86473  42.993  36.956  10.584
14148W        W86474  23.412  22.988  14.848
14149W        W86475   7.639   7.323  13.409
14150W        W86476  28.974  29.041  14.057
14151W        W86477  33.809  35.573  12.030
14152W        W86478  31.900  34.413   2.759
14153W        W86479   5.923  17.770   3.208
14154W        W86480  14.126  10.687   2.801
14155W        W86481  18.594   1.261  11.127
14156W        W86482  17.484  30.230  12.367
14157W        W86483  11.738  37.598   2.719
14158W        W86484  42.064  17.901   3.851
14159W        W86485  23.117   8.953   3.719
14160W        W86486   3.615  44.677   3.266
14161W        W86487  31.443  24.217   4.108
14162W        W86488  41.059   9.365   0.159
14163W        W86489  21.247  43.519   0.823
14164W        W86490  10.281  22.135   4.016
14165W        W86491  41.845  10.849  12.824
14166W        W86492  14.911  21.763  11.966
14167W        W86493  18.543   9.557   2.629
14168W        W86494   2.015  36.360  12.429
14169W        W86495  40.968  34.854   2.200
14170W        W86496  25.553   6.824  11.576
14171W        W86497   4.733  27.383  11.284
14172W        W86498  25.538  25.757   4.362
14173W        W86499  38.028  32.560  14.954
14174W        W86500  29.454  40.369   4.119
14175W        W86501  31.881  17.621  13.989
14176W        W86502  37.444  33.550   2.413
14177W        W86503   2.993  40.454   4.390
14178W        W86504  23.563  12.128  14.122
14179W        W86505  17.183   0.550   4.427
14180W        W86506  17.143  39.046  12.565
14181W        W86507   5.922  15.227  13.904
14182W        W86508  34.564   1.250  12.174
14183W        W86509  19.466  22.208  13.347
14184W        W86510  42.991  30.402  13.472
14185W        W86511  11.485   7.443   2.374
14186W        W86512  30.887   4.506   0.231
14187W        W86513   2.671  29.534  14.417
14188W        W86514  15.835  11.278  10.294
14189W        W86515   7.675  31.071  14.019
14190W        W86516  12.869  19.314  15.000
14191W        W86517   1.716  18.040   3.297
14192W        W86518  40.594   4.148   2.820
14193W        W86519   2.621  36.871  11.099
14194W        W86520  42.812  17.251   3.662
14195W        W86521  35.088  21.977  14.471
14196W        W86522  31.591  21.996   3.756
14197W        W86523  16.251  26.581  12.155
14198W        W86524   5.718   5.309   0.311
14199W        W86525   2.998  10.299   0.177
14200W        W86526   9.135   2.228  14.807
14201W        W86527  39.760  23.434  11.146
14202W        W86528  21.578  43.958   1.585
14203W        W86529  39.821  16.117  13.078
14204W        W86530  23.445  37.122  10.685
14205W        W86531  29.133  29.957   2.972
14206W        W86532   7.936  17.219  13.880
14207W        W86533   2.944  42.719  11.171
14208W        W86534  28.939  18.591   0.047
14209W        W86535   1.157  13.426  14.886
14210W        W86536  17.353  26.196  13.959
14211W        W86537  33.629   5.306  12.339
14212W        W86538  25.293  42.800  11.200
14213W        W86539  39.018   4.923   1.681
14214W        W86540  19.805  41.294  10.897
14215W        W86541   4.684  40.818   3.704
14216W        W86542   1.509  24.790  14.873
14217W        W86543  20.089   1.460   1.254
14218W        W86544   0.294  34.635  14.377
14219W        W86545  27.179   9.418   4.469
14220W        W86546  44.280  42.340  10.586
14221W        W86547  40.290  36.530  13.341
14222W        W86548  13.758  42.867   2.371
14223W        W86549  23.104  12.126   4.730
14224W        W86550  21.581  20.225  14.027
14225W        W86551  27.733  44.766  12.943
14226W        W86552  27.275  17.333   2.846
14227W        W86553  15.383  16.674  13.117
14228W        W86554  10.169   2.483   1.244
14229W        W86555  28.540  14.684  14.635
14230W        W86556  38.003  13.099   4.599
14231W        W86557  37.284  27.195  12.572
14232W        W86558  24.582   3.766  12.160
14233W        W86559   2.793   5.307   2.280
14234W        W86560  10.384   0.831   4.334
14235W        W86561   2.759   6.339   3.045
14236W        W86562  33.455   8.709   0.921
14237W        W86563  35.407  26.043  12.524
14238W        W86564  20.737  36.942   4.945
14239W        W86565   4.964  36.988  11.560
14240W        W86566   6.857   4.704   4.659
14241W        W86567   2.696  41.904  11.405
14242W        W86568   2.685  17.337  13.488
14243W        W86569  20.649   5.392   1.121
14244W        W86570   2.264   1.370  12.617
14245W        W86571   9.629  40.340  14.857
14246W        W86572  23.987  31.954  11.371
14247W        W86573   9.170   5.497   2.268
14248W        W86574  14.753  18.546  11.287
14249W        W86575  36.309  36.858   3.764
14250W        W86576  18.304  21.107  11.592
14251W        W86577  36.480  32.672  13.512
14252W        W86578   7.221  11.520   1.998
14253W        W86579  37.375  28.975   0.472
14254W        W86580  33.498  40.409   4.159
14255W        W86581  31.702  31.509  10.842
14256W        W86582  44.359  29.937  11.999
14257W        W86583  33.906  23.574   2.287
14258W        W86584  15.507  11.665   4.104
14259W        W86585   1.833  20.193   4.638
14260W        W86586   7.191  21.924  13.940
14261W        W86587   9.165  36.844   0.417
14262W        W86588   0.677  27.025  12.396
14263W        W86589  20.896  30.954  11.113
14264W        W86590  40.988  18.773  14.891
14265W        W86591  14.596  34.518  14.762
14266W        W86592  39.027  39.070   0.818
14267W        W86593   6.954  23.661  14.392
14268W        W86594  37.521  36.938   4.574
14269W        W86595  24.450  14.158   2.693
14270W        W86596  16.695  24.601   3.263
14271W        W86597   6.385  10.135  11.636
14272W        W86598  28.724  12.675   2.740
14273W        W86599  16.742  33.011  10.731
14274W        W86600  26.540   4.422   4.049
14275W        W86601   7.688  42.297   2.405
14276W        W86602  32.975  40.047  10.631
14277W        W86603  41.277  38.367  12.575
14278W        W86604  22.172  25.531   3.742
14279W        W86605   0.370  26.540  14.394
14280W        W86606  22.721  36.534  13.676
14281W        W86607  13.776  33.387   1.475
14282W        W86608   0.751   6.321   3.820
14283W        W86609  16.831  32.571  11.528
14284W        W86610  24.043  43.330   2.252
14285W        W86611   6.168  37.068  12.555
14286W        W86612  32.071  33.577   0.883
14287W        W86613  25.680  18.983   3.988
14288W        W86614   1.569   1.359   1.254
14289W        W86615  39.509   3.083  10.728
14290W        W86616   2.202   9.227   5.045
14291W        W86617  26.153  44.957  13.887
14292W        W86618  34.334   5.178   3.676
14293W        W86619   7.678   9.128  12.195
14294W        W86620  35.088  34.394   2.878
14295W        W86621  21.636  22.690   3.583
14296W        W86622  44.805  26.700  13.545
14297W        W86623  33.297  12.346  12.480
14298W        W86624   5.671  10.588  12.496
14299W        W86625  36.924  27.703  13.761
14300W        W86626   7.407   9.879   4.361
14301W        W86627  16.991  37.768   0.241
14302W        W86628  13.413   8.199   0.049
14303W        W86629  43.830  15.261   4.658
14304W        W86630  44.532  42.428   2.644
14305W        W86631  44.257  16.062  12.029
14306W        W86632   2.417  32.369   1.644
14307W        W86633  30.417  28.508  11.094
14308W        W86634  31.148  38.812  11.035
14309W        W86635   7.578  40.377   0.317
14310W        W86636  18.285  28.463   4.269
14311W        W86637  16.042  25.629  12.964
14312W        W86638   5.181   0.978   4.684
14313W        W86639  34.552   6.273  10.669
14314W        W86640  25.466   2.414  11.105
14315W        W86641  15.934  12.144  13.538
14316W        W86642  28.120   9.594  12.993
14317W        W86643   1.707  36.810   3.050
14318W        W86644  40.969  17.669   0.893
14319W        W86645  25.260   0.749  12.476
14320W        W86646  35.459  11.514   5.038
14321W        W86647  17.648  19.204   2.468
14322W        W86648  24.419  38.935  14.025
14323W        W86649  32.499   7.049  13.404
14324W        W86650   6.362   4.500  14.927
14325W        W86651  40.789  25.517  11.562
14326W        W86652  37.736  21.108   3.760
14327W        W86653  16.821  27.572   1.867
14328W        W86654  44.763  40.581   0.356
14329W        W86655  40.867  32.637  13.307
14330W        W86656  35.624   1.879  14.412
14331W        W86657   0.412  16.460  13.059
14332W        W86658  22.485  17.237  12.869
14333W        W86659  12.591   9.355  14.552
14334W        W86660  42.232  33.461   3.927
14335W        W86661  42.102  35.957  14.823
14336W        W86662  41.940  17.998  11.079
14337W        W86663  35.531  13.036   0.457
14338W        W86664  42.512  31.640   4.626
14339W        W86665   8.387  10.263  11.464
14340W        W86666  10.397   0.851  14.519
14341W        W86667  31.986   3.921  13.438
14342W        W86668  28.177  28.590   4.667
14343W        W86669  20.948  35.881   3.971
14344W        W86670  18.144  14.425   3.417
14345W        W86671  20.283  15.841  14.535
14346W        W86672  12.326  19.469  11.161
14347W        W86673   0.890  33.465  14.126
14348W        W86674  10.538  30.933   0.037
14349W        W86675  19.516   6.402   1.730
14350W        W86676   3.689  28.631   1.368
14351W        W86677  14.537  35.864  13.414
14352W        W86678  39.556  44.664  13.039
14353W        W86679  25.433  34.937  12.058
14354W        W86680  38.088  20.259   3.902
14355W        W86681   7.377  11.610   0.690
14356W        W86682  11.878  39.404  13.507
14357W        W86683  34.491  44.357  13.512
14358W        W86684   9.051  23.864   4.939
14359W        W86685   3.644  28.134   0.268
14360W        W86686  11.120  29.425   2.256
14361W        W86687  36.382  29.919   2.004
14362W        W86688  36.055   4.526  13.369
14363W        W86689  21.173  16.030   4.089
14364W        W86690  33.346  21.734  12.913
14365W        W86691   3.919  43.343  11.957
14366W        W86692   9.106  35.747  13.454
14367W        W86693   3.233  27.012   4.115
14368W        W86694  14.760  30.139   3.661
14369W        W86695   0.853  31.591  14.329
14370W        W86696  35.855  27.951  11.138
14371W        W86697   5.795  43.720  14.876
14372W        W86698  13.793   6.951   0.348
14373W        W86699   6.252  18.539  10.980
14374W        W86700  26.958  24.510   2.920
14375W        W86701  25.515   5.993   2.674
14376W        W86702  19.757  17.015  10.660
14377W        W86703  21.037  16.291  12.673
14378W        W86704  42.584  14.578  10.551
14379W        W86705   7.595   8.160  13.730
14380W        W86706  33.061   9.709  11.453
14381W        W86707  30.914  21.569   1.868
14382W        W86708  32.305  17.148   1.942
14383W        W86709  38.162  17.037  13.012
14384W        W86710  44.132  27.162   4.168
14385W        W86711  12.092  31.052  14.398
14386W        W86712  41.497  20.067   0.230
14387W        W86713   7.193  31.482  13.521
14388W        W86714  18.291   0.311  14.188
14389W        W86715   2.074  22.330   1.671
14390W        W86716  12.317  21.241   3.641
14391W        W86717  33.856  40.255   4.489
14392W        W86718  22.254  37.021  13.079
14393W        W86719   0.565  11.094  13.705
14394W        W86720  20.613  41.080  10.549
14395W        W86721  18.433  16.145   4.083
14396W        W86722  26.369  42.649  14.809
14397W        W86723  40.487  28.223  12.577
14398W        W86724  41.973  18.640  10.452
14399W        W86725  23.702  16.500   1.299
14400W        W86726  28.164  32.694  14.309
14401W        W86727  22.709  21.716   3.615
14402W        W86728  36.319  39.016  14.988
14403W        W86729  18.454  29.683  13.304
14404W        W86730   6.437  19.469   0.992
14405W        W86731   2.545  36.481  14.745
14406W        W86732  26.945  20.551  14.926
14407W        W86733  32.446  17.998   2.210
14408W        W86734   4.831   8.800   0.900
14409W        W86735  37.024  38.844   1.313
14410W        W86736   3.429  41.960  12.036
14411W        W86737  17.693  13.291   0.305
14412W        W86738  17.162  23.956   3.852
14413W        W86739   4.304  15.315   4.579
14414W        W86740  37.793  18.671   3.237
14415W        W86741   4.724  31.933   3.806
14416W        W86742  40.321  31.546   3.450
14417W        W86743  43.009  22.526  13.929
14418W        W86744  39.638  13.911   3.767
14419W        W86745  20.799  17.808   3.430
14420W        W86746   7.771  38.047   0.243
14421W        W86747  13.305  22.460   1.253
14422W        W86748  24.210  17.347   5.596
14423W        W86749  30.697  36.079  10.657
14424W        W86750  15.747  22.998  11.634
14425W        W86751   5.433   0.623   4.166
14426W        W86752  15.210  40.453   3.291
14427W        W86753  25.700  16.678  13.039
14428W        W86754  29.508   2.798   0.419
14429W        W86755   2.368  15.290  14.693
14430W        W86756   4.849  18.653  14.770
14431W        W86757  19.794  31.941   2.195
14432W        W86758  15.175  43.301   4.131
14433W        W86759  42.469  21.197   2.709
14434W        W86760  44.989   4.229  11.975
14435W        W86761   5.076   5.429  12.145
14436W        W86762  19.254  12.201   2.899
14437W        W86763  43.070  12.806  12.163
14438W        W86764  12.841  17.077  11.739
14439W        W86765  12.156  22.450   1.935
14440W        W86766  15.332  18.560   1.381
14441W        W86767  16.028  29.201   4.544
14442W        W86768  10.919  10.417  11.629
14443W        W86769  15.340  40.620  11.567
14444W        W86770  35.953  33.355   4.917
14445W        W86771  26.032   0.323   1.823
14446W        W86772  22.441  11.330   3.815
14447W        W86773  30.979  24.514   2.248
14448W        W86774  44.072  31.880   0.437
14449W        W86775  42.969  15.957   4.007
14450W        W86776   6.850  35.153  14.410
14451W        W86777  32.238  39.269  14.507
14452W        W86778  18.290  44.972   2.864
14453W        W86779  41.508   9.712  11.154
14454W        W86780  35.429  11.435   4.235
14455W        W86781  42.063  16.836  14.813
14456W        W86782  24.295  36.556  14.964
14457W        W86783   4.725  24.806   2.257
14458W        W86784   6.429  42.455  14.293
14459W        W86785  33.520  17.249  10.878
14460W        W86786   5.480  35.361   3.338
14461W        W86787  40.803  33.052   1.300
14462W        W86788  31.649  27.210  11.931
14463W        W86789  21.246  34.644   2.614
14464W        W86790  10.029  25.671  14.353
14465W        W86791  24.368  39.922   5.482
14466W        W86792  30.549  22.770  14.400
14467W        W86793  44.968  33.907   0.069
14468W        W86794  18.104   3.430   2.740
14469W        W86795  43.972  13.065   0.681
14470W        W86796  32.475  12.533   5.227
14471W        W86797  12.318   5.989  11.628
14472W        W86798  38.397  29.564   2.319
14473W        W86799  19.734   4.699   4.345
14474W        W86800  37.231  12.095   4.137
14475W        W86801  15.678  31.165  13.162
14476W        W86802  25.266  39.816   0.391
14477W        W86803  17.020  43.355   2.771
14478W        W86804  15.480  35.966   9.810
14479W        W86805  43.048  42.433  11.175
14480W        W86806  23.133   0.987   0.830
14481W        W86807  10.600  41.388   1.312
14482W        W86808  43.734  35.017   0.789
14483W        W86809   2.768  37.499   2.389
14484W        W86810  20.216  22.535   2.265
14485W        W86811  33.935   4.492  11.896
14486W        W86812  15.514  24.239  14.880
14487W        W86813  38.286   1.319  14.286
14488W        W86814  10.628  42.255  13.177
14489W        W86815  27.477  17.746   3.959
14490W        W86816   9.251  16.315  12.011
14491W        W86817   9.482   8.643  13.991
14492W        W86818   9.606  23.499  13.843
14493W        W86819  20.245  32.827   1.323
14494W        W86820  14.880   6.232   1.802
14495W        W86821  41.096  11.995  13.378
14496W        W86822  41.422  35.504   0.246
14497W        W86823   9.918  16.342   4.090
14498W        W86824  36.366  37.508   4.529
14499W        W86825  32.920  28.042   4.488
14500W        W86826  14.142  18.583   1.828
14501W        W86827  27.016  20.605   1.959
14502W        W86828  19.042   6.330   4.105
14503W        W86829  19.046  31.197   3.763
14504W        W86830  22.696   7.088  14.732
14505W        W86831  43.173  19.819  13.478
14506W        W86832  17.987  37.526   4.731
14507W        W86833  31.010   4.876  10.674
14508W        W86834   1.371   3.302   1.717
14509W        W86835  44.087  15.095   5.089
14510W        W86836  32.218   6.379   4.549
14511W        W86837  39.890  31.674   3.183
14512W        W86838   5.951   4.371  12.660
14513W        W86839  35.797  15.119  13.092
14514W        W86840  34.442  13.178   2.419
14515W        W86841  13.560  23.073  13.959
14516W        W86842  25.925  28.640  11.092
14517W        W86843  26.683  32.428   3.804
14518W        W86844  31.167  31.432   1.160
14519W        W86845  25.985   0.219   2.844
14520W        W86846  42.316  31.412  10.800
14521W        W86847   6.228  31.678   0.410
14522W        W86848   4.197  17.210  13.082
14523W        W86849   7.971  18.709  10.982
14524W        W86850  16.302   2.139  11.986
14525W        W86851  36.931  21.006  13.410
14526W        W86852  43.461   4.424  11.929
14527W        W86853  23.159   6.914   4.643
14528W        W86854  14.844  42.280   0.888
14529W        W86855  23.414   8.642  12.906
14530W        W86856  11.515  11.156   1.539
14531W        W86857  36.840  26.524  13.511
14532W        W86858  26.408  32.515   1.765
14533W        W86859   5.967  40.988   4.012
14534W        W86860   5.413  26.331   2.791
14535W        W86861  39.312  11.358  13.560
14536W        W86862   3.296   5.668  11.435
14537W        W86863  43.775  27.361   0.690
14538W        W86864  36.093  19.238  14.909
14539W        W86865  13.753   8.143  11.291
14540W        W86866   6.386   0.898   0.248
14541W        W86867  39.283  43.864  10.725
14542W        W86868  31.057  40.897  10.366
14543W        W86869  16.399   4.895   3.950
14544W        W86870  40.054  28.378  14.817
14545W        W86871   5.190  23.163  11.939
14546W        W86872  31.133   1.215   2.277
14547W        W86873  18.407   6.385   2.772
14548W        W86874  14.320  24.743   1.936
14549W        W86875   8.384   4.718  10.610
14550W        W86876  11.190   7.881  14.618
14551W        W86877   9.793   7.697   0.839
14552W        W86878   0.503  30.129  14.448
14553W        W86879  26.510   3.896   3.224
14554W        W86880  11.558  26.901   9.730
14555W        W86881  23.063  14.839  11.544
14556W        W86882   3.324  35.977   4.033
14557W        W86883  14.359   4.653   2.295
14558W        W86884  23.102   1.934   0.466
14559W        W86885  43.814  23.228   0.734
14560W        W86886   1.864  39.987  13.848
14561W        W86887   4.014  31.573  10.642
14562W        W86888   3.497  33.058  10.790
14563W        W86889  12.196   8.422   1.857
14564W        W86890  10.127  40.579   5.002
14565W        W86891   4.523  38.348   4.961
14566W        W86892  37.069  13.679   0.471
14567W        W86893  43.535  28.983   3.852
14568W        W86894  30.669  32.125  13.921
14569W        W86895  13.046  34.368  10.169
14570W        W86896  11.793  17.243  11.977
14571W        W86897  32.906   0.933   2.961
14572W        W86898  11.267   0.678  12.667
14573W        W86899  29.111  11.053  14.615
14574W        W86900  18.798   0.752   1.604
14575W        W86901  16.559   7.307   3.828
14576W        W86902  20.769   1.873  12.709
14577W        W86903  24.269  26.943   3.348
14578W        W86904  26.488  24.552   0.498
14579W        W86905  36.889  41.025  11.456
14580W        W86906  23.785  11.173  13.101
14581W        W86907  30.181  19.042  11.601
14582W        W86908   3.902   8.671   5.041
14583W        W86909  26.221  44.385   1.728
14584W        W86910  33.584  15.292   4.998
14585W        W86911  41.973  42.278   2.929
14586W        W86912   1.432  27.293   0.825
14587W        W86913  37.474  27.025  13.491
14588W        W86914  10.386  35.414  10.672
14589W        W86915  13.370  40.508  11.573
14590W        W86916  38.487  42.620  12.645
14591W        W86917  42.831  18.563   3.860
14592W        W86918  44.612  38.592   2.230
14593W        W86919  43.076  29.252  12.191
14594W        W86920  25.823  41.331  14.042
14595W        W86921  43.047  14.382  11.647
14596W        W86922  27.385  26.447  12.506
14597W        W86923  16.189   4.171   1.150
14598W        W86924  26.507  38.840   0.833
14599W        W86925  28.158  25.725  13.982
14600W        W86926  29.075  21.568  11.473
14601W        W86927  29.654  39.088   3.580
14602W        W86928  44.766  40.470  12.012
14603W        W86929   9.391  23.785  14.531
14604W        W86930   3.549  38.003  13.339
14605W        W86931  31.753  20.235  11.254
14606W        W86932  16.543  38.701  13.999
14607W        W86933  41.110  20.283   0.547
14608W        W86934  29.523  15.332  11.554
14609W        W86935  38.823  43.236  14.334
14610W        W86936  18.152  38.617  10.735
14611W        W86937  40.686  12.336  14.273
14612W        W86938  40.871   6.821  14.773
14613W        W86939  30.229  33.999  11.160
14614W        W86940  39.554  12.136   4.088
14615W        W86941  12.483  39.465   0.924
14616W        W86942   4.208   3.253  14.379
14617W        W86943  39.450  40.997  10.394
14618W        W86944  20.062  12.638  10.746
14619W        W86945   5.452  17.114  11.101
14620W        W86946   3.235  33.660  12.542
14621W        W86947  16.728  25.698  14.345
14622W        W86948  28.126  32.152  11.692
14623W        W86949  39.728  29.551  14.089
14624W        W86950  41.777   1.841  14.598
14625W        W86951  18.982  15.818   1.413
14626W        W86952  13.735  27.261   1.304
14627W        W86953   7.947  25.196   3.701
14628W        W86954   4.698   3.732   3.067
14629W        W86955   2.977  25.711   2.449
14630W        W86956  24.519  14.402  13.477
14631W        W86957  37.938   6.770   3.292
14632W        W86958  32.178  29.753  14.943
14633W        W86959  30.134  24.896  14.799
14634W        W86960  29.572  27.654   5.393
14635W        W86961   2.765  24.999  13.825
14636W        W86962  12.514   3.655   1.239
14637W        W86963   8.640  10.942   9.913
14638W        W86964   2.135   1.975   2.279
14639W        W86965  30.883  20.520   1.772
14640W        W86966   4.341  19.252   1.190
14641W        W86967  22.156  35.089   0.948
14642W        W86968   2.370  17.191  11.168
14643W        W86969  40.970  29.813  12.916
14644W        W86970  30.920   6.861  14.678
14645W        W86971   0.984   3.895  13.802
14646W        W86972   2.383   4.805   4.822
14647W        W86973   8.971  14.408  12.008
14648W        W86974  28.704  28.719   2.051
14649W        W86975  23.095  35.590  11.481
14650W        W86976  12.042  37.513   0.767
14651W        W86977  36.827  43.790  14.263
14652W        W86978   3.113  24.214   4.632
14653W        W86979  36.477  42.738  11.052
14654W        W86980  15.492  26.930   0.341
14655W        W86981  33.866  12.798  12.919
14656W        W86982   4.324   7.220  13.325
14657W        W86983  36.594  14.820   2.491
14658W        W86984  28.513  17.160  14.310
14659W        W86985  43.302  35.557  14.376
14660W        W86986  21.269   7.366   2.564
14661W        W86987   6.656  44.270  12.854
14662W        W86988  24.103  26.396  11.536
14663W        W86989  34.807  34.101  11.033
14664W        W86990   7.466  42.046   2.833
14665W        W86991  25.419  39.458   2.939
14666W        W86992  19.950  35.524   2.791
14667W        W86993  26.110  33.014  13.009
14668W        W86994   0.242  20.377  14.828
14669W        W86995   3.376  18.055   0.502
14670W        W86996  40.979   0.982  13.727
14671W        W86997  36.315  15.156  12.964
14672W        W86998  40.038  25.179  13.932
14673W        W86999   1.459  18.005  11.085
14674W        W87000  38.556  15.807  12.367
14675W        W87001  18.549  25.582  12.894
14676W        W87002  20.128  17.232  12.098
14677W        W87003  17.692  35.470   1.376
14678W        W87004  10.279  30.342   4.115
14679W        W87005   6.478  31.829  14.531
14680W        W87006  37.232  44.313   5.029
14681W        W87007   0.167  33.093  14.473
14682W        W87008   3.241   7.577  11.139
14683W        W87009   8.436  38.034   1.138
14684W        W87010  40.194  32.023  10.185
14685W        W87011   9.824  17.235  11.109
14686W        W87012  37.128  35.559   5.058
14687W        W87013  39.226  17.638  11.675
14688W        W87014  33.590  18.104  10.773
14689W        W87015  19.816   6.495  10.552
14690W        W87016  12.377  17.169  11.504
14691W        W87017  41.462  29.841  11.628
14692W        W87018  32.947  35.871  12.925
14693W        W87019  43.355  18.320  13.447
14694W        W87020   2.378   1.945   3.597
14695W        W87021  25.472  13.743   0.386
14696W        W87022  30.693  34.856   4.956
14697W        W87023  29.928  44.933  10.343
14698W        W87024  17.204  43.202  14.911
14699W        W87025  29.039   3.723   2.847
14700W        W87026  18.020  15.214  14.753
14701W        W87027  38.031  33.061   0.725
14702W        W87028  39.277  22.039   3.182
14703W        W87029  19.118  42.998   1.392
14704W        W87030  22.452  23.097  11.617
14705W        W87031   8.313  26.000   1.902
14706W        W87032  36.327   7.288   1.329
14707W        W87033  15.243  34.645  11.115
14708W        W87034  36.561  14.352   0.028
14709W        W87035  18.734  14.420   4.577
14710W        W87036  33.559   6.142  12.407
14711W        W87037   7.235  28.209  12.335
14712W        W87038  22.081  40.997  10.542
14713W        W87039  20.062  25.457  12.304
14714W        W87040  33.569  13.672   0.160
14715W        W87041  43.247  14.771   2.679
14716W        W87042  39.875  25.467   2.394
14717W        W87043  36.945  37.930  13.994
14718W        W87044  35.959  26.987  14.451
14719W        W87045   6.210   7.941   4.259
14720W        W87046  34.105  43.500  11.664
14721W        W87047  21.723  32.167   0.236
14722W        W87048   8.815  25.220   0.544
14723W        W87049  37.938  33.753  13.003
14724W        W87050  14.169  38.418  13.691
14725W        W87051   4.267  41.918   4.562
14726W        W87052  43.785  24.127  10.758
14727W        W87053  15.016  43.709   0.551
14728W        W87054   3.288  34.058  11.626
14729W        W87055  22.147  43.387   2.219
14730W        W87056  34.177  20.601   1.716
14731W        W87057  39.430   4.028  10.479
14732W        W87058   7.118  19.141  13.295
14733W        W87059   8.779  20.055  14.310
14734W        W87060  15.311  36.302   2.780
14735W        W87061   9.451  28.484   3.280
14736W        W87062  39.331  32.848  11.105
14737W        W87063  23.457  28.514  12.033
14738W        W87064  10.272  12.723   3.320
14739W        W87065  26.641  24.800  11.345
14740W        W87066  13.833  18.160  13.743
14741W        W87067  44.569  13.094  11.042
14742W        W87068  42.436   4.462  11.657
14743W        W87069  34.866  44.010  12.169
14744W        W87070  18.523  11.863  11.126
14745W        W87071  13.109   4.766   2.751
14746W        W87072  27.648   4.587  14.907
14747W        W87073   7.235   7.184   4.479
14748W        W87074  39.933  36.611  14.343
14749W        W87075  44.309  24.083   2.988
14750W        W87076  25.569  29.738  12.234
14751W        W87077  44.411  23.623   1.399
14752W        W87078  35.628  27.703   3.553
14753W        W87079  24.365  20.332  12.457
14754W        W87080  22.045  28.398  10.751
14755W        W87081  11.879   0.920   4.627
14756W        W87082   9.373  44.630   2.157
14757W        W87083  40.358  38.375   1.878
14758W        W87084   9.578  28.687   4.593
14759W        W87085   7.873   5.788   0.430
14760W        W87086  22.211  39.536   0.874
14761W        W87087  34.006  17.638  12.006
14762W        W87088  28.679  12.371  10.650
14763W        W87089   7.762  33.991  13.892
14764W        W87090  15.702  24.661   3.374
14765W        W87091  17.099  20.327  11.675
14766W        W87092   4.927  33.097   3.250
14767W        W87093  32.624  41.429   0.504
14768W        W87094   9.675  43.026  10.771
14769W        W87095   4.436   5.502   3.644
14770W        W87096  29.658   8.064  11.584
14771W        W87097  20.006  43.034  11.979
14772W        W87098  24.719  17.438   0.407
14773W        W87099   5.379  13.246   3.949
14774W        W87100  41.387  44.571   0.274
14775W        W87101  37.053  22.443  12.005
14776W        W87102  10.380   8.748   4.310
14777W        W87103  16.289  35.840   3.565
14778W        W87104   1.554  35.940   4.665
14779W        W87105  32.034  18.577   4.564
14780W        W87106   2.939   1.568   1.174
14781W        W87107  40.007  28.022   1.847
14782W        W87108  26.036  36.163  14.297
14783W        W87109  41.552  14.077   1.197
14784W        W87110  43.496  40.262   2.686
14785W        W87111  44.323   3.209   0.859
14786W        W87112  43.255  22.575  11.139
14787W        W87113  27.552  10.691   3.980
14788W        W87114  27.117  14.312   3.152
14789W        W87115  20.365  31.851   0.450
14790W        W87116  38.402  38.770   4.329
14791W        W87117   1.943  15.947   2.405
14792W        W87118   0.774   6.463  11.555
14793W        W87119   3.281  12.357   5.483
14794W        W87120   6.773  37.394  14.925
14795W        W87121  41.497   7.408  11.241
14796W        W87122  43.382  40.448   2.160
14797W        W87123  38.980  18.724  14.426
14798W        W87124  22.481  37.364   2.364
14799W        W87125   5.299   2.906   1.258
14800W        W87126  24.291  24.001  13.394
14801W        W87127   2.729  21.697   1.455
14802W        W87128  28.598   7.155   2.746
14803W        W87129  33.358   1.219   2.849
14804W        W87130  36.544  21.639   3.603
14805W        W87131  43.549  40.350  11.522
14806W        W87132  31.635  44.671  12.121
14807W        W87133  31.643  39.586  13.038
14808W        W87134  35.954   7.664   3.178
14809W        W87135  11.647  29.050   0.963
14810W        W87136   9.209  42.828   3.203
14811W        W87137  18.034  24.418   2.301
14812W        W87138  23.091  34.172  11.219
14813W        W87139   2.419   2.100  10.619
14814W        W87140  10.529   4.728  12.157
14815W        W87141  22.697   7.631   3.585
14816W        W87142  15.294  28.984  11.432
14817W        W87143  42.934  30.862  14.414
14818W        W87144  22.579  30.321   5.017
14819W        W87145  20.558  28.001   3.763
14820W        W87146  13.086  35.891  12.422
14821W        W87147  24.548  26.508  14.852
14822W        W87148  33.500  15.760  12.011
14823W        W87149  33.555  43.553  11.162
14824W        W87150   0.692   5.710  14.354
14825W        W87151  13.284  17.098  12.036
14826W        W87152  11.757  32.518  11.932
14827W        W87153  40.770  27.930  13.227
14828W        W87154  11.882  25.195  13.479
14829W        W87155  13.322   6.160   1.953
14830W        W87156   0.184  17.298  14.895
14831W        W87157  23.763   2.235   1.179
14832W        W87158  27.228  43.039   0.557
14833W        W87159   0.094  38.348   2.114
14834W        W87160  20.527  18.362   4.253
14835W        W87161  31.411  34.582  12.939
14836W        W87162  30.131  19.674   0.278
14837W        W87163  11.041  20.137   3.914
14838W        W87164  34.680  13.187  13.388
14839W        W87165  13.748  39.584  14.967
14840W        W87166  21.928  15.497   5.056
14841W        W87167  27.568  31.910   4.158
14842W        W87168   9.292  41.309   3.282
14843W        W87169  42.438  38.918   0.451
14844W        W87170   4.349  32.933  12.593
14845W        W87171  16.735   1.504   0.526
14846W        W87172  43.431  16.322  13.031
14847W        W87173  20.157  33.492  10.147
14848W        W87174  10.389  35.014   3.160
14849W        W87175   4.417  36.333  11.962
14850W        W87176  38.834  33.484   0.445
14851W        W87177   1.353  31.063   1.278
14852W        W87178   6.316   4.195  14.463
14853W        W87179  35.780  31.370   1.421
14854W        W87180   9.666  32.467  14.030
14855W        W87181  27.309  38.432  11.920
14856W        W87182  22.661   1.467   4.311
14857W        W87183  25.795   2.870   0.168
14858W        W87184  35.871  37.950  11.602
14859W        W87185  32.942  28.907   4.644
14860W        W87186  34.003  19.076   1.343
14861W        W87187  27.019  15.063   1.324
14862W        W87188   4.421   3.719  11.746
14863W        W87189  17.822  28.128   3.272
14864W        W87190  25.542  41.267   2.154
14865W        W87191  31.113   8.484   0.175
14866W        W87192   5.992  18.051   0.329
14867W        W87193  42.866   5.370   1.817
14868W        W87194   8.935  35.818  12.023
14869W        W87195  33.611  25.766  14.860
14870W        W87196  30.328  30.404  14.313
14871W        W87197   2.759   8.725  13.354
14872W        W87198  44.831  33.945  13.565
14873W        W87199  34.055   0.494  11.870
14874W        W87200  42.939  20.240  14.308
14875W        W87201  25.647  13.322   0.776
14876W        W87202   2.452  26.326   0.008
14877W        W87203  35.642  20.622  13.660
14878W        W87204  20.440  23.529  12.922
14879W        W87205  22.755  37.854  11.161
14880W        W87206  44.984  26.976   0.184
14881W        W87207   0.160  33.975   2.132
14882W        W87208  13.537   6.441  14.719
14883W        W87209  28.642   4.685  13.988
14884W        W87210  41.003  12.698   1.465
14885W        W87211  42.267  20.533  14.395
14886W        W87212   0.454  43.386  11.230
14887W        W87213  40.264  38.882  10.240
14888W        W87214  28.502  44.415   0.394
14889W        W87215  30.641   3.400  12.034
14890W        W87216  28.954  13.418   3.655
14891W        W87217  15.842  37.909   1.902
14892W        W87218  37.519   6.763  10.705
14893W        W87219  25.777  33.569   3.605
14894W        W87220   4.929   0.226   1.373
14895W        W87221  43.870   6.379   2.746
14896W        W87222  24.202  22.060  14.992
14897W        W87223  12.752  32.627   2.215
14898W        W87224   5.589  24.222  11.675
14899W        W87225  21.193  13.011  14.901
14900W        W87226  38.347   1.464   1.859
14901W        W87227  20.246  29.982   1.762
14902W        W87228  22.053   7.821  14.461
14903W        W87229  31.510  40.567  13.314
14904W        W87230  44.867  31.880  12.795
14905W        W87231  43.565  43.411   4.522
14906W        W87232   1.824  29.145  13.571
14907W        W87233   8.770  25.792  11.509
14908W        W87234  43.980   3.351  14.980
14909W        W87235   4.813  10.839  10.686
14910W        W87236  24.078  28.240  11.109
14911W        W87237   1.909   8.295   4.334
14912W        W87238   0.422  10.447  12.114
14913W        W87239  40.277   8.301  11.115
14914W        W87240   6.299   5.386   0.044
14915W        W87241  32.335  13.263   2.213
14916W        W87242  33.382   4.304   1.269
14917W        W87243   0.904  30.102  12.563
14918W        W87244  39.049  10.804   4.203
14919W        W87245  28.983   7.420   3.689
14920W        W87246  17.065  19.576  13.749
14921W        W87247  17.098  10.145   1.278
14922W        W87248  34.031  22.027  14.998
14923W        W87249  12.318  37.501   4.094
14924W        W87250  43.681  37.583   0.633
14925W        W87251  12.376  16.912  11.057
14926W        W87252  30.942  35.355   2.868
14927W        W87253   0.562  42.820   3.333
14928W        W87254  29.066  28.453   5.539
14929W        W87255  24.126  27.232  11.215
14930W        W87256   7.638  39.635  11.538
14931W        W87257  36.964  20.190  12.455
14932W        W87258  20.278  39.388  11.690
14933W        W87259  17.359  19.852   3.610
14934W        W87260  37.142  23.228   1.883
14935W        W87261  44.504  30.920  12.889
14936W        W87262   6.416  15.304   4.711
14937W        W87263  24.290  18.173  14.866
14938W        W87264  25.677  42.942  13.415
14939W        W87265  43.377  28.924  10.956
14940W        W87266  39.313  12.127  14.965
14941W        W87267  42.431  40.979  14.286
14942W        W87268  37.328  24.489  10.417
14943W        W87269  32.687   0.757  13.061
14944W        W87270   2.536  21.500   5.475
14945W        W87271  30.383  30.874  13.379
14946W        W87272  39.743   5.794  13.803
14947W        W87273  37.029  10.110   5.415
14948W        W87274  10.873  20.091   0.850
14949W        W87275  34.634   0.371   4.683
14950W        W87276  36.400  23.659   0.863
14951W        W87277   0.374   4.083   1.198
14952W        W87278  24.084  20.569   2.420
14953W        W87279   3.881  43.780   2.856
14954W        W87280  44.518  42.896   2.393
14955W        W87281   6.391  39.491   1.392
14956W        W87282  17.187   7.634   0.859
14957W        W87283   6.973  43.673   1.029
14958W        W87284  10.809  19.287  13.475
14959W        W87285  17.830  24.416  14.960
14960W        W87286  34.377   2.243  14.582
14961W        W87287  32.145  40.725  13.846
14962W        W87288  12.535  33.828  13.062
14963W        W87289   5.872  33.981   0.330
14964W        W87290   0.675   3.400   4.635
14965W        W87291  10.938  40.834   1.452
14966W        W87292  17.305  22.722  10.642
14967W        W87293  30.087   4.368   3.674
14968W        W87294  44.369  11.909  13.860
14969W        W87295  38.815   0.780   1.642
14970W        W87296  11.748  14.286  11.582
14971W        W87297   1.756  24.464   1.855
14972W        W87298  20.762   0.219   2.154
14973W        W87299   3.017   7.665  12.768
14974W        W87300   1.446  31.866   3.637
14975W        W87301   3.751  14.741  13.499
14976W        W87302  35.896  39.040   3.724
14977W        W87303   6.396   5.874   1.253
14978W        W87304  19.515  38.350   3.388
14979W        W87305  21.770  15.781  14.320
14980W        W87306   7.944  32.208  14.950
14981W        W87307  31.460  24.253  14.929
14982W        W87308  27.242   8.783   2.334
14983W        W87309  36.824  11.113  12.795
14984W        W87310  21.414  31.278   2.298
14985W        W87311   7.369  31.558   2.607
14986W        W87312  18.722  36.776  12.950
14987W        W87313  43.451  36.414   2.086
14988W        W87314  17.065  31.967   2.869
14989W        W87315  30.194   7.433   0.478
14990W        W87316  21.928  10.562   0.484
14991W        W87317   3.209  20.991  10.748
14992W        W87318  16.537  11.335  14.769
14993W        W87319   7.303  12.849   1.320
14994W        W87320  11.877  44.363   1.343
14995W        W87321  13.861  33.620  13.341
14996W        W87322  39.306   3.836  12.017
14997W        W87323  16.300  34.552   2.775
14998W        W87324  24.922  24.476  12.806
14999W        W87325  17.798  21.187  11.538
15000W        W87326  32.837  11.162   3.738
15001W        W87327  13.776  34.083  14.104
15002W        W87328  33.359  12.677   3.710
15003W        W87329  33.972  12.570  10.712
15004W        W87330  33.068  21.070  12.207
15005W        W87331  32.169  14.120  11.440
15006W        W87332  41.783   5.487   4.462
15007W        W87333   9.451  12.217   3.682
15008W        W87334  39.725   4.818  11.540
15009W        W87335  27.165  18.770   0.665
15010W        W87336  36.517  19.544   4.063
15011W        W87337  36.164   8.144   3.207
15012W        W87338  12.726  10.842   1.592
15013W        W87339  15.087  15.845  10.963
15014W        W87340  20.166  17.522   2.159
15015W        W87341  19.164  29.678  14.002
15016W        W87342  33.372  26.023  10.697
15017W        W87343  35.748  39.070  11.070
15018W        W87344  25.967  32.497  13.718
15019W        W87345  25.962  25.510  14.566
15020W        W87346   8.341  21.927  11.576
15021W        W87347   4.748  13.123   0.737
15022W        W87348  22.718  26.651   5.028
15023W        W87349  41.351  30.401  11.633
15024W        W87350  26.325   8.221   0.918
15025W        W87351  17.374   0.630  13.329
15026W        W87352  20.461  43.013  12.263
15027W        W87353  11.858  39.047  11.160
15028W        W87354  36.012  32.131   1.701
15029W        W87355   6.220   7.426  13.295
15030W        W87356  30.817  24.916   1.868
15031W        W87357   6.509  18.935   0.366
15032W        W87358  28.473  10.502   0.213
15033W        W87359  36.316  11.869  11.277
15034W        W87360  30.219   2.391   2.424
15035W        W87361  38.402   2.766  10.827
15036W        W87362  44.066   8.498   0.422
15037W        W87363  23.890  17.326   9.984
15038W        W87364   1.139  35.091  13.591
15039W        W87365  32.847  19.520  14.233
15040W        W87366  39.338  39.068  12.182
15041W        W87367   5.995  41.360   1.654
15042W        W87368  33.097  34.144   3.110
15043W        W87369   0.184   4.890  13.433
15044W        W87370  24.792  21.137   0.875
15045W        W87371  21.953   7.392  11.578
15046W        W87372  34.539  10.192   1.778
15047W        W87373  35.571  31.211  11.168
15048W        W87374  31.591  42.373  14.297
15049W        W87375  15.708  15.705  14.782
15050W        W87376  15.118   1.662   0.445
15051W        W87377   7.923  44.310   4.490
15052W        W87378   2.884  43.195  11.000
15053W        W87379  39.051  13.054   1.743
15054W        W87380  13.331   0.888  12.064
15055W        W87381   5.220  18.001  12.072
15056W        W87382   1.846  28.618  10.776
15057W        W87383   9.902  28.452  13.081
15058W        W87384  38.574  29.955   4.198
15059W        W87385  40.980  21.690   2.666
15060W        W87386  42.815  44.410   4.508
15061W        W87387  27.552  19.524  11.141
15062W        W87388   2.900  30.096   2.574
15063W        W87389  25.885   4.349  10.772
15064W        W87390  27.510  31.130   1.459
15065W        W87391  14.672  34.414   3.813
15066W        W87392   3.736   4.226  10.635
15067W        W87393  24.937  17.031   0.142
15068W        W87394  18.873  10.765  12.497
15069W        W87395  25.181  27.482  10.642
15070W        W87396  13.020  26.059  11.192
15071W        W87397  24.016  16.607   3.532
15072W        W87398  39.284   6.954   3.327
15073W        W87399  32.102  26.145   4.508
15074W        W87400  43.005   7.482   0.864
15075W        W87401  44.315  43.924   4.177
15076W        W87402  34.003  31.555   0.036
15077W        W87403  40.780  22.380  12.917
15078W        W87404   6.746  23.081   2.354
15079W        W87405  27.732  14.322   4.301
15080W        W87406  33.527  17.572  14.757
15081W        W87407  30.472  32.476  11.884
15082W        W87408  39.401  38.172   3.176
15083W        W87409  13.783   4.902   5.068
15084W        W87410  11.208  39.316   0.827
15085W        W87411  32.228   8.267  12.430
15086W        W87412  35.485  20.935   2.635
15087W        W87413  28.604   0.078   1.169
15088W        W87414  19.749  11.737  13.345
15089W        W87415  40.185  27.631  13.845
15090W        W87416  19.175  17.118  12.921
15091W        W87417   9.992  22.759   3.233
15092W        W87418  25.622  33.433  11.935
15093W        W87419  42.739  29.435  12.519
15094W        W87420  30.173  30.058   1.539
15095W        W87421  35.284   0.469  14.410
15096W        W87422  30.198  28.630  10.624
15097W        W87423  39.855  35.077   4.557
15098W        W87424  20.772  25.224  14.428
15099W        W87425  26.650  41.050   3.624
15100W        W87426   3.662   7.774   4.144
15101W        W87427  16.638   4.630   2.598
15102W        W87428  13.831   4.908  10.581
15103W        W87429  22.566  32.172   2.810
15104W        W87430  33.332  34.122   2.648
15105W        W87431  38.314  33.861  11.190
15106W        W87432  42.302  35.835  10.899
15107W        W87433  34.379  34.846  13.323
15108W        W87434   2.831  19.989  13.654
15109W        W87435  38.007  29.323  10.539
15110W        W87436   3.400  15.737   2.899
15111W        W87437  35.372  32.973  12.903
15112W        W87438  31.388  25.225  11.046
15113W        W87439  41.419  25.980   4.136
15114W        W87440   2.795  25.600   1.957
15115W        W87441   0.807  32.118  13.046
15116W        W87442  40.458  28.504   3.799
15117W        W87443  31.157  24.530  10.907
15118W        W87444  37.573   3.289  13.905
15119W        W87445  30.014  13.792  11.459
15120W        W87446  26.383  13.482  13.436
15121W        W87447  39.522  18.992   0.912
15122W        W87448   1.587  25.157   4.176
15123W        W87449  14.028  44.510  11.005
15124W        W87450  39.117  20.477   2.313
15125W        W87451  33.967  23.602  11.319
15126W        W87452  41.737  29.903  14.363
15127W        W87453  25.809  13.838   1.862
15128W        W87454  18.191   0.437  11.432
15129W        W87455   3.293   4.565   3.717
15130W        W87456   5.351  39.686  12.845
15131W        W87457   4.142  29.176   4.148
15132W        W87458  14.172  21.521  11.344
15133W        W87459  38.940  15.211   3.257
15134W        W87460   4.803  17.254   1.383
15135W        W87461  40.558  25.649  12.430
15136W        W87462   0.307  36.316   2.746
15137W        W87463   4.802   9.721  13.367
15138W        W87464  30.331  11.751  13.790
15139W        W87465  24.711  30.165   4.324
15140W        W87466  32.404   3.416   0.626
15141W        W87467  23.322  16.685  11.290
15142W        W87468  31.332   0.011  14.867
15143W        W87469  17.519  31.064   4.061
15144W        W87470   9.824  42.022   4.160
15145W        W87471   7.347  32.004  14.285
15146W        W87472   1.990  39.385  14.528
15147W        W87473  32.132  29.552  12.454
15148W        W87474  33.043  30.651  12.030
15149W        W87475  36.914   8.186   1.321
15150W        W87476  14.365  22.300   1.431
15151W        W87477   8.421  17.000  12.295
15152W        W87478  30.594  42.445   4.833
15153W        W87479  39.057  37.602  13.018
15154W        W87480  21.639   7.512   0.741
15155W        W87481  23.897  16.614  13.494
15156W        W87482   4.187  44.107  11.134
15157W        W87483  40.432  20.781   3.084
15158W        W87484  37.457  20.002  10.428
15159W        W87485  13.050  12.775   3.609
15160W        W87486  15.590  27.474  13.346
15161W        W87487  32.814  23.445  14.374
15162W        W87488   6.604   1.414   0.457
15163W        W87489  38.475  31.561   4.771
15164W        W87490   8.359  28.530  10.545
15165W        W87491   5.087  27.916  12.514
15166W        W87492  14.213  22.488  13.017
15167W        W87493  44.508   2.353   2.207
15168W        W87494   2.232   0.596   1.233
15169W        W87495  17.526  26.196  12.057
15170W        W87496  40.181  20.691   0.391
15171W        W87497   4.940  34.930   4.120
15172W        W87498  10.765   0.754   1.281
15173W        W87499  14.777  18.065  10.937
15174W        W87500  37.554  23.306   0.833
15175W        W87501  15.435  38.585  11.140
15176W        W87502  40.496  35.429   3.244
15177W        W87503   2.852  23.146   0.932
15178W        W87504  14.120  27.000   4.120
15179W        W87505  12.165  10.594  10.708
15180W        W87506   2.880   5.543   0.976
15181W        W87507  23.696  14.545   3.772
15182W        W87508  35.054   9.778   3.073
15183W        W87509  15.839  20.569  11.949
15184W        W87510  17.629   9.879  14.871
15185W        W87511  21.639  10.668  14.301
15186W        W87512  38.445   7.292   2.313
15187W        W87513   9.613  24.140   2.713
15188W        W87514  37.539  18.706   3.690
15189W        W87515  30.598  40.496   3.977
15190W        W87516  30.682  15.162  14.503
15191W        W87517  40.882  27.216  10.575
15192W        W87518  29.434  16.827  13.274
15193W        W87519   1.612   1.554  10.747
15194W        W87520  30.591  43.053   0.286
15195W        W87521  22.089  36.391   2.142
15196W        W87522  41.760  30.555  13.003
15197W        W87523  17.148  18.522  12.524
15198W        W87524  24.755  33.454  11.754
15199W        W87525   0.983   1.466   3.374
15200W        W87526  37.496  41.703   2.162
15201W        W87527  28.474  16.307   2.232
15202W        W87528  36.834  27.749  14.720
15203W        W87529  21.987  17.093  11.484
15204W        W87530  21.775  21.749   4.348
15205W        W87531  33.444   4.992   0.820
15206W        W87532  16.633  29.661   1.833
15207W        W87533  18.111  12.824   2.329
15208W        W87534  22.279  35.823  12.012
15209W        W87535  44.367  37.949  11.415
15210W        W87536  29.837  30.041  10.692
15211W        W87537  38.561  30.057   2.322
15212W        W87538  39.924  24.260  12.633
15213W        W87539  35.176  31.522   0.484
15214W        W87540   1.130   9.089   3.624
15215W        W87541  10.018  17.612  13.570
15216W        W87542   6.433  26.197   0.245
15217W        W87543  14.015  24.581  11.528
15218W        W87544  31.923  19.018   1.859
15219W        W87545   9.795  40.220  14.298
15220W        W87546  25.434  42.121   1.765
15221W        W87547   6.664   4.608  14.441
15222W        W87548  20.518  19.869   4.156
15223W        W87549  35.393  25.577   2.216
15224W        W87550   6.147  25.076  10.686
15225W        W87551  35.007  16.135   3.282
15226W        W87552   5.290  19.450  13.265
15227W        W87553   7.308  39.487   1.045
15228W        W87554   5.655   7.657   1.740
15229W        W87555  34.026  37.767   2.116
15230W        W87556   6.127  31.546   1.342
15231W        W87557  24.730  40.251   1.393
15232W        W87558  15.149  43.220  12.944
15233W        W87559   0.993   8.254   4.182
15234W        W87560  16.967  26.661   2.650
15235W        W87561  27.841  37.087   4.322
15236W        W87562   1.837  28.910  14.046
15237W        W87563  41.961   5.298  10.498
15238W        W87564  23.025  25.506  12.146
15239W        W87565  17.346  35.467   1.779
15240W        W87566   4.250  12.815  12.145
15241W        W87567  29.750  19.599   4.989
15242W        W87568   9.318   9.699   2.395
15243W        W87569  22.284  25.629  14.484
15244W        W87570  17.737  29.622   4.594
15245W        W87571  34.635   8.189  11.517
15246W        W87572  23.562  31.614   3.898
15247W        W87573  44.031   8.787   4.437
15248W        W87574  36.524  21.581   1.839
15249W        W87575  25.700  44.353   1.771
15250W        W87576  39.580   1.430   0.151
15251W        W87577  40.405  38.528  10.616
15252W        W87578  27.110   1.361   3.951
15253W        W87579  42.881  27.769   0.402
15254W        W87580   9.155  19.293   4.054
15255W        W87581  13.021  35.206  11.581
15256W        W87582  17.215  42.864   1.168
15257W        W87583   9.221  30.423   0.966
15258W        W87584  37.105  14.013   4.467
15259W        W87585   2.095  19.128   1.196
15260W        W87586   2.981  18.533   4.131
15261W        W87587  18.424  27.466  11.167
15262W        W87588  32.560  40.721  11.483
15263W        W87589  17.061   6.752  11.504
15264W        W87590  21.576  38.503   2.150
15265W        W87591  38.019  37.911  10.639
15266W        W87592  23.705   5.759   3.254
15267W        W87593  17.902  39.970   1.909
15268W        W87594  32.594  29.138  14.767
15269W        W87595  34.852   9.976  13.313
15270W        W87596  29.099  20.534   4.295
15271W        W87597   3.963  10.901   2.874
15272W        W87598  22.307   5.482   2.718
15273W        W87599  12.592  42.249   1.312
15274W        W87600  43.091  36.229   2.415
15275W        W87601  22.689   1.199   1.126
15276W        W87602  24.618  22.199   0.771
15277W        W87603  28.721  20.334  13.813
15278W        W87604  16.516  43.865  14.825
15279W        W87605  23.311   9.251  13.285
15280W        W87606  40.855  18.250   1.923
15281W        W87607  19.549   4.894   0.490
15282W        W87608  26.969  28.158   3.241
15283W        W87609   5.871  25.619   4.899
15284W        W87610  41.265  23.838  13.975
15285W        W87611  25.915  27.990   1.738
15286W        W87612   8.737  24.950   1.484
15287W        W87613  24.226  30.664   0.326
15288W        W87614  31.751  43.493   2.906
15289W        W87615  14.219  27.027  10.118
15290W        W87616  40.860  13.796  13.400
15291W        W87617  27.210  15.667  10.647
15292W        W87618  32.598  19.106  14.468
15293W        W87619  39.918  40.490   4.096
15294W        W87620  34.112  38.668  10.107
15295W        W87621   2.384   6.902  14.882
15296W        W87622   9.941  16.756  10.901
15297W        W87623   2.382  32.509  12.013
15298W        W87624   7.905  12.423   0.787
15299W        W87625   4.314  40.523   3.933
15300W        W87626  20.681   5.142  14.340
15301W        W87627   9.741  16.170  11.905
15302W        W87628  29.583   3.282  12.876
15303W        W87629  32.599  24.538   3.780
15304W        W87630   6.221  13.704   2.588
15305W        W87631  13.307  26.053  13.056
15306W        W87632  35.611  42.039  13.325
15307W        W87633   6.597  19.972  11.101
15308W        W87634  23.982  33.426  12.808
15309W        W87635  43.053  31.525  10.563
15310W        W87636   9.327  18.745  11.012
15311W        W87637  40.309   2.723   4.609
15312W        W87638  24.512  20.717  13.798
15313W        W87639  11.578  15.849  13.414
15314W        W87640  32.867  10.155   4.548
15315W        W87641  19.906  34.817  12.942
15316W        W87642  23.029  35.272  14.300
15317W        W87643  41.403  43.262   3.236
15318W        W87644   8.118   6.445   1.181
15319W        W87645  35.795   9.824   2.069
15320W        W87646  21.505  43.133   1.082
15321W        W87647  36.775  15.744   2.080
15322W        W87648  15.672  37.091  14.606
15323W        W87649  44.441  19.323   1.043
15324W        W87650  22.706  40.908  12.816
15325W        W87651  16.451  23.734   1.851
15326W        W87652  28.678  35.084  13.465
15327W        W87653  11.547  30.179   1.387
15328W        W87654  21.662  32.022  10.995
15329W        W87655   8.473   0.722   2.151
15330W        W87656  39.130  37.973   2.733
15331W        W87657  31.513  35.150   4.310
15332W        W87658   2.509  24.220   1.840
15333W        W87659  41.845  21.215  12.335
15334W        W87660  21.496  10.290   4.542
15335W        W87661   9.650  27.612   0.909
15336W        W87662  28.260  15.537  10.007
15337W        W87663  31.370  10.194  10.674
15338W        W87664   9.156  23.567  10.681
15339W        W87665  36.985  28.100  14.172
15340W        W87666  22.718  29.084   4.607
15341W        W87667  40.449  29.076   3.140
15342W        W87668  44.468  23.123   0.538
15343W        W87669   4.725   6.320  10.631
15344W        W87670  41.771   1.871   3.865
15345W        W87671  24.752  34.524   2.249
15346W        W87672  23.695  41.796  14.004
15347W        W87673  18.108  32.392   0.836
15348W        W87674  15.749  35.644   1.908
15349W        W87675  14.107  24.747  10.673
15350W        W87676  40.005  13.909   4.791
15351W        W87677  17.087   2.146   3.687
15352W        W87678  30.524  24.795  13.685
15353W        W87679  11.194  23.925   4.159
15354W        W87680   4.043  25.163  11.024
15355W        W87681   5.257  19.094   4.343
15356W        W87682   1.322   7.706  10.465
15357W        W87683   4.479  39.672  11.968
15358W        W87684  25.126  22.142   4.368
15359W        W87685  23.479   4.867  10.158
15360W        W87686  29.803  10.459  10.473
15361W        W87687  18.351  32.171  14.651
15362W        W87688   3.058  23.695  11.986
15363W        W87689  24.574  39.348  13.732
15364W        W87690  30.889  19.562   1.260
15365W        W87691  31.376  24.487  14.059
15366W        W87692   7.822  18.639   2.604
15367W        W87693  10.502  24.493  12.199
15368W        W87694  14.855  34.083   0.948
15369W        W87695  22.024  25.975   2.598
15370W        W87696  42.269  27.504  11.969
15371W        W87697  24.437  14.763   4.635
15372W        W87698  28.626  13.209   1.252
15373W        W87699   2.951  41.324  11.854
15374W        W87700  27.099  10.955   2.238
15375W        W87701   8.966  13.090  12.592
15376W        W87702  18.525  44.055  11.445
15377W        W87703  39.454  35.045  11.948
15378W        W87704   3.038   3.169   0.684
15379W        W87705  17.402  13.208  12.438
15380W        W87706  27.143  38.348  10.606
15381W        W87707  29.961  15.558  14.866
15382W        W87708  44.458  43.559   3.580
15383W        W87709   8.650  24.502  14.308
15384W        W87710   2.500   7.253  11.486
15385W        W87711  25.029  43.001  10.828
15386W        W87712   1.382  24.553  13.785
15387W        W87713  22.042   9.749  12.570
15388W        W87714  27.220  36.081  10.958
15389W        W87715  33.322   8.672  11.509
15390W        W87716  29.147   8.361  14.306
15391W        W87717  36.639   7.865  14.411
15392W        W87718  31.617  24.188   3.182
15393W        W87719  38.100  12.894  13.775
15394W        W87720  27.178  24.755  11.953
15395W        W87721  20.306  43.881  13.861
15396W        W87722  17.722  41.594   0.342
15397W        W87723   9.339   3.756  14.460
15398W        W87724  38.163  14.700   2.162
15399W        W87725  15.067   4.437   3.291
15400W        W87726  30.050   8.920  11.629
15401W        W87727  40.100  26.130  14.706
15402W        W87728   9.489   8.628  11.164
15403W        W87729  44.534  11.769  14.956
15404W        W87730  15.141  42.352  11.789
15405W        W87731  26.959  30.809  11.648
15406W        W87732  44.440  36.976  13.815
15407W        W87733  14.557   4.861   4.008
15408W        W87734  28.970  31.914  13.480
15409W        W87735  25.947  30.820   1.773
15410W        W87736  22.988  32.879  12.042
15411W        W87737  23.267  35.131   3.344
15412W        W87738   9.197  43.564  12.536
15413W        W87739  17.632  40.416  14.294
15414W        W87740  19.066   7.635   0.783
15415W        W87741  34.606  24.033   3.748
15416W        W87742  42.752  13.798  14.801
15417W        W87743  16.187  21.042   3.438
15418W        W87744  24.913  44.337  12.554
15419W        W87745   3.562   1.248  10.496
15420W        W87746  24.513   4.139  11.215
15421W        W87747  15.905  13.837  10.202
15422W        W87748  41.290   6.344   0.807
15423W        W87749  20.545  27.920  13.162
15424W        W87750   7.195  24.978  13.885
15425W        W87751  18.949  19.149  11.575
15426W        W87752  32.515   6.442  10.434
15427W        W87753  12.737  33.152   0.071
15428W        W87754   3.396  37.690  14.060
15429W        W87755  42.972  11.762   2.381
15430W        W87756  14.206  27.337  11.548
15431W        W87757  34.613  36.412  14.458
15432W        W87758  19.743   7.376   2.834
15433W        W87759  20.411  28.109   3.255
15434W        W87760  37.907   9.127  14.303
15435W        W87761  28.457  19.630   1.966
15436W        W87762   1.947  44.269  13.551
15437W        W87763  15.372  15.226  13.879
15438W        W87764  42.328   0.484  12.948
15439W        W87765  42.402  43.888   2.301
15440W        W87766  26.141  24.479   4.142
15441W        W87767  36.993   8.853   3.668
15442W        W87768  24.124  32.853  11.585
15443W        W87769  20.401  20.554   3.703
15444W        W87770  11.716  26.398   4.175
15445W        W87771  25.671  39.600  10.131
15446W        W87772  34.572  11.146   3.327
15447W        W87773  34.819   1.309   4.953
15448W        W87774  36.270  29.438   0.988
15449W        W87775  21.488  38.284   1.663
15450W        W87776  16.894  14.918  10.964
15451W        W87777  33.324   0.815  14.620
15452W        W87778  43.338   9.074  14.415
15453W        W87779   2.041  12.590  11.337
15454W        W87780  23.636  32.583  14.108
15455W        W87781   6.699   7.626  14.528
15456W        W87782  15.218  29.641   2.258
15457W        W87783  26.015  23.418   2.346
15458W        W87784  34.000   6.460   3.579
15459W        W87785   3.469  19.486  13.463
15460W        W87786  35.448  24.091  14.465
15461W        W87787  23.734  22.575  14.832
15462W        W87788  12.227  30.008   1.372
15463W        W87789  24.760  27.600  11.616
15464W        W87790  35.913   4.012   3.527
15465W        W87791  39.376   6.262  12.561
15466W        W87792   4.610   2.311   1.146
15467W        W87793  15.093   7.413  12.500
15468W        W87794  42.466  34.799  12.889
15469W        W87795  43.755  21.228  13.933
15470W        W87796  40.488  28.275  11.169
15471W        W87797  31.033  43.540   4.854
15472W        W87798  16.782   1.991   0.738
15473W        W87799  24.141   2.438   4.674
15474W        W87800  19.834   8.267  14.513
15475W        W87801  28.985  41.023   2.099
15476W        W87802   8.191   9.129  12.038
15477W        W87803  25.199  16.837   2.321
15478W        W87804   3.477  18.954  11.571
15479W        W87805  20.944  35.527   0.901
15480W        W87806  32.643  33.995   4.545
15481W        W87807  25.029  43.902   0.436
15482W        W87808  40.917   8.763  14.912
15483W        W87809   3.399   8.300  13.430
15484W        W87810  29.566   0.855  13.555
15485W        W87811  12.386   5.916   3.257
15486W        W87812   1.183  37.459  13.349
15487W        W87813   9.698   1.902  11.624
15488W        W87814   3.685  28.422   0.883
15489W        W87815   4.369  17.841  14.869
15490W        W87816  33.843  24.936  11.657
15491W        W87817  35.262  16.246  11.923
15492W        W87818  21.251  17.617  10.332
15493W        W87819  16.210  43.574   4.318
15494W        W87820   2.269  25.403   3.227
15495W        W87821  10.850   7.401  12.009
15496W        W87822  18.287  27.453   4.090
15497W        W87823   2.305  26.646   0.836
15498W        W87824  36.383  42.261  14.984
15499W        W87825   0.829  12.574  14.735
15500W        W87826   8.785  37.137   0.245
15501W        W87827  42.431  21.774  11.426
15502W        W87828  12.581   7.815  13.921
15503W        W87829  34.578  18.616   2.808
15504W        W87830  25.187  32.907   1.911
15505W        W87831  24.632   4.271  12.064
15506W        W87832  20.300   4.661   1.765
15507W        W87833  38.982  16.767   0.725
15508W        W87834  36.008  37.314  10.333
15509W        W87835   9.251  23.750   2.693
15510W        W87836  28.532  41.401   4.997
15511W        W87837  36.970  40.102  13.409
15512W        W87838   6.234  24.253  13.298
15513W        W87839   7.372  13.194   4.956
15514W        W87840   8.122  33.134   1.007
15515W        W87841  20.177  28.652  12.884
15516W        W87842  28.881  41.299  12.395
15517W        W87843  26.188  26.505  10.610
15518W        W87844  34.445  37.396   3.772
15519W        W87845  18.613   3.864   3.473
15520W        W87846  41.623  35.581  11.998
15521W        W87847  35.582  28.697  14.909
15522W        W87848  27.368   2.282   0.280
15523W        W87849  11.450   5.278   1.040
15524W        W87850  10.195   7.835  10.593
15525W        W87851  11.009  10.391   1.030
15526W        W87852  37.134  11.959  10.360
15527W        W87853   9.099  37.435  11.003
15528W        W87854   3.242  35.084   1.495
15529W        W87855  24.231  11.488  13.279
15530W        W87856  42.085  32.997   0.842
15531W        W87857  10.790  37.132  12.437
15532W        W87858  19.615  10.824   2.104
15533W        W87859   7.840  37.192  12.055
15534W        W87860  11.212  44.411  11.585
15535W        W87861  15.329  42.487   3.730
15536W        W87862  26.863  10.289   4.580
15537W        W87863  32.475  36.589  14.816
15538W        W87864  19.026   0.715  13.738
15539W        W87865  21.210  16.884  14.088
15540W        W87866  23.724  24.118  10.502
15541W        W87867  37.844   9.294  14.783
15542W        W87868  24.526  42.100  12.661
15543W        W87869  14.620  23.075   4.595
15544W        W87870  38.877  26.752   0.040
15545W        W87871   3.382  43.800  14.358
15546W        W87872  10.253  18.161   5.045
15547W        W87873  27.955  44.445  10.900
15548W        W87874  10.855  15.526   2.855
15549W        W87875  36.604  20.290  12.096
15550W        W87876  10.301  36.981   3.608
15551W        W87877  36.781  24.152  14.725
15552W        W87878   2.733  38.118  14.516
15553W        W87879  33.093   6.094  11.502
15554W        W87880   3.385  12.644  11.930
15555W        W87881  27.592   2.463   0.904
15556W        W87882  36.845  23.001   3.245
15557W        W87883  20.283  41.473   1.240
15558W        W87884   6.954  15.755   3.542
15559W        W87885  42.322  13.220  12.004
15560W        W87886   5.284  15.056   0.416
15561W        W87887  44.305  27.930  12.070
15562W        W87888  21.511   4.638   2.234
15563W        W87889  26.413  27.182  12.988
15564W        W87890  44.496   7.715  13.149
15565W        W87891   5.172  16.902  14.978
15566W        W87892  12.713  37.159  11.573
15567W        W87893  33.475  25.676   4.350
15568W        W87894  26.446  11.838   3.732
15569W        W87895  16.545   5.822  14.881
15570W        W87896  21.874  37.498   3.630
15571W        W87897  21.728   9.462  14.777
15572W        W87898  16.283  28.511   5.029
15573W        W87899   5.366   4.618  13.322
15574W        W87900  35.415  20.080  12.502
15575W        W87901  29.436  27.763   1.931
15576W        W87902  14.295  40.605  12.072
15577W        W87903  20.636   7.737   1.461
15578W        W87904  24.640  21.718  12.967
15579W        W87905  36.361  19.078  11.026
15580W        W87906  27.464  34.476   3.197
15581W        W87907  36.782   6.826  13.655
15582W        W87908  36.415   8.222   4.838
15583W        W87909  38.806   6.715  14.817
15584W        W87910   1.223  14.907   3.662
15585W        W87911  35.153  44.245   0.242
15586W        W87912  36.097  20.218  11.216
15587W        W87913  17.728   1.290   2.425
15588W        W87914   0.772  24.996   1.263
15589W        W87915  29.653  14.894  12.501
15590W        W87916   5.836  39.665   4.655
15591W        W87917  43.461  26.721   3.284
15592W        W87918  32.816  12.345   2.703
15593W        W87919  38.362  20.342  11.670
15594W        W87920  27.465  39.338   0.047
15595W        W87921  19.179   4.828  13.754
15596W        W87922   7.689  19.110   3.402
15597W        W87923  12.797  40.081   2.120
15598W        W87924   3.354   3.911  12.593
15599W        W87925  36.819   9.249  14.749
15600W        W87926   9.110   6.523   1.376
15601W        W87927  32.721  15.403   1.173
15602W        W87928  20.133  20.573   0.413
15603W        W87929   5.745  25.096   4.184
15604W        W87930  19.187   4.329  13.547
15605W        W87931  15.495  30.325   4.145
15606W        W87932  31.896  29.636   3.145
15607W        W87933  23.066  20.296   4.863
15608W        W87934  33.061  35.216  11.749
15609W        W87935  22.607  28.127   0.360
15610W        W87936  13.244  21.191   4.015
15611W        W87937  12.125  16.158   0.677
15612W        W87938  23.766   3.228  11.176
15613W        W87939  23.552   9.384   2.449
15614W        W87940  42.739  33.419   2.420
15615W        W87941   1.378  35.255   1.639
15616W        W87942  31.158  33.002  14.793
15617W        W87943  21.507  17.040  14.509
15618W        W87944  25.407  25.272   4.257
15619W        W87945  20.017  39.391   2.303
15620W        W87946  29.262  22.615  10.679
15621W        W87947  41.761  19.210  12.440
15622W        W87948  15.354  13.856   0.696
15623W        W87949   3.047   9.817   0.430
15624W        W87950  29.238  27.194  12.402
15625W        W87951  18.912  20.071  14.326
15626W        W87952   4.164  38.576   1.864
15627W        W87953   9.625  44.947   3.462
15628W        W87954  14.142   8.725   3.776
15629W        W87955  16.589   4.449   3.792
15630W        W87956   1.427  43.174   1.705
15631W        W87957  16.610  39.574  13.797
15632W        W87958   0.313   0.860  13.879
15633W        W87959  34.126  20.367   4.144
15634W        W87960  35.280   5.228   2.894
15635W        W87961   3.231   3.947   5.122
15636W        W87962   1.687  14.236  12.456
15637W        W87963   9.267  18.314  12.526
15638W        W87964   5.290  33.632   0.918
15639W        W87965   7.153  18.659  10.567
15640W        W87966  34.969  21.271   3.902
15641W        W87967  29.590  36.096  14.998
15642W        W87968  23.519  21.899   1.868
15643W        W87969  44.080  13.299   4.027
15644W        W87970  31.643   6.715   2.161
15645W        W87971  32.173  28.007  11.180
15646W        W87972   1.368  23.068  10.588
15647W        W87973  37.536  23.704  12.861
15648W        W87974  17.646  29.664  14.516
15649W        W87975  22.635  12.054  14.413
15650W        W87976  33.991  27.611   0.252
15651W        W87977  25.033  43.521  13.487
15652W        W87978  34.435   9.122  12.451
15653W        W87979  16.313  42.762  10.656
15654W        W87980  14.178  29.352  11.562
15655W        W87981   6.830  14.146  14.240
15656W        W87982  26.684  15.667  10.513
15657W        W87983  31.010  43.097  12.672
15658W        W87984   3.120  19.196  12.094
15659W        W87985  43.055  40.862   4.158
15660W        W87986   7.790  33.967   0.448
15661W        W87987   8.452  44.938  12.292
15662W        W87988  29.400  14.275  13.758
15663W        W87989   4.491  41.352   3.371
15664W        W87990   3.814   3.019   1.650
15665W        W87991  38.916  41.278  13.932
15666W        W87992  19.723  20.115   3.031
15667W        W87993  21.027  21.054   5.401
15668W        W87994  20.044  35.303  13.003
15669W        W87995  20.593  38.397   4.546
15670W        W87996  29.004  28.515   3.623
15671W        W87997  29.115  30.523  11.535
15672W        W87998  17.724  11.771   3.175
15673W        W87999  39.293  21.646  10.462
15674W        W88000  15.492  11.713   5.100
15675W        W88001  44.611  40.289   4.528
15676W        W88002  34.543  24.581   4.622
15677W        W88003  36.907  34.979   0.379
15678W        W88004  10.979   6.627   1.500
15679W        W88005   2.419  18.485   2.777
15680W        W88006  32.809  38.381  13.433
15681W        W88007  18.552  15.348  13.853
15682W        W88008  17.337  26.908   3.252
15683W        W88009  29.675  29.548  10.595
15684W        W88010  29.996   2.475  11.601
15685W        W88011   8.968   7.893  13.810
15686W        W88012   5.593   7.321   3.701
15687W        W88013   2.619   6.589   4.056
15688W        W88014  24.363  14.129   1.253
15689W        W88015  18.207  32.418   2.255
15690W        W88016  35.569  14.115   3.712
15691W        W88017  10.543   1.766  14.069
15692W        W88018  20.833   5.412  13.080
15693W        W88019  41.034  43.574  13.677
15694W        W88020  14.080  24.517   2.331
15695W        W88021  10.282  44.999   2.343
15696W        W88022   3.171  42.300  13.783
15697W        W88023  41.993  42.100   4.614
15698W        W88024  17.294  11.655  11.477
15699W        W88025   2.015  25.528   4.133
15700W        W88026   8.785   0.740   3.701
15701W        W88027  42.086   3.251   2.435
15702W        W88028  10.876  20.265   2.349
15703W        W88029  23.283  28.624  11.163
15704W        W88030  21.361  14.566   4.223
15705W        W88031  36.401  34.960   0.318
15706W        W88032  28.128   2.400  12.532
15707W        W88033  38.549  25.669  12.392
15708W        W88034  39.642  17.247   2.677
15709W        W88035   2.406  11.040  12.950
15710W        W88036  12.160  35.541  11.424
15711W        W88037   1.926  14.875   0.521
15712W        W88038  19.590  13.296   2.352
15713W        W88039  15.764  11.487   1.282
15714W        W88040  26.122  36.123  13.338
15715W        W88041  33.788  20.677   2.661
15716W        W88042  35.499   8.374  14.905
15717W        W88043  26.025  43.352  13.438
15718W        W88044  12.681  34.967   1.063
15719W        W88045  39.950  11.366  12.049
15720W        W88046   8.689  12.898   4.663
15721W        W88047  15.835  21.543  10.372
15722W        W88048  17.327   9.307   3.681
15723W        W88049  32.991   3.516  14.990
15724W        W88050   9.448  40.329   3.883
15725W        W88051  20.185  29.363   4.511
15726W        W88052   3.021  29.068   4.745
15727W        W88053  35.187  43.246   2.328
15728W        W88054  31.496  16.051   2.181
15729W        W88055   0.215  35.497   4.320
15730W        W88056  16.654  32.062   3.807
15731W        W88057  27.962  35.560   3.400
15732W        W88058  36.867  43.874   5.000
15733W        W88059  38.065  43.383   2.887
15734W        W88060  30.887  11.109   0.374
15735W        W88061   8.599   3.399   4.162
15736W        W88062  30.479  30.902  12.416
15737W        W88063   0.343  38.720  13.427
15738W        W88064  29.323   4.908   2.667
15739W        W88065   7.662   9.540  14.068
15740W        W88066  38.534   6.833   4.613
15741W        W88067  39.843  40.769   4.542
15742W        W88068  30.095  15.884  11.629
15743W        W88069  20.605  38.949   9.837
15744W        W88070  35.012  28.298   4.729
15745W        W88071  12.297  12.173   1.223
15746W        W88072   0.021  33.940   1.587
15747W        W88073  14.668  38.482  12.993
15748W        W88074   4.888  12.313   0.432
15749W        W88075  37.762  34.465   4.101
15750W        W88076   3.700  14.062   3.763
15751W        W88077  26.128  12.612  13.528
15752W        W88078  32.509  11.080  14.952
15753W        W88079  31.088  21.793   3.847
15754W        W88080   1.282  26.583   2.638
15755W        W88081   5.973  26.189  14.260
15756W        W88082  26.849  16.953  11.091
15757W        W88083   9.805  44.823  10.479
15758W        W88084  22.526   7.486   1.956
15759W        W88085  24.097  23.955  12.541
15760W        W88086  34.405  17.305  12.032
15761W        W88087  44.645  24.411  11.970
15762W        W88088  30.456  29.626   3.289
15763W        W88089  34.111   9.299  14.759
15764W        W88090  35.949   0.963   3.465
15765W        W88091  39.323  41.398   1.813
15766W        W88092  17.348  16.682  11.572
15767W        W88093  39.400  22.728   4.740
15768W        W88094  30.475   5.694   1.700
15769W        W88095   8.399  44.873   2.228
15770W        W88096   8.158  18.423  13.609
15771W        W88097  36.983  40.428  12.990
15772W        W88098  39.525  11.872   3.445
15773W        W88099  38.303  30.360   4.038
15774W        W88100  15.675  20.440  10.659
15775W        W88101  37.800  43.844   2.806
15776W        W88102  38.309  31.909  13.957
15777W        W88103  39.564  21.506  12.992
15778W        W88104  23.512  11.324   2.825
15779W        W88105  26.692   7.772   0.909
15780W        W88106  14.608  22.230   0.454
15781W        W88107  37.510  41.545  14.417
15782W        W88108   3.959   7.882  11.581
15783W        W88109   6.251  39.444   0.887
15784W        W88110   4.870  19.516  10.404
15785W        W88111  21.776  22.182   1.830
15786W        W88112  30.447  14.272   2.826
15787W        W88113   4.770  37.596   4.109
15788W        W88114  36.006  17.456  11.506
15789W        W88115  17.271  17.726   2.241
15790W        W88116  43.510  42.714   3.253
15791W        W88117   5.426   9.881   2.550
15792W        W88118   1.396  22.839   3.183
15793W        W88119  41.889  43.811  14.417
15794W        W88120  42.461  24.162  10.670
15795W        W88121  42.515  36.919   2.215
15796W        W88122  22.955  31.031   2.613
15797W        W88123  43.418  14.199   4.243
15798W        W88124   8.819  40.008   0.183
15799W        W88125  20.122   3.514  13.774
15800W        W88126  21.322   5.863  12.462
15801W        W88127  20.517   5.971  12.068
15802W        W88128  31.340  33.339   2.639
15803W        W88129  24.424  27.055  10.811
15804W        W88130   1.328  34.362   1.653
15805W        W88131  42.421  16.275   3.310
15806W        W88132  43.785   3.446  14.425
15807W        W88133  30.545  17.067  11.926
15808W        W88134  15.121  13.044  12.082
15809W        W88135  19.701  38.091  14.373
15810W        W88136  25.674  43.950   2.739
15811W        W88137  37.265  23.218  13.897
15812W        W88138   2.517   0.220  14.835
15813W        W88139  37.484  25.201  13.009
15814W        W88140  13.677   2.806   2.800
15815W        W88141   8.322  14.608  13.931
15816W        W88142  39.494  41.635   2.867
15817W        W88143  15.228  39.064   0.941
15818W        W88144  38.321  40.032  13.456
15819W        W88145  26.941  28.966  13.839
15820W        W88146  20.542   9.452   1.796
15821W        W88147  22.944  28.174  11.173
15822W        W88148  29.553   8.783  10.869
15823W        W88149  22.592   5.253  12.550
15824W        W88150  12.904  18.027  10.574
15825W        W88151  20.189   7.403   4.524
15826W        W88152  10.651   3.524  13.553
15827W        W88153   0.194  34.825  13.334
15828W        W88154  37.932  17.687   3.269
15829W        W88155  10.358   7.887   1.181
15830W        W88156  11.276  15.840   2.826
15831W        W88157  34.755   4.608  13.354
15832W        W88158  25.414  34.342  14.392
15833W        W88159  30.452  32.532  12.764
15834W        W88160  15.727  40.517   2.218
15835W        W88161  28.725  44.202   0.963
15836W        W88162   1.520  26.565   4.545
15837W        W88163  18.502   7.738  11.625
15838W        W88164   2.968  29.080  12.587
15839W        W88165  36.440  37.561   9.997
15840W        W88166   9.214  22.974   1.110
15841W        W88167  44.741   0.017   4.502
15842W        W88168  14.682  10.036  14.383
15843W        W88169  39.851   0.202  14.035
15844W        W88170   7.442   6.816   3.403
15845W        W88171  25.508  18.359  12.440
15846W        W88172  18.613  13.391   4.498
15847W        W88173  28.236   3.885  12.799
15848W        W88174  15.360  40.574  12.062
15849W        W88175  22.613  20.437  12.504
15850W        W88176  17.922  28.437  14.950
15851W        W88177  10.276  28.197  12.874
15852W        W88178  19.291   1.413   3.256
15853W        W88179  39.906  25.117   1.429
15854W        W88180   9.738   0.757   2.128
15855W        W88181  20.238  22.228  14.395
15856W        W88182  32.090   2.998  12.866
15857W        W88183  44.791  26.162  12.057
15858W        W88184  15.216  44.448   5.013
15859W        W88185  33.564   8.536  11.094
15860W        W88186  12.159  20.495  12.063
15861W        W88187  22.099  34.341  14.205
15862W        W88188  33.409  22.595   2.734
15863W        W88189   5.504  13.567   0.260
15864W        W88190  26.508   9.330   3.772
15865W        W88191  38.067  31.055  11.240
15866W        W88192  42.342  19.398   2.239
15867W        W88193  28.128  35.984   0.067
15868W        W88194  32.848  12.247  11.688
15869W        W88195   3.903  14.742   0.707
15870W        W88196  24.491   0.805  13.022
15871W        W88197  39.077  15.622   0.260
15872W        W88198  41.915  38.919  10.287
15873W        W88199  14.788  25.424  14.151
15874W        W88200   2.824  23.690   0.825
15875W        W88201  37.000   8.853  12.595
15876W        W88202  13.882  42.037  14.887
15877W        W88203  37.952  40.654  11.927
15878W        W88204  34.574   5.944  13.109
15879W        W88205  13.299  23.225  12.192
15880W        W88206  32.190  41.957   0.882
15881W        W88207  36.500  27.096  14.328
15882W        W88208  26.015   2.963  12.070
15883W        W88209   2.274  20.136   0.948
15884W        W88210  20.185  21.249   4.090
15885W        W88211  43.963  36.029   4.555
15886W        W88212  25.759  19.513   3.204
15887W        W88213   3.462  42.538  11.162
15888W        W88214  30.023  39.789   2.738
15889W        W88215  25.549   0.960  10.491
15890W        W88216  28.179   0.510   4.063
15891W        W88217  27.236   0.808  13.378
15892W        W88218  31.410   6.708   4.718
15893W        W88219  36.375  40.541   0.283
15894W        W88220   9.177  30.599  13.926
15895W        W88221  12.629  23.151   4.870
15896W        W88222  27.366  29.244   4.557
15897W        W88223  43.311  22.952  13.869
15898W        W88224  11.909   4.823   0.396
15899W        W88225  34.650  43.404  12.956
15900W        W88226   2.484  24.722   4.083
15901W        W88227   4.360   7.103   1.704
15902W        W88228  25.674  29.859   4.725
15903W        W88229  36.252  15.328  14.811
15904W        W88230  44.491  13.685   4.893
15905W        W88231   8.806  23.959   1.660
15906W        W88232  25.089  17.705   5.515
15907W        W88233  16.650  22.954  10.651
15908W        W88234  17.798  42.770  11.883
15909W        W88235  37.377   6.291   1.490
15910W        W88236  43.047  15.511  11.966
15911W        W88237  37.282   7.329  13.916
15912W        W88238   3.279   7.866   1.788
15913W        W88239  22.480  30.018   9.991
15914W        W88240  20.019  21.126   3.607
15915W        W88241  21.254  27.191   1.411
15916W        W88242  37.049  31.334   3.622
15917W        W88243  24.796   7.868   4.641
15918W        W88244  31.190  11.771   3.697
15919W        W88245  34.888  44.600  11.490
15920W        W88246  18.900  15.223   0.380
15921W        W88247   8.057  29.442   2.224
15922W        W88248  31.548   8.229  13.916
15923W        W88249   3.753  23.245  14.459
15924W        W88250  16.690  22.422  14.594
15925W        W88251  36.543  23.157   0.860
15926W        W88252   9.879   4.749   3.283
15927W        W88253  12.535   2.574   3.328
15928W        W88254   2.880  33.547   0.514
15929W        W88255   5.272   3.897   3.793
15930W        W88256  25.187  20.182   0.863
15931W        W88257  19.787   0.407   3.390
15932W        W88258  28.247  23.686   3.721
15933W        W88259  41.800  23.689  14.003
15934W        W88260  42.284  34.937  14.777
15935W        W88261  36.116  25.080   4.212
15936W        W88262  13.408  18.391  10.240
15937W        W88263  29.418  34.443  11.004
15938W        W88264  26.175  27.572   9.739
15939W        W88265   9.806  10.514  12.977
15940W        W88266  31.392  43.687   0.879
15941W        W88267  27.686  23.666   4.593
15942W        W88268  26.635  10.762   2.255
15943W        W88269   9.854  26.672  13.421
15944W        W88270  40.345  15.165   4.621
15945W        W88271  23.351  25.527  11.103
15946W        W88272  32.743  44.000   0.781
15947W        W88273  42.663  15.843  14.437
15948W        W88274  18.833  27.560  14.464
15949W        W88275  41.928  43.330   1.336
15950W        W88276  17.093  41.648  14.986
15951W        W88277  43.947  14.238   4.251
15952W        W88278  38.117   6.851   1.230
15953W        W88279  34.516  39.383  11.856
15954W        W88280  39.248   3.896   3.164
15955W        W88281  37.563  44.452  10.644
15956W        W88282   0.927  39.275   0.850
15957W        W88283   3.915  32.926  13.416
15958W        W88284  10.489  42.934   0.417
15959W        W88285  14.440   2.348   4.127
15960W        W88286  17.686  24.095  10.967
15961W        W88287  10.192  34.785   2.720
15962W        W88288  42.095  42.253   3.428
15963W        W88289  37.897  24.453   3.666
15964W        W88290  18.721  39.148   1.306
15965W        W88291  29.419  25.090   3.607
15966W        W88292  36.331   9.841   0.909
15967W        W88293  16.805   9.160  11.072
15968W        W88294   1.083   2.959  14.004
15969W        W88295  44.807  21.259  10.422
15970W        W88296  16.830   5.135   2.575
15971W        W88297   1.245  11.312   3.380
15972W        W88298   3.095  26.986  13.107
15973W        W88299  34.326  39.553   0.883
15974W        W88300  41.586  26.659  12.097
15975W        W88301  25.083  22.139   1.669
15976W        W88302   4.884  23.331  11.013
15977W        W88303  39.978  35.518  14.551
15978W        W88304  32.446   1.256   4.159
15979W        W88305  21.697  37.017   1.327
15980W        W88306   3.180  33.418  13.759
15981W        W88307  16.586  32.599   2.720
15982W        W88308  38.553  33.382  11.226
15983W        W88309  29.457   3.243  13.777
15984W        W88310  27.837   4.739  12.659
15985W        W88311  11.606  15.781  10.648
15986W        W88312   9.316   8.911   3.617
15987W        W88313  20.550  37.934   0.497
15988W        W88314  41.749  31.894   0.161
15989W        W88315  38.031  27.762   0.043
15990W        W88316  19.499   8.436  13.042
15991W        W88317  44.977  30.842  14.905
15992W        W88318  12.269  32.488  14.707
15993W        W88319  43.500  11.589   0.228
15994W        W88320  39.292  36.869   0.412
15995W        W88321  21.058  33.315  10.636
15996W        W88322  22.134  42.569  13.836
15997W        W88323  15.763   9.348  14.002
15998W        W88324   6.094  14.294   3.187
15999W        W88325   4.181  22.717   4.098
16000W        W88326  10.503  28.496   1.824
16001W        W88327  16.999  33.531   0.294
16002W        W88328  44.285  32.618  13.018
16003W        W88329   5.258  40.026  11.906
16004W        W88330  30.052  28.148   3.885
16005W        W88331   4.794  20.624   0.012
16006W        W88332  40.911   8.999  10.716
16007W        W88333  26.095   3.043   0.931
16008W        W88334  37.468  11.726   4.560
16009W        W88335  24.506  32.440  13.410
16010W        W88336  21.151   3.001  10.667
16011W        W88337  15.778  35.544  10.599
16012W        W88338  20.306   3.892   0.804
16013W        W88339  18.799  31.477   1.499
16014W        W88340  34.800  22.916   1.828
16015W        W88341  10.166  41.589  12.648
16016W        W88342  38.768  31.845  14.984
16017W        W88343   6.436   0.292   2.349
16018W        W88344  25.611  39.960   2.895
16019W        W88345   1.917  40.537  13.612
16020W        W88346  26.938  33.047   2.264
16021W        W88347  26.682  12.623  11.954
16022W        W88348  13.287  15.585  11.098
16023W        W88349  12.338  35.487   4.649
16024W        W88350  24.234  14.270   4.730
16025W        W88351  37.643  44.254   4.719
16026W        W88352   9.204  44.827  13.605
16027W        W88353  13.704  28.087  13.867
16028W        W88354  32.584  10.893   0.466
16029W        W88355   4.166  34.115  11.169
16030W        W88356  41.896   7.142  11.012
16031W        W88357  22.125   1.011  13.835
16032W        W88358  24.143  37.474  13.928
16033W        W88359  13.907  35.007  10.573
16034W        W88360   5.748  43.757   2.826
16035W        W88361   7.786  44.682  13.008
16036W        W88362  12.835  24.357  10.758
16037W        W88363  37.274  40.442   0.192
16038W        W88364  14.385  30.680   2.306
16039W        W88365   3.074   1.318  10.673
16040W        W88366  38.112  35.047   0.888
16041W        W88367  41.016   1.053   1.004
16042W        W88368  41.911  22.957  11.467
16043W        W88369  23.983  20.660  14.791
16044W        W88370  10.105  14.530  12.361
16045W        W88371  21.767  31.921  13.385
16046W        W88372  16.199   9.763  11.132
16047W        W88373  28.483   2.053  14.296
16048W        W88374  17.097  28.081  12.071
16049W        W88375  36.050  26.729  13.989
16050W        W88376  11.763  26.609  14.474
16051W        W88377   4.289  29.167  14.941
16052W        W88378  12.128  40.556   1.716
16053W        W88379  20.386  36.480   4.368
16054W        W88380  33.867  27.117   1.366
16055W        W88381  27.631  14.273   4.854
16056W        W88382  26.614   7.975   4.112
16057W        W88383  22.476  35.927   4.058
16058W        W88384   2.635  15.885   3.165
16059W        W88385  17.522  42.348   1.172
16060W        W88386  39.374  10.981  13.966
16061W        W88387  26.796  31.575   2.690
16062W        W88388   9.837  14.281   4.478
16063W        W88389   4.772  31.596  11.751
16064W        W88390   0.259  22.270   1.169
16065W        W88391  21.457  36.873  12.338
16066W        W88392   4.914   4.848  13.389
16067W        W88393   4.252  44.171  13.990
16068W        W88394  35.856  25.425  14.784
16069W        W88395  19.284   6.123   2.508
16070W        W88396   0.201  36.895   2.009
16071W        W88397  30.250   4.114   3.245
16072W        W88398  13.334  23.243   2.537
16073W        W88399   0.322  29.866  14.029
16074W        W88400  37.192   5.252   2.397
16075W        W88401  33.212   8.223  14.460
16076W        W88402  17.153   5.833   4.825
16077W        W88403  23.103  10.454  13.138
16078W        W88404  37.026  24.794   4.243
16079W        W88405  11.079  30.985  11.427
16080W        W88406  33.274  32.020  11.162
16081W        W88407   5.633   6.626   3.301
16082W        W88408  36.831   6.029  13.004
16083W        W88409  44.325  29.480   0.331
16084W        W88410  33.166   7.279  14.459
16085W        W88411  36.023  23.186  10.636
16086W        W88412  11.120   2.364   1.300
16087W        W88413  14.330  28.545   0.886
16088W        W88414  31.136  39.447  13.772
16089W        W88415  29.646  38.141   4.639
16090W        W88416  35.050   4.434  12.931
16091W        W88417  12.231   4.438  10.570
16092W        W88418  17.781  34.588  14.967
16093W        W88419  42.623  31.454   2.661
16094W        W88420  14.196   8.792   4.322
16095W        W88421  28.086   3.708   1.845
16096W        W88422   6.749  13.068   2.233
16097W        W88423  13.331  12.765   3.170
16098W        W88424  37.609  41.049  12.068
16099W        W88425  18.916   2.762   0.299
16100W        W88426  26.046  27.178   0.808
16101W        W88427   8.691  37.241   2.165
16102W        W88428  44.887   8.777  13.428
16103W        W88429  14.146  37.437   3.437
16104W        W88430  27.412  44.960  11.569
16105W        W88431   9.694   3.333   0.252
16106W        W88432  38.863  36.077  11.675
16107W        W88433  26.378  20.549   4.171
16108W        W88434  19.108  25.924  11.275
16109W        W88435  37.054  15.911  13.243
16110W        W88436  36.554  21.763  10.827
16111W        W88437  39.933  38.333   2.289
16112W        W88438  14.306  15.465  13.125
16113W        W88439  20.010  36.826   1.715
16114W        W88440  44.963   5.427  10.942
16115W        W88441  28.873  34.417  12.464
16116W        W88442  42.157  14.101  12.626
16117W        W88443  32.144  28.526   2.897
16118W        W88444  43.401  43.523   2.872
16119W        W88445  22.570  13.676   2.755
16120W        W88446  23.556  19.777  11.123
16121W        W88447   3.756  28.391  12.590
16122W        W88448  20.986   2.326  14.548
16123W        W88449  33.435  12.624   3.176
16124W        W88450   1.459   9.971   5.135
16125W        W88451  34.964   3.472  11.961
16126W        W88452  38.816  24.949  13.967
16127W        W88453   7.203  27.192  10.571
16128W        W88454  14.561  39.084   2.357
16129W        W88455  19.624   8.526   2.156
16130W        W88456  28.624   8.874   3.783
16131W        W88457  42.237   9.668   1.760
16132W        W88458  20.387  44.742   1.292
16133W        W88459   2.538  14.994   4.693
16134W        W88460   7.241   1.427  13.412
16135W        W88461   2.887  42.041  13.054
16136W        W88462  34.944  19.036   4.888
16137W        W88463  23.183  41.602  11.289
16138W        W88464   4.496  22.699  14.152
16139W        W88465  16.169  34.890   0.943
16140W        W88466   5.548   8.414   1.280
16141W        W88467  13.775  25.832   4.762
16142W        W88468  19.235  12.701   3.112
16143W        W88469  20.215   9.566   3.107
16144W        W88470   8.899  29.004   2.836
16145W        W88471  25.719   3.583   3.007
16146W        W88472  37.462  44.905   2.768
16147W        W88473  20.101  11.262  14.231
16148W        W88474  19.102  17.676   2.871
16149W        W88475  28.504  21.762  12.141
16150W        W88476  21.113   0.452   4.957
16151W        W88477   8.952  27.688   2.490
16152W        W88478   0.254  41.989   2.834
16153W        W88479   2.681  44.518  11.065
16154W        W88480  14.121  31.126   2.212
16155W        W88481  20.732  34.066  11.737
16156W        W88482  35.745   9.782   1.577
16157W        W88483   1.802   1.788  14.337
16158W        W88484  18.971  38.091  11.650
16159W        W88485  20.263  26.567  12.168
16160W        W88486  23.452  31.448  12.068
16161W        W88487   8.471  12.117  11.866
16162W        W88488  19.274  23.157  11.068
16163W        W88489  13.773   0.271   2.739
16164W        W88490   2.273   0.762   1.727
16165W        W88491  16.138   4.590  14.724
16166W        W88492  43.347  37.041   2.839
16167W        W88493   3.470  17.752  14.378
16168W        W88494  44.993  41.556   2.753
16169W        W88495  13.253  42.861   2.242
16170W        W88496  15.076  16.786   1.503
16171W        W88497  38.871  18.479   2.204
16172W        W88498  16.103  38.927   4.513
16173W        W88499   3.481  26.170   2.396
16174W        W88500  24.173  22.065   4.796
16175W        W88501  43.595  37.975  12.999
16176W        W88502  17.772   8.712  10.837
16177W        W88503  39.991  41.827   0.791
16178W        W88504  31.919  29.491   5.105
16179W        W88505  29.083  40.919   0.184
16180W        W88506  42.132  31.954   3.621
16181W        W88507   5.437  24.988   2.753
16182W        W88508  10.285  44.547   0.077
16183W        W88509  17.997  21.030  12.037
16184W        W88510  26.880   4.295  12.148
16185W        W88511  41.597  22.576  12.160
16186W        W88512   1.720  24.060  10.682
16187W        W88513  26.378  33.454  12.891
16188W        W88514  37.154  32.929  11.294
16189W        W88515  12.188   4.027  12.034
16190W        W88516   3.700  14.320  13.828
16191W        W88517  30.010  16.293  12.930
16192W        W88518  27.377  38.358  12.817
16193W        W88519  32.145  28.106   1.315
16194W        W88520  12.799  34.533  10.991
16195W        W88521  33.927  20.118  14.111
16196W        W88522  25.526  23.447  11.125
16197W        W88523   6.167  34.221  12.939
16198W        W88524  41.970  13.083   5.351
16199W        W88525  40.314  29.565  10.895
16200W        W88526  37.365  28.514  14.342
16201W        W88527   9.818  16.499   1.732
16202W        W88528  28.754  37.069   1.474
16203W        W88529   0.301  13.926   4.229
16204W        W88530  38.014  42.741  11.511
16205W        W88531  24.749   1.900   0.783
16206W        W88532   2.114   3.862  13.246
16207W        W88533  25.258  40.406  13.433
16208W        W88534  13.210  18.706  14.788
16209W        W88535   6.388   2.492   3.600
16210W        W88536  31.065   7.548  14.104
16211W        W88537  17.235  13.299  11.402
16212W        W88538  23.818  10.874   2.853
16213W        W88539  14.892  13.081  11.599
16214W        W88540  39.848  18.608  13.410
16215W        W88541  33.604  26.134   1.175
16216W        W88542  38.528  14.691   4.354
16217W        W88543   4.481   0.019  12.055
16218W        W88544  19.661  34.507  11.938
16219W        W88545  20.204  35.911   2.156
16220W        W88546  37.911  30.214  13.909
16221W        W88547  30.174  36.024   0.449
16222W        W88548   0.089   0.944   0.518
16223W        W88549   3.609  34.971  12.415
16224W        W88550   1.702  19.669   4.515
16225W        W88551  14.617   4.166   2.266
16226W        W88552  41.279  15.218  14.456
16227W        W88553  12.329  10.582   2.796
16228W        W88554  21.197  20.830   2.834
16229W        W88555   0.001  36.429   1.848
16230W        W88556   8.818  38.278  13.415
16231W        W88557  15.145  23.888  13.357
16232W        W88558  24.452  35.995  10.586
16233W        W88559   7.951   5.007   1.233
16234W        W88560   8.881  29.974   4.322
16235W        W88561  19.606  31.428   0.882
16236W        W88562  19.525  32.553  10.818
16237W        W88563  36.876  33.071  11.848
16238W        W88564  43.313   7.207  14.329
16239W        W88565  17.564  35.964   2.902
16240W        W88566  43.091  38.727   2.769
16241W        W88567  29.170   1.548  11.185
16242W        W88568  16.343  27.899  13.607
16243W        W88569  32.896   3.917  12.460
16244W        W88570   5.688  28.247   4.189
16245W        W88571  43.027   5.233  14.906
16246W        W88572  26.877   3.133   3.248
16247W        W88573  17.075  10.238   2.159
16248W        W88574  28.874   9.330   3.854
16249W        W88575  13.683  28.447   3.237
16250W        W88576  41.268  19.927  14.789
16251W        W88577   3.268   8.017   0.464
16252W        W88578  33.671  41.022  11.184
16253W        W88579  36.862   7.880   4.244
16254W        W88580  23.769  29.712  14.360
16255W        W88581  35.478  35.179   0.747
16256W        W88582  10.969  24.322  13.478
16257W        W88583  11.708   6.237  10.438
16258W        W88584  18.718  42.782   1.059
16259W        W88585  12.303  43.968   1.147
16260W        W88586  25.209  15.551  14.371
16261W        W88587  37.090  20.460  12.014
16262W        W88588   0.712  42.567  10.683
16263W        W88589  31.487   3.034   2.425
16264W        W88590  37.336   5.426   2.880
16265W        W88591  14.251   2.641  11.985
16266W        W88592  33.438  32.021   5.030
16267W        W88593  25.307   2.671  11.562
16268W        W88594   6.385  20.738   4.682
16269W        W88595  21.687  26.939   1.277
16270W        W88596  38.067  21.175   3.357
16271W        W88597  34.525  20.932  14.954
16272W        W88598  44.500  22.716  12.218
16273W        W88599  10.139  41.011   1.826
16274W        W88600  21.554  43.024   1.602
16275W        W88601  39.755  10.856   3.671
16276W        W88602  28.314   8.445  12.953
16277W        W88603  35.386   4.845   4.519
16278W        W88604  13.878   8.213   3.118
16279W        W88605   9.661   3.825  12.051
16280W        W88606  25.778  19.915   2.346
16281W        W88607  18.077  25.585  13.829
16282W        W88608  22.699  30.618  14.475
16283W        W88609  27.954  33.480   5.163
16284W        W88610  12.437  44.774   4.603
16285W        W88611  21.436  28.437  10.826
16286W        W88612  14.898  21.085  13.464
16287W        W88613   3.244  23.979   2.378
16288W        W88614  30.712  41.902  12.119
16289W        W88615  15.747  40.794   4.618
16290W        W88616   5.906  22.325  13.300
16291W        W88617  11.845  40.480   0.452
16292W        W88618  16.653  22.735   2.763
16293W        W88619  31.182  22.553   4.306
16294W        W88620  30.027  38.815  14.303
16295W        W88621  37.679   2.907  14.343
16296W        W88622   7.716  27.891   4.137
16297W        W88623  42.620  34.691  12.355
16298W        W88624  26.194  31.465  12.057
16299W        W88625  13.080  19.732  14.762
16300W        W88626  31.188  16.248  12.359
16301W        W88627  27.658  42.059   2.797
16302W        W88628  40.828  25.569  13.352
16303W        W88629  27.830   9.363  14.776
16304W        W88630  32.781  23.642  10.710
16305W        W88631  38.012  41.444   1.989
16306W        W88632   7.416  23.088   1.356
16307W        W88633  27.081  12.893   2.384
16308W        W88634  18.652  41.818   0.679
16309W        W88635  42.210   2.976  14.937
16310W        W88636   8.217  15.126  12.996
16311W        W88637  16.802  40.544  13.662
16312W        W88638  44.301  30.519  13.117
16313W        W88639   4.780  33.123   0.267
16314W        W88640  29.124  22.696  11.989
16315W        W88641  32.559   9.944  13.512
16316W        W88642  39.596   1.908   1.894
16317W        W88643   9.804  41.696   1.307
16318W        W88644   6.678  44.261  14.067
16319W        W88645   7.855   4.775   3.144
16320W        W88646   1.938  15.158   2.733
16321W        W88647  15.724   9.343   3.687
16322W        W88648   9.179  19.628   5.210
16323W        W88649   4.494  32.013  10.616
16324W        W88650  30.385  36.963   3.057
16325W        W88651  23.578  14.340   0.777
16326W        W88652   6.262   3.789   1.222
16327W        W88653  23.565  19.598   1.365
16328W        W88654  32.107   0.442  11.947
16329W        W88655  15.387   4.449   0.732
16330W        W88656  19.033  34.930  11.469
16331W        W88657  38.492  12.339   0.309
16332W        W88658  25.052  23.343   2.276
16333W        W88659   9.038  43.850  10.646
16334W        W88660  16.603   2.531  10.754
16335W        W88661  36.650  14.122  12.221
16336W        W88662  42.244  10.651  14.352
16337W        W88663  39.358  14.417  10.413
16338W        W88664  37.857  15.909  11.637
16339W        W88665  15.082  26.096  13.446
16340W        W88666  10.886  43.065  13.538
16341W        W88667  36.041  40.906   2.946
16342W        W88668  42.459  18.661  13.081
16343W        W88669  15.570  34.364  11.418
16344W        W88670  19.598  36.464  14.819
16345W        W88671  31.174  16.554  14.023
16346W        W88672  10.277  16.479   1.451
16347W        W88673  20.813  15.821   3.112
16348W        W88674   9.115  11.596  13.386
16349W        W88675  43.921  23.230   2.056
16350W        W88676  19.105   9.638   4.328
16351W        W88677  36.137   9.168   1.374
16352W        W88678  40.804  19.717   0.004
16353W        W88679  27.906   9.231  13.866
16354W        W88680  35.496  25.004  12.316
16355W        W88681  16.427   6.385   1.830
16356W        W88682  24.396  34.060   4.540
16357W        W88683  30.053  25.168   4.715
16358W        W88684  39.018  17.478  11.058
16359W        W88685  23.686  43.960   3.199
16360W        W88686  32.160   3.192   1.407
16361W        W88687  29.241   7.674  12.518
16362W        W88688  17.891  17.259   1.363
16363W        W88689   0.335  33.520   4.285
16364W        W88690   2.403  38.861   4.061
16365W        W88691  19.079  39.263   2.797
16366W        W88692  42.807  16.352   3.672
16367W        W88693  13.295  23.636   4.850
16368W        W88694   9.116  32.901  14.973
16369W        W88695  43.403  24.982  11.966
16370W        W88696  40.021   8.917  13.579
16371W        W88697  29.644  39.122   5.062
16372W        W88698  41.535   4.295  11.169
16373W        W88699  15.063  22.685   0.774
16374W        W88700  11.693  13.661  12.967
16375W        W88701  12.262   3.029   3.223
16376W        W88702   9.263  14.571  13.423
16377W        W88703  38.816  42.828   1.672
16378W        W88704  14.703  33.023  11.497
16379W        W88705  15.044  18.410  12.136
16380W        W88706  44.470   3.820  12.400
16381W        W88707  15.737  22.221  12.083
16382W        W88708   9.097   7.371  11.691
16383W        W88709  37.728  25.569   0.248
16384W        W88710  41.884  27.118   3.801
16385W        W88711  44.719  14.570   4.469
16386W        W88712  17.807  12.751   4.786
16387W        W88713  39.376  22.204  13.876
16388W        W88714  11.729   5.309  11.931
16389W        W88715  12.871  15.907   4.132
16390W        W88716  39.374  21.019   3.219
16391W        W88717  13.255  26.423   2.854
16392W        W88718  30.045  13.878  11.972
16393W        W88719  26.136  26.713   0.557
16394W        W88720  16.121  27.432  11.003
16395W        W88721  36.989  28.716  11.117
16396W        W88722  37.827  14.508   4.096
16397W        W88723   1.430  41.427   2.820
16398W        W88724  41.687  22.620  12.666
16399W        W88725  13.537   6.599   5.199
16400W        W88726  18.091  22.058  13.851
16401W        W88727  43.456   4.224   2.993
16402W        W88728   2.552  20.294   2.892
16403W        W88729   0.571  33.356   0.806
16404W        W88730   6.215  20.162   0.256
16405W        W88731  29.912  14.824   2.386
16406W        W88732  11.882  32.956   4.734
16407W        W88733  35.421  12.003  13.380
16408W        W88734  39.334   4.118   0.915
16409W        W88735   7.957  10.214   2.777
16410W        W88736  32.695  29.998   2.704
16411W        W88737   5.426  34.635  11.846
16412W        W88738   6.348  20.631  13.388
16413W        W88739  25.950  43.362  10.507
16414W        W88740  28.438  41.813   3.235
16415W        W88741  41.886  26.500  11.603
16416W        W88742   6.949  22.278   1.854
16417W        W88743  33.122  31.581  10.908
16418W        W88744  39.559  21.014  12.177
16419W        W88745  10.726  40.397   1.333
16420W        W88746  40.980  13.811   2.165
16421W        W88747  15.996   9.333  11.401
16422W        W88748   7.832  39.270   3.808
16423W        W88749  37.426  16.135   1.699
16424W        W88750  32.208  22.249   4.870
16425W        W88751  26.570   0.979   2.697
16426W        W88752  35.835  20.093   3.566
16427W        W88753  31.133  34.674  10.602
16428W        W88754  35.974  12.069   0.251
16429W        W88755  20.699  29.462  13.120
16430W        W88756  30.805  10.910   0.877
16431W        W88757  29.690  35.677  14.703
16432W        W88758   5.610   6.284   4.600
16433W        W88759   7.110  14.465   3.291
16434W        W88760  31.431  41.834  10.670
16435W        W88761   1.467  11.611  11.963
16436W        W88762  41.823   8.335  14.486
16437W        W88763   2.386  25.527   4.545
16438W        W88764  10.618   3.296  10.452
16439W        W88765  13.259  27.960   2.715
16440W        W88766  28.998  42.725   3.736
16441W        W88767  28.263  21.266  12.690
16442W        W88768  28.048  19.037   4.493
16443W        W88769  11.682  13.799  10.667
16444W        W88770  32.814  35.448   0.254
16445W        W88771  21.277  11.241   0.726
16446W        W88772  19.769  34.500  10.497
16447W        W88773   0.401  41.739  11.211
16448W        W88774  16.679  26.512  14.887
16449W        W88775  15.670  22.406   2.855
16450W        W88776  40.983  15.305   4.423
16451W        W88777  43.660  36.253  10.851
16452W        W88778  24.594  38.651   0.406
16453W        W88779   7.337  23.972   0.977
16454W        W88780  38.272  39.214   3.996
16455W        W88781  20.931  11.908  13.194
16456W        W88782  28.107  13.984  10.971
16457W        W88783  31.096   7.453   0.961
16458W        W88784  19.145  43.241   3.724
16459W        W88785  34.970  33.814  12.603
16460W        W88786  35.618   4.956   3.236
16461W        W88787   5.234  34.655   4.654
16462W        W88788  24.335  21.516   2.009
16463W        W88789  32.481  29.988  13.939
16464W        W88790  23.908  28.244   2.283
16465W        W88791  17.638   3.472  12.346
16466W        W88792  27.709  30.640   2.241
16467W        W88793  21.257  23.470   3.880
16468W        W88794  39.825  31.386   3.623
16469W        W88795   4.831  44.151  12.584
16470W        W88796  26.446  34.548  13.444
16471W        W88797  26.529  14.881   3.332
16472W        W88798  35.394  39.041   3.652
16473W        W88799  11.274  10.614  14.062
16474W        W88800  37.489  22.739   3.519
16475W        W88801   9.049  11.873   3.683
16476W        W88802  13.234  20.683  14.848
16477W        W88803   5.399  26.542  13.524
16478W        W88804  10.790  18.722  11.978
16479W        W88805  33.856   4.420   3.571
16480W        W88806  13.268  22.503   0.310
16481W        W88807  11.747  31.629  11.607
16482W        W88808   1.760  41.802  10.393
16483W        W88809  35.982  37.525  14.801
16484W        W88810  18.696  40.567   1.172
16485W        W88811  41.231  30.954   0.808
16486W        W88812  10.887  42.490   3.264
16487W        W88813  37.406  36.402   2.362
16488W        W88814  15.876   3.117   2.389
16489W        W88815  37.020  32.971   2.925
16490W        W88816  44.836   3.218  13.982
16491W        W88817  23.718   4.876  11.850
16492W        W88818  19.111   3.355   0.835
16493W        W88819  41.735  28.718   0.757
16494W        W88820  36.390   0.576   4.789
16495W        W88821   7.183  31.567   1.713
16496W        W88822   8.994  26.486   0.949
16497W        W88823  34.890  16.260   1.959
16498W        W88824  42.066   4.527  13.318
16499W        W88825  21.767  23.678  12.391
16500W        W88826  12.365   2.757  14.295
16501W        W88827  21.143  15.683  11.508
16502W        W88828  20.071  18.286  13.450
16503W        W88829  36.441  17.572  13.307
16504W        W88830  34.962   7.209  10.778
16505W        W88831  41.421  24.156   0.291
16506W        W88832  22.587   4.160  10.711
16507W        W88833  35.157  43.333  14.294
16508W        W88834   4.901  10.725   0.276
16509W        W88835  24.721  40.838  12.825
16510W        W88836  32.592   2.768  12.986
16511W        W88837   4.066  31.413   2.625
16512W        W88838  29.774   4.285   3.265
16513W        W88839  38.455  17.760   2.040
16514W        W88840  22.605  12.925  13.539
16515W        W88841  35.319  44.997   4.236
16516W        W88842  17.054  11.267  10.609
16517W        W88843  39.420  36.446   0.756
16518W        W88844  41.817  36.813   0.422
16519W        W88845  24.242   6.388  13.533
16520W        W88846  41.176   0.926   0.513
16521W        W88847  16.592  29.660  12.939
16522W        W88848  10.806  32.924   2.866
16523W        W88849  21.068  25.464   1.597
16524W        W88850  39.327  19.312  11.076
16525W        W88851  15.791  34.536   4.334
16526W        W88852  29.126  25.097   0.367
16527W        W88853  20.878   3.530  13.930
16528W        W88854   6.431  34.867   4.297
16529W        W88855  21.654  41.385   0.936
16530W        W88856  11.088  30.898   3.667
16531W        W88857  41.866   1.556  10.685
16532W        W88858  11.491  37.450   3.164
16533W        W88859  31.146  31.547   3.710
16534W        W88860  12.544  27.995   4.290
16535W        W88861   4.446  28.012   4.649
16536W        W88862  30.597  28.665   1.439
16537W        W88863  32.541   1.647   2.314
16538W        W88864  18.220  21.629  10.744
16539W        W88865  36.630  43.939  12.478
16540W        W88866  44.443  28.666  13.931
16541W        W88867   0.274  12.827   3.533
16542W        W88868   5.797  34.106   0.853
16543W        W88869  42.757   6.132  14.843
16544W        W88870  17.735  25.282   0.315
16545W        W88871  39.721  26.703   1.151
16546W        W88872  39.585  44.652  14.015
16547W        W88873  22.791   6.035   4.234
16548W        W88874  31.197  28.934  12.510
16549W        W88875  11.786   8.400  14.080
16550W        W88876  28.750   9.453  12.356
16551W        W88877   6.206  13.400  11.997
16552W        W88878  12.131  36.004  14.600
16553W        W88879  42.977  28.491   1.604
16554W        W88880  19.729   2.141  12.061
16555W        W88881  44.048  17.620   3.789
16556W        W88882  38.972  23.023  14.045
16557W        W88883  33.975  17.168  11.703
16558W        W88884  21.113  39.117  10.595
16559W        W88885   7.568  44.509  13.849
16560W        W88886  43.129  32.987  14.347
16561W        W88887  14.720  19.053   3.199
16562W        W88888   6.404   9.704   3.582
16563W        W88889   2.655  23.500  14.994
16564W        W88890  14.718  21.720  10.694
16565W        W88891   5.220  42.251  12.493
16566W        W88892  12.719  30.952  14.241
16567W        W88893  18.989  22.953   2.778
16568W        W88894   0.969  20.442   1.711
16569W        W88895  29.589  11.434  10.513
16570W        W88896  27.682  42.276  14.621
16571W        W88897  44.018   1.885   4.328
16572W        W88898  16.806  26.877   1.402
16573W        W88899  30.478  23.772  12.055
16574W        W88900   5.466  19.797   0.883
16575W        W88901  22.121  34.838   0.496
16576W        W88902  33.033   6.186   0.320
16577W        W88903  23.099  42.345   1.034
16578W        W88904  39.109  34.418   4.513
16579W        W88905  25.410  28.693  14.375
16580W        W88906  21.558   3.224   3.733
16581W        W88907  25.222  31.852  13.504
16582W        W88908  10.270  36.832  13.903
16583W        W88909  37.893  36.926   0.043
16584W        W88910   0.879  13.634  11.132
16585W        W88911  10.160  23.571   2.122
16586W        W88912  25.994  16.271   0.949
16587W        W88913   4.905  29.879   1.804
16588W        W88914  42.691  16.838   4.514
16589W        W88915  21.039  20.361   2.971
16590W        W88916  23.581  15.883  10.240
16591W        W88917  41.926  35.830  11.623
16592W        W88918  41.315   3.888   4.055
16593W        W88919  28.215  36.642  11.948
16594W        W88920  15.332  26.664  14.820
16595W        W88921  32.862   1.409   0.286
16596W        W88922  43.970  39.010   1.784
16597W        W88923  40.393  32.692  11.053
16598W        W88924  15.481  27.138  12.517
16599W        W88925   2.571   5.840  13.241
16600W        W88926  26.997  16.086  11.998
16601W        W88927  26.104  18.586  12.355
16602W        W88928   7.319  22.786   3.644
16603W        W88929  43.898  23.563   4.041
16604W        W88930  27.603  39.035  13.347
16605W        W88931  40.898  26.483   0.485
16606W        W88932  28.319  26.158  13.733
16607W        W88933  27.066  13.805  12.385
16608W        W88934   2.457  30.074   3.382
16609W        W88935   7.032   0.851   4.903
16610W        W88936  27.235  44.820  13.088
16611W        W88937  31.333   5.329   2.637
16612W        W88938  14.566  19.585   4.745
16613W        W88939  36.242  21.798   4.521
16614W        W88940  27.684   9.941  13.928
16615W        W88941  16.010  15.056   1.880
16616W        W88942   7.424  26.418  11.820
16617W        W88943  23.600  23.612   3.749
16618W        W88944  15.847  28.484   1.850
16619W        W88945  17.083   4.417   3.630
16620W        W88946  39.822  43.903   2.728
16621W        W88947   9.327   3.920  11.126
16622W        W88948  33.419   3.073   0.817
16623W        W88949  13.306   5.033  13.793
16624W        W88950  17.165  14.833   3.138
16625W        W88951   2.913  13.553   4.503
16626W        W88952  42.807   0.529  11.037
16627W        W88953   9.409   8.323  12.533
16628W        W88954  26.686  18.173   4.299
16629W        W88955  10.874  34.009   2.956
16630W        W88956  16.999  22.154   4.060
16631W        W88957  29.019  10.404  10.870
16632W        W88958  19.770  32.894  13.551
16633W        W88959  23.480  42.881   2.846
16634W        W88960  16.311  39.536  12.516
16635W        W88961  38.927   6.932   3.886
16636W        W88962  34.940  31.481  12.074
16637W        W88963  15.453  10.700  12.183
16638W        W88964   5.501  43.362   3.591
16639W        W88965  20.034  22.019  12.026
16640W        W88966  27.262  31.935  12.325
16641W        W88967  43.143  39.033  11.967
16642W        W88968   0.993  40.437   5.140
16643W        W88969   8.645  17.353  11.505
16644W        W88970   5.155  15.064  12.053
16645W        W88971   0.498  28.978  11.442
16646W        W88972  41.497  29.169   0.303
16647W        W88973   3.150  40.756  12.558
16648W        W88974   4.785  20.804  13.641
16649W        W88975  44.868  33.944   3.815
16650W        W88976  32.640  17.317   2.759
16651W        W88977  10.189  26.225   1.859
16652W        W88978   9.715   9.794   1.215
16653W        W88979  37.073  19.060  11.467
16654W        W88980  44.436  29.208  13.879
16655W        W88981  24.730  21.134  10.381
16656W        W88982   6.740  31.394   4.445
16657W        W88983  20.023  26.507  11.317
16658W        W88984  35.433   3.181   3.699
16659W        W88985  15.740  22.505  10.723
16660W        W88986  17.252   8.085   2.716
16661W        W88987  25.613  30.724   2.507
16662W        W88988   8.324   9.913  14.244
16663W        W88989  11.887  12.713   0.365
16664W        W88990   2.868  19.093   4.714
16665W        W88991  13.871   0.125  11.578
16666W        W88992  44.412  23.302  13.018
16667W        W88993  12.324  15.572  12.187
16668W        W88994  11.588  33.562  11.046
16669W        W88995  31.587  13.213  13.556
16670W        W88996  33.758  43.337   1.316
16671W        W88997  11.230  35.933  14.388
16672W        W88998   2.374   9.374   0.834
16673W        W88999  38.896  36.417   4.568
16674W        W89000  30.803  10.568  14.805
16675W        W89001  17.730  27.146   0.628
16676W        W89002  29.845   8.196  12.034
16677W        W89003  29.269   5.749   5.053
16678W        W89004  14.738  18.061   3.215
16679W        W89005   1.876  42.945   3.649
16680W        W89006  43.752  28.132   3.256
16681W        W89007  36.972  30.030  10.695
16682W        W89008  18.988   2.208   1.400
16683W        W89009   9.190  16.730  12.847
16684W        W89010  35.764  37.907   3.626
16685W        W89011  39.521  38.135  11.572
16686W        W89012  33.913   0.654  10.897
16687W        W89013  40.007  25.428   0.509
16688W        W89014  15.225   5.224  12.955
16689W        W89015  32.970  13.253   4.229
16690W        W89016  19.587  40.841  10.813
16691W        W89017  14.519  12.652   3.725
16692W        W89018  11.679  44.252  11.740
16693W        W89019   8.982  20.093   0.760
16694W        W89020  25.180   9.402  10.587
16695W        W89021  26.515   1.841   4.473
16696W        W89022  24.938  38.402  10.463
16697W        W89023  29.071  14.695  14.838
16698W        W89024  37.743  13.871   0.016
16699W        W89025  29.700  35.891   3.433
16700W        W89026  24.545  17.150  10.696
16701W        W89027  12.927  33.487  11.958
16702W        W89028   9.068   8.342  12.095
16703W        W89029   5.454  27.420  14.485
16704W        W89030  36.110  10.200  13.486
16705W        W89031   4.423  20.157   2.257
16706W        W89032  17.886  27.063   2.415
16707W        W89033  37.736  24.476  14.459
16708W        W89034  42.935  22.120  10.625
16709W        W89035  34.708   8.983   4.106
16710W        W89036  13.713  36.969   3.707
16711W        W89037  25.396  15.760  13.939
16712W        W89038  31.400   8.922   1.884
16713W        W89039  23.114  11.642   4.535
16714W        W89040  37.336  37.951   3.896
16715W        W89041  14.273  43.914  11.768
16716W        W89042  39.396  27.403  11.971
16717W        W89043  26.991  35.409   2.847
16718W        W89044  25.417   3.264   3.449
16719W        W89045  38.119   2.500  12.160
16720W        W89046  17.263  40.428  12.327
16721W        W89047  15.220  34.400   5.142
16722W        W89048  15.969   1.321  11.995
16723W        W89049  11.733  33.959  11.553
16724W        W89050   5.432  14.144   3.864
16725W        W89051  41.556  26.084  11.615
16726W        W89052  14.153   3.911   0.462
16727W        W89053  11.878   8.848   4.552
16728W        W89054  36.045  23.211   2.238
16729W        W89055  13.318  19.042   1.259
16730W        W89056  18.217   9.727   0.844
16731W        W89057   4.927  27.658   3.297
16732W        W89058  30.613   6.453  14.378
16733W        W89059  28.597  34.544   2.161
16734W        W89060  27.006   3.137   0.753
16735W        W89061  24.196   7.202  14.947
16736W        W89062   0.328  18.300  14.942
16737W        W89063  19.660  34.024  10.725
16738W        W89064   4.156   6.135   3.132
16739W        W89065  28.706  32.176  12.283
16740W        W89066  14.958  20.188  10.997
16741W        W89067   7.393  11.842  13.634
16742W        W89068   8.216   7.674   0.986
16743W        W89069   3.662   3.489   1.398
16744W        W89070   4.478  36.461   0.526
16745W        W89071   9.934  12.728   1.447
16746W        W89072  37.252  40.165   2.235
16747W        W89073  32.176  24.161   0.801
16748W        W89074  31.939  17.753  11.351
16749W        W89075  15.442  34.891   5.130
16750W        W89076  13.853  19.622  13.442
16751W        W89077  24.466  42.268  13.864
16752W        W89078  12.255  28.902   2.301
16753W        W89079  19.791  26.706   4.262
16754W        W89080  19.530  31.242   0.391
16755W        W89081  44.923   3.565  11.512
16756W        W89082  12.810   0.768   1.161
16757W        W89083   1.928  35.163  11.923
16758W        W89084   4.660  38.635   1.998
16759W        W89085  44.258  41.827   2.773
16760W        W89086  23.763   6.285   4.662
16761W        W89087  29.175  16.443  14.520
16762W        W89088  42.032  18.146  14.291
16763W        W89089  42.829  35.661  12.560
16764W        W89090   9.410  40.424  11.185
16765W        W89091  43.075  40.884  12.068
16766W        W89092   5.951  38.021   0.989
16767W        W89093  36.286   7.427  11.892
16768W        W89094  20.173  32.403  13.057
16769W        W89095  22.421  28.276  11.225
16770W        W89096  35.103  40.372   3.193
16771W        W89097  11.880  26.660   2.803
16772W        W89098  35.274  26.531  14.461
16773W        W89099  21.888  39.273   0.534
16774W        W89100  37.280   8.113   0.711
16775W        W89101  27.205  28.574  14.129
16776W        W89102  20.487   2.264  12.502
16777W        W89103   8.862  41.078  10.672
16778W        W89104   1.900  44.018   2.738
16779W        W89105  44.425  23.518   2.293
16780W        W89106  39.919  32.997  10.272
16781W        W89107  24.533   7.830   0.670
16782W        W89108  38.401  35.629   0.494
16783W        W89109  42.645   1.144   4.989
16784W        W89110  11.030  42.149  12.539
16785W        W89111  22.270   2.769   2.423
16786W        W89112   1.346  21.764   4.177
16787W        W89113  40.433  14.354   0.807
16788W        W89114  44.678  10.041   2.298
16789W        W89115  41.452   5.904   4.522
16790W        W89116  17.272  43.085  11.245
16791W        W89117  44.955  14.784  14.500
16792W        W89118  23.155  43.338  14.559
16793W        W89119  25.106  26.161   4.268
16794W        W89120  43.407  32.522   0.470
16795W        W89121  14.130   8.643   3.253
16796W        W89122  16.919   9.700  14.102
16797W        W89123  28.106  38.348   4.016
16798W        W89124   6.934   9.090   0.781
16799W        W89125  20.406  17.199   2.808
16800W        W89126   0.469  26.508   4.665
16801W        W89127  43.243  15.268  14.095
16802W        W89128  32.485  40.838  12.399
16803W        W89129  33.850  23.550  12.679
16804W        W89130  19.068  42.320   3.850
16805W        W89131  22.751  14.106   0.240
16806W        W89132   3.818  35.422   4.325
16807W        W89133  38.065   7.923   4.076
16808W        W89134  15.190  21.052   0.744
16809W        W89135  37.982  27.447   4.021
16810W        W89136  11.263   8.209  10.440
16811W        W89137  20.799  29.888   0.428
16812W        W89138   3.038  11.785  13.724
16813W        W89139   6.451   5.404   1.881
16814W        W89140  10.459  32.836  10.349
16815W        W89141  27.150  35.704  14.934
16816W        W89142  10.460  23.685   4.289
16817W        W89143   7.556  20.546  14.108
16818W        W89144  41.038  30.560  13.981
16819W        W89145  18.992  14.670   2.829
16820W        W89146  30.380  44.440  14.749
16821W        W89147  23.032   7.791  14.283
16822W        W89148  16.611  16.566  11.887
16823W        W89149   8.164  42.912   4.364
16824W        W89150   7.745  43.979   2.165
16825W        W89151  29.401   2.667   2.236
16826W        W89152  40.068  32.047  12.469
16827W        W89153  30.440  35.576  13.845
16828W        W89154  21.132  25.921  13.829
16829W        W89155  44.405  22.640   0.759
16830W        W89156  11.396  20.107   2.273
16831W        W89157  18.691  22.837  10.617
16832W        W89158  28.504   2.517   3.638
16833W        W89159  37.100  21.094  12.535
16834W        W89160   0.818  30.048  12.053
16835W        W89161   0.279   5.244   4.099
16836W        W89162  36.541   7.270  13.214
16837W        W89163   8.220  29.833  11.132
16838W        W89164  20.157  24.990  11.204
16839W        W89165  20.984  36.542   1.755
16840W        W89166   7.652   3.174  12.532
16841W        W89167   8.862  15.095  12.258
16842W        W89168  24.143  22.018   0.515
16843W        W89169  27.519  40.046  13.404
16844W        W89170   1.897  20.242   1.705
16845W        W89171  15.099  19.037   0.752
16846W        W89172  36.916   8.128  12.169
16847W        W89173  20.797   1.644  10.449
16848W        W89174  29.903  36.472  13.440
16849W        W89175  34.274  15.995  14.414
16850W        W89176   9.925  10.599   3.666
16851W        W89177  15.505  15.662  11.215
16852W        W89178  44.442  29.389   1.331
16853W        W89179  14.433   5.122  12.037
16854W        W89180  23.488   6.551   1.291
16855W        W89181  14.079   2.318   4.491
16856W        W89182  13.770  35.777  11.609
16857W        W89183   9.473  18.091  14.726
16858W        W89184  35.913   7.847   0.902
16859W        W89185  40.318  31.058  11.138
16860W        W89186  11.352  31.163   1.001
16861W        W89187  38.896  39.451  13.986
16862W        W89188  37.026  38.801   4.374
16863W        W89189  22.195   0.639   2.204
16864W        W89190  44.062  33.009   3.139
16865W        W89191   3.442  27.525   0.123
16866W        W89192  10.641  29.065  12.583
16867W        W89193   9.554  14.362   3.517
16868W        W89194   2.412   4.327   4.623
16869W        W89195  22.977  15.551  10.819
16870W        W89196   1.757  11.235   2.606
16871W        W89197  23.376  21.076   2.719
16872W        W89198   8.266   4.948   2.370
16873W        W89199  37.001  44.320  11.836
16874W        W89200  12.812  35.524   3.206
16875W        W89201   9.086  24.276   4.236
16876W        W89202   4.727  39.307   4.092
16877W        W89203   8.362  35.589   2.104
16878W        W89204  20.315  41.328   4.991
16879W        W89205  39.911  39.340  14.302
16880W        W89206  22.014  23.221  12.552
16881W        W89207  34.206  20.218   0.564
16882W        W89208   7.075  10.656  11.510
16883W        W89209   1.305   7.707   1.836
16884W        W89210  33.867  10.110   2.386
16885W        W89211   9.309   3.955  11.622
16886W        W89212   4.858   9.752  14.364
16887W        W89213   9.298  30.440   1.465
16888W        W89214  24.452   2.292   0.561
16889W        W89215  23.057  30.405  10.722
16890W        W89216  40.250  33.452  14.929
16891W        W89217  13.055  40.947  14.716
16892W        W89218   7.438  12.241  14.278
16893W        W89219  25.235  38.715  13.380
16894W        W89220  29.514  25.500  13.777
16895W        W89221  26.678  23.201   1.872
16896W        W89222   1.235  12.707  12.990
16897W        W89223  21.257  12.522  13.684
16898W        W89224  30.235  34.390   1.685
16899W        W89225  22.473  30.848  11.175
16900W        W89226  27.243   3.273   1.195
16901W        W89227   2.404   7.177   1.213
16902W        W89228   5.019  26.387  12.138
16903W        W89229  35.814  17.437  10.781
16904W        W89230   3.005  11.279  10.690
16905W        W89231  21.799  38.571  14.945
16906W        W89232  36.023  28.908   4.368
16907W        W89233  33.377  41.325  14.365
16908W        W89234  28.398  43.895  13.143
16909W        W89235  37.733   1.257   0.766
16910W        W89236  12.904  41.172  10.823
16911W        W89237  11.234  16.250  11.467
16912W        W89238  22.559   3.367   3.330
16913W        W89239  30.969  21.830  14.504
16914W        W89240  13.084  25.648   3.095
16915W        W89241  31.921  31.098  13.398
16916W        W89242  39.567  39.522  14.694
16917W        W89243   9.261  37.689  12.923
16918W        W89244  43.556  15.273   1.882
16919W        W89245  17.923  33.457  13.440
16920W        W89246  20.129  11.072  11.229
16921W        W89247  15.649  42.317  12.502
16922W        W89248  35.941  27.202  14.920
16923W        W89249  42.596  33.465  12.855
16924W        W89250  12.727  29.634   4.664
16925W        W89251   2.765   0.818   1.844
16926W        W89252  21.355  15.202   3.152
16927W        W89253  32.428  28.238  14.951
16928W        W89254   3.726  21.225   2.245
16929W        W89255  44.379  29.674   4.431
16930W        W89256  35.110  24.670  12.096
16931W        W89257   6.736  19.524   3.728
16932W        W89258  26.004  44.978   4.799
16933W        W89259  34.231  10.017  14.359
16934W        W89260   8.481  33.389  11.118
16935W        W89261  38.568  20.743  11.038
16936W        W89262   4.782  22.103   2.358
16937W        W89263   1.986  43.522  13.981
16938W        W89264  36.474  26.520   2.391
16939W        W89265   2.698  19.817   2.797
16940W        W89266  26.613   2.279  13.082
16941W        W89267  22.363  44.679   3.352
16942W        W89268   1.863  36.479   4.293
16943W        W89269  34.444  38.375   0.302
16944W        W89270   1.408  11.771  11.470
16945W        W89271  29.958  31.765   0.001
16946W        W89272  26.501  15.324  10.147
16947W        W89273  15.639  15.150  11.171
16948W        W89274  10.382   6.273   3.721
16949W        W89275  13.211  18.816  14.261
16950W        W89276  27.224  17.043   1.909
16951W        W89277   2.135  29.709   1.787
16952W        W89278  29.518  42.662  11.557
16953W        W89279  18.877  42.063  14.717
16954W        W89280  19.301  18.958   1.221
16955W        W89281  28.882  29.039   4.707
16956W        W89282  20.643   5.153  12.047
16957W        W89283   0.336   9.743   2.772
16958W        W89284  17.745  10.846  12.534
16959W        W89285  42.975  40.562   4.986
16960W        W89286  36.501  18.563   2.083
16961W        W89287  28.128  18.132  11.122
16962W        W89288  14.338   2.451  12.440
16963W        W89289   9.276   4.912  12.553
16964W        W89290   6.210  23.007  12.131
16965W        W89291  29.646  33.021   2.938
16966W        W89292  31.082  29.627   2.326
16967W        W89293  16.569  44.566   0.445
16968W        W89294  26.506  11.188   4.703
16969W        W89295  13.370  36.445   9.759
16970W        W89296  34.998  28.291  12.902
16971W        W89297  18.194  39.579  10.654
16972W        W89298  29.022   3.887  14.624
16973W        W89299  39.774   8.306   1.867
16974W        W89300  21.787   0.887   0.885
16975W        W89301   5.713  12.799  13.009
16976W        W89302  10.879  21.984   3.210
16977W        W89303  29.669  39.861  11.511
16978W        W89304   7.448  10.298   2.708
16979W        W89305  33.781   6.106  10.244
16980W        W89306  22.504  41.031   3.722
16981W        W89307  13.664   0.525   2.215
16982W        W89308  15.670  38.468  13.792
16983W        W89309  36.900  20.712   1.411
16984W        W89310  27.822   0.678  11.959
16985W        W89311  38.933  37.710  10.143
16986W        W89312  41.856  16.230   3.726
16987W        W89313  38.562  25.248   3.789
16988W        W89314   3.229  38.295  12.136
16989W        W89315  36.179   3.133  12.502
16990W        W89316   4.114  33.472   4.128
16991W        W89317  16.349  39.581  13.342
16992W        W89318  12.106  21.275  10.737
16993W        W89319   8.077  38.098   0.683
16994W        W89320  15.175  26.225   3.702
16995W        W89321  20.112   8.550  12.301
16996W        W89322  11.197  32.394  10.716
16997W        W89323  34.274  37.466   3.302
16998W        W89324  39.248  33.862   2.365
16999W        W89325  35.376  19.080  14.342
17000W        W89326  36.775  38.553   2.674
17001W        W89327  24.234   7.258  14.014
17002W        W89328   5.285  43.321  13.532
17003W        W89329  27.072  39.416   3.294
17004W        W89330  30.210   0.416  13.025
17005W        W89331  31.902  35.597  10.905
17006W        W89332   3.279   9.484  10.259
17007W        W89333   0.802  24.173   1.930
17008W        W89334   1.441  40.430  13.782
17009W        W89335  29.123   3.898  12.109
17010W        W89336  36.521  28.033   2.842
17011W        W89337  14.725  13.066   3.504
17012W        W89338  19.921  11.339   3.763
17013W        W89339   5.950   8.394  13.465
17014W        W89340  10.319  36.533   4.211
17015W        W89341  22.480  10.521   1.503
17016W        W89342  29.409  24.378   1.951
17017W        W89343  24.617  12.335  10.541
17018W        W89344  41.069  42.533  14.240
17019W        W89345  16.055  14.251  13.392
17020W        W89346   0.298  26.631  11.537
17021W        W89347  35.979  36.929  14.352
17022W        W89348  10.614   5.987   2.840
17023W        W89349  29.153  23.527   4.612
17024W        W89350  11.859  25.762   1.708
17025W        W89351   3.130  15.775  10.009
17026W        W89352   2.880  19.696  13.080
17027W        W89353  17.185   3.194  12.938
17028W        W89354  17.075  15.619   0.412
17029W        W89355  12.202  13.113   0.419
17030W        W89356   7.379  24.937  11.121
17031W        W89357   5.219  38.935  11.206
17032W        W89358  41.891  20.254   2.300
17033W        W89359  27.998  33.852   1.138
17034W        W89360   6.925  23.919   0.289
17035W        W89361  36.602  18.590   3.613
17036W        W89362  38.792  33.958   3.647
17037W        W89363  23.793  11.926  11.518
17038W        W89364   1.705  40.523  10.972
17039W        W89365  31.593  23.844   0.224
17040W        W89366  39.910  18.211  11.448
17041W        W89367  42.780  15.154  11.092
17042W        W89368  37.785  42.307  13.484
17043W        W89369  42.112  31.513   2.733
17044W        W89370   4.420  21.312   1.805
17045W        W89371  37.304  28.212   4.197
17046W        W89372  34.025  39.034   1.267
17047W        W89373  40.416  18.747  14.322
17048W        W89374  19.709  26.539  10.594
17049W        W89375  16.565  30.054  14.329
17050W        W89376  30.341  32.478   2.271
17051W        W89377  29.593  16.056   0.758
17052W        W89378  39.541  33.615  14.168
17053W        W89379   9.666   5.671  13.474
17054W        W89380  23.523  11.965   4.464
17055W        W89381  40.739   6.302  10.976
17056W        W89382  20.471  43.773  10.598
17057W        W89383  41.661  32.003   4.560
17058W        W89384   4.598  13.952   9.944
17059W        W89385   6.338  41.804   0.758
17060W        W89386   0.920   7.727  12.083
17061W        W89387  42.812  27.462  14.977
17062W        W89388  44.241  33.535   1.372
17063W        W89389  20.058  29.439   4.014
17064W        W89390  36.373  39.317   2.516
17065W        W89391  21.476  35.445   1.736
17066W        W89392  39.535  44.898   0.880
17067W        W89393  14.340  28.390   1.868
17068W        W89394  14.275  14.213   2.832
17069W        W89395   1.004   9.839  13.382
17070W        W89396  37.450  25.843   5.026
17071W        W89397  29.180   6.652  11.219
17072W        W89398   1.890  10.117   3.196
17073W        W89399  12.833   3.864   3.700
17074W        W89400   1.986   4.735   5.134
17075W        W89401   7.815  11.213   1.667
17076W        W89402  18.629  26.647   0.891
17077W        W89403  36.985  11.662   3.860
17078W        W89404  26.235  15.248   5.548
17079W        W89405  11.599  23.999   4.812
17080W        W89406  14.993  37.294   3.914
17081W        W89407  35.449   4.266  11.205
17082W        W89408  16.801  18.506  11.118
17083W        W89409  12.672   6.332   4.136
17084W        W89410  13.105  34.139   1.264
17085W        W89411  32.305  43.711  14.861
17086W        W89412  16.714  21.643   1.664
17087W        W89413  19.115  40.672  12.800
17088W        W89414  13.509   4.252  11.893
17089W        W89415  38.813  25.242  14.829
17090W        W89416  29.086  37.318   2.950
17091W        W89417  26.703  21.863   4.821
17092W        W89418  27.942  35.125  12.952
17093W        W89419  37.390  30.337  11.976
17094W        W89420  21.576  38.584   5.386
17095W        W89421   2.487  43.263  11.735
17096W        W89422  44.459  31.932  11.625
17097W        W89423  15.341  37.309  11.544
17098W        W89424  36.994  13.312  12.563
17099W        W89425   5.161   1.955   3.187
17100W        W89426   3.763  36.617  11.535
17101W        W89427  36.861  34.931  12.475
17102W        W89428  19.071  11.692   2.822
17103W        W89429  11.719   2.967   3.837
17104W        W89430  17.426  26.592  13.609
17105W        W89431  38.988  36.562  10.430
17106W        W89432  11.597  34.332  12.343
17107W        W89433  41.408  35.049   4.743
17108W        W89434  43.517  25.392  11.065
17109W        W89435  28.536   8.310   2.544
17110W        W89436  28.118  12.957  12.299
17111W        W89437  38.352   4.099  13.972
17112W        W89438  31.138   8.809  10.081
17113W        W89439  21.011  21.120   3.262
17114W        W89440  36.578  36.932  13.523
17115W        W89441   6.648  25.640   1.932
17116W        W89442  39.115  21.760  13.780
17117W        W89443  37.293  24.182  14.851
17118W        W89444  25.185  31.622  14.334
17119W        W89445  14.667  13.297  12.010
17120W        W89446   8.402  12.932   4.207
17121W        W89447  26.690  14.575   3.769
17122W        W89448  22.639  34.103   1.995
17123W        W89449  26.517  10.250  12.409
17124W        W89450  21.129  25.534   3.146
17125W        W89451  17.529  10.405  11.109
17126W        W89452  15.132   9.013  12.612
17127W        W89453  15.569  27.499   0.247
17128W        W89454   8.691  35.133   3.631
17129W        W89455  30.209  29.157   3.272
17130W        W89456   3.905  35.381  13.047
17131W        W89457  12.819  34.079   2.213
17132W        W89458  41.384   1.776   4.204
17133W        W89459   8.271  10.610   4.527
17134W        W89460  19.981  27.126   4.046
17135W        W89461  38.668  27.534   2.279
17136W        W89462   8.463   9.332   2.954
17137W        W89463  17.304  24.706   1.278
17138W        W89464  32.559   6.145  13.366
17139W        W89465  42.284  12.710   3.726
17140W        W89466   3.330  36.030   3.117
17141W        W89467   3.706  26.776   4.218
17142W        W89468  41.606   9.547  12.092
17143W        W89469  29.688  28.482   1.861
17144W        W89470   8.348  17.069   3.686
17145W        W89471  17.781  26.042  11.335
17146W        W89472  14.279  27.583  11.095
17147W        W89473  22.247  23.238  13.043
17148W        W89474   1.497  16.783  13.459
17149W        W89475  27.693   2.579   4.130
17150W        W89476  30.588  41.260   0.728
17151W        W89477  19.682  38.423   1.921
17152W        W89478  38.519  26.679  11.137
17153W        W89479  32.086  44.719   1.682
17154W        W89480  18.370  29.480   4.251
17155W        W89481  11.805  44.735  13.483
17156W        W89482  18.269  28.565  12.945
17157W        W89483  17.044  27.500  11.210
17158W        W89484  43.521  40.834   1.243
17159W        W89485  13.104  32.858  12.542
17160W        W89486  11.233  27.728   0.402
17161W        W89487  37.998  22.551   0.736
17162W        W89488  28.953  10.790   0.825
17163W        W89489   2.316  26.675  14.094
17164W        W89490  40.438  36.915  11.543
17165W        W89491  16.985  37.014  11.316
17166W        W89492   4.853  33.144  14.360
17167W        W89493  22.152  30.071  12.034
17168W        W89494   1.209  38.104   2.914
17169W        W89495   5.877  27.419  12.295
17170W        W89496  43.032  43.754   3.717
17171W        W89497  30.382  32.097  14.955
17172W        W89498  36.560  35.762  11.557
17173W        W89499   1.236  13.563   2.126
17174W        W89500  27.211  24.187  13.086
17175W        W89501  39.033  35.318   2.286
17176W        W89502  36.306  28.551   0.780
17177W        W89503  27.636  30.913   1.002
17178W        W89504  26.185  41.888  11.003
17179W        W89505  39.816  26.573  14.804
17180W        W89506   0.791  25.138  14.240
17181W        W89507  44.909   7.912   2.842
17182W        W89508  42.034  43.755   3.672
17183W        W89509   9.311  33.247  11.074
17184W        W89510  30.714   2.902   2.800
17185W        W89511  34.512  35.887  10.544
17186W        W89512   0.256  23.046  13.290
17187W        W89513  17.130  32.134   4.746
17188W        W89514  20.870  43.864   2.162
17189W        W89515  33.648   7.734   3.004
17190W        W89516  29.685   0.281   2.593
17191W        W89517  30.112  34.555  10.674
17192W        W89518  23.336  17.370  10.045
17193W        W89519   9.899   1.683   4.847
17194W        W89520  32.463  20.020  13.581
17195W        W89521  10.825  40.546   0.275
17196W        W89522  18.710  34.395   0.810
17197W        W89523  22.183  22.965   4.081
17198W        W89524  15.157   8.401  12.456
17199W        W89525   4.230   8.435  12.463
17200W        W89526  40.741  29.690   2.303
17201W        W89527  30.752  29.175   1.187
17202W        W89528  32.110  14.299  12.336
17203W        W89529  17.331   7.068  11.145
17204W        W89530  41.570   7.347   0.901
17205W        W89531  39.057  10.405  10.698
17206W        W89532  41.552  10.127   0.974
17207W        W89533  41.008  22.100   4.356
17208W        W89534  11.772  42.229   0.277
17209W        W89535  13.045  11.229   1.818
17210W        W89536  34.106   5.738  10.660
17211W        W89537  38.845  23.565  10.685
17212W        W89538   6.208  39.851   2.640
17213W        W89539  13.883   6.133  14.917
17214W        W89540   0.837  22.381   1.829
17215W        W89541  30.674  16.276  12.402
17216W        W89542  32.570   2.485  12.550
17217W        W89543   4.950  34.362   3.453
17218W        W89544   3.801   3.718  10.739
17219W        W89545  16.255   3.088   3.332
17220W        W89546   1.907  11.118   3.623
17221W        W89547  36.661  32.258  13.786
17222W        W89548  43.963  17.162  13.292
17223W        W89549  25.094  30.421   0.858
17224W        W89550   1.710  36.101   0.440
17225W        W89551   5.420   7.068  14.365
17226W        W89552   8.228  19.936   2.815
17227W        W89553  23.400  32.334   3.272
17228W        W89554   7.409  37.857   2.839
17229W        W89555  31.837   6.404   4.204
17230W        W89556   4.020  18.080  12.681
17231W        W89557  38.104  15.747   3.533
17232W        W89558  13.201  27.100   1.279
17233W        W89559   4.398  34.678   2.781
17234W        W89560   7.164  27.160   0.851
17235W        W89561  10.714  24.533  14.434
17236W        W89562  21.202  31.994  11.262
17237W        W89563  23.983  37.955   3.735
17238W        W89564   5.093  25.204   1.737
17239W        W89565  38.813  40.985   2.308
17240W        W89566  27.113  30.229   3.449
17241W        W89567  35.312  36.148  11.671
17242W        W89568  21.357   6.654   5.183
17243W        W89569  13.021  17.760  12.566
17244W        W89570  20.789  14.128   0.443
17245W        W89571  25.894  20.497  14.869
17246W        W89572  20.556  25.536  12.120
17247W        W89573  21.647  17.298  10.873
17248W        W89574  33.511  38.853  13.440
17249W        W89575   4.514   4.274  13.183
17250W        W89576  38.027  42.446  11.965
17251W        W89577  42.801   5.946   0.943
17252W        W89578  28.676  22.977   4.119
17253W        W89579  32.616  10.439   1.239
17254W        W89580  38.878  20.218   4.170
17255W        W89581  39.853  31.600  12.275
17256W        W89582  41.698  30.233   2.785
17257W        W89583   5.181  12.279  11.648
17258W        W89584  42.830  20.501  13.831
17259W        W89585   2.754   9.883  14.993
17260W        W89586  16.198   4.758  12.960
17261W        W89587   6.169  35.430   2.664
17262W        W89588  10.883   9.710   2.194
17263W        W89589  31.383  21.056  10.391
17264W        W89590  33.454  24.086  12.915
17265W        W89591  24.565  21.605  10.604
17266W        W89592  25.073  10.227   2.297
17267W        W89593  11.536  43.274  11.871
17268W        W89594   1.338  38.389   1.918
17269W        W89595  19.617  39.867   2.842
17270W        W89596  38.476   7.402  11.646
17271W        W89597  15.566   9.172  11.933
17272W        W89598   8.229   0.834  11.430
17273W        W89599  44.702  44.917  10.646
17274W        W89600  26.593  23.727  11.990
17275W        W89601  21.021   8.658   3.923
17276W        W89602  26.951   6.730  14.052
17277W        W89603  13.328  33.354   3.292
17278W        W89604  28.511   7.672  11.846
17279W        W89605  18.996  22.036   4.274
17280W        W89606   5.421  25.300  13.060
17281W        W89607   7.717  30.423  10.595
17282W        W89608  19.011  20.201   2.235
17283W        W89609  25.697  36.052  11.195
17284W        W89610  37.908  32.116   0.243
17285W        W89611  19.014  38.433   4.670
17286W        W89612  37.033  41.808   2.856
17287W        W89613   2.912  29.568  13.757
17288W        W89614  14.238  32.389   2.708
17289W        W89615  30.735  43.986   0.375
17290W        W89616  44.117  41.687   0.458
17291W        W89617  35.373  12.665  12.053
17292W        W89618  34.136  28.712  13.127
17293W        W89619  22.732  41.061   1.188
17294W        W89620  30.222  11.167  12.444
17295W        W89621  41.195   0.773  14.977
17296W        W89622   2.230  13.742  12.973
17297W        W89623  21.286   4.949  13.959
17298W        W89624  32.066  42.913  13.005
17299W        W89625  39.972  28.420  13.444
17300W        W89626  36.531  29.497  14.652
17301W        W89627  28.394   3.325   4.109
17302W        W89628  43.219  19.105   1.812
17303W        W89629   6.888  14.242   3.750
17304W        W89630  22.229  23.736  13.281
17305W        W89631  22.771  43.914  11.247
17306W        W89632  33.066  10.137  12.309
17307W        W89633  42.832   7.423  14.473
17308W        W89634  26.100  13.788  14.075
17309W        W89635  37.989  19.658   2.343
17310W        W89636  32.477  44.827  11.630
17311W        W89637  29.652   5.648  11.446
17312W        W89638  41.249  17.323   1.163
17313W        W89639   0.202  28.618  11.639
17314W        W89640   5.835   8.055   3.571
17315W        W89641  32.676  34.243   1.001
17316W        W89642  32.639  42.061  11.033
17317W        W89643  27.515  13.663   2.219
17318W        W89644  37.908  27.121  14.424
17319W        W89645  36.776  25.264  12.562
17320W        W89646  31.359  40.129  13.583
17321W        W89647   5.905  36.331  13.395
17322W        W89648  19.070  41.505   0.102
17323W        W89649  18.335  10.802  12.544
17324W        W89650  15.491  20.150   1.984
17325W        W89651  24.475  22.579   3.843
17326W        W89652  11.501  12.529   2.524
17327W        W89653  39.139   9.654  14.006
17328W        W89654   6.850   8.710   4.221
17329W        W89655   7.355   1.716  12.994
17330W        W89656  25.198  31.825   4.287
17331W        W89657  38.603  25.672  12.897
17332W        W89658  29.072   0.665  13.386
17333W        W89659   5.816   1.797  14.785
17334W        W89660  27.041  19.950   4.637
17335W        W89661  39.844  32.002   0.461
17336W        W89662  19.291  22.119   5.011
17337W        W89663  17.238  16.366   2.333
17338W        W89664   5.697   6.976  13.922
17339W        W89665  18.626   1.441   2.371
17340W        W89666  25.007   8.832  14.778
17341W        W89667  12.875  38.033  13.021
17342W        W89668  22.456  39.703  11.917
17343W        W89669  31.066  30.672  12.245
17344W        W89670  43.167  41.498   4.566
17345W        W89671  18.083  15.579  10.963
17346W        W89672  19.008   4.610   4.704
17347W        W89673  37.494  43.573   4.045
17348W        W89674  38.340  40.346  13.892
17349W        W89675  19.772   6.666   1.334
17350W        W89676  19.827   1.703  14.928
17351W        W89677  32.258  40.752  12.887
17352W        W89678  20.243  13.693   4.354
17353W        W89679  38.957  35.130   3.217
17354W        W89680   0.533  39.549  12.605
17355W        W89681  18.247   6.938   3.816
17356W        W89682  22.219  23.172  11.152
17357W        W89683   5.685  15.572   2.702
17358W        W89684  34.651   1.755  10.358
17359W        W89685  38.795  11.778   2.810
17360W        W89686  17.133  25.621  11.988
17361W        W89687   5.882   2.073   2.703
17362W        W89688  31.179  37.492  12.958
17363W        W89689  39.375   9.936   2.187
17364W        W89690   6.950   7.206   1.653
17365W        W89691  15.699  36.384   3.131
17366W        W89692   2.733  22.890  14.018
17367W        W89693  14.858  16.139   0.960
17368W        W89694  15.404  26.099  11.130
17369W        W89695  38.074  16.602   3.315
17370W        W89696  35.068  38.428  14.048
17371W        W89697   0.635  15.262   4.738
17372W        W89698   6.740  11.106  10.859
17373W        W89699  14.561  39.966   1.002
17374W        W89700  16.676   8.238  11.503
17375W        W89701  41.105   7.482   3.709
17376W        W89702  21.294  17.786  13.410
17377W        W89703  40.812  42.452  12.903
17378W        W89704  29.494  22.651  14.494
17379W        W89705   9.410  36.437  12.619
17380W        W89706  41.746  13.720   1.502
17381W        W89707  42.883   5.157  14.402
17382W        W89708   8.386  43.280   3.661
17383W        W89709  17.637  24.065   2.274
17384W        W89710  38.895   7.914   1.751
17385W        W89711  12.786  24.624  12.385
17386W        W89712  33.644  32.551  13.995
17387W        W89713   8.987  40.486  11.995
17388W        W89714   8.183  33.551   1.319
17389W        W89715  18.135   2.367  13.371
17390W        W89716  24.251  38.014  12.082
17391W        W89717  12.962  10.167  10.874
17392W        W89718  12.345   5.230   4.293
17393W        W89719   9.831  15.862   2.789
17394W        W89720   4.920  40.771   4.612
17395W        W89721  37.335  38.579   3.204
17396W        W89722  43.810  24.033   3.228
17397W        W89723  42.238  26.467   2.672
17398W        W89724  35.168   6.779  14.725
17399W        W89725  16.332  17.291  10.752
17400W        W89726   9.372  24.749   1.808
17401W        W89727  38.078  34.562   3.628
17402W        W89728  38.160  35.480  11.654
17403W        W89729  13.574   6.393   4.146
17404W        W89730   1.863  34.150  11.025
17405W        W89731  27.857  10.560   2.839
17406W        W89732   3.297  38.314  11.163
17407W        W89733  23.674  32.117   0.617
17408W        W89734  32.188  25.642  14.470
17409W        W89735  44.480  28.511  10.644
17410W        W89736  38.628  28.178   9.914
17411W        W89737  12.044  17.563   1.762
17412W        W89738   1.409  27.846  10.456
17413W        W89739   9.939  36.031   2.639
17414W        W89740  16.255  13.725   4.611
17415W        W89741  21.628  17.404  13.558
17416W        W89742  31.122  18.769   0.765
17417W        W89743  36.863  24.577   0.740
17418W        W89744  32.811  25.196  13.381
17419W        W89745   4.346  31.327  14.953
17420W        W89746   5.728   0.792  12.182
17421W        W89747  28.447  35.466  12.292
17422W        W89748   8.819  32.205  11.551
17423W        W89749  44.528  24.620  14.569
17424W        W89750  38.985  21.645   2.733
17425W        W89751  37.767  36.595   2.861
17426W        W89752   1.732  28.531  14.390
17427W        W89753  40.959   8.580   4.179
17428W        W89754  38.883  21.311   4.223
17429W        W89755  21.397   3.845  10.387
17430W        W89756  12.907  16.676  14.241
17431W        W89757  20.974  44.921   2.549
17432W        W89758   9.816  25.667  13.503
17433W        W89759  34.647  43.975  11.645
17434W        W89760  36.367  41.412   3.339
17435W        W89761   4.934  42.340   2.403
17436W        W89762  20.278  17.500   1.403
17437W        W89763   2.796  21.164   1.432
17438W        W89764  13.895  27.215   3.687
17439W        W89765  37.542  17.557   5.050
17440W        W89766  27.444   3.893   4.140
17441W        W89767  12.316  27.759   3.301
17442W        W89768  10.088  13.855  12.883
17443W        W89769  11.181  11.157   0.354
17444W        W89770   3.626  12.314  12.496
17445W        W89771  11.649  22.277   4.899
17446W        W89772   7.256   3.972   4.145
17447W        W89773   4.370  16.074   3.250
17448W        W89774  28.873  40.602   1.808
17449W        W89775  24.009   2.375  12.469
17450W        W89776   6.763  18.391  13.528
17451W        W89777  38.655  35.624  11.540
17452W        W89778  17.315  43.408   1.849
17453W        W89779   5.659  38.031   1.412
17454W        W89780  43.930  29.422  13.104
17455W        W89781  20.302  12.262   4.678
17456W        W89782  28.497  43.271  14.927
17457W        W89783  42.870  35.016   1.907
17458W        W89784  43.988  43.559   1.674
17459W        W89785   8.992   6.312  14.480
17460W        W89786  36.507  26.985  12.771
17461W        W89787  32.591  14.170   2.913
17462W        W89788  25.107   2.449  13.652
17463W        W89789  35.548  43.822  10.716
17464W        W89790  30.075   6.920   0.456
17465W        W89791   5.784  26.525   3.078
17466W        W89792   6.314   8.809   0.818
17467W        W89793  20.843  10.810  11.631
17468W        W89794  20.900   2.803   2.701
17469W        W89795   5.618  36.519  14.720
17470W        W89796  15.340   3.879  11.849
17471W        W89797   2.053  11.109  10.761
17472W        W89798   9.443  41.837   1.697
17473W        W89799  39.409   7.828  12.965
17474W        W89800  28.972  32.008   4.755
17475W        W89801  24.120   5.796   0.956
17476W        W89802  32.364  18.667  10.919
17477W        W89803  19.042  36.165  13.624
17478W        W89804  40.270  16.359   3.657
17479W        W89805  41.865  15.700  10.468
17480W        W89806  15.210  27.777   2.795
17481W        W89807  28.596  17.633  14.100
17482W        W89808  12.081  38.355   1.773
17483W        W89809  38.318  37.296  14.584
17484W        W89810  11.231  41.963  13.007
17485W        W89811  16.018  29.022  11.999
17486W        W89812  34.483  44.750  14.562
17487W        W89813  25.003  40.030   0.772
17488W        W89814  44.752   9.889  12.555
17489W        W89815  44.469  13.845  12.594
17490W        W89816  36.806  30.671   1.338
17491W        W89817  26.883  15.291  12.573
17492W        W89818  37.424   7.743  12.621
17493W        W89819  37.609  16.219   4.067
17494W        W89820   3.868   9.419   5.663
17495W        W89821  28.557  13.870  13.999
17496W        W89822  17.208  38.752  11.095
17497W        W89823  37.062   1.180  10.721
17498W        W89824  27.395  40.414   0.825
17499W        W89825  44.825  14.948   3.538
17500W        W89826  18.751   8.145  14.776
17501W        W89827  24.020  41.366  10.283
17502W        W89828  12.639  27.672   9.827
17503W        W89829  13.336  39.919  11.981
17504W        W89830  19.135  18.647  10.470
17505W        W89831   6.883  31.556  13.118
17506W        W89832   2.141  38.023   3.515
17507W        W89833  22.287  23.707  12.382
17508W        W89834   0.308  44.740   3.154
17509W        W89835   5.847  22.333   4.316
17510W        W89836  18.553   5.159   1.614
17511W        W89837  11.911  33.151  13.128
17512W        W89838  24.690  12.720   4.538
17513W        W89839   7.443  15.162   2.549
17514W        W89840  39.767  13.813   2.886
17515W        W89841  26.787  22.466  12.432
17516W        W89842  24.084  41.508  11.154
17517W        W89843  31.875  15.694  14.167
17518W        W89844  22.703   9.819   0.841
17519W        W89845   2.793  27.581   1.881
17520W        W89846  43.449  31.154   5.043
17521W        W89847  11.734   5.796   0.754
17522W        W89848  13.730  19.157   3.894
17523W        W89849  13.621   7.353   3.422
17524W        W89850  11.364  30.577  14.970
17525W        W89851   0.492  20.623  13.863
17526W        W89852   1.471  15.023  13.225
17527W        W89853  13.017  20.210   4.166
17528W        W89854   4.687  44.886   2.371
17529W        W89855  42.899  30.481   1.870
17530W        W89856  18.169  25.636   1.816
17531W        W89857  13.247  26.542  11.329
17532W        W89858  33.584  35.020  13.946
17533W        W89859  30.404   6.302   0.765
17534W        W89860  28.726  24.583   4.894
17535W        W89861  23.191  27.934   2.748
17536W        W89862  16.750  40.869   4.659
17537W        W89863  16.189  28.929  13.176
17538W        W89864  36.353  35.665   4.130
17539W        W89865  24.990  34.923  12.814
17540W        W89866  29.162   9.022   4.506
17541W        W89867  36.055  12.130   3.911
17542W        W89868  43.387  34.590  14.292
17543W        W89869   5.738  16.201  14.770
17544W        W89870  24.544   1.516  11.241
17545W        W89871  28.956   6.255  11.462
17546W        W89872  44.424  19.137   2.370
17547W        W89873   4.825  41.324   2.412
17548W        W89874  27.260  42.863  13.461
17549W        W89875  37.759  44.954   3.196
17550W        W89876  10.445  42.436   0.323
17551W        W89877  31.404   8.882  14.578
17552W        W89878  38.077  24.999  10.733
17553W        W89879  42.964   8.295   3.854
17554W        W89880  37.820  43.100   3.775
17555W        W89881  30.053   7.863   4.708
17556W        W89882  29.873  44.316   4.626
17557W        W89883  40.370  17.113   0.541
17558W        W89884  24.516  38.832  11.181
17559W        W89885   0.220  43.879   1.350
17560W        W89886   2.540  33.265   4.236
17561W        W89887  23.210  17.690  10.624
17562W        W89888  41.875  12.350   2.906
17563W        W89889  39.577  41.479  11.938
17564W        W89890  14.288   7.660   0.337
17565W        W89891  37.408   7.830  14.033
17566W        W89892  14.060   5.213   0.006
17567W        W89893  16.635  35.886   2.399
17568W        W89894  35.037   5.688  10.271
17569W        W89895  39.260   3.216   1.741
17570W        W89896  19.140  27.459   3.096
17571W        W89897  25.726  20.730   1.434
17572W        W89898  41.000  31.522   4.215
17573W        W89899  32.812   3.857  10.789
17574W        W89900  16.588  36.427   0.437
17575W        W89901  20.647  29.208  11.208
17576W        W89902   0.336  31.892   0.783
17577W        W89903   5.823  14.893   2.229
17578W        W89904   4.202  42.789  14.989
17579W        W89905  13.134  21.477  12.764
17580W        W89906   0.932  36.066   4.194
17581W        W89907  21.196  18.538  10.691
17582W        W89908  36.024   9.374  13.104
17583W        W89909  23.893  19.200   4.515
17584W        W89910  12.596  37.631  11.374
17585W        W89911  39.062  21.481  12.960
17586W        W89912  39.408  19.483  14.387
17587W        W89913  31.883  39.939  11.648
17588W        W89914  44.213  15.817  14.733
17589W        W89915  34.396  29.401   0.472
17590W        W89916   1.003   2.796   3.414
17591W        W89917  14.976  24.243  14.566
17592W        W89918   2.050  18.662   0.445
17593W        W89919  19.326  20.475   3.717
17594W        W89920  15.301  32.454   1.054
17595W        W89921  39.144  22.956   2.824
17596W        W89922  44.783  25.387  14.793
17597W        W89923  33.083  42.022   3.740
17598W        W89924  42.036  10.842  10.813
17599W        W89925   0.443  34.506  12.471
17600W        W89926  30.990  19.328   4.272
17601W        W89927  37.927   7.878  13.946
17602W        W89928  20.964   2.355  12.661
17603W        W89929  32.202   0.937   0.407
17604W        W89930  28.697  43.672   3.769
17605W        W89931  26.864   5.777  11.123
17606W        W89932   2.668  16.647   4.217
17607W        W89933  11.200  23.949   1.801
17608W        W89934  10.303  12.761   3.831
17609W        W89935  15.732  22.735  13.018
17610W        W89936   0.369  11.611  14.513
17611W        W89937  36.563   3.824  10.854
17612W        W89938  22.495  25.471   3.294
17613W        W89939   9.518  25.997  13.795
17614W        W89940  39.268  28.872   4.148
17615W        W89941  15.323  27.961   3.723
17616W        W89942  11.272   2.687  13.328
17617W        W89943   1.042  24.857  12.804
17618W        W89944   6.330  22.218   0.338
17619W        W89945  41.857  31.115  13.852
17620W        W89946  39.917  38.450  12.347
17621W        W89947  32.893  12.390   1.855
17622W        W89948  32.629   6.871   1.843
17623W        W89949  30.896  11.024  10.952
17624W        W89950  20.318   7.341  14.880
17625W        W89951  41.913  34.573  14.956
17626W        W89952  44.303   3.126   3.741
17627W        W89953  26.436   0.545   3.025
17628W        W89954  29.492  14.802   2.077
17629W        W89955  13.589  40.745   0.472
17630W        W89956  24.522  37.603   3.719
17631W        W89957  33.823  44.054  13.407
17632W        W89958  14.101  18.883  11.996
17633W        W89959  41.485  42.186  14.850
17634W        W89960  28.462  24.482  12.922
17635W        W89961  27.128  39.930   3.296
17636W        W89962  39.943  27.503   1.897
17637W        W89963  31.388  27.668   2.330
17638W        W89964   4.139  23.628  11.591
17639W        W89965  40.159  36.809  14.795
17640W        W89966  44.897  18.246   4.631
17641W        W89967  42.469   4.175  11.194
17642W        W89968   5.942  29.631   3.131
17643W        W89969  32.150  33.808  10.952
17644W        W89970  28.506   5.821   1.431
17645W        W89971  42.294  31.093  11.897
17646W        W89972  18.739  27.404   2.791
17647W        W89973   9.214   9.092  13.973
17648W        W89974  26.103  21.467   2.784
17649W        W89975  19.262  31.933  13.355
17650W        W89976   8.786  22.016  11.183
17651W        W89977  15.771  43.857  13.909
17652W        W89978  11.082  33.645   3.770
17653W        W89979   0.653  25.999   4.626
17654W        W89980  33.607  27.735   2.755
17655W        W89981  37.138  27.290  11.130
17656W        W89982  38.886   1.274  10.771
17657W        W89983  44.890  30.018  11.648
17658W        W89984  36.787  25.611   2.430
17659W        W89985   4.942  23.366   2.640
17660W        W89986   2.268  44.844   2.896
17661W        W89987  25.287  13.577  11.202
17662W        W89988  27.565  13.580  12.367
17663W        W89989  17.598  28.027   1.174
17664W        W89990   7.905  36.401   4.674
17665W        W89991  19.764  15.763  12.046
17666W        W89992  32.485  41.462   3.593
17667W        W89993  14.525  18.606  12.122
17668W        W89994   2.747   5.732   1.460
17669W        W89995  32.202  14.180   2.209
17670W        W89996  18.285  16.049   0.382
17671W        W89997  21.221  37.507  11.046
17672W        W89998  32.204  22.575  10.678
17673W        W89999   3.559  23.456   4.130
17674W        W90000  15.402  19.803  11.941
17675W        W90001  16.554  35.672   0.428
17676W        W90002  19.113  14.648   1.892
17677W        W90003  29.151  39.770  13.907
17678W        W90004   2.323  42.333   0.943
17679W        W90005   7.438  44.989   2.800
17680W        W90006  28.034   6.121   3.132
17681W        W90007   8.868  34.933  10.744
17682W        W90008  10.314   0.984   1.355
17683W        W90009  33.580  36.368  14.335
17684W        W90010  36.947  44.330  12.341
17685W        W90011  39.838  43.515  11.068
17686W        W90012  30.391   3.361   0.325
17687W        W90013  26.478  21.160  10.385
17688W        W90014  38.529  37.914  11.817
17689W        W90015   1.387  18.238  11.539
17690W        W90016  32.352  38.109  13.888
17691W        W90017   0.415  33.168  11.689
17692W        W90018  29.948  30.968   4.302
17693W        W90019  44.497  28.127  13.887
17694W        W90020  20.697  43.973   4.907
17695W        W90021  32.564  14.542  10.187
17696W        W90022   4.044  30.548   1.292
17697W        W90023  28.670  25.917  12.890
17698W        W90024  20.626   8.491  11.973
17699W        W90025   9.255  10.588  14.821
17700W        W90026  22.697  21.190   0.998
17701W        W90027  23.666  31.058  11.164
17702W        W90028  30.599  36.330  14.271
17703W        W90029  44.331   3.412  10.166
17704W        W90030  20.865  33.851  12.677
17705W        W90031  41.100  18.111  13.508
17706W        W90032  11.882  31.660   3.045
17707W        W90033  36.116  21.714  12.405
17708W        W90034  17.318  11.758   2.211
17709W        W90035   1.047   9.149  12.144
17710W        W90036  25.287  36.879  11.431
17711W        W90037  44.367  17.062   1.368
17712W        W90038  42.076  21.297   2.380
17713W        W90039  16.182  40.534   2.906
17714W        W90040  17.186  26.942  13.307
17715W        W90041  40.955   2.804   3.407
17716W        W90042  19.695   5.751   2.845
17717W        W90043  17.105  44.578  11.599
17718W        W90044   0.147   1.727   2.313
17719W        W90045  10.652  31.157  13.012
17720W        W90046  37.523   3.757   1.516
17721W        W90047  43.483  28.126   0.793
17722W        W90048  28.169  37.012   3.876
17723W        W90049  37.217  34.327   4.197
17724W        W90050  13.799  17.388  14.748
17725W        W90051  15.119   6.767  11.533
17726W        W90052  42.094   1.277   4.157
17727W        W90053  28.029  12.475   2.152
17728W        W90054  35.674  11.686   4.599
17729W        W90055  28.643  10.622   3.224
17730W        W90056  19.072  21.587   1.643
17731W        W90057  14.018  30.341  13.923
17732W        W90058  42.224  11.210  12.806
17733W        W90059  34.569   1.548   2.247
17734W        W90060  21.296  20.990  12.306
17735W        W90061  20.774  12.280  11.118
17736W        W90062  12.327  37.317   1.203
17737W        W90063  43.492  24.053   2.301
17738W        W90064  19.741  29.376  10.669
17739W        W90065  24.704   1.999  11.200
17740W        W90066  22.988   7.951  10.514
17741W        W90067  30.697  39.345   3.677
17742W        W90068  22.811  18.925  13.364
17743W        W90069  33.203  19.088   3.895
17744W        W90070  14.682   5.638   3.242
17745W        W90071   1.371  27.745   2.642
17746W        W90072  34.138   8.314   1.395
17747W        W90073   9.580  35.050   4.825
17748W        W90074  36.397  20.759   3.451
17749W        W90075  18.627  44.099  10.492
17750W        W90076  23.201  25.535   0.650
17751W        W90077  18.723   2.003   4.196
17752W        W90078  28.450  17.699   0.081
17753W        W90079  39.332  23.669  10.941
17754W        W90080  11.590  42.848   2.840
17755W        W90081  40.588  20.617  13.871
17756W        W90082   5.233   4.406   3.606
17757W        W90083  44.656   1.880   2.405
17758W        W90084  16.810   7.713   1.629
17759W        W90085  23.227  21.548  14.297
17760W        W90086  25.108   1.714  10.677
17761W        W90087  30.550  27.730   0.393
17762W        W90088  15.736  14.563   0.269
17763W        W90089  36.630   0.952   2.730
17764W        W90090  39.500  17.702  14.058
17765W        W90091  26.700  34.388   0.784
17766W        W90092   0.283  41.521   3.181
17767W        W90093  35.069   9.676   3.592
17768W        W90094   7.832  30.591  14.218
17769W        W90095   5.797  39.351   3.350
17770W        W90096   2.519  18.945  11.571
17771W        W90097  12.054  23.845  10.758
17772W        W90098  31.467  30.600   4.411
17773W        W90099  17.660  22.640  11.654
17774W        W90100  39.975  10.590  11.585
17775W        W90101   2.044   8.908   0.019
17776W        W90102   2.430  32.454   1.144
17777W        W90103  12.304  33.488  11.598
17778W        W90104   6.017  15.062  11.545
17779W        W90105  28.385  36.337  14.482
17780W        W90106  38.607  26.181  11.945
17781W        W90107  27.909  15.549   2.296
17782W        W90108  27.128  16.643   2.231
17783W        W90109  18.488  41.703   3.534
17784W        W90110  16.807  22.706   4.654
17785W        W90111  16.051  23.587  13.906
17786W        W90112  32.732  10.980   4.205
17787W        W90113  39.835   5.714  11.418
17788W        W90114   3.665  37.006   1.309
17789W        W90115  19.092   4.728  11.891
17790W        W90116   6.946   4.450   3.266
17791W        W90117  27.125  33.917  12.798
17792W        W90118  22.540  36.360   4.832
17793W        W90119   8.665  26.000  11.977
17794W        W90120  42.765   9.684  12.598
17795W        W90121  25.721  36.865  14.976
17796W        W90122  20.687   7.115  13.889
17797W        W90123  30.186  37.443   2.915
17798W        W90124  10.149  13.196   1.231
17799W        W90125  41.446  23.201   3.180
17800W        W90126  27.081   7.825  12.783
17801W        W90127  24.635  29.662   3.435
17802W        W90128  15.240  14.171  10.787
17803W        W90129  15.507  35.633  11.038
17804W        W90130  11.346   3.461  10.433
17805W        W90131  22.259  38.409  12.880
17806W        W90132  39.000   1.796   0.707
17807W        W90133   8.484   7.239  13.841
17808W        W90134  23.841  26.185  11.945
17809W        W90135  19.819  21.266  13.302
17810W        W90136   1.771  31.987  10.597
17811W        W90137  30.619  38.696   1.445
17812W        W90138  26.542   1.881   0.459
17813W        W90139   9.104  11.073  10.652
17814W        W90140  12.458   5.462  13.089
17815W        W90141  37.515   8.653  10.865
17816W        W90142   8.108  33.487  13.422
17817W        W90143  23.619  41.154  14.834
17818W        W90144  34.121  16.170  12.665
17819W        W90145  30.142   9.576   3.739
17820W        W90146  14.702  35.901   3.185
17821W        W90147  31.027  27.002  10.793
17822W        W90148  19.780   2.176  11.506
17823W        W90149   9.615  21.701  14.240
17824W        W90150  14.316  33.359   2.874
17825W        W90151  10.369  29.486  12.450
17826W        W90152  33.353  40.295  11.887
17827W        W90153   7.897  11.825   4.597
17828W        W90154  38.557  21.616   0.452
17829W        W90155  18.772   0.532   3.401
17830W        W90156   5.455  12.333  13.015
17831W        W90157  15.767  35.844   4.355
17832W        W90158  11.008  43.002   0.334
17833W        W90159   7.627   5.166   3.391
17834W        W90160  22.694   2.326  11.097
17835W        W90161  26.016  14.099  11.584
17836W        W90162  30.956   1.956  10.640
17837W        W90163  32.195  44.520   3.348
17838W        W90164   4.305   3.872  10.683
17839W        W90165  19.277  38.886   2.332
17840W        W90166   0.579  39.541  12.093
17841W        W90167  33.869   9.227   4.347
17842W        W90168  32.140  43.776   1.306
17843W        W90169  40.168  37.736  11.172
17844W        W90170  20.916  14.883   4.590
17845W        W90171  14.018  13.100  14.703
17846W        W90172  21.951  37.961  12.928
17847W        W90173  42.262  15.982   1.880
17848W        W90174  34.235  27.298   3.237
17849W        W90175   0.828  14.121  12.429
17850W        W90176  25.583   6.709   0.948
17851W        W90177  27.118  21.262   4.278
17852W        W90178  23.230   2.257   1.322
17853W        W90179  17.156   3.980   1.028
17854W        W90180   5.943  34.567   1.083
17855W        W90181  24.495   2.854   3.749
17856W        W90182  29.998  29.550  13.351
17857W        W90183  38.795  12.815  10.034
17858W        W90184  30.733  29.056  14.402
17859W        W90185  12.207  41.589   2.702
17860W        W90186  40.160  22.254   2.206
17861W        W90187   1.488  29.287  14.807
17862W        W90188  24.419  25.228   2.386
17863W        W90189  22.607  18.024  12.313
17864W        W90190  18.211  31.364   0.908
17865W        W90191   2.495  40.469   1.794
17866W        W90192  34.027  41.739   0.993
17867W        W90193  10.223   4.458  13.897
17868W        W90194  29.375  40.196  14.127
17869W        W90195  43.483   8.300   2.848
17870W        W90196  18.850  13.388  14.010
17871W        W90197  21.274  11.574  13.352
17872W        W90198   9.706  32.419  11.732
17873W        W90199   2.465  30.136   1.787
17874W        W90200  44.292  11.139  13.269
17875W        W90201  21.256  31.816   3.714
17876W        W90202  28.406  25.579   5.478
17877W        W90203  43.722   8.654   2.462
17878W        W90204  14.066  17.830   2.205
17879W        W90205  38.554  12.237   2.867
17880W        W90206  22.054  24.197  13.399
17881W        W90207  43.500  25.256   4.501
17882W        W90208  31.389  15.363   4.336
17883W        W90209  37.823  13.806   9.681
17884W        W90210  38.274   0.133   1.508
17885W        W90211  13.234   2.042   3.881
17886W        W90212  34.416   4.424   0.518
17887W        W90213   3.924  34.761  11.970
17888W        W90214  36.079   7.324  13.437
17889W        W90215  23.938  14.296   1.447
17890W        W90216  14.278   3.306   2.111
17891W        W90217  19.400  28.456   1.982
17892W        W90218  37.383  13.723  13.534
17893W        W90219  27.139  37.872   3.586
17894W        W90220  35.326   8.421   1.803
17895W        W90221  24.946  19.712   2.342
17896W        W90222  35.824   1.468  13.019
17897W        W90223   5.747  10.960  14.252
17898W        W90224  37.359  18.413  13.535
17899W        W90225   8.703   4.872   1.827
17900W        W90226  19.103  39.279   3.373
17901W        W90227  12.025  41.463  13.837
17902W        W90228  10.355   5.919  13.789
17903W        W90229  36.154  21.206   1.331
17904W        W90230  11.200  33.457   1.569
17905W        W90231  10.661  26.271   4.209
17906W        W90232   0.406  32.086   3.540
17907W        W90233  25.134   0.292  14.477
17908W        W90234  35.432  37.000   0.218
17909W        W90235  35.105   3.260   5.512
17910W        W90236  24.081  42.028  11.049
17911W        W90237  25.068  28.658  12.707
17912W        W90238   4.061  21.903  11.826
17913W        W90239  43.276  40.425  12.031
17914W        W90240  15.790  16.234  14.849
17915W        W90241  40.246  30.433   0.817
17916W        W90242  37.519  32.110   3.712
17917W        W90243  30.632  33.210  11.532
17918W        W90244  23.379  38.399   2.415
17919W        W90245  21.551  35.059   2.183
17920W        W90246  11.703  19.506  10.725
17921W        W90247  13.764  16.236  13.905
17922W        W90248  29.005  36.575   0.773
17923W        W90249  33.605   3.313   2.581
17924W        W90250  21.365  36.741   3.692
17925W        W90251  14.625  13.321   2.197
17926W        W90252  27.344   5.756  11.965
17927W        W90253  29.186  31.468  14.273
17928W        W90254  44.866  39.085   2.737
17929W        W90255  23.799   4.687   4.299
17930W        W90256  25.506   0.809   1.302
17931W        W90257  22.507  42.190  13.013
17932W        W90258  11.304  32.019   2.808
17933W        W90259  20.178  13.198  13.397
17934W        W90260  23.124  29.522   3.888
17935W        W90261   3.261  27.767  13.787
17936W        W90262   0.438  35.281  11.138
17937W        W90263   8.864  43.247   2.211
17938W        W90264  19.910  20.234  12.622
17939W        W90265  36.465  16.742  13.276
17940W        W90266  24.753  43.635  13.955
17941W        W90267   1.481  44.261   4.584
17942W        W90268  17.990   9.277  14.403
17943W        W90269  37.474  44.958  14.301
17944W        W90270  33.860  42.135  13.041
17945W        W90271   0.957  13.332   1.726
17946W        W90272  30.784  29.712   2.872
17947W        W90273  40.753  27.013   4.922
17948W        W90274  40.554  24.754  12.180
17949W        W90275   8.731   2.392   1.212
17950W        W90276   1.200  22.609   0.712
17951W        W90277  28.226   9.633   4.629
17952W        W90278  13.653   6.610   1.375
17953W        W90279  23.119  39.893  11.486
17954W        W90280   4.173  16.188  10.693
17955W        W90281  42.751   3.272  12.834
17956W        W90282   4.597   6.391   3.197
17957W        W90283   9.959   3.944   4.156
17958W        W90284  35.952  30.894  13.408
17959W        W90285  44.342  28.187   0.870
17960W        W90286  42.815  22.095   0.675
17961W        W90287  26.377  32.534   2.869
17962W        W90288  36.623  34.605  12.875
17963W        W90289  19.824  13.398   0.888
17964W        W90290  15.327  32.615   2.030
17965W        W90291  12.819  44.791   4.219
17966W        W90292  33.392  13.357  13.115
17967W        W90293  24.765   8.417   0.917
17968W        W90294  41.303   6.811   3.259
17969W        W90295  44.774  27.521  13.952
17970W        W90296  33.530  20.323  11.675
17971W        W90297  20.037  32.530   0.948
17972W        W90298  16.809  24.653  12.593
17973W        W90299  12.204  34.248   3.025
17974W        W90300  33.120  33.558   0.307
17975W        W90301  28.443  33.611  12.577
17976W        W90302  33.486  33.032   2.241
17977W        W90303  31.167   9.211   3.084
17978W        W90304  21.147  12.724  11.617
17979W        W90305  16.148  38.113  13.346
17980W        W90306  41.085  17.653  10.628
17981W        W90307  32.229  22.452   0.933
17982W        W90308  17.874   0.778   1.762
17983W        W90309  10.355  30.431  10.714
17984W        W90310  44.218  33.186  14.148
17985W        W90311  30.616   5.841  12.362
17986W        W90312  24.478   1.330  12.442
17987W        W90313   8.731  42.689   0.857
17988W        W90314  28.369  12.824   0.571
17989W        W90315  18.157   8.859   3.302
17990W        W90316  22.958  22.794   3.622
17991W        W90317  12.710   7.401   4.361
17992W        W90318  16.885  17.007   2.670
17993W        W90319  22.061  24.044  14.200
17994W        W90320  13.893  21.184   5.095
17995W        W90321   7.342  37.093   0.093
17996W        W90322  29.722   2.526   0.022
17997W        W90323   2.965  16.801  14.386
17998W        W90324  41.447  27.488  13.775
17999W        W90325   9.180  43.366   1.595
18000W        W90326  17.570   1.678   1.418
18001W        W90327  27.647  14.627   3.762
18002W        W90328  39.391  25.695   1.305
18003W        W90329  19.212  40.218  11.075
18004W        W90330   5.200  25.970   3.738
18005W        W90331  14.183  12.219  12.140
18006W        W90332  23.644  30.982  14.898
18007W        W90333   5.171  34.072   0.090
18008W        W90334  36.146  38.859  12.466
18009W        W90335  26.672  19.010   4.592
18010W        W90336  27.708   4.324   4.230
18011W        W90337  31.788  17.785  10.371
18012W        W90338  12.904   9.637   0.452
18013W        W90339  36.556  28.781   4.110
18014W        W90340  27.508  22.058   3.538
18015W        W90341  23.467   7.949  12.403
18016W        W90342  24.649  35.573  14.036
18017W        W90343   0.037  27.004   3.890
18018W        W90344  32.790  35.341  14.732
18019W        W90345  31.473   7.926   0.997
18020W        W90346  24.602   6.649  13.780
18021W        W90347   8.665  12.790   2.144
18022W        W90348   3.448  25.532  14.359
18023W        W90349   8.949  13.600  12.405
18024W        W90350  26.497  12.106   2.835
18025W        W90351   6.264  43.880   3.574
18026W        W90352  40.489  41.424  14.959
18027W        W90353  35.574  38.415   4.521
18028W        W90354  37.145  10.782  13.028
18029W        W90355   8.148  28.747   3.193
18030W        W90356  22.599  15.236   1.925
18031W        W90357  29.433  18.620  14.829
18032W        W90358   7.830  22.402   0.227
18033W        W90359  15.586  21.550   0.421
18034W        W90360  34.212  19.841   2.905
18035W        W90361  14.238  38.945   3.850
18036W        W90362   7.835  21.500   2.973
18037W        W90363  22.828   3.943   3.654
18038W        W90364  31.928  24.541  11.521
18039W        W90365   2.035  13.696  13.509
18040W        W90366   9.336   5.724  13.903
18041W        W90367  40.106  25.791   0.086
18042W        W90368  24.010  17.067   3.193
18043W        W90369   1.754  11.278   2.057
18044W        W90370  19.681  31.611  11.897
18045W        W90371  37.905  19.926  14.982
18046W        W90372  28.512  22.255  11.954
18047W        W90373  22.766  32.514  14.256
18048W        W90374   5.857  39.823  14.959
18049W        W90375  16.402  29.170   1.195
18050W        W90376  39.771  38.632  12.834
18051W        W90377  41.515   0.972   0.926
18052W        W90378  29.683  13.252   4.096
18053W        W90379  26.881  31.942   3.191
18054W        W90380  13.182  21.519  11.776
18055W        W90381  44.938  33.930   1.067
18056W        W90382   2.349  18.885  12.490
18057W        W90383  38.816  12.303   3.351
18058W        W90384  13.265  19.359  10.664
18059W        W90385  14.368  28.537  11.100
18060W        W90386  43.645  11.370   4.518
18061W        W90387  17.619  11.554  13.847
18062W        W90388  32.663  12.771  11.095
18063W        W90389  37.995  26.884  12.059
18064W        W90390  41.891   9.919  12.953
18065W        W90391  17.970   8.364   3.201
18066W        W90392   8.378  27.993  10.434
18067W        W90393  36.407  10.051  13.951
18068W        W90394   4.702  12.108  12.542
18069W        W90395   9.967  13.601   3.115
18070W        W90396  24.760   3.637   2.319
18071W        W90397  18.183  34.031   1.184
18072W        W90398   5.620   7.160  10.827
18073W        W90399  34.050   8.796   2.765
18074W        W90400  15.540  33.921   2.721
18075W        W90401  40.389  40.488  14.978
18076W        W90402  26.786  16.558  10.449
18077W        W90403   1.761  34.666  11.075
18078W        W90404  27.273   3.950   2.820
18079W        W90405  14.136  24.430  14.236
18080W        W90406  38.671  36.121   2.332
18081W        W90407  33.200   7.898  14.886
18082W        W90408  37.491  43.946  10.954
18083W        W90409  22.257   5.154   2.317
18084W        W90410   5.136  32.146  10.597
18085W        W90411  20.555  11.870   2.287
18086W        W90412  41.263  17.323   1.687
18087W        W90413  16.050  24.769  14.264
18088W        W90414  13.683  44.737   2.756
18089W        W90415  17.756  11.437   0.847
18090W        W90416  36.583  24.068   3.893
18091W        W90417  37.746  41.834  12.470
18092W        W90418   4.432  23.785   3.239
18093W        W90419  32.167   9.596   4.951
18094W        W90420  41.860  33.354  14.864
18095W        W90421   0.946   9.788   5.137
18096W        W90422  42.179  26.072  10.788
18097W        W90423   7.374  23.998   0.013
18098W        W90424   1.362  18.798  12.797
18099W        W90425  31.216  13.715  14.811
18100W        W90426  23.994  43.003  13.712
18101W        W90427   6.465   7.672  12.867
18102W        W90428   5.645  43.296   4.635
18103W        W90429   1.204  19.176  11.059
18104W        W90430   7.430  32.030   3.304
18105W        W90431   0.727  17.390  12.363
18106W        W90432  21.847   7.303   4.591
18107W        W90433  30.456   2.751   3.243
18108W        W90434   9.588  43.883  12.068
18109W        W90435  44.368  27.091  12.986
18110W        W90436   1.783   7.589  10.701
18111W        W90437   2.734  39.616  12.534
18112W        W90438   8.282   8.281   4.797
18113W        W90439  29.417  25.704   4.248
18114W        W90440  35.428  34.737  10.626
18115W        W90441  39.074   6.070   4.568
18116W        W90442  14.401  40.286   0.563
18117W        W90443  12.282  38.825  10.977
18118W        W90444  22.525   0.669   0.195
18119W        W90445   1.801  39.151   1.690
18120W        W90446  27.105  11.316  10.437
18121W        W90447  15.210  17.800   1.775
18122W        W90448  41.969  13.819  11.034
18123W        W90449   2.908  21.760  13.017
18124W        W90450   8.967  23.738  11.324
18125W        W90451  23.324  11.688  12.467
18126W        W90452  37.952  19.150   4.290
18127W        W90453  40.344  37.470   0.983
18128W        W90454  16.467   0.960   4.066
18129W        W90455  34.141  36.195  10.701
18130W        W90456  32.374  38.457   1.254
18131W        W90457  43.383  22.564  13.511
18132W        W90458  43.064  10.719  10.637
18133W        W90459   3.314   1.051  13.298
18134W        W90460   7.128  37.548   3.655
18135W        W90461  10.575  10.221   4.943
18136W        W90462   4.704  14.807   2.620
18137W        W90463  37.979   9.336  13.302
18138W        W90464  11.509   4.851   3.708
18139W        W90465  38.895  24.726   4.668
18140W        W90466  21.979  12.060   1.515
18141W        W90467   5.416  44.393  10.044
18142W        W90468  24.513  12.082  12.033
18143W        W90469  19.739  33.323   3.741
18144W        W90470  38.427  33.864  13.068
18145W        W90471  33.878  15.118   2.685
18146W        W90472  26.509   9.137   2.188
18147W        W90473  44.023  21.938   3.709
18148W        W90474  26.693  39.057  12.443
18149W        W90475  26.626   1.817  12.842
18150W        W90476  42.154  12.591  11.238
18151W        W90477  38.366  19.541  11.390
18152W        W90478   3.725   7.927  13.541
18153W        W90479   2.667   9.356  12.731
18154W        W90480   4.834  24.048   1.386
18155W        W90481   1.359  32.423   1.067
18156W        W90482  39.270   8.793   3.092
18157W        W90483  32.129  36.372  13.861
18158W        W90484   5.247  18.475  14.466
18159W        W90485  24.660  14.367   3.633
18160W        W90486  16.350  12.781   1.941
18161W        W90487  37.350  24.102   2.657
18162W        W90488  42.823  21.535  14.857
18163W        W90489  33.843   1.527   4.020
18164W        W90490  38.102  14.447   1.683
18165W        W90491  23.873  43.585  14.872
18166W        W90492  12.410   0.062  12.543
18167W        W90493  17.421   0.582   2.698
18168W        W90494  40.503  19.064  13.876
18169W        W90495   1.914  32.901  12.781
18170W        W90496   8.785  14.651   1.682
18171W        W90497  22.506   6.182  13.525
18172W        W90498  38.955  41.844  12.620
18173W        W90499  13.887   3.841  12.993
18174W        W90500  18.979   0.701   4.294
18175W        W90501  33.255   7.223  11.498
18176W        W90502  38.845  32.505  12.320
18177W        W90503  31.395  20.775  14.851
18178W        W90504  10.825  28.593  14.881
18179W        W90505  26.548  23.465   1.398
18180W        W90506  15.556  20.564  11.519
18181W        W90507  17.575   4.925  12.749
18182W        W90508  18.172  42.978   3.778
18183W        W90509  26.143  28.977  14.288
18184W        W90510  38.850  35.354   3.773
18185W        W90511  35.217   5.166  12.620
18186W        W90512  27.038  21.161  11.124
18187W        W90513  10.350  18.000   1.310
18188W        W90514  14.651  21.524  14.369
18189W        W90515  23.724  15.364   0.813
18190W        W90516  23.155  41.883  14.823
18191W        W90517   0.276  42.288  10.530
18192W        W90518   0.899   6.924  14.863
18193W        W90519   8.779   2.323   2.124
18194W        W90520  16.709  21.897  14.397
18195W        W90521  14.641  41.926  11.533
18196W        W90522  11.881  26.457   1.508
18197W        W90523   2.163  11.578  13.864
18198W        W90524  13.267  17.312  12.505
18199W        W90525  35.498  38.948  12.944
18200W        W90526   0.753  19.405   3.699
18201W        W90527   6.459  21.312   0.978
18202W        W90528  31.472  40.907  11.623
18203W        W90529   7.732  29.097  13.916
18204W        W90530  20.095  29.786  11.962
18205W        W90531  16.196  31.428   2.868
18206W        W90532  19.818  41.351   5.062
18207W        W90533  24.138  20.312   1.436
18208W        W90534   9.286   2.738   4.542
18209W        W90535   3.363  39.392   0.204
18210W        W90536  37.410  21.721  12.056
18211W        W90537  27.336  37.537  10.892
18212W        W90538  14.617  43.723   3.802
18213W        W90539  16.057   2.742   1.347
18214W        W90540  24.782  39.860   3.997
18215W        W90541  28.565   4.480  12.526
18216W        W90542  38.903   4.134  11.144
18217W        W90543  18.789  20.645   0.876
18218W        W90544  41.547  21.793  11.146
18219W        W90545   2.815  18.180   2.621
18220W        W90546  39.085  23.101   1.582
18221W        W90547  11.865  21.794   4.840
18222W        W90548  18.745  31.486  14.543
18223W        W90549   1.023  14.846   0.770
18224W        W90550  33.135   9.746  10.446
18225W        W90551  18.490  35.076   5.189
18226W        W90552  12.562  16.126   3.808
18227W        W90553  28.616  18.297  11.100
18228W        W90554   7.578  17.184   3.178
18229W        W90555  34.637   5.292   1.851
18230W        W90556  29.541   1.733  10.722
18231W        W90557   8.118  17.586   0.063
18232W        W90558  16.105  27.658   0.331
18233W        W90559  33.488  34.993  14.916
18234W        W90560  39.915  16.110  12.545
18235W        W90561  31.936  17.745   0.920
18236W        W90562  31.847  10.680   0.936
18237W        W90563  30.446  15.762   2.892
18238W        W90564  44.374  12.304  14.218
18239W        W90565  22.310   5.022   4.985
18240W        W90566   1.836   7.147  10.954
18241W        W90567   5.035  17.976  14.303
18242W        W90568  36.081  16.103   4.195
18243W        W90569   6.777  41.036  13.394
18244W        W90570  26.888  23.493  13.182
18245W        W90571  33.665  42.999   0.648
18246W        W90572  19.631  42.564  10.674
18247W        W90573  25.458  23.252   0.384
18248W        W90574  17.732  28.660  14.519
18249W        W90575   9.355   5.277  14.277
18250W        W90576  32.513  39.888   0.853
18251W        W90577  28.022   1.792   4.643
18252W        W90578  17.140  22.758  11.997
18253W        W90579  40.282  36.344  14.625
18254W        W90580  15.011  14.189  13.966
18255W        W90581  40.304  12.248   1.916
18256W        W90582  38.838  32.938  11.233
18257W        W90583   3.988  22.655   4.955
18258W        W90584  35.733  17.183   4.064
18259W        W90585   8.837  30.733  14.301
18260W        W90586  20.727  31.453   0.240
18261W        W90587  31.348  28.904   2.790
18262W        W90588   9.771  13.381  14.019
18263W        W90589  16.369  19.751  12.435
18264W        W90590  16.547  43.200   3.637
18265W        W90591  40.531  41.077  14.217
18266W        W90592  11.371  10.394  12.693
18267W        W90593   5.394  24.619  11.425
18268W        W90594  19.887  10.233  14.914
18269W        W90595  22.646  12.124   3.250
18270W        W90596  44.673  43.372  12.663
18271W        W90597  17.651   1.996   0.501
18272W        W90598  14.859   2.413  12.477
18273W        W90599  17.381   1.094   2.771
18274W        W90600  26.746  42.760  13.481
18275W        W90601  14.408  42.746  14.557
18276W        W90602   4.055  25.081   1.737
18277W        W90603   4.244  31.475   1.252
18278W        W90604  33.475   9.347   4.689
18279W        W90605  18.304  32.010   1.785
18280W        W90606  36.006  15.315  12.114
18281W        W90607  16.196  19.133  11.108
18282W        W90608  18.188  26.321   3.118
18283W        W90609  15.788   9.119  10.991
18284W        W90610   0.838   7.935   1.839
18285W        W90611  38.933  30.623  12.966
18286W        W90612   8.073  27.935  14.459
18287W        W90613   4.441   9.295   3.565
18288W        W90614  25.457  25.231  13.937
18289W        W90615  27.333  36.334   3.268
18290W        W90616  21.259  19.701  11.497
18291W        W90617   0.356  29.119  11.905
18292W        W90618   9.983  12.167  14.402
18293W        W90619  20.769  42.389   4.829
18294W        W90620  34.650   3.742  11.195
18295W        W90621  20.024  19.983   4.364
18296W        W90622   7.623  28.928  12.599
18297W        W90623  32.043  43.572  14.424
18298W        W90624  31.037  19.168   0.106
18299W        W90625  14.632  17.752   1.423
18300W        W90626  29.462  41.461   4.546
18301W        W90627  17.579   2.483  11.749
18302W        W90628  41.035  42.514  12.423
18303W        W90629   9.938  20.170  10.918
18304W        W90630  43.747  34.018   1.914
18305W        W90631  34.702  38.747   4.070
18306W        W90632  44.793   7.388  13.829
18307W        W90633  29.086  13.429   1.308
18308W        W90634  37.870   7.235   3.624
18309W        W90635  16.875  41.926   1.338
18310W        W90636  34.448  14.344   0.858
18311W        W90637   0.419   6.596  13.910
18312W        W90638  35.035  41.451  13.925
18313W        W90639   6.420  25.560   0.912
18314W        W90640  43.196  30.678  10.040
18315W        W90641  31.029  30.077   0.437
18316W        W90642  40.522  26.131   0.033
18317W        W90643   1.492  44.256   2.401
18318W        W90644  18.870   6.299  14.860
18319W        W90645   3.422  13.048  11.116
18320W        W90646  31.693   6.009  13.380
18321W        W90647  33.602  34.911  10.665
18322W        W90648  20.365  23.573  14.300
18323W        W90649  33.712  23.534  12.184
18324W        W90650  22.008  17.346   0.341
18325W        W90651  31.808  20.784  12.745
18326W        W90652  36.791  11.162   2.106
18327W        W90653  23.874  24.049  14.209
18328W        W90654  40.451  10.198  11.663
18329W        W90655  35.995  32.400   0.376
18330W        W90656  36.039  38.440   4.259
18331W        W90657  42.366   5.473  11.641
18332W        W90658   3.433  28.274  13.940
18333W        W90659  12.162  40.853   4.128
18334W        W90660  11.442  24.282  11.361
18335W        W90661  31.011  36.410  12.698
18336W        W90662   7.309  27.978   3.392
18337W        W90663  17.763   0.748  11.145
18338W        W90664   3.890   0.911  11.332
18339W        W90665   4.390  32.796  14.758
18340W        W90666  33.473   2.514  13.002
18341W        W90667  15.390  22.184   2.476
18342W        W90668  42.403  37.433   2.345
18343W        W90669  40.691  12.201  10.997
18344W        W90670  33.250  38.015   2.832
18345W        W90671  13.159  30.025  12.894
18346W        W90672  40.945  20.195  11.872
18347W        W90673  38.402  37.505   2.748
18348W        W90674  28.698  43.710   1.137
18349W        W90675  15.336  42.971   2.404
18350W        W90676  23.257   2.888   0.825
18351W        W90677  16.121   8.796   2.780
18352W        W90678  32.924   4.943   0.815
18353W        W90679  19.633  42.940  13.880
18354W        W90680   9.401  26.416  12.501
18355W        W90681  37.454  35.911   1.441
18356W        W90682   8.773  36.972   2.859
18357W        W90683   1.681   1.992   0.916
18358W        W90684  44.441  31.555   0.267
18359W        W90685  16.386  33.982  10.708
18360W        W90686  42.883  24.465   1.826
18361W        W90687   1.680  15.241  11.624
18362W        W90688  16.803  33.566   2.453
18363W        W90689  37.881  13.355  13.869
18364W        W90690  29.570  31.385   3.942
18365W        W90691  15.229   3.182  11.281
18366W        W90692  17.194  31.328  14.802
18367W        W90693  14.047  43.056   0.502
18368W        W90694  34.855  17.606   1.427
18369W        W90695  23.241  16.330  13.793
18370W        W90696  15.788  34.524  13.262
18371W        W90697  16.508  24.759   2.367
18372W        W90698  44.270  31.505  11.058
18373W        W90699  13.151   7.210  14.565
18374W        W90700  32.424  31.199  10.743
18375W        W90701  11.906  29.520  14.830
18376W        W90702  25.506  20.562   0.986
18377W        W90703  22.899  14.523  14.332
18378W        W90704  40.986   4.386   0.003
18379W        W90705  30.717  17.528   3.228
18380W        W90706  35.517  44.232   3.169
18381W        W90707  44.936  15.712   2.488
18382W        W90708  17.686  17.088   2.669
18383W        W90709  13.162   1.791   3.142
18384W        W90710  12.723  27.887  11.518
18385W        W90711  21.193  32.139   4.581
18386W        W90712  20.171  10.365  13.932
18387W        W90713  14.126  18.219   2.578
18388W        W90714   2.947  28.245   2.693
18389W        W90715  23.089   5.878   3.284
18390W        W90716   1.797  44.532  11.983
18391W        W90717  30.370  35.490   3.802
18392W        W90718  35.900  32.599   3.722
18393W        W90719  14.411  14.678   2.168
18394W        W90720   9.312  28.457  13.556
18395W        W90721  17.602  26.444   3.314
18396W        W90722  44.316  10.056   1.895
18397W        W90723  18.063   5.259  10.974
18398W        W90724  44.513   6.094  10.100
18399W        W90725  29.199  28.136   3.933
18400W        W90726  34.443   4.835   4.539
18401W        W90727  24.466  38.899   3.813
18402W        W90728  38.955  17.773  13.053
18403W        W90729   2.048  41.763  12.645
18404W        W90730   6.869  42.577  13.493
18405W        W90731  38.041  29.950   2.364
18406W        W90732  29.183  35.237  12.162
18407W        W90733  41.974  33.669   0.319
18408W        W90734  14.739  44.901   1.466
18409W        W90735   6.610  23.880   4.213
18410W        W90736  12.666   9.273   4.573
18411W        W90737  26.099  32.681  11.947
18412W        W90738  14.931  15.185   0.814
18413W        W90739   7.186  33.464  11.697
18414W        W90740   9.297  17.647  13.814
18415W        W90741  42.442  39.360  13.744
18416W        W90742   1.865   2.458   4.606
18417W        W90743  19.865   3.815   4.451
18418W        W90744   7.525  34.448  13.341
18419W        W90745  10.152   1.748   3.904
18420W        W90746  16.330  11.357   1.850
18421W        W90747  15.513  38.506  14.281
18422W        W90748  24.000  32.095   1.804
18423W        W90749  18.659  36.923   2.845
18424W        W90750  42.032  11.739   0.276
18425W        W90751  38.549  40.604   3.935
18426W        W90752  27.512  43.949   3.848
18427W        W90753  21.042  19.728  14.931
18428W        W90754  16.888  28.598  12.183
18429W        W90755  15.674  12.512   3.846
18430W        W90756   0.457   0.064  13.000
18431W        W90757   0.352  11.603   3.146
18432W        W90758  14.058  34.942  14.443
18433W        W90759  43.136  21.442  12.361
18434W        W90760  37.801   5.706  12.144
18435W        W90761   2.388  21.585  12.998
18436W        W90762  27.519  12.123   2.431
18437W        W90763  12.295  27.416   2.915
18438W        W90764  28.475  27.880  12.449
18439W        W90765  30.136  38.384  11.545
18440W        W90766  20.083   0.411   4.819
18441W        W90767  44.577  37.119   2.699
18442W        W90768   8.160  30.139   4.125
18443W        W90769  15.756  35.569  12.753
18444W        W90770  36.397   4.075  14.159
18445W        W90771   1.016  12.718   0.808
18446W        W90772  20.983  20.762  11.464
18447W        W90773  39.481   2.956   3.550
18448W        W90774  31.499  16.277   0.783
18449W        W90775  17.054  35.904   1.176
18450W        W90776   9.051  18.087  12.098
18451W        W90777  34.944  42.893   0.971
18452W        W90778  43.363   7.738  14.214
18453W        W90779  22.811  33.217  13.386
18454W        W90780   3.195  31.499  11.234
18455W        W90781  39.924  25.109  12.283
18456W        W90782  12.923  36.162  11.194
18457W        W90783  32.329  31.980   1.417
18458W        W90784  26.227  12.841   2.778
18459W        W90785  10.148   1.266  11.126
18460W        W90786  22.477  29.874   1.801
18461W        W90787   0.684  35.988   1.432
18462W        W90788   0.836  20.633   2.853
18463W        W90789   2.864   3.460   1.866
18464W        W90790  35.059  40.960   2.328
18465W        W90791   2.033  17.304   0.375
18466W        W90792  15.684  31.803   3.130
18467W        W90793   7.343  14.560   1.718
18468W        W90794  11.681   1.403   4.654
18469W        W90795  22.280  12.535   2.200
18470W        W90796  39.325  26.725   1.472
18471W        W90797  36.904  35.132   3.774
18472W        W90798  38.100  41.276   4.209
18473W        W90799  22.218  21.014  12.014
18474W        W90800  36.111  35.154  11.074
18475W        W90801  26.247  43.734   0.410
18476W        W90802  17.143   5.523   1.344
18477W        W90803   0.474  35.087   4.591
18478W        W90804  44.786  37.208  11.021
18479W        W90805   6.428  42.477  12.350
18480W        W90806  29.978  19.509  10.667
18481W        W90807  29.887  29.015  14.060
18482W        W90808  43.853  20.551  10.760
18483W        W90809  13.266   5.818  13.552
18484W        W90810  18.780  16.235   0.407
18485W        W90811  33.706  27.779  11.205
18486W        W90812  10.851  16.163   1.995
18487W        W90813  21.248  13.827   4.561
18488W        W90814  16.487  20.646  12.843
18489W        W90815  34.542  26.140  12.791
18490W        W90816   4.214  26.641  12.501
18491W        W90817  40.964   5.534  14.897
18492W        W90818  37.538  33.043   2.937
18493W        W90819  11.894  13.562   0.410
18494W        W90820  41.224  13.019   0.333
18495W        W90821  25.079  17.675   1.462
18496W        W90822  32.972  34.844   1.903
18497W        W90823  31.408  11.323   4.607
18498W        W90824  28.123  35.962   0.587
18499W        W90825  41.044  24.900  12.036
18500W        W90826  41.686   8.937  14.973
18501W        W90827  34.002   9.659  13.806
18502W        W90828  24.492  13.844   2.215
18503W        W90829  16.631   1.671   1.387
18504W        W90830   3.359  43.348   2.375
18505W        W90831   4.770  41.983  13.406
18506W        W90832  34.013  40.517   1.055
18507W        W90833  13.573  16.026  12.926
18508W        W90834   2.881  26.140   4.224
18509W        W90835  23.471  13.284  11.016
18510W        W90836   3.703  10.146   0.106
18511W        W90837  42.419  24.012   4.983
18512W        W90838  19.844  30.419  11.621
18513W        W90839  14.132   5.333  10.697
18514W        W90840   6.110   1.378   0.356
18515W        W90841  34.865  32.821  14.348
18516W        W90842  30.657  23.775   0.193
18517W        W90843   0.006  12.928  14.077
18518W        W90844  17.500   0.884   4.192
18519W        W90845   2.548   2.950   3.294
18520W        W90846   0.806   8.150   1.287
18521W        W90847   5.816  31.263  14.065
18522W        W90848  25.453   5.262   3.194
18523W        W90849  11.071  33.066  13.402
18524W        W90850  18.805  25.180  11.641
18525W        W90851  20.905  33.525   4.578
18526W        W90852  36.224  23.536   1.410
18527W        W90853  17.971  22.023   2.905
18528W        W90854  16.330  20.209   2.843
18529W        W90855  25.491  21.396  12.468
18530W        W90856  20.616   9.837   0.516
18531W        W90857  33.628  36.931  11.185
18532W        W90858  24.931  39.411  10.623
18533W        W90859   4.101  40.442  11.570
18534W        W90860  33.394   6.333   4.200
18535W        W90861  28.028  10.278   5.120
18536W        W90862  24.247  32.370   3.692
18537W        W90863   5.675  10.955  13.740
18538W        W90864   8.686  15.098   1.414
18539W        W90865  14.689  12.621   1.010
18540W        W90866  21.179  33.186  14.360
18541W        W90867  23.953  30.648   3.915
18542W        W90868  42.702   3.005   4.205
18543W        W90869   6.679  18.204   2.277
18544W        W90870  27.079  21.669  10.976
18545W        W90871  25.435   2.918   3.881
18546W        W90872  25.749   0.039  11.124
18547W        W90873  27.264  19.092  11.198
18548W        W90874  38.545  41.005  11.169
18549W        W90875  23.150  15.796  11.230
18550W        W90876  19.319  42.249   0.867
18551W        W90877  10.859  34.863  13.860
18552W        W90878   6.713  33.633   3.364
18553W        W90879  44.072  22.720  11.210
18554W        W90880  39.480  24.221   2.102
18555W        W90881  31.380  42.806  11.436
18556W        W90882  26.688   4.962   2.826
18557W        W90883   7.748  23.918   2.251
18558W        W90884  25.677   3.296  11.162
18559W        W90885  18.548  43.775  14.389
18560W        W90886  40.289  12.816   3.672
18561W        W90887  43.585  36.516   3.848
18562W        W90888  12.772   8.389   4.217
18563W        W90889  39.498  32.698   0.715
18564W        W90890  40.736   4.393   1.799
18565W        W90891  19.953  25.089   0.903
18566W        W90892  28.911  15.274  13.875
18567W        W90893  13.054  34.975  10.611
18568W        W90894  37.571  31.427  13.427
18569W        W90895  36.981   8.800   2.607
18570W        W90896  15.115  35.109   0.273
18571W        W90897  36.479   8.272  14.025
18572W        W90898  19.665   6.913   0.873
18573W        W90899  44.178  28.664  11.554
18574W        W90900   8.160  20.215  12.550
18575W        W90901  16.380  26.565   0.879
18576W        W90902  15.169  39.431   1.692
18577W        W90903  11.848   4.424  11.397
18578W        W90904  17.111  24.582  13.037
18579W        W90905  16.484  31.420   3.317
18580W        W90906  19.532  38.526  12.190
18581W        W90907  27.408   0.936  12.119
18582W        W90908  37.095  28.754   1.375
18583W        W90909  19.287  12.656  12.637
18584W        W90910   8.758  19.678   1.674
18585W        W90911   0.811  12.741   4.250
18586W        W90912  44.478  20.060  11.603
18587W        W90913  23.007  41.314  12.132
18588W        W90914  25.020  19.650   3.777
18589W        W90915   5.578   0.967   3.339
18590W        W90916   5.295  26.405   0.370
18591W        W90917   4.513  14.521  14.915
18592W        W90918  15.688  26.483   2.157
18593W        W90919  19.244  16.866   2.427
18594W        W90920  41.833  18.039  13.341
18595W        W90921  22.448  19.954  12.612
18596W        W90922  29.957   2.554  12.953
18597W        W90923  43.512   6.091   3.562
18598W        W90924  13.942  16.578  14.403
18599W        W90925  13.759  38.559   4.656
18600W        W90926  37.535  32.943  13.482
18601W        W90927  28.602  15.936  11.605
18602W        W90928   7.466  23.644  10.790
18603W        W90929   9.096  16.300   1.354
18604W        W90930  43.970  44.043   1.909
18605W        W90931  34.867   3.218   0.891
18606W        W90932  39.859  26.506   4.578
18607W        W90933   4.461   2.935  13.420
18608W        W90934  20.743  11.614   4.095
18609W        W90935  30.572  10.367   4.571
18610W        W90936  12.924  21.268  11.010
18611W        W90937   7.763  34.539  14.224
18612W        W90938  37.103  44.375  10.846
18613W        W90939  16.921  11.728  11.052
18614W        W90940  13.596  13.242   2.396
18615W        W90941   9.547  31.541  12.161
18616W        W90942  32.078  29.417  11.963
18617W        W90943  36.898  40.054   0.866
18618W        W90944  24.518  16.059  14.043
18619W        W90945  32.140  16.283  13.383
18620W        W90946  18.634  15.481   4.690
18621W        W90947  28.998   1.100   3.771
18622W        W90948  10.590  23.203  13.855
18623W        W90949  11.335  27.673  13.749
18624W        W90950  13.191   4.309   1.975
18625W        W90951  19.856   6.409   0.872
18626W        W90952  29.004  24.974  11.120
18627W        W90953   0.819  22.823   2.079
18628W        W90954  18.650  39.292   3.634
18629W        W90955   8.205  26.905  11.951
18630W        W90956  20.767  30.161  12.635
18631W        W90957  31.635  23.982   0.717
18632W        W90958  10.181   0.777   0.803
18633W        W90959   2.579  27.264  11.967
18634W        W90960  10.120  42.290  14.003
18635W        W90961   5.643  37.952  10.923
18636W        W90962   3.077  38.023  14.997
18637W        W90963  17.545  11.386  10.664
18638W        W90964  13.583  15.181   1.269
18639W        W90965   6.341  22.726  14.339
18640W        W90966  44.105   6.644   4.145
18641W        W90967  17.603  35.562   0.411
18642W        W90968  26.443   6.298  11.797
18643W        W90969  41.927  21.924  11.468
18644W        W90970  15.182   3.490   3.892
18645W        W90971   8.798  16.614   1.667
18646W        W90972  25.574  19.374  10.760
18647W        W90973  23.334  20.559  13.413
18648W        W90974   6.178   9.240  11.971
18649W        W90975  33.426  27.456  12.131
18650W        W90976  17.740  30.638   2.672
18651W        W90977  10.242  27.713   3.206
18652W        W90978  26.939  22.268   4.160
18653W        W90979  14.850  13.517  10.723
18654W        W90980   5.722   9.109  10.354
18655W        W90981  12.523  22.208  14.410
18656W        W90982  16.857  16.812  11.494
18657W        W90983  33.685   4.845   1.268
18658W        W90984  28.596  13.314   2.329
18659W        W90985  21.958   4.332   0.313
18660W        W90986   5.166  20.431  14.264
18661W        W90987   3.174  41.729  10.590
18662W        W90988   8.659  39.522   0.368
18663W        W90989  31.879   9.478   3.230
18664W        W90990  30.586  18.625  12.190
18665W        W90991  30.948  34.417  11.024
18666W        W90992  27.176  29.430  13.988
18667W        W90993  25.067  41.458  14.936
18668W        W90994  12.013  33.864   3.374
18669W        W90995  31.595   9.708   3.645
18670W        W90996   0.863   3.838  12.588
18671W        W90997  13.303  44.113  10.753
18672W        W90998   9.934  29.888   5.144
18673W        W90999  39.042  13.480  11.015
18674W        W91000  34.461  29.831   4.036
18675W        W91001  14.546  32.017  10.423
18676W        W91002  37.337  17.627  13.898
18677W        W91003   5.575  21.624  12.455
18678W        W91004   8.945  22.221   4.067
18679W        W91005  20.725  24.030  12.064
18680W        W91006  15.072   8.959  11.197
18681W        W91007  31.039  36.014   3.295
18682W        W91008   0.005   4.781   4.039
18683W        W91009  40.145  26.149  13.137
18684W        W91010  17.749  19.249   0.445
18685W        W91011  31.687  39.954  12.653
18686W        W91012  30.016  22.568  14.332
18687W        W91013  17.343  35.289  11.691
18688W        W91014  41.570  12.638   4.182
18689W        W91015  38.234  10.144   4.346
18690W        W91016   9.234  16.635   2.481
18691W        W91017  29.954  34.632   0.290
18692W        W91018  21.801  11.303   0.625
18693W        W91019  18.589  31.100   2.378
18694W        W91020  38.064  15.548  12.491
18695W        W91021  33.823  31.473   5.004
18696W        W91022  42.333   3.627   1.712
18697W        W91023  40.557  28.578  13.928
18698W        W91024  15.038  29.031  14.761
18699W        W91025  25.175  29.909   4.543
18700W        W91026  40.460  17.677  13.469
18701W        W91027  32.595  21.695  11.495
18702W        W91028   0.675  18.052   1.233
18703W        W91029  35.570  43.289  10.638
18704W        W91030   9.275  26.492   3.620
18705W        W91031  16.962  25.163  14.296
18706W        W91032  15.021   7.303   3.573
18707W        W91033  24.222  28.643   0.222
18708W        W91034  22.552   8.421  13.122
18709W        W91035  37.463  40.998   3.157
18710W        W91036   6.718  40.837   2.150
18711W        W91037  12.584  15.500  11.703
18712W        W91038  20.987  33.320  11.391
18713W        W91039  18.693  11.929   1.718
18714W        W91040  18.546  21.596   3.835
18715W        W91041  23.192   2.765  10.622
18716W        W91042  28.104  25.621  14.881
18717W        W91043  26.398  26.182  12.491
18718W        W91044   0.703  39.420  14.929
18719W        W91045  26.079  34.830   4.598
18720W        W91046   0.601  12.609   2.775
18721W        W91047   7.085  30.022  14.849
18722W        W91048  35.107  32.565   4.191
18723W        W91049  27.097  34.901  10.545
18724W        W91050  19.178  10.257  14.030
18725W        W91051  30.990  21.077  11.151
18726W        W91052  10.705  39.656   1.839
18727W        W91053  10.849  28.902  13.972
18728W        W91054   8.411  25.433   3.706
18729W        W91055  20.543  23.596   3.119
18730W        W91056  25.899  39.550   2.742
18731W        W91057   1.816  12.522  12.319
18732W        W91058  30.368  37.833   2.030
18733W        W91059  22.547  33.978  14.434
18734W        W91060  25.798  17.662   2.574
18735W        W91061  19.516  30.815   2.376
18736W        W91062  41.260  17.695   4.129
18737W        W91063  17.655  37.870  12.167
18738W        W91064  26.045   3.466   4.775
18739W        W91065   3.327  21.509  11.514
18740W        W91066  11.897  38.126  11.708
18741W        W91067  26.891   0.380   2.903
18742W        W91068  43.516  34.903  12.967
18743W        W91069   5.013  28.950   1.383
18744W        W91070   0.391  12.192   0.161
18745W        W91071  38.260  34.674  12.427
18746W        W91072  33.942  43.962   1.374
18747W        W91073  32.394  42.746   1.876
18748W        W91074  42.958  25.269  14.841
18749W        W91075  32.118  10.219   1.957
18750W        W91076  24.284  31.772   5.167
18751W        W91077  33.911  44.244  14.051
18752W        W91078  23.902  26.979   1.557
18753W        W91079  28.570   2.949   0.230
18754W        W91080  28.282   5.159  10.465
18755W        W91081  26.230  39.771  14.116
18756W        W91082  23.905  13.329   3.020
18757W        W91083  20.040  36.081   2.615
18758W        W91084  12.778  41.001  12.076
18759W        W91085   6.475  20.153  13.504
18760W        W91086  32.416  24.539  12.880
18761W        W91087  27.925  16.283  11.204
18762W        W91088   6.761  43.478   0.542
18763W        W91089  25.534  24.287   1.469
18764W        W91090  30.394  40.828   0.940
18765W        W91091  15.123  23.216   4.642
18766W        W91092  28.341  35.515   1.311
18767W        W91093   5.620  20.253  13.922
18768W        W91094   4.445  25.589   2.400
18769W        W91095   9.705  36.820  12.973
18770W        W91096  18.251  36.560  12.662
18771W        W91097  13.765  22.602  13.918
18772W        W91098   3.417   5.964   4.163
18773W        W91099  20.192  17.378  13.120
18774W        W91100  37.560  23.571   4.686
18775W        W91101   5.686  40.790   0.209
18776W        W91102  26.783  22.910  14.859
18777W        W91103  38.802  22.918   0.779
18778W        W91104  11.809  43.482  14.817
18779W        W91105  20.270  33.665  10.998
18780W        W91106  26.573  20.210  10.641
18781W        W91107  18.702   0.744   2.908
18782W        W91108  28.410   3.997   1.450
18783W        W91109  31.598  39.904   1.398
18784W        W91110   2.279  18.060  11.720
18785W        W91111  13.576   7.683  13.973
18786W        W91112  36.120   3.940  11.524
18787W        W91113  20.204   0.849  14.512
18788W        W91114  17.675  32.610  13.113
18789W        W91115   3.779   8.679  11.206
18790W        W91116  19.184   9.156  11.617
18791W        W91117  24.297  21.549  11.079
18792W        W91118  16.155  15.113   4.144
18793W        W91119  28.256   5.351  14.384
18794W        W91120  20.807   5.800  13.851
18795W        W91121  31.488  27.387  12.568
18796W        W91122   3.303  15.840   3.785
18797W        W91123   1.031  35.453  14.774
18798W        W91124  43.571  27.160  12.550
18799W        W91125  37.090  30.233   0.385
18800W        W91126  42.080  28.678  13.035
18801W        W91127  31.995  33.352   5.002
18802W        W91128  31.414  14.563  12.902
18803W        W91129  33.685  34.672   1.867
18804W        W91130   8.818   9.898  11.975
18805W        W91131  10.781  21.486  12.980
18806W        W91132  39.973  21.772  13.164
18807W        W91133  19.589  26.395   3.902
18808W        W91134  38.066   7.000  12.985
18809W        W91135  29.586  18.798  11.067
18810W        W91136  10.028  38.600  13.816
18811W        W91137  15.134   1.184   4.098
18812W        W91138  21.166  27.996   0.317
18813W        W91139  26.802  27.693  13.705
18814W        W91140  30.677  40.936   1.408
18815W        W91141  35.650  29.037   3.105
18816W        W91142   8.761  10.849   4.633
18817W        W91143   1.443  11.644   2.556
18818W        W91144  12.891  12.568   0.214
18819W        W91145  22.303  33.392  11.892
18820W        W91146  19.343   1.066  13.493
18821W        W91147  14.652  35.230  10.114
18822W        W91148  17.440   7.097   3.314
18823W        W91149   4.627  14.315  10.540
18824W        W91150  16.050   3.822   0.786
18825W        W91151  36.895   9.877   2.720
18826W        W91152  12.844  16.197  10.728
18827W        W91153  14.179  16.598   4.682
18828W        W91154  15.746   3.793  13.902
18829W        W91155  15.356  19.757   0.245
18830W        W91156   6.526   3.716  14.831
18831W        W91157  21.800  11.700   0.959
18832W        W91158  20.950   8.242   0.749
18833W        W91159   5.703   5.139   3.250
18834W        W91160   0.385  35.509  11.614
18835W        W91161  23.229   5.708  11.114
18836W        W91162  24.614  35.645   3.806
18837W        W91163  21.190  40.884  11.617
18838W        W91164  26.714  37.788  11.895
18839W        W91165  29.517  27.217  14.273
18840W        W91166  16.154  27.676   3.946
18841W        W91167   7.420  30.285  11.824
18842W        W91168  18.087  20.140  11.641
18843W        W91169  26.426   6.854  14.168
18844W        W91170  12.821  20.813   4.240
18845W        W91171   5.657  19.594   2.877
18846W        W91172  38.828  31.483  10.177
18847W        W91173  31.579  16.720   3.552
18848W        W91174  23.557   8.177  13.132
18849W        W91175  25.705  17.938  14.700
18850W        W91176  32.417   8.190   1.960
18851W        W91177  42.451  44.494  12.068
18852W        W91178  32.184  39.862  14.422
18853W        W91179  26.237  44.173  12.338
18854W        W91180  24.548  33.510   2.217
18855W        W91181  19.327  37.885  13.005
18856W        W91182   2.611  30.754   1.685
18857W        W91183  40.949  23.890   0.294
18858W        W91184   7.796   5.864   2.733
18859W        W91185  34.644  17.195   1.049
18860W        W91186  20.681  32.439  13.339
18861W        W91187   8.811  24.949  13.535
18862W        W91188  14.946  34.856   4.939
18863W        W91189  17.570  36.012   1.316
18864W        W91190  10.254  43.451   2.402
18865W        W91191   5.431   8.610   1.746
18866W        W91192  37.619  10.287   0.833
18867W        W91193   6.936  38.144   4.123
18868W        W91194  12.583  18.516  13.540
18869W        W91195   2.682  25.635   0.481
18870W        W91196  12.233   6.235   2.336
18871W        W91197  12.881  13.804   2.392
18872W        W91198  25.003  23.302  10.988
18873W        W91199  17.778  23.114  13.105
18874W        W91200  38.671  33.011   1.396
18875W        W91201  26.973  36.110  14.387
18876W        W91202  24.678  29.712   2.897
18877W        W91203  43.755  28.505   4.576
18878W        W91204  23.252  39.197   5.058
18879W        W91205  40.378  30.827   1.140
18880W        W91206  27.050   2.674  10.896
18881W        W91207  17.750  28.423   4.719
18882W        W91208  23.653  28.734   3.244
18883W        W91209   2.703  43.401   0.666
18884W        W91210  41.401   0.219   2.654
18885W        W91211  33.623  13.367  11.698
18886W        W91212  13.762  26.696  12.000
18887W        W91213  33.942  31.342  12.415
18888W        W91214   5.856  44.606  13.647
18889W        W91215   0.803  26.207  12.678
18890W        W91216   6.835  28.325   2.112
18891W        W91217  33.100  15.043  10.967
18892W        W91218  44.645  15.291  13.898
18893W        W91219  27.790  31.145   2.374
18894W        W91220  14.847   3.530  11.172
18895W        W91221   0.839  11.200   0.655
18896W        W91222  41.556   0.853   3.123
18897W        W91223  24.579  13.945  10.958
18898W        W91224  31.990  40.994  12.528
18899W        W91225  23.687  13.499  12.409
18900W        W91226  43.766  32.561  12.845
18901W        W91227  39.070  36.073   2.744
18902W        W91228  11.273  30.897  10.977
18903W        W91229  42.518  11.321   0.939
18904W        W91230  20.181  20.206   2.376
18905W        W91231   6.680  36.132   3.740
18906W        W91232  28.907   2.294  11.986
18907W        W91233  40.036   7.761  13.406
18908W        W91234  26.035  36.560  14.653
18909W        W91235  42.385   9.366  11.486
18910W        W91236  43.500  14.615   3.081
18911W        W91237  14.232   1.347   2.329
18912W        W91238  33.006  30.625  12.947
18913W        W91239  32.341  25.033  13.079
18914W        W91240  35.565  23.243   4.772
18915W        W91241  14.787  17.508   1.940
18916W        W91242  43.409   5.371  11.637
18917W        W91243  44.192   8.616   1.555
18918W        W91244   3.268  29.520  14.799
18919W        W91245  16.803  19.062   1.685
18920W        W91246   6.310  34.513   2.387
18921W        W91247  21.446  19.924   2.775
18922W        W91248   6.228  30.309   3.913
18923W        W91249   9.893  10.839   4.663
18924W        W91250   9.840  31.010   1.614
18925W        W91251  31.500   9.743   4.697
18926W        W91252  44.336  30.718   1.786
18927W        W91253  24.079  28.437   1.513
18928W        W91254  33.986  33.008  10.685
18929W        W91255  14.916   1.710   0.922
18930W        W91256  36.462  18.534  13.450
18931W        W91257  36.000  36.644   3.116
18932W        W91258  40.221   1.746  14.915
18933W        W91259  26.148  16.196  10.935
18934W        W91260   6.096  28.421   0.893
18935W        W91261   4.933   7.192   1.762
18936W        W91262  24.559  25.272  13.928
18937W        W91263  14.527   2.345   3.257
18938W        W91264  17.781  12.843   0.571
18939W        W91265  13.895  41.804   3.934
18940W        W91266  32.672  15.109   3.179
18941W        W91267  24.895  36.491   0.858
18942W        W91268   4.462  23.262  10.733
18943W        W91269  35.796   0.732  11.659
18944W        W91270   5.700  14.118  11.491
18945W        W91271  14.857  41.009   3.317
18946W        W91272   2.682  37.421   1.011
18947W        W91273  31.145  33.802   2.491
18948W        W91274   0.877  24.991  12.345
18949W        W91275  36.950   0.401  13.968
18950W        W91276  42.729   1.957   1.155
18951W        W91277  35.614  26.784  14.804
18952W        W91278  33.853  35.506  12.820
18953W        W91279  36.504  35.716  12.507
18954W        W91280  20.482  27.450   3.680
18955W        W91281  38.401  17.297  13.547
18956W        W91282  36.945   4.835  10.734
18957W        W91283  34.126  23.315  14.484
18958W        W91284  31.578   1.472  13.095
18959W        W91285  27.276  14.168   4.476
18960W        W91286  23.671  19.850   0.786
18961W        W91287  18.558  16.258  11.733
18962W        W91288  37.805  37.373  11.713
18963W        W91289   0.226   5.923  14.502
18964W        W91290  27.934   2.831  13.843
18965W        W91291  34.469  25.432   3.332
18966W        W91292  31.888  11.273   4.313
18967W        W91293  32.559  11.344  12.439
18968W        W91294  17.093  11.233  12.617
18969W        W91295  24.525  24.913   2.780
18970W        W91296  32.116  32.973   2.429
18971W        W91297  26.538  37.580  11.450
18972W        W91298  27.084  10.613  13.911
18973W        W91299   1.223  14.592  10.732
18974W        W91300  39.515  13.756   1.528
18975W        W91301  33.053   6.050   1.192
18976W        W91302  31.578  38.757  14.256
18977W        W91303  13.817  41.839  12.892
18978W        W91304  18.072  33.904   2.312
18979W        W91305  23.349   1.278   3.106
18980W        W91306  26.684  24.702  11.852
18981W        W91307  12.261  10.604  14.502
18982W        W91308  33.746  28.944  13.391
18983W        W91309  26.554  12.154   3.347
18984W        W91310  33.155  38.446   3.897
18985W        W91311  37.534  25.121   0.069
18986W        W91312  16.565   5.875   0.900
18987W        W91313  21.191   8.217   1.668
18988W        W91314  18.748   1.646   1.925
18989W        W91315  20.530   5.832   0.662
18990W        W91316   2.384  23.034   0.751
18991W        W91317  44.220  37.053  11.827
18992W        W91318  39.005  36.835  13.518
18993W        W91319  23.463  42.935  14.419
18994W        W91320  30.628  30.618   4.995
18995W        W91321  41.866  37.963   4.054
18996W        W91322   4.694  25.228   3.170
18997W        W91323  20.169  28.623  14.219
18998W        W91324   6.603  17.941  13.369
18999W        W91325   5.779  37.540  14.067
19000W        W91326  41.520  38.471   3.381
19001W        W91327  31.344  25.948  13.218
19002W        W91328  29.880  28.126  10.238
19003W        W91329  24.720  39.432   4.466
19004W        W91330  41.923  17.193  10.539
19005W        W91331  13.371   2.076  11.868
19006W        W91332  27.604  41.275  11.512
19007W        W91333  13.041  38.444  14.263
19008W        W91334  15.986  16.769   1.271
19009W        W91335  26.738  15.319  13.565
19010W        W91336  17.780   3.016  11.376
19011W        W91337  37.242   1.748  12.935
19012W        W91338  16.985  35.650  11.607
19013W        W91339  34.536  44.336   4.135
19014W        W91340  14.602  11.196  12.214
19015W        W91341  17.321  34.681   0.202
19016W        W91342   5.639  19.139  12.999
19017W        W91343  15.567  38.029  11.919
19018W        W91344  12.843  11.346   1.349
19019W        W91345   0.224  36.988   1.502
19020W        W91346   6.364  35.658   1.675
19021W        W91347  16.748  35.186  11.490
19022W        W91348   2.838   4.255   2.334
19023W        W91349  40.321  10.248   0.475
19024W        W91350  38.335   0.760   3.301
19025W        W91351  17.300   2.094  10.145
19026W        W91352  23.697  25.469   3.812
19027W        W91353  36.333   1.436   4.825
19028W        W91354  43.033  26.966   0.003
19029W        W91355  41.905  23.029  10.574
19030W        W91356   7.553  41.592  12.837
19031W        W91357   7.778  15.745   0.324
19032W        W91358   4.869   7.639   2.361
19033W        W91359  40.923  14.300  13.233
19034W        W91360  26.072  10.776   3.597
19035W        W91361  17.043   2.389   1.224
19036W        W91362  12.765   7.474  14.284
19037W        W91363  18.835  16.294  12.183
19038W        W91364  18.252  12.545   0.296
19039W        W91365  40.981  24.967   1.932
19040W        W91366  39.531   6.696   2.668
19041W        W91367  40.755  33.990   1.703
19042W        W91368   4.490  39.368   0.440
19043W        W91369  14.324  43.739  13.307
19044W        W91370   0.850  18.508   3.916
19045W        W91371  19.613   8.301  11.040
19046W        W91372  37.919  20.036   4.876
19047W        W91373  42.573  36.328   1.354
19048W        W91374   6.889  39.733   3.185
19049W        W91375   0.693  29.980   2.841
19050W        W91376  32.530  18.761  11.806
19051W        W91377  25.253   8.166  10.746
19052W        W91378   8.875   7.505  12.910
19053W        W91379  38.427  11.838  14.967
19054W        W91380   4.994  29.044  11.036
19055W        W91381   2.319   1.478   3.372
19056W        W91382  14.739   8.132   2.357
19057W        W91383  14.869   1.724  12.040
19058W        W91384  41.388  15.892  10.528
19059W        W91385  41.724  23.224   3.695
19060W        W91386   7.650  32.881   3.773
19061W        W91387  41.574  15.990   4.541
19062W        W91388  23.053  22.178  12.145
19063W        W91389  17.056  34.514  10.710
19064W        W91390  22.296  34.417  10.633
19065W        W91391  19.148  29.975   3.179
19066W        W91392  21.137   0.831   3.610
19067W        W91393  19.390  31.379  12.817
19068W        W91394  11.761  25.006   5.506
19069W        W91395  23.018  24.403  13.419
19070W        W91396  14.956  35.618  10.300
19071W        W91397  22.083  41.764  11.912
19072W        W91398  25.745  32.540  12.760
19073W        W91399  27.952   4.333   0.821
19074W        W91400  18.320  44.497  11.220
19075W        W91401  25.999   4.822   9.983
19076W        W91402  28.502   5.728  12.866
19077W        W91403  10.341  23.597  12.407
19078W        W91404  35.140  20.553  14.406
19079W        W91405   8.207  42.804  12.171
19080W        W91406  34.460   0.411   1.155
19081W        W91407  17.691  22.765   3.593
19082W        W91408  16.106  13.708  14.295
19083W        W91409  26.420  19.067   2.867
19084W        W91410  32.564  17.840  14.881
19085W        W91411  29.560   7.207   2.905
19086W        W91412   2.083   8.959  12.026
19087W        W91413   1.056  43.000  11.653
19088W        W91414  44.737   9.875  11.615
19089W        W91415  24.714   6.422   3.230
19090W        W91416   8.797  42.752   2.067
19091W        W91417  43.200  19.057   2.713
19092W        W91418  34.335  20.252  13.429
19093W        W91419   3.286  26.929  11.537
19094W        W91420  17.055  41.501  11.779
19095W        W91421  11.420  31.905  10.481
19096W        W91422  28.651   8.919  12.595
19097W        W91423  43.892  40.341  14.005
19098W        W91424  10.243  14.189   0.210
19099W        W91425  37.353  24.561  11.866
19100W        W91426  15.366  28.675  14.992
19101W        W91427  18.003  43.519  11.337
19102W        W91428  28.860  20.056   4.243
19103W        W91429  12.106  17.143   0.330
19104W        W91430   7.185  38.617  13.295
19105W        W91431   8.630  27.579  13.839
19106W        W91432  44.223  27.460  14.148
19107W        W91433  38.729  16.366   0.980
19108W        W91434  13.147   4.348   1.454
19109W        W91435  21.204  19.569  12.024
19110W        W91436   4.177   5.782  13.542
19111W        W91437  16.722   8.466   0.449
19112W        W91438   2.318   0.301  10.653
19113W        W91439   2.404  44.284   1.900
19114W        W91440  28.874  13.889   1.355
19115W        W91441  38.622  14.588   2.412
19116W        W91442   8.556  21.811   0.256
19117W        W91443  37.886  10.362  13.312
19118W        W91444  32.521   8.882   4.115
19119W        W91445  29.106  10.827  14.111
19120W        W91446  28.504  11.645   2.211
19121W        W91447  25.398  23.081   1.929
19122W        W91448  34.431  15.832  12.990
19123W        W91449  15.184   5.916  11.010
19124W        W91450  15.821  10.280  12.837
19125W        W91451  10.073  29.971  14.846
19126W        W91452  17.968  21.204  14.359
19127W        W91453  15.712  15.191  10.654
19128W        W91454   6.939  42.313   0.653
19129W        W91455  13.625  43.049  13.874
19130W        W91456  35.005   8.274  12.207
19131W        W91457  13.280  32.826  14.275
19132W        W91458  32.884  44.402  12.469
19133W        W91459  10.341  26.618  12.038
19134W        W91460   8.138   4.760  11.055
19135W        W91461  28.656  12.291  14.248
19136W        W91462  29.870  29.090  13.108
19137W        W91463  26.107  17.592   5.388
19138W        W91464   7.710  31.689  11.072
19139W        W91465  42.552  27.753  11.612
19140W        W91466  18.815  41.675   5.010
19141W        W91467   9.203  38.279   0.277
19142W        W91468  33.198  38.892   4.195
19143W        W91469  31.647  25.328   4.259
19144W        W91470  11.149   6.908  10.651
19145W        W91471   8.377  33.707   1.782
19146W        W91472  28.929  19.099   0.837
19147W        W91473  13.629   0.952   5.081
19148W        W91474  13.680  23.227  13.050
19149W        W91475  42.067  29.023   4.485
19150W        W91476   9.990  42.867   0.515
19151W        W91477   0.857  41.711   0.960
19152W        W91478  30.044  11.909  10.663
19153W        W91479   3.447   0.986  11.593
19154W        W91480   8.370  37.326  11.499
19155W        W91481  35.620   8.392  11.569
19156W        W91482  27.643  13.614   2.719
19157W        W91483  15.537  35.892  12.440
19158W        W91484  16.754   5.244  12.513
19159W        W91485  23.108   8.131  14.942
19160W        W91486  19.027  20.141  12.595
19161W        W91487  18.696  34.351   1.922
19162W        W91488  19.646  10.198   0.369
19163W        W91489   1.685   0.798  13.101
19164W        W91490  36.946  37.592   3.629
19165W        W91491  32.504  38.150   1.903
19166W        W91492  18.062  21.427   3.683
19167W        W91493   2.455  32.401   0.286
19168W        W91494  37.534  25.801   3.197
19169W        W91495   1.946   9.966   9.856
19170W        W91496  19.358   1.747   3.637
19171W        W91497  27.243   3.366   2.901
19172W        W91498  24.992  14.239  14.320
19173W        W91499   8.010  43.756  10.738
19174W        W91500   7.771   2.483   3.663
19175W        W91501  26.716  32.377  12.916
19176W        W91502   1.173  24.312   3.140
19177W        W91503  12.084  20.803  14.340
19178W        W91504  14.682   3.568   4.079
19179W        W91505  14.167  13.154   4.627
19180W        W91506  21.408  28.716   1.676
19181W        W91507  43.896  14.352  10.941
19182W        W91508  19.283  27.505  12.877
19183W        W91509  33.062  30.385  10.814
19184W        W91510  24.223  43.005   3.510
19185W        W91511   9.762  40.280   4.793
19186W        W91512   3.235  20.468  11.968
19187W        W91513  13.249  43.316   3.468
19188W        W91514  11.160  35.915   2.217
19189W        W91515  35.127  44.575  13.075
19190W        W91516   1.443  40.005  11.127
19191W        W91517  30.162  20.122  13.912
19192W        W91518  15.062  11.097  12.002
19193W        W91519  16.849  44.705   3.638
19194W        W91520  13.116   3.420  14.518
19195W        W91521  38.513   8.408  12.958
19196W        W91522   8.932  24.722   0.986
19197W        W91523  13.285  37.694   4.311
19198W        W91524  40.545  19.223  14.957
19199W        W91525  38.845  20.582   1.402
19200W        W91526  12.172  26.945  10.211
19201W        W91527  22.054  14.367  12.929
19202W        W91528   2.666  21.302  12.680
19203W        W91529   0.306  36.512  14.708
19204W        W91530  12.190  18.413   1.363
19205W        W91531   1.363  11.846  14.055
19206W        W91532  13.600  28.892  12.950
19207W        W91533   6.452  35.329  12.943
19208W        W91534   8.688  11.894   3.287
19209W        W91535  18.639  12.431  10.557
19210W        W91536  22.598  38.047  10.225
19211W        W91537  12.198  19.618  14.053
19212W        W91538  42.355  12.078   4.192
19213W        W91539  29.972   9.960  11.634
19214W        W91540   1.954  34.428   2.697
19215W        W91541  42.030   8.219  11.956
19216W        W91542   8.786  27.141   1.800
19217W        W91543  34.358  37.646  12.393
19218W        W91544  35.858  21.980  13.463
19219W        W91545   8.768  42.185   0.920
19220W        W91546   2.324  11.639   1.898
19221W        W91547  43.549  23.095   2.693
19222W        W91548  12.184  29.459   2.935
19223W        W91549  25.849  34.682  10.137
19224W        W91550  25.987  29.646   1.391
19225W        W91551  41.030  37.923  12.131
19226W        W91552  43.347   2.679  12.716
19227W        W91553  19.119  15.582   0.738
19228W        W91554  10.548  41.356  12.897
19229W        W91555  38.855  35.893   3.868
19230W        W91556  10.885  20.698   2.864
19231W        W91557  30.029  34.083   4.140
19232W        W91558  18.641  28.181   5.091
19233W        W91559  32.674  31.726   3.677
19234W        W91560   9.842  38.707  14.290
19235W        W91561  12.069   3.293   0.173
19236W        W91562   6.309   0.305   3.858
19237W        W91563   3.840  14.241   0.996
19238W        W91564   7.122  16.082  13.295
19239W        W91565  25.024  10.594  14.795
19240W        W91566  38.337  13.197  11.437
19241W        W91567   8.676  29.501  13.992
19242W        W91568  13.298  33.564  12.911
19243W        W91569  43.952  30.476   0.157
19244W        W91570  21.357  17.110   5.140
19245W        W91571  12.736  27.327   0.585
19246W        W91572  22.339  31.650  10.692
19247W        W91573  34.517  36.254   4.226
19248W        W91574  12.762  23.735   4.598
19249W        W91575   8.766   7.283  14.474
19250W        W91576  16.828  42.904  14.284
19251W        W91577  31.592  21.242  12.835
19252W        W91578  37.291  33.387  12.494
19253W        W91579  44.678  26.468  14.481
19254W        W91580  36.681  31.735  13.835
19255W        W91581  31.377   1.737   1.889
19256W        W91582  32.520  42.382   1.522
19257W        W91583  29.599  38.586  14.516
19258W        W91584   5.024  34.098  12.312
19259W        W91585  38.443  44.570   3.700
19260W        W91586   4.662  10.163   0.069
19261W        W91587  44.894  16.264   3.832
19262W        W91588   6.940  26.911  12.394
19263W        W91589   4.421  15.181  10.956
19264W        W91590  42.247   8.241  13.293
19265W        W91591   6.454   8.949  14.895
19266W        W91592   8.216  15.381  14.400
19267W        W91593  34.610  14.808  13.821
19268W        W91594  14.353  27.072  13.345
19269W        W91595  13.316  35.832  12.967
19270W        W91596  20.545  15.074   0.467
19271W        W91597  18.537  28.999   0.762
19272W        W91598  32.963  35.160   4.340
19273W        W91599  16.721   6.936  11.841
19274W        W91600  37.002  37.801  14.977
19275W        W91601  24.997  36.526  11.135
19276W        W91602   9.675   1.388  10.899
19277W        W91603   5.840   5.654   3.171
19278W        W91604  15.741  44.033  10.499
19279W        W91605  43.482  28.495   2.443
19280W        W91606  35.845  23.562  12.935
19281W        W91607  18.109   8.897   0.737
19282W        W91608  38.359  26.730   2.788
19283W        W91609  43.510  10.883   3.270
19284W        W91610   4.635  18.003   2.624
19285W        W91611  31.595  27.539   1.708
19286W        W91612   7.424  36.540  12.444
19287W        W91613  42.251  10.230  10.912
19288W        W91614  19.006  27.124   1.467
19289W        W91615   7.117  19.791  11.994
19290W        W91616  16.032  26.404  12.586
19291W        W91617  20.904   1.042  11.433
19292W        W91618   4.898   1.835   0.557
19293W        W91619   3.855  18.786   2.318
19294W        W91620  24.539   0.413  11.840
19295W        W91621  27.459  31.133   3.198
19296W        W91622  14.285   9.392   1.170
19297W        W91623  18.570  33.525  12.989
19298W        W91624  42.404  33.636  14.580
19299W        W91625  34.422  26.220   2.823
19300W        W91626  42.548  25.701  13.439
19301W        W91627   9.752   8.141   2.720
19302W        W91628  41.946  36.323   0.526
19303W        W91629   4.421  26.204  14.818
19304W        W91630  44.897   0.536   3.695
19305W        W91631  22.201   2.442   3.686
19306W        W91632  10.781  34.210   3.445
19307W        W91633  27.133   2.311  12.647
19308W        W91634  12.208  30.696  11.608
19309W        W91635  12.510  14.707  13.464
19310W        W91636  14.330  27.056   5.584
19311W        W91637  31.053  11.949  11.680
19312W        W91638  24.053   4.929  11.001
19313W        W91639   5.371   0.911   2.844
19314W        W91640  26.324  17.074  11.056
19315W        W91641  39.809   7.380  11.489
19316W        W91642   0.536  44.420  14.969
19317W        W91643  35.750  42.474  11.487
19318W        W91644  28.636  31.966   5.128
19319W        W91645  43.769   7.715   1.718
19320W        W91646  16.116   7.369  13.415
19321W        W91647  18.076  38.854  11.197
19322W        W91648  20.972   7.273   2.133
19323W        W91649  20.258  40.667  11.658
19324W        W91650   8.743  43.955   3.132
19325W        W91651  13.106   4.940  14.700
19326W        W91652  21.561   9.529  11.943
19327W        W91653  20.497   7.327  12.978
19328W        W91654  38.874  21.823   4.107
19329W        W91655  38.527  24.067  11.593
19330W        W91656   8.625  17.639  14.853
19331W        W91657  25.499   1.431  14.498
19332W        W91658  27.398   7.964   1.376
19333W        W91659   2.282  28.635   4.907
19334W        W91660  39.264  13.823   1.073
19335W        W91661   4.009  32.470   1.362
19336W        W91662   7.966  34.588  11.883
19337W        W91663   3.338  16.119   4.247
19338W        W91664  36.034  23.240   2.755
19339W        W91665  39.974   6.031  10.992
19340W        W91666   9.644   4.868  12.167
19341W        W91667  38.827  13.213   3.150
19342W        W91668  15.301  38.912  14.793
19343W        W91669  29.065   0.039   1.435
19344W        W91670   3.017  24.243   2.766
19345W        W91671  33.549  40.377  10.673
19346W        W91672  25.081   5.798  10.391
19347W        W91673  27.621  35.969   3.665
19348W        W91674  31.532  31.110   1.716
19349W        W91675  14.793  39.821   2.820
19350W        W91676  26.029  35.644  14.387
19351W        W91677   5.022  44.078  12.110
19352W        W91678  26.194  31.313  11.125
19353W        W91679  20.028   2.507  13.061
19354W        W91680   5.829  34.103  14.813
19355W        W91681  32.631   5.903  10.602
19356W        W91682   1.006   7.459  12.534
19357W        W91683   7.664   4.134  11.158
19358W        W91684  12.101  15.256  11.838
19359W        W91685  34.145  30.678   4.050
19360W        W91686   9.025   2.787   5.288
19361W        W91687  14.244  29.319   2.184
19362W        W91688  13.961  37.640   2.249
19363W        W91689  38.409  41.537  14.496
19364W        W91690  15.581  14.534  13.456
19365W        W91691  44.403  20.613   9.694
19366W        W91692  43.895  26.437  13.950
19367W        W91693  42.509   3.398   2.165
19368W        W91694  18.045  11.241  12.433
19369W        W91695  10.665  29.914   0.940
19370W        W91696  12.256  33.348   2.594
19371W        W91697  23.885  25.309  11.047
19372W        W91698  30.840  32.148  11.052
19373W        W91699   0.598  37.290  11.030
19374W        W91700  43.052  16.198   4.508
19375W        W91701  26.024  35.373   3.678
19376W        W91702  14.081  42.688   1.354
19377W        W91703  42.240  15.641  14.758
19378W        W91704  33.482  30.446  11.131
19379W        W91705   2.167  32.151  11.636
19380W        W91706  30.157  36.794   4.770
19381W        W91707  29.393   8.899   3.212
19382W        W91708  18.968  39.826  14.941
19383W        W91709  17.629  44.289  14.403
19384W        W91710   8.369   5.235   4.620
19385W        W91711  32.656  33.309   1.735
19386W        W91712  24.963  18.945   2.861
19387W        W91713  35.164   4.363   1.840
19388W        W91714  43.902  40.570  14.474
19389W        W91715   1.118  44.687  11.654
19390W        W91716  35.368   0.805   3.935
19391W        W91717  39.771  19.094  12.658
19392W        W91718  25.857  31.905   3.362
19393W        W91719  17.649  30.905   1.327
19394W        W91720  40.459  27.228   0.246
19395W        W91721  30.660   0.489  13.958
19396W        W91722  34.080   4.250  12.835
19397W        W91723  27.927  19.184   1.118
19398W        W91724  32.181  32.954  12.021
19399W        W91725  21.082  14.893  13.863
19400W        W91726  32.151  23.226  11.207
19401W        W91727  36.813  19.484   3.207
19402W        W91728  14.181  17.378  12.584
19403W        W91729  20.510  36.100  12.985
19404W        W91730  26.350  24.700  13.094
19405W        W91731  26.511  25.232  10.391
19406W        W91732  10.784   3.778  12.017
19407W        W91733   8.288  18.420   4.809
19408W        W91734  37.923  11.442  13.339
19409W        W91735  10.286   2.472  11.698
19410W        W91736  23.625  40.904   1.763
19411W        W91737  27.267  22.114  14.340
19412W        W91738  31.316  27.693  11.050
19413W        W91739  17.131  11.742  12.455
19414W        W91740  34.294  24.734  14.296
19415W        W91741  27.180  30.174  12.339
19416W        W91742  28.427  25.633   4.161
19417W        W91743  42.472   1.340   2.823
19418W        W91744  38.338   8.841   3.222
19419W        W91745   4.007  38.769   4.329
19420W        W91746  16.348  42.308   2.810
19421W        W91747  12.538  19.211  12.071
19422W        W91748  26.950  33.988   0.440
19423W        W91749  32.895   5.401  11.951
19424W        W91750  20.969   5.879  11.153
19425W        W91751   1.293  23.095  12.318
19426W        W91752   4.216   7.413  12.374
19427W        W91753   9.774  30.207  14.373
19428W        W91754  18.532  41.431   1.827
19429W        W91755  29.348  25.067  10.745
19430W        W91756   3.886  31.693   3.990
19431W        W91757  41.803  13.504  14.824
19432W        W91758  29.930  24.152  11.020
19433W        W91759  12.736  41.992   4.723
19434W        W91760   1.837  19.547   4.015
19435W        W91761  41.744   7.887   1.896
19436W        W91762  28.087  11.133   1.794
19437W        W91763  41.521   3.221   4.877
19438W        W91764  24.483  15.316  12.522
19439W        W91765  40.989  18.654  12.542
19440W        W91766  28.156  10.913   1.323
19441W        W91767  31.967  22.279  14.468
19442W        W91768  31.733  42.899   4.059
19443W        W91769   8.746   2.343  11.016
19444W        W91770  34.441  15.420  10.835
19445W        W91771  13.867  10.844  13.368
19446W        W91772   8.655  28.071  12.523
19447W        W91773  39.173  26.740  10.259
19448W        W91774   7.621  25.047   0.214
19449W        W91775  15.121  23.036   1.325
19450W        W91776  27.608   7.144   2.008
19451W        W91777  23.037  14.574   2.320
19452W        W91778   7.667  34.412   2.685
19453W        W91779  23.659   3.344   1.819
19454W        W91780  15.604  30.198   1.247
19455W        W91781  15.396  13.108  11.659
19456W        W91782  13.832  29.104  14.537
19457W        W91783  11.423   6.899   3.149
19458W        W91784  15.066  17.165  14.854
19459W        W91785  40.109  28.559   1.814
19460W        W91786  40.536  33.696  13.469
19461W        W91787  41.769  18.666   0.407
19462W        W91788  34.505  21.419  14.026
19463W        W91789  37.048   9.924   9.756
19464W        W91790  40.133  41.557  11.946
19465W        W91791  43.287  23.825  13.555
19466W        W91792  38.905   8.223   4.565
19467W        W91793  34.413   7.513   0.531
19468W        W91794   2.760  39.818  10.678
19469W        W91795  25.050  39.971  11.323
19470W        W91796  24.892  12.230  11.104
19471W        W91797  24.650  21.186  10.880
19472W        W91798  28.348  17.157   0.223
19473W        W91799   3.985  42.353  13.332
19474W        W91800  40.529   7.573   3.339
19475W        W91801  23.487  27.221  12.545
19476W        W91802  16.834  40.019  13.680
19477W        W91803  39.846  41.367   3.199
19478W        W91804  25.017   1.734   1.216
19479W        W91805  12.273  26.434  10.191
19480W        W91806   2.460  43.095  14.472
19481W        W91807  19.737  28.564   1.010
19482W        W91808  30.173   7.866  12.633
19483W        W91809  19.540  30.906   0.825
19484W        W91810  28.551  29.661  13.086
19485W        W91811   1.997  13.188   4.795
19486W        W91812  12.353  27.601   1.828
19487W        W91813  42.795  30.599  12.897
19488W        W91814  43.044   4.715   3.909
19489W        W91815  35.004   1.765  11.575
19490W        W91816  36.007  26.041  12.960
19491W        W91817  36.411  15.520  12.380
19492W        W91818  34.017  39.388   4.993
19493W        W91819   0.785   6.379   1.685
19494W        W91820  42.353  33.968  11.133
19495W        W91821  37.462   8.574   0.899
19496W        W91822  12.856  15.267   0.784
19497W        W91823  24.400   6.279  11.176
19498W        W91824  18.692  13.432   2.034
19499W        W91825   7.396   9.315   1.458
19500W        W91826  19.998   8.420  12.801
19501W        W91827  21.997  30.023   1.665
19502W        W91828  34.542  37.966   1.286
19503W        W91829  36.002  20.583   2.268
19504W        W91830  21.986  20.651  14.981
19505W        W91831  41.157   1.324   3.271
19506W        W91832  10.414  14.511   3.404
19507W        W91833  32.334   8.768   9.821
19508W        W91834   7.382  13.427   2.149
19509W        W91835  29.562  10.580  13.993
19510W        W91836   1.889  40.297   1.422
19511W        W91837   5.754  15.601  13.585
19512W        W91838  13.393  26.618  14.023
19513W        W91839  32.009  13.876   0.925
19514W        W91840  41.473  28.188   3.908
19515W        W91841  44.971  41.992   2.376
19516W        W91842   3.773   5.852  12.366
19517W        W91843  24.446  14.356   2.206
19518W        W91844  40.925   1.834  13.281
19519W        W91845  16.349  32.650   2.285
19520W        W91846  21.088  19.608   5.210
19521W        W91847  33.145  25.791  12.197
19522W        W91848  43.468   9.669  11.131
19523W        W91849  34.659  19.214  14.011
19524W        W91850   2.603  19.106  13.389
19525W        W91851  30.666   1.730  13.477
19526W        W91852  40.007  16.844   3.688
19527W        W91853  11.349  13.384  10.790
19528W        W91854  21.233  30.993   0.426
19529W        W91855  41.003  19.830  13.819
19530W        W91856   9.193  22.786  13.969
19531W        W91857   8.375   0.526  11.032
19532W        W91858  35.132  25.642  10.664
19533W        W91859  41.976  41.793   3.635
19534W        W91860  10.531  11.143   2.320
19535W        W91861  25.154  33.416  10.788
19536W        W91862  20.338   2.810  13.362
19537W        W91863  42.845  34.062   2.653
19538W        W91864  21.168  12.223   0.437
19539W        W91865  26.035  32.908   4.166
19540W        W91866  30.699   7.373  11.094
19541W        W91867   2.722  39.819   0.010
19542W        W91868  28.637   8.243  11.208
19543W        W91869  33.010  39.393   4.048
19544W        W91870   4.912  23.093  10.544
19545W        W91871  27.424  28.074   1.910
19546W        W91872  40.415  33.775  14.354
19547W        W91873  36.687  26.716  10.271
19548W        W91874  40.345   0.624   3.363
19549W        W91875  23.581  30.375  10.630
19550W        W91876  20.681  12.835   3.091
19551W        W91877   9.034  25.697   4.208
19552W        W91878  13.364   5.297   2.514
19553W        W91879   3.978   1.359  11.074
19554W        W91880   4.694  30.108  10.668
19555W        W91881   0.795   6.419  10.696
19556W        W91882  21.603  35.928  12.506
19557W        W91883  29.242  43.529   4.917
19558W        W91884  35.955  21.967  11.998
19559W        W91885  31.010   3.634  12.935
19560W        W91886  17.266   1.187   2.215
19561W        W91887  31.255  35.559   3.247
19562W        W91888  28.878   1.187  11.406
19563W        W91889  41.698  39.785  11.332
19564W        W91890   3.433   9.311   1.728
19565W        W91891  40.259  42.854  12.401
19566W        W91892  39.479  32.314   9.946
19567W        W91893  21.591  30.251  11.119
19568W        W91894   6.283  15.554  14.175
19569W        W91895  25.942  17.719  13.441
19570W        W91896   5.951  23.694   0.437
19571W        W91897  23.589  40.444   2.531
19572W        W91898  39.506  24.724   1.414
19573W        W91899  35.694  16.318  13.395
19574W        W91900  14.757   8.424   2.885
19575W        W91901   5.968  34.925   2.846
19576W        W91902  32.283  40.301   3.605
19577W        W91903   2.049  18.161   1.367
19578W        W91904   1.310  16.582  13.907
19579W        W91905  37.871  17.381   2.852
19580W        W91906  35.067  38.582  11.470
19581W        W91907  44.370  29.573  12.824
19582W        W91908  41.209  15.720  11.351
19583W        W91909  44.835  17.086  14.321
19584W        W91910   8.938  24.678   0.100
19585W        W91911  23.789  35.588  14.369
19586W        W91912  19.660   3.639  13.402
19587W        W91913  29.383  25.186   0.809
19588W        W91914  43.405  43.166  11.909
19589W        W91915  13.829   8.550   2.076
19590W        W91916  37.081  16.583   1.490
19591W        W91917   3.320  24.675   0.325
19592W        W91918  13.903  25.112  13.574
19593W        W91919  26.641   3.866   1.752
19594W        W91920  26.225   4.297  14.524
19595W        W91921  35.064  14.539  13.872
19596W        W91922  12.753   0.975  14.655
19597W        W91923   7.718  11.078   1.173
19598W        W91924  44.956  30.134   1.351
19599W        W91925  28.513  14.961   2.637
19600W        W91926  37.410   0.110   4.786
19601W        W91927  19.488  11.703   0.671
19602W        W91928  16.080  15.285  13.368
19603W        W91929  17.184  20.722   1.227
19604W        W91930  19.276  41.519   1.340
19605W        W91931  14.681   8.805   1.497
19606W        W91932  29.228  13.306   3.130
19607W        W91933   3.897  20.727   2.665
19608W        W91934  30.377  19.140  10.793
19609W        W91935   4.979  11.260   5.073
19610W        W91936   9.730  40.760   3.878
19611W        W91937  24.501  23.811   3.538
19612W        W91938  15.584  26.039  12.443
19613W        W91939  34.163  30.969  12.120
19614W        W91940   9.791   3.813   0.912
19615W        W91941  34.518  26.903   4.597
19616W        W91942  30.956  42.445  11.600
19617W        W91943  16.736  18.595   1.433
19618W        W91944  24.988  11.275  11.871
19619W        W91945   2.790  42.778   1.894
19620W        W91946  36.361  33.609  14.908
19621W        W91947   9.701  24.010   1.877
19622W        W91948  10.294  35.586  12.090
19623W        W91949  36.563   1.919   2.733
19624W        W91950   4.533  23.049  11.268
19625W        W91951  15.267  38.989  12.086
19626W        W91952  27.074  25.211  14.769
19627W        W91953  10.757  36.619  12.435
19628W        W91954  29.164  41.947   1.279
19629W        W91955  36.027  22.113   1.386
19630W        W91956   7.550  30.697   3.138
19631W        W91957   4.773  17.129   1.901
19632W        W91958  15.852  38.253   1.386
19633W        W91959  20.904  24.585   4.634
19634W        W91960   6.228  17.490   1.001
19635W        W91961  31.875   2.529   1.866
19636W        W91962  44.244  33.926  12.265
19637W        W91963  31.674   1.912  13.351
19638W        W91964   2.915   4.349   1.463
19639W        W91965   9.451  19.047  13.882
19640W        W91966  43.562  20.100   4.164
19641W        W91967  33.500  16.762  12.228
19642W        W91968  10.635  33.179   4.227
19643W        W91969  44.458  21.448  12.404
19644W        W91970  21.617  25.933  14.748
19645W        W91971  21.160  12.785  10.286
19646W        W91972  15.080  31.087  11.788
19647W        W91973  39.958  15.729  10.697
19648W        W91974   5.913   5.872   4.659
19649W        W91975  33.972  26.103  11.911
19650W        W91976  43.065  40.503  11.579
19651W        W91977  15.615   0.626  10.104
19652W        W91978  40.558  42.000  12.924
19653W        W91979  40.924  25.901  14.282
19654W        W91980  13.269  35.806  13.808
19655W        W91981  27.734  19.205  11.548
19656W        W91982  17.267  22.037   3.176
19657W        W91983   2.224   4.174  11.496
19658W        W91984  26.236  22.195  14.027
19659W        W91985  31.821  41.326   2.388
19660W        W91986  44.004  14.933  14.330
19661W        W91987  40.920  35.826  14.021
19662W        W91988  38.347  18.281  14.403
19663W        W91989   9.485   2.294   4.319
19664W        W91990   3.042  17.526   0.691
19665W        W91991  21.789  32.585   2.229
19666W        W91992  32.914  29.158   0.658
19667W        W91993  42.767  27.978   3.379
19668W        W91994  22.959  29.664   2.715
19669W        W91995  13.599   7.209   2.938
19670W        W91996  14.696  15.275  12.819
19671W        W91997   0.187   2.958  14.740
19672W        W91998  30.116   7.675   0.913
19673W        W91999  43.856  22.551   0.251
19674W        W92000  13.982   6.373   4.971
19675W        W92001  42.853  17.670  13.498
19676W        W92002  32.026  35.381  13.012
19677W        W92003  23.850  34.527   2.857
19678W        W92004  29.092  16.190  10.721
19679W        W92005  27.536   0.314  10.554
19680W        W92006  43.733  15.082  13.876
19681W        W92007   2.054  22.151  14.860
19682W        W92008   0.879  36.331  13.561
19683W        W92009   4.323  33.828   1.304
19684W        W92010   7.463  44.325  12.441
19685W        W92011   2.288  33.576   2.602
19686W        W92012  35.427  34.820  13.013
19687W        W92013  38.985  39.180   4.624
19688W        W92014  22.024  28.357  13.812
19689W        W92015  17.340  29.381  12.468
19690W        W92016  41.379  37.480   2.878
19691W        W92017  15.216  27.207  11.220
19692W        W92018  39.996  31.416   2.207
19693W        W92019  43.747  18.673   1.413
19694W        W92020  12.779   5.217   3.905
19695W        W92021   8.714  38.804  11.792
19696W        W92022  36.851  41.342   4.969
19697W        W92023  29.680  11.386   0.735
19698W        W92024  39.189   1.678  14.930
19699W        W92025  30.553   8.022   4.192
19700W        W92026  31.925  16.184  12.859
19701W        W92027  42.630   8.034   2.836
19702W        W92028  40.047  18.224  14.908
19703W        W92029   0.175  16.717   2.302
19704W        W92030  23.657   4.316   2.193
19705W        W92031  41.827  32.542   1.907
19706W        W92032   0.317  12.771   4.052
19707W        W92033  33.116   4.963   2.612
19708W        W92034  35.091   5.774  14.231
19709W        W92035  20.581   8.684  12.452
19710W        W92036  36.947  31.147  14.269
19711W        W92037  23.284  37.956  11.656
19712W        W92038  40.584  35.131   4.146
19713W        W92039   7.959  31.982   5.003
19714W        W92040  22.670  19.326   0.922
19715W        W92041  29.136  27.674   4.126
19716W        W92042  15.566  33.618   2.266
19717W        W92043   6.477  44.724   1.809
19718W        W92044  35.939  19.539  12.996
19719W        W92045   7.828  14.183   0.168
19720W        W92046   9.930  10.280  12.543
19721W        W92047  19.813  37.460   0.259
19722W        W92048  10.634  12.250   1.283
19723W        W92049  32.559  37.955   1.443
19724W        W92050  42.768  30.156  11.222
19725W        W92051   1.103  32.167  10.093
19726W        W92052  10.251  14.253   1.215
19727W        W92053  30.967  40.909   0.425
19728W        W92054  36.220  35.649  11.930
19729W        W92055  24.896  42.771   2.850
19730W        W92056  36.590  37.402  13.301
19731W        W92057  26.985   1.821  12.009
19732W        W92058  24.989  30.175  14.096
19733W        W92059  32.443  32.804   1.817
19734W        W92060   4.638  37.217   2.715
19735W        W92061  30.899  35.848  12.049
19736W        W92062  18.656  26.477  10.535
19737W        W92063   0.327  41.820   0.045
19738W        W92064  42.865   8.794  11.786
19739W        W92065  43.801  37.072   4.176
19740W        W92066  40.935  10.750   4.211
19741W        W92067  24.024   4.251  14.372
19742W        W92068   6.616  34.657   1.658
19743W        W92069  25.012  40.374   2.271
19744W        W92070   0.302  27.034  14.238
19745W        W92071  28.524  19.183   3.731
19746W        W92072  34.832  14.606   3.874
19747W        W92073  23.289  25.897  14.306
19748W        W92074   7.195  16.781   3.921
19749W        W92075  14.355  42.025  11.952
19750W        W92076  41.539  32.891  11.163
19751W        W92077  34.976  44.306   2.235
19752W        W92078  27.042   9.069   3.594
19753W        W92079  23.817  37.890  10.830
19754W        W92080  18.144  12.530   4.435
19755W        W92081  44.735  37.084   4.587
19756W        W92082   1.411   3.512   4.087
19757W        W92083  29.490   1.847   5.205
19758W        W92084  40.555  43.754  13.000
19759W        W92085  28.712   3.297   2.429
19760W        W92086  10.571  33.966  12.296
19761W        W92087  31.908   1.358   3.868
19762W        W92088  16.879  26.587   1.001
19763W        W92089  37.027  43.319   2.752
19764W        W92090  33.130  36.580   4.978
19765W        W92091  28.547   9.235   2.231
19766W        W92092  29.560  40.697  11.354
19767W        W92093  29.016   0.773   2.687
19768W        W92094  39.288  36.555  14.794
19769W        W92095  22.323  23.605  11.521
19770W        W92096  10.350   9.945  14.598
19771W        W92097  19.869  10.393   0.800
19772W        W92098   2.269  24.154  14.490
19773W        W92099  21.379  29.911  12.677
19774W        W92100  26.740  44.952  13.078
19775W        W92101  27.705  17.092   2.718
19776W        W92102  11.652  38.527  11.928
19777W        W92103   1.476  14.558  13.553
19778W        W92104   4.211  10.758  12.715
19779W        W92105  24.799  33.545   1.285
19780W        W92106  22.357  24.476   1.640
19781W        W92107  19.521  17.113  11.093
19782W        W92108  18.562  41.637  14.889
19783W        W92109  27.297  30.065   1.415
19784W        W92110   9.724   6.561   1.645
19785W        W92111  42.801  10.657   0.437
19786W        W92112  27.417  20.573  10.686
19787W        W92113   3.443  38.347  14.752
19788W        W92114  17.140   9.102   1.284
19789W        W92115  11.684  14.224   1.939
19790W        W92116  32.228  29.450  13.097
19791W        W92117  44.178  24.248  13.318
19792W        W92118  18.444  44.273   2.192
19793W        W92119   3.005  33.250   0.915
19794W        W92120  29.731  17.367  10.578
19795W        W92121  30.933   6.964   0.984
19796W        W92122  14.213  27.498   2.092
19797W        W92123  10.126   6.911  10.860
19798W        W92124  31.781  14.760  14.158
19799W        W92125   8.910  44.431   2.270
19800W        W92126  17.980   7.848  13.387
19801W        W92127  29.585   6.751   2.623
19802W        W92128  34.948   6.464   2.234
19803W        W92129  35.600   3.384   1.777
19804W        W92130  26.088  10.594   0.301
19805W        W92131   9.485  44.174   0.285
19806W        W92132  41.375  19.808  13.443
19807W        W92133  43.505  10.185   2.859
19808W        W92134   9.637   9.091   4.364
19809W        W92135  24.184   4.277  13.857
19810W        W92136  40.339   2.374  11.612
19811W        W92137   6.416   1.306   3.054
19812W        W92138  27.089  26.439  10.151
19813W        W92139   8.181  25.167  10.459
19814W        W92140  26.374  40.956  11.082
19815W        W92141  12.869  28.151  12.826
19816W        W92142  34.525  15.814   1.475
19817W        W92143  42.579  21.146   4.174
19818W        W92144  25.197   9.215  13.995
19819W        W92145   1.507   8.227  11.207
19820W        W92146  27.553  30.962   0.493
19821W        W92147   3.006  11.139   1.506
19822W        W92148  13.307   6.214   0.474
19823W        W92149  35.002  40.464  14.985
19824W        W92150   0.328  12.369  11.072
19825W        W92151  33.378   7.793   4.178
19826W        W92152  33.467  15.581  13.037
19827W        W92153   8.650  42.515  14.863
19828W        W92154  18.685  35.901   3.024
19829W        W92155   6.321  34.302   1.378
19830W        W92156  38.054  11.614   0.228
19831W        W92157  21.215  19.269  14.710
19832W        W92158  41.095  24.690   2.793
19833W        W92159  26.185   4.717  12.725
19834W        W92160   3.170  43.805   1.348
19835W        W92161  32.571  37.162  12.944
19836W        W92162   2.367   1.415  13.133
19837W        W92163  18.656  38.126   3.253
19838W        W92164  42.690  20.592  13.011
19839W        W92165  13.899  30.793  11.763
19840W        W92166   5.834  27.515   0.199
19841W        W92167  41.385  32.870  14.782
19842W        W92168  32.892  41.769  13.057
19843W        W92169   9.878  22.970  10.823
19844W        W92170  17.692  29.172   3.687
19845W        W92171   6.935  24.701   1.397
19846W        W92172  22.199   8.855  12.795
19847W        W92173  25.187  42.851   3.282
19848W        W92174  36.672   5.702  11.308
19849W        W92175   4.558   1.827  13.811
19850W        W92176  16.080  25.631  13.891
19851W        W92177  29.168  38.807  10.047
19852W        W92178  33.985  19.101   2.388
19853W        W92179  16.499  32.763  11.119
19854W        W92180  22.123  32.334   1.323
19855W        W92181  33.035  39.815   2.172
19856W        W92182  12.724   3.717  14.740
19857W        W92183  40.660  25.049   2.340
19858W        W92184  20.234  14.140  13.483
19859W        W92185  24.191  17.329  13.895
19860W        W92186   5.077  44.411   1.181
19861W        W92187  28.169   5.208  11.018
19862W        W92188   6.876  10.439  14.870
19863W        W92189  12.163  42.558  10.448
19864W        W92190   1.950   4.795   2.276
19865W        W92191  34.602  37.336  10.458
19866W        W92192  16.408   2.844   4.215
19867W        W92193  41.451  19.136   4.320
19868W        W92194  29.121   5.034   0.670
19869W        W92195  37.907  41.283   3.345
19870W        W92196  35.736  19.712  13.436
19871W        W92197  17.485  30.506  11.435
19872W        W92198  11.000  20.084   3.371
19873W        W92199  25.009  38.224   1.201
19874W        W92200  24.015  16.832  10.540
19875W        W92201   6.632  10.280  10.428
19876W        W92202   3.826   8.138  12.642
19877W        W92203   8.481  12.176  13.064
19878W        W92204   2.673  39.914   0.520
19879W        W92205  26.712  27.096  14.897
19880W        W92206   7.835   5.596   0.912
19881W        W92207  16.527  31.087   2.256
19882W        W92208  18.742   4.492   0.392
19883W        W92209  22.298  21.974   4.758
19884W        W92210  13.043  27.977  11.124
19885W        W92211  25.920  35.794   4.895
19886W        W92212  13.365   3.570  12.245
19887W        W92213  28.603  33.387  10.853
19888W        W92214  36.100   9.139  13.565
19889W        W92215  18.157   6.614  12.974
19890W        W92216   9.551  17.344   4.178
19891W        W92217  27.713  32.160  12.259
19892W        W92218  23.774   4.452   0.026
19893W        W92219  43.315  37.564  11.653
19894W        W92220  26.026  31.841   1.548
19895W        W92221   6.901  27.929   4.625
19896W        W92222  22.113  27.715   0.652
19897W        W92223  14.151   1.214  12.956
19898W        W92224   3.906  14.377  10.941
19899W        W92225  17.718   6.408  11.478
19900W        W92226   7.101  25.499  14.017
19901W        W92227   6.227  42.916  12.152
19902W        W92228  35.196  15.342  11.516
19903W        W92229  29.273  30.241   1.512
19904W        W92230  10.201  19.894  10.566
19905W        W92231  41.237  33.131  10.812
19906W        W92232  29.090   6.916   3.707
19907W        W92233  29.595  22.889  14.931
19908W        W92234  16.070   5.588  11.465
19909W        W92235  15.758  10.745   2.391
19910W        W92236  37.015  26.554   0.362
19911W        W92237  38.802  18.037  11.608
19912W        W92238  10.399  25.974  11.458
19913W        W92239  37.427  11.841   5.058
19914W        W92240   9.271  25.151  11.808
19915W        W92241   6.870  20.015   3.837
19916W        W92242  28.399  29.521  12.198
19917W        W92243   9.689  30.470  13.901
19918W        W92244  36.436  39.035   3.446
19919W        W92245  39.449  44.439  12.068
19920W        W92246  29.081  33.901   4.429
19921W        W92247  17.158  12.255   2.347
19922W        W92248   0.176  16.352  12.127
19923W        W92249  43.495  28.637  10.525
19924W        W92250  38.024  34.865  12.980
19925W        W92251   1.841  12.269   3.730
19926W        W92252  29.167  28.568   4.704
19927W        W92253  10.295  39.499   4.741
19928W        W92254  21.608  39.323  14.490
19929W        W92255  18.624  36.501  14.864
19930W        W92256  38.754  10.615   1.325
19931W        W92257   2.907  12.328   5.118
19932W        W92258  27.815  40.870  10.116
19933W        W92259  23.809  41.916   0.958
19934W        W92260  18.513  27.170  12.950
19935W        W92261  32.771  16.673   0.236
19936W        W92262  42.406  24.622  10.386
19937W        W92263   7.623   7.257   3.638
19938W        W92264  36.408  34.990   1.284
19939W        W92265  18.189  17.177  14.036
19940W        W92266   5.710  14.977  12.929
19941W        W92267   1.545  42.261   1.768
19942W        W92268  10.764  40.071   4.946
19943W        W92269  15.844  44.496  13.398
19944W        W92270   5.386  14.668   1.821
19945W        W92271  23.823   1.160   3.281
19946W        W92272   2.256  23.293   5.315
19947W        W92273  25.868  24.140  14.407
19948W        W92274  16.628  22.137  12.823
19949W        W92275  38.328  24.517  10.833
19950W        W92276   4.184  12.934  12.629
19951W        W92277  39.475  23.156  13.157
19952W        W92278  25.900  32.356   1.644
19953W        W92279   5.300  11.721   5.014
19954W        W92280  26.203  37.777  12.081
19955W        W92281   3.678  38.044  12.080
19956W        W92282  14.355  16.721   0.356
19957W        W92283  25.964  20.148  14.507
19958W        W92284  34.940  39.643  13.095
19959W        W92285  41.185   0.241  12.143
19960W        W92286  11.370  26.672   2.862
19961W        W92287   0.428  13.138  14.372
19962W        W92288  13.867   5.349   2.679
19963W        W92289  33.422  32.933  11.429
19964W        W92290  11.496  23.248  11.540
19965W        W92291   4.701  21.247  14.377
19966W        W92292  10.857   5.833   0.067
19967W        W92293  16.868  17.339  13.569
19968W        W92294  22.332  34.489  11.515
19969W        W92295  35.469   7.858   4.059
19970W        W92296  41.582   4.503  13.097
19971W        W92297   2.524  10.909  11.531
19972W        W92298  41.658   9.167   2.899
19973W        W92299  12.198  29.915   3.277
19974W        W92300  13.238   5.880   3.678
19975W        W92301   4.356  12.219   4.180
19976W        W92302  34.761   9.253   4.562
19977W        W92303  27.997   9.656   4.176
19978W        W92304  19.525  21.972  11.010
19979W        W92305  29.729  25.459  12.417
19980W        W92306  33.472  22.622  12.616
19981W        W92307  40.417  15.854   4.246
19982W        W92308   3.558  39.273  10.627
19983W        W92309  28.243  12.627   2.903
19984W        W92310  22.665  43.756   0.394
19985W        W92311   6.914   8.861  10.590
19986W        W92312   8.209   1.362   2.684
19987W        W92313   1.840   9.091  12.475
19988W        W92314  34.033  32.965  11.203
19989W        W92315  23.579  16.155   4.644
19990W        W92316  32.856  33.940  12.550
19991W        W92317  16.197  24.434   0.810
19992W        W92318  10.754  38.875  11.973
19993W        W92319  43.245   3.851   4.415
19994W        W92320  38.607  11.615   1.509
19995W        W92321  44.293  10.710  14.450
19996W        W92322  24.617  27.483   2.897
19997W        W92323  34.463  16.853   1.431
19998W        W92324  12.808  30.827   4.038
19999W        W92325  42.962  35.472   1.038
20000W        W92326  26.487  43.945   0.836
20001W        W92327   5.128   4.012  12.178
20002W        W92328  31.320  39.316   2.908
20003W        W92329  19.021  42.367   4.378
20004W        W92330   6.735  36.805   4.436
20005W        W92331  32.468  29.404   0.225
20006W        W92332  30.871   4.746   0.736
20007W        W92333  11.321  29.161  12.955
20008W        W92334  38.912  29.470  14.862
20009W        W92335  37.309   5.466   4.826
20010W        W92336  14.285  15.384  10.472
20011W        W92337  20.894   0.387  13.431
20012W        W92338  23.201  24.186   3.260
20013W        W92339  11.174  40.693  13.436
20014W        W92340  21.270   9.126   4.660
20015W        W92341  14.376   2.880   4.216
20016W        W92342  33.749   0.072  11.001
20017W        W92343  16.179  40.547   3.416
20018W        W92344  27.506  22.321  12.961
20019W        W92345  14.644  15.594  14.766
20020W        W92346  39.765  12.841   2.854
20021W        W92347  34.840  41.750  12.183
20022W        W92348  37.118  35.906  13.085
20023W        W92349  13.085  31.508   1.791
20024W        W92350  34.600   9.404  12.033
20025W        W92351  44.592   9.750   1.343
20026W        W92352  12.201  33.151  14.992
20027W        W92353  29.026   6.723   0.612
20028W        W92354  40.619  12.730  12.392
20029W        W92355  34.122  24.946   0.009
20030W        W92356  42.523  42.284   3.166
20031W        W92357  14.163  26.282  12.393
20032W        W92358  41.388  44.440  10.636
20033W        W92359  14.793  13.573   3.525
20034W        W92360  17.154  33.173   2.301
20035W        W92361   8.342   3.874  11.563
20036W        W92362  36.193  16.701   3.418
20037W        W92363  12.605  10.062  13.451
20038W        W92364  10.858  10.661   2.262
20039W        W92365  27.658   1.504  13.468
20040W        W92366   7.309  15.587   1.848
20041W        W92367  41.935  42.767   0.469
20042W        W92368  28.142  11.582  14.704
20043W        W92369  43.291   0.894  13.549
20044W        W92370   5.046   5.646   4.644
20045W        W92371  43.742  21.232   0.354
20046W        W92372  18.078  16.108  14.910
20047W        W92373  32.456  42.057  13.067
20048W        W92374  29.571  43.155   2.022
20049W        W92375  20.201  20.787   3.252
20050W        W92376  26.128   9.781   4.108
20051W        W92377  44.972  38.955   2.251
20052W        W92378  14.762  29.464  13.354
20053W        W92379  20.730  31.043  12.314
20054W        W92380  19.078  32.970   4.764
20055W        W92381  34.663  39.919  11.102
20056W        W92382  23.896  21.032  13.584
20057W        W92383  36.188  39.298   2.011
20058W        W92384  13.735  13.340  13.416
20059W        W92385  13.396   3.950   1.649
20060W        W92386  38.893  20.975  10.677
20061W        W92387  29.969  31.198  11.203
20062W        W92388  43.688  23.014   1.172
20063W        W92389  13.375  22.312  12.150
20064W        W92390  44.673  21.761  10.326
20065W        W92391  24.219  25.673   0.318
20066W        W92392  32.650  12.438   4.364
20067W        W92393   1.462  36.553   1.458
20068W        W92394  18.748  41.797  12.070
20069W        W92395  43.196  33.579   0.712
20070W        W92396  13.942   1.288   2.895
20071W        W92397   8.467  42.359  12.361
20072W        W92398  27.924  17.057   4.243
20073W        W92399   3.488  13.232  13.037
20074W        W92400  38.432  16.816   0.364
20075W        W92401  30.510  39.439  12.945
20076W        W92402  19.605  38.003  12.432
20077W        W92403  28.054   9.357   1.426
20078W        W92404  38.922  32.142  10.908
20079W        W92405  18.225  44.271  10.763
20080W        W92406  34.526  43.776   3.586
20081W        W92407  27.170  35.939  10.419
20082W        W92408  17.260  12.735   4.045
20083W        W92409   5.699  11.905  12.913
20084W        W92410   2.459  27.989  13.995
20085W        W92411  36.457  27.493  13.779
20086W        W92412  39.997  44.865  14.817
20087W        W92413  34.440  40.394  13.666
20088W        W92414   7.858  16.251   4.146
20089W        W92415  44.614  21.298   4.119
20090W        W92416  21.993  42.030  13.027
20091W        W92417  24.056  16.723  14.501
20092W        W92418   4.181   6.403   2.249
20093W        W92419   2.800  36.660  13.255
20094W        W92420   6.266  18.322  14.897
20095W        W92421  41.745  41.728  13.511
20096W        W92422  17.106   9.311   2.251
20097W        W92423   0.818  21.973   3.221
20098W        W92424   2.439  19.647   0.833
20099W        W92425  29.484  24.542   2.793
20100W        W92426   0.871  35.984   1.928
20101W        W92427  34.123  36.029  11.175
20102W        W92428  34.879  12.222  14.238
20103W        W92429  15.271   8.933   4.523
20104W        W92430  41.501   8.065  12.765
20105W        W92431  43.496  36.770  14.662
20106W        W92432  40.071  42.904  13.980
20107W        W92433  39.041  36.364   4.070
20108W        W92434  39.511  20.463   3.602
20109W        W92435  38.139  34.451  11.646
20110W        W92436  20.674  25.471   1.241
20111W        W92437   4.949  11.132  11.138
20112W        W92438  21.817  34.368   4.238
20113W        W92439  30.988  38.075   3.345
20114W        W92440  41.518  41.675  14.978
20115W        W92441   3.508  29.100  13.377
20116W        W92442  39.073  20.812  11.122
20117W        W92443  38.563  31.063  11.386
20118W        W92444  43.463   6.612   3.636
20119W        W92445  21.572  23.085  10.537
20120W        W92446   5.221   6.775  12.561
20121W        W92447   6.863  28.526  13.005
20122W        W92448  33.811  12.012  14.007
20123W        W92449  34.186  31.963  14.425
20124W        W92450  22.521  34.566   1.775
20125W        W92451   3.190  12.234  13.523
20126W        W92452  21.773  13.862   4.613
20127W        W92453   8.582  24.041  11.128
20128W        W92454   2.432   9.045  11.261
20129W        W92455  20.358   1.848  14.947
20130W        W92456  34.412  34.828   1.519
20131W        W92457  28.665  13.347  12.935
20132W        W92458   9.249  36.558   0.820
20133W        W92459  17.584  17.540  11.913
20134W        W92460  22.629  20.172  14.546
20135W        W92461   2.180  13.842  11.344
20136W        W92462   0.044  39.427  11.063
20137W        W92463  35.579  38.438  14.108
20138W        W92464  22.326  20.499  13.305
20139W        W92465  43.938  30.109  11.707
20140W        W92466  19.341  27.615  14.347
20141W        W92467  35.025  17.270   2.296
20142W        W92468  24.542  31.651  13.926
20143W        W92469  31.460   7.183  13.939
20144W        W92470  41.913  16.735   1.152
20145W        W92471  27.028  38.294   2.948
20146W        W92472   3.374  44.735   0.380
20147W        W92473  28.702  29.624   1.872
20148W        W92474  11.087  36.006  13.296
20149W        W92475  18.030  14.234  14.328
20150W        W92476  25.271   3.297   2.943
20151W        W92477  36.527  12.833  11.531
20152W        W92478  16.224  30.967  13.098
20153W        W92479  13.381   3.903  13.018
20154W        W92480   2.374  34.699   0.995
20155W        W92481  10.846  41.401  14.758
20156W        W92482  43.268  24.096   1.823
20157W        W92483  12.589  10.159   2.197
20158W        W92484  12.569  35.398  11.746
20159W        W92485  28.868  28.166  11.785
20160W        W92486  11.353  22.146  12.004
20161W        W92487  30.682   1.322   3.159
20162W        W92488   7.488  22.749  12.076
20163W        W92489  26.894  36.952   3.252
20164W        W92490   6.342   9.757   0.310
20165W        W92491   8.707  21.755  13.493
20166W        W92492   5.237  16.242  10.636
20167W        W92493  30.627  41.910  14.540
20168W        W92494  24.959  22.109  12.848
20169W        W92495  10.892  32.431   3.729
20170W        W92496   2.466  38.006  13.261
20171W        W92497   9.430   1.901   4.644
20172W        W92498  23.713  21.002  11.794
20173W        W92499  27.037   0.893  10.810
20174W        W92500  41.294  39.142  14.456
20175W        W92501  18.745   7.648   3.617
20176W        W92502  41.047  26.800  13.991
20177W        W92503  29.453  19.062   3.606
20178W        W92504  16.231   7.827  13.016
20179W        W92505  29.525  31.868   2.266
20180W        W92506  39.357  20.663  14.907
20181W        W92507  29.009  32.889  14.978
20182W        W92508  40.597  18.055  13.810
20183W        W92509  30.401  21.516   1.904
20184W        W92510   7.147   9.089  12.161
20185W        W92511  16.802  19.067   0.651
20186W        W92512  31.823  38.698  12.054
20187W        W92513   8.667  16.769  13.754
20188W        W92514   0.241  30.970   0.437
20189W        W92515  29.860   0.663  12.344
20190W        W92516  15.637  10.682  13.583
20191W        W92517  13.175   5.236   2.021
20192W        W92518  28.280  21.256   1.793
20193W        W92519   4.368   3.937   3.766
20194W        W92520  19.550  43.736   1.445
20195W        W92521   9.854  13.988   1.865
20196W        W92522  40.626  29.924  11.647
20197W        W92523  27.269  40.071  11.557
20198W        W92524  41.094  34.421  13.963
20199W        W92525   8.305  39.413   1.736
20200W        W92526   0.415  18.777   4.109
20201W        W92527   0.075  44.265   3.191
20202W        W92528   4.584  37.504  14.941
20203W        W92529   5.427  41.826  12.158
20204W        W92530  22.327  17.599   0.658
20205W        W92531  36.804  32.900  10.954
20206W        W92532   6.629  44.468   1.379
20207W        W92533   3.439  25.191   0.350
20208W        W92534  35.136  19.643   1.381
20209W        W92535  27.134  20.464   4.689
20210W        W92536   9.314  21.668  11.856
20211W        W92537  10.567   4.871   1.869
20212W        W92538  41.839  22.079   1.765
20213W        W92539  15.224  25.141   2.686
20214W        W92540   6.818  14.054  11.123
20215W        W92541  25.060  42.323   3.706
20216W        W92542   0.687  41.521   2.243
20217W        W92543  17.536  16.192  12.524
20218W        W92544   7.352  24.226   0.472
20219W        W92545  38.845  11.754   2.160
20220W        W92546  32.932  39.577   0.797
20221W        W92547  23.577  27.213   4.539
20222W        W92548  17.583  35.977   3.409
20223W        W92549  33.578  15.151  11.140
20224W        W92550  35.515  36.888   3.221
20225W        W92551  32.314  10.846   4.916
20226W        W92552   3.966   6.648   4.231
20227W        W92553  44.904  37.769   4.103
20228W        W92554  27.989  26.090   2.844
20229W        W92555  35.675  40.215  13.123
20230W        W92556  25.911  20.222   0.392
20231W        W92557  13.354  16.847  13.377
20232W        W92558  24.010   2.691   0.299
20233W        W92559  42.762  12.775  12.607
20234W        W92560  19.368  38.470  14.412
20235W        W92561  39.578  14.652  11.216
20236W        W92562   0.955  16.698  12.025
20237W        W92563   6.779   0.522  14.530
20238W        W92564  27.683   1.226  14.751
20239W        W92565   5.737  31.379   3.721
20240W        W92566   7.932  23.007   1.359
20241W        W92567  29.463  24.882   1.806
20242W        W92568  36.467  32.691  14.029
20243W        W92569  28.457  32.149   4.674
20244W        W92570   9.099   8.850  11.388
20245W        W92571  43.764   1.973   3.853
20246W        W92572  19.327  37.757  14.950
20247W        W92573  15.217  12.270   4.077
20248W        W92574  13.841  19.626  14.468
20249W        W92575  34.385  32.299  11.901
20250W        W92576  17.697  34.294   1.852
20251W        W92577   3.549   6.906   4.092
20252W        W92578  21.949  14.388   4.193
20253W        W92579  28.881  21.169  11.015
20254W        W92580  12.139  35.485  13.475
20255W        W92581  11.831  29.677   2.633
20256W        W92582   6.361  16.112   4.232
20257W        W92583  44.579  27.673   2.846
20258W        W92584  22.954  11.853   1.364
20259W        W92585  44.363  26.230  12.528
20260W        W92586  14.891  41.942  11.980
20261W        W92587  30.219  26.449   0.859
20262W        W92588  11.053   6.264   2.863
20263W        W92589  41.994  16.116   0.476
20264W        W92590  31.458  31.639   2.438
20265W        W92591  28.419  14.230  13.112
20266W        W92592  11.454  34.720   5.337
20267W        W92593  25.063  29.903   0.782
20268W        W92594  36.895   6.840  10.738
20269W        W92595  22.766  39.489  11.540
20270W        W92596  32.374  32.481  11.886
20271W        W92597  44.086  23.496  10.205
20272W        W92598   7.446  43.825  12.614
20273W        W92599  14.116  18.715  14.264
20274W        W92600  15.793  28.732  12.841
20275W        W92601  39.877  23.998   4.886
20276W        W92602   0.489  10.269  10.152
20277W        W92603  14.627  40.843   1.061
20278W        W92604  35.052  19.525   4.711
20279W        W92605  25.804  44.716  14.965
20280W        W92606  17.855  34.420  14.468
20281W        W92607  29.473   6.684   1.628
20282W        W92608  21.041  15.621  14.990
20283W        W92609  24.201   1.879  12.435
20284W        W92610  14.028   4.311  11.685
20285W        W92611  42.789  42.731   2.012
20286W        W92612  43.445   7.415   4.097
20287W        W92613   8.042  29.732   3.789
20288W        W92614  12.914   2.265  11.633
20289W        W92615  35.306  30.815   4.574
20290W        W92616  29.960  38.305  14.267
20291W        W92617  13.731  36.038  14.659
20292W        W92618  23.754  43.055   0.341
20293W        W92619  15.825   6.364  10.634
20294W        W92620  15.261   3.503  14.876
20295W        W92621  40.592  25.866  10.874
20296W        W92622  24.161  33.530   3.233
20297W        W92623   5.355  12.832   1.168
20298W        W92624   6.364  32.179   0.411
20299W        W92625  38.912   5.801   0.128
20300W        W92626  14.819  36.654  13.884
20301W        W92627  25.451  27.381   0.401
20302W        W92628  24.140  35.497  11.107
20303W        W92629  21.594  44.030  14.792
20304W        W92630  44.588  35.117   0.231
20305W        W92631  16.073  21.174   4.838
20306W        W92632  35.055   0.505   4.999
20307W        W92633   2.342  26.141   3.694
20308W        W92634   5.743   2.779   3.190
20309W        W92635  43.906  41.622  12.432
20310W        W92636  33.917   5.990   1.475
20311W        W92637  34.007  11.021   2.163
20312W        W92638  32.347   6.580  13.547
20313W        W92639   1.948  34.762   0.272
20314W        W92640  25.907  24.546  12.097
20315W        W92641  34.516  30.096   2.662
20316W        W92642  17.964  36.655   4.410
20317W        W92643  13.115  41.790  13.483
20318W        W92644   7.608  35.449  10.723
20319W        W92645  14.526   2.853  12.730
20320W        W92646  15.316  14.158  14.392
20321W        W92647  10.160  37.913   3.192
20322W        W92648  11.705  11.528  10.629
20323W        W92649  16.623  19.595  11.604
20324W        W92650   0.681  25.678  11.181
20325W        W92651  19.710   0.567  12.478
20326W        W92652  20.708   9.286  11.627
20327W        W92653  21.144  25.201  12.619
20328W        W92654   6.466  25.662  11.497
20329W        W92655  41.458  28.634   3.605
20330W        W92656  38.525  44.297   3.273
20331W        W92657  19.038  15.296   4.125
20332W        W92658  14.091  15.732   4.148
20333W        W92659   6.281  43.997  10.778
20334W        W92660  18.913   0.192   5.156
20335W        W92661  34.485  40.991   1.660
20336W        W92662   4.987  34.936   1.598
20337W        W92663  44.335  32.314  14.506
20338W        W92664   3.996  26.550  12.985
20339W        W92665  11.316  13.527   3.236
20340W        W92666  35.536  26.267  14.835
20341W        W92667  16.806  26.486   3.723
20342W        W92668  15.490  37.510   4.643
20343W        W92669   3.427   0.034  14.764
20344W        W92670  31.709  25.655  14.234
20345W        W92671  35.121  43.299   4.724
20346W        W92672  42.819  21.075  12.900
20347W        W92673  10.819   8.904   3.669
20348W        W92674  37.563  30.613  11.535
20349W        W92675  41.295  11.350  10.928
20350W        W92676  14.344  43.374  12.418
20351W        W92677  23.504  24.257   0.760
20352W        W92678  42.890  41.719  11.999
20353W        W92679   0.788  17.984   3.187
20354W        W92680  16.087  34.832  12.952
20355W        W92681  10.346  29.393   1.695
20356W        W92682  18.655  25.438   2.813
20357W        W92683  31.342  26.285   4.388
20358W        W92684   9.767  44.462  14.446
20359W        W92685  39.357  31.973  10.680
20360W        W92686  19.008   0.188  13.501
20361W        W92687  33.995   0.066  11.481
20362W        W92688  44.006   9.837   0.450
20363W        W92689   3.864  21.710   0.317
20364W        W92690  26.748   1.051   3.712
20365W        W92691  13.679  30.563   2.697
20366W        W92692   5.181  39.597   4.029
20367W        W92693  42.940   8.305  11.964
20368W        W92694  11.226  31.049  13.637
20369W        W92695  34.129  22.094  12.093
20370W        W92696  43.207   6.601   1.241
20371W        W92697  28.413  10.190  14.791
20372W        W92698  29.119   8.690  10.586
20373W        W92699  20.602   4.006   3.777
20374W        W92700  38.914  12.465  14.948
20375W        W92701   9.870   7.798  13.924
20376W        W92702  21.546   7.087  11.545
20377W        W92703  44.848  22.755   0.504
20378W        W92704  41.845   8.427   2.910
20379W        W92705  15.409   7.160  14.364
20380W        W92706  11.721  19.444  12.536
20381W        W92707  41.008  12.807  13.596
20382W        W92708  23.309  35.562  12.886
20383W        W92709  32.674  18.324  11.594
20384W        W92710  15.135   9.709   1.738
20385W        W92711  40.867  35.068   3.158
20386W        W92712  39.232  10.828   2.720
20387W        W92713  20.637   6.889  14.828
20388W        W92714   5.650  23.142   3.395
20389W        W92715  17.484  14.173   0.769
20390W        W92716   2.960  42.526  13.358
20391W        W92717  39.329   4.411  11.244
20392W        W92718  21.153  29.648   3.378
20393W        W92719   4.875  28.456  13.013
20394W        W92720  28.229  12.503  14.674
20395W        W92721   4.831  30.611   0.729
20396W        W92722  35.304  37.280   2.339
20397W        W92723  10.868  18.190   4.323
20398W        W92724  30.711  17.489   0.766
20399W        W92725   5.856  13.079  12.177
20400W        W92726  35.268   5.787   2.226
20401W        W92727   1.667  23.656   5.210
20402W        W92728  29.863  39.540   1.690
20403W        W92729   5.817  31.822  13.322
20404W        W92730  26.178  22.521  11.858
20405W        W92731  33.504  35.833  14.459
20406W        W92732  31.394   6.290   2.359
20407W        W92733  42.005   3.277   0.438
20408W        W92734  27.583  19.325  13.302
20409W        W92735  32.469   1.324  13.653
20410W        W92736  22.705  10.421  13.459
20411W        W92737  31.522  33.300   4.770
20412W        W92738  11.302   3.497   4.568
20413W        W92739   5.699   4.643  14.134
20414W        W92740  10.177  39.891   3.635
20415W        W92741  23.005  32.305  11.172
20416W        W92742   4.770  11.279   0.301
20417W        W92743  34.408  37.949   3.246
20418W        W92744  43.421  32.327  10.534
20419W        W92745  14.735  14.704  13.879
20420W        W92746  12.557  21.466  13.284
20421W        W92747  11.446  36.515   1.271
20422W        W92748  23.639  36.649  13.577
20423W        W92749   9.976  30.413  11.116
20424W        W92750   1.377  26.843   2.199
20425W        W92751   1.152  22.135   5.440
20426W        W92752   2.736  33.941  11.482
20427W        W92753  43.492   3.628  14.849
20428W        W92754  20.337  43.332   1.951
20429W        W92755   9.799   3.869   1.435
20430W        W92756  15.117  19.095  11.273
20431W        W92757  34.573   6.230  14.048
20432W        W92758   9.155   3.179   1.728
20433W        W92759  16.241   6.401  13.274
20434W        W92760  41.442  44.334  12.018
20435W        W92761   7.910  22.216  11.553
20436W        W92762  15.711  11.480   0.380
20437W        W92763  29.654   5.838   2.906
20438W        W92764  38.260   2.788   4.770
20439W        W92765  34.686  38.279   3.631
20440W        W92766  34.031  18.812  14.397
20441W        W92767  18.202  27.122  14.821
20442W        W92768  29.026  26.233   9.644
20443W        W92769  39.472  23.542  12.381
20444W        W92770   6.167  26.677   1.351
20445W        W92771   5.489   5.470  13.058
20446W        W92772   7.191   7.270   1.187
20447W        W92773  13.367  37.516  13.469
20448W        W92774   6.793  24.282   1.058
20449W        W92775  15.842   4.905  12.077
20450W        W92776   1.457  13.847  14.957
20451W        W92777  31.085  36.437   1.392
20452W        W92778  43.349  31.867   3.252
20453W        W92779   3.802  16.826  10.756
20454W        W92780  34.575  40.538   0.704
20455W        W92781  40.746   5.686   3.808
20456W        W92782  35.216   1.397   1.935
20457W        W92783  30.489   9.163  12.533
20458W        W92784  11.359  22.670  13.801
20459W        W92785   5.926  29.527   0.788
20460W        W92786  43.974  33.767   4.299
20461W        W92787  42.614  32.174   4.826
20462W        W92788  40.745  26.666  12.448
20463W        W92789  40.728  16.586  12.161
20464W        W92790  35.848  10.244  14.444
20465W        W92791  15.943  18.123  10.037
20466W        W92792   7.160   7.239  12.366
20467W        W92793  20.027  39.589   0.389
20468W        W92794  14.066  10.157   0.944
20469W        W92795  10.286  30.132  14.390
20470W        W92796  28.355  37.880   1.118
20471W        W92797  26.596  21.264  11.862
20472W        W92798  24.902  19.149  11.496
20473W        W92799  13.332  41.938   3.127
20474W        W92800  35.592  44.776  12.167
20475W        W92801  19.304  39.338   1.134
20476W        W92802  14.117  34.900   1.896
20477W        W92803  12.353   8.284   3.330
20478W        W92804  13.838   0.466  12.360
20479W        W92805  20.287  38.919   1.394
20480W        W92806  13.173  13.226   3.381
20481W        W92807  16.832  12.653   4.670
20482W        W92808  33.816  38.640  11.036
20483W        W92809  28.200  23.637  13.275
20484W        W92810  35.573  16.623  14.041
20485W        W92811  13.878   9.873   0.450
20486W        W92812  12.744  27.200   0.080
20487W        W92813  30.623  25.621   0.429
20488W        W92814  31.053  15.267  13.320
20489W        W92815  13.634  25.389  12.808
20490W        W92816  37.138  40.950   1.220
20491W        W92817  43.380   8.695   3.211
20492W        W92818  39.831  38.451  14.859
20493W        W92819   4.119  37.113   4.183
20494W        W92820  10.817  33.508  10.709
20495W        W92821  17.273  22.499   5.002
20496W        W92822   1.091  43.955   4.409
20497W        W92823  18.664  34.894   2.846
20498W        W92824  18.240  22.503   0.332
20499W        W92825  37.327  44.200  12.683
20500W        W92826   7.162  27.423  11.092
20501W        W92827   5.888  27.997  14.973
20502W        W92828  18.596  24.518   0.285
20503W        W92829  14.858   6.309  14.790
20504W        W92830  15.175   4.283   3.782
20505W        W92831  41.436  15.364  11.630
20506W        W92832  41.157  22.940   0.443
20507W        W92833   0.826   9.264  10.378
20508W        W92834  20.029  41.433   0.758
20509W        W92835   6.623  42.102   0.311
20510W        W92836  29.869  44.954  13.454
20511W        W92837  22.543  28.560   2.481
20512W        W92838  31.705   9.376   1.877
20513W        W92839  32.890  12.144  14.707
20514W        W92840  29.527  12.086   1.341
20515W        W92841  38.120   2.244   3.274
20516W        W92842  20.970  41.338   0.296
20517W        W92843   5.883  15.709  11.995
20518W        W92844  30.109   8.677  13.012
20519W        W92845  30.612  39.926   3.697
20520W        W92846  32.971  18.510   0.978
20521W        W92847  21.577  12.292   1.247
20522W        W92848  20.561  24.181   4.657
20523W        W92849  15.822  40.775  10.681
20524W        W92850  44.288  36.388  10.940
20525W        W92851  31.624   5.618  10.681
20526W        W92852  40.998  27.491   1.022
20527W        W92853  18.781  18.769  12.521
20528W        W92854  24.242   9.639   3.284
20529W        W92855  23.723  30.034   0.738
20530W        W92856  41.476  24.190   3.822
20531W        W92857  11.045  15.158  12.064
20532W        W92858  21.454  40.287  13.405
20533W        W92859   4.664  11.433   1.368
20534W        W92860  29.572  22.068   4.644
20535W        W92861  44.700  18.773  12.130
20536W        W92862  25.139   0.097  13.982
20537W        W92863   1.511   5.740   3.660
20538W        W92864  44.915  41.564   0.247
20539W        W92865   1.809  18.250  11.899
20540W        W92866  10.113  11.617  12.285
20541W        W92867  23.759   8.795   0.898
20542W        W92868  17.304   4.706  12.026
20543W        W92869  35.506   2.781   0.396
20544W        W92870  40.916  33.162  14.035
20545W        W92871  36.917   0.177   4.086
20546W        W92872  21.013  39.430   5.145
20547W        W92873   6.878  19.524   2.384
20548W        W92874   3.261  26.898  12.625
20549W        W92875  38.558  12.911  13.526
20550W        W92876  33.912  34.289   4.128
20551W        W92877   1.279   9.013  13.814
20552W        W92878  41.009  41.537  14.978
20553W        W92879  27.144  35.315   3.318
20554W        W92880  27.704  30.165  11.091
20555W        W92881  10.396  14.715   1.355
20556W        W92882  32.189  28.563   4.992
20557W        W92883  37.405  44.867  10.920
20558W        W92884   6.652  15.096  14.813
20559W        W92885  31.030   9.408   3.604
20560W        W92886   0.114   5.230   1.963
20561W        W92887  30.478  23.552  14.767
20562W        W92888  28.597  21.960   4.342
20563W        W92889  43.368   9.860   3.247
20564W        W92890  10.309  12.356   1.687
20565W        W92891  19.053  10.125   4.119
20566W        W92892  19.525  20.049   5.036
20567W        W92893  18.187   5.266   2.266
20568W        W92894  36.617  18.385  13.950
20569W        W92895  21.681  33.002   3.341
20570W        W92896  35.878  36.539  13.006
20571W        W92897  41.803   6.165   4.217
20572W        W92898  43.629  20.153   1.460
20573W        W92899  18.312  13.333  14.034
20574W        W92900   5.388  28.500   1.821
20575W        W92901  16.813   4.185  14.372
20576W        W92902  28.674   9.278  14.300
20577W        W92903  38.015  31.469   4.255
20578W        W92904   3.242  23.678  13.856
20579W        W92905  19.695  42.945   4.618
20580W        W92906  25.423  22.941  11.091
20581W        W92907  31.892   3.288  11.079
20582W        W92908   3.546   5.217   4.720
20583W        W92909  44.956  30.026  12.156
20584W        W92910  24.739  28.791   3.227
20585W        W92911   2.675  31.689   2.172
20586W        W92912  21.657  13.336   1.422
20587W        W92913  38.769  39.806   2.264
20588W        W92914   2.221  13.210  13.549
20589W        W92915  27.943  36.398   0.368
20590W        W92916   0.671   5.452   3.797
20591W        W92917  44.944  39.590   0.382
20592W        W92918  37.043  10.057  11.452
20593W        W92919  29.431  42.718  14.758
20594W        W92920  26.501   9.076   1.220
20595W        W92921  28.703   5.320   0.749
20596W        W92922  37.795  14.305  12.974
20597W        W92923   9.267  24.682  12.997
20598W        W92924  28.568  40.036   1.758
20599W        W92925  28.620   3.665  13.075
20600W        W92926  34.045  37.498   0.192
20601W        W92927   3.705  34.798   0.261
20602W        W92928   5.642  40.224   0.285
20603W        W92929   8.910  41.585  10.770
20604W        W92930  43.931   7.875   4.734
20605W        W92931   3.338  12.527   3.237
20606W        W92932  39.628  27.469   3.266
20607W        W92933   0.040  27.280   0.644
20608W        W92934  30.893   6.386   2.144
20609W        W92935  42.235  37.964  14.825
20610W        W92936   9.640  43.118  13.982
20611W        W92937   8.093  21.102   2.737
20612W        W92938  33.167  23.645  14.045
20613W        W92939  12.317   6.662  14.357
20614W        W92940  39.786  36.890  11.120
20615W        W92941  35.009  20.844   4.205
20616W        W92942  19.177  27.164  14.165
20617W        W92943  40.748  14.835   1.273
20618W        W92944  20.092   8.797   0.908
20619W        W92945   9.337  14.053  12.066
20620W        W92946  19.731  44.523   0.731
20621W        W92947  11.115  10.221  13.711
20622W        W92948   3.789  19.078  13.892
20623W        W92949  23.143  27.580   0.462
20624W        W92950  14.448  28.892   2.603
20625W        W92951  24.129  24.605   1.388
20626W        W92952   8.426  26.171  10.706
20627W        W92953   5.901  22.801  14.003
20628W        W92954   9.764   3.165   4.504
20629W        W92955  40.542  33.975   4.432
20630W        W92956  36.641  18.098  10.623
20631W        W92957   8.888  36.468  12.584
20632W        W92958  16.719  37.623  11.861
20633W        W92959  17.207  17.706   3.302
20634W        W92960  30.191   8.754  13.927
20635W        W92961  14.089  22.446   4.253
20636W        W92962   8.777   0.789  13.989
20637W        W92963  41.403   7.295   3.085
20638W        W92964  33.981  23.574  14.923
20639W        W92965  17.219   2.679  12.907
20640W        W92966  24.764   7.337   3.851
20641W        W92967   2.239   7.746   0.493
20642W        W92968  18.687  35.975   0.795
20643W        W92969  41.795  36.616   2.652
20644W        W92970  10.659  11.606   3.872
20645W        W92971   3.327  10.686   0.292
20646W        W92972  11.158  26.957   1.419
20647W        W92973  27.021  29.997  10.580
20648W        W92974  27.009  36.580   1.925
20649W        W92975   6.905  34.577   3.662
20650W        W92976   5.997  23.463   1.775
20651W        W92977   9.692  25.200   0.647
20652W        W92978   2.977  41.364   3.668
20653W        W92979  23.694   8.465   3.096
20654W        W92980   5.547   1.462   1.410
20655W        W92981   8.783  31.366  14.950
20656W        W92982   1.219  16.197   1.833
20657W        W92983  28.197  12.821   0.095
20658W        W92984  44.865  12.820   1.667
20659W        W92985  21.185  41.451   2.719
20660W        W92986   4.599  28.274  10.054
20661W        W92987   7.762  40.122  11.595
20662W        W92988  20.516  29.179   4.141
20663W        W92989  10.405  27.116   0.663
20664W        W92990  14.410  24.396   4.494
20665W        W92991  20.723  25.424  14.938
20666W        W92992  24.855  10.954   2.739
20667W        W92993  11.110  12.865  14.929
20668W        W92994  21.590  40.726  10.027
20669W        W92995  22.728   3.847  13.834
20670W        W92996  31.697  17.955   4.144
20671W        W92997  34.163  31.985   4.576
20672W        W92998  39.877  33.956  12.600
20673W        W92999  12.700  36.345   2.615
20674W        W93000  27.130  11.811   1.467
20675W        W93001  22.066  28.551   3.514
20676W        W93002  28.432  18.189  12.422
20677W        W93003   2.770  18.038  12.018
20678W        W93004  14.768  44.320   2.212
20679W        W93005   5.725  42.851  14.919
20680W        W93006  33.958  33.862   5.033
20681W        W93007  31.683  40.078   0.308
20682W        W93008  30.739   3.313  14.930
20683W        W93009   3.894  33.613   0.836
20684W        W93010  32.316  17.410  11.573
20685W        W93011  14.246  30.846   4.749
20686W        W93012  40.024   8.891   1.490
20687W        W93013   8.506  28.600   1.507
20688W        W93014  15.064   5.840   1.489
20689W        W93015  30.401  16.747  13.429
20690W        W93016  29.107  42.218   3.621
20691W        W93017  31.901   7.327  14.842
20692W        W93018  27.951  17.721   1.699
20693W        W93019  35.318  37.326   1.016
20694W        W93020  35.982  17.716  13.467
20695W        W93021  30.160   1.025  14.323
20696W        W93022  17.709  27.413   4.550
20697W        W93023  10.333  21.749  12.909
20698W        W93024   6.914  14.900  12.954
20699W        W93025  38.090   0.257  14.511
20700W        W93026   0.744  43.551  10.843
20701W        W93027  24.562  20.403   2.656
20702W        W93028   9.231   2.034   2.120
20703W        W93029  23.241  38.636  12.790
20704W        W93030   7.761  10.359   4.574
20705W        W93031  39.436  20.017  14.373
20706W        W93032   5.615   4.645   3.378
20707W        W93033  10.005  22.358  11.811
20708W        W93034  15.233  14.179   1.065
20709W        W93035  13.203   5.638  11.616
20710W        W93036   8.826  11.650  11.183
20711W        W93037   5.627  38.433  13.822
20712W        W93038  28.033  21.749  11.916
20713W        W93039  10.423   1.773  11.242
20714W        W93040  19.156  18.381  12.240
20715W        W93041  15.809   6.832   1.785
20716W        W93042   3.235  32.681  11.479
20717W        W93043  22.675  22.472   1.554
20718W        W93044  12.948  35.902  14.300
20719W        W93045   0.438  33.195  14.014
20720W        W93046   7.736   1.086  11.675
20721W        W93047  23.065  14.834   4.666
20722W        W93048   9.179  12.695  13.248
20723W        W93049  21.567  44.520   0.717
20724W        W93050  36.512  28.988   0.929
20725W        W93051  33.874  35.507   4.181
20726W        W93052  21.949  11.606  12.434
20727W        W93053  39.917  25.292  11.553
20728W        W93054  34.436  36.610  12.439
20729W        W93055   7.615  36.023  13.834
20730W        W93056   3.909  37.889   2.906
20731W        W93057  23.977   5.713   2.435
20732W        W93058  20.553  43.467   2.391
20733W        W93059   1.683  17.511   3.303
20734W        W93060  41.361  27.073  13.351
20735W        W93061  33.524  33.131   0.254
20736W        W93062  30.678  16.682   1.191
20737W        W93063   7.138  30.141  12.696
20738W        W93064  41.608  22.141  12.447
20739W        W93065  25.717   1.669  12.332
20740W        W93066   3.978   3.881   0.512
20741W        W93067  21.642  41.243  10.782
20742W        W93068  38.526  32.853   0.901
20743W        W93069  17.210  21.808  14.922
20744W        W93070   9.916  11.505  13.153
20745W        W93071  28.088  32.153   1.435
20746W        W93072  41.212  19.236   0.387
20747W        W93073  17.333  26.044   1.858
20748W        W93074  21.162   2.479  13.123
20749W        W93075   8.892  28.088   5.140
20750W        W93076  14.592  39.302  10.579
20751W        W93077   2.510  15.280   3.789
20752W        W93078  25.993  28.288  11.967
20753W        W93079  15.213  25.193  14.651
20754W        W93080  33.121  20.810   2.347
20755W        W93081  33.446  23.976   1.469
20756W        W93082  40.424  35.467   4.836
20757W        W93083  10.738  37.076   1.417
20758W        W93084  18.525  20.047   4.705
20759W        W93085  15.514  14.339   4.200
20760W        W93086   0.724  38.166  11.452
20761W        W93087   5.811  38.574  13.358
20762W        W93088   5.923  29.083  11.329
20763W        W93089  38.480  22.022   1.821
20764W        W93090  21.664  22.373  11.559
20765W        W93091  23.727  17.667  12.582
20766W        W93092  21.161   4.973  14.469
20767W        W93093  29.062  38.627  12.297
20768W        W93094  10.251  25.099  12.839
20769W        W93095   7.806   2.814  10.721
20770W        W93096  22.325  42.865  13.465
20771W        W93097   4.516   5.340  11.282
20772W        W93098   3.511  28.401   3.349
20773W        W93099  32.940  21.240   2.554
20774W        W93100  38.129  23.996   3.782
20775W        W93101   5.330  35.860   4.198
20776W        W93102  38.236  33.335  13.046
20777W        W93103  23.177   5.822  12.870
20778W        W93104  20.188  27.022   2.824
20779W        W93105  44.212  19.963  12.638
20780W        W93106  30.736  24.927   4.036
20781W        W93107  31.572   7.624   3.798
20782W        W93108   1.979  19.033  10.687
20783W        W93109  10.299  29.890   4.364
20784W        W93110   8.220  31.911   2.264
20785W        W93111  19.462   5.365  12.477
20786W        W93112  30.108   1.995   2.066
20787W        W93113  41.911  18.677  11.778
20788W        W93114  18.059   7.957   2.299
20789W        W93115  17.065  15.344   3.212
20790W        W93116  25.656  41.002   0.235
20791W        W93117  27.235  26.620   1.203
20792W        W93118   0.985  27.044   4.642
20793W        W93119  37.459   6.641   4.161
20794W        W93120   9.709   1.914   2.778
20795W        W93121  34.094  35.047  14.076
20796W        W93122  13.695  33.989   3.578
20797W        W93123   9.566  15.817   2.330
20798W        W93124  43.449  25.147  14.966
20799W        W93125  21.547  34.423   1.818
20800W        W93126   8.732   0.948   4.984
20801W        W93127  25.112  36.079  11.415
20802W        W93128  39.471   1.272  12.891
20803W        W93129  19.928  29.722   2.122
20804W        W93130  27.360  11.366  12.622
20805W        W93131   4.168  16.340   0.916
20806W        W93132  19.690  42.646  12.092
20807W        W93133   9.990  38.311  14.582
20808W        W93134  10.143  38.077   0.341
20809W        W93135  34.423  24.286  12.678
20810W        W93136  28.812  22.700   4.627
20811W        W93137  36.676  11.427  11.981
20812W        W93138  20.554  34.142   3.861
20813W        W93139  28.237  13.885  11.914
20814W        W93140  36.565  19.998   1.867
20815W        W93141  31.625  33.020   2.289
20816W        W93142  28.051  18.184   1.515
20817W        W93143  31.519  19.518   4.241
20818W        W93144  13.734  44.900  11.149
20819W        W93145  29.623  20.613   3.417
20820W        W93146   0.089  30.030  12.993
20821W        W93147   1.289   0.444  13.899
20822W        W93148  21.044  21.985  14.920
20823W        W93149  32.721  35.687  10.815
20824W        W93150  44.517  21.772   0.388
20825W        W93151   0.263  36.809  12.490
20826W        W93152  10.807  29.097   4.987
20827W        W93153  20.806   6.470   4.037
20828W        W93154  20.648  25.583  12.631
20829W        W93155   4.188   6.724   0.441
20830W        W93156   9.619  11.648   0.878
20831W        W93157  22.289  39.488   5.520
20832W        W93158  21.051  31.874   4.168
20833W        W93159   5.251  35.358  14.489
20834W        W93160  15.277  44.846   0.743
20835W        W93161   1.485  14.130   4.164
20836W        W93162  30.834   3.003   1.998
20837W        W93163  43.672  15.035   2.787
20838W        W93164  22.211   5.019   2.889
20839W        W93165   4.383  22.817  14.659
20840W        W93166  12.216  37.033   0.769
20841W        W93167  26.103  42.327  12.360
20842W        W93168  12.603  24.244  14.005
20843W        W93169  22.057  40.943   0.947
20844W        W93170  40.397  44.982   2.469
20845W        W93171  14.248  36.072  14.391
20846W        W93172  31.484  38.604   0.285
20847W        W93173  38.325  11.352   3.287
20848W        W93174  23.951  32.149  12.117
20849W        W93175  18.563  43.543   0.820
20850W        W93176   8.441  26.958   2.694
20851W        W93177   6.842   7.183   4.831
20852W        W93178  41.977   7.493  13.126
20853W        W93179  23.242  25.433  13.498
20854W        W93180  31.137  37.614   0.810
20855W        W93181   4.224   2.750  12.138
20856W        W93182   6.349  36.871  12.118
20857W        W93183   7.417  29.184  10.992
20858W        W93184  24.223  22.732  11.735
20859W        W93185  35.554   8.314   1.353
20860W        W93186  38.994   0.751  10.708
20861W        W93187  35.393  38.916   4.548
20862W        W93188  14.385  18.224   2.144
20863W        W93189  38.917  10.144   2.315
20864W        W93190  38.505  14.641  10.584
20865W        W93191   7.617  10.393  14.435
20866W        W93192   5.661   7.709   2.688
20867W        W93193  42.733  43.440   3.139
20868W        W93194  39.721  39.511   2.373
20869W        W93195  23.448  26.042   1.384
20870W        W93196  29.175   9.954  11.089
20871W        W93197  41.365  17.996  13.077
20872W        W93198  37.873  10.181  10.281
20873W        W93199  42.450   5.896   2.191
20874W        W93200   1.905   1.310   3.122
20875W        W93201  24.550  18.466   0.341
20876W        W93202  40.300  39.836  10.701
20877W        W93203  44.293  35.823   4.143
20878W        W93204   8.373  39.353  14.227
20879W        W93205  26.019  44.193   4.325
20880W        W93206   0.259  19.518  11.970
20881W        W93207  38.898  22.283  14.996
20882W        W93208   2.973  38.017   0.792
20883W        W93209  25.109  18.481  13.824
20884W        W93210   4.918  15.902  10.397
20885W        W93211  36.498  37.917  12.902
20886W        W93212  34.515  43.002   0.671
20887W        W93213   5.397  35.870  10.697
20888W        W93214   7.419  23.530   3.149
20889W        W93215  38.348  20.718   0.247
20890W        W93216  16.524  17.192   2.350
20891W        W93217   8.340  14.878  13.490
20892W        W93218  37.647   8.425  14.997
20893W        W93219   2.828  12.311  12.996
20894W        W93220  20.135   2.485  13.885
20895W        W93221  23.590  31.763  11.675
20896W        W93222  21.780  33.691  13.042
20897W        W93223  11.028  34.653  11.486
20898W        W93224  42.532  15.089  10.642
20899W        W93225  26.305  41.033   2.343
20900W        W93226  40.660  11.803  12.539
20901W        W93227  41.724  34.853  12.517
20902W        W93228  31.858   0.657   1.782
20903W        W93229   0.553  36.479   0.180
20904W        W93230  22.840  44.792   4.741
20905W        W93231  39.463   8.329   4.352
20906W        W93232  13.312  11.279  10.502
20907W        W93233  23.568  28.674   4.631
20908W        W93234  38.510  17.657   4.039
20909W        W93235  18.765  28.124   1.397
20910W        W93236   5.341  26.037  10.705
20911W        W93237  16.115  29.617  14.412
20912W        W93238  17.377  17.694   3.787
20913W        W93239  20.275  23.718  11.604
20914W        W93240   1.036  12.385   5.112
20915W        W93241   8.426  30.030  10.683
20916W        W93242  14.265  31.878   4.630
20917W        W93243  38.355   1.044   3.724
20918W        W93244  23.228  28.510  14.800
20919W        W93245  11.841  42.381  12.455
20920W        W93246   1.515   4.269   5.135
20921W        W93247  23.221  18.731   1.455
20922W        W93248  22.735   3.857  11.240
20923W        W93249  18.286   0.746   3.423
20924W        W93250  41.255  43.805   1.610
20925W        W93251  33.304  26.705  12.410
20926W        W93252  34.450  42.936   2.064
20927W        W93253  14.576  39.483  11.524
20928W        W93254   5.122  33.836  11.072
20929W        W93255  15.229   3.868  13.926
20930W        W93256   4.665  13.165   4.678
20931W        W93257  34.991  43.988  13.084
20932W        W93258   1.713  37.843   3.784
20933W        W93259  12.188  13.016  11.437
20934W        W93260  39.919   5.308  13.653
20935W        W93261  44.384   4.949  11.508
20936W        W93262   6.135   8.815  10.183
20937W        W93263  24.668  35.041  14.028
20938W        W93264  12.277  10.509  12.991
20939W        W93265  16.412  37.541   1.142
20940W        W93266  37.601  35.153   0.925
20941W        W93267  34.190   8.592   0.266
20942W        W93268  17.577  12.161  14.969
20943W        W93269  20.531  42.457  11.576
20944W        W93270   6.443  43.093  10.773
20945W        W93271  39.723  11.364  12.540
20946W        W93272  26.652  38.449   0.502
20947W        W93273  18.060  39.721  11.482
20948W        W93274  30.552   1.401  14.373
20949W        W93275  15.414  32.427  10.346
20950W        W93276  43.262   5.542   2.657
20951W        W93277   5.186  14.377  12.472
20952W        W93278  19.531  28.942   1.709
20953W        W93279  23.912   2.335   0.660
20954W        W93280  27.226  41.708  14.609
20955W        W93281  19.981  19.193   3.797
20956W        W93282  41.183  44.641  11.120
20957W        W93283  17.294   1.231   1.302
20958W        W93284  11.369  29.993   4.518
20959W        W93285  41.252  28.530   0.387
20960W        W93286  19.323   6.606  10.625
20961W        W93287  44.518  11.069  12.059
20962W        W93288  17.561   8.081   3.335
20963W        W93289  36.654  13.750   3.350
20964W        W93290  18.276  19.326  14.334
20965W        W93291  12.632  10.231  11.803
20966W        W93292  43.747  29.670  12.645
20967W        W93293   9.670  28.915   3.053
20968W        W93294  11.526  24.654  10.709
20969W        W93295  19.186  36.546  11.329
20970W        W93296  24.605  39.025   1.390
20971W        W93297  19.111  43.814   1.749
20972W        W93298  19.374  17.284   4.667
20973W        W93299  22.794   4.031   4.532
20974W        W93300   0.475  36.018   3.301
20975W        W93301  42.826  21.613   1.807
20976W        W93302   5.231  33.341  11.775
20977W        W93303  39.481   9.780   1.297
20978W        W93304  22.563  16.752   5.507
20979W        W93305   7.787  20.636  12.364
20980W        W93306  21.359  19.879  10.728
20981W        W93307   0.333  41.792  10.713
20982W        W93308  12.612  44.463   3.869
20983W        W93309  18.305  16.869   2.086
20984W        W93310  30.439   6.010  11.205
20985W        W93311  37.550  16.699   0.514
20986W        W93312  30.011  32.047   1.384
20987W        W93313  18.671  43.406   2.146
20988W        W93314  15.106  42.767   0.405
20989W        W93315  11.611  41.381   1.371
20990W        W93316  23.049   0.464   2.723
20991W        W93317  25.535  17.202  13.022
20992W        W93318  11.258  31.512  11.396
20993W        W93319   5.829  27.025  13.139
20994W        W93320  40.820  41.821  13.787
20995W        W93321  15.698  40.527   4.174
20996W        W93322  25.079   5.784  14.741
20997W        W93323   8.300  26.946   2.212
20998W        W93324  26.706  41.292  11.871
20999W        W93325  40.873   0.713   3.649
21000W        W93326  24.399   2.324  14.272
21001W        W93327  44.688  24.909  12.059
21002W        W93328  28.843  42.376   1.354
21003W        W93329  11.822  31.491   2.201
21004W        W93330   6.544  12.680   0.794
21005W        W93331  38.381  38.131  10.963
21006W        W93332  27.152  38.047  14.605
21007W        W93333  23.053  15.281   1.186
21008W        W93334  26.810  10.595   0.795
21009W        W93335  30.608  21.916   0.959
21010W        W93336   9.706   6.624  10.763
21011W        W93337   1.236  44.812   0.448
21012W        W93338  11.283  28.774   4.071
21013W        W93339  39.314   4.790   1.236
21014W        W93340   2.274  14.712   5.069
21015W        W93341  24.252  36.929   4.685
21016W        W93342  26.645  11.219   2.715
21017W        W93343   5.313  15.853  12.692
21018W        W93344  39.846  32.104  14.951
21019W        W93345  26.456  18.767  14.926
21020W        W93346  44.409  43.105   2.865
21021W        W93347  31.699  27.574  14.944
21022W        W93348  28.522  34.193  13.996
21023W        W93349  34.933  22.774   3.669
21024W        W93350   9.317  33.645   3.321
21025W        W93351  42.492  22.076   4.669
21026W        W93352   3.451  42.321  13.334
21027W        W93353  42.314   8.892   2.383
21028W        W93354  31.030  12.720  14.502
21029W        W93355  39.993  36.559  12.035
21030W        W93356  44.268   8.158   4.462
21031W        W93357  22.502   1.778   3.125
21032W        W93358  10.635  24.184  11.060
21033W        W93359  37.816  10.770   0.796
21034W        W93360   6.751  28.293  14.322
21035W        W93361   7.860   2.222   3.181
21036W        W93362  15.296  18.609  11.263
21037W        W93363  36.507  27.789   0.388
21038W        W93364  37.027  17.589   4.143
21039W        W93365   7.671  34.981   4.939
21040W        W93366  36.065  34.100  14.290
21041W        W93367  42.689   3.920  10.431
21042W        W93368  16.043  18.710   4.876
21043W        W93369  20.795   5.821   1.415
21044W        W93370  37.131  24.050  13.384
21045W        W93371  40.333   7.433  13.829
21046W        W93372   3.484  32.536   3.770
21047W        W93373  27.364  10.198  11.001
21048W        W93374  39.973  15.714   2.599
21049W        W93375  34.111  23.283   3.538
21050W        W93376   8.842   9.021   4.991
21051W        W93377  12.267  30.845  12.574
21052W        W93378  40.468  31.154   2.283
21053W        W93379  22.333  23.498  10.729
21054W        W93380  18.666  20.052  11.163
21055W        W93381  22.302  33.074   5.104
21056W        W93382  34.580   1.210  13.582
21057W        W93383  41.819  10.409  14.135
21058W        W93384  35.540   4.875  10.692
21059W        W93385  18.587  25.565  13.832
21060W        W93386  29.402   7.876  11.099
21061W        W93387  18.740  21.106  13.371
21062W        W93388  19.778  35.143   1.345
21063W        W93389   2.598  23.706   1.809
21064W        W93390  32.800   5.650  12.411
21065W        W93391  31.803  44.749  14.855
21066W        W93392  30.937   5.940   4.625
21067W        W93393  12.315   0.814  14.930
21068W        W93394   0.787   1.743  11.078
21069W        W93395  27.048   9.191  14.043
21070W        W93396   4.469  23.289   1.851
21071W        W93397  26.225   7.722   3.229
21072W        W93398  40.457  39.563  12.122
21073W        W93399  13.745  18.466  11.875
21074W        W93400  17.777  29.062  13.446
21075W        W93401   6.019  11.769  13.796
21076W        W93402  13.868  24.743  10.216
21077W        W93403  33.447  20.170  13.887
21078W        W93404  27.697  34.551   0.917
21079W        W93405   7.531  36.155  10.645
21080W        W93406  34.945   1.964  14.864
21081W        W93407  27.040  42.766  13.943
21082W        W93408   1.468  34.613  14.440
21083W        W93409  36.088   5.328   1.730
21084W        W93410  24.564  26.805   4.461
21085W        W93411  10.634  23.705  14.085
21086W        W93412  16.309   8.928  13.922
21087W        W93413   3.232   6.285  13.859
21088W        W93414  35.018  43.493   2.779
21089W        W93415  43.320   6.909   0.236
21090W        W93416   7.944  22.195   4.169
21091W        W93417  24.026   0.749   0.375
21092W        W93418  16.782  25.394  14.743
21093W        W93419  15.666  29.910   0.766
21094W        W93420  36.343  12.130   0.664
21095W        W93421  34.565  23.370  13.907
21096W        W93422  29.659  44.575  13.877
21097W        W93423   2.258  28.946  11.938
21098W        W93424  14.034  19.515   0.030
21099W        W93425  25.117  16.696   4.063
21100W        W93426  25.064  32.501   0.613
21101W        W93427  23.012   7.647   0.802
21102W        W93428  44.385   0.836  12.182
21103W        W93429  40.326   4.695  11.939
21104W        W93430   8.779  17.127   1.847
21105W        W93431  14.028  38.566   4.179
21106W        W93432  21.213  11.846  11.428
21107W        W93433   1.658  24.822  14.363
21108W        W93434   3.843  43.323  13.119
21109W        W93435  23.301   6.021  11.528
21110W        W93436  25.585  17.587   0.657
21111W        W93437  28.401  17.090   3.247
21112W        W93438   2.931  31.715   2.617
21113W        W93439  28.441  37.022   0.615
21114W        W93440  14.545  20.565  11.390
21115W        W93441   9.706  17.731   3.861
21116W        W93442  33.423   9.322   2.313
21117W        W93443  22.071   6.955   2.676
21118W        W93444  26.118  26.110   3.690
21119W        W93445  39.016   6.172   0.963
21120W        W93446   5.988  31.986  14.415
21121W        W93447   9.711  33.769  12.434
21122W        W93448  18.530   4.240  11.082
21123W        W93449  22.603  28.523   3.392
21124W        W93450  11.090   5.109   0.001
21125W        W93451  12.562   0.209   4.372
21126W        W93452   5.775  10.820   2.116
21127W        W93453  39.085  28.001   1.922
21128W        W93454  20.135  15.607  13.315
21129W        W93455  21.021  14.178   4.259
21130W        W93456  30.425   7.814  11.299
21131W        W93457  21.088  27.989  13.015
21132W        W93458  42.000  17.127  14.379
21133W        W93459  25.520  41.097  12.469
21134W        W93460  30.913  40.316   1.898
21135W        W93461  44.223  36.077  12.991
21136W        W93462  14.077  38.380   0.945
21137W        W93463  41.335   0.681   1.872
21138W        W93464  43.040   2.917  10.679
21139W        W93465  22.422   6.391   4.136
21140W        W93466  24.281  43.473   1.800
21141W        W93467  36.864   3.518   2.288
21142W        W93468   7.261   4.189  13.804
21143W        W93469  32.073   0.639  14.536
21144W        W93470  16.682   4.988  13.008
21145W        W93471  20.091  27.954  11.220
21146W        W93472  32.090  42.404  12.111
21147W        W93473  41.895  11.710   1.151
21148W        W93474  28.889  37.401  13.028
21149W        W93475  19.048   5.322   3.362
21150W        W93476   2.959   8.736   2.715
21151W        W93477  10.291  18.957   3.357
21152W        W93478   0.104  42.786  13.262
21153W        W93479   6.230  25.097   0.700
21154W        W93480  13.791   1.898   4.575
21155W        W93481  16.012   7.165   5.081
21156W        W93482  10.357   4.963   3.221
21157W        W93483  10.614  43.388  11.131
21158W        W93484  15.705  12.139   4.223
21159W        W93485   4.599  16.420  12.864
21160W        W93486  44.824  18.463   1.164
21161W        W93487  29.965  26.885  10.663
21162W        W93488   4.855  38.268   2.739
21163W        W93489  13.023   3.280   2.184
21164W        W93490  22.592   6.972   0.240
21165W        W93491  44.887  25.731  13.885
21166W        W93492  44.171   1.766   0.927
21167W        W93493  35.766  32.671   0.799
21168W        W93494  40.484  17.726   4.614
21169W        W93495  43.472  29.228   1.959
21170W        W93496  28.166  17.119   4.691
21171W        W93497   5.024   3.319   3.140
21172W        W93498   1.262  21.611   1.083
21173W        W93499  34.099  43.999  12.516
21174W        W93500   3.400   2.692   3.293
21175W        W93501  33.977  38.976   2.175
21176W        W93502  10.294  12.207  12.061
21177W        W93503  27.414  37.813   3.122
21178W        W93504  19.746  14.264  12.104
21179W        W93505  14.305  36.379  14.799
21180W        W93506  27.307  42.193   1.906
21181W        W93507  22.522  38.644  10.701
21182W        W93508   3.026  36.997  11.836
21183W        W93509  19.351  19.870  11.942
21184W        W93510  13.541  43.273   2.095
21185W        W93511  33.127  10.452   1.851
21186W        W93512  28.044  30.249   3.215
21187W        W93513  12.599  27.274  13.089
21188W        W93514  21.692  30.325   0.942
21189W        W93515  43.364   5.142   1.758
21190W        W93516  18.567  38.494  12.820
21191W        W93517  30.083  24.910  12.478
21192W        W93518   7.807  20.109   3.111
21193W        W93519  41.275   3.349  14.905
21194W        W93520  34.406   3.806   4.511
21195W        W93521  10.352  33.022   0.339
21196W        W93522  24.696  14.123  12.099
21197W        W93523  12.914  11.402  11.939
21198W        W93524   1.471  40.920  13.556
21199W        W93525  13.249  29.217   1.005
21200W        W93526  17.657  39.852  14.221
21201W        W93527  21.255  21.670  11.174
21202W        W93528  44.804   6.761  11.643
21203W        W93529  17.061  14.312   3.792
21204W        W93530  14.225  36.640   5.436
21205W        W93531  37.540  39.551   1.259
21206W        W93532  17.349  15.660   4.457
21207W        W93533  38.002  36.079   2.773
21208W        W93534  40.041  15.443  14.676
21209W        W93535  18.865  28.664  13.851
21210W        W93536  36.473   5.775  10.630
21211W        W93537  35.509   2.422   3.194
21212W        W93538  33.502  14.469   3.106
21213W        W93539  19.833   3.850  12.907
21214W        W93540  33.968  17.444  12.584
21215W        W93541  40.486  10.778   2.273
21216W        W93542  20.320  20.690   2.273
21217W        W93543  32.021  41.496  14.289
21218W        W93544   6.973  33.551   4.254
21219W        W93545  36.993  14.040  13.539
21220W        W93546  14.112   2.441  13.796
21221W        W93547  37.742  12.193   0.791
21222W        W93548   3.709  35.495  13.512
21223W        W93549  27.256   1.374   0.439
21224W        W93550  34.503   6.539   3.452
21225W        W93551  11.129  43.338  11.085
21226W        W93552   3.506  41.415  11.371
21227W        W93553  12.732  24.232   4.116
21228W        W93554  14.057  33.975  10.557
21229W        W93555  14.837  38.954  12.379
21230W        W93556   4.743  17.145  14.838
21231W        W93557  38.304   3.049   1.670
21232W        W93558  30.908   3.964  10.713
21233W        W93559  35.595   0.458   4.251
21234W        W93560  27.982   1.836   1.222
21235W        W93561   5.619  27.633  11.322
21236W        W93562   9.706  41.366  13.546
21237W        W93563  27.121  24.084  13.972
21238W        W93564   0.443  25.229   2.837
21239W        W93565  25.494  26.736   4.520
21240W        W93566   3.060  21.345   2.776
21241W        W93567  21.644  18.201  10.360
21242W        W93568  42.045  13.793  14.462
21243W        W93569  11.612   2.502  13.755
21244W        W93570  11.275  14.039   1.033
21245W        W93571  19.313  32.470   2.286
21246W        W93572  25.213  17.256   5.233
21247W        W93573  44.730  14.515  12.085
21248W        W93574  29.269   0.806   4.700
21249W        W93575   2.262  21.628   0.661
21250W        W93576  24.720   1.362   2.269
21251W        W93577  32.000  17.726  10.851
21252W        W93578  24.165  13.245  12.409
21253W        W93579   9.968  34.875  10.690
21254W        W93580  42.297   6.184  14.017
21255W        W93581  38.523  19.904  11.954
21256W        W93582  10.769  28.265  11.108
21257W        W93583  19.226  32.344   4.166
21258W        W93584   8.688  36.326  14.845
21259W        W93585  38.423  28.948   2.803
21260W        W93586   3.902  12.247  13.021
21261W        W93587   8.329  32.954   3.394
21262W        W93588   0.822  10.809  12.399
21263W        W93589  25.189  24.072   3.194
21264W        W93590  26.973  21.770  10.428
21265W        W93591  20.446  36.391  10.953
21266W        W93592   9.348  39.298   1.171
21267W        W93593  12.180  12.324  12.976
21268W        W93594  28.083  15.400  10.754
21269W        W93595   0.086  12.260   4.717
21270W        W93596  43.694  22.547   2.782
21271W        W93597   9.450  33.142  13.589
21272W        W93598  12.349  20.701  13.833
21273W        W93599  35.582  44.941   0.276
21274W        W93600  17.577   3.498  11.483
21275W        W93601  18.590  32.958  14.582
21276W        W93602  28.559  29.274  13.424
21277W        W93603   9.751  24.662  14.438
21278W        W93604  13.203  29.959   3.918
21279W        W93605  30.963  26.980   0.948
21280W        W93606   9.866   8.173   4.593
21281W        W93607  30.089  28.542   1.230
21282W        W93608  38.664  36.029   4.818
21283W        W93609  29.053  23.080  11.534
21284W        W93610  33.619   0.057   1.058
21285W        W93611   3.538   9.697   0.371
21286W        W93612  11.835   6.833   3.963
21287W        W93613   1.041  21.085   2.682
21288W        W93614  42.133  14.186   2.909
21289W        W93615  38.086  15.964   0.242
21290W        W93616   8.257   4.224  11.940
21291W        W93617  44.426  15.335   0.359
21292W        W93618  39.542  12.133   2.631
21293W        W93619   6.942  11.673   1.589
21294W        W93620  24.577  32.647  11.564
21295W        W93621   1.976  33.545   0.693
21296W        W93622   9.645  31.223  13.477
21297W        W93623   5.298  17.733  12.509
21298W        W93624  30.632  34.949   1.048
21299W        W93625  16.209   6.981   3.640
21300W        W93626  23.613  33.747   1.470
21301W        W93627  36.609  31.946   2.257
21302W        W93628  16.052  30.123  14.501
21303W        W93629  35.817  24.089  12.896
21304W        W93630  12.849  27.025   3.066
21305W        W93631  41.128  17.199   0.012
21306W        W93632  43.577  41.009   2.691
21307W        W93633  22.558   5.724   0.449
21308W        W93634  19.634  22.470   2.303
21309W        W93635  25.473  41.906  13.336
21310W        W93636  42.066  28.962   3.572
21311W        W93637   7.959  35.871   0.549
21312W        W93638  11.957  42.806   3.719
21313W        W93639  12.799   0.923  10.651
21314W        W93640  38.053  40.592   2.734
21315W        W93641   2.508  24.501   2.281
21316W        W93642  30.486   9.195  11.623
21317W        W93643  27.994  21.955   2.426
21318W        W93644  22.242   9.344  12.995
21319W        W93645  24.918   5.497   1.707
21320W        W93646   7.988  17.638  12.959
21321W        W93647   2.704  21.548   0.926
21322W        W93648  36.638  12.276  11.022
21323W        W93649  19.267  40.892   2.736
21324W        W93650  33.571  31.019  13.525
21325W        W93651  26.984  30.217   0.285
21326W        W93652  34.938  16.810  12.479
21327W        W93653   6.622  42.196   1.645
21328W        W93654  33.273  16.146   2.689
21329W        W93655  39.472  37.681   3.026
21330W        W93656  31.090  26.933  13.640
21331W        W93657  35.947  21.474  13.394
21332W        W93658  17.901  14.654  11.070
21333W        W93659  42.450   3.437   4.079
21334W        W93660  11.618  16.561  14.762
21335W        W93661  39.124  43.350   0.248
21336W        W93662  43.555  17.271  12.970
21337W        W93663  31.640   9.724  12.360
21338W        W93664  39.469  13.394   2.909
21339W        W93665   4.944  32.427   1.165
21340W        W93666  35.562  10.313   2.731
21341W        W93667  18.024  37.684  11.875
21342W        W93668  16.716  22.879   1.791
21343W        W93669  17.199  15.351   2.305
21344W        W93670  15.323  44.430  14.827
21345W        W93671   2.199   3.262  11.509
21346W        W93672   6.359  11.143  12.026
21347W        W93673  34.861   5.857  11.108
21348W        W93674  28.574  35.847   3.491
21349W        W93675  19.050  25.058   2.409
21350W        W93676  14.621  30.331  14.686
21351W        W93677   3.966  18.036  11.248
21352W        W93678   9.728  18.881  11.728
21353W        W93679   1.251  20.186   3.640
21354W        W93680  43.202  13.119  10.715
21355W        W93681  44.911  26.701  14.090
21356W        W93682  10.893  37.089  13.312
21357W        W93683  36.545  16.770  10.712
21358W        W93684  37.401  34.954  10.727
21359W        W93685  36.562  28.960   3.214
21360W        W93686  18.688  43.541   3.703
21361W        W93687   5.399  16.615  12.818
21362W        W93688  30.593   4.178   4.950
21363W        W93689  32.077  10.538   2.387
21364W        W93690   0.319  38.945   1.872
21365W        W93691  38.579  25.038  14.423
21366W        W93692  42.816  43.589   2.194
21367W        W93693  43.929  30.544   3.653
21368W        W93694  19.220  32.822   0.344
21369W        W93695  27.667  15.744   5.124
21370W        W93696  38.510   6.130   0.176
21371W        W93697  24.551  16.138   0.017
21372W        W93698  14.786  33.361   0.322
21373W        W93699  29.047  33.392   4.357
21374W        W93700  31.524  18.118  10.030
21375W        W93701  36.597  17.040   0.471
21376W        W93702  33.154  40.736  14.906
21377W        W93703  35.970  31.628  11.124
21378W        W93704  11.856  30.031  14.816
21379W        W93705  17.153  25.174   3.686
21380W        W93706   6.319  28.268  11.454
21381W        W93707  20.596   0.507  12.578
21382W        W93708  29.535  34.798  14.447
21383W        W93709   7.916   1.693  13.386
21384W        W93710  12.070   0.464  11.467
21385W        W93711  36.372  39.900  12.024
21386W        W93712   6.797  24.596  12.841
21387W        W93713  29.541  36.664  11.958
21388W        W93714  20.472  34.170  13.918
21389W        W93715  30.979   2.909   3.305
21390W        W93716  27.447  14.709   0.438
21391W        W93717  14.836  10.280   4.745
21392W        W93718  35.916  40.288   0.048
21393W        W93719  41.392  27.946   2.930
21394W        W93720  43.999   4.233  10.596
21395W        W93721   1.958  17.164   1.310
21396W        W93722   9.161  36.892  12.485
21397W        W93723  41.542  16.073   2.250
21398W        W93724  37.341   1.919  11.905
21399W        W93725  35.666   7.431  12.885
21400W        W93726   6.950  33.379   3.759
21401W        W93727   5.153   1.307  13.313
21402W        W93728  33.145  25.596   1.726
21403W        W93729  12.772   6.940  11.188
21404W        W93730  29.173  39.043   2.173
21405W        W93731  31.587  26.454   3.635
21406W        W93732   2.350  20.107   1.885
21407W        W93733   1.359  20.289  11.701
21408W        W93734   8.723  13.395  11.992
21409W        W93735  29.224  41.342  10.544
21410W        W93736  43.978  19.602  14.261
21411W        W93737  16.048  32.667   3.763
21412W        W93738  30.860  31.093  13.558
21413W        W93739  20.797  28.463   3.748
21414W        W93740  16.975  44.758  10.477
21415W        W93741  12.169  30.344  12.674
21416W        W93742  44.173  34.262  14.844
21417W        W93743  26.078   8.015  10.943
21418W        W93744  42.680  29.584   3.169
21419W        W93745  29.551  35.195  10.571
21420W        W93746  23.049  17.199   9.640
21421W        W93747  12.749   9.948   4.281
21422W        W93748   4.888  36.168   0.474
21423W        W93749   7.837  39.467  14.371
21424W        W93750  14.365  34.677   0.539
21425W        W93751  33.105  19.530   3.690
21426W        W93752  12.370   3.694   0.344
21427W        W93753  16.128  28.176   1.209
21428W        W93754  34.077  29.896   2.884
21429W        W93755  41.061  31.415   0.293
21430W        W93756   6.046   1.674  12.054
21431W        W93757  18.773  43.352  13.372
21432W        W93758  44.489   8.198   3.642
21433W        W93759  21.295  11.186   1.229
21434W        W93760  24.779  41.816  13.037
21435W        W93761  35.975  18.580  12.104
21436W        W93762   2.846  13.349  13.777
21437W        W93763  16.242  30.612   1.218
21438W        W93764   1.384   8.334   2.106
21439W        W93765  10.416  20.574   1.627
21440W        W93766  40.956  15.517  13.725
21441W        W93767  37.326   1.862   2.246
21442W        W93768  36.988   2.847   3.714
21443W        W93769  36.937  44.786  11.180
21444W        W93770  19.216  38.962  13.453
21445W        W93771  30.210  34.065  11.645
21446W        W93772  36.060  35.661  14.033
21447W        W93773  42.329  35.103   2.797
21448W        W93774   0.068  17.740  11.654
21449W        W93775  16.345  18.150  11.062
21450W        W93776  22.764  18.399   4.072
21451W        W93777   7.274  37.605  10.447
21452W        W93778  22.269  38.358  13.874
21453W        W93779  25.420  24.790  13.082
21454W        W93780  10.387  26.191   0.396
21455W        W93781  36.669  15.818  12.035
21456W        W93782   9.174  33.823  10.187
21457W        W93783   5.063  36.741  13.357
21458W        W93784  32.963  34.349  11.217
21459W        W93785  24.872  16.303  10.669
21460W        W93786  18.850  24.551   2.541
21461W        W93787  19.237  16.609   4.184
21462W        W93788  14.334   0.343  11.527
21463W        W93789  29.998   9.188  12.957
21464W        W93790  32.389  26.643   0.486
21465W        W93791  16.071  27.928  12.204
21466W        W93792  16.218  18.674  14.470
21467W        W93793  16.828  17.045   0.264
21468W        W93794  33.519  26.808  14.447
21469W        W93795  34.127  33.888   1.832
21470W        W93796  31.522  38.171  14.820
21471W        W93797   8.670   4.640   2.331
21472W        W93798  29.904  11.530  11.919
21473W        W93799   1.827  20.695   3.747
21474W        W93800  41.843   6.885   4.706
21475W        W93801   6.236  13.379  10.359
21476W        W93802  20.615  31.669  12.038
21477W        W93803  22.199   4.864   1.456
21478W        W93804  12.313  11.258  10.746
21479W        W93805   4.879  10.539   1.571
21480W        W93806   3.809  30.587  12.140
21481W        W93807   7.716  21.530   4.345
21482W        W93808   8.385  24.968   3.952
21483W        W93809  10.919  36.565  13.333
21484W        W93810  14.666   1.110   2.121
21485W        W93811  24.899  24.229   3.622
21486W        W93812   0.730  39.727   1.742
21487W        W93813  10.162  17.499  10.708
21488W        W93814   7.333   8.758   0.722
21489W        W93815  39.058   0.539  11.617
21490W        W93816  12.592  18.059   0.530
21491W        W93817   4.282  29.653  11.553
21492W        W93818  44.155  20.160   1.474
21493W        W93819  41.782  26.858   4.581
21494W        W93820  34.448  13.987   1.233
21495W        W93821  24.809  18.268   0.735
21496W        W93822  38.562  13.214   0.216
21497W        W93823   8.877  16.196  10.722
21498W        W93824  19.542  40.415  12.564
21499W        W93825   5.522   5.379   2.822
21500W        W93826  17.095   4.814   0.948
21501W        W93827  43.496  37.571   3.310
21502W        W93828  37.972  24.433   2.730
21503W        W93829  35.326  34.047   4.613
21504W        W93830  19.114   3.312  11.272
21505W        W93831  26.886   7.834   3.677
21506W        W93832  33.898  36.125   9.843
21507W        W93833  29.572   1.023  14.905
21508W        W93834   5.938  12.172   1.026
21509W        W93835  18.512  16.465  12.878
21510W        W93836  30.821  44.623   3.806
21511W        W93837  21.538  37.506   2.211
21512W        W93838  41.363  16.748  12.365
21513W        W93839  31.017  29.648  11.190
21514W        W93840  37.012  35.537   4.560
21515W        W93841  28.991  17.206   4.177
21516W        W93842   4.887  39.829  11.638
21517W        W93843  11.311  32.198  13.149
21518W        W93844  13.284  37.119   2.113
21519W        W93845  10.625  32.489   1.904
21520W        W93846  21.545  36.894   2.727
21521W        W93847   5.408  33.983  12.625
21522W        W93848  10.722  27.579   4.639
21523W        W93849  31.950  13.163  14.854
21524W        W93850  44.222  37.414   2.420
21525W        W93851  31.239  25.552  12.849
21526W        W93852  33.611   7.168  12.877
21527W        W93853  34.966  28.762   1.393
21528W        W93854  40.453  13.001  11.898
21529W        W93855   1.971  22.197   2.166
21530W        W93856  31.801  33.487  11.952
21531W        W93857  32.130  25.747   2.505
21532W        W93858  38.359  43.490   2.081
21533W        W93859   4.432  29.622   0.187
21534W        W93860  20.304  43.362   1.446
21535W        W93861  20.121   5.396  13.495
21536W        W93862  29.878   1.768   1.138
21537W        W93863  38.532  17.450  13.076
21538W        W93864  19.035  12.930   2.270
21539W        W93865  27.584  34.014  13.505
21540W        W93866  28.790  28.750   0.505
21541W        W93867  39.593  44.450   2.793
21542W        W93868   3.448  11.882  10.683
21543W        W93869   1.294  38.461   2.440
21544W        W93870   9.115  12.357   4.182
21545W        W93871  39.503  10.849   2.223
21546W        W93872  39.005  19.242   0.954
21547W        W93873  14.239  31.380   4.052
21548W        W93874  25.502  33.356   1.851
21549W        W93875  28.983   1.885  14.073
21550W        W93876   8.861   8.666   3.774
21551W        W93877   2.509  14.216  12.803
21552W        W93878  25.367   5.440  13.441
21553W        W93879  23.689  35.401  10.870
21554W        W93880  34.023   1.032  10.582
21555W        W93881  10.964  19.057   4.617
21556W        W93882  20.252  27.606   1.426
21557W        W93883  14.791  44.036  10.656
21558W        W93884  15.752  25.085  11.946
21559W        W93885   7.663  13.415  11.129
21560W        W93886   7.874  20.622   2.932
21561W        W93887  24.724  35.636   2.829
21562W        W93888  43.474  14.268  14.091
21563W        W93889   1.003  27.712  13.940
21564W        W93890  42.227  25.161   2.214
21565W        W93891  40.919  34.379   0.874
21566W        W93892   2.400   2.430   2.299
21567W        W93893  28.423   3.506  12.375
21568W        W93894  22.582  29.950   3.971
21569W        W93895   2.413  18.644   0.840
21570W        W93896  23.644  26.670   0.994
21571W        W93897  33.871  18.515  10.693
21572W        W93898   3.170  32.131   3.744
21573W        W93899   0.836   1.367  12.459
21574W        W93900  36.771  42.809   2.731
21575W        W93901   4.443   3.671   2.217
21576W        W93902  13.618  15.232   3.663
21577W        W93903  30.727  18.089  14.518
21578W        W93904  43.940  41.936   0.005
21579W        W93905   0.268  44.892  13.488
21580W        W93906  43.843  28.698  11.955
21581W        W93907   4.853  31.350  14.977
21582W        W93908  17.474   8.277   4.993
21583W        W93909  12.699  21.652   0.269
21584W        W93910   8.612  24.172  12.552
21585W        W93911  30.592   0.319   0.338
21586W        W93912  39.896  14.571   4.163
21587W        W93913  33.934  22.651  11.281
21588W        W93914   9.591  34.357  11.479
21589W        W93915   8.457  38.859  14.455
21590W        W93916  34.191  33.366   1.836
21591W        W93917   8.319   6.706  14.963
21592W        W93918   1.235  19.265   3.742
21593W        W93919   9.824  27.160   1.596
21594W        W93920  17.746  15.043   3.796
21595W        W93921   4.377  34.927  13.849
21596W        W93922  40.396  38.773   2.816
21597W        W93923   6.422  41.092   0.241
21598W        W93924  21.175  44.894   0.759
21599W        W93925  13.351  41.330  14.845
21600W        W93926  22.539  10.217  11.919
21601W        W93927  18.251   5.961  12.151
21602W        W93928   5.666   2.540   2.747
21603W        W93929  15.645   5.487  12.857
21604W        W93930  24.481  36.912   1.856
21605W        W93931  10.758  30.605  13.772
21606W        W93932  23.264  35.007  12.967
21607W        W93933   9.749  10.673   3.130
21608W        W93934   3.417  23.748   1.930
21609W        W93935  16.195  24.293  13.354
21610W        W93936  24.210  11.329   4.829
21611W        W93937  30.083  44.859  14.814
21612W        W93938  33.419  32.657  10.993
21613W        W93939   9.422  22.782  11.084
21614W        W93940  17.863  21.996   0.843
21615W        W93941  26.090  12.053   2.242
21616W        W93942  29.629   7.656  14.896
21617W        W93943  42.171   8.728   4.734
21618W        W93944  14.228  16.556   1.959
21619W        W93945  21.556   1.869  11.178
21620W        W93946  19.044  12.636  10.789
21621W        W93947  27.022  31.988   2.233
21622W        W93948  42.885  44.459   0.770
21623W        W93949  29.083  13.039   1.669
21624W        W93950  33.493  32.671  13.500
21625W        W93951  43.451  44.548   3.789
21626W        W93952  12.950  23.283  13.772
21627W        W93953  40.250  18.139  12.942
21628W        W93954  16.805  26.102  12.741
21629W        W93955  23.634   7.161   1.984
21630W        W93956   0.940  23.023  11.216
21631W        W93957  21.710  41.958  12.569
21632W        W93958  21.953  16.546  10.737
21633W        W93959  30.918   3.762   3.827
21634W        W93960  14.797  22.827  10.792
21635W        W93961  20.537  26.188  14.380
21636W        W93962  15.813   9.343  12.885
21637W        W93963  33.074   1.995  10.881
21638W        W93964  10.897   8.733  14.125
21639W        W93965   1.366  11.172   9.773
21640W        W93966   3.240  44.790   2.904
21641W        W93967  19.234   2.439  10.785
21642W        W93968  26.104  33.844   2.953
21643W        W93969  14.739   7.942   1.857
21644W        W93970  43.858   4.436  12.887
21645W        W93971  29.448   3.487  13.330
21646W        W93972  11.311  23.163  10.559
21647W        W93973   6.653   4.367  11.208
21648W        W93974  24.808  36.489  14.892
21649W        W93975   5.762  39.494  13.579
21650W        W93976  23.404  34.273   2.797
21651W        W93977   3.740   9.321  13.504
21652W        W93978  11.220  27.674   4.532
21653W        W93979   5.465   9.773  10.666
21654W        W93980  32.086  20.537   3.160
21655W        W93981  22.074  18.708  13.009
21656W        W93982   9.233  15.606  10.803
21657W        W93983   8.375  31.216   3.677
21658W        W93984  28.971  27.727   1.725
21659W        W93985  28.690  43.140  10.833
21660W        W93986  39.800  20.011   4.948
21661W        W93987  35.036  23.709   0.880
21662W        W93988  29.643  41.548  14.017
21663W        W93989  11.421  26.614   1.724
21664W        W93990  26.005  24.340   2.269
21665W        W93991  43.191   5.773   4.465
21666W        W93992  32.313  39.498  14.054
21667W        W93993  14.839  39.988  10.175
21668W        W93994  30.141   5.190  11.965
21669W        W93995  12.736  14.269  11.500
21670W        W93996  21.481   2.207  13.426
21671W        W93997  36.562  15.131   4.118
21672W        W93998  37.485  35.403   1.400
21673W        W93999  36.963  39.887   2.780
21674W        W94000   8.880  20.493  12.989
21675W        W94001  22.098   5.722  14.770
21676W        W94002  30.640   3.973   2.451
21677W        W94003  24.018  27.961   0.743
21678W        W94004   4.074   3.790  14.994
21679W        W94005  28.539  33.583  10.372
21680W        W94006  32.960   8.905   0.780
21681W        W94007  12.920  26.134  10.696
21682W        W94008  23.874  11.556   4.464
21683W        W94009  11.943  30.129   3.744
21684W        W94010  12.324  22.674   4.461
21685W        W94011  18.191  33.150  12.890
21686W        W94012  24.991  21.674   3.620
21687W        W94013  20.712   7.883  12.937
21688W        W94014  26.133   4.014  13.986
21689W        W94015  22.486  33.064   4.599
21690W        W94016   1.710  43.970  13.905
21691W        W94017  23.931  18.525  12.396
21692W        W94018  18.307   6.873  13.402
21693W        W94019  23.661  16.287  11.151
21694W        W94020  40.500   8.814   5.052
21695W        W94021  24.500  18.797  11.517
21696W        W94022   8.898  36.342  12.073
21697W        W94023  33.076  43.472  11.604
21698W        W94024  11.328   2.787  12.807
21699W        W94025  20.682  27.890   2.313
21700W        W94026  44.850  17.900  11.206
21701W        W94027  12.077  37.212  12.746
21702W        W94028  11.816  16.737   4.634
21703W        W94029  38.964  21.952   0.968
21704W        W94030  36.904  33.751  14.855
21705W        W94031  26.081  22.275  11.431
21706W        W94032  14.577  39.883  11.180
21707W        W94033  29.510  38.335   1.893
21708W        W94034  34.189  44.375  11.943
21709W        W94035  30.225  11.342  11.529
21710W        W94036  30.059  15.645   1.916
21711W        W94037  24.045  10.646  11.139
21712W        W94038  26.491  23.733  13.388
21713W        W94039   7.481  26.713   0.986
21714W        W94040  42.559   7.497  14.972
21715W        W94041  31.149   6.790   2.328
21716W        W94042  16.684  14.958   3.310
21717W        W94043  11.260  23.162  11.994
21718W        W94044   7.678  26.463  13.942
21719W        W94045  42.241   2.006   1.380
21720W        W94046  24.249  43.761  13.892
21721W        W94047  33.549  15.733   2.824
21722W        W94048  24.676  37.124   3.647
21723W        W94049  39.307  11.241   1.955
21724W        W94050  38.555  27.476  14.480
21725W        W94051  13.276  25.488  12.137
21726W        W94052  30.571  12.831   0.905
21727W        W94053  17.318  23.680   2.402
21728W        W94054  37.308  33.434  11.983
21729W        W94055   2.403  26.311  12.191
21730W        W94056  12.180  34.435  14.333
21731W        W94057  31.623  24.502   3.733
21732W        W94058  18.602  36.867   1.826
21733W        W94059  38.848   0.977   4.112
21734W        W94060  27.114   7.437  14.804
21735W        W94061  11.172  26.862   4.039
21736W        W94062  15.538  43.995   2.046
21737W        W94063  43.040  36.769  11.509
21738W        W94064  20.527  27.671   4.152
21739W        W94065  16.592   7.668   0.364
21740W        W94066  24.667  33.990   4.074
21741W        W94067  19.300   9.258   4.928
21742W        W94068  35.791  38.742  13.367
21743W        W94069  36.756  37.957  11.046
21744W        W94070  34.382  37.939  12.977
21745W        W94071  41.673  41.784   4.873
21746W        W94072  20.713  31.837  11.173
21747W        W94073  31.574  43.235  14.700
21748W        W94074  21.145  36.349   1.290
21749W        W94075   2.255  12.447   9.746
21750W        W94076  26.187  42.473   0.741
21751W        W94077  26.290  27.594  14.309
21752W        W94078  32.968  42.782  13.966
21753W        W94079  22.751  10.175   1.875
21754W        W94080  11.733   3.229   3.337
21755W        W94081  35.543  21.271  11.701
21756W        W94082  26.168  15.304  11.624
21757W        W94083   8.697  23.531  10.933
21758W        W94084  31.940  17.076  12.777
21759W        W94085  15.011  43.398  14.141
21760W        W94086  39.555  13.151  11.894
21761W        W94087  19.361   5.660  10.437
21762W        W94088  21.463  37.897   5.425
21763W        W94089  21.707  24.154   2.846
21764W        W94090  41.117  29.455   2.846
21765W        W94091  11.201  36.624  13.786
21766W        W94092   5.003  16.384   9.985
21767W        W94093  38.031  33.967  10.746
21768W        W94094  19.808  32.574   0.480
21769W        W94095  19.607  22.685  11.605
21770W        W94096   4.902  37.292   3.155
21771W        W94097  17.219  18.818  11.139
21772W        W94098  19.882  39.852  11.778
21773W        W94099  30.120  27.683  13.034
21774W        W94100  25.206  32.381  14.857
21775W        W94101   5.473  28.710  14.668
21776W        W94102  12.311  12.289   4.648
21777W        W94103   2.249  10.434   1.239
21778W        W94104   5.182  27.185   3.163
21779W        W94105  28.488  34.837   4.306
21780W        W94106  43.764  37.649   1.927
21781W        W94107  22.902  26.464  13.576
21782W        W94108   4.277  41.004  13.956
21783W        W94109  43.294  30.347  10.589
21784W        W94110  33.620   8.893  10.199
21785W        W94111  39.456  22.050  10.757
21786W        W94112   2.453  19.178  14.285
21787W        W94113  38.078   4.071  11.677
21788W        W94114  37.978  44.713   2.796
21789W        W94115  19.041  28.098  10.780
21790W        W94116  35.983  14.091  14.899
21791W        W94117   9.175  34.640   3.236
21792W        W94118   5.716  13.684  14.542
21793W        W94119  39.917  20.537  14.980
21794W        W94120  11.992  43.887  12.367
21795W        W94121  23.211  23.587   4.092
21796W        W94122  26.641  12.409  12.580
21797W        W94123  38.938   0.277   1.988
21798W        W94124  22.089   7.735   4.445
21799W        W94125  23.745  33.627   4.094
21800W        W94126  13.197   1.824   1.581
21801W        W94127   4.824   4.871   0.378
21802W        W94128  33.097  28.989   3.248
21803W        W94129  22.634  40.341   2.509
21804W        W94130  24.629  15.251  14.760
21805W        W94131  23.046   6.442  11.957
21806W        W94132  13.570  42.783   1.423
21807W        W94133  16.084  36.018  10.686
21808W        W94134  38.594  34.893  11.062
21809W        W94135  14.076   2.650  12.854
21810W        W94136  37.499   9.950   5.586
21811W        W94137  42.760  28.680  14.226
21812W        W94138  18.862  24.695  11.812
21813W        W94139  19.534  26.313   1.260
21814W        W94140  39.740  23.461   4.041
21815W        W94141  39.146  27.749   2.373
21816W        W94142  13.916  25.698   3.881
21817W        W94143   9.984  17.277  14.741
21818W        W94144  34.206  34.115  10.618
21819W        W94145  37.987   5.644   0.666
21820W        W94146  33.722  33.970  10.588
21821W        W94147   7.813  42.328   0.493
21822W        W94148   9.307  35.410  10.748
21823W        W94149  13.816  37.098   3.211
21824W        W94150  38.394  11.882   1.926
21825W        W94151  39.465  40.022   1.446
21826W        W94152  41.109  41.337  12.133
21827W        W94153   7.936   2.340   1.704
21828W        W94154   7.693  10.972  12.706
21829W        W94155  24.686   2.451  12.923
21830W        W94156  10.364  40.034  14.137
21831W        W94157   4.147   9.748   4.255
21832W        W94158  30.505   9.648  11.015
21833W        W94159  10.203   5.842   0.763
21834W        W94160  28.040   1.020   4.146
21835W        W94161  14.026   6.132   4.103
21836W        W94162  37.662  32.995   1.107
21837W        W94163   3.858  42.524   1.673
21838W        W94164  42.391  22.707  11.405
21839W        W94165  19.766  43.907   3.756
21840W        W94166  38.389  38.067  12.287
21841W        W94167   5.731  18.122  11.277
21842W        W94168  12.764  28.364  10.968
21843W        W94169  25.970  11.654   3.527
21844W        W94170  28.500  37.440  14.868
21845W        W94171   5.734   0.859   2.445
21846W        W94172  20.197   9.285  11.648
21847W        W94173   7.279  14.811   3.695
21848W        W94174  34.331  12.243   4.691
21849W        W94175  21.938  19.263   1.261
21850W        W94176  26.580  10.359   0.319
21851W        W94177  43.293  12.738  14.946
21852W        W94178  41.276  44.020   1.141
21853W        W94179  13.208   3.956   4.595
21854W        W94180  41.025   2.966  11.863
21855W        W94181   0.980  35.837  13.719
21856W        W94182  11.966  32.106  14.500
21857W        W94183  17.666  23.807   2.764
21858W        W94184  24.592  39.436   2.175
21859W        W94185   3.766  21.983   0.762
21860W        W94186  39.184  24.524  12.019
21861W        W94187  41.184  19.999  11.439
21862W        W94188   6.836  29.076  13.863
21863W        W94189  42.425  11.833   0.965
21864W        W94190  29.307  10.214  14.292
21865W        W94191   0.253   9.534  13.830
21866W        W94192   5.347  13.163  12.134
21867W        W94193  43.717  33.371   3.376
21868W        W94194  42.302   1.373   4.633
21869W        W94195  26.155  10.552  11.311
21870W        W94196  13.054   8.308  12.618
21871W        W94197  26.859   4.230  11.631
21872W        W94198  24.024   7.442  10.814
21873W        W94199  13.205  33.995  13.545
21874W        W94200   0.759  37.809   3.806
21875W        W94201  26.716  11.816  13.281
21876W        W94202  40.149  14.068  14.988
21877W        W94203   3.779  44.428  13.961
21878W        W94204  38.110  40.361   0.312
21879W        W94205  38.581  34.628   0.486
21880W        W94206  43.788  32.041  10.762
21881W        W94207  12.895  12.888   2.297
21882W        W94208  43.324  16.095   3.289
21883W        W94209  34.035  11.751  10.959
21884W        W94210  16.263  18.055   3.229
21885W        W94211  40.992  21.641   1.684
21886W        W94212  18.084  20.737   2.356
21887W        W94213  11.650  38.593   0.277
21888W        W94214   0.211  43.791  13.828
21889W        W94215  21.787  22.438   0.525
21890W        W94216  23.688  42.756   1.917
21891W        W94217  28.573  14.268   3.396
21892W        W94218  19.180  38.521   0.677
21893W        W94219  43.349   5.019   0.254
21894W        W94220  35.127  21.551   4.692
21895W        W94221  30.915  31.137   2.999
21896W        W94222   7.261  25.183  14.849
21897W        W94223  44.846  18.471  11.120
21898W        W94224  23.633  27.445   1.643
21899W        W94225  21.781   6.677   2.215
21900W        W94226   8.222  24.950   4.856
21901W        W94227  22.570  22.583   9.944
21902W        W94228  30.392  42.842  12.040
21903W        W94229   7.866  28.595  13.808
21904W        W94230   2.886  31.865  13.379
21905W        W94231  12.147   7.204   1.249
21906W        W94232  10.641  27.095   0.182
21907W        W94233  32.500  18.353  14.948
21908W        W94234  19.385  11.944   4.458
21909W        W94235  35.413  21.710   3.079
21910W        W94236   9.397  42.315   0.235
21911W        W94237   0.482  13.706  10.780
21912W        W94238  33.758  25.996   3.255
21913W        W94239  36.814   2.405   1.011
21914W        W94240   2.373  35.506  12.760
21915W        W94241   6.132  44.070  12.898
21916W        W94242  21.514  14.629  11.502
21917W        W94243  40.977  27.564  14.495
21918W        W94244  34.723  34.991   0.550
21919W        W94245  40.378   6.717  14.607
21920W        W94246  11.766  19.509   3.995
21921W        W94247  12.076  19.637  14.579
21922W        W94248  14.327   3.752   3.364
21923W        W94249  19.298  15.451  11.958
21924W        W94250  25.549  15.450   5.086
21925W        W94251  29.147   8.228  12.540
21926W        W94252  44.399  12.078  11.046
21927W        W94253   0.605   0.814   2.461
21928W        W94254  20.218  23.677  12.478
21929W        W94255  36.078  40.733  12.528
21930W        W94256  44.371  26.914   3.250
21931W        W94257   9.671  39.354  11.636
21932W        W94258  41.760  39.044  12.103
21933W        W94259  27.930   7.811   4.640
21934W        W94260  13.465  38.798  12.976
21935W        W94261  20.745  20.349   2.126
21936W        W94262  31.326   6.878  14.359
21937W        W94263   9.696  43.509  11.448
21938W        W94264  28.890  41.465   3.393
21939W        W94265  33.415   8.018   3.663
21940W        W94266  17.032  18.261   2.579
21941W        W94267  22.252  14.204  11.626
21942W        W94268  42.376  15.809   0.272
21943W        W94269  16.196  22.114   2.187
21944W        W94270  10.987  37.317   3.162
21945W        W94271   8.341  26.420   2.226
21946W        W94272   4.371  31.256  12.920
21947W        W94273  33.268  44.897  10.995
21948W        W94274  31.354  31.194   2.730
21949W        W94275  28.668  27.083  11.496
21950W        W94276  25.783  23.770  12.270
21951W        W94277  35.152  19.145  13.861
21952W        W94278  11.121  41.213   1.933
21953W        W94279  28.740  39.622  13.063
21954W        W94280  40.470  25.549  12.946
21955W        W94281  43.019  28.479  12.602
21956W        W94282  22.611   8.919   4.932
21957W        W94283  25.097  37.217   1.243
21958W        W94284   5.685  44.885   2.270
21959W        W94285  12.636  23.065   4.346
21960W        W94286  37.441  11.609   4.064
21961W        W94287  43.734  11.839   4.826
21962W        W94288  36.383   9.579   3.385
21963W        W94289  41.337  42.230   0.676
21964W        W94290  28.115  34.570   3.341
21965W        W94291   6.858  22.789   1.931
21966W        W94292  31.537  16.308  13.762
21967W        W94293  25.664   6.673  12.054
21968W        W94294  16.806  37.679  13.932
21969W        W94295  20.292  12.750  13.828
21970W        W94296  36.189  12.286  10.778
21971W        W94297  41.380  40.269   1.869
21972W        W94298  25.634  41.783   2.092
21973W        W94299  31.251   6.688   1.319
21974W        W94300  11.736   1.472   2.858
21975W        W94301   5.773   3.756  11.507
21976W        W94302   7.644  24.687  13.957
21977W        W94303  39.406  26.714  14.494
21978W        W94304  34.684  26.687   2.836
21979W        W94305  13.024  38.385   1.694
21980W        W94306  29.955  26.154   0.510
21981W        W94307  27.878   7.772   1.326
21982W        W94308  23.177  32.075   1.894
21983W        W94309  35.105  22.623   1.278
21984W        W94310  44.046  39.126   0.931
21985W        W94311  22.167  40.134   4.680
21986W        W94312  38.778  10.446  11.148
21987W        W94313  20.378   2.857   2.612
21988W        W94314   4.917  33.176   4.172
21989W        W94315  25.104   1.312   1.903
21990W        W94316  19.130  34.111   1.741
21991W        W94317  37.343   2.886  11.481
21992W        W94318  19.280  14.745  12.860
21993W        W94319   3.257   5.848  12.361
21994W        W94320   8.730  12.280   2.278
21995W        W94321  37.564  11.221   4.363
21996W        W94322  44.351   6.165  10.604
21997W        W94323  35.096  41.040  13.590
21998W        W94324  18.577  31.126   2.894
21999W        W94325  29.962   0.037  14.349
22000W        W94326  11.668  13.155   3.136
22001W        W94327  24.773   3.287  12.802
22002W        W94328  30.601   7.400  14.303
22003W        W94329  22.233  10.262  13.337
22004W        W94330  31.593  19.171   1.432
22005W        W94331  11.074  26.960   9.603
22006W        W94332  43.287  40.370   4.036
22007W        W94333  21.799   4.324   1.639
22008W        W94334  12.207   7.643  11.596
22009W        W94335  28.272  14.465  10.573
22010W        W94336  39.013  12.477  12.162
22011W        W94337  39.522  30.674  14.687
22012W        W94338  16.181  33.626  13.601
22013W        W94339  29.410   9.605   0.381
22014W        W94340  10.816  37.338   4.017
22015W        W94341  25.165   2.303   0.888
22016W        W94342  12.069  43.802   0.245
22017W        W94343  22.061  33.830  12.015
22018W        W94344   7.437   0.410   1.245
22019W        W94345  11.369   0.657   0.888
22020W        W94346  19.352  17.318  11.540
22021W        W94347  13.593  40.497   1.823
22022W        W94348   2.430  18.026   3.018
22023W        W94349   8.779  43.515  13.792
22024W        W94350  20.280  41.010  13.480
22025W        W94351  33.856   7.441   1.328
22026W        W94352  16.545  33.979  13.475
22027W        W94353  30.641   1.221   1.313
22028W        W94354  13.409  31.367  12.485
22029W        W94355  20.981   0.736  14.966
22030W        W94356  28.951  19.629  10.499
22031W        W94357   4.872  26.473  14.777
22032W        W94358   3.487   2.282  11.097
22033W        W94359  36.704  41.792   1.096
22034W        W94360  31.178   2.417   4.061
22035W        W94361  43.133   6.656  13.968
22036W        W94362  10.264  25.707   4.754
22037W        W94363   1.552  39.221   4.389
22038W        W94364  30.827  14.215  11.382
22039W        W94365  33.645  36.299   3.194
22040W        W94366  28.925  14.812  12.977
22041W        W94367  35.730   9.376   5.037
22042W        W94368  23.402  14.370   9.979
22043W        W94369  26.293  13.488   1.911
22044W        W94370  10.779   2.963  12.571
22045W        W94371  27.440  31.887   3.650
22046W        W94372  22.544   6.291   3.266
22047W        W94373  31.816  44.565   4.851
22048W        W94374  12.321  38.965  10.480
22049W        W94375  29.759  24.497  11.362
22050W        W94376  27.856  12.123  11.224
22051W        W94377  32.030  25.518   2.014
22052W        W94378  30.271  29.052   1.332
22053W        W94379  19.157  27.649   2.117
22054W        W94380  37.966  25.206  11.687
22055W        W94381  37.383  39.351   3.763
22056W        W94382  32.389  44.262  12.481
22057W        W94383   7.286  27.644   2.966
22058W        W94384  24.958  42.270   1.416
22059W        W94385  27.004  11.825  11.888
22060W        W94386   9.652  22.678   1.351
22061W        W94387  31.625  10.130  12.018
22062W        W94388  10.622  25.665  11.124
22063W        W94389  13.996  18.374   1.347
22064W        W94390  41.887  34.533   4.676
22065W        W94391  27.064  29.980  11.882
22066W        W94392  22.209  36.809  14.394
22067W        W94393  20.467  27.553  12.381
22068W        W94394  16.761  37.471   3.345
22069W        W94395  25.547  36.605   3.220
22070W        W94396  25.609  43.633  11.431
22071W        W94397   4.824  39.613  11.148
22072W        W94398  18.533  44.755   1.131
22073W        W94399  27.961  19.081   0.610
22074W        W94400  25.015  15.386   0.805
22075W        W94401  18.652  14.691   0.294
22076W        W94402  23.128  22.772   0.273
22077W        W94403  27.612  33.525   2.886
22078W        W94404  38.070  34.535   0.922
22079W        W94405  16.577  10.279   2.249
22080W        W94406  32.548  36.255   3.420
22081W        W94407  38.843  44.848   0.253
22082W        W94408  29.215  13.625   0.162
22083W        W94409  44.308  19.581  11.881
22084W        W94410  32.901  15.470  11.221
22085W        W94411   8.087   6.910   2.529
22086W        W94412  19.920  24.500  11.167
22087W        W94413  11.336  34.621  11.998
22088W        W94414  10.114  41.294   1.402
22089W        W94415  35.048   9.923   4.059
22090W        W94416   1.679  27.635  11.131
22091W        W94417   2.273   3.887   3.930
22092W        W94418  15.367  21.732  10.553
22093W        W94419  44.750  37.427  10.094
22094W        W94420  23.258  43.827  12.459
22095W        W94421  21.871  43.900   2.017
22096W        W94422  12.018   6.265  12.423
22097W        W94423  28.638  19.326   2.353
22098W        W94424  29.928   5.394   3.659
22099W        W94425  40.673  19.951   9.846
22100W        W94426   0.388  37.081  10.609
22101W        W94427  30.174  11.605  11.100
22102W        W94428  44.214   3.743   4.448
22103W        W94429  37.890  31.879  12.923
22104W        W94430   2.019  11.729   4.573
22105W        W94431  41.789  13.224  12.102
22106W        W94432   8.201  24.028   3.219
22107W        W94433  21.683   0.940  14.247
22108W        W94434  10.449  23.715  11.022
22109W        W94435   6.241   6.513   2.889
22110W        W94436  16.204  30.024  10.766
22111W        W94437  42.090  11.031   1.741
22112W        W94438  36.453  27.472   4.085
22113W        W94439  40.212  25.875   3.137
22114W        W94440  37.331   1.997  10.002
22115W        W94441  41.990  10.546   1.827
22116W        W94442  42.062  41.285   5.157
22117W        W94443  31.533   7.608  11.393
22118W        W94444  11.084   4.233   2.729
22119W        W94445  26.984  31.599   5.040
22120W        W94446  25.455   4.109   1.719
22121W        W94447  29.727  41.363  14.993
22122W        W94448   1.439  18.199   2.874
22123W        W94449   9.352  17.796  10.978
22124W        W94450  19.207  21.074  11.827
22125W        W94451  24.094   8.717   3.301
22126W        W94452   1.335  18.839   4.308
22127W        W94453  15.304   0.148  13.412
22128W        W94454  28.592  29.280   3.743
22129W        W94455   3.960  19.227   0.287
22130W        W94456  23.465  11.236  12.190
22131W        W94457  13.394  37.433  11.140
22132W        W94458  11.931  39.846  10.731
22133W        W94459  34.921   5.615  13.341
22134W        W94460  37.447  20.237  10.917
22135W        W94461   2.855   9.233  11.049
22136W        W94462  39.486   8.605  12.550
22137W        W94463  34.766  28.499  10.685
22138W        W94464  16.350  20.101   3.757
22139W        W94465  31.471  24.824   4.133
22140W        W94466  19.332   4.830   3.068
22141W        W94467   9.202  19.662  12.932
22142W        W94468   0.938  15.108   4.331
22143W        W94469  40.430  15.334  13.856
22144W        W94470   2.650   5.632   4.699
22145W        W94471  33.470  31.361   3.092
22146W        W94472  16.316  41.587   0.401
22147W        W94473   0.754  34.449   2.892
22148W        W94474  15.189  11.760  11.477
22149W        W94475  22.450  33.791   2.845
22150W        W94476  32.217   3.710   1.420
22151W        W94477  13.651  31.786  12.306
22152W        W94478   1.300  43.840  14.538
22153W        W94479  12.500  15.400   3.243
22154W        W94480  15.207  33.901   4.876
22155W        W94481   5.466  17.828   1.459
22156W        W94482  35.083   1.340   3.371
22157W        W94483   2.413  41.043  11.903
22158W        W94484  24.778  21.057  14.884
22159W        W94485  44.326   6.462   0.370
22160W        W94486  18.271   3.875  13.473
22161W        W94487  23.976  25.272  13.041
22162W        W94488  34.369  33.590   0.305
22163W        W94489  16.823  24.647  11.939
22164W        W94490  13.307  20.168  14.547
22165W        W94491  33.501  28.073  14.780
22166W        W94492  36.954  40.822   4.513
22167W        W94493  42.160  12.209  12.471
22168W        W94494   0.333  18.077  12.876
22169W        W94495  17.378  19.510  14.238
22170W        W94496  23.729  17.356   1.835
22171W        W94497   6.117  38.434  12.449
22172W        W94498  22.074  22.048   2.260
22173W        W94499  43.485  21.071   2.751
22174W        W94500  32.069  18.495  12.906
22175W        W94501  17.311  16.064  11.266
22176W        W94502  20.646  39.533   4.332
22177W        W94503  16.234  31.164  10.602
22178W        W94504  23.693  27.112   0.628
22179W        W94505  40.888  16.184  14.894
22180W        W94506  18.745  28.730  12.943
22181W        W94507   4.405  43.282  12.905
22182W        W94508  22.044  32.751   0.070
22183W        W94509   0.388   8.297  14.452
22184W        W94510  16.739  40.740  12.026
22185W        W94511   7.421   7.776   0.014
22186W        W94512  30.105   1.473  13.393
22187W        W94513  18.735  12.616  14.510
22188W        W94514  28.454  22.935  13.846
22189W        W94515  21.029   5.858  12.032
22190W        W94516   3.394  16.866   3.715
22191W        W94517  10.329  35.674   2.448
22192W        W94518  23.153  26.400  10.739
22193W        W94519  41.534  43.523   4.543
22194W        W94520   6.099  39.894  10.194
22195W        W94521  20.050  26.939  11.607
22196W        W94522  44.269  40.230   4.145
22197W        W94523   0.110  29.089   1.263
22198W        W94524  42.959  32.107  12.844
22199W        W94525   2.298  21.148   1.728
22200W        W94526   2.390  22.004   2.436
22201W        W94527  28.212  26.074   5.464
22202W        W94528   9.633  16.133   0.401
22203W        W94529  25.556  19.558  13.133
22204W        W94530   2.749  27.102  13.740
22205W        W94531   5.699  14.577   3.697
22206W        W94532  11.103  40.768   3.596
22207W        W94533  35.283  15.659  14.212
22208W        W94534  29.033   4.195  11.692
22209W        W94535  39.894  38.445   4.224
22210W        W94536   7.247  34.094   2.859
22211W        W94537   3.840   3.302   2.885
22212W        W94538   6.820  25.079   3.144
22213W        W94539  38.302  29.105   3.293
22214W        W94540  43.576   7.257  14.936
22215W        W94541  15.148  39.357  13.829
22216W        W94542  28.148  26.047   2.242
22217W        W94543  22.607  15.180   1.407
22218W        W94544  20.196  20.839   1.396
22219W        W94545  43.355   0.779   4.179
22220W        W94546  27.316  36.756   4.139
22221W        W94547  41.281   2.369   0.839
22222W        W94548  36.086  15.556   3.805
22223W        W94549  32.048  15.244  10.776
22224W        W94550   6.811   3.945  10.375
22225W        W94551  20.595   8.916   0.819
22226W        W94552   8.376  13.637   0.620
22227W        W94553  27.075   2.864   2.836
22228W        W94554   8.716  37.261   1.656
22229W        W94555   9.630  44.336  11.754
22230W        W94556  36.843  18.611  11.638
22231W        W94557  18.589   6.321  12.990
22232W        W94558   9.622  18.573   3.784
22233W        W94559   6.293  43.439   3.221
22234W        W94560  25.226  28.471  11.584
22235W        W94561  27.426  15.298   2.307
22236W        W94562  35.004  25.770  11.968
22237W        W94563  40.423  17.156   4.314
22238W        W94564  16.699  37.764   2.349
22239W        W94565   6.303  18.251   3.242
22240W        W94566  35.129  11.940  10.104
22241W        W94567  14.875   7.744  14.402
22242W        W94568  25.109  39.540  14.278
22243W        W94569   9.592   7.424  12.414
22244W        W94570  26.105  33.388   3.202
22245W        W94571  17.578   9.352   1.315
22246W        W94572  34.839   6.700  12.516
22247W        W94573   1.242  10.439   3.507
22248W        W94574   9.836  41.306   2.286
22249W        W94575  41.010  32.884  11.200
22250W        W94576  43.710  34.649   4.425
22251W        W94577   8.773  36.993  12.834
22252W        W94578  40.468  44.959  11.563
22253W        W94579  26.200   6.977   2.152
22254W        W94580  35.841  34.895   5.112
22255W        W94581   6.874  19.155  10.701
22256W        W94582  35.814  21.487   4.228
22257W        W94583  17.587  14.043  12.432
22258W        W94584   5.754  25.440  11.218
22259W        W94585   0.835  29.604  12.359
22260W        W94586  22.691  19.193  14.928
22261W        W94587   4.810  18.842  12.466
22262W        W94588   1.727  12.385   0.439
22263W        W94589  23.764   1.201   1.883
22264W        W94590  24.502  20.848  12.854
22265W        W94591  17.806   7.213   3.687
22266W        W94592   8.735   0.846   1.175
22267W        W94593  21.998  39.861   4.271
22268W        W94594  16.164  38.506  10.639
22269W        W94595  28.986   6.247   0.369
22270W        W94596  14.729   8.946  12.906
22271W        W94597   8.503  27.535   3.778
22272W        W94598   7.759  17.582  12.487
22273W        W94599  16.545  20.022   0.812
22274W        W94600  23.734  35.566   3.667
22275W        W94601   6.880  11.054  12.082
22276W        W94602  44.344   9.134  14.509
22277W        W94603  11.889  30.526  14.686
22278W        W94604   6.794  12.287  12.519
22279W        W94605  36.251  13.239  14.829
22280W        W94606  11.733  34.814   1.719
22281W        W94607  20.483  21.759  11.822
22282W        W94608  38.841  34.891   1.417
22283W        W94609  23.079  15.893  14.745
22284W        W94610   3.848   9.142  11.003
22285W        W94611  21.894   3.209  12.486
22286W        W94612  22.205  29.651   2.179
22287W        W94613  23.445  12.126   1.244
22288W        W94614  38.832  27.625   3.689
22289W        W94615  32.580  19.237  11.595
22290W        W94616  26.991  39.621  13.142
22291W        W94617  29.519  26.755  13.535
22292W        W94618  23.604  20.184   4.686
22293W        W94619  24.885  39.501   3.036
22294W        W94620   5.972  10.412   4.107
22295W        W94621  36.028  36.123   3.074
22296W        W94622  27.474  16.047  11.173
22297W        W94623  14.882  41.852  11.069
22298W        W94624   0.451  13.145  13.142
22299W        W94625   0.031  30.901  12.947
22300W        W94626  30.941  25.289   3.736
22301W        W94627  14.691   6.636   3.083
22302W        W94628  40.510  20.525  10.843
22303W        W94629  30.414  21.262   1.195
22304W        W94630   7.612  35.117   3.604
22305W        W94631  30.327   6.284  13.425
22306W        W94632  33.935  22.607   4.576
22307W        W94633   5.338  27.683  12.895
22308W        W94634  29.742  32.978   0.424
22309W        W94635  28.393  19.139  12.236
22310W        W94636   1.452  20.706   4.292
22311W        W94637  15.755  20.550   1.812
22312W        W94638  14.360   7.355   4.140
22313W        W94639  25.643  30.621   4.378
22314W        W94640  27.646  33.968  14.540
22315W        W94641   2.709  39.589   1.365
22316W        W94642  17.040  34.708   5.343
22317W        W94643  29.718  16.380   0.352
22318W        W94644   3.640  31.937  11.524
22319W        W94645   4.000   2.360  12.470
22320W        W94646  14.270   8.662   4.886
22321W        W94647  28.978  26.935  13.423
22322W        W94648  21.006  24.005   2.185
22323W        W94649  21.026  24.580   2.742
22324W        W94650   4.940  20.738   4.911
22325W        W94651  21.018  31.977  10.265
22326W        W94652  43.399  26.649  11.638
22327W        W94653  32.597  25.621   4.646
22328W        W94654  38.613  26.112   1.509
22329W        W94655  42.810  12.785  10.624
22330W        W94656  31.953   2.047   2.026
22331W        W94657  30.073   3.138   1.283
22332W        W94658  22.612  12.317  10.921
22333W        W94659  43.514  13.978   0.120
22334W        W94660  22.207   3.324   4.117
22335W        W94661  38.090  10.881   3.325
22336W        W94662  14.322  15.065  11.439
22337W        W94663  26.662  23.033  14.116
22338W        W94664  22.219  24.103   3.190
22339W        W94665   9.772  29.150   1.506
22340W        W94666  31.155   2.938   0.447
22341W        W94667  14.685  36.307   0.384
22342W        W94668  42.535  42.818  13.434
22343W        W94669  19.209  25.295   4.231
22344W        W94670  28.251   3.143  11.117
22345W        W94671  26.592  27.610   3.302
22346W        W94672   8.918   4.261   3.274
22347W        W94673  33.271  41.769   4.166
22348W        W94674  35.448  16.773   2.269
22349W        W94675  19.115   5.227   2.343
22350W        W94676  44.967  27.588   4.684
22351W        W94677   6.278  39.497  14.195
22352W        W94678  25.111  12.416   0.361
22353W        W94679   2.224  23.710   5.009
22354W        W94680  35.825  10.286   2.278
22355W        W94681  23.606  11.711   4.031
22356W        W94682   5.946  18.744  14.891
22357W        W94683  32.469   2.991  12.524
22358W        W94684  26.207   6.723   0.709
22359W        W94685  21.651  30.195  14.038
22360W        W94686  22.492   0.043  14.917
22361W        W94687  22.760  28.350  10.342
22362W        W94688  29.024  41.145   1.597
22363W        W94689  11.723  17.207  10.213
22364W        W94690  38.348  37.655  13.437
22365W        W94691  21.048   5.955   2.746
22366W        W94692  18.691   7.767   4.658
22367W        W94693   8.159  12.733   3.787
22368W        W94694   0.058  27.551   2.740
22369W        W94695  13.149  19.076  12.890
22370W        W94696  17.800  26.524   2.815
22371W        W94697   2.977  35.500   1.331
22372W        W94698  27.686  30.675   3.311
22373W        W94699  21.581  24.148   3.807
22374W        W94700  24.951  31.673  11.109
22375W        W94701  17.089  36.174   2.197
22376W        W94702  36.962  12.884  10.119
22377W        W94703  28.209  34.077  10.607
22378W        W94704   3.237  28.177  13.458
22379W        W94705   0.513  30.344  11.606
22380W        W94706  22.109  38.125   4.778
22381W        W94707   6.731  18.754  12.551
22382W        W94708  26.482  29.536   0.939
22383W        W94709  28.691  22.533  12.936
22384W        W94710   6.279  30.083  12.739
22385W        W94711  22.433  42.277  12.066
22386W        W94712   9.004   2.283   4.570
22387W        W94713  34.426  35.301  14.427
22388W        W94714  27.233  31.417  13.538
22389W        W94715   5.827  37.045   0.190
22390W        W94716  11.187  40.324   4.341
22391W        W94717   9.699  25.987   1.865
22392W        W94718   0.459  38.530  11.140
22393W        W94719   0.569  25.692   2.371
22394W        W94720   6.337  38.362  14.235
22395W        W94721  26.489  31.588  11.452
22396W        W94722  17.967  20.692  11.639
22397W        W94723  35.254   5.192  13.414
22398W        W94724   2.181  29.079   4.163
22399W        W94725  26.659  22.611  10.643
22400W        W94726   1.066   4.373   4.511
22401W        W94727  22.256  18.352   0.281
22402W        W94728  20.902  17.045   2.812
22403W        W94729   0.172  35.113  10.719
22404W        W94730   6.859   1.871   1.344
22405W        W94731  43.981  29.428  13.815
22406W        W94732  28.082  41.240  11.969
22407W        W94733  16.037   7.479   3.631
22408W        W94734  32.108  38.941  14.930
22409W        W94735  30.241  44.946  12.237
22410W        W94736  41.921  23.069   1.008
22411W        W94737   1.636  30.639  10.545
22412W        W94738  16.274  10.244   0.801
22413W        W94739  33.908   2.995   4.330
22414W        W94740  32.228  17.083   5.290
22415W        W94741  10.840   8.858  10.734
22416W        W94742  13.584  40.480  13.041
22417W        W94743  10.923  15.025  11.059
22418W        W94744   2.682  38.963  13.115
22419W        W94745  30.043   2.963   0.367
22420W        W94746  23.371  44.369   3.322
22421W        W94747  32.305  11.544  11.112
22422W        W94748  44.434  29.244   4.754
22423W        W94749  13.221  40.336   2.345
22424W        W94750  43.002  21.745   4.610
22425W        W94751  24.131   9.182  12.847
22426W        W94752  42.912  16.057  13.140
22427W        W94753  24.031  33.438   1.441
22428W        W94754  30.415   6.379  11.572
22429W        W94755  18.496  11.870   0.404
22430W        W94756  12.128  13.741   1.286
22431W        W94757  12.063  30.386  11.203
22432W        W94758   3.181  39.904   2.853
22433W        W94759  17.727   9.057   1.707
22434W        W94760  19.781  33.080  14.793
22435W        W94761   9.333  18.590  12.060
22436W        W94762   2.796  22.514   4.667
22437W        W94763  29.954  34.498   2.843
22438W        W94764  42.833  35.919  11.056
22439W        W94765  16.619  23.247   2.907
22440W        W94766  34.200  38.894  12.744
22441W        W94767  39.156  35.982   4.922
22442W        W94768  10.896   2.461  12.657
22443W        W94769  28.253  18.637   1.419
22444W        W94770  44.964  10.376  12.837
22445W        W94771  25.936   8.274   2.283
22446W        W94772  44.374  24.096   4.812
22447W        W94773   8.057  16.606   4.498
22448W        W94774  25.147   6.510  12.059
22449W        W94775   0.870  31.915   4.191
22450W        W94776  40.047  20.311  10.708
22451W        W94777   8.615  29.472   2.232
22452W        W94778   1.651  36.560  14.314
22453W        W94779  25.262  23.055  13.104
22454W        W94780  18.393  41.759   4.179
22455W        W94781  13.321  40.306   0.471
22456W        W94782  37.245  39.383  12.991
22457W        W94783   2.619  38.493   2.893
22458W        W94784  32.831  15.460  11.898
22459W        W94785   8.820  25.731   3.721
22460W        W94786  44.990  15.199   3.976
22461W        W94787  41.939   7.362  11.503
22462W        W94788  43.500   3.252   5.025
22463W        W94789  36.082   1.889   4.762
22464W        W94790  13.766  43.062  14.891
22465W        W94791   7.840  18.695  14.343
22466W        W94792  17.518   8.912   4.638
22467W        W94793  40.926  24.053   1.168
22468W        W94794  33.555  16.547  13.634
22469W        W94795  18.508  36.076  11.037
22470W        W94796  34.341  39.409   2.364
22471W        W94797  33.816  31.066   1.783
22472W        W94798  25.242   2.592   2.903
22473W        W94799  34.147  37.992  12.033
22474W        W94800  15.229   9.203   3.791
22475W        W94801  30.871  17.939  11.448
22476W        W94802   6.660  27.309  13.484
22477W        W94803  15.646  42.852   2.828
22478W        W94804  34.299   1.243   4.886
22479W        W94805  13.750  29.501   2.682
22480W        W94806  18.266  22.511   4.040
22481W        W94807   5.168  26.920   3.638
22482W        W94808   4.608  34.015   3.643
22483W        W94809  25.983  30.998  12.034
22484W        W94810  14.122  24.408   0.952
22485W        W94811  18.260  32.626  14.322
22486W        W94812  18.801   7.806   2.700
22487W        W94813  40.097  34.441  14.896
22488W        W94814  26.703   5.100  12.033
22489W        W94815  25.129  13.664  12.541
22490W        W94816  39.087  30.833   3.281
22491W        W94817  32.997  26.556  12.777
22492W        W94818   1.523   0.742  12.626
22493W        W94819  37.536  30.989   2.996
22494W        W94820  10.185  35.639  11.127
22495W        W94821  35.576   3.509  14.696
22496W        W94822  15.224  18.536  12.625
22497W        W94823  36.398  13.761  14.855
22498W        W94824  44.780  35.310  13.274
22499W        W94825  38.296  36.336   4.661
22500W        W94826  35.558  34.520   4.633
22501W        W94827  29.610   1.305  14.451
22502W        W94828  28.493  10.692  13.448
22503W        W94829  32.553  16.622  13.375
22504W        W94830  14.101  18.717   2.745
22505W        W94831  34.154   1.885   1.202
22506W        W94832  29.623  42.268   3.612
22507W        W94833   1.863   8.690   4.719
22508W        W94834  37.300   3.376   3.714
22509W        W94835  19.109  42.873  12.334
22510W        W94836  21.101   1.816  13.405
22511W        W94837  12.353  17.337   2.123
22512W        W94838   2.895  10.325  13.739
22513W        W94839  22.313  38.864   5.046
22514W        W94840   7.776  36.333   0.417
22515W        W94841  33.205  11.308  12.378
22516W        W94842  16.272  12.679  14.994
22517W        W94843  36.611  32.973  12.296
22518W        W94844  26.099   4.596   2.730
22519W        W94845  32.837  35.810   3.339
22520W        W94846  20.480  39.079  12.996
22521W        W94847   6.304  37.515  11.399
22522W        W94848  25.523  11.413   3.632
22523W        W94849  11.377  29.674   0.699
22524W        W94850  22.196  11.045  11.467
22525W        W94851  39.864   3.156   0.479
22526W        W94852  26.102  27.247   4.587
22527W        W94853  21.773  24.518   3.295
22528W        W94854   9.956  13.585   1.568
22529W        W94855  39.582  13.708   0.688
22530W        W94856  12.703  13.777  14.868
22531W        W94857  38.410   4.884   4.346
22532W        W94858  27.805  25.456  11.009
22533W        W94859  17.335   4.346   0.681
22534W        W94860  36.514   8.650   3.769
22535W        W94861  26.482  17.070   3.217
22536W        W94862  30.325  21.653  12.092
22537W        W94863  44.281   4.223  13.131
22538W        W94864  13.352  37.362   1.392
22539W        W94865  31.648  39.580   0.406
22540W        W94866  15.285  30.149   2.062
22541W        W94867  44.822   9.803   2.748
22542W        W94868  30.959  15.302  12.807
22543W        W94869  33.544  40.876   4.400
22544W        W94870  13.387   2.769  11.099
22545W        W94871  23.236   4.925  12.962
22546W        W94872  39.465   7.729  11.892
22547W        W94873   3.530  13.191   3.853
22548W        W94874  25.491  10.994   2.823
22549W        W94875  15.306   6.333  10.713
22550W        W94876  17.931   5.675  14.481
22551W        W94877   9.567  10.911  14.622
22552W        W94878   2.693  41.962  10.875
22553W        W94879  21.070  30.534  12.418
22554W        W94880  12.405  41.121  10.702
22555W        W94881  20.550  43.983  11.460
22556W        W94882  41.449   0.974  14.033
22557W        W94883  14.288  17.748   3.290
22558W        W94884   6.895  37.479  12.520
22559W        W94885  43.504  33.145   3.831
22560W        W94886  38.492  19.801   2.362
22561W        W94887  14.627   4.906   2.649
22562W        W94888  30.063  27.753   3.561
22563W        W94889  44.004  20.242   2.401
22564W        W94890   8.829  20.653   4.720
22565W        W94891   3.176   7.397  14.861
22566W        W94892  41.952  39.528  12.223
22567W        W94893  19.312  39.878   4.212
22568W        W94894  42.992  23.798   1.378
22569W        W94895  27.942  33.927  11.061
22570W        W94896  14.592  38.758   1.387
22571W        W94897  41.801  33.536   4.253
22572W        W94898  31.072  23.174  12.826
22573W        W94899  39.830   4.120  10.824
22574W        W94900  11.944  41.186   9.924
22575W        W94901  28.060  37.723  12.733
22576W        W94902  13.762  37.123  10.966
22577W        W94903   1.650  39.112  13.880
22578W        W94904  39.059  35.236  14.838
22579W        W94905  29.372  16.333   3.560
22580W        W94906  37.595  14.366   4.575
22581W        W94907  21.092  44.001  14.611
22582W        W94908   1.658  32.535   2.693
22583W        W94909   5.950   6.179   0.242
22584W        W94910  12.530  30.058  13.767
22585W        W94911  35.891  34.855   2.895
22586W        W94912  21.300   7.790  12.018
22587W        W94913  41.962  38.083   3.154
22588W        W94914  22.247   6.865  10.528
22589W        W94915  40.328  37.336   2.855
22590W        W94916  14.738  23.765  11.893
22591W        W94917   3.213  25.501  11.147
22592W        W94918   5.883  34.545  14.000
22593W        W94919  20.802   4.533   1.757
22594W        W94920  24.280   3.924   2.324
22595W        W94921   2.004   1.286   0.966
22596W        W94922  15.869  40.473  11.963
22597W        W94923  44.804  27.408   3.234
22598W        W94924  32.450  20.733  12.898
22599W        W94925  31.924  11.036   3.836
22600W        W94926  29.648  15.094  13.165
22601W        W94927  21.991  21.308   3.020
22602W        W94928  10.276   6.442   2.389
22603W        W94929  19.191  36.383   2.423
22604W        W94930  26.499  16.589  10.950
22605W        W94931  35.811   6.788  10.667
22606W        W94932  17.694  26.664   0.877
22607W        W94933  34.625  27.882   0.881
22608W        W94934  29.829  19.382   2.730
22609W        W94935  40.843   3.515  14.541
22610W        W94936  40.730   6.365  14.026
22611W        W94937   2.957  32.156  10.799
22612W        W94938  26.498  23.047   2.778
22613W        W94939  35.604   7.172  14.264
22614W        W94940  18.517  15.171  11.547
22615W        W94941  14.806  22.280  14.957
22616W        W94942  20.588  11.354  10.606
22617W        W94943  20.717  44.345   1.840
22618W        W94944  38.545  15.669   2.445
22619W        W94945  38.785   4.872  14.892
22620W        W94946  42.551  22.557   3.540
22621W        W94947  44.761  44.284   0.162
22622W        W94948  43.847  39.198  14.735
22623W        W94949  40.421  25.014   2.805
22624W        W94950  23.829  40.554   5.130
22625W        W94951  31.814  12.866  13.869
22626W        W94952  31.098  22.023   0.876
22627W        W94953  24.459  33.128   1.321
22628W        W94954  29.360   3.625  14.976
22629W        W94955  35.426  30.103   1.328
22630W        W94956  41.458  37.287  13.955
22631W        W94957  16.737  43.464  11.124
22632W        W94958  25.582   1.162  12.374
22633W        W94959   6.747  43.215   0.979
22634W        W94960   9.784  18.273  12.551
22635W        W94961   8.325  26.667   1.346
22636W        W94962   7.956   6.279   3.017
22637W        W94963  18.502   3.981   1.961
22638W        W94964  27.505  32.187   1.396
22639W        W94965  29.339  30.657  13.338
22640W        W94966  22.639  21.311  10.432
22641W        W94967  11.287   9.910  12.873
22642W        W94968  12.127  31.546  12.025
22643W        W94969  25.646  20.100  14.059
22644W        W94970  11.873  26.957  11.041
22645W        W94971   1.070  19.812   2.889
22646W        W94972  37.020  39.891  12.922
22647W        W94973  11.026   7.103  11.096
22648W        W94974   7.704   0.330   1.870
22649W        W94975  19.521  34.044  14.995
22650W        W94976  33.052  32.032  11.705
22651W        W94977  19.117  20.500  10.486
22652W        W94978   2.230  13.468   4.002
22653W        W94979   4.629  27.237   3.362
22654W        W94980   2.854   7.313   1.439
22655W        W94981   4.159   4.947   2.832
22656W        W94982  16.860   8.730  11.360
22657W        W94983  43.373  16.487  11.703
22658W        W94984  12.271  36.780   3.427
22659W        W94985  21.863  28.150  12.039
22660W        W94986   2.781  22.174  12.256
22661W        W94987   6.382  26.803  11.142
22662W        W94988   3.932  17.446   2.203
22663W        W94989   0.658  35.859  11.874
22664W        W94990  27.920  18.547  12.936
22665W        W94991  18.268  14.799   4.271
22666W        W94992  27.670  39.716  10.644
22667W        W94993  13.672  18.325   1.867
22668W        W94994  41.001  41.779   4.665
22669W        W94995  31.444  21.583   1.788
22670W        W94996  39.266  16.879  13.602
22671W        W94997  24.311  12.627  14.043
22672W        W94998  21.715   9.407  12.948
22673W        W94999   6.207   4.783   0.626
22674W        W95000  17.267  41.897   0.419
22675W        W95001   9.615  39.549   4.321
22676W        W95002  44.919  32.315   4.209
22677W        W95003  22.927   3.520   4.620
22678W        W95004  23.560  38.934   0.095
22679W        W95005   1.056  19.294  11.629
22680W        W95006  28.157  23.723   0.074
22681W        W95007   3.179  22.726   0.890
22682W        W95008  44.840  13.094   2.341
22683W        W95009   9.100  10.695  13.743
22684W        W95010   6.368   7.724  14.927
22685W        W95011  22.288  33.636   4.205
22686W        W95012  37.062  31.851   3.674
22687W        W95013  18.280  43.543   1.623
22688W        W95014  17.926   5.796   2.241
22689W        W95015   7.196  39.043  14.026
22690W        W95016   1.646  26.298   2.852
22691W        W95017   2.321  11.536  14.869
22692W        W95018  32.482  24.934   2.356
22693W        W95019   7.611  41.486  10.966
22694W        W95020  23.540  13.384   1.828
22695W        W95021   9.153  42.554   3.677
22696W        W95022  30.141  10.080   3.730
22697W        W95023  17.726  21.114  13.845
22698W        W95024  29.606  38.110  11.541
22699W        W95025  36.792   2.775  13.625
22700W        W95026  36.590  23.293   9.954
22701W        W95027  44.769  40.954   0.775
22702W        W95028  28.069   6.086  10.680
22703W        W95029  29.904   6.829  13.145
22704W        W95030  34.093  12.644  13.410
22705W        W95031  26.548  14.731   5.245
22706W        W95032  27.410  25.741   0.457
22707W        W95033  28.166  22.967   2.406
22708W        W95034  16.479  34.907  12.479
22709W        W95035  23.257  19.206  13.349
22710W        W95036  30.633  38.390  10.581
22711W        W95037  42.117  36.933  11.111
22712W        W95038  16.103   4.856   4.864
22713W        W95039  31.441  11.729   1.711
22714W        W95040   3.327  11.789   0.897
22715W        W95041   9.541  39.808   1.318
22716W        W95042  16.466  16.038   2.796
22717W        W95043  22.005  13.121   3.258
22718W        W95044   6.651   9.275   2.423
22719W        W95045  29.916  38.794   2.684
22720W        W95046  34.943  29.160  12.150
22721W        W95047   1.898  26.580  13.404
22722W        W95048  18.011  27.460   1.012
22723W        W95049  15.896  21.020  13.526
22724W        W95050  31.377  16.266  11.063
22725W        W95051   2.329  30.845  13.003
22726W        W95052  18.511  38.712   0.395
22727W        W95053  22.614  33.585   4.618
22728W        W95054  27.219  18.129  11.180
22729W        W95055  44.889   9.390  11.399
22730W        W95056   9.128   5.784  14.403
22731W        W95057   7.870  15.158  12.616
22732W        W95058   2.256  27.035  10.746
22733W        W95059  28.911  17.749  11.523
22734W        W95060  35.123  31.397  12.926
22735W        W95061  37.593  40.546   1.294
22736W        W95062  35.089  33.483  13.908
22737W        W95063   5.957  37.971  12.309
22738W        W95064  33.740  32.817  14.873
22739W        W95065  40.775  37.065  12.092
22740W        W95066   7.935   0.410   1.413
22741W        W95067  42.717  27.404  12.985
22742W        W95068  41.305   4.043   0.584
22743W        W95069   7.508  17.503   4.618
22744W        W95070   5.394  16.639  14.580
22745W        W95071  25.644  21.003  11.471
22746W        W95072  15.556   9.675  12.130
22747W        W95073  29.549  10.875  12.856
22748W        W95074  21.582  20.308  13.475
22749W        W95075  18.736  32.011   0.669
22750W        W95076  17.499  16.063  10.778
22751W        W95077   0.449   7.179  14.839
22752W        W95078  25.171  28.875   1.045
22753W        W95079  29.087  38.485  10.482
22754W        W95080  30.950  11.309  13.289
22755W        W95081  36.504  12.928   5.521
22756W        W95082  35.987   3.756   3.968
22757W        W95083  10.843  17.072  13.093
22758W        W95084  41.478  11.781  12.124
22759W        W95085  27.953   7.257  12.532
22760W        W95086  29.934  31.858   0.872
22761W        W95087  17.402  41.846   1.276
22762W        W95088  27.727   8.902   4.622
22763W        W95089  21.227  15.632  10.717
22764W        W95090  20.810  22.097   0.924
22765W        W95091  34.967   3.252   2.728
22766W        W95092  44.082  40.707   4.193
22767W        W95093  33.487  28.637   3.166
22768W        W95094  37.636  21.269   1.812
22769W        W95095  41.997  22.832   2.353
22770W        W95096  22.675   1.443  14.589
22771W        W95097  21.237   1.596   0.154
22772W        W95098  32.867  30.619   3.361
22773W        W95099  30.433  13.151  13.355
22774W        W95100  27.030   1.382   3.432
22775W        W95101  34.921  19.277   2.174
22776W        W95102  14.558  11.730   4.308
22777W        W95103  32.564  37.466  11.094
22778W        W95104  25.202  31.196   0.428
22779W        W95105  35.885  17.326   2.664
22780W        W95106  42.871  18.654   1.367
22781W        W95107  15.774   4.146   4.838
22782W        W95108  10.281  20.626  11.871
22783W        W95109   9.426  44.235   4.052
22784W        W95110   9.766  18.254  10.831
22785W        W95111  19.720  38.466   4.647
22786W        W95112  24.374  18.068  11.943
22787W        W95113  29.136  38.093   4.615
22788W        W95114  16.775  12.180   1.479
22789W        W95115  37.533  31.719  13.846
22790W        W95116  11.144   1.664  11.604
22791W        W95117   6.961  40.036   0.690
22792W        W95118  35.421  10.225  12.148
22793W        W95119  36.892  42.520   2.163
22794W        W95120  28.402  27.755   3.651
22795W        W95121  15.230  11.639  12.410
22796W        W95122  42.328  30.669  14.367
22797W        W95123  11.306   1.010   4.514
22798W        W95124   6.670   8.121  14.700
22799W        W95125  28.477  36.995   0.107
22800W        W95126   5.148  13.142  11.208
22801W        W95127   9.067  41.729  14.959
22802W        W95128  31.046   8.429  12.512
22803W        W95129  32.302  15.803   1.220
22804W        W95130  10.737   6.528  12.598
22805W        W95131   3.397  21.676  12.358
22806W        W95132  33.583  26.649   0.965
22807W        W95133  29.466  10.485   4.481
22808W        W95134   2.770   5.674   4.210
22809W        W95135  44.412  34.648   2.424
22810W        W95136  13.140  39.823   2.448
22811W        W95137  16.296  44.337   0.904
22812W        W95138  13.694  24.533   3.287
22813W        W95139  39.866  15.461   1.242
22814W        W95140  25.777  40.041  14.068
22815W        W95141   0.274  17.704   4.727
22816W        W95142  17.559   4.483  13.014
22817W        W95143   7.284   5.492   3.169
22818W        W95144  30.696   8.788  13.841
22819W        W95145  16.535  24.936  12.250
22820W        W95146  29.434  23.218  12.959
22821W        W95147  40.359  29.559  13.098
22822W        W95148   9.626   9.763  12.647
22823W        W95149  26.469   9.085  14.758
22824W        W95150  28.094  40.323  10.987
22825W        W95151   3.067  36.069  14.469
22826W        W95152   0.217  19.651  11.498
22827W        W95153  21.106   0.538  12.991
22828W        W95154  43.531   6.162   4.547
22829W        W95155  34.453  37.532   2.318
22830W        W95156  25.136  36.876  12.469
22831W        W95157  19.623  22.196  11.778
22832W        W95158  30.876  16.252  13.009
22833W        W95159   5.365  20.893   3.458
22834W        W95160  11.742   1.884   1.449
22835W        W95161  27.959  27.990   5.442
22836W        W95162  10.639   4.940  14.540
22837W        W95163   9.284  20.143   4.581
22838W        W95164  32.255  36.416  10.422
22839W        W95165  44.866  29.198   0.365
22840W        W95166  44.947  11.405   1.209
22841W        W95167   6.515  37.751   3.233
22842W        W95168  37.888  34.449   2.239
22843W        W95169  43.269  27.124  11.749
22844W        W95170  43.161  28.546  13.459
22845W        W95171  23.825   0.028   4.470
22846W        W95172  12.168  25.541  13.759
22847W        W95173  12.078   0.291   0.866
22848W        W95174  23.139  30.902   3.586
22849W        W95175  23.554  44.908   1.438
22850W        W95176  33.613  13.501   2.099
22851W        W95177  27.682  32.123  13.965
22852W        W95178  21.970   2.527   1.780
22853W        W95179  29.955  41.965   0.721
22854W        W95180  26.725  26.846   4.122
22855W        W95181   2.316  31.950   1.220
22856W        W95182  11.131  31.871   3.303
22857W        W95183  13.309  38.491   2.241
22858W        W95184  10.855   0.302  11.065
22859W        W95185  24.502   7.292   1.957
22860W        W95186  26.089  20.656  11.022
22861W        W95187  43.965  41.552  13.292
22862W        W95188   6.413  34.702  10.681
22863W        W95189  26.070  29.771  11.690
22864W        W95190  32.915  35.887   2.846
22865W        W95191   7.915  26.045  10.950
22866W        W95192   7.824  14.715  14.569
22867W        W95193  31.896   4.338   1.395
22868W        W95194   2.051  23.680  10.661
22869W        W95195  15.540   4.844   5.078
22870W        W95196   5.392  33.298   1.483
22871W        W95197  28.878   5.031  13.697
22872W        W95198  11.721  35.146  12.236
22873W        W95199   2.957  12.227  13.980
22874W        W95200  43.902  25.731   2.793
22875W        W95201  27.643  28.255   3.258
22876W        W95202  40.101   4.332   4.098
22877W        W95203  29.489   5.987  10.471
22878W        W95204   1.511  10.918  11.183
22879W        W95205  11.593  28.388   4.975
22880W        W95206  11.827  11.894   1.296
22881W        W95207  31.928  24.768  12.880
22882W        W95208  35.494   4.201  11.717
22883W        W95209  42.819  44.887  10.656
22884W        W95210   7.509  18.208   2.536
22885W        W95211  34.487   0.237  12.006
22886W        W95212  40.357  37.476  10.182
22887W        W95213  15.850  44.440  14.948
22888W        W95214  11.139  36.061   1.257
22889W        W95215  11.080  27.784  12.038
22890W        W95216  17.366  36.870   0.400
22891W        W95217  41.440  44.328   4.191
22892W        W95218  35.913  22.178   3.625
22893W        W95219   1.700  24.819   4.558
22894W        W95220  11.810  19.959  13.962
22895W        W95221  41.812  36.807   1.822
22896W        W95222  44.433  11.122   3.061
22897W        W95223   7.201   9.400  10.740
22898W        W95224  21.315  31.007   4.152
22899W        W95225  21.135  32.852  11.268
22900W        W95226   4.036  38.450   4.733
22901W        W95227  30.090  40.793  10.666
22902W        W95228  15.796  30.929   3.194
22903W        W95229  31.378  25.768   1.412
22904W        W95230  35.668   1.769  10.570
22905W        W95231  21.725  38.922   0.899
22906W        W95232  26.226  19.189   4.248
22907W        W95233  38.277  34.023   3.586
22908W        W95234  10.858  18.043  11.510
22909W        W95235   9.004  28.977   4.653
22910W        W95236  37.066  12.769  13.959
22911W        W95237  29.457  17.810  10.425
22912W        W95238  21.655  13.251   3.626
22913W        W95239  40.796  15.241  12.064
22914W        W95240  10.336  12.049   3.839
22915W        W95241  21.767  34.196  12.885
22916W        W95242  36.354   6.789   3.132
22917W        W95243  10.629   4.876   0.035
22918W        W95244  11.944  27.303   5.585
22919W        W95245  24.098  33.615   0.575
22920W        W95246  23.006  44.331  11.511
22921W        W95247  32.105  21.573  14.757
22922W        W95248   9.388  13.582  13.757
22923W        W95249  36.549  31.480  14.888
22924W        W95250  26.362  23.610   0.404
22925W        W95251  29.561  16.088  12.847
22926W        W95252  27.982  21.615  12.936
22927W        W95253  15.738  25.534  12.521
22928W        W95254  36.490  33.383   1.975
22929W        W95255  21.754   0.548  14.582
22930W        W95256  21.273  34.512  10.691
22931W        W95257  31.721   8.713   2.310
22932W        W95258  11.800   7.324  12.916
22933W        W95259  27.695   7.133  11.170
22934W        W95260  28.744  37.466  14.421
22935W        W95261  25.554  39.587  13.124
22936W        W95262  19.524  26.897  13.887
22937W        W95263   0.901  22.483  14.390
22938W        W95264  27.752  20.715  11.561
22939W        W95265  24.253  13.146   3.790
22940W        W95266  19.786  18.233  11.601
22941W        W95267  38.327  42.462   4.250
22942W        W95268  37.291  43.867  14.887
22943W        W95269  33.361  37.435  10.510
22944W        W95270  24.493  26.282   2.239
22945W        W95271  15.085  21.798   2.687
22946W        W95272  18.676  12.001   0.875
22947W        W95273  31.004  11.128   4.906
22948W        W95274  17.391   9.468   1.794
22949W        W95275  23.540  29.674   4.178
22950W        W95276   7.548  31.526   3.800
22951W        W95277  24.557  44.653  11.867
22952W        W95278  33.485  43.840   0.191
22953W        W95279   5.660  25.931  11.534
22954W        W95280  13.930   9.145  14.787
22955W        W95281  26.062  39.273   3.166
22956W        W95282  12.630  41.440   2.430
22957W        W95283  35.387  30.897   1.850
22958W        W95284  41.214  29.644  11.176
22959W        W95285  29.975  42.980  13.409
22960W        W95286  26.194  28.213  11.061
22961W        W95287  22.153  18.795   1.307
22962W        W95288  32.985  41.496   3.792
22963W        W95289  23.776  22.180   4.331
22964W        W95290  16.518  14.722  14.093
22965W        W95291   1.608   4.347  10.197
22966W        W95292  26.474  27.034   3.723
22967W        W95293  29.434   1.897   2.364
22968W        W95294  39.030  43.291  13.493
22969W        W95295  15.361   9.336   3.275
22970W        W95296   0.853  26.510  12.252
22971W        W95297  40.392   1.399  11.871
22972W        W95298  33.077   3.400   3.216
22973W        W95299  32.210  22.969   4.122
22974W        W95300  19.241  43.935  11.216
22975W        W95301  36.021   8.732  12.125
22976W        W95302  35.625   8.662  10.707
22977W        W95303  22.790  44.354   3.308
22978W        W95304  28.008   0.277   4.871
22979W        W95305  34.954  35.823  12.413
22980W        W95306  10.781  38.538   1.030
22981W        W95307  27.875   7.285   0.474
22982W        W95308   9.741  35.303   3.850
22983W        W95309  18.638   5.706   1.472
22984W        W95310  13.694  31.129   2.668
22985W        W95311  30.440  24.240  10.951
22986W        W95312  23.868  24.160  13.700
22987W        W95313  18.671  30.552   2.905
22988W        W95314  13.134  28.672   0.510
22989W        W95315  14.048  23.756  11.096
22990W        W95316  21.931  37.399  14.481
22991W        W95317   8.107  41.030  12.484
22992W        W95318  35.410   3.028  12.831
22993W        W95319   0.482  42.221  10.992
22994W        W95320   1.783  37.320   3.691
22995W        W95321  15.154  14.502   3.862
22996W        W95322  20.538   9.193  12.544
22997W        W95323  41.873   8.350  13.959
22998W        W95324  14.160   2.376  13.280
22999W        W95325  15.213  34.555  10.225
23000W        W95326  17.544  22.201   0.488
23001W        W95327  20.828  18.193  10.890
23002W        W95328   0.902  20.662   1.225
23003W        W95329   7.650  19.428  14.841
23004W        W95330  30.587  28.853  13.498
23005W        W95331  43.017  36.530  14.765
23006W        W95332  25.046   6.734  10.708
23007W        W95333  11.759   0.845  12.515
23008W        W95334  25.438  35.115   2.192
23009W        W95335  13.776   1.211  14.810
23010W        W95336  34.684  44.586   3.237
23011W        W95337  20.583  20.804  13.915
23012W        W95338  44.698  13.292  13.857
23013W        W95339   4.402  12.038  10.972
23014W        W95340  44.027  26.044  11.594
23015W        W95341  10.930  11.350  11.770
23016W        W95342  39.605  35.274  14.267
23017W        W95343   0.591  42.575  13.322
23018W        W95344  29.212  12.613  13.504
23019W        W95345  11.803  38.574  13.745
23020W        W95346  44.018  28.936  14.061
23021W        W95347   8.882   5.438   4.052
23022W        W95348  12.623  28.160   0.394
23023W        W95349  11.145   1.307  12.907
23024W        W95350  36.129  22.210  13.076
23025W        W95351   3.701   1.880   3.400
23026W        W95352   8.140  42.512   2.557
23027W        W95353  12.365  16.726   3.781
23028W        W95354  14.678  22.959   1.853
23029W        W95355  23.662  15.138   0.323
23030W        W95356  33.509   5.765  13.080
23031W        W95357  38.895   4.198   2.373
23032W        W95358  18.585   2.203  11.982
23033W        W95359  31.611  21.222   4.553
23034W        W95360   5.960  16.389   3.202
23035W        W95361  17.702   3.819  14.706
23036W        W95362   1.415   0.886   1.348
23037W        W95363  13.624  12.072  11.544
23038W        W95364  20.873  16.307  11.116
23039W        W95365   2.911  28.444  13.149
23040W        W95366  17.739  36.301   1.840
23041W        W95367   8.286  24.442   0.242
23042W        W95368  29.290  41.371   0.297
23043W        W95369  13.593  13.886   0.923
23044W        W95370  42.813  10.236  11.943
23045W        W95371  26.381  42.944   0.830
23046W        W95372   4.063   4.046   2.936
23047W        W95373  14.244  42.307   4.450
23048W        W95374  36.932  24.554   3.804
23049W        W95375  43.712  32.677  13.403
23050W        W95376  33.166  26.014   0.918
23051W        W95377  34.440  39.905  13.826
23052W        W95378  18.810  35.690   3.809
23053W        W95379  21.637  42.701   4.639
23054W        W95380  39.258  41.430   4.599
23055W        W95381  40.780  31.628   3.178
23056W        W95382  32.881  17.356  12.440
23057W        W95383  35.338  18.725   4.217
23058W        W95384  11.666  42.261  11.634
23059W        W95385  35.886  39.835  11.844
23060W        W95386  20.661   5.900   3.830
23061W        W95387  25.524   4.533   9.953
23062W        W95388  23.217  21.579   2.433
23063W        W95389   2.975  35.884   2.732
23064W        W95390  28.195  39.276   1.294
23065W        W95391  12.187  13.959   0.226
23066W        W95392  30.636  10.173   0.540
23067W        W95393  41.019  28.148   3.290
23068W        W95394  43.946  23.508   1.152
23069W        W95395  27.433  28.212  11.919
23070W        W95396  40.084  44.851   2.861
23071W        W95397  18.805  21.027  11.476
23072W        W95398   1.888  30.444   2.272
23073W        W95399  15.069   5.812  11.989
23074W        W95400  12.438  19.730  13.242
23075W        W95401  27.558  31.622   1.635
23076W        W95402   2.218  22.720  10.758
23077W        W95403   6.966   0.752  14.985
23078W        W95404  29.490   8.774  14.957
23079W        W95405  36.788  40.909  14.416
23080W        W95406  12.622  32.511   3.764
23081W        W95407  19.136  14.336  10.991
23082W        W95408  27.693   2.058   3.998
23083W        W95409   7.315  33.210  13.834
23084W        W95410  12.808  35.277   1.461
23085W        W95411  16.085  43.031  12.326
23086W        W95412  43.980  42.998  14.118
23087W        W95413  20.017  17.292  14.477
23088W        W95414  20.201  31.603  14.238
23089W        W95415  19.799  26.954  11.134
23090W        W95416  19.921  14.903  14.653
23091W        W95417  23.499  37.259   1.579
23092W        W95418  31.516  36.586  12.055
23093W        W95419  40.976   4.423  14.457
23094W        W95420  24.764  23.184  14.509
23095W        W95421   4.110  12.272   2.620
23096W        W95422  33.674  31.924  10.261
23097W        W95423   1.894  10.253  10.619
23098W        W95424  15.735  18.078  10.645
23099W        W95425   6.213  19.625   1.428
23100W        W95426  12.831  21.071  12.395
23101W        W95427  17.110  31.079   4.650
23102W        W95428  16.137  33.577  10.477
23103W        W95429  23.141  26.093   3.843
23104W        W95430  10.150   0.888  13.547
23105W        W95431  18.619   6.939   1.651
23106W        W95432  21.217  23.622   4.376
23107W        W95433   6.422  37.932   1.231
23108W        W95434  29.095  29.102  12.568
23109W        W95435  26.208   7.932  13.341
23110W        W95436  35.608  19.478   2.709
23111W        W95437  15.580  34.959  14.374
23112W        W95438  30.104  42.873   0.306
23113W        W95439  21.730  13.279  13.517
23114W        W95440  32.596   2.229  12.989
23115W        W95441  42.992  29.011   1.369
23116W        W95442   0.524  21.122  13.303
23117W        W95443  25.998   2.289  14.912
23118W        W95444  25.575  21.580  10.680
23119W        W95445  28.580  21.812   1.763
23120W        W95446  29.571  15.788  10.906
23121W        W95447  25.804  12.253  12.315
23122W        W95448  39.903  35.856   4.182
23123W        W95449   9.702   7.409   2.351
23124W        W95450   1.427  27.924   3.793
23125W        W95451  37.429   5.871  10.947
23126W        W95452  34.525  28.058  14.861
23127W        W95453  44.987   6.286  12.920
23128W        W95454  38.753  36.029  11.151
23129W        W95455  25.964  10.284   2.294
23130W        W95456   8.705  26.800  14.279
23131W        W95457  25.218  25.033   4.688
23132W        W95458  21.185  16.362   0.439
23133W        W95459  34.026  38.519   4.130
23134W        W95460  35.602  39.262   4.092
23135W        W95461  14.901  11.225  13.896
23136W        W95462  12.215  13.902  14.711
23137W        W95463  28.649   6.712   1.963
23138W        W95464  35.067  22.542   0.391
23139W        W95465  44.773  24.265  10.727
23140W        W95466  42.293  40.320   2.943
23141W        W95467  10.754   0.246   1.457
23142W        W95468  10.611   9.383  13.451
23143W        W95469  31.543  17.899   0.628
23144W        W95470   5.195  43.216   1.820
23145W        W95471  10.341  27.308   2.897
23146W        W95472  36.771  19.542  13.134
23147W        W95473  16.686   0.292   0.759
23148W        W95474  44.611  42.985   0.070
23149W        W95475  19.727   5.803  12.513
23150W        W95476  26.012  38.587  12.460
23151W        W95477  42.083  32.840   2.710
23152W        W95478  11.212  34.038   0.860
23153W        W95479  14.335   0.285  10.547
23154W        W95480  35.907   6.941  13.123
23155W        W95481   2.100   0.162   1.494
23156W        W95482  15.479  42.373   5.085
23157W        W95483  14.698  25.212   4.185
23158W        W95484  39.591   1.176   2.239
23159W        W95485  38.570   7.683  14.426
23160W        W95486   9.630  24.205  11.127
23161W        W95487  40.975   1.786  11.428
23162W        W95488   4.856  24.659   1.747
23163W        W95489   4.779   5.815  12.489
23164W        W95490  36.707  21.923  14.667
23165W        W95491  26.376  30.960   5.166
23166W        W95492  42.363  34.349   4.667
23167W        W95493  42.721  17.800  14.532
23168W        W95494   3.777  27.225   4.609
23169W        W95495   8.655  33.625  10.662
23170W        W95496  32.899  19.839  13.795
23171W        W95497   0.994  10.416  10.184
23172W        W95498   8.964  39.831  13.371
23173W        W95499  10.877  41.753   2.868
23174W        W95500   0.252  24.422   3.161
23175W        W95501  26.947   4.415  10.828
23176W        W95502   7.854  20.260  11.644
23177W        W95503  14.596   6.805  12.888
23178W        W95504  19.315  23.386   0.960
23179W        W95505  10.894  35.981   0.768
23180W        W95506  12.719   1.150   0.152
23181W        W95507  20.293  23.827   3.497
23182W        W95508  33.673  15.196  13.326
23183W        W95509   0.749  11.869  14.287
23184W        W95510  10.235  22.105   1.651
23185W        W95511  37.273  24.959   3.803
23186W        W95512  34.851  22.533  14.537
23187W        W95513   3.936  27.988  14.851
23188W        W95514   1.446  35.174  11.142
23189W        W95515  38.379  36.869  10.985
23190W        W95516  16.307   2.921   1.764
23191W        W95517  16.073   7.123  12.589
23192W        W95518  15.280   0.550   1.789
23193W        W95519   9.759  35.993   4.842
23194W        W95520  24.511  28.134   1.068
23195W        W95521  38.265  41.949   4.297
23196W        W95522  42.474  44.429  11.175
23197W        W95523  13.342  12.288   3.352
23198W        W95524  31.387  32.573   0.431
23199W        W95525   5.319   6.185  12.067
23200W        W95526  27.723   2.498  14.210
23201W        W95527  25.496  18.155  12.928
23202W        W95528  10.734  35.643  13.342
23203W        W95529  23.551  13.836  14.871
23204W        W95530   7.170   6.119   0.841
23205W        W95531   6.332  17.000   4.609
23206W        W95532   6.150   6.821   1.849
23207W        W95533  31.469   2.327   3.665
23208W        W95534  25.978  44.363   2.199
23209W        W95535  29.082  35.118  14.443
23210W        W95536   4.919  24.477  11.564
23211W        W95537   4.771  38.387  13.478
23212W        W95538  33.607   5.837  11.610
23213W        W95539  28.560  28.583   5.505
23214W        W95540   8.362  23.208   2.584
23215W        W95541   6.730  22.715  13.967
23216W        W95542  40.650   7.245   3.732
23217W        W95543  17.337  29.141   1.273
23218W        W95544   1.419   0.545  10.614
23219W        W95545   2.770   6.443  10.726
23220W        W95546  30.565  10.968  12.086
23221W        W95547  12.733  26.442   0.786
23222W        W95548  11.753   8.646  10.166
23223W        W95549  30.210  20.845  14.440
23224W        W95550  24.177  17.262  12.954
23225W        W95551  40.430   1.198   3.597
23226W        W95552   7.966   6.981  14.724
23227W        W95553  28.924  17.137   3.237
23228W        W95554   2.423  27.342   0.057
23229W        W95555  37.218  24.504   2.304
23230W        W95556  43.994  23.824  12.237
23231W        W95557  37.550  43.397   0.423
23232W        W95558  12.853  42.256  12.487
23233W        W95559  17.522  24.570   4.318
23234W        W95560  11.269  13.359   1.928
23235W        W95561  23.475  14.840  13.392
23236W        W95562  37.089  18.472   3.700
23237W        W95563   7.394  34.903  13.140
23238W        W95564  23.494  31.240   4.243
23239W        W95565  35.370  31.060   0.311
23240W        W95566   8.299  29.359   0.209
23241W        W95567  11.176  39.432  11.128
23242W        W95568  42.434  19.987   0.933
23243W        W95569   3.861   9.189  12.065
23244W        W95570  21.833  34.582  14.935
23245W        W95571  19.053   0.362  10.848
23246W        W95572  20.981  25.036   2.448
23247W        W95573  13.816   6.800  12.466
23248W        W95574  32.293  35.425  14.718
23249W        W95575  37.462  26.164  11.217
23250W        W95576  22.744  44.388   1.469
23251W        W95577  43.599  24.553   3.191
23252W        W95578  16.749  32.061  13.800
23253W        W95579  42.955  16.567   0.315
23254W        W95580  12.793   9.779   4.774
23255W        W95581  36.739   2.512   0.097
23256W        W95582   7.638  12.668   3.908
23257W        W95583  35.574   9.314   1.754
23258W        W95584  17.652   6.931  12.993
23259W        W95585   8.981  14.246   2.827
23260W        W95586  24.783  21.105   4.525
23261W        W95587   9.557  17.802  13.376
23262W        W95588  33.614  26.348  14.222
23263W        W95589  37.971   1.587  10.730
23264W        W95590   6.945  17.849   3.116
23265W        W95591  21.039  27.004  10.662
23266W        W95592  32.964  15.383   5.026
23267W        W95593  43.957  30.441  13.891
23268W        W95594   0.358  37.581  14.961
23269W        W95595  39.905  32.504  11.689
23270W        W95596  18.064  40.528   3.481
23271W        W95597  40.542  16.755  12.605
23272W        W95598   1.274  18.842  11.432
23273W        W95599  20.077  37.400   4.589
23274W        W95600  41.467  26.615   2.348
23275W        W95601  34.492  35.410   5.387
23276W        W95602  33.546  43.550  14.735
23277W        W95603  34.384  39.679   4.061
23278W        W95604   2.558  42.121  11.900
23279W        W95605  34.366  16.248   2.806
23280W        W95606  32.597  40.701   1.895
23281W        W95607  28.871   3.993  13.392
23282W        W95608  39.199  22.392  12.785
23283W        W95609  26.060   5.704  12.481
23284W        W95610  27.231   5.275  14.471
23285W        W95611  25.974  27.249   3.763
23286W        W95612  29.909  37.994  14.720
23287W        W95613  31.584  32.411  10.590
23288W        W95614   4.806  30.725  11.353
23289W        W95615  40.401   0.716  11.161
23290W        W95616  15.847  12.780  13.816
23291W        W95617   8.726  26.185   0.560
23292W        W95618  44.710  18.906  13.756
23293W        W95619  37.953  11.621   3.998
23294W        W95620   7.590   3.224   3.228
23295W        W95621  38.188  39.782  12.079
23296W        W95622   8.658  29.422  10.436
23297W        W95623   0.266   2.636   0.279
23298W        W95624  10.174  13.868  10.576
23299W        W95625  28.749   4.340   3.309
23300W        W95626  27.559   9.260   3.166
23301W        W95627  15.096  19.972   0.645
23302W        W95628  19.019  15.583   3.685
23303W        W95629  10.396  10.757   3.918
23304W        W95630  27.559  27.444  12.380
23305W        W95631  33.494   3.215  13.444
23306W        W95632   2.774  35.854  11.151
23307W        W95633  13.003  10.148   3.830
23308W        W95634  37.867  16.324   2.700
23309W        W95635  24.074  41.303  13.102
23310W        W95636  16.370  36.437  11.526
23311W        W95637   3.879  40.455  12.252
23312W        W95638  36.132   4.805   1.760
23313W        W95639  36.062   2.263   4.313
23314W        W95640   6.391  32.338  14.437
23315W        W95641   5.669  18.507   0.259
23316W        W95642  31.440   1.237   0.442
23317W        W95643  17.332  41.253   0.247
23318W        W95644  41.951  24.941  12.519
23319W        W95645  17.783  17.789   2.124
23320W        W95646  13.435   1.694   2.037
23321W        W95647   1.951  44.316  11.531
23322W        W95648  16.011  35.868   4.926
23323W        W95649  41.454   2.977  11.113
23324W        W95650  15.274  36.087  12.056
23325W        W95651   0.461   7.655  14.680
23326W        W95652   0.021  27.103  13.793
23327W        W95653  25.926   9.590   2.855
23328W        W95654  30.052  42.971   4.526
23329W        W95655  13.677  28.186   2.235
23330W        W95656  28.265   6.576  13.012
23331W        W95657  32.030  29.324   4.462
23332W        W95658  38.044  40.364   3.748
23333W        W95659  31.774  11.521  11.121
23334W        W95660  41.761  10.799   0.352
23335W        W95661  10.239  26.492  14.012
23336W        W95662  41.725  30.154   4.594
23337W        W95663  15.563   9.150  10.534
23338W        W95664   3.585  18.795  13.316
23339W        W95665  33.216  35.623   1.353
23340W        W95666  21.074  28.929  13.870
23341W        W95667  19.686  42.297   1.496
23342W        W95668  15.570  41.017   2.263
23343W        W95669  19.495  22.093   4.233
23344W        W95670  30.259  29.588   2.820
23345W        W95671  39.310  14.175   4.118
23346W        W95672  41.225  29.967  13.931
23347W        W95673  24.631  24.407  12.381
23348W        W95674  42.097  41.318   2.289
23349W        W95675   9.391   4.913  11.500
23350W        W95676  32.379  13.306   1.254
23351W        W95677  32.557  14.609  10.719
23352W        W95678  14.268  15.648   0.506
23353W        W95679  11.833  22.980   3.214
23354W        W95680  12.178  27.860  12.793
23355W        W95681   9.678   4.360  12.097
23356W        W95682  44.337  19.128  14.030
23357W        W95683  23.095   1.261  12.741
23358W        W95684  13.182   2.432  12.857
23359W        W95685  24.925  43.045   1.794
23360W        W95686  16.193   4.469  13.412
23361W        W95687  34.957  35.600  10.669
23362W        W95688   7.620  31.658  13.259
23363W        W95689  20.283  40.024   4.261
23364W        W95690  31.883  10.235  10.615
23365W        W95691  37.786  41.799  13.588
23366W        W95692  33.283   5.631   4.985
23367W        W95693  15.188   7.701   1.689
23368W        W95694   0.231  39.164   4.243
23369W        W95695  15.360   2.294  12.555
23370W        W95696   1.116   2.308   0.341
23371W        W95697  16.535  21.955   3.979
23372W        W95698  33.460  31.874   3.206
23373W        W95699  25.630  17.839  12.301
23374W        W95700   2.014   0.012  12.048
23375W        W95701  13.364  20.717  10.632
23376W        W95702  38.724  24.690   2.245
23377W        W95703  13.711  14.517   1.765
23378W        W95704  38.299  28.343   1.026
23379W        W95705  29.646   4.443  10.754
23380W        W95706  13.320  39.533   4.712
23381W        W95707  30.061  13.360  12.033
23382W        W95708  25.493  29.598   3.538
23383W        W95709  18.663  44.264   1.185
23384W        W95710  42.944  14.362  13.940
23385W        W95711  35.455  30.713  11.337
23386W        W95712   5.571  20.754  14.166
23387W        W95713  23.069   1.725  11.601
23388W        W95714   9.419  16.157   2.662
23389W        W95715   2.042  19.103   2.203
23390W        W95716  10.659  11.948   4.255
23391W        W95717  10.875  21.304   1.210
23392W        W95718   8.743  14.891  10.768
23393W        W95719   5.485  28.650  12.069
23394W        W95720   6.884  15.008   1.216
23395W        W95721  32.724   3.274   4.151
23396W        W95722  10.734   2.925   2.614
23397W        W95723  11.899  32.942   4.221
23398W        W95724  25.236   9.909  10.642
23399W        W95725  21.350  43.045  14.744
23400W        W95726   3.424  20.235  12.924
23401W        W95727  27.919  30.454   0.963
23402W        W95728   9.185  31.845   3.686
23403W        W95729  19.047   3.641  12.506
23404W        W95730  40.874  30.221  10.397
23405W        W95731  10.944  15.059  13.708
23406W        W95732   0.228   0.270   4.523
23407W        W95733  35.408  42.368   2.510
23408W        W95734  26.572  31.121   2.835
23409W        W95735  13.082  32.551  10.454
23410W        W95736  22.643   2.062   2.641
23411W        W95737  32.471  18.063  10.702
23412W        W95738   8.772  40.536   0.048
23413W        W95739   9.837  16.006   1.936
23414W        W95740  32.174  10.002   2.414
23415W        W95741   0.674   4.782  12.073
23416W        W95742  33.159  42.830   0.717
23417W        W95743  22.970  18.610   1.901
23418W        W95744  32.022  16.361   0.829
23419W        W95745  26.736   8.314   2.704
23420W        W95746   5.299  37.933  10.406
23421W        W95747  14.840  21.388   4.663
23422W        W95748  29.599  43.304   1.482
23423W        W95749  12.068   3.410   0.682
23424W        W95750  11.137   2.425  13.939
23425W        W95751  27.338   6.711   3.475
23426W        W95752  39.286  23.224  11.172
23427W        W95753   5.367   4.984  13.930
23428W        W95754  15.525  19.741  13.119
23429W        W95755  36.447  23.758  12.030
23430W        W95756   1.991  41.368  11.583
23431W        W95757   3.907  35.843   9.880
23432W        W95758  26.535   9.309   0.278
23433W        W95759   8.742  20.812  11.685
23434W        W95760   1.162  31.336  11.990
23435W        W95761  35.355  27.943   2.477
23436W        W95762  23.207  21.324   0.878
23437W        W95763  41.259  26.140   4.643
23438W        W95764  25.795  36.286  12.529
23439W        W95765  19.486  29.640   3.380
23440W        W95766  30.438  13.749   2.712
23441W        W95767   2.790  24.940   2.214
23442W        W95768  31.885   3.698  12.483
23443W        W95769  39.528  36.462   4.345
23444W        W95770  27.712   0.997  13.436
23445W        W95771  20.570  12.363  12.008
23446W        W95772  42.062  13.586  11.494
23447W        W95773  42.160  41.909   1.721
23448W        W95774  38.985  37.864   3.221
23449W        W95775   4.848  43.977  10.787
23450W        W95776  19.032  10.948   3.704
23451W        W95777  18.820  15.729   4.295
23452W        W95778  44.781  26.067   1.925
23453W        W95779  44.893  15.631  13.595
23454W        W95780  37.039   6.858   3.775
23455W        W95781  35.087  39.005   4.998
23456W        W95782  23.726  39.500  13.430
23457W        W95783  19.150  13.513   2.989
23458W        W95784   5.169  16.703  10.358
23459W        W95785  38.942  14.778  11.823
23460W        W95786  36.434   8.344   4.205
23461W        W95787   4.718  16.147   3.645
23462W        W95788  41.209  37.075  10.670
23463W        W95789  30.596   9.268   3.061
23464W        W95790  38.528  38.455   3.918
23465W        W95791   9.806   8.837   1.789
23466W        W95792   8.891  29.636  14.463
23467W        W95793  42.117  12.800   0.377
23468W        W95794  23.098  36.068   2.623
23469W        W95795  22.580  26.769   3.642
23470W        W95796  20.825  11.472   0.946
23471W        W95797   4.855  16.622   2.650
23472W        W95798  32.197  34.615  12.484
23473W        W95799  11.633  38.027   2.127
23474W        W95800  35.381  16.549   1.286
23475W        W95801  44.441  10.300   1.276
23476W        W95802  29.119   1.262   2.479
23477W        W95803  40.077  38.379   4.712
23478W        W95804  42.356  20.910  11.609
23479W        W95805   9.305   3.033   1.248
23480W        W95806  36.894  42.730   1.364
23481W        W95807   4.883  28.487   1.867
23482W        W95808  36.819  11.802  11.166
23483W        W95809  19.089  40.251   4.559
23484W        W95810  15.340  32.981  10.491
23485W        W95811  40.420  27.635   4.854
23486W        W95812  43.939  27.422  11.473
23487W        W95813  24.885  16.837   0.969
23488W        W95814   9.241  24.941   1.359
23489W        W95815  17.225   5.504   2.481
23490W        W95816  17.810   7.288  11.198
23491W        W95817  29.862  32.216  11.356
23492W        W95818  22.282  30.110  12.534
23493W        W95819  13.738  22.469   2.684
23494W        W95820  10.232  25.725  11.864
23495W        W95821  35.862  25.798  12.519
23496W        W95822   3.653  30.104  12.032
23497W        W95823  35.118  42.820  14.406
23498W        W95824  27.474  28.404   0.203
23499W        W95825  22.468  38.496   3.189
23500W        W95826  15.144  19.341  13.044
23501W        W95827  14.841  10.370   3.828
23502W        W95828   6.170   9.807   1.618
23503W        W95829   8.673  37.434   3.828
23504W        W95830  33.469  33.435  11.431
23505W        W95831  25.755  21.722  12.172
23506W        W95832  18.136  43.028   2.805
23507W        W95833  32.992  37.944   4.315
23508W        W95834   3.277  36.532  11.398
23509W        W95835  26.912  25.028   0.680
23510W        W95836  29.682  35.795   2.924
23511W        W95837   8.265   4.629   1.948
23512W        W95838  35.495  21.317  14.054
23513W        W95839   9.881  31.503  11.254
23514W        W95840  28.449   2.109   2.394
23515W        W95841  44.185  17.775   3.276
23516W        W95842  33.790  38.214  10.205
23517W        W95843   4.763   3.193   4.251
23518W        W95844  20.158  18.735  10.658
23519W        W95845   7.927  32.105  13.134
23520W        W95846  26.226  29.236   3.900
23521W        W95847  21.590  33.493  13.559
23522W        W95848  39.487   3.728  12.978
23523W        W95849   0.818  21.026  13.713
23524W        W95850  19.427  25.020   0.829
23525W        W95851  11.442  10.782   2.332
23526W        W95852  17.815  42.443   0.750
23527W        W95853  30.646   4.087  13.926
23528W        W95854  30.659  20.743   3.250
23529W        W95855   5.377  13.872  13.822
23530W        W95856   2.490  10.882   5.013
23531W        W95857  16.014  43.197  10.694
23532W        W95858  12.868  44.742  11.589
23533W        W95859  35.138  36.086   3.197
23534W        W95860  30.616  23.286  12.046
23535W        W95861  22.552  13.851  14.849
23536W        W95862  37.023   4.377  13.555
23537W        W95863   1.815   0.528   0.530
23538W        W95864  29.149  23.026   4.395
23539W        W95865  20.726  25.465   5.013
23540W        W95866  39.224  11.654  12.838
23541W        W95867   0.934  12.693  10.538
23542W        W95868  36.517  37.519  14.752
23543W        W95869  19.084  11.926   1.369
23544W        W95870  16.084  22.251   4.235
23545W        W95871  18.530  18.164  14.927
23546W        W95872  39.141  40.492  14.390
23547W        W95873  29.906  40.344   0.937
23548W        W95874  21.647  44.805  12.522
23549W        W95875  36.328  27.967   4.218
23550W        W95876  25.519  31.197  12.551
23551W        W95877  38.077  20.338  13.046
23552W        W95878  11.351  23.595   4.597
23553W        W95879   7.339   1.654  13.916
23554W        W95880  15.613  16.754  14.879
23555W        W95881  22.126  33.363  12.826
23556W        W95882  29.738  34.475   1.727
23557W        W95883  20.920   4.265  14.969
23558W        W95884  28.945   9.884   1.832
23559W        W95885  15.705   3.641   1.654
23560W        W95886   9.211  32.529  11.595
23561W        W95887  31.160  38.133   0.755
23562W        W95888  18.890  12.289  13.472
23563W        W95889   7.062  35.719  13.757
23564W        W95890  38.331   0.211   4.175
23565W        W95891  38.976  31.709  12.785
23566W        W95892  33.346  15.255  12.062
23567W        W95893  11.235   6.291  14.512
23568W        W95894  21.029  37.623  12.525
23569W        W95895   2.497  32.931   2.898
23570W        W95896  38.797   4.425  10.718
23571W        W95897  44.706  23.695   3.247
23572W        W95898  31.090   5.937  13.770
23573W        W95899  12.582   8.530  10.105
23574W        W95900  19.682  13.272   1.823
23575W        W95901  16.837   4.479   2.143
23576W        W95902   9.258  11.726   2.183
23577W        W95903   9.392  38.424  14.254
23578W        W95904  36.093  35.468  10.656
23579W        W95905  20.331  16.146  13.279
23580W        W95906  36.869   6.942   0.437
23581W        W95907  23.119   6.325  14.748
23582W        W95908   7.179  36.077  12.525
23583W        W95909  36.963  27.987  11.854
23584W        W95910   7.620  40.371  12.012
23585W        W95911  28.558  17.537   4.192
23586W        W95912  44.500  26.615   0.851
23587W        W95913  32.040   2.390   5.126
23588W        W95914  23.034  41.965   3.767
23589W        W95915  32.088  43.945  13.070
23590W        W95916   1.061  20.516  14.454
23591W        W95917  15.156   0.850  11.580
23592W        W95918  29.408  38.441   0.991
23593W        W95919  35.874  14.066  13.843
23594W        W95920  38.980  10.648  13.967
23595W        W95921  26.121  20.670   0.290
23596W        W95922  18.455  33.136   2.919
23597W        W95923  27.343  14.435  11.617
23598W        W95924   6.239  31.849   1.774
23599W        W95925  26.644  40.832  11.625
23600W        W95926  23.404  44.401   0.211
23601W        W95927   4.761   9.331   0.872
23602W        W95928  36.004  44.376  12.263
23603W        W95929  31.690  36.810  13.626
23604W        W95930  23.731  26.124   3.247
23605W        W95931  41.922  21.102   1.927
23606W        W95932  14.743  23.596  14.181
23607W        W95933   5.831  33.203  13.807
23608W        W95934   1.765  10.682   3.837
23609W        W95935  17.073   2.683   3.699
23610W        W95936  40.979  10.637   3.195
23611W        W95937   9.525   3.450  12.855
23612W        W95938   5.945  44.785  10.995
23613W        W95939  19.768  37.195  11.970
23614W        W95940   3.709  40.915  12.432
23615W        W95941  26.120   4.451   4.891
23616W        W95942  21.210  12.029  10.910
23617W        W95943  44.745   9.655  14.459
23618W        W95944  10.523  15.732  13.196
23619W        W95945   9.195  32.949   0.796
23620W        W95946  23.175  39.393   5.523
23621W        W95947   8.172  16.611  12.036
23622W        W95948   4.567  38.401  13.982
23623W        W95949  32.671  13.300   0.524
23624W        W95950  15.149  13.200  11.141
23625W        W95951   8.519  41.418   2.839
23626W        W95952   3.998  25.941  14.948
23627W        W95953  14.754  22.090  11.505
23628W        W95954   0.454  39.445   0.392
23629W        W95955  23.117  10.525   0.975
23630W        W95956  37.765  13.129  12.054
23631W        W95957  18.001  16.270  10.749
23632W        W95958   0.026  12.214  12.487
23633W        W95959  20.056  42.880   1.479
23634W        W95960  15.106  15.382   4.156
23635W        W95961  17.709  13.247  10.933
23636W        W95962  34.489  36.093  14.869
23637W        W95963  15.836  22.594  13.942
23638W        W95964   6.829  16.109  11.220
23639W        W95965  16.523   5.773  13.357
23640W        W95966   4.407   3.818   9.694
23641W        W95967  22.705  34.449   4.286
23642W        W95968   8.891  36.950   3.887
23643W        W95969  35.661  44.319  11.438
23644W        W95970  17.164  36.472  14.042
23645W        W95971  41.614  27.514   1.726
23646W        W95972   7.155   2.721  13.875
23647W        W95973  35.112   0.374  12.738
23648W        W95974   2.416  33.087  12.763
23649W        W95975  21.097  33.220  13.454
23650W        W95976  36.482   3.661  13.307
23651W        W95977   8.175  27.699  12.928
23652W        W95978  37.465  15.782   1.003
23653W        W95979   9.166   9.781  12.389
23654W        W95980  39.329  44.507  12.576
23655W        W95981  19.837  23.487   0.192
23656W        W95982  42.307  34.160   2.126
23657W        W95983   4.419  12.769  10.618
23658W        W95984   1.941  30.076   4.635
23659W        W95985  31.622  24.255   1.637
23660W        W95986  34.959  11.904  10.582
23661W        W95987  32.954   3.899   3.083
23662W        W95988  22.706  37.440  14.965
23663W        W95989  40.523  16.481   2.368
23664W        W95990  15.741  44.405  12.501
23665W        W95991   0.733  32.700  10.916
23666W        W95992   7.189  31.961  13.295
23667W        W95993   0.581  36.789   2.802
23668W        W95994  41.127   1.549  11.995
23669W        W95995   5.634  40.547   3.133
23670W        W95996   1.248   4.880   4.580
23671W        W95997  35.107   3.418  14.982
23672W        W95998  33.069  21.609   2.206
23673W        W95999  23.015  43.410  13.066
23674W        W96000  32.651  40.961   4.870
23675W        W96001  30.921  25.906   1.927
23676W        W96002  13.969  27.495   4.129
23677W        W96003  10.660   1.219   4.548
23678W        W96004   2.273  10.201  10.946
23679W        W96005  14.341  22.130   0.919
23680W        W96006   3.335   1.780  11.972
23681W        W96007   7.686  20.327   0.614
23682W        W96008  13.760  10.232  12.665
23683W        W96009  16.086   7.041  11.306
23684W        W96010   6.350  10.957  12.759
23685W        W96011  38.153   7.286   1.892
23686W        W96012  42.052  12.778  12.159
23687W        W96013  42.498  24.525  14.523
23688W        W96014  25.721  29.674   2.557
23689W        W96015  21.807  27.257  11.941
23690W        W96016  36.995  22.278   1.405
23691W        W96017   8.652   9.717   1.270
23692W        W96018  33.521  31.508  13.989
23693W        W96019  18.702  34.476  12.158
23694W        W96020  39.852  31.723  11.771
23695W        W96021  26.836  13.201  13.398
23696W        W96022  31.411  39.270  13.364
23697W        W96023  40.846  31.820   0.534
23698W        W96024  41.889  37.307   0.263
23699W        W96025  44.473  17.632   2.291
23700W        W96026   8.116  15.869  14.255
23701W        W96027   8.866  37.852   4.587
23702W        W96028  37.136  35.481  13.388
23703W        W96029   6.265  12.369  13.466
23704W        W96030  20.480  20.560   1.751
23705W        W96031  23.036   5.146  11.558
23706W        W96032  42.328  43.001  12.034
23707W        W96033  43.505   7.168  10.682
23708W        W96034  35.295  31.092   4.130
23709W        W96035   1.334  12.329   0.772
23710W        W96036  29.106   1.525   2.951
23711W        W96037  21.131   5.008   4.855
23712W        W96038  21.517  22.643  14.088
23713W        W96039   5.549  23.019  11.520
23714W        W96040  26.803  14.386  10.080
23715W        W96041   3.510  11.752   2.267
23716W        W96042   9.125  23.023   4.081
23717W        W96043  20.263  42.302   4.737
23718W        W96044  41.570  12.077   4.298
23719W        W96045  39.929  22.481   1.753
23720W        W96046   8.633  34.620  12.559
23721W        W96047  32.816  16.070   3.968
23722W        W96048  28.208  32.808   1.401
23723W        W96049  33.866  24.588  12.889
23724W        W96050  17.694  40.854   4.727
23725W        W96051  23.001  20.325  10.686
23726W        W96052  34.154  15.584   1.762
23727W        W96053  41.988   1.347  14.605
23728W        W96054  32.733  26.981   2.370
23729W        W96055  25.004  28.927  11.487
23730W        W96056  23.507  42.273  11.094
23731W        W96057  37.042   7.471  10.674
23732W        W96058   7.989   3.490  12.288
23733W        W96059   7.862  12.232   2.672
23734W        W96060  19.487  34.525  14.023
23735W        W96061  17.126   3.287  10.795
23736W        W96062  40.544  21.449  10.579
23737W        W96063  22.143  26.700   1.997
23738W        W96064  20.793  27.302  12.001
23739W        W96065   7.907  23.122  14.806
23740W        W96066  23.510  13.552  11.508
23741W        W96067  32.852  27.088  11.112
23742W        W96068  14.263   7.117  10.400
23743W        W96069  14.177  10.067  12.363
23744W        W96070  41.274   9.918  11.556
23745W        W96071  29.737   1.260   0.337
23746W        W96072   2.914  38.907  13.568
23747W        W96073  23.098  14.707  14.794
23748W        W96074  25.460  19.605   2.663
23749W        W96075  40.347   4.685   3.646
23750W        W96076  38.230  14.683   3.333
23751W        W96077  26.314  17.145  12.523
23752W        W96078  20.671  38.817   2.616
23753W        W96079   4.357  37.512  14.091
23754W        W96080  32.195  17.537  14.407
23755W        W96081   2.006   1.237   1.898
23756W        W96082  35.603   8.795   2.890
23757W        W96083  13.347   7.650   4.130
23758W        W96084  43.302  24.484  11.982
23759W        W96085  40.757  10.833   2.744
23760W        W96086  30.022  19.802  11.087
23761W        W96087  36.044  20.448   1.017
23762W        W96088  39.957  18.471   4.896
23763W        W96089  13.121  13.562   4.227
23764W        W96090  14.989  44.786   2.446
23765W        W96091  20.582   3.250  13.571
23766W        W96092   1.379   8.056  13.381
23767W        W96093  36.544  19.011   2.835
23768W        W96094  40.985  41.059   1.547
23769W        W96095  16.799  16.039   3.625
23770W        W96096  13.858  29.497  12.290
23771W        W96097   8.457  42.481  11.872
23772W        W96098  33.959  15.308   4.427
23773W        W96099  33.534  41.743  13.385
23774W        W96100  44.649  40.603   4.113
23775W        W96101  26.831  13.564   1.683
23776W        W96102  40.027  19.642   4.088
23777W        W96103   9.302  38.471  10.631
23778W        W96104  25.629  34.063  14.774
23779W        W96105  34.108  28.919  10.757
23780W        W96106  13.814  33.632  10.220
23781W        W96107  11.328  18.851   2.904
23782W        W96108   6.243   4.727  13.509
23783W        W96109  33.400   3.909  11.578
23784W        W96110  34.976  28.024  10.714
23785W        W96111  11.656  36.108   5.013
23786W        W96112  18.666  14.946   4.620
23787W        W96113   8.600  31.970  13.648
23788W        W96114  44.787  42.511  12.947
23789W        W96115  21.991  31.185   2.319
23790W        W96116  31.353  27.902  13.312
23791W        W96117  16.182  21.338   3.854
23792W        W96118  24.716  20.080   3.621
23793W        W96119   4.518   0.008  13.450
23794W        W96120   8.722  29.061   4.250
23795W        W96121   5.203  33.454  10.212
23796W        W96122  35.149  35.350   3.669
23797W        W96123  23.824  43.812  13.148
23798W        W96124   2.913  24.086   4.041
23799W        W96125   0.636   7.592   0.179
23800W        W96126  12.317  38.043  13.948
23801W        W96127   4.169  25.994  12.086
23802W        W96128  27.073  13.704   4.592
23803W        W96129   1.443   3.446  14.874
23804W        W96130  21.606  21.032   1.354
23805W        W96131  27.591  20.651   3.195
23806W        W96132  32.887   4.291  14.339
23807W        W96133   0.306  16.384  13.859
23808W        W96134   8.677  13.339  14.403
23809W        W96135  23.180  30.234  13.010
23810W        W96136  21.139  12.583   2.350
23811W        W96137  38.033   9.327  12.791
23812W        W96138  41.068  42.399   2.510
23813W        W96139  32.884  17.700   3.005
23814W        W96140  23.989  44.504  10.619
23815W        W96141  18.505  19.277  10.744
23816W        W96142  30.112  21.655  14.268
23817W        W96143  10.836  19.664   3.058
23818W        W96144   0.930  31.065   4.553
23819W        W96145  18.942  37.373   3.678
23820W        W96146   0.743  38.426   1.260
23821W        W96147  43.221  10.372  11.030
23822W        W96148   8.948  11.585  10.673
23823W        W96149  34.738  14.077   3.264
23824W        W96150   6.913  15.601  13.374
23825W        W96151  43.111   2.925  14.508
23826W        W96152  13.203  38.447  10.811
23827W        W96153  31.341   4.698  13.433
23828W        W96154  15.417  19.223   2.930
23829W        W96155  35.602  29.634  12.079
23830W        W96156   4.921  17.851  10.614
23831W        W96157  30.408   3.685   4.137
23832W        W96158  22.612   1.197   0.142
23833W        W96159  34.277   4.684  11.112
23834W        W96160   2.787  11.018  13.499
23835W        W96161  13.168  21.026  13.015
23836W        W96162  16.544   2.281   4.296
23837W        W96163  11.401  34.408   0.018
23838W        W96164  10.919   8.529  12.065
23839W        W96165  33.551  19.336   1.274
23840W        W96166  12.991   0.698   0.037
23841W        W96167  23.981  14.277   2.903
23842W        W96168  44.282  21.486  11.515
23843W        W96169  19.565  21.044  14.798
23844W        W96170  20.075  32.835  12.748
23845W        W96171  44.821  17.520   2.658
23846W        W96172  10.355   6.810   3.708
23847W        W96173  29.532  14.390   1.723
23848W        W96174  34.462  31.407   4.505
23849W        W96175   8.344  23.195   1.132
23850W        W96176  20.212   5.419   0.719
23851W        W96177   8.770   0.152   0.827
23852W        W96178  10.822   0.909   0.472
23853W        W96179   7.745  34.115  12.860
23854W        W96180  26.658  33.196  11.622
23855W        W96181  31.195  29.325   1.742
23856W        W96182  20.631   2.259   4.652
23857W        W96183  22.767  31.676  11.530
23858W        W96184  25.475   9.334  12.557
23859W        W96185  21.890  23.294   0.228
23860W        W96186  14.125   0.139   3.853
23861W        W96187  21.259   9.282   2.315
23862W        W96188  39.373   7.680  14.354
23863W        W96189   0.771  17.898   2.652
23864W        W96190   4.590  21.615   2.424
23865W        W96191  37.553   3.324  14.853
23866W        W96192  35.043   4.402   4.043
23867W        W96193  27.083   2.038  13.060
23868W        W96194  15.244  43.589   1.914
23869W        W96195  10.246  34.541  14.007
23870W        W96196   3.265   4.410  13.967
23871W        W96197   4.643  40.951  11.167
23872W        W96198   2.616   1.786   9.878
23873W        W96199   4.803   5.014  12.891
23874W        W96200  31.152   9.721   1.430
23875W        W96201  26.474  20.354  12.810
23876W        W96202  41.419  39.457  10.956
23877W        W96203  37.556   6.329   1.009
23878W        W96204  18.605  11.625  11.902
23879W        W96205   6.977  40.318   2.839
23880W        W96206  15.134   9.899   4.090
23881W        W96207  35.177  24.055   2.346
23882W        W96208  31.283   7.716   1.432
23883W        W96209  11.806  36.835   1.002
23884W        W96210  18.268  10.601  14.282
23885W        W96211   6.553  33.659   1.966
23886W        W96212  32.159  38.332   3.661
23887W        W96213  34.920  26.766  12.838
23888W        W96214  32.832  43.013  11.503
23889W        W96215  23.919  44.279  11.413
23890W        W96216   4.757  24.707  10.707
23891W        W96217  20.224  29.431   2.988
23892W        W96218  42.866  36.062   0.534
23893W        W96219  26.546  35.711  12.573
23894W        W96220   9.634  14.457  14.784
23895W        W96221  40.399   1.959   3.365
23896W        W96222   6.219   8.294   3.311
23897W        W96223   4.457  23.275  13.678
23898W        W96224  35.576  25.798  13.426
23899W        W96225  10.950  27.704   4.089
23900W        W96226  31.047  28.704  14.103
23901W        W96227  12.211  11.088   2.904
23902W        W96228  21.470  21.619  14.399
23903W        W96229   3.229  35.620  12.346
23904W        W96230   0.969   9.217   1.717
23905W        W96231  20.615  37.543   1.772
23906W        W96232  19.725   6.050   4.754
23907W        W96233  10.177  37.789  13.916
23908W        W96234  32.963  36.589  13.448
23909W        W96235  14.652   2.858  12.242
23910W        W96236  28.685   9.889  11.958
23911W        W96237   4.307  19.073   0.643
23912W        W96238  27.581   7.293   2.500
23913W        W96239  17.305  40.281  14.913
23914W        W96240   4.000  25.190   0.306
23915W        W96241   3.381  37.534   3.202
23916W        W96242  42.054  40.877  10.507
23917W        W96243  20.360  10.716  14.279
23918W        W96244   7.717  14.389   2.334
23919W        W96245   0.270  23.044  10.646
23920W        W96246  41.848   6.600  12.440
23921W        W96247  34.720  15.684  14.238
23922W        W96248   1.205  30.880  11.210
23923W        W96249  12.840  31.667   2.223
23924W        W96250   8.374  34.348  12.088
23925W        W96251  24.470  17.849   3.732
23926W        W96252   8.612  26.084   2.920
23927W        W96253  19.541  25.679   3.661
23928W        W96254  16.497  41.118   4.208
23929W        W96255   5.202  18.049  12.940
23930W        W96256  24.727  20.084  11.769
23931W        W96257  39.819  23.083   4.733
23932W        W96258  26.450  16.092  12.709
23933W        W96259  38.356  13.894  10.880
23934W        W96260  24.175  24.200   5.126
23935W        W96261  15.332  24.211  13.720
23936W        W96262  22.589  14.657  11.415
23937W        W96263  11.354  21.341   0.884
23938W        W96264  20.096   8.172   3.825
23939W        W96265  10.602  29.566   4.665
23940W        W96266  37.316   4.313   4.185
23941W        W96267  16.744  33.643   2.964
23942W        W96268  35.955  26.203   5.133
23943W        W96269  29.371  30.639  14.278
23944W        W96270  41.720  11.225  13.973
23945W        W96271  35.840  31.983  14.078
23946W        W96272   9.444   0.364   3.241
23947W        W96273  12.361  43.431   0.036
23948W        W96274  15.505  35.622  11.960
23949W        W96275  36.418  30.378   2.284
23950W        W96276  29.915  36.144  14.576
23951W        W96277  16.305  28.098  11.761
23952W        W96278  37.252  12.732   0.369
23953W        W96279  39.910   4.988  11.972
23954W        W96280  31.381  11.358   2.061
23955W        W96281   2.600   7.569  11.881
23956W        W96282  42.923   4.885   0.958
23957W        W96283  19.794  43.885  13.917
23958W        W96284   6.808   5.794  13.096
23959W        W96285  40.677  31.903  10.749
23960W        W96286  13.590  20.776   0.966
23961W        W96287  26.505   8.581  12.997
23962W        W96288  17.022  31.070   0.576
23963W        W96289  24.562  31.696  12.504
23964W        W96290   6.722  21.003  13.276
23965W        W96291  16.256  35.079  13.462
23966W        W96292  21.692  19.471  14.722
23967W        W96293  20.685  41.437  11.493
23968W        W96294  21.719  15.152   1.705
23969W        W96295  32.985   2.387   2.371
23970W        W96296  15.819  38.325   2.215
23971W        W96297  25.374  25.761  13.998
23972W        W96298  24.170  31.953   0.788
23973W        W96299   7.833  26.151  11.965
23974W        W96300   7.367  28.206  14.837
23975W        W96301  35.318  40.538  11.187
23976W        W96302  34.344  38.884   2.527
23977W        W96303  32.788  25.113   0.997
23978W        W96304  28.058  44.556   3.722
23979W        W96305  23.007  40.632   0.817
23980W        W96306   1.776  15.467   2.326
23981W        W96307  30.153  13.148  11.094
23982W        W96308  14.578   3.661   2.350
23983W        W96309   8.230  34.038  10.704
23984W        W96310  36.625  28.978   2.706
23985W        W96311  36.937  40.816  13.930
23986W        W96312  24.300   0.885  14.355
23987W        W96313  18.081  14.798   1.086
23988W        W96314  18.351  27.751   1.904
23989W        W96315  16.637  30.897   3.899
23990W        W96316  42.541  12.205   2.281
23991W        W96317  23.448  31.730  13.489
23992W        W96318  21.923   7.895   2.939
23993W        W96319  14.846   3.278   0.894
23994W        W96320   3.977  32.093  12.883
23995W        W96321  16.343  13.239  12.547
23996W        W96322   5.434  31.727  10.662
23997W        W96323  13.044  28.957   2.837
23998W        W96324  14.660   9.631   3.345
23999W        W96325  18.612  30.202   3.849
24000W        W96326  19.544  25.795   1.397
24001W        W96327  28.378  29.352   4.202
24002W        W96328  20.179   5.969   2.756
24003W        W96329  32.122   6.066  13.643
24004W        W96330  37.497  41.928   2.642
24005W        W96331   6.972   0.593  12.563
24006W        W96332  42.901  34.478  13.389
24007W        W96333  37.557  30.394   0.250
24008W        W96334  32.951  23.982   3.862
24009W        W96335  12.108  28.427   2.627
24010W        W96336   3.473  16.086  11.445
24011W        W96337  30.871  30.573  11.050
24012W        W96338  41.359  25.234  11.798
24013W        W96339  25.148  15.100   1.658
24014W        W96340  21.554  17.696   4.295
24015W        W96341  31.060  17.822   4.529
24016W        W96342   9.639  21.143   4.562
24017W        W96343  21.447  29.483  11.525
24018W        W96344  36.980  32.044   4.606
24019W        W96345  20.343  44.212   2.183
24020W        W96346   9.244  29.582  14.877
24021W        W96347  21.037   2.499  14.005
24022W        W96348  31.581  31.071   4.622
24023W        W96349  37.351  35.721  13.831
24024W        W96350   6.434  13.161   4.722
24025W        W96351  26.086   3.393   0.388
24026W        W96352  23.597  34.433   0.844
24027W        W96353  42.865   2.456   2.598
24028W        W96354  40.688  35.963   0.772
24029W        W96355   3.843   3.055  11.969
24030W        W96356  37.817  31.945  14.769
24031W        W96357  18.578  41.473   2.748
24032W        W96358  27.635  30.193  14.081
24033W        W96359   0.385   9.273  14.736
24034W        W96360   1.065  37.403  14.373
24035W        W96361  36.883  29.522   4.255
24036W        W96362  42.438  40.263   4.362
24037W        W96363  24.530  16.636  12.295
24038W        W96364   4.432  13.890  13.733
24039W        W96365  18.736   8.945   0.843
24040W        W96366  10.077  16.611   4.515
24041W        W96367  19.163  26.263  12.947
24042W        W96368  44.852   9.750  10.734
24043W        W96369   0.832  11.192   2.593
24044W        W96370   2.546   6.815   0.769
24045W        W96371  12.705  42.746  12.382
24046W        W96372   6.802  27.578   2.746
24047W        W96373  12.584  43.495  12.866
24048W        W96374   9.600  35.066  11.053
24049W        W96375  26.955  19.515   1.846
24050W        W96376  15.709  12.184   4.977
24051W        W96377   9.538  17.291  10.674
24052W        W96378  41.998  25.511   3.119
24053W        W96379   3.114  10.231  14.224
24054W        W96380   9.489  30.167   5.116
24055W        W96381  30.583  17.741   1.695
24056W        W96382  20.794  23.436   4.107
24057W        W96383  19.642  38.801  14.833
24058W        W96384  32.949   6.923  12.355
24059W        W96385   3.770  10.553   0.562
24060W        W96386  20.361  10.272   0.897
24061W        W96387  16.781  24.982  13.012
24062W        W96388  15.703  43.281   4.791
24063W        W96389   8.182  33.104   2.895
24064W        W96390   1.910  18.116  10.865
24065W        W96391  14.422  21.549  12.679
24066W        W96392  15.814  29.164  13.745
24067W        W96393  32.380  38.414   0.348
24068W        W96394   1.890  32.544  13.641
24069W        W96395  21.652  16.284   4.096
24070W        W96396  25.200  37.486   1.920
24071W        W96397  24.808  11.910  12.463
24072W        W96398  20.273  25.993   0.850
24073W        W96399  44.461  18.227   2.887
24074W        W96400  11.455  35.307   3.111
24075W        W96401  44.849  21.940   2.896
24076W        W96402  14.335  24.677  11.140
24077W        W96403  21.263   4.758   3.240
24078W        W96404   6.393   5.615  11.927
24079W        W96405  17.197  30.386   3.229
24080W        W96406  20.687  18.994   1.833
24081W        W96407  22.721  23.292  13.790
24082W        W96408  10.870  13.334  11.675
24083W        W96409  23.605  36.063   2.407
24084W        W96410  24.530  39.363  11.928
24085W        W96411   7.023   4.998   2.288
24086W        W96412   7.658   6.754   2.276
24087W        W96413  35.138  31.994   0.822
24088W        W96414  30.997  40.430  10.143
24089W        W96415  41.524  10.930  10.660
24090W        W96416  39.003  30.977   0.897
24091W        W96417   4.657  22.016  14.746
24092W        W96418  31.587  29.566   4.677
24093W        W96419   9.224  32.194   0.325
24094W        W96420  15.356  19.358  12.213
24095W        W96421  28.188  23.495   4.656
24096W        W96422  23.336  12.658   0.908
24097W        W96423  35.121  36.953  14.820
24098W        W96424   4.471  34.767  11.956
24099W        W96425  14.769  20.028   4.549
24100W        W96426  36.584   4.320  12.719
24101W        W96427   9.267  10.137  11.997
24102W        W96428  35.447   5.254   1.354
24103W        W96429  26.472   4.830  14.585
24104W        W96430   8.286  21.576   2.690
24105W        W96431  34.145   1.133  13.864
24106W        W96432  12.043  28.250  10.992
24107W        W96433  17.034   2.933  12.498
24108W        W96434  31.120  18.822  14.183
24109W        W96435  28.937  30.603   0.043
24110W        W96436  16.118  16.055   0.910
24111W        W96437   6.629  23.001   3.199
24112W        W96438  37.662  23.259   1.657
24113W        W96439  15.545  11.915   1.469
24114W        W96440  17.357   7.902  12.330
24115W        W96441  36.128  34.376   3.749
24116W        W96442  14.324   6.818  12.459
24117W        W96443   5.973  27.980   4.534
24118W        W96444   4.849  32.916   0.939
24119W        W96445  30.475  25.934  11.771
24120W        W96446  30.665  44.020  10.974
24121W        W96447  32.428  16.150   3.597
24122W        W96448  42.180   7.903  12.491
24123W        W96449  44.005  12.426   0.546
24124W        W96450   6.668   8.938  12.422
24125W        W96451  31.597  33.387   0.787
24126W        W96452  22.989  37.168  10.013
24127W        W96453  31.956   0.871   3.121
24128W        W96454   8.251  11.641   0.398
24129W        W96455  12.400  39.300  13.471
24130W        W96456  34.612  35.690   9.717
24131W        W96457  40.770   2.486  10.738
24132W        W96458  30.798  21.229   4.183
24133W        W96459   2.266  36.835   0.273
24134W        W96460   2.981  39.945  11.117
24135W        W96461  28.176  34.466   2.491
24136W        W96462   2.714   1.230  12.420
24137W        W96463   1.989  32.465  12.404
24138W        W96464  25.139  29.336  13.431
24139W        W96465  42.791  26.253  14.600
24140W        W96466  37.917  30.337  12.615
24141W        W96467   7.187  22.515   4.206
24142W        W96468  17.355  17.306   1.291
24143W        W96469  27.977  13.874  12.379
24144W        W96470  28.948  40.351  12.473
24145W        W96471  26.095  27.791  11.947
24146W        W96472  10.361   2.118   0.328
24147W        W96473  44.014   6.388  14.914
24148W        W96474  39.807   3.510   5.057
24149W        W96475  23.086   2.757  11.551
24150W        W96476   6.199  34.483   1.883
24151W        W96477  24.044  31.967  12.984
24152W        W96478  40.362  25.925   2.480
24153W        W96479  38.079  12.472   0.035
24154W        W96480  25.545  10.659  14.747
24155W        W96481  26.785  14.851  14.389
24156W        W96482  26.047  40.080  14.530
24157W        W96483   9.164  25.899   1.269
24158W        W96484   2.345  32.822   3.929
24159W        W96485  11.214   9.615  11.476
24160W        W96486  40.101  33.330   0.417
24161W        W96487   8.707  32.083   0.492
24162W        W96488  12.910   5.959  12.647
24163W        W96489  41.324  36.543  14.497
24164W        W96490  43.699   4.863  13.574
24165W        W96491   4.475  39.048  13.355
24166W        W96492  16.115  25.449   4.252
24167W        W96493  15.580  30.905   2.222
24168W        W96494   6.991  32.542  14.924
24169W        W96495   1.377  19.192   0.260
24170W        W96496  25.758  38.541  14.021
24171W        W96497  26.369  10.050  12.854
24172W        W96498  11.518  24.107   3.778
24173W        W96499   8.313  42.248  14.329
24174W        W96500  21.094  12.592   3.267
24175W        W96501  24.389   7.656  14.781
24176W        W96502  41.842   0.579   1.024
24177W        W96503  10.794  44.949  10.682
24178W        W96504  36.575   8.817  10.536
24179W        W96505  18.758   6.415   4.538
24180W        W96506  25.955  24.595   1.408
24181W        W96507  36.962  31.513   4.597
24182W        W96508  10.299   8.952  13.353
24183W        W96509  39.984  30.673  10.671
24184W        W96510  21.068  39.367   4.084
24185W        W96511  29.771   9.624   1.866
24186W        W96512   7.277  34.415  11.575
24187W        W96513  22.563  13.901  11.947
24188W        W96514  29.726  29.927  13.028
24189W        W96515  24.668   6.277  12.051
24190W        W96516   9.759  27.044   3.571
24191W        W96517  17.201   6.128  10.799
24192W        W96518  24.168  30.891   0.801
24193W        W96519  32.200   2.811   0.302
24194W        W96520  40.534  43.585  14.346
24195W        W96521  14.749  20.731  13.101
24196W        W96522   1.175  26.116   1.334
24197W        W96523  30.639  23.417  13.009
24198W        W96524  44.293   6.976   0.306
24199W        W96525   7.411  42.441   0.781
24200W        W96526  41.376   6.288   3.288
24201W        W96527  35.778  22.710  10.758
24202W        W96528  14.108  26.087   5.074
24203W        W96529  31.585   7.768  12.347
24204W        W96530  22.556   5.697  12.854
24205W        W96531   4.653  25.121   0.785
24206W        W96532  13.748  29.492   3.222
24207W        W96533   4.810  37.959  10.581
24208W        W96534  28.876  15.866   1.384
24209W        W96535  32.077  35.982  14.700
24210W        W96536  34.335  23.759   0.293
24211W        W96537  23.527   7.226  10.766
24212W        W96538   9.346  35.523  12.100
24213W        W96539  39.849  17.065  11.596
24214W        W96540  21.453  42.000  13.897
24215W        W96541  39.222  12.689   1.389
24216W        W96542  17.990  22.084   4.310
24217W        W96543   1.156   7.471   2.317
24218W        W96544  13.666   3.698   4.448
24219W        W96545  36.940  12.384   0.689
24220W        W96546  44.710   1.851  14.217
24221W        W96547   3.023  15.139  12.940
24222W        W96548  22.026  44.405   2.779
24223W        W96549   1.443  40.737  11.889
24224W        W96550  34.936  39.588  10.641
24225W        W96551   1.308  29.160  13.417
24226W        W96552  36.560   3.358   3.228
24227W        W96553   0.932  22.507  11.290
24228W        W96554  15.524  34.010   3.582
24229W        W96555   4.260  14.632  12.873
24230W        W96556  15.812  31.587  11.542
24231W        W96557  34.107  42.663   0.690
24232W        W96558  33.054  44.290   2.157
24233W        W96559  40.915  19.525   2.328
24234W        W96560  26.966   4.881  13.330
24235W        W96561   3.310  34.548  12.392
24236W        W96562   0.688   9.677  12.998
24237W        W96563  17.517  36.388   3.707
24238W        W96564  33.570  27.910  12.980
24239W        W96565  17.167  33.581  13.984
24240W        W96566  15.011  30.638   0.498
24241W        W96567  32.467  15.783  12.995
24242W        W96568  20.112  31.849  12.055
24243W        W96569  15.390  12.134  13.383
24244W        W96570  43.761  43.805  12.051
24245W        W96571  16.619  10.122   4.229
24246W        W96572  33.610  17.260   1.141
24247W        W96573  23.686  44.508   4.591
24248W        W96574  15.300  43.726  14.402
24249W        W96575  25.984   8.842   2.559
24250W        W96576  42.856  18.556   4.852
24251W        W96577   7.765  34.953   2.631
24252W        W96578  37.337  24.135  12.171
24253W        W96579  22.885  38.910  10.430
24254W        W96580  23.480  14.303   1.697
24255W        W96581  41.781  39.833  11.847
24256W        W96582  11.081  40.389  13.851
24257W        W96583  37.896   5.354   4.643
24258W        W96584  10.623  32.887  13.244
24259W        W96585  16.076  19.798  14.730
24260W        W96586  19.142  36.400  10.340
24261W        W96587  28.665  15.058  11.789
24262W        W96588  19.248  32.314  14.415
24263W        W96589   2.512   2.283   0.825
24264W        W96590  16.224  28.708   4.542
24265W        W96591  28.900  35.530   3.723
24266W        W96592  43.551   7.761   2.180
24267W        W96593  19.099  11.942  13.851
24268W        W96594  30.021  44.641  12.588
24269W        W96595   7.183  18.204   2.137
24270W        W96596  12.299  24.756   0.956
24271W        W96597  33.523  29.096  13.824
24272W        W96598  23.079  42.258   2.459
24273W        W96599   6.248   8.909  11.105
24274W        W96600  18.172  15.927   2.322
24275W        W96601  37.604   0.324  10.710
24276W        W96602  33.619  33.575  13.872
24277W        W96603   1.642  19.242  13.615
24278W        W96604   2.278  32.037   4.943
24279W        W96605  26.652   7.181   4.634
24280W        W96606   7.795  13.338  13.058
24281W        W96607   2.935  10.125  12.069
24282W        W96608  12.389  37.409  10.954
24283W        W96609  11.583  10.711  10.155
24284W        W96610  26.046  22.785   0.754
24285W        W96611  31.509  43.601  13.771
24286W        W96612  43.715  15.972  12.055
24287W        W96613  28.155  25.100  11.128
24288W        W96614  10.183  43.358  12.521
24289W        W96615  36.044  10.959   4.183
24290W        W96616   1.533  20.486   3.332
24291W        W96617  44.364   5.200  10.603
24292W        W96618  26.059  19.856   3.701
24293W        W96619  22.745   3.339  11.193
24294W        W96620  36.394  44.524   3.221
24295W        W96621  19.382  25.604  14.240
24296W        W96622   0.504  12.288   4.214
24297W        W96623  19.768  11.809   3.608
24298W        W96624   9.628  27.240   0.101
24299W        W96625  11.651  33.899   4.572
24300W        W96626  32.440  13.815  13.404
24301W        W96627   4.735  17.091  12.075
24302W        W96628  27.720  40.534  13.606
24303W        W96629  22.331   1.719   2.287
24304W        W96630  24.081  22.533  12.716
24305W        W96631  12.127  41.674   1.409
24306W        W96632  16.834  18.173   4.111
24307W        W96633   2.878   9.411  14.803
24308W        W96634  20.436  41.575  14.973
24309W        W96635  15.008  18.086   2.758
24310W        W96636  23.288  41.492   0.178
24311W        W96637  26.351  10.844  13.058
24312W        W96638  13.453  24.573   4.557
24313W        W96639   3.792   5.636  12.834
24314W        W96640  15.137  20.517   0.770
24315W        W96641  15.003  11.793   4.086
24316W        W96642   5.200  28.064   0.286
24317W        W96643  13.831  29.892  12.617
24318W        W96644  20.788   2.580   3.568
24319W        W96645   8.923   9.816  14.031
24320W        W96646  37.939  21.020  12.056
24321W        W96647  10.860  16.310   3.640
24322W        W96648  38.531  20.648  13.032
24323W        W96649  17.068  30.864  13.413
24324W        W96650   8.120  35.923  12.291
24325W        W96651  17.017  19.884  11.444
24326W        W96652  32.904  19.269   0.291
24327W        W96653  27.059  25.037  11.536
24328W        W96654  27.695  16.329  13.640
24329W        W96655  34.527  33.607  12.401
24330W        W96656  33.560  19.314  11.654
24331W        W96657  12.522  42.022  10.789
24332W        W96658   5.455  37.855  12.460
24333W        W96659  32.586  13.165   1.762
24334W        W96660  27.678  22.558  10.555
24335W        W96661   1.184  26.490   0.342
24336W        W96662  43.515   0.374   3.252
24337W        W96663  19.188  14.482   3.278
24338W        W96664  36.977  29.419  12.859
24339W        W96665   2.406   1.552  11.149
24340W        W96666  29.582   0.491   1.561
24341W        W96667  19.337  10.223   1.906
24342W        W96668   7.779  36.606   2.230
24343W        W96669   8.805  11.082   4.175
24344W        W96670  38.328  19.090   3.919
24345W        W96671  38.070  44.290   1.503
24346W        W96672  15.093  44.079   1.778
24347W        W96673  32.137  19.290  14.336
24348W        W96674  10.851  25.928  13.085
24349W        W96675  35.079  31.027  14.882
24350W        W96676  16.553   3.940  11.229
24351W        W96677  33.598  30.951  11.252
24352W        W96678  37.003   6.911  11.574
24353W        W96679  28.604  20.356   2.223
24354W        W96680  30.987  40.279   3.664
24355W        W96681  40.748  33.504  11.983
24356W        W96682  22.065  22.453  11.889
24357W        W96683  10.534  16.845   3.099
24358W        W96684  16.391   9.825  14.049
24359W        W96685  28.976  20.671  10.714
24360W        W96686  30.165  29.628   0.656
24361W        W96687  31.528  28.082   4.555
24362W        W96688  25.127  18.221   0.319
24363W        W96689  31.956  23.662   4.604
24364W        W96690  23.024  42.008   4.643
24365W        W96691  18.075  12.378  11.891
24366W        W96692  15.370   5.204   4.064
24367W        W96693  11.366  23.743  11.421
24368W        W96694  11.299  16.174  14.941
24369W        W96695   1.627  18.752   5.105
24370W        W96696  12.105   9.903   1.689
24371W        W96697  10.326  13.695  13.300
24372W        W96698  24.654  35.987  11.659
24373W        W96699  28.015  22.410   1.040
24374W        W96700  34.359  44.727   2.861
24375W        W96701  25.134  24.588  12.370
24376W        W96702  23.775   2.865  10.624
24377W        W96703   2.454  40.626   4.181
24378W        W96704  16.261  43.815  13.751
24379W        W96705  29.928  16.992  14.472
24380W        W96706  16.510  39.821  14.956
24381W        W96707  12.102  13.045   4.202
24382W        W96708  21.461  40.036  11.452
24383W        W96709  28.298  26.980  13.651
24384W        W96710  23.707  26.699   4.509
24385W        W96711  30.847  44.601  13.532
24386W        W96712  27.767  17.653  12.996
24387W        W96713  29.950  38.246   0.413
24388W        W96714  33.075  14.672   3.897
24389W        W96715  33.522   1.314   4.912
24390W        W96716  33.462  18.724  13.872
24391W        W96717  14.083  35.570   0.278
24392W        W96718  21.030  43.024   1.442
24393W        W96719  32.941  32.945   1.004
24394W        W96720  30.602  20.617   0.431
24395W        W96721  24.070  22.062  12.554
24396W        W96722   6.336  22.121  10.902
24397W        W96723  33.434   1.994  13.038
24398W        W96724  29.000  13.603  11.641
24399W        W96725  21.633  15.899  11.584
24400W        W96726   1.696  11.193   5.325
24401W        W96727  13.323   2.681  14.904
24402W        W96728  28.373  39.531   0.863
24403W        W96729  36.424  18.023   4.885
24404W        W96730  29.126  18.607   1.016
24405W        W96731   7.416  22.808   4.592
24406W        W96732  34.899  41.068   3.731
24407W        W96733  37.064  19.522  11.214
24408W        W96734  38.916  35.401  13.879
24409W        W96735  17.033   4.789   3.239
24410W        W96736  25.583  20.128   1.912
24411W        W96737  35.499   3.801  10.748
24412W        W96738   9.790   9.763   2.638
24413W        W96739  38.659  35.476  14.572
24414W        W96740  18.709  18.472   1.954
24415W        W96741  13.354  12.806   0.231
24416W        W96742  15.756  27.200  14.481
24417W        W96743  17.416  33.963  10.628
24418W        W96744   3.224  37.749   1.492
24419W        W96745  19.681   1.492   1.836
24420W        W96746   8.691   4.968   4.940
24421W        W96747  18.800  29.628   4.505
24422W        W96748  22.507  28.668  10.709
24423W        W96749   5.707  15.133   0.890
24424W        W96750  22.403  16.261  14.602
24425W        W96751  43.752  33.955  12.097
24426W        W96752  41.824  10.009   3.279
24427W        W96753  26.894  26.336  12.405
24428W        W96754  40.060  22.484  13.097
24429W        W96755  32.144   5.369   0.810
24430W        W96756  41.343   7.786  12.363
24431W        W96757  26.685  21.738   3.495
24432W        W96758  32.145  27.546  13.284
24433W        W96759   1.816  33.387   2.756
24434W        W96760   9.830  27.354   2.977
24435W        W96761  27.592  39.933   0.858
24436W        W96762   1.528  44.042   1.043
24437W        W96763  18.893  16.132  13.034
24438W        W96764  38.647   3.276   4.222
24439W        W96765  39.142  19.540   2.688
24440W        W96766  40.825  15.638   0.820
24441W        W96767  27.421  37.899   2.209
24442W        W96768  38.646  13.375  14.299
24443W        W96769  22.607  14.074  14.373
24444W        W96770  26.677  28.515  10.644
24445W        W96771   8.013  36.198   0.945
24446W        W96772  40.737  31.903  11.284
24447W        W96773  14.609  39.823   1.929
24448W        W96774   4.924  24.661   0.849
24449W        W96775  36.732  12.721   0.340
24450W        W96776  12.490  24.973  14.929
24451W        W96777  41.817  36.321  11.679
24452W        W96778   1.374  15.686   4.197
24453W        W96779  29.640  32.374  13.001
24454W        W96780  38.248   2.976   2.628
24455W        W96781  29.430  24.749  13.054
24456W        W96782  25.680   2.814   3.207
24457W        W96783  43.350  35.743  10.942
24458W        W96784  31.595  36.397  14.547
24459W        W96785  19.796  44.487  14.367
24460W        W96786   5.196  27.005   0.904
24461W        W96787  22.036  36.113   2.659
24462W        W96788  32.425   5.215  11.123
24463W        W96789  31.202  35.773  10.270
24464W        W96790  41.353  38.734  12.193
24465W        W96791  32.618  22.623   0.580
24466W        W96792  35.529  28.848   1.899
24467W        W96793  22.519   1.781  13.753
24468W        W96794  27.545  25.957   9.599
24469W        W96795  17.017  26.592  13.962
24470W        W96796  41.921  28.480   3.332
24471W        W96797  21.244  11.561  11.873
24472W        W96798  29.683  37.112   1.217
24473W        W96799  29.335  20.007   1.899
24474W        W96800  34.943   4.476   1.299
24475W        W96801   6.882  18.747   4.628
24476W        W96802  44.412   6.471  11.493
24477W        W96803   0.214  27.127  11.639
24478W        W96804   3.714  30.874  11.013
24479W        W96805   5.268  34.735  10.760
24480W        W96806   7.245  28.176  12.850
24481W        W96807  40.329  22.002  12.056
24482W        W96808  27.054  22.797   0.883
24483W        W96809  22.540   4.794  13.357
24484W        W96810  17.979  20.920   3.698
24485W        W96811  10.683  27.949   3.132
24486W        W96812  38.038  11.798   1.247
24487W        W96813   2.106  24.716  12.060
24488W        W96814  43.503  31.574  11.507
24489W        W96815  36.155  21.671   0.899
24490W        W96816  13.403   6.362   2.810
24491W        W96817  39.355  38.695   0.682
24492W        W96818   5.918  22.780   4.575
24493W        W96819  19.112  28.201   4.722
24494W        W96820  21.778  12.724   2.305
24495W        W96821  44.089  36.989   2.764
24496W        W96822  17.166  29.058   2.179
24497W        W96823  31.637  13.905   2.380
24498W        W96824   1.848  35.567   1.954
24499W        W96825   5.211  13.719  12.924
24500W        W96826  12.587  42.255   2.335
24501W        W96827  39.041  15.703   3.157
24502W        W96828   3.934  37.489   2.565
24503W        W96829  37.330  11.875  12.576
24504W        W96830  28.707  22.072  13.442
24505W        W96831  21.120  20.228  13.266
24506W        W96832  23.199  11.786   0.906
24507W        W96833  19.655  15.519  11.596
24508W        W96834  25.081   3.258   2.449
24509W        W96835  35.975  30.683  14.298
24510W        W96836  18.290  35.094  13.417
24511W        W96837  43.304  13.809  13.940
24512W        W96838  17.149   9.262  12.018
24513W        W96839  36.604  13.760  13.065
24514W        W96840  10.652  42.269  12.203
24515W        W96841  37.498  22.356  11.550
24516W        W96842   3.933  12.756  11.319
24517W        W96843  33.578  32.434  14.504
24518W        W96844  20.322  37.888   4.659
24519W        W96845   7.074  13.389   2.558
24520W        W96846  42.418  21.176  10.609
24521W        W96847  44.821  23.951   1.329
24522W        W96848  26.403  34.137   4.164
24523W        W96849  27.933  10.078   0.080
24524W        W96850  19.170   8.610   3.677
24525W        W96851  33.222  23.756   4.480
24526W        W96852  16.840  28.251   2.363
24527W        W96853   4.938  38.629  12.023
24528W        W96854   4.674  22.162  12.845
24529W        W96855  12.826  18.521  10.734
24530W        W96856  18.107   3.982  10.917
24531W        W96857  30.640  30.425   0.367
24532W        W96858  40.962  12.737  14.481
24533W        W96859  40.545  35.067   0.275
24534W        W96860  36.414  27.470  14.969
24535W        W96861   6.802  24.852   4.519
24536W        W96862  30.663   6.839  11.510
24537W        W96863  39.510  32.694  10.355
24538W        W96864  25.027  21.953  10.609
24539W        W96865  38.865   9.890  12.642
24540W        W96866  14.068  14.339  14.563
24541W        W96867  14.249  21.560  13.201
24542W        W96868  18.267  29.202   1.421
24543W        W96869   7.295  11.412   4.169
24544W        W96870  28.252  23.405   0.553
24545W        W96871  31.985  43.557  11.664
24546W        W96872  35.920  28.869   4.862
24547W        W96873  35.881  21.296   1.745
24548W        W96874  30.665  22.063  12.361
24549W        W96875  39.142  33.206  14.571
24550W        W96876  24.190  42.286  14.332
24551W        W96877  39.278  27.591   1.443
24552W        W96878   4.753  16.498   1.144
24553W        W96879  35.117  34.137   0.494
24554W        W96880  25.709  36.917   0.837
24555W        W96881   1.384   0.259   4.600
24556W        W96882  31.527  31.029   0.664
24557W        W96883   3.275  11.614  14.343
24558W        W96884  20.348   0.411   3.401
24559W        W96885  26.528  25.532  13.346
24560W        W96886   9.212  26.556   3.127
24561W        W96887  13.684  18.158  12.307
24562W        W96888  32.471  16.864   4.175
24563W        W96889  36.547   8.935  12.860
24564W        W96890   3.163  29.449  14.289
24565W        W96891  21.651  30.188   4.751
24566W        W96892   5.786  10.111  10.460
24567W        W96893  11.058  30.069   2.717
24568W        W96894   1.387  15.085   1.127
24569W        W96895  41.502  16.244   3.295
24570W        W96896  31.560  22.203   3.292
24571W        W96897  16.864   1.721  14.663
24572W        W96898  29.626  19.412  14.339
24573W        W96899  12.271  33.817  10.708
24574W        W96900   6.616  15.082   2.258
24575W        W96901   2.788  17.172   0.982
24576W        W96902  17.773  26.691  10.562
24577W        W96903  22.497   9.763  12.804
24578W        W96904  23.953   1.751   0.420
24579W        W96905   0.725  25.987  12.216
24580W        W96906  28.302   1.687   2.119
24581W        W96907  17.457  13.217   9.939
24582W        W96908  33.413  39.900   4.381
24583W        W96909  23.021  13.332   1.814
24584W        W96910  32.034  42.018  11.787
24585W        W96911  27.193  10.776  10.611
24586W        W96912  18.701  22.057  14.370
24587W        W96913  42.476   1.214  11.593
24588W        W96914  24.010  23.590  14.375
24589W        W96915   8.486   6.960  12.157
24590W        W96916   1.422  21.381  11.148
24591W        W96917  44.520  34.096   0.356
24592W        W96918  19.274  43.502  11.868
24593W        W96919   2.464   3.703  11.543
24594W        W96920   1.821   7.526  12.976
24595W        W96921  18.014  13.749   1.898
24596W        W96922  26.140  21.994  11.915
24597W        W96923   2.730  14.045  11.977
24598W        W96924  42.427  42.951   1.277
24599W        W96925  34.109  17.150   0.995
24600W        W96926  38.092  43.206  10.734
24601W        W96927  18.782  18.864   3.862
24602W        W96928  10.225  27.696   1.738
24603W        W96929  41.123  17.163   3.154
24604W        W96930  42.235   0.503   0.730
24605W        W96931  41.928  10.585   4.665
24606W        W96932   0.807  25.698   0.563
24607W        W96933  42.717  24.036   0.971
24608W        W96934  39.433   0.954  13.371
24609W        W96935  27.088   7.882   1.800
24610W        W96936   6.729  11.635   0.250
24611W        W96937  37.935  30.719   3.220
24612W        W96938  21.163   9.151   3.212
24613W        W96939  20.936  24.357   0.474
24614W        W96940  25.333  37.335  12.547
24615W        W96941  24.037   4.485  12.808
24616W        W96942  39.642  22.542  11.564
24617W        W96943  10.787  28.562   2.252
24618W        W96944  36.180   8.678  11.602
24619W        W96945  14.842  32.629   1.296
24620W        W96946  39.010  24.562   1.406
24621W        W96947   5.412   8.178  14.466
24622W        W96948  22.604  12.154   0.847
24623W        W96949  42.055  16.129   4.760
24624W        W96950  17.330  42.838  11.697
24625W        W96951  29.678  36.005  10.681
24626W        W96952   1.946  39.846   2.926
24627W        W96953   1.883  25.756  13.042
24628W        W96954  44.995  33.453   3.268
24629W        W96955  15.506  13.324  14.954
24630W        W96956  38.018  42.409  14.457
24631W        W96957   4.551  22.655  12.983
24632W        W96958   8.116  34.655   2.838
24633W        W96959  21.045   4.350   1.330
24634W        W96960  10.387  17.549   2.276
24635W        W96961  30.409  32.225  13.493
24636W        W96962  25.187  41.850  11.589
24637W        W96963  41.297  13.894  13.095
24638W        W96964  15.741  34.079   0.944
24639W        W96965  33.554  35.137  11.970
24640W        W96966  31.630  14.889  11.696
24641W        W96967  27.425  26.166   4.144
24642W        W96968  39.266   8.292   3.874
24643W        W96969  26.665  28.045   0.037
24644W        W96970   5.925  15.116  12.458
24645W        W96971   2.878  17.600   4.169
24646W        W96972  19.717  16.465   3.419
24647W        W96973   2.448  33.897  14.875
24648W        W96974  24.518   5.801   1.308
24649W        W96975  42.435  42.832  11.555
24650W        W96976   6.721  33.618   2.458
24651W        W96977  25.114  43.303  12.642
24652W        W96978  41.083  31.857  11.648
24653W        W96979  18.625  34.328  11.086
24654W        W96980  13.667  16.274   2.086
24655W        W96981  21.664  20.285   2.392
24656W        W96982  26.778  17.165   2.817
24657W        W96983  43.472   5.996   0.181
24658W        W96984  32.611  17.070  14.324
24659W        W96985  18.328  43.826  11.035
24660W        W96986  43.823  29.916   3.843
24661W        W96987   5.695  14.305  12.387
24662W        W96988  23.454   9.860   2.807
24663W        W96989  15.897  17.458  13.554
24664W        W96990  31.375  35.115   2.653
24665W        W96991  16.126  37.902   2.396
24666W        W96992   2.660  22.949   5.249
24667W        W96993  12.848  44.802  12.842
24668W        W96994  14.293  41.330   2.742
24669W        W96995   9.396  39.984   4.539
24670W        W96996  22.923  44.364   0.041
24671W        W96997   9.659  29.461  12.146
24672W        W96998   4.690  19.395   2.422
24673W        W96999  44.982   5.894  14.980
24674W        W97000  24.227  12.994  11.436
24675W        W97001   7.667  23.685  14.082
24676W        W97002   3.791  39.888  13.351
24677W        W97003   2.920  16.612  11.054
24678W        W97004  42.035  37.154   2.133
24679W        W97005  14.069  40.017  13.737
24680W        W97006  14.699  11.684  12.382
24681W        W97007  40.223   7.695   0.036
24682W        W97008  42.317   3.694  12.126
24683W        W97009   6.178  41.990  14.416
24684W        W97010  26.445  40.340   1.937
24685W        W97011  17.619  14.586  11.502
24686W        W97012  17.631  10.167  10.606
24687W        W97013  35.365  32.083   1.287
24688W        W97014  11.575  25.641  12.734
24689W        W97015  40.369  24.488  12.574
24690W        W97016  30.853   3.667  14.306
24691W        W97017   7.769   1.709   0.727
24692W        W97018  32.329   7.864   4.741
24693W        W97019  28.895  20.722   0.845
24694W        W97020  26.077  14.042   4.136
24695W        W97021  24.970  40.668  11.856
24696W        W97022  37.785  33.513   2.846
24697W        W97023  32.131  39.936   1.619
24698W        W97024  13.274  43.115   1.678
24699W        W97025  33.949  14.259   1.296
24700W        W97026  36.835  10.631  12.581
24701W        W97027  27.020  42.553   3.156
24702W        W97028  14.884  26.692  11.561
24703W        W97029  37.557  36.962  14.286
24704W        W97030  28.113  27.538   0.851
24705W        W97031  29.510  30.006  12.338
24706W        W97032   4.433  22.664   9.680
24707W        W97033  28.723  44.037  11.026
24708W        W97034  32.123  19.469  11.533
24709W        W97035  30.484   8.718  11.324
24710W        W97036  16.543  20.683   3.380
24711W        W97037  14.549  40.335   1.852
24712W        W97038   9.666  19.766  14.369
24713W        W97039  14.139  42.387   2.841
24714W        W97040  12.200  29.600   4.754
24715W        W97041   3.272  39.425   1.218
24716W        W97042  16.819   5.798   3.585
24717W        W97043  13.327  23.121  14.410
24718W        W97044  35.361   6.707  14.235
24719W        W97045  37.348  38.426   0.980
24720W        W97046  16.029  11.829   2.802
24721W        W97047  40.798   0.373   3.214
24722W        W97048  38.494  24.008   3.410
24723W        W97049  30.088  22.778  10.612
24724W        W97050  21.275  42.510  11.357
24725W        W97051  24.572  20.711   2.240
24726W        W97052  44.857  41.479   0.758
24727W        W97053  42.274   2.713  14.000
24728W        W97054  34.534  32.591   0.458
24729W        W97055  17.890   3.913  11.402
24730W        W97056  26.182  34.606  11.559
24731W        W97057  12.848  41.400   0.969
24732W        W97058   4.323  19.474  11.104
24733W        W97059  28.399  30.426   0.776
24734W        W97060  25.454  10.104   0.981
24735W        W97061  44.433  15.220  10.552
24736W        W97062   2.208  38.104  10.947
24737W        W97063  28.069  31.726   0.251
24738W        W97064  35.674  15.928  11.942
24739W        W97065   3.719  35.070   1.830
24740W        W97066   9.661  41.358   4.717
24741W        W97067  24.321  42.900  12.406
24742W        W97068  24.622   6.349   0.942
24743W        W97069   8.778   1.195  10.384
24744W        W97070  17.794  37.534  10.892
24745W        W97071  17.688  41.920   2.396
24746W        W97072  40.791  10.271   4.010
24747W        W97073  29.987   2.243  10.700
24748W        W97074  20.678  28.066   4.803
24749W        W97075  38.483  20.586  14.752
24750W        W97076  38.750  24.282  11.126
24751W        W97077  11.394  24.049   0.345
24752W        W97078  43.854   5.224  11.410
24753W        W97079  25.363   7.175   1.749
24754W        W97080  39.392  31.642  11.985
24755W        W97081  17.521  18.066   2.520
24756W        W97082  15.178  27.276   2.643
24757W        W97083   1.740  14.940   2.306
24758W        W97084  33.297  29.466   3.223
24759W        W97085  32.246  34.364  13.184
24760W        W97086  34.516   0.498   4.198
24761W        W97087   7.830  30.430   0.138
24762W        W97088  18.831  12.237  11.034
24763W        W97089  23.275  39.233  13.475
24764W        W97090  10.767  34.883  11.081
24765W        W97091  40.358   2.668   2.877
24766W        W97092   6.835  27.207  14.348
24767W        W97093   0.794  30.502   1.672
24768W        W97094  34.075  32.095  11.544
24769W        W97095  11.635   9.819  14.452
24770W        W97096  29.550  27.662  11.738
24771W        W97097  21.596  35.604  11.120
24772W        W97098   5.365   8.646   0.860
24773W        W97099  33.416  34.206  11.008
24774W        W97100  12.790  40.258   0.355
24775W        W97101  16.737  18.970   2.676
24776W        W97102  32.048   8.263   3.666
24777W        W97103   1.721  17.812  13.528
24778W        W97104  19.018  27.536   4.595
24779W        W97105  34.071  18.331   0.146
24780W        W97106  42.031  12.240   1.269
24781W        W97107  19.166  27.494   4.000
24782W        W97108  30.863  21.560  12.965
24783W        W97109   3.858  25.004   1.250
24784W        W97110  30.970  18.081   2.787
24785W        W97111   7.983  18.181   0.957
24786W        W97112  42.000  36.508  13.903
24787W        W97113   8.920  28.558  10.541
24788W        W97114  23.028  15.089   2.193
24789W        W97115   3.033   4.230   3.356
24790W        W97116  36.252  30.815   4.964
24791W        W97117  24.795  24.789  11.176
24792W        W97118  34.421  16.007  11.653
24793W        W97119   4.928  12.706   4.845
24794W        W97120   6.655  32.235   2.908
24795W        W97121  18.722  28.501  13.394
24796W        W97122   8.389  11.724   2.839
24797W        W97123  10.047  39.884   1.367
24798W        W97124  25.792  44.618  14.014
24799W        W97125  10.307  16.037  12.825
24800W        W97126  23.111  34.459  13.042
24801W        W97127  11.254   7.364   4.622
24802W        W97128  35.090  27.533   4.218
24803W        W97129  34.432  15.303  12.898
24804W        W97130  15.586  40.006   0.930
24805W        W97131   6.368   8.754  14.415
24806W        W97132  36.836   3.436   1.387
24807W        W97133  15.434   4.256   2.213
24808W        W97134  13.632  11.846   1.447
24809W        W97135  12.250  41.835   4.544
24810W        W97136   8.238  14.579   2.179
24811W        W97137  34.164  21.103   0.322
24812W        W97138   6.535  16.087  12.205
24813W        W97139  30.056   4.383   0.930
24814W        W97140  44.852   4.617   2.700
24815W        W97141  41.450   1.570  11.546
24816W        W97142  32.550  35.120  12.854
24817W        W97143  29.680   0.991   0.784
24818W        W97144   2.208  27.037  14.522
24819W        W97145  39.999  17.826  13.244
24820W        W97146  30.209  43.686  14.333
24821W        W97147   1.864  32.488   3.176
24822W        W97148  34.837  12.855   5.050
24823W        W97149   6.247  12.300   1.890
24824W        W97150  16.560  42.349   1.448
24825W        W97151  10.589  13.815  13.752
24826W        W97152   7.461  10.603  14.876
24827W        W97153   1.256  29.387  12.070
24828W        W97154   4.849   4.874   5.062
24829W        W97155  44.374   3.162   1.698
24830W        W97156  25.085  18.775  13.311
24831W        W97157  16.078  37.011  12.458
24832W        W97158   2.002  41.287  12.086
24833W        W97159  41.989  28.835  10.945
24834W        W97160  33.212   9.227   1.713
24835W        W97161  16.801  19.056   1.169
24836W        W97162  40.528  11.170   3.929
24837W        W97163   5.585  30.313   2.146
24838W        W97164   1.942  23.472  14.357
24839W        W97165  11.391  19.751  12.291
24840W        W97166  37.882   5.966   2.192
24841W        W97167  16.605  12.663   1.336
24842W        W97168  26.553  42.195  11.605
24843W        W97169  25.219   4.604  11.439
24844W        W97170  36.527  37.880   0.927
24845W        W97171  33.834  36.509   2.634
24846W        W97172   8.140   9.835  13.338
24847W        W97173  32.574  37.022   2.439
24848W        W97174  27.767  13.145  10.693
24849W        W97175   0.184  26.673   4.258
24850W        W97176   9.152  24.211   2.936
24851W        W97177  15.635  32.057   2.254
24852W        W97178  43.964  29.159   3.077
24853W        W97179   0.869  44.825  14.921
24854W        W97180  44.245  34.948   0.819
24855W        W97181  14.096  24.108  13.845
24856W        W97182   0.961  35.424  10.957
24857W        W97183   6.928  26.628   2.306
24858W        W97184  36.254  27.154   3.573
24859W        W97185  21.909  41.556  12.845
24860W        W97186  28.687  24.126   1.653
24861W        W97187  31.643  42.287   2.351
24862W        W97188  24.237  41.761   2.351
24863W        W97189  15.328   2.032  12.039
24864W        W97190   2.512   2.928   1.288
24865W        W97191  28.496  23.494   4.185
24866W        W97192   9.914   2.837  13.557
24867W        W97193  25.494  33.011   1.450
24868W        W97194   5.902  13.117  10.705
24869W        W97195  11.626  29.018  13.483
24870W        W97196  11.915  32.685  13.391
24871W        W97197   1.399  11.406   3.858
24872W        W97198   2.831  41.371   0.291
24873W        W97199  42.911  36.378  13.910
24874W        W97200  14.176  11.833  12.470
24875W        W97201  23.549  19.342  13.954
24876W        W97202  30.186   0.930   3.670
24877W        W97203  19.920  35.077   0.489
24878W        W97204  30.904   4.822  14.777
24879W        W97205  29.668  13.593   2.791
24880W        W97206  24.481  38.612  13.089
24881W        W97207  35.000  21.564   3.349
24882W        W97208  19.677   6.595   4.709
24883W        W97209  36.061  32.542  12.844
24884W        W97210   6.152  38.030   2.286
24885W        W97211  36.339  44.864  13.387
24886W        W97212  31.363   4.338   1.351
24887W        W97213   8.020  17.822  12.049
24888W        W97214  31.168   0.932  12.760
24889W        W97215  39.898  14.194   0.421
24890W        W97216  37.295   5.830   1.271
24891W        W97217  28.031   9.220   4.912
24892W        W97218  26.618  28.469   0.373
24893W        W97219   1.185  32.061   0.339
24894W        W97220  41.080  38.052  13.044
24895W        W97221  36.955   0.865   4.532
24896W        W97222   1.012  32.960  13.435
24897W        W97223  29.519  30.548   1.950
24898W        W97224  18.082  14.366  11.587
24899W        W97225   4.383  34.299  10.709
24900W        W97226  25.949  28.916   4.167
24901W        W97227  37.007   7.350   2.648
24902W        W97228  21.971  24.908  13.932
24903W        W97229  13.234  37.883  14.953
24904W        W97230   9.300   4.505   1.202
24905W        W97231   8.824  34.975   2.308
24906W        W97232   0.021  30.654   1.309
24907W        W97233   0.691  35.084  10.640
24908W        W97234  38.739  39.389  12.900
24909W        W97235  16.367  31.089  12.624
24910W        W97236   8.274  20.338   3.151
24911W        W97237  15.917  21.934  13.495
24912W        W97238  32.029  23.948   5.124
24913W        W97239  16.090   6.789   0.963
24914W        W97240  26.151  30.637  14.545
24915W        W97241  26.053  41.589   1.858
24916W        W97242   1.873  33.229  12.005
24917W        W97243  29.929  33.171  11.150
24918W        W97244   4.701  32.957  12.956
24919W        W97245   5.862   7.635   0.007
24920W        W97246  40.020   0.285  14.506
24921W        W97247  37.404  22.479  12.661
24922W        W97248  15.663  14.816  12.987
24923W        W97249  26.449   7.891   2.774
24924W        W97250   7.270  27.512   2.454
24925W        W97251   0.726  43.797   1.342
24926W        W97252   0.281  37.750   2.699
24927W        W97253  23.447  15.201  14.068
24928W        W97254  30.049   5.529  13.106
24929W        W97255  33.384  30.097  12.365
24930W        W97256  26.881  32.000   4.558
24931W        W97257  41.577  24.246   2.287
24932W        W97258  19.558  31.538  12.376
24933W        W97259   1.246  21.413   1.729
24934W        W97260  39.153  21.299  12.031
24935W        W97261  10.388  16.866  13.972
24936W        W97262  26.050  29.592  12.185
24937W        W97263  31.846   5.200   2.660
24938W        W97264  42.222   0.760   1.655
24939W        W97265  42.102  40.059  13.496
24940W        W97266  33.061   3.104   1.856
24941W        W97267  30.477  11.177  12.941
24942W        W97268  13.278  32.079  12.014
24943W        W97269   6.131  26.895   4.189
24944W        W97270  44.454  17.547  13.913
24945W        W97271  33.064   6.251   1.671
24946W        W97272  19.185  19.243  13.123
24947W        W97273  28.450  18.574   1.890
24948W        W97274  25.723  24.760  11.528
24949W        W97275   8.157   0.979   1.755
24950W        W97276   8.240  13.797   1.658
24951W        W97277  21.617   5.741  14.537
24952W        W97278   6.428  29.623   3.252
24953W        W97279   4.749  26.579  11.716
24954W        W97280  11.200  39.480   4.630
24955W        W97281  30.580   7.781  11.779
24956W        W97282  29.159   3.625   3.741
24957W        W97283  24.154  17.879   1.550
24958W        W97284  39.854  39.942   3.211
24959W        W97285  38.394   8.998   1.065
24960W        W97286   3.060   8.291   2.967
24961W        W97287   3.645   4.996   2.826
24962W        W97288  38.086  17.634   4.904
24963W        W97289   1.024  35.945   4.681
24964W        W97290  43.832  34.124   2.932
24965W        W97291  43.834  34.961  10.597
24966W        W97292   5.397   2.551  10.849
24967W        W97293  40.380   2.347   0.418
24968W        W97294  29.921  40.831   2.700
24969W        W97295   5.823  40.016  13.497
24970W        W97296  20.921  19.170  12.646
24971W        W97297  15.361   4.032  10.642
24972W        W97298   4.897  33.436  14.850
24973W        W97299  16.162   7.896  13.865
24974W        W97300  19.943  15.146   2.378
24975W        W97301  15.107  36.965   3.006
24976W        W97302   9.443  13.205  10.685
24977W        W97303  24.139  31.322  10.498
24978W        W97304   3.947  33.051  14.731
24979W        W97305  39.096  16.135   1.262
24980W        W97306  36.926  41.967  11.820
24981W        W97307  43.395  13.952  12.735
24982W        W97308   8.208  19.038   3.512
24983W        W97309  22.538  39.875   4.288
24984W        W97310  16.897   8.672   1.456
24985W        W97311   8.702   7.755  14.244
24986W        W97312   9.118  19.827   3.273
24987W        W97313  32.808  33.800   2.868
24988W        W97314   7.924  24.685  14.979
24989W        W97315  11.734  18.280   4.802
24990W        W97316  17.508  11.212   0.022
24991W        W97317   0.022  35.054  12.048
24992W        W97318  30.028   4.368   1.845
24993W        W97319  12.380   7.590   2.147
24994W        W97320   3.740  37.990   4.644
24995W        W97321  36.610  40.586  10.704
24996W        W97322  12.795  14.627   3.663
24997W        W97323  44.887   1.976   1.924
24998W        W97324   0.569  29.492   0.759
24999W        W97325  18.546  23.021   0.263
25000W        W97326  32.404   3.904   2.865
25001W        W97327  30.602   3.647   2.042
25002W        W97328  13.937  44.935  14.880
25003W        W97329  10.386  24.180   4.490
25004W        W97330  11.714   8.828  11.649
25005W        W97331  17.286  17.680  10.987
25006W        W97332  27.777  28.049   2.798
25007W        W97333  32.362  28.208   4.271
25008W        W97334  10.230  15.053   4.082
25009W        W97335  19.281  38.994   0.133
25010W        W97336  26.325  42.383  13.438
25011W        W97337  33.006  15.916   1.816
25012W        W97338  35.112  44.733   0.358
25013W        W97339  44.995  18.349  12.035
25014W        W97340   0.095   3.630  11.017
25015W        W97341   8.322   7.884  13.293
25016W        W97342  28.220   8.085  11.655
25017W        W97343   9.927  41.976   0.681
25018W        W97344  22.526   2.856  12.072
25019W        W97345  14.948  43.477   2.865
25020W        W97346  15.519  19.914   1.490
25021W        W97347  20.255  13.092   1.189
25022W        W97348  38.057  23.446   1.339
25023W        W97349   5.000  20.871  11.002
25024W        W97350  42.930  20.051  11.822
25025W        W97351  36.114  14.304   1.731
25026W        W97352   8.702  22.472   4.578
25027W        W97353  25.774   3.430   1.222
25028W        W97354  23.556  28.930  14.891
25029W        W97355  15.581  44.346   1.687
25030W        W97356  38.799   4.419  13.015
25031W        W97357  32.313  20.575   4.136
25032W        W97358  29.458  41.040   0.765
25033W        W97359  27.660  10.275   1.442
25034W        W97360  42.793  38.331  11.694
25035W        W97361  34.297  29.187   2.413
25036W        W97362   3.225  29.740   3.668
25037W        W97363  10.203   4.655  10.833
25038W        W97364   9.810  31.610   3.177
25039W        W97365  13.802  31.842  10.934
25040W        W97366  13.119  30.997   1.922
25041W        W97367  39.025  18.954   1.977
25042W        W97368  27.457   0.298  11.976
25043W        W97369  41.188  28.327  11.656
25044W        W97370   2.467   5.430   1.807
25045W        W97371  15.556  16.087   4.553
25046W        W97372  36.564  35.430   3.127
25047W        W97373  28.653   2.024  12.510
25048W        W97374  23.491  16.735   3.219
25049W        W97375  44.554  37.044  13.304
25050W        W97376  12.703  19.084  11.603
25051W        W97377   0.743  26.224  14.059
25052W        W97378  24.903  36.776  10.696
25053W        W97379  12.134  36.532  10.669
25054W        W97380   8.458   0.901   2.662
25055W        W97381  20.470  32.006  10.747
25056W        W97382   9.442  34.730  10.677
25057W        W97383  17.608  36.415  11.898
25058W        W97384  34.253  27.382  13.874
25059W        W97385   6.710  38.742   3.232
25060W        W97386  17.045  19.918   4.516
25061W        W97387  41.559  10.768   4.355
25062W        W97388  44.615  35.854  10.203
25063W        W97389  44.372  24.664  14.086
25064W        W97390   0.060  16.601  14.298
25065W        W97391  37.820  30.013  13.459
25066W        W97392  42.827  43.331  13.098
25067W        W97393   3.712   1.688  10.716
25068W        W97394  20.473  29.449  11.779
25069W        W97395   9.078  22.890  14.876
25070W        W97396  20.300  11.124  13.352
25071W        W97397  38.077  44.306   4.410
25072W        W97398  13.779   6.889  11.151
25073W        W97399   7.269  42.803  11.388
25074W        W97400  37.298  39.161   3.258
25075W        W97401   6.613  43.366  12.319
25076W        W97402  36.744  28.298   4.231
25077W        W97403  27.735  23.648   3.696
25078W        W97404  14.624  37.097  12.900
25079W        W97405  26.547  20.267  11.797
25080W        W97406  12.763  15.540  13.388
25081W        W97407  32.122   4.394   4.706
25082W        W97408  27.043  25.114  13.000
25083W        W97409  14.016  37.818  10.614
25084W        W97410   2.659  17.031   4.823
25085W        W97411   6.181  20.772   3.762
25086W        W97412  34.328  10.464   0.382
25087W        W97413   0.273  11.721  12.506
25088W        W97414  20.944   2.134   0.965
25089W        W97415  22.625  12.210  11.948
25090W        W97416  27.183  18.329  10.698
25091W        W97417  19.069  34.072  13.992
25092W        W97418  12.362  27.507   0.260
25093W        W97419  35.239   8.469   3.294
25094W        W97420  31.947  23.098  13.932
25095W        W97421  11.744  17.093   2.604
25096W        W97422   1.780  23.103  12.439
25097W        W97423  36.719  32.615  10.541
25098W        W97424  31.581   1.473  14.485
25099W        W97425  28.105   2.337  14.528
25100W        W97426  24.785   1.477  12.064
25101W        W97427  33.879  19.787  10.440
25102W        W97428   2.786  34.388  12.421
25103W        W97429  12.287  35.924   3.876
25104W        W97430  40.492  31.389  10.658
25105W        W97431  12.062  36.062   9.675
25106W        W97432  14.134   9.146   4.767
25107W        W97433  17.167  44.501  12.429
25108W        W97434  24.214  21.231  13.133
25109W        W97435  17.751  41.554  10.794
25110W        W97436  11.115  21.847  11.626
25111W        W97437  24.274  19.752  13.436
25112W        W97438  26.440  22.507  11.098
25113W        W97439   2.079  20.026  12.381
25114W        W97440  32.225  25.936  14.068
25115W        W97441  15.677  34.505   3.668
25116W        W97442  32.589  35.423   3.588
25117W        W97443  16.163  42.788   2.752
25118W        W97444   3.426  13.016   3.373
25119W        W97445  21.061  31.902  13.956
25120W        W97446  39.949  24.892  13.452
25121W        W97447  31.877  32.525   2.299
25122W        W97448  34.162  37.402   4.204
25123W        W97449  26.938  35.023   4.808
25124W        W97450  33.792  13.723   3.972
25125W        W97451  15.004  18.762  10.869
25126W        W97452   3.751  44.759   4.329
25127W        W97453  33.915  12.793  12.267
25128W        W97454   6.275  10.726   2.297
25129W        W97455  24.241  30.784  10.587
25130W        W97456  40.204  12.433  14.458
25131W        W97457   4.118   1.792   1.140
25132W        W97458  31.896  17.465   1.943
25133W        W97459  32.096  24.059  10.686
25134W        W97460  11.336  19.790   4.169
25135W        W97461  18.122  18.832  14.243
25136W        W97462  30.007  27.561   5.085
25137W        W97463   4.629  22.170   1.227
25138W        W97464  38.822   9.150  11.456
25139W        W97465   7.436  29.545   0.707
25140W        W97466  26.237  19.781   0.429
25141W        W97467   5.311  30.853   0.817
25142W        W97468  28.534   7.187  12.010
25143W        W97469  35.470  24.465  13.927
25144W        W97470  32.410  18.855   3.682
25145W        W97471  39.326  18.096   1.190
25146W        W97472  31.217  25.243  12.387
25147W        W97473   9.378  23.091   4.535
25148W        W97474  37.281  20.190   4.363
25149W        W97475  17.567  20.628   2.482
25150W        W97476  43.942   3.871  14.941
25151W        W97477  32.558  40.317   2.843
25152W        W97478  24.574   4.219  13.332
25153W        W97479   5.479  16.138   1.819
25154W        W97480  38.047  22.467  13.944
25155W        W97481  42.528  27.011  11.988
25156W        W97482  26.878  35.083  14.685
25157W        W97483  18.305  17.011  13.381
25158W        W97484  40.832  16.009  11.534
25159W        W97485   2.779  28.551   1.694
25160W        W97486   5.389  10.830   0.053
25161W        W97487   7.183  39.034  11.000
25162W        W97488  39.256   9.297  10.680
25163W        W97489  32.533  26.222   2.696
25164W        W97490  20.262  38.050  10.451
25165W        W97491  23.907  15.431   3.741
25166W        W97492  42.247  29.606   1.304
25167W        W97493  38.991  42.720  11.601
25168W        W97494   3.875  11.118  12.044
25169W        W97495  24.190  11.588   0.999
25170W        W97496  14.724  36.794  12.465
25171W        W97497   3.267  15.614   1.895
25172W        W97498  42.497  38.656   3.240
25173W        W97499  19.011   2.815  11.057
25174W        W97500  30.583   0.535   2.898
25175W        W97501  11.956  15.057  11.133
25176W        W97502  19.350  10.733   4.084
25177W        W97503  18.058  22.408  12.906
25178W        W97504   2.969  17.264  12.503
25179W        W97505  12.236  28.428  13.422
25180W        W97506  29.684  29.898   1.399
25181W        W97507  20.072  33.479  13.526
25182W        W97508  18.242  33.638   1.864
25183W        W97509  20.548  32.574   0.940
25184W        W97510  11.540  16.527   3.368
25185W        W97511  27.751  26.719  14.181
25186W        W97512  36.478  40.879  14.830
25187W        W97513  33.622  13.224  12.194
25188W        W97514  37.964  14.741  14.883
25189W        W97515  37.301  14.836  11.071
25190W        W97516  10.728  43.779  12.081
25191W        W97517  41.362  28.234  14.010
25192W        W97518  24.369  15.650  14.960
25193W        W97519   8.850  38.545  12.969
25194W        W97520  36.979  26.536   2.245
25195W        W97521  40.714   0.053   2.078
25196W        W97522  20.733   5.813  11.620
25197W        W97523  31.865  27.592  11.084
25198W        W97524  10.707  22.040   1.863
25199W        W97525  30.914  40.914   2.294
25200W        W97526  18.702  11.386   0.298
25201W        W97527   4.880  40.419  10.386
25202W        W97528  20.198   2.775   0.515
25203W        W97529  10.796  23.489  14.539
25204W        W97530  44.936  15.671   4.417
25205W        W97531  31.640  37.157  12.796
25206W        W97532   0.833  29.099   2.462
25207W        W97533  15.119  15.904   4.153
25208W        W97534   8.030  35.023  13.741
25209W        W97535   6.789   3.992   4.368
25210W        W97536  21.909  28.012   1.909
25211W        W97537   8.756  23.989   2.693
25212W        W97538   3.342  32.457  11.933
25213W        W97539  18.659  26.384   2.852
25214W        W97540   9.824  11.822  10.818
25215W        W97541  30.551  29.616   1.004
25216W        W97542   2.847  34.486   1.040
25217W        W97543  19.699   1.233   2.269
25218W        W97544  12.129  21.226   0.258
25219W        W97545   7.187  28.633  12.622
25220W        W97546  20.642  22.275  14.064
25221W        W97547  11.797   8.224   3.593
25222W        W97548   9.419  15.527  14.985
25223W        W97549  12.325  38.341  11.535
25224W        W97550  29.508  21.222  11.278
25225W        W97551  24.507  12.666   2.248
25226W        W97552   7.855   4.075  11.642
25227W        W97553  39.177   4.233   0.407
25228W        W97554  14.088  40.561   3.152
25229W        W97555  31.470  39.747   4.171
25230W        W97556  37.446  39.448  12.514
25231W        W97557   0.453  13.845  13.644
25232W        W97558  16.604  25.143  11.073
25233W        W97559  12.346   1.948   4.044
25234W        W97560  28.039  11.837   0.405
25235W        W97561  19.475   8.253   1.738
25236W        W97562  38.912  33.446   4.633
25237W        W97563  40.544  30.933  12.578
25238W        W97564  26.216  12.361   1.450
25239W        W97565  39.040  35.168  11.196
25240W        W97566  31.111  41.905  14.331
25241W        W97567  38.316  18.213  13.377
25242W        W97568  14.011  21.038  10.078
25243W        W97569  40.877   4.205  13.421
25244W        W97570  17.872  19.679  14.205
25245W        W97571  33.539  38.094   1.524
25246W        W97572  38.367  16.607   3.880
25247W        W97573  24.156  29.508  12.579
25248W        W97574  34.135   0.524  12.368
25249W        W97575  36.977   3.678   4.221
25250W        W97576  29.064  27.477   2.642
25251W        W97577  32.778  38.823  11.909
25252W        W97578   1.319  29.654  12.527
25253W        W97579  19.318  37.096   0.620
25254W        W97580  17.130   8.709   4.362
25255W        W97581  35.098  28.201   0.631
25256W        W97582  10.059  44.442   0.946
25257W        W97583   9.382  24.341  14.648
25258W        W97584  21.026  29.594   0.887
25259W        W97585  33.136   5.766  10.674
25260W        W97586  20.477  19.676   3.147
25261W        W97587  20.794  32.035   3.745
25262W        W97588  25.277  11.334   1.399
25263W        W97589  19.634  29.541  11.912
25264W        W97590  24.818  18.815  14.770
25265W        W97591  29.562  33.523  11.286
25266W        W97592   9.421  29.926  13.306
25267W        W97593   0.568  38.599  12.932
25268W        W97594  35.209  23.654   2.744
25269W        W97595  24.050   4.819   2.845
25270W        W97596  29.555  12.274  12.893
25271W        W97597  22.907  34.784  14.254
25272W        W97598  40.933  31.113  10.603
25273W        W97599  11.715  35.978  10.031
25274W        W97600  10.802  37.870   1.783
25275W        W97601  34.431  16.713   0.922
25276W        W97602   4.920  25.276  11.275
25277W        W97603  41.777  17.623  14.409
25278W        W97604  11.596  27.089   1.732
25279W        W97605  22.569   6.389  11.226
25280W        W97606   8.079  11.138   0.348
25281W        W97607  26.648  26.605  10.369
25282W        W97608  44.509  35.373  10.037
25283W        W97609  41.011  37.502  11.394
25284W        W97610  42.380  10.649  13.466
25285W        W97611  44.083  20.859   0.251
25286W        W97612  27.908  42.769   2.311
25287W        W97613  38.283  26.217   2.838
25288W        W97614  18.188   0.422   1.081
25289W        W97615  26.083  28.020   0.379
25290W        W97616   8.893  12.398  10.472
25291W        W97617  30.439  20.046   4.848
25292W        W97618   9.617  17.954   1.752
25293W        W97619   5.952  44.302  11.537
25294W        W97620  12.200  36.563   5.538
25295W        W97621  38.617  10.794  11.982
25296W        W97622   1.747   6.183   3.576
25297W        W97623  19.085   9.338   0.183
25298W        W97624  31.324  36.849  14.522
25299W        W97625  36.483  22.050   0.659
25300W        W97626  27.543  11.113   3.679
25301W        W97627   5.695  17.800   4.154
25302W        W97628   1.846  10.792  14.537
25303W        W97629  11.185  38.405   2.791
25304W        W97630  31.136  41.345  10.079
25305W        W97631   3.170   3.222  11.533
25306W        W97632  42.259  40.348   0.407
25307W        W97633  34.319  33.121  11.607
25308W        W97634  27.259  35.735  13.477
25309W        W97635  32.358  22.896  14.734
25310W        W97636   5.934  23.660  14.548
25311W        W97637  33.956  32.082  10.674
25312W        W97638  26.437  37.101  14.095
25313W        W97639  13.161  39.291  11.215
25314W        W97640  14.916  40.063   5.090
25315W        W97641  41.895  33.045  12.523
25316W        W97642  31.637  36.520   4.951
25317W        W97643  13.985  39.302   3.598
25318W        W97644  37.896  38.012   1.246
25319W        W97645  31.814  27.196   4.566
25320W        W97646  19.669  44.109  12.874
25321W        W97647   2.825  36.973  12.832
25322W        W97648  36.033  11.111   2.582
25323W        W97649   4.974  37.529  10.344
25324W        W97650  14.410  40.401   0.061
25325W        W97651  11.371   1.162  13.379
25326W        W97652   6.094   6.354   1.152
25327W        W97653  24.548  22.114  10.631
25328W        W97654  27.100  10.352   0.289
25329W        W97655   8.427  25.115  13.811
25330W        W97656  13.127  31.796  13.476
25331W        W97657   8.622  28.174   4.139
25332W        W97658   6.821  43.503  11.317
25333W        W97659  39.234   0.827   4.893
25334W        W97660  39.991  37.342   4.091
25335W        W97661   4.210  20.606   0.800
25336W        W97662  16.540  34.053   1.148
25337W        W97663  34.315  28.023   4.220
25338W        W97664  43.778  30.313  12.557
25339W        W97665  16.568  40.846  12.563
25340W        W97666  16.726  33.504  14.859
25341W        W97667   9.201  20.706   3.778
25342W        W97668  30.406  29.540   1.502
25343W        W97669  23.516  23.751   0.897
25344W        W97670  38.302  20.120   0.774
25345W        W97671  12.166  10.324  12.113
25346W        W97672  44.559   6.249   0.800
25347W        W97673  16.059  11.381  11.590
25348W        W97674  33.795   4.300   2.161
25349W        W97675  23.640  43.700   4.099
25350W        W97676  33.670   7.261   0.878
25351W        W97677  14.753  29.962   0.025
25352W        W97678  23.052  13.688  14.901
25353W        W97679   8.299  40.946   4.086
25354W        W97680  35.149  36.212  11.134
25355W        W97681   9.181   1.185  11.440
25356W        W97682  13.265  17.691  11.697
25357W        W97683  29.615  33.528   1.712
25358W        W97684   4.584  25.092   1.717
25359W        W97685  27.430  14.741   1.377
25360W        W97686  16.059   0.478  11.185
25361W        W97687   2.148   8.917   2.916
25362W        W97688  36.107  35.986   2.384
25363W        W97689  25.732   8.375  12.559
25364W        W97690   2.361  30.617  12.504
25365W        W97691  24.739  21.537   0.544
25366W        W97692  27.675  37.456   0.485
25367W        W97693  42.474  25.189   3.651
25368W        W97694  18.524   6.839   4.257
25369W        W97695  12.405  29.143  14.390
25370W        W97696  21.103  33.442  14.825
25371W        W97697  38.581   5.671   1.542
25372W        W97698   0.210  37.913   4.530
25373W        W97699  20.207   7.301  13.454
25374W        W97700  13.054   4.164   2.453
25375W        W97701  44.917  24.169  13.989
25376W        W97702  28.943  43.952   4.981
25377W        W97703  39.852  33.558   3.733
25378W        W97704  27.719  27.039  11.059
25379W        W97705  31.420  35.173  12.068
25380W        W97706  18.043  38.524   0.277
25381W        W97707  31.093  34.892  12.374
25382W        W97708  16.679  35.642  11.208
25383W        W97709   2.415   9.236   1.964
25384W        W97710   7.699  16.838  11.909
25385W        W97711  32.998  14.879   0.908
25386W        W97712  14.744  12.487  14.275
25387W        W97713  12.237  31.420  14.936
25388W        W97714  28.276  31.194  14.446
25389W        W97715   3.244  33.833   1.186
25390W        W97716   3.870  34.972  13.369
25391W        W97717  17.884  10.262   1.707
25392W        W97718  31.633  20.193  12.078
25393W        W97719  29.020  13.861  10.738
25394W        W97720  36.248  16.504   3.900
25395W        W97721   8.201  38.395   1.962
25396W        W97722  44.710  24.748   2.320
25397W        W97723  10.786  32.694   2.392
25398W        W97724   2.007  37.512   1.701
25399W        W97725   9.266  16.726  14.937
25400W        W97726  28.173  23.128  13.431
25401W        W97727  38.880  24.183   5.144
25402W        W97728   2.529  26.188   0.990
25403W        W97729  25.968  13.612   0.466
25404W        W97730  10.812   2.912   3.571
25405W        W97731  20.288  24.642   1.910
25406W        W97732  18.574   1.919   0.471
25407W        W97733  21.468  42.938  12.454
25408W        W97734  15.558  26.628   3.147
25409W        W97735   2.690  26.402  11.535
25410W        W97736  37.095  33.961  10.107
25411W        W97737  39.343   2.013   1.037
25412W        W97738   4.756  25.033   3.646
25413W        W97739  24.103  35.208   1.364
25414W        W97740   1.701  26.390  11.658
25415W        W97741  33.986  40.343   2.844
25416W        W97742  12.359  41.559   0.798
25417W        W97743  23.789  31.641  14.491
25418W        W97744   5.927  28.153   3.731
25419W        W97745  20.289   3.073   4.249
25420W        W97746  20.942   6.991   2.749
25421W        W97747  38.849  30.910   3.733
25422W        W97748  35.864   6.744  14.099
25423W        W97749   4.229   7.237   3.105
25424W        W97750   9.704  42.206  14.791
25425W        W97751  39.945  19.866   0.989
25426W        W97752  26.018  35.644  13.143
25427W        W97753   3.641  23.547  14.902
25428W        W97754  26.329  42.182   3.533
25429W        W97755  20.352  40.947   3.188
25430W        W97756   2.249  23.338   1.880
25431W        W97757   1.419  14.742  12.199
25432W        W97758  25.045  11.256   1.860
25433W        W97759   7.190   5.617   4.878
25434W        W97760  37.288   2.484  12.496
25435W        W97761  12.023  12.013   3.252
25436W        W97762  31.418   5.231  14.046
25437W        W97763  37.747  28.642   0.476
25438W        W97764  17.535  34.819  14.317
25439W        W97765   6.232  44.284  13.795
25440W        W97766  10.634  42.450  12.702
25441W        W97767  23.306  43.766   0.860
25442W        W97768  44.679  14.209  13.237
25443W        W97769  37.861  39.364   3.521
25444W        W97770  31.505  22.464  13.472
25445W        W97771   5.161   5.338   1.081
25446W        W97772  33.592  35.291   1.230
25447W        W97773   1.142  22.769   1.655
25448W        W97774   6.600  36.890  11.212
25449W        W97775  43.095  37.083  12.869
25450W        W97776  34.580  17.737  12.831
25451W        W97777  22.012  39.646  14.511
25452W        W97778  17.739  30.543   4.668
25453W        W97779  31.529  34.818   3.930
25454W        W97780  30.973  33.205   1.358
25455W        W97781  28.593   8.332   3.118
25456W        W97782  11.601   0.290   4.130
25457W        W97783   9.701  17.647   0.002
25458W        W97784  35.537  42.745  12.984
25459W        W97785   5.491  17.144  13.368
25460W        W97786   8.704  18.068  11.652
25461W        W97787  15.118   2.531  13.898
25462W        W97788  43.242   2.830   4.876
25463W        W97789  35.572  38.953  13.932
25464W        W97790  25.956   4.906   4.656
25465W        W97791  40.850  40.206   3.474
25466W        W97792  17.880  36.897   0.403
25467W        W97793  32.446   9.915  11.642
25468W        W97794  20.244  39.577   1.843
25469W        W97795  39.431  43.551   3.191
25470W        W97796   5.769  34.343  12.603
25471W        W97797  41.918  13.299   4.854
25472W        W97798  38.306  38.381  11.821
25473W        W97799   0.303  11.841   4.506
25474W        W97800  13.115  37.182   4.217
25475W        W97801  38.929  38.795   2.144
25476W        W97802   3.161  44.817   0.843
25477W        W97803   8.246  42.034  12.033
25478W        W97804  23.051  37.077   1.338
25479W        W97805  29.588  14.218   4.398
25480W        W97806  21.240  38.210   4.654
25481W        W97807  19.578  34.370   1.810
25482W        W97808  33.541  30.494  12.054
25483W        W97809  13.647  15.683   1.138
25484W        W97810   8.267  12.604  12.922
25485W        W97811  36.408  11.824   2.841
25486W        W97812  41.593   8.245   0.476
25487W        W97813  34.906  25.443   1.237
25488W        W97814  37.409  40.562   4.544
25489W        W97815  21.640  21.576  10.808
25490W        W97816  11.807  40.949   1.952
25491W        W97817  21.480  43.012   3.244
25492W        W97818  17.028  15.178   0.116
25493W        W97819  13.871  14.749   1.315
25494W        W97820  10.548  11.176   3.636
25495W        W97821  18.724  12.636   9.937
25496W        W97822  31.442  41.503  13.418
25497W        W97823  34.836   2.208  13.939
25498W        W97824   4.661  42.174  14.627
25499W        W97825  30.592  31.952  12.010
25500W        W97826  11.835  34.154   2.627
25501W        W97827  31.563  44.710   1.645
25502W        W97828  15.915   1.385  11.094
25503W        W97829  13.380  33.906   0.859
25504W        W97830   2.519  35.890  10.723
25505W        W97831  13.142   3.969   3.163
25506W        W97832  24.935  42.366   3.187
25507W        W97833  43.827  18.499   0.911
25508W        W97834  27.645  32.280  13.074
25509W        W97835  29.054  38.633  13.365
25510W        W97836  17.628  33.314  14.479
25511W        W97837  14.251   8.267  10.922
25512W        W97838  42.148  38.921   2.391
25513W        W97839  14.404   9.463   5.073
25514W        W97840  33.325  16.231   3.209
25515W        W97841  44.616   7.038  13.416
25516W        W97842  35.956  34.769  10.127
25517W        W97843   4.498  39.522   2.791
25518W        W97844   1.214  16.539  10.702
25519W        W97845  32.461   4.469   3.716
25520W        W97846  32.194  17.835   4.131
25521W        W97847  30.797  31.703  12.888
25522W        W97848  16.731  18.805   3.172
25523W        W97849  35.641   9.758  12.930
25524W        W97850  44.510  36.054   2.724
25525W        W97851  22.760  16.975  11.920
25526W        W97852  23.187  43.123  11.142
25527W        W97853  25.687  20.034  14.959
25528W        W97854  19.347  43.289   4.233
25529W        W97855  27.986  12.680   3.340
25530W        W97856  20.985  43.214   4.965
25531W        W97857  17.196  16.751  13.563
25532W        W97858  39.498   9.020  13.473
25533W        W97859  33.458  23.797   3.189
25534W        W97860  31.902  20.079   2.927
25535W        W97861  24.838  38.863  10.197
25536W        W97862  29.328  12.153  11.634
25537W        W97863  17.679   4.355  12.114
25538W        W97864  30.852  29.928  14.919
25539W        W97865  40.488  18.812  12.539
25540W        W97866  14.488  17.840  14.411
25541W        W97867  14.782  33.310  13.363
25542W        W97868  23.228  30.030   4.688
25543W        W97869  16.657  25.132   3.505
25544W        W97870  30.600  43.252   4.832
25545W        W97871  41.010  21.229   4.956
25546W        W97872  29.857   2.483  13.472
25547W        W97873   9.680  12.054   0.008
25548W        W97874  15.093  30.015   3.264
25549W        W97875  41.993  44.461   1.866
25550W        W97876  22.481  34.025  13.518
25551W        W97877  42.416  19.707  12.298
25552W        W97878  36.369  29.132   1.396
25553W        W97879  40.364  28.701   1.259
25554W        W97880  15.248   0.781  11.059
25555W        W97881  32.475   2.501  13.429
25556W        W97882  23.132  28.076  13.373
25557W        W97883  10.787  22.692  11.582
25558W        W97884   7.258  20.147   0.321
25559W        W97885   2.267  40.954   1.889
25560W        W97886  11.900  24.689   1.741
25561W        W97887  17.867   4.688   3.447
25562W        W97888   9.824   3.113  12.592
25563W        W97889  38.864  41.701   1.751
25564W        W97890  20.720  27.069  12.441
25565W        W97891  28.220  10.903   4.318
25566W        W97892  44.104  39.969   3.726
25567W        W97893   7.659  17.241  12.881
25568W        W97894  15.727  32.427  12.157
25569W        W97895  29.496  43.965  14.871
25570W        W97896  37.813  12.348   1.283
25571W        W97897   8.924  43.257  12.236
25572W        W97898  14.111  44.347  12.495
25573W        W97899  41.714   2.278   1.648
25574W        W97900  17.509  43.898   1.784
25575W        W97901  43.471  11.705   2.169
25576W        W97902   9.622  22.173  13.355
25577W        W97903  16.407  12.889  10.971
25578W        W97904   7.354  34.867   1.885
25579W        W97905  36.573  42.401   3.848
25580W        W97906   8.227   1.751  14.512
25581W        W97907  26.126  26.766   2.924
25582W        W97908   5.177  11.200  13.560
25583W        W97909  37.386  14.224  13.841
25584W        W97910  18.215  26.706  13.046
25585W        W97911  29.464  38.374  12.099
25586W        W97912  36.571   3.474   1.847
25587W        W97913  42.530  14.046  13.918
25588W        W97914   6.774  16.813  12.890
25589W        W97915  15.100  23.238   0.303
25590W        W97916  18.951  17.577   4.614
25591W        W97917   8.286  14.831  14.391
25592W        W97918  44.172  31.109  11.756
25593W        W97919  28.732  17.129  13.844
25594W        W97920  29.699  18.711   4.038
25595W        W97921  26.353  16.442   9.488
25596W        W97922  31.589  27.026   1.848
25597W        W97923  34.072  25.803   1.787
25598W        W97924  34.356   1.381   3.181
25599W        W97925  18.409  34.676   4.103
25600W        W97926   7.458  29.040   4.654
25601W        W97927  18.163  16.569   0.244
25602W        W97928  27.458  37.426   2.762
25603W        W97929  22.011   8.781   5.167
25604W        W97930   5.027  31.989  13.040
25605W        W97931  23.253  39.373  11.591
25606W        W97932  17.686  15.593  10.615
25607W        W97933   9.745  11.569  12.650
25608W        W97934  10.081  32.248   4.534
25609W        W97935  27.080  32.788  11.775
25610W        W97936  36.021  10.428  13.976
25611W        W97937   3.945  41.980  10.695
25612W        W97938  16.615  27.674  13.212
25613W        W97939  16.411  41.897   4.059
25614W        W97940  36.539  20.174  13.360
25615W        W97941  38.568  24.171   0.390
25616W        W97942   1.200  23.010  13.344
25617W        W97943   7.652   4.065   4.471
25618W        W97944  33.383  32.642   0.360
25619W        W97945  30.683  11.107  11.567
25620W        W97946  16.760   6.489   4.610
25621W        W97947  44.495  24.188  14.289
25622W        W97948  20.714   0.254   1.311
25623W        W97949  36.994  15.592   2.518
25624W        W97950   9.150  21.574  13.313
25625W        W97951  40.829  27.043   0.780
25626W        W97952  13.629  12.551  13.003
25627W        W97953  20.960   3.442   0.425
25628W        W97954  29.459  13.427  13.335
25629W        W97955  36.581  35.508   3.635
25630W        W97956  19.470   6.735   0.334
25631W        W97957   4.638  21.446  10.147
25632W        W97958  40.560  23.471  10.688
25633W        W97959   7.342  43.872  12.102
25634W        W97960  23.651  29.774   1.177
25635W        W97961  44.831  30.155   2.281
25636W        W97962  25.232   6.315   3.701
25637W        W97963  32.404  28.843   0.831
25638W        W97964  42.488  13.259  11.515
25639W        W97965  13.789  36.554   1.611
25640W        W97966  11.281  40.362  11.545
25641W        W97967   1.534  33.508  11.752
25642W        W97968  21.658  11.385   0.128
25643W        W97969  42.871  28.960  10.751
25644W        W97970  26.162  44.366  14.254
25645W        W97971  14.214  13.093  13.344
25646W        W97972  38.056  18.994  14.742
25647W        W97973  29.080   6.928  14.654
25648W        W97974  44.426   3.280  12.373
25649W        W97975  30.626   9.765   3.665
25650W        W97976   2.195  37.138  11.217
25651W        W97977   1.618  43.413  14.357
25652W        W97978  24.622  22.508   1.650
25653W        W97979  41.912  29.236  11.511
25654W        W97980  10.178  12.195   3.368
25655W        W97981  44.270  14.201  10.125
25656W        W97982   4.562  34.448  11.535
25657W        W97983  17.243  15.547   0.923
25658W        W97984   7.936  35.860  10.746
25659W        W97985  12.724  41.044   4.137
25660W        W97986  22.153  41.255   4.466
25661W        W97987   4.183  23.804   9.885
25662W        W97988  30.529   5.824   3.056
25663W        W97989  26.642   1.302  12.778
25664W        W97990  44.471  43.806   0.817
25665W        W97991  41.526  36.951   0.823
25666W        W97992   3.164  44.943  11.551
25667W        W97993  31.077  21.741  11.485
25668W        W97994  18.015   3.802   4.930
25669W        W97995  19.696  23.415   2.239
25670W        W97996  32.850   8.277   1.705
25671W        W97997  42.818  24.524  12.126
25672W        W97998  26.385  29.731  14.597
25673W        W97999   0.979   6.170   4.470
25674W        W98000  15.401   1.680  11.145
25675W        W98001  17.317  27.846  13.466
25676W        W98002  25.690  40.749  11.589
25677W        W98003   8.970  15.839   1.165
25678W        W98004  43.782  25.567  14.976
25679W        W98005  32.082   8.728   4.909
25680W        W98006  19.774  39.364  11.635
25681W        W98007  17.244  41.101   0.826
25682W        W98008  12.056  35.637  10.929
25683W        W98009  19.851   6.459   0.075
25684W        W98010  32.466   1.333  14.155
25685W        W98011  34.496  23.889  13.038
25686W        W98012  25.050  11.920  12.004
25687W        W98013  42.631  38.114   1.354
25688W        W98014  38.430  22.802   1.129
25689W        W98015   4.114  16.249  12.134
25690W        W98016  25.524   8.579  12.977
25691W        W98017   4.700  20.827   3.976
25692W        W98018  38.966   8.569  12.722
25693W        W98019  32.629  23.713  13.929
25694W        W98020   0.720  37.313   0.350
25695W        W98021  41.481  44.532  11.550
25696W        W98022  15.792  11.320   4.905
25697W        W98023   4.297   1.010  13.593
25698W        W98024  24.653  32.363  14.315
25699W        W98025  34.833  34.490   2.432
25700W        W98026  30.326  41.213   1.699
25701W        W98027   3.940  25.295   2.546
25702W        W98028  10.197   4.392  11.888
25703W        W98029  38.467  28.678  13.419
25704W        W98030  29.927   3.435  13.881
25705W        W98031  37.328   9.932   3.332
25706W        W98032  16.980   0.945   4.128
25707W        W98033   1.567  28.720  13.414
25708W        W98034  12.241  28.434  12.050
25709W        W98035  26.051   1.668   3.759
25710W        W98036   3.742  19.903   0.916
25711W        W98037  39.892   0.851  13.686
25712W        W98038   0.772  17.594   0.817
25713W        W98039  34.294  26.421  14.901
25714W        W98040   2.585  37.135  13.427
25715W        W98041  28.127   9.151   4.404
25716W        W98042  21.320  22.665  10.693
25717W        W98043   4.819  15.698   2.887
25718W        W98044  31.432  29.721   1.462
25719W        W98045  40.179  31.809  10.657
25720W        W98046  41.466  16.620   2.353
25721W        W98047  15.045  33.923  13.767
25722W        W98048  30.215  19.198   1.437
25723W        W98049  17.046  22.002   2.707
25724W        W98050   7.091   9.878   1.413
25725W        W98051  12.207  11.439   2.495
25726W        W98052  10.665  42.809  13.116
25727W        W98053  39.494   8.457  14.887
25728W        W98054  28.486   7.403   2.302
25729W        W98055  41.395  24.958   1.604
25730W        W98056   8.422  29.954  12.976
25731W        W98057  27.640  12.386   4.356
25732W        W98058  17.749  44.017  12.382
25733W        W98059  39.098   8.804  14.962
25734W        W98060  35.965  42.295   0.844
25735W        W98061  36.951  39.280   4.100
25736W        W98062  34.680  29.336   4.132
25737W        W98063  10.113  18.800   0.923
25738W        W98064  24.475   1.478   3.758
25739W        W98065  16.188   3.641   1.257
25740W        W98066  29.967  38.298  13.371
25741W        W98067  10.655  13.816   4.251
25742W        W98068  24.179  30.090   0.246
25743W        W98069  32.675  10.132   1.767
25744W        W98070  26.063   5.188  12.572
25745W        W98071  21.760  26.277   3.590
25746W        W98072  26.476  43.191   3.738
25747W        W98073  13.423  38.004   3.587
25748W        W98074  30.582  35.286   0.680
25749W        W98075   9.766  29.601   4.329
25750W        W98076  26.258  22.932  14.952
25751W        W98077   1.207  30.167   1.553
25752W        W98078  35.980  33.103   2.146
25753W        W98079  15.572   0.110  14.215
25754W        W98080   6.411  19.747   4.796
25755W        W98081  39.266  42.821  13.505
25756W        W98082  23.250   8.484   2.763
25757W        W98083   2.247   4.791  13.794
25758W        W98084   1.680  31.629  13.929
25759W        W98085  35.664  22.474  12.282
25760W        W98086   8.139  19.187  14.342
25761W        W98087  41.578  38.166  12.941
25762W        W98088  15.685  25.042  14.961
25763W        W98089  18.625  34.979  14.404
25764W        W98090  24.204   9.672   1.406
25765W        W98091  24.946  24.012   1.784
25766W        W98092  36.896  37.105  11.713
25767W        W98093   7.872  23.181  11.768
25768W        W98094   3.327  22.303  11.054
25769W        W98095  34.699  19.484   5.086
25770W        W98096  17.217  25.589  14.992
25771W        W98097   2.318  34.045   1.273
25772W        W98098  11.338  44.979   4.601
25773W        W98099   9.709  30.819   0.212
25774W        W98100  29.861  11.895  13.974
25775W        W98101   0.273  12.809   1.300
25776W        W98102  22.605   6.179  10.733
25777W        W98103   4.714  18.478   2.796
25778W        W98104  32.555  10.459  13.546
25779W        W98105   4.314   8.372   2.329
25780W        W98106   5.665  16.307  13.763
25781W        W98107  34.394  42.022  10.793
25782W        W98108  37.471  37.832  14.038
25783W        W98109  29.584  25.769  10.167
25784W        W98110  38.822  21.666  13.378
25785W        W98111   7.772  35.495  14.314
25786W        W98112  22.707  31.152  13.894
25787W        W98113  26.501  28.536   3.845
25788W        W98114   9.260  30.694   1.901
25789W        W98115  25.568  14.661  13.154
25790W        W98116  32.550   9.445  13.356
25791W        W98117  23.578   4.701  11.053
25792W        W98118  19.610   8.390   0.707
25793W        W98119  41.456  19.254   3.304
25794W        W98120   0.433  25.486  14.016
25795W        W98121   5.760   0.583   2.865
25796W        W98122  18.842  38.974   4.549
25797W        W98123  32.438  11.464   1.404
25798W        W98124  31.042  27.582  12.398
25799W        W98125  22.054  34.887  10.731
25800W        W98126  24.073  21.574   1.181
25801W        W98127  34.878  15.552  12.846
25802W        W98128   4.344  24.806   3.438
25803W        W98129  13.008  27.956   1.694
25804W        W98130  39.708  35.162  13.491
25805W        W98131  10.873  38.574   3.674
25806W        W98132  35.417  25.272   4.801
25807W        W98133  26.031  36.795   1.246
25808W        W98134  20.138  28.877   4.740
25809W        W98135  14.633  41.269  10.433
25810W        W98136  22.185  38.445   3.894
25811W        W98137  30.557  21.359  11.257
25812W        W98138  35.945  32.437   4.663
25813W        W98139   7.856  17.987  14.869
25814W        W98140   5.845   1.676   0.686
25815W        W98141   8.438  34.887  14.558
25816W        W98142  23.253  29.102  14.477
25817W        W98143  38.327  34.770  14.773
25818W        W98144  24.287  18.097   0.667
25819W        W98145  37.515  37.058   1.152
25820W        W98146  29.984  19.791  14.408
25821W        W98147  39.358  21.240   2.736
25822W        W98148  17.797  17.658   4.074
25823W        W98149  20.621  15.986   3.591
25824W        W98150  30.842  30.729   3.340
25825W        W98151   9.901  37.363  10.763
25826W        W98152  36.462   8.786   0.174
25827W        W98153  22.204  21.669  14.243
25828W        W98154   0.163   4.067   2.526
25829W        W98155   4.776  20.520  10.726
25830W        W98156  13.205  28.877   0.028
25831W        W98157  41.754  41.828  14.492
25832W        W98158  12.895   5.867   3.241
25833W        W98159  10.924  22.819  14.030
25834W        W98160  25.195  36.914   0.762
25835W        W98161   7.556  13.975  14.248
25836W        W98162  21.873  28.862   4.358
25837W        W98163  38.881  11.315   4.040
25838W        W98164  24.520  41.232  11.061
25839W        W98165  21.179  19.511   1.969
25840W        W98166  29.688  18.310  10.329
25841W        W98167  14.652  25.744  13.464
25842W        W98168  38.741  10.180   3.213
25843W        W98169  11.801  29.373   4.486
25844W        W98170  30.725  24.263   1.644
25845W        W98171  40.062  42.602   1.190
25846W        W98172  21.795  39.444   9.842
25847W        W98173  34.567  43.590   4.890
25848W        W98174  33.072   6.593  14.022
25849W        W98175  11.794  32.997  10.590
25850W        W98176  18.183  41.686  13.046
25851W        W98177  37.124  42.292   3.109
25852W        W98178  38.033  37.032   4.679
25853W        W98179  38.827   8.885  14.102
25854W        W98180  37.592   7.806   4.831
25855W        W98181  25.128  35.164  13.279
25856W        W98182   2.434   9.099  14.097
25857W        W98183  14.145  40.842  11.541
25858W        W98184  31.675   8.282  12.557
25859W        W98185   8.795   6.622  10.610
25860W        W98186  34.546  20.865  13.110
25861W        W98187  27.702  24.500  13.525
25862W        W98188  18.654   1.794   1.449
25863W        W98189   2.649   9.269   5.303
25864W        W98190   1.842  25.923   1.907
25865W        W98191   1.864   3.729   4.228
25866W        W98192  33.335  26.396   3.286
25867W        W98193  11.309  20.947   2.673
25868W        W98194  13.657   7.607  12.706
25869W        W98195  32.166  18.679  11.398
25870W        W98196  44.428  35.076   4.558
25871W        W98197  11.384  30.543   0.528
25872W        W98198  31.035   8.195  13.442
25873W        W98199  18.664  38.931  14.493
25874W        W98200  14.398  19.453  13.301
25875W        W98201  20.219  27.046   4.529
25876W        W98202   5.493  19.408   1.696
25877W        W98203  21.038  10.800   1.445
25878W        W98204  30.065  13.691   3.103
25879W        W98205  24.028  27.587   0.372
25880W        W98206  36.884  37.938   4.380
25881W        W98207  35.361   2.274   0.325
25882W        W98208  11.282  35.058  10.183
25883W        W98209  43.552  33.470   1.064
25884W        W98210   5.945  35.459   0.776
25885W        W98211  14.220  17.338   4.977
25886W        W98212  22.043  32.131   4.182
25887W        W98213   1.460  23.069   4.526
25888W        W98214  23.558  33.694   4.640
25889W        W98215  38.084  19.773   3.695
25890W        W98216   9.442   2.412  12.510
25891W        W98217  38.420  42.421   2.307
25892W        W98218  26.655  39.739   3.151
25893W        W98219  32.665  22.572   3.267
25894W        W98220  25.928  24.010   3.664
25895W        W98221  13.335  18.324  14.397
25896W        W98222  14.350  20.541   0.339
25897W        W98223  25.956  19.269  14.440
25898W        W98224  33.850  14.680  11.167
25899W        W98225  28.239  35.059   3.338
25900W        W98226   9.087  12.554   4.678
25901W        W98227  28.920   1.065  12.871
25902W        W98228   6.612  39.416  12.506
25903W        W98229   0.781  11.682   4.634
25904W        W98230  25.487  28.197   3.717
25905W        W98231  16.659   3.264   0.189
25906W        W98232  24.434   1.705  13.871
25907W        W98233  15.992  32.632   2.646
25908W        W98234   6.693  30.393  10.668
25909W        W98235  20.021  14.604  13.453
25910W        W98236  23.702  33.392   0.019
25911W        W98237  21.595   5.361  12.631
25912W        W98238  25.907  31.084  14.672
25913W        W98239   9.804  15.312  11.371
25914W        W98240  13.862  42.724  13.457
25915W        W98241   2.576  37.294   0.123
25916W        W98242  13.047  30.636   1.379
25917W        W98243  44.189  43.962   3.286
25918W        W98244  38.286  17.723  13.840
25919W        W98245   4.713  25.654  11.020
25920W        W98246  38.895  24.478  12.986
25921W        W98247  28.026  40.032  13.487
25922W        W98248  14.381  24.905  13.565
25923W        W98249  30.681  40.868   3.588
25924W        W98250   0.781   2.841  14.436
25925W        W98251  22.611  13.839  13.239
25926W        W98252  17.193   0.556   0.794
25927W        W98253  42.609  39.863   2.025
25928W        W98254  39.533  10.384   0.944
25929W        W98255  42.012  17.647   0.939
25930W        W98256   0.263  23.493  11.502
25931W        W98257  43.463  24.937   3.539
25932W        W98258  28.186  24.637  13.398
25933W        W98259   9.428  27.566   0.452
25934W        W98260   5.796   3.300  14.350
25935W        W98261  20.102  16.520   4.522
25936W        W98262   3.006  26.512   4.598
25937W        W98263  11.833  26.050  13.507
25938W        W98264  11.133  10.609  10.641
25939W        W98265  13.017  26.619  10.482
25940W        W98266  37.584  19.566  10.680
25941W        W98267  42.519  29.475   1.746
25942W        W98268  41.380  22.735  14.900
25943W        W98269  28.469  43.491   1.784
25944W        W98270  15.113  27.947   4.217
25945W        W98271  11.226  14.349   2.892
25946W        W98272  23.430  39.116  14.612
25947W        W98273   6.856   5.808  14.021
25948W        W98274  34.893  30.094   4.180
25949W        W98275   1.041   1.269   4.310
25950W        W98276  31.606  13.778  12.392
25951W        W98277   1.951  29.769   4.216
25952W        W98278  18.235  14.326   2.911
25953W        W98279  42.302   8.636   3.425
25954W        W98280  26.451  10.339   2.444
25955W        W98281   9.201   0.849  12.303
25956W        W98282  11.897  42.354   1.659
25957W        W98283  13.100  20.795  11.111
25958W        W98284  40.575   8.108   2.304
25959W        W98285  19.519  31.897   3.276
25960W        W98286  25.687  38.953  13.303
25961W        W98287  23.122   9.150   1.804
25962W        W98288  28.361  11.112   3.288
25963W        W98289  35.315  29.927   3.487
25964W        W98290  20.174   3.301   3.611
25965W        W98291  11.450  12.782  11.208
25966W        W98292   7.528  22.751  11.093
25967W        W98293  30.005  26.453  13.301
25968W        W98294  37.271  42.445  13.567
25969W        W98295  15.149  14.813   1.842
25970W        W98296  32.145   9.179   4.670
25971W        W98297  43.410  23.166   2.138
25972W        W98298  44.275  33.017  12.215
25973W        W98299  16.522  28.955   3.651
25974W        W98300   6.828  38.886  12.589
25975W        W98301  36.836  36.064   1.962
25976W        W98302  17.372  12.239  10.436
25977W        W98303  18.583  24.439  10.537
25978W        W98304  42.310   2.214  11.505
25979W        W98305  11.486  43.342   3.030
25980W        W98306  12.356   6.638   2.772
25981W        W98307   8.360   5.816  12.669
25982W        W98308  35.721   8.626   2.246
25983W        W98309  37.636  24.214  12.571
25984W        W98310  18.196  16.646  14.219
25985W        W98311  17.222  14.729  10.065
25986W        W98312  32.912  31.317  14.324
25987W        W98313  15.820  31.696   2.636
25988W        W98314  20.242  11.302   0.734
25989W        W98315  16.857  16.723   2.252
25990W        W98316   0.957   1.848  13.267
25991W        W98317  11.051  23.421   1.802
25992W        W98318  24.979  40.392  13.918
25993W        W98319  15.703  28.257  13.067
25994W        W98320  24.693   8.392   1.895
25995W        W98321   6.952   8.056  13.346
25996W        W98322  27.921  28.404   4.246
25997W        W98323   3.287  25.704  14.843
25998W        W98324  24.701   2.703   2.385
25999W        W98325  19.151  11.660  10.488
26000W        W98326  34.461  20.337   4.616
26001W        W98327  29.838   4.925   2.769
26002W        W98328   6.795   0.457   4.114
26003W        W98329   3.160  36.599  12.571
26004W        W98330  11.849   7.722   3.974
26005W        W98331  22.169  17.737  11.459
26006W        W98332  28.071  27.086   4.053
26007W        W98333   7.794   9.379  14.548
26008W        W98334  26.473   1.964   2.398
26009W        W98335   3.861  18.641   3.640
26010W        W98336  38.316   0.389  11.359
26011W        W98337  29.653   8.581  11.725
26012W        W98338  34.500   5.671  14.927
26013W        W98339  18.295  26.950  11.221
26014W        W98340   3.887  32.513  12.534
26015W        W98341  34.767  15.683   3.402
26016W        W98342  14.843   7.429   4.912
26017W        W98343  34.060  43.203   2.826
26018W        W98344   1.153  16.147   3.217
26019W        W98345  28.289  31.233  10.712
26020W        W98346  43.309  15.977   2.804
26021W        W98347  25.332  25.648   2.175
26022W        W98348  30.988  12.858  12.019
26023W        W98349  38.053  33.220  11.059
26024W        W98350  44.186   7.082  10.305
26025W        W98351  20.152  38.580   4.368
26026W        W98352   5.809   2.545   4.103
26027W        W98353   4.679  20.955  11.385
26028W        W98354   9.873  32.804   0.303
26029W        W98355   2.027   5.682   1.829
26030W        W98356  16.498   8.600  13.094
26031W        W98357  16.136  23.264   3.113
26032W        W98358  19.800   9.014   2.307
26033W        W98359  17.224  34.981   1.942
26034W        W98360  44.414  14.771  12.442
26035W        W98361  20.276  19.097   4.271
26036W        W98362   5.326  15.404   0.010
26037W        W98363  30.604   4.579   4.587
26038W        W98364   5.732  24.148  12.622
26039W        W98365  40.436  43.016   2.365
26040W        W98366  37.520  18.119  13.962
26041W        W98367  33.561  20.045  14.907
26042W        W98368   5.476  17.305   1.294
26043W        W98369  13.102  29.001  13.089
26044W        W98370  32.655   1.936  12.559
26045W        W98371  23.141  19.276   3.952
26046W        W98372  24.512  27.584   0.187
26047W        W98373  21.247  44.000   0.618
26048W        W98374   1.366   4.855  14.446
26049W        W98375  39.519  17.763   2.870
26050W        W98376   8.577  18.770   1.863
26051W        W98377  10.659   5.933  11.247
26052W        W98378  10.363  12.872  13.059
26053W        W98379   2.749  15.693  10.816
26054W        W98380  15.582  34.986  10.694
26055W        W98381   3.997  17.688   0.207
26056W        W98382   6.397  15.552   2.217
26057W        W98383  15.594   0.941   4.098
26058W        W98384  44.358  32.363  10.476
26059W        W98385  14.042  36.563  14.405
26060W        W98386   0.231  28.642   2.984
26061W        W98387  36.111  41.510   2.332
26062W        W98388   5.738   1.787   4.692
26063W        W98389   4.407  39.070   2.189
26064W        W98390  35.478  30.616  11.923
26065W        W98391  34.427  17.208   4.213
26066W        W98392  28.590  38.141   2.768
26067W        W98393  40.940  25.938   1.812
26068W        W98394  30.054  43.521  11.530
26069W        W98395  38.408  29.606   3.230
26070W        W98396  20.473  22.276  11.956
26071W        W98397  38.455  23.576  13.516
26072W        W98398  24.398  25.672  12.198
26073W        W98399  27.153  29.726  12.616
26074W        W98400   8.375  26.880   9.923
26075W        W98401   4.647  31.687   3.302
26076W        W98402  23.525  14.055   1.237
26077W        W98403   3.424  36.887  14.335
26078W        W98404  36.405   1.270   1.214
26079W        W98405  35.969  39.747   1.738
26080W        W98406  18.773   8.916  13.940
26081W        W98407  16.592  22.919  14.465
26082W        W98408  40.869  26.001   2.336
26083W        W98409  13.610  38.065   2.290
26084W        W98410  43.027  20.014  10.958
26085W        W98411   0.290  33.145   1.594
26086W        W98412  31.558  36.513   2.166
26087W        W98413  42.374  32.847  10.716
26088W        W98414  21.141  10.019   3.765
26089W        W98415  19.090  12.141   4.875
26090W        W98416  15.273  11.874  13.856
26091W        W98417  40.604  26.695  11.157
26092W        W98418  31.103   2.764  13.275
26093W        W98419  24.702  32.898   1.726
26094W        W98420  29.888  25.952  10.603
26095W        W98421  35.428  37.361  11.112
26096W        W98422  34.414  18.728   3.771
26097W        W98423  10.414   8.282  10.415
26098W        W98424   7.235  35.062  10.671
26099W        W98425  24.015  41.329   3.238
26100W        W98426  17.488   9.643  11.976
26101W        W98427  35.777  36.963  11.150
26102W        W98428   9.821  39.821   0.879
26103W        W98429  16.985  18.125   2.059
26104W        W98430  40.094  12.671  12.402
26105W        W98431  14.118  29.527   0.643
26106W        W98432   7.338  16.200   4.625
26107W        W98433   1.005  40.731   4.250
26108W        W98434  30.326  43.526   1.458
26109W        W98435  38.127  13.578   5.336
26110W        W98436  20.151  36.972   0.192
26111W        W98437   9.883  41.294   0.954
26112W        W98438  18.165  11.477   1.163
26113W        W98439  24.507  41.269   2.335
26114W        W98440  12.848  27.018   3.570
26115W        W98441  11.563  40.913   3.793
26116W        W98442   0.858  35.162   5.203
26117W        W98443  28.951   8.307   2.194
26118W        W98444  36.665  38.737  11.181
26119W        W98445   8.434  35.901   0.756
26120W        W98446  31.989   7.453   3.219
26121W        W98447  34.463   7.863  11.909
26122W        W98448   6.409   3.602   2.614
26123W        W98449   5.753  17.053  12.017
26124W        W98450  17.249  33.983   4.429
26125W        W98451  22.453  38.600   1.641
26126W        W98452  44.523   6.796  11.110
26127W        W98453  16.618  37.168  13.988
26128W        W98454  23.785   5.488  12.609
26129W        W98455  34.987   5.903   4.514
26130W        W98456  35.979  15.878  12.540
26131W        W98457  28.922  39.979  14.326
26132W        W98458  41.957  10.426  10.536
26133W        W98459   2.302  23.211   4.790
26134W        W98460  34.521  43.356   3.878
26135W        W98461  39.153  16.407   5.002
26136W        W98462  41.004  44.283   1.510
26137W        W98463  32.171  28.990   0.397
26138W        W98464  14.229   1.952  13.598
26139W        W98465  22.568  36.092  13.890
26140W        W98466   0.474  10.645   1.476
26141W        W98467  22.003  16.018   3.748
26142W        W98468  10.722   9.369  10.758
26143W        W98469  18.160   8.190  11.563
26144W        W98470  37.583  43.804  14.057
26145W        W98471   3.014  28.527   3.351
26146W        W98472   0.528  24.070   3.409
26147W        W98473   0.916  24.691  13.963
26148W        W98474  22.430  18.656   3.262
26149W        W98475  26.967  36.372   2.420
26150W        W98476  25.357  22.930   4.209
26151W        W98477   3.070  41.360  13.855
26152W        W98478  23.127  34.603  12.060
26153W        W98479  28.202  11.271  13.522
26154W        W98480  27.657  33.516   0.900
26155W        W98481  24.265  44.391  11.040
26156W        W98482   0.929  33.862  12.052
26157W        W98483  28.117  20.561   2.389
26158W        W98484  41.200  38.825   3.175
26159W        W98485  29.418  27.899  10.169
26160W        W98486  26.206  27.182   0.314
26161W        W98487  31.102  14.616   0.337
26162W        W98488  16.156  43.000   1.418
26163W        W98489   4.726   7.908  13.736
26164W        W98490   1.242   5.029   0.921
26165W        W98491  43.987  44.346  14.752
26166W        W98492  42.999  29.396   1.889
26167W        W98493  22.253  36.626  14.878
26168W        W98494   3.797  20.450   4.129
26169W        W98495  42.983  31.130  10.198
26170W        W98496  27.379  43.486   3.639
26171W        W98497  22.638  42.328  10.447
26172W        W98498  31.086   4.351   4.632
26173W        W98499  22.791   8.212   2.831
26174W        W98500  32.623  23.077   3.452
26175W        W98501  32.339  20.492  11.970
26176W        W98502  11.368   4.833   1.330
26177W        W98503  36.988   4.961   0.400
26178W        W98504  29.670  27.615  12.743
26179W        W98505  22.152  20.688  12.414
26180W        W98506  12.342  20.801   3.927
26181W        W98507  11.627  29.944  13.824
26182W        W98508   2.197  31.342  13.028
26183W        W98509  24.229  40.732   2.918
26184W        W98510  32.698  24.130   0.914
26185W        W98511  13.073  24.606   4.176
26186W        W98512  31.131  24.018  13.949
26187W        W98513  20.761   8.291  13.975
26188W        W98514  17.691  24.479   3.390
26189W        W98515  36.510  17.351  11.412
26190W        W98516   6.604  12.612  11.462
26191W        W98517  17.677  33.148  13.074
26192W        W98518  42.293  13.209   4.504
26193W        W98519  40.788  15.486  11.572
26194W        W98520  32.158   2.923  13.355
26195W        W98521   6.109  44.558   1.310
26196W        W98522  25.758  13.590   2.750
26197W        W98523  40.970  18.261   0.047
26198W        W98524  10.129   0.773  10.578
26199W        W98525  21.959  16.437   3.396
26200W        W98526  24.757  29.921   4.855
26201W        W98527  19.215  12.703   1.738
26202W        W98528  36.202   8.368  14.995
26203W        W98529  27.535  29.884  10.565
26204W        W98530  20.657  29.473   3.248
26205W        W98531  10.886  37.968   2.709
26206W        W98532  33.032  22.928  12.603
26207W        W98533   8.869  42.483   1.363
26208W        W98534   3.789   8.869  13.259
26209W        W98535   5.649   0.503  14.482
26210W        W98536  35.725  43.905   1.461
26211W        W98537   7.670  24.940   4.901
26212W        W98538  15.578   0.619  14.225
26213W        W98539  11.571  22.772  10.334
26214W        W98540  38.541  17.125  12.688
26215W        W98541  25.370  16.639  13.994
26216W        W98542  34.848   2.431  13.439
26217W        W98543  24.283  37.961  13.517
26218W        W98544   5.299   4.479  13.820
26219W        W98545  12.582  21.538  12.397
26220W        W98546  36.060  22.273   2.383
26221W        W98547  21.804  17.049   4.877
26222W        W98548  32.992  24.470  14.487
26223W        W98549  44.011  31.844   0.955
26224W        W98550   8.353  40.325   2.892
26225W        W98551  35.773   5.026  11.966
26226W        W98552  37.569  14.856  10.625
26227W        W98553   8.308  19.651   0.763
26228W        W98554   4.874  31.558  13.798
26229W        W98555  23.084  40.470  10.165
26230W        W98556  33.092   4.276  11.421
26231W        W98557   9.809  17.938  12.934
26232W        W98558  42.889  36.845  14.378
26233W        W98559  38.784  42.322   0.947
26234W        W98560  18.091  25.480   2.350
26235W        W98561  25.192   4.845   2.312
26236W        W98562  17.260  28.231   4.827
26237W        W98563  25.747   7.128  11.191
26238W        W98564  22.710  35.997   0.864
26239W        W98565  29.138   2.226   4.055
26240W        W98566  31.427  16.213   4.311
26241W        W98567   7.218   3.729   3.405
26242W        W98568  35.488   0.225   4.711
26243W        W98569  29.199  32.055   4.309
26244W        W98570  28.889  41.309  14.918
26245W        W98571  44.845  38.835   3.261
26246W        W98572  25.605  12.221   2.960
26247W        W98573  13.313   7.394  11.961
26248W        W98574  31.279   7.512  10.156
26249W        W98575  26.241   1.285   3.465
26250W        W98576  11.962  14.071  12.002
26251W        W98577  11.392   6.846  11.999
26252W        W98578  17.688   3.939   4.036
26253W        W98579  22.220  30.972  12.440
26254W        W98580  10.703  32.483  14.867
26255W        W98581  35.960  21.169  10.402
26256W        W98582  41.812  16.720  10.728
26257W        W98583   5.682   1.265   3.818
26258W        W98584  32.425   9.671   1.641
26259W        W98585  37.411  29.147   3.135
26260W        W98586  36.602  17.253   4.173
26261W        W98587  42.787  34.898   3.764
26262W        W98588   6.630   0.804   1.872
26263W        W98589  22.307  21.771  13.323
26264W        W98590  18.208  23.583  10.450
26265W        W98591  44.958  11.319  12.905
26266W        W98592  27.731  39.306   4.964
26267W        W98593   6.965  43.833  13.940
26268W        W98594  24.025  13.800  10.324
26269W        W98595   2.485  35.696   2.762
26270W        W98596  19.131   4.640   2.122
26271W        W98597  33.903   2.216  12.912
26272W        W98598  25.838   5.430  11.598
26273W        W98599   3.700   5.669  13.350
26274W        W98600  41.912   2.784  11.006
26275W        W98601  21.195  28.018   4.615
26276W        W98602  15.069  18.731  11.708
26277W        W98603  23.748  22.280   0.829
26278W        W98604  10.228  33.696   3.589
26279W        W98605   9.617   1.855  11.114
26280W        W98606  19.821  39.903   3.335
26281W        W98607   9.450  34.045  13.561
26282W        W98608  15.940  26.308   0.967
26283W        W98609  27.497  32.138   2.317
26284W        W98610  13.325  12.311   0.044
26285W        W98611  22.995  13.612   0.792
26286W        W98612  36.002  32.606   2.333
26287W        W98613   5.595  34.941  14.771
26288W        W98614   8.647  41.448   4.706
26289W        W98615  33.906  19.985  13.623
26290W        W98616  24.218  10.578  14.884
26291W        W98617  15.564  35.385   4.469
26292W        W98618   8.698   4.663   0.768
26293W        W98619  11.314  38.327   4.161
26294W        W98620  19.389   4.921   4.065
26295W        W98621  31.037  11.400  10.610
26296W        W98622  30.658  40.876  13.110
26297W        W98623  18.924  10.555   0.969
26298W        W98624  44.082  25.982  14.923
26299W        W98625  30.391   3.223   1.737
26300W        W98626   4.356  16.046  11.734
26301W        W98627  40.659   6.562   4.438
26302W        W98628  29.200  13.793  12.899
26303W        W98629  22.055  25.210  14.806
26304W        W98630  21.661  13.595  12.878
26305W        W98631  29.644  21.996  12.587
26306W        W98632   1.850  26.127  10.946
26307W        W98633   4.147  27.486   2.810
26308W        W98634  36.309   5.237  12.609
26309W        W98635  12.982  34.496  13.759
26310W        W98636  19.804  21.692   4.371
26311W        W98637  33.288  37.501  11.813
26312W        W98638  33.104   8.743  13.388
26313W        W98639  19.584  21.657   3.899
26314W        W98640   6.777  41.752   2.397
26315W        W98641  20.968  39.161   0.318
26316W        W98642  30.848  43.858   1.738
26317W        W98643  43.438  12.684  11.424
26318W        W98644  25.543  31.186   0.920
26319W        W98645  16.590  37.255   0.648
26320W        W98646  21.222  17.173   3.230
26321W        W98647  19.982  44.565   2.294
26322W        W98648  20.342  25.657   0.245
26323W        W98649  31.801  44.965   2.044
26324W        W98650  40.598   5.192   3.617
26325W        W98651  19.205  28.421   4.235
26326W        W98652  10.728  32.095  11.065
26327W        W98653   0.789  44.360   2.643
26328W        W98654   5.164  25.154   0.843
26329W        W98655  24.500  30.855   1.891
26330W        W98656  38.559  16.355  11.097
26331W        W98657  42.979  28.184   0.949
26332W        W98658  41.977   2.767  12.878
26333W        W98659  38.464  25.252   2.763
26334W        W98660   9.207  10.186   4.236
26335W        W98661   0.764  24.253  13.483
26336W        W98662  36.425   7.709   1.024
26337W        W98663  29.514   1.442  12.478
26338W        W98664  27.976  20.293   1.376
26339W        W98665  30.543  42.632   1.212
26340W        W98666  39.545  26.224   3.733
26341W        W98667  25.073  38.068  14.804
26342W        W98668  18.824   0.416   2.510
26343W        W98669   1.223  14.616   2.771
26344W        W98670  27.897   2.006   2.212
26345W        W98671   7.434  31.865   4.183
26346W        W98672   6.781  15.646  11.480
26347W        W98673  26.491  23.311  11.614
26348W        W98674  31.931  16.282   2.317
26349W        W98675  40.027  14.642  14.261
26350W        W98676  37.933  29.765  12.549
26351W        W98677  14.266  12.792  11.296
26352W        W98678  14.403  13.254  11.577
26353W        W98679  19.528  32.862   3.659
26354W        W98680  22.795  31.970   0.892
26355W        W98681  30.534  24.049   3.639
26356W        W98682  32.019  30.207   4.263
26357W        W98683  14.115  36.554  12.513
26358W        W98684  26.592  43.300   1.230
26359W        W98685  13.603  43.930   0.046
26360W        W98686   5.801   2.919   1.432
26361W        W98687  33.254  29.525  12.484
26362W        W98688   9.318  13.745  11.456
26363W        W98689  41.310   4.790   2.245
26364W        W98690  18.477  21.060   0.823
26365W        W98691  36.442   0.775   3.580
26366W        W98692  27.595  27.331  11.488
26367W        W98693  21.840  20.577  13.101
26368W        W98694   4.535  26.610  14.398
26369W        W98695  24.053   3.819  13.363
26370W        W98696  20.972   4.694   2.255
26371W        W98697  32.535   8.862   4.614
26372W        W98698   4.097  28.043  11.048
26373W        W98699  42.204  35.812  10.388
26374W        W98700  21.621  26.437   1.179
26375W        W98701  29.408  28.368   4.318
26376W        W98702   5.507   0.105   2.768
26377W        W98703  30.928  27.434   1.262
26378W        W98704   0.966  13.768  13.599
26379W        W98705  27.209   8.319  12.491
26380W        W98706  20.187  14.325  11.604
26381W        W98707  38.709  26.496   4.122
26382W        W98708   8.192  28.593   4.632
26383W        W98709  27.672   3.599   2.740
26384W        W98710  43.362   1.635   1.887
26385W        W98711   4.852   9.389  11.999
26386W        W98712  36.145  36.157  13.956
26387W        W98713  38.970  16.207   1.880
26388W        W98714   3.747  14.462   4.682
26389W        W98715  14.565  27.235   4.267
26390W        W98716  25.737  33.779   1.629
26391W        W98717  40.308  18.792   5.115
26392W        W98718   3.317   0.334   3.837
26393W        W98719  12.337  32.924  14.262
26394W        W98720  15.243   2.388   4.700
26395W        W98721  37.921  37.869  12.422
26396W        W98722  27.466  18.998  12.103
26397W        W98723   2.181  12.311   0.707
26398W        W98724   9.279  20.024  14.163
26399W        W98725  26.511  44.950   4.113
26400W        W98726  23.075  27.438   1.414
26401W        W98727  34.356  30.410  11.227
26402W        W98728   0.920  34.549  10.744
26403W        W98729  38.570  35.557  12.443
26404W        W98730  38.026  26.047  14.298
26405W        W98731  25.719  13.143  13.983
26406W        W98732   5.947  37.882  14.960
26407W        W98733  24.769  23.220  13.200
26408W        W98734  17.769  38.649   4.141
26409W        W98735  30.138  17.176  11.196
26410W        W98736  32.085  40.520  12.368
26411W        W98737  15.601  34.152   2.271
26412W        W98738  25.121  16.158   1.434
26413W        W98739  16.651   2.702   4.654
26414W        W98740  18.329  34.085  11.947
26415W        W98741  41.749  11.420   1.951
26416W        W98742  17.798  28.139  12.461
26417W        W98743  43.308  44.791   4.227
26418W        W98744   8.149   9.009  14.685
26419W        W98745  26.752  33.760   3.341
26420W        W98746  39.346   8.212   2.828
26421W        W98747  32.469  35.679   2.662
26422W        W98748  12.874  33.397  10.339
26423W        W98749  22.993  15.143   3.823
26424W        W98750   3.295  28.995  14.952
26425W        W98751  28.960  17.654  14.930
26426W        W98752  31.102  34.396  12.123
26427W        W98753  21.754  30.147   3.768
26428W        W98754  26.560   7.842  10.762
26429W        W98755  11.240  16.784  12.373
26430W        W98756   5.344  35.814  11.548
26431W        W98757  16.754   3.677   4.251
26432W        W98758  28.587  16.050   3.142
26433W        W98759  28.579  12.647   1.081
26434W        W98760  44.559  15.253   2.947
26435W        W98761   6.573   6.358   1.378
26436W        W98762  16.960  38.883  10.390
26437W        W98763   7.885  37.877   3.611
26438W        W98764  19.846   4.031  11.941
26439W        W98765   7.608  32.836   1.244
26440W        W98766  37.101  33.821   4.105
26441W        W98767   6.279  17.511  11.617
26442W        W98768  17.018  42.488  14.547
26443W        W98769  13.294  37.903  10.985
26444W        W98770  35.120  37.093   9.989
26445W        W98771  42.093  44.033  13.775
26446W        W98772  10.574  30.903   0.761
26447W        W98773  11.711  21.298  11.210
26448W        W98774  32.972  33.526  10.356
26449W        W98775  44.709  19.893  12.637
26450W        W98776  34.986  38.034   4.519
26451W        W98777  34.768   6.136   3.606
26452W        W98778   9.384  34.355   2.762
26453W        W98779  34.596  40.584   3.152
26454W        W98780  18.269  11.348   1.968
26455W        W98781  16.100   4.404   3.498
26456W        W98782  32.911   7.821  12.955
26457W        W98783  29.700  10.974   2.835
26458W        W98784  12.815  35.475  12.976
26459W        W98785  14.376   2.702   4.729
26460W        W98786   0.867  31.163   3.643
26461W        W98787  15.559  36.399   0.579
26462W        W98788  23.876  42.787  11.501
26463W        W98789  35.373  30.113   2.487
26464W        W98790  40.863  11.290   0.676
26465W        W98791   2.339  12.112   3.622
26466W        W98792  39.300  25.722   2.744
26467W        W98793   4.913  38.817   3.776
26468W        W98794  22.958   2.969  12.924
26469W        W98795  32.876   9.795  11.914
26470W        W98796  38.339  15.680   2.939
26471W        W98797   4.983   1.675  10.235
26472W        W98798   8.269  13.099  11.977
26473W        W98799  23.595  34.642   4.666
26474W        W98800  35.778  25.197   2.371
26475W        W98801   3.962  24.106  12.949
26476W        W98802  32.823  30.097   3.248
26477W        W98803   1.405  20.129   1.454
26478W        W98804  25.919  39.939  11.080
26479W        W98805   7.816  17.743   2.648
26480W        W98806  30.681   2.002   0.810
26481W        W98807   3.397   1.523   2.727
26482W        W98808  36.384  36.562  14.970
26483W        W98809  40.841   3.986  14.726
26484W        W98810  29.070   7.432   4.599
26485W        W98811  10.085  39.240  13.902
26486W        W98812   4.732  21.768   1.941
26487W        W98813  33.848  13.648  13.367
26488W        W98814  24.135  40.973   0.509
26489W        W98815  13.754  34.083  11.433
26490W        W98816  43.023  17.254   1.925
26491W        W98817  12.038   6.915  14.000
26492W        W98818   0.248  17.535  11.205
26493W        W98819  31.220   3.156  11.979
26494W        W98820  30.697  33.378  14.514
26495W        W98821   5.829  30.497  11.340
26496W        W98822  11.368  25.518   3.809
26497W        W98823  12.096   4.775   2.746
26498W        W98824  34.408  44.219   0.000
26499W        W98825  19.596  29.049   4.650
26500W        W98826  39.504  39.984  12.921
26501W        W98827  17.313  26.718   1.260
26502W        W98828  21.385  32.100  11.733
26503W        W98829  41.945  43.303  14.446
26504W        W98830  24.658  44.231   3.160
26505W        W98831   9.947  28.010   0.708
26506W        W98832  18.006  44.859  12.042
26507W        W98833  14.771  27.922   1.189
26508W        W98834  15.485  36.882   0.063
26509W        W98835  36.800  43.063   0.761
26510W        W98836  37.957  16.570  10.792
26511W        W98837  36.051  25.319  11.628
26512W        W98838  17.714  26.351  10.936
26513W        W98839   4.803  37.325   5.186
26514W        W98840   9.459  22.538  14.995
26515W        W98841  37.329   1.369   4.458
26516W        W98842   6.357  38.871  12.412
26517W        W98843  12.883   3.923   1.796
26518W        W98844   1.337  38.263  14.991
26519W        W98845  29.452  25.280   2.227
26520W        W98846   4.033  24.499  13.746
26521W        W98847  41.880  22.203   4.571
26522W        W98848  23.545  30.732  11.540
26523W        W98849  13.738  22.700   0.386
26524W        W98850  11.693  11.091   3.089
26525W        W98851  10.120  38.393  11.098
26526W        W98852  20.371   1.421   4.279
26527W        W98853  44.191  21.855  14.985
26528W        W98854  18.801   4.457  10.684
26529W        W98855  43.987   2.973   2.864
26530W        W98856  36.393  19.809  14.819
26531W        W98857  25.915  40.484   4.615
26532W        W98858   8.667  34.147  12.808
26533W        W98859  28.848  39.302  14.874
26534W        W98860  10.645  15.125   1.218
26535W        W98861   9.276  10.076   4.737
26536W        W98862   3.223  38.535   4.258
26537W        W98863  29.348  27.086   0.260
26538W        W98864   1.035  28.421  14.893
26539W        W98865  22.780  16.251  14.985
26540W        W98866  20.601  18.573   3.764
26541W        W98867   6.267   6.767  12.542
26542W        W98868  22.567  10.664  11.552
26543W        W98869   1.875   6.390  14.564
26544W        W98870  34.997  24.112   2.905
26545W        W98871  17.864   1.695   3.705
26546W        W98872  21.600  24.232  11.626
26547W        W98873  31.485   7.287  10.602
26548W        W98874  34.888  11.237  14.187
26549W        W98875  14.031  28.592  12.848
26550W        W98876  37.866  43.408  12.609
26551W        W98877  37.119   6.730   1.296
26552W        W98878  39.438  42.057   0.562
26553W        W98879  37.894  37.388  10.591
26554W        W98880  25.579  13.225  13.370
26555W        W98881  11.423  29.750  14.898
26556W        W98882  30.015  37.046   2.644
26557W        W98883  32.130  24.776   3.794
26558W        W98884  32.565   0.465  13.869
26559W        W98885  29.927  24.098   0.275
26560W        W98886  32.009   3.176  12.374
26561W        W98887  14.550  12.163   2.844
26562W        W98888  17.141   7.586  11.942
26563W        W98889  33.974  15.804  14.937
26564W        W98890  27.739  18.102  13.263
26565W        W98891  25.235   9.416  11.418
26566W        W98892   5.117  35.907  12.394
26567W        W98893  24.494  15.773  11.374
26568W        W98894  21.011  27.400   0.953
26569W        W98895   4.814  23.849  11.098
26570W        W98896  14.828  41.406   3.654
26571W        W98897  39.814  10.714   1.222
26572W        W98898  22.642  22.922   4.351
26573W        W98899  35.212  17.789   4.125
26574W        W98900  42.445   4.811   2.608
26575W        W98901   4.056  19.602  14.935
26576W        W98902  30.927   3.305  10.145
26577W        W98903  39.519  34.108  11.606
26578W        W98904  11.870  26.593   1.016
26579W        W98905  17.928   9.414   4.592
26580W        W98906   9.255  36.745   2.832
26581W        W98907  20.621  11.894  13.630
26582W        W98908  40.371  22.101   0.258
26583W        W98909   7.344  18.949   3.786
26584W        W98910  31.881  32.924  12.975
26585W        W98911   2.962  25.508   4.030
26586W        W98912  10.377  39.054   1.215
26587W        W98913  32.002  25.452   2.947
26588W        W98914   7.111  25.473   4.099
26589W        W98915  39.249  37.888  10.993
26590W        W98916  31.616  29.387   2.746
26591W        W98917   6.728  34.052   2.863
26592W        W98918   5.919  19.672  13.861
26593W        W98919  15.700  32.149  10.841
26594W        W98920   3.465  11.214   2.300
26595W        W98921   5.811  21.506   4.706
26596W        W98922   5.438  11.745  14.818
26597W        W98923   7.198  39.890  12.821
26598W        W98924  23.042  32.487   2.859
26599W        W98925  41.341  37.901   0.711
26600W        W98926  32.747  41.413  11.165
26601W        W98927  37.930  39.022   4.348
26602W        W98928  29.998   4.723  11.189
26603W        W98929  15.695   1.416  13.880
26604W        W98930  22.697  24.116   0.395
26605W        W98931  16.352  25.998  14.151
26606W        W98932  35.448  29.218  10.485
26607W        W98933  35.592  37.483   1.951
26608W        W98934   3.787   2.279  12.947
26609W        W98935  23.232   3.183   2.614
26610W        W98936  38.938  41.306  12.584
26611W        W98937  25.156  22.141   3.789
26612W        W98938  41.521  22.679  11.187
26613W        W98939  20.877  39.907  13.294
26614W        W98940  29.495  23.407  14.961
26615W        W98941  18.133  17.733  11.188
26616W        W98942   8.712  33.574   2.159
26617W        W98943   9.721  13.216   4.874
26618W        W98944   9.326  11.958   2.841
26619W        W98945   5.601  16.637   0.056
26620W        W98946  29.230  19.411   4.956
26621W        W98947  23.421  13.504   3.182
26622W        W98948   2.218  23.694   2.703
26623W        W98949  25.368   8.023  12.067
26624W        W98950   3.061   5.832  10.181
26625W        W98951  24.598  35.566  11.374
26626W        W98952   5.414  19.987   4.311
26627W        W98953  21.508  30.551   3.987
26628W        W98954  42.543  11.297  11.411
26629W        W98955  41.584  27.903   4.892
26630W        W98956  20.616  25.491  13.149
26631W        W98957  22.252  38.008   2.463
26632W        W98958  27.975  16.844   3.486
26633W        W98959   2.021   2.098  11.631
26634W        W98960   0.342  11.252   0.883
26635W        W98961  42.384  34.578  13.352
26636W        W98962  41.452  38.031   3.683
26637W        W98963  15.556  42.499   2.362
26638W        W98964  33.281   9.782  12.744
26639W        W98965  34.869  12.005  11.880
26640W        W98966   0.854  29.039  13.624
26641W        W98967  15.122  14.618   2.693
26642W        W98968  20.693   2.721   0.271
26643W        W98969  10.672  23.082   4.133
26644W        W98970   0.057   6.871  11.217
26645W        W98971   9.186  39.009   0.720
26646W        W98972  23.712   5.089  11.373
26647W        W98973  38.381  19.894  13.739
26648W        W98974  41.623  44.298  13.545
26649W        W98975  28.098  30.466  11.191
26650W        W98976  16.155  40.052   0.251
26651W        W98977  37.108  24.598  13.091
26652W        W98978  11.354   0.226   1.765
26653W        W98979  38.477  11.226  14.373
26654W        W98980  21.199   1.103   0.285
26655W        W98981  17.961  35.949  11.664
26656W        W98982   7.655  25.700   2.885
26657W        W98983  35.933  24.665   3.678
26658W        W98984  27.191  16.705   1.305
26659W        W98985  19.415  11.298   3.695
26660W        W98986   5.818  40.706   4.452
26661W        W98987  18.103  16.278   4.481
26662W        W98988  29.146  31.492  11.524
26663W        W98989   6.241  12.349  10.760
26664W        W98990  10.836  30.947   4.705
26665W        W98991   2.672  36.332   3.605
26666W        W98992  35.303  13.249  14.816
26667W        W98993  38.845  19.126  12.203
26668W        W98994  38.376  25.429   4.644
26669W        W98995  39.775  39.978  12.471
26670W        W98996   0.273   1.545   4.033
26671W        W98997  31.982  24.243  12.909
26672W        W98998  17.702  14.199   3.618
26673W        W98999  36.600  34.090  10.103
26674W        W99000  21.491  10.590   2.348
26675W        W99001   0.505  15.045  14.254
26676W        W99002  38.048  14.194   3.733
26677W        W99003  17.165   2.927   3.207
26678W        W99004  17.717   6.241   1.645
26679W        W99005  33.873  43.064   3.741
26680W        W99006   2.764   4.476  10.620
26681W        W99007  31.552  30.627   1.494
26682W        W99008   2.295  27.430   1.790
26683W        W99009  22.286  18.561   3.842
26684W        W99010  41.429  27.593  14.726
26685W        W99011  39.991  14.025  13.600
26686W        W99012  36.309  39.932  14.520
26687W        W99013  34.490  29.176  10.459
26688W        W99014  43.935  39.370   3.155
26689W        W99015  27.750   1.385   0.235
26690W        W99016   9.445  29.912  11.541
26691W        W99017  32.945   2.167   4.795
26692W        W99018  27.202  26.657   4.087
26693W        W99019  36.945  14.531  13.394
26694W        W99020   2.977  11.369  12.127
26695W        W99021  42.259  34.007   4.158
26696W        W99022   3.666   1.049  12.474
26697W        W99023  25.535   7.150   0.696
26698W        W99024  29.223  40.937  13.337
26699W        W99025  32.897  34.410   2.714
26700W        W99026   7.585  20.499  12.997
26701W        W99027  44.914   4.800   2.212
26702W        W99028  34.186  29.406   4.161
26703W        W99029   6.257  27.089  10.735
26704W        W99030  10.816  28.619   4.224
26705W        W99031  27.622  41.927  14.233
26706W        W99032   2.597  10.646   0.296
26707W        W99033  33.783   0.938   1.331
26708W        W99034  36.998   8.150  13.969
26709W        W99035  17.097   2.428  13.324
26710W        W99036  36.412  42.737   3.470
26711W        W99037  36.608  37.465  11.017
26712W        W99038  39.271  28.064  13.867
26713W        W99039   2.749  42.274   4.601
26714W        W99040  37.407  40.273   1.743
26715W        W99041  17.024  30.602  11.209
26716W        W99042  25.261   4.443  14.969
26717W        W99043  27.708  43.093   4.493
26718W        W99044  21.011  42.453   5.277
26719W        W99045   7.722  22.619  13.001
26720W        W99046  35.121  12.396  12.495
26721W        W99047   2.922  35.853  14.917
26722W        W99048   7.300  23.685   1.441
26723W        W99049  28.968   6.947  13.609
26724W        W99050  13.125  42.006  14.374
26725W        W99051  17.434   2.962  14.488
26726W        W99052   6.395  37.195   3.224
26727W        W99053  33.350  30.075  14.494
26728W        W99054  15.646  16.547  11.153
26729W        W99055  31.274  37.044  11.915
26730W        W99056  24.194   4.351  12.323
26731W        W99057  13.674  41.827   1.437
26732W        W99058  11.150  20.496  11.563
26733W        W99059  36.093   9.608   0.281
26734W        W99060  16.141  39.897   3.230
26735W        W99061  27.234  22.358   1.239
26736W        W99062  34.655   1.537   0.362
26737W        W99063  43.493  38.799   0.161
26738W        W99064  25.448  38.066   0.271
26739W        W99065  11.814  14.845   0.323
26740W        W99066  37.946  35.579  14.671
26741W        W99067  27.736  12.709   2.885
26742W        W99068  39.954  32.878  14.277
26743W        W99069  21.549   7.803  12.475
26744W        W99070   1.854   1.524   2.305
26745W        W99071  31.822   3.616   4.263
26746W        W99072  44.962  41.042   4.173
26747W        W99073  34.835  10.106  11.527
26748W        W99074  35.691   3.804  11.252
26749W        W99075  44.459  15.215  10.020
26750W        W99076  16.054  33.595   4.590
26751W        W99077  27.337  21.701  11.434
26752W        W99078  42.273  13.159   1.948
26753W        W99079  41.315  14.263   3.094
26754W        W99080   3.425   1.798   1.893
26755W        W99081  11.743   8.766  14.488
26756W        W99082  36.996  13.393  10.114
26757W        W99083   4.388  40.456  13.981
26758W        W99084  41.919  15.550   0.248
26759W        W99085  35.493  19.058  12.571
26760W        W99086   0.347  19.791   1.481
26761W        W99087  34.530  22.812  10.438
26762W        W99088  21.454  36.590  11.156
26763W        W99089  14.082  32.126   3.172
26764W        W99090  29.082  22.558  11.498
26765W        W99091  13.110  27.545  11.615
26766W        W99092  38.765  22.493  10.694
26767W        W99093  12.161  31.017   1.280
26768W        W99094  32.636  28.969  12.497
26769W        W99095  15.182  26.471   0.365
26770W        W99096  29.891  29.479  14.320
26771W        W99097  10.782  15.893   3.195
26772W        W99098  44.187   8.786  14.850
26773W        W99099  29.502  44.952   4.355
26774W        W99100  40.307  38.588   3.289
26775W        W99101   1.071  20.711   3.318
26776W        W99102  33.163  26.633  11.133
26777W        W99103   8.160  27.941  11.143
26778W        W99104  43.062  17.717  11.227
26779W        W99105  23.837  30.638  13.075
26780W        W99106  26.839  38.420  11.021
26781W        W99107  28.724  17.294   1.774
26782W        W99108  37.507  25.944   0.548
26783W        W99109  40.820  34.651   0.439
26784W        W99110  11.642  32.208   1.271
26785W        W99111   3.806   0.984   4.419
26786W        W99112   2.058  20.471   1.271
26787W        W99113  44.776   0.600   0.290
26788W        W99114  13.089  38.415   2.703
26789W        W99115  12.043  37.575   4.591
26790W        W99116  32.081  35.407   2.856
26791W        W99117  29.666   3.660   2.256
26792W        W99118   1.849  23.084   2.137
26793W        W99119   1.756  40.036  11.524
26794W        W99120  13.718   0.012   2.293
26795W        W99121  14.064  38.185   0.319
26796W        W99122  41.217   4.798  10.550
26797W        W99123  14.314  26.203   4.606
26798W        W99124  37.217  41.324  11.761
26799W        W99125   5.193   9.494  14.883
26800W        W99126   5.319  37.772  13.370
26801W        W99127  23.184  43.067   5.106
26802W        W99128   2.431   5.347   0.132
26803W        W99129  26.546  34.524  11.171
26804W        W99130   4.736  10.986   5.468
26805W        W99131  23.445   8.900   3.062
26806W        W99132  23.620  29.869   0.249
26807W        W99133  20.196  40.457  12.878
26808W        W99134  10.127  19.211   2.788
26809W        W99135  44.142   1.994   2.371
26810W        W99136   4.662   9.416   5.011
26811W        W99137  24.144  35.501   4.510
26812W        W99138   4.369   4.391  12.232
26813W        W99139  12.734  30.888  12.786
26814W        W99140  13.126  12.621   1.922
26815W        W99141   1.763  10.735   2.798
26816W        W99142  35.410  26.992   2.912
26817W        W99143  25.229  41.959   3.355
26818W        W99144   3.893  31.049  12.911
26819W        W99145  41.043  20.784  13.740
26820W        W99146  22.040  20.083   0.722
26821W        W99147  36.683  25.206  11.980
26822W        W99148  28.285  24.167   3.226
26823W        W99149  32.863  25.599   0.290
26824W        W99150  40.565  19.613   4.081
26825W        W99151  16.843  19.007  13.814
26826W        W99152  29.984   6.633  11.576
26827W        W99153  44.702  26.515   3.172
26828W        W99154  13.852  15.405   0.736
26829W        W99155  10.122  22.026  13.354
26830W        W99156  12.864  34.039   5.432
26831W        W99157   7.363   7.295   0.695
26832W        W99158  17.702   4.870  11.402
26833W        W99159  33.425   7.714  14.419
26834W        W99160  27.974  39.557  13.290
26835W        W99161  35.968   8.924   4.513
26836W        W99162  31.108  33.487  11.051
26837W        W99163  29.439   4.850   1.987
26838W        W99164   2.740  42.988  14.033
26839W        W99165   5.356  21.300  13.362
26840W        W99166  38.061  21.076   0.986
26841W        W99167  22.074   7.404  12.874
26842W        W99168  30.148  34.393  12.062
26843W        W99169   3.291   6.180  11.569
26844W        W99170  21.222   7.713  14.547
26845W        W99171  40.737  25.598   2.635
26846W        W99172  38.993  11.792  10.972
26847W        W99173  35.438   8.913  14.910
26848W        W99174   8.754  15.165   4.623
26849W        W99175  37.744   2.336   4.154
26850W        W99176  21.055  11.359  14.276
26851W        W99177   0.243  19.089   2.857
26852W        W99178  24.712  16.567  13.278
26853W        W99179  24.508  14.273  12.548
26854W        W99180  15.063  41.001  11.396
26855W        W99181  22.500  32.711   3.634
26856W        W99182  43.787   2.471  14.245
26857W        W99183   4.950  40.603  11.400
26858W        W99184   7.655  42.400   4.675
26859W        W99185  16.666   8.779   2.926
26860W        W99186  42.453  27.751  13.932
26861W        W99187  36.896  14.185   3.226
26862W        W99188   1.676  30.207   4.193
26863W        W99189  16.190  13.003  13.007
26864W        W99190  28.001  13.738  11.460
26865W        W99191   2.757  25.135   1.325
26866W        W99192  41.296  30.549   0.440
26867W        W99193   1.857  27.709  13.371
26868W        W99194  13.048  40.484   3.256
26869W        W99195  36.975  33.965  11.048
26870W        W99196   2.837  19.470   3.411
26871W        W99197  40.852  43.334   2.396
26872W        W99198  10.764  16.241   0.005
26873W        W99199  38.037  30.265   0.452
26874W        W99200  28.148  21.719   0.221
26875W        W99201   3.230  30.728   2.156
26876W        W99202  40.588  34.544   2.338
26877W        W99203  42.371  13.206  13.576
26878W        W99204  30.460   5.010   0.240
26879W        W99205  18.675  38.872  12.475
26880W        W99206  37.484  34.216   1.905
26881W        W99207  21.720  24.011   3.326
26882W        W99208  39.457  34.541   0.492
26883W        W99209   4.306  30.714   0.759
26884W        W99210  23.243  33.170   4.060
26885W        W99211  29.448   2.777  12.870
26886W        W99212   0.974  32.635   3.402
26887W        W99213  42.313  12.647   2.125
26888W        W99214  44.718   7.258  11.152
26889W        W99215   6.329   4.262   4.272
26890W        W99216  38.401  38.448   1.635
26891W        W99217  31.937  40.926  10.328
26892W        W99218   8.928  17.852  14.429
26893W        W99219   5.988   8.796  13.832
26894W        W99220  12.694   1.727   1.439
26895W        W99221   4.380  34.375  14.875
26896W        W99222  26.928  12.678  10.553
26897W        W99223  26.989  38.730  12.173
26898W        W99224  10.549  24.488  10.649
26899W        W99225  43.298  18.830  13.304
26900W        W99226  24.006  15.693  14.589
26901W        W99227  13.135  34.402   9.646
26902W        W99228   6.962  41.094   0.252
26903W        W99229   3.438  40.385  10.972
26904W        W99230  36.461  35.447   2.486
26905W        W99231  19.057  40.976   4.334
26906W        W99232  18.909  33.926   2.928
26907W        W99233  26.000   1.247  14.488
26908W        W99234   5.405  20.447   3.209
26909W        W99235  40.036  17.331  13.392
26910W        W99236  35.877   6.695   4.365
26911W        W99237  43.113   8.322  11.018
26912W        W99238  42.532  18.198  12.092
26913W        W99239  32.307  10.385  14.434
26914W        W99240  35.689   3.296  12.510
26915W        W99241  19.143  28.270   0.459
26916W        W99242  24.540   9.393  11.173
26917W        W99243  20.379   6.328   0.808
26918W        W99244   6.204  17.305  14.796
26919W        W99245  38.894  22.302  12.044
26920W        W99246  27.103  11.684  14.518
26921W        W99247  15.128  33.943   2.336
26922W        W99248   7.943   7.774   0.058
26923W        W99249  13.279   5.626  14.533
26924W        W99250  44.933  11.349  11.946
26925W        W99251  39.347  21.417  13.470
26926W        W99252  34.080  15.133  13.718
26927W        W99253  40.039  33.407   1.861
26928W        W99254   0.828  12.381  13.109
26929W        W99255   6.840  39.582  11.676
26930W        W99256   3.161  16.761  13.016
26931W        W99257  40.021  44.704  11.595
26932W        W99258   2.247  16.294  14.942
26933W        W99259  33.473  35.652  13.517
26934W        W99260  15.736  33.060   2.276
26935W        W99261   5.957  19.699   3.310
26936W        W99262  34.593  23.323  10.452
26937W        W99263  15.668  21.963  12.554
26938W        W99264   4.029  37.419  13.091
26939W        W99265  36.917  34.365  12.506
26940W        W99266  10.255   6.752  12.291
26941W        W99267   2.710   9.481   3.807
26942W        W99268  36.627  30.996   3.697
26943W        W99269  10.878  32.956  10.687
26944W        W99270   1.237  13.621   0.379
26945W        W99271  32.491  26.172  13.240
26946W        W99272  14.045  15.005   2.244
26947W        W99273  26.242  18.557   5.117
26948W        W99274  25.623  16.131  12.199
26949W        W99275  23.828  44.636   3.316
26950W        W99276  18.717  29.620  12.884
26951W        W99277   4.282   0.563  11.207
26952W        W99278  35.778  16.593  11.873
26953W        W99279   9.188  26.455   2.159
26954W        W99280   7.376  28.690  13.101
26955W        W99281  36.348  15.799  11.487
26956W        W99282  44.733   6.762   3.030
26957W        W99283   2.344   1.298  10.243
26958W        W99284  34.068   6.406  11.512
26959W        W99285  33.838   1.074  13.456
26960W        W99286  13.730  24.551   4.992
26961W        W99287  28.371  17.232  11.160
26962W        W99288  40.393  29.324   4.210
26963W        W99289  18.566  42.370   1.351
26964W        W99290  20.706  17.576  12.131
26965W        W99291   9.288  44.418   4.504
26966W        W99292  23.021  40.076  12.962
26967W        W99293  36.504   5.673  12.409
26968W        W99294  44.444   0.803  11.675
26969W        W99295  28.389  28.320  14.931
26970W        W99296  29.142   8.754  12.436
26971W        W99297  39.495  25.521  13.287
26972W        W99298   6.199  37.504   0.875
26973W        W99299  25.243   9.735   2.210
26974W        W99300  39.821   9.230   4.612
26975W        W99301   3.241  20.206  14.981
26976W        W99302   1.943  20.953  14.435
26977W        W99303  37.991  30.819  12.496
26978W        W99304  32.910  18.704   3.668
26979W        W99305  43.273  26.485   0.408
26980W        W99306  16.237  40.074   3.709
26981W        W99307   8.652   8.341   0.998
26982W        W99308   1.168   0.235  14.523
26983W        W99309   7.793   3.148  14.449
26984W        W99310  14.437  37.049   3.797
26985W        W99311   4.778   3.623   4.991
26986W        W99312   6.337  35.690  13.957
26987W        W99313  10.819   3.520  14.478
26988W        W99314  19.714  21.055  12.083
26989W        W99315  12.750  10.648   4.593
26990W        W99316   5.689  42.772   2.796
26991W        W99317   6.845   9.803  13.630
26992W        W99318  26.527  11.241   0.789
26993W        W99319   9.169  25.454   2.288
26994W        W99320  41.410  28.176  12.633
26995W        W99321  33.122  22.514   0.497
26996W        W99322  29.105  20.930  12.895
26997W        W99323  29.126  28.941   2.289
26998W        W99324   5.660  38.106  11.434
26999W        W99325  16.239  23.457   0.691
27000W        W99326   9.448  32.538   1.380
27001W        W99327   0.432  20.987  12.448
27002W        W99328  24.425  30.474  11.555
27003W        W99329  42.871  22.403  12.467
27004W        W99330  14.800  32.414  12.455
27005W        W99331   1.425  17.322   2.785
27006W        W99332  33.398  35.146  10.264
27007W        W99333  17.556   9.154  10.701
27008W        W99334   2.527   4.462  12.925
27009W        W99335   4.387  16.679  13.826
27010W        W99336  16.232  38.946  10.889
27011W        W99337  36.863  12.241  13.203
27012W        W99338  12.392  29.622   4.256
27013W        W99339  15.541  11.163   2.197
27014W        W99340   2.629  11.371   4.972
27015W        W99341  32.424   8.749  14.436
27016W        W99342  33.843  32.130  13.739
27017W        W99343  10.631  20.262  14.497
27018W        W99344  39.885  39.876  14.446
27019W        W99345  23.012   4.840  14.702
27020W        W99346  11.365  12.748  14.470
27021W        W99347  37.460  29.547  12.576
27022W        W99348   1.313   5.900   3.221
27023W        W99349   9.162  40.806   2.624
27024W        W99350  21.532  23.625  11.080
27025W        W99351  20.530  19.326  14.021
27026W        W99352  22.936  15.642   1.937
27027W        W99353  25.328   9.186  13.514
27028W        W99354   4.156  23.652  14.953
27029W        W99355  27.618  19.278   4.145
27030W        W99356  33.207  32.152  12.942
27031W        W99357  18.024  23.173  12.143
27032W        W99358  23.510   6.773   0.009
27033W        W99359  10.378  37.911   2.708
27034W        W99360   5.766  18.250  13.501
27035W        W99361  25.653  26.876  11.112
27036W        W99362  40.845  20.837  12.894
27037W        W99363  20.211  26.062  13.971
27038W        W99364  16.811  13.757  13.912
27039W        W99365  24.121  37.084  11.083
27040W        W99366   5.809   0.617  11.315
27041W        W99367  25.018  22.105   2.697
27042W        W99368  39.979   0.970   3.719
27043W        W99369  27.594  38.441   4.760
27044W        W99370  13.713  34.155  13.583
27045W        W99371  41.614  18.111   4.067
27046W        W99372  11.661  39.483  10.978
27047W        W99373   7.257  11.396  11.956
27048W        W99374  23.332  13.558  14.463
27049W        W99375  25.433  19.190  11.717
27050W        W99376  28.747  34.838   4.758
27051W        W99377  27.274   0.341   0.528
27052W        W99378  39.558  32.850   4.225
27053W        W99379  33.156  42.017   1.509
27054W        W99380  12.438  44.975   0.644
27055W        W99381   0.026   1.194   0.962
27056W        W99382  21.479   6.863  13.629
27057W        W99383  12.849  26.597   1.836
27058W        W99384  11.640  26.750  10.217
27059W        W99385  13.288  20.154   2.616
27060W        W99386  39.045  17.944  13.963
27061W        W99387   8.824   9.657   0.791
27062W        W99388  43.801  26.710   4.121
27063W        W99389  25.276   3.839   2.236
27064W        W99390  22.208  26.308   5.384
27065W        W99391  12.454   4.138  13.467
27066W        W99392  20.008  32.985   2.820
27067W        W99393  29.987  41.014   2.216
27068W        W99394  30.226  15.123   3.171
27069W        W99395  28.552  32.189  11.407
27070W        W99396  31.380  23.065   0.968
27071W        W99397  20.567  24.985   2.161
27072W        W99398  24.152  44.717  13.150
27073W        W99399  32.681  18.528   4.719
27074W        W99400  17.064  26.704  11.636
27075W        W99401   4.240  35.223   4.581
27076W        W99402   1.532  17.781   0.671
27077W        W99403   1.933  20.450   5.096
27078W        W99404  13.914   6.970  11.967
27079W        W99405  26.534  43.512   4.189
27080W        W99406  31.507  13.212   1.433
27081W        W99407   2.419   7.819  14.028
27082W        W99408  28.602  12.315   4.271
27083W        W99409  27.241  39.874  14.038
27084W        W99410  43.091  27.192   4.244
27085W        W99411  11.135   2.147   3.732
27086W        W99412  42.438  24.659  12.900
27087W        W99413   1.851  38.972   0.300
27088W        W99414  42.254  24.206  11.145
27089W        W99415  13.336  41.029  10.600
27090W        W99416  13.767  31.423  11.956
27091W        W99417  26.915  41.964  11.890
27092W        W99418  27.060  27.145   4.567
27093W        W99419  28.876   3.670  12.584
27094W        W99420   2.418  42.786  12.539
27095W        W99421  38.043  36.365  10.604
27096W        W99422  23.473  44.734   4.189
27097W        W99423  33.978  13.064  10.572
27098W        W99424  37.914  23.677   1.857
27099W        W99425  22.900   1.488   0.748
27100W        W99426  28.442   0.363   3.640
27101W        W99427   2.311  17.636  10.901
27102W        W99428   1.326   5.675  10.636
27103W        W99429  41.462  19.608   4.792
27104W        W99430  38.047  14.677   0.385
27105W        W99431   1.274   1.173  11.738
27106W        W99432  20.721  18.645  12.578
27107W        W99433  24.902  16.063   2.689
27108W        W99434  19.387  39.845  11.877
27109W        W99435  41.054  11.386  11.400
27110W        W99436  17.481   9.430   2.654
27111W        W99437  23.680   6.744   2.317
27112W        W99438  19.688  38.906   0.435
27113W        W99439  41.424   9.616  14.600
27114W        W99440  27.226  26.544  13.013
27115W        W99441  10.705   0.888  14.086
27116W        W99442  11.790  40.826  12.992
27117W        W99443  30.890  15.225  12.307
27118W        W99444  29.171   7.373  14.421
27119W        W99445  39.050  42.052  10.621
27120W        W99446  39.057  35.324  11.701
27121W        W99447   3.908  13.712  13.519
27122W        W99448  42.379   0.502   1.241
27123W        W99449  22.029  12.376  12.105
27124W        W99450   7.305  31.575  12.812
27125W        W99451  33.762   6.913  14.014
27126W        W99452  44.384  44.535   0.609
27127W        W99453  19.473  13.796   1.018
27128W        W99454   2.314   1.372  13.968
27129W        W99455   2.332  42.898   4.680
27130W        W99456   1.003  35.014   4.573
27131W        W99457  33.597  15.383  11.592
27132W        W99458  27.016   9.223   2.210
27133W        W99459  35.056   4.487   2.384
27134W        W99460  29.070  34.533   2.397
27135W        W99461  28.582  35.103  14.769
27136W        W99462  26.977  28.577   5.068
27137W        W99463  40.291   0.888  14.983
27138W        W99464  42.123  36.610   1.422
27139W        W99465   5.872   7.576   5.071
27140W        W99466  44.310   7.844   0.232
27141W        W99467  20.616  33.470  12.363
27142W        W99468  14.563  34.901  14.368
27143W        W99469  13.363  37.484   0.484
27144W        W99470  31.359  32.776  13.529
27145W        W99471  17.708  22.525   3.123
27146W        W99472   9.346  35.839   0.300
27147W        W99473  40.157  23.396  14.286
27148W        W99474  31.370  42.903   1.952
27149W        W99475  31.520  16.576  12.131
27150W        W99476   4.102  20.108  11.997
27151W        W99477   7.330   2.244   3.196
27152W        W99478  18.106  12.911  11.710
27153W        W99479  22.050  37.650  13.374
27154W        W99480  42.353  20.941  14.764
27155W        W99481   5.617  20.512   3.770
27156W        W99482   3.758  25.520   1.180
27157W        W99483  41.857   0.843  12.572
27158W        W99484   1.943  13.129  14.518
27159W        W99485   6.933  18.201  11.664
27160W        W99486  18.735  21.173  12.025
27161W        W99487  11.622   5.980  12.622
27162W        W99488  35.450  37.361  13.057
27163W        W99489   7.421   1.190  12.957
27164W        W99490   7.731   3.748  10.811
27165W        W99491   2.712   8.253   4.878
27166W        W99492  40.305  40.323   3.790
27167W        W99493  11.739   0.438   2.700
27168W        W99494  27.595  44.954  12.440
27169W        W99495  23.929  40.023   3.903
27170W        W99496  20.038  17.746   4.566
27171W        W99497   4.482  31.010   3.289
27172W        W99498  26.414  41.399  12.318
27173W        W99499  31.647  19.105   3.257
27174W        W99500   1.733   3.430   0.319
27175W        W99501  12.213   6.422  13.913
27176W        W99502   9.134   2.016   0.349
27177W        W99503  27.161  36.133   3.747
27178W        W99504   2.353  21.530  10.857
27179W        W99505   6.943  21.726   1.797
27180W        W99506  33.360   6.815   4.420
27181W        W99507   2.851  10.252  12.572
27182W        W99508  29.896  31.692   3.662
27183W        W99509  37.397  31.371  12.142
27184W        W99510  19.206  31.386  13.292
27185W        W99511   7.349  10.568   0.812
27186W        W99512  36.342  13.570  13.465
27187W        W99513  16.103  26.428  11.081
27188W        W99514  17.117  27.147   2.691
27189W        W99515  30.148  43.588   3.201
27190W        W99516  15.700  15.203   4.385
27191W        W99517   4.366  37.048  10.663
27192W        W99518  43.808  44.921   1.360
27193W        W99519  31.147  29.138   3.257
27194W        W99520  26.202  43.309  11.982
27195W        W99521  10.383   5.244  13.237
27196W        W99522  10.241  44.997   4.602
27197W        W99523   9.886  35.383  10.775
27198W        W99524  25.603  12.669   4.241
27199W        W99525  35.827  43.983  14.400
27200W        W99526  27.971  38.757   1.210
27201W        W99527  35.542  20.265   0.998
27202W        W99528   6.779  24.296   1.911
27203W        W99529  24.766  17.749   9.750
27204W        W99530  24.057  11.046  11.442
27205W        W99531   8.551   0.255  10.623
27206W        W99532  20.567  19.598  11.353
27207W        W99533  27.063  17.716  14.733
27208W        W99534  23.560  40.985  14.307
27209W        W99535  33.059  41.569   1.835
27210W        W99536  39.565  37.821   0.373
27211W        W99537   6.154  21.816   2.132
27212W        W99538  37.556  31.446  14.389
27213W        W99539  33.227  43.908   0.655
27214W        W99540  33.479  22.255   2.272
27215W        W99541  18.638  12.950  10.584
27216W        W99542   4.333  33.107  14.347
27217W        W99543  16.072  26.602   1.421
27218W        W99544  32.506  36.637   4.331
27219W        W99545  37.982  24.949   0.275
27220W        W99546  25.239  34.013  13.970
27221W        W99547  34.943  36.060   0.191
27222W        W99548   4.907  14.480   0.773
27223W        W99549  17.678  15.585  14.613
27224W        W99550  10.773  22.287  12.523
27225W        W99551  24.671  43.411  14.423
27226W        W99552  40.935  31.740  13.427
27227W        W99553  30.133   7.038  14.958
27228W        W99554  30.816  20.587  11.145
27229W        W99555   0.197  21.605  10.627
27230W        W99556  25.164  21.604  11.488
27231W        W99557  33.701  32.564  10.575
27232W        W99558  42.280  24.046  12.891
27233W        W99559  31.972   4.151  14.315
27234W        W99560   2.187   5.306   3.702
27235W        W99561  32.766   8.425  13.594
27236W        W99562  22.054  21.722   0.921
27237W        W99563  24.643  35.540  14.945
27238W        W99564  44.535  20.352   1.198
27239W        W99565   5.308   8.495  13.135
27240W        W99566  37.152   6.866   4.548
27241W        W99567  20.207  14.384  13.010
27242W        W99568  23.130   1.709  14.426
27243W        W99569  31.947  44.081  11.518
27244W        W99570   7.366  20.442  14.840
27245W        W99571  31.836  40.389   4.787
27246W        W99572   7.426  37.705   1.588
27247W        W99573  34.014  18.276   3.222
27248W        W99574  29.537   1.421   2.169
27249W        W99575  16.880   6.383   2.854
27250W        W99576  32.425  13.155   3.747
27251W        W99577  27.163  22.968  14.328
27252W        W99578  14.542   8.371   3.763
27253W        W99579  23.212   1.369  13.565
27254W        W99580  42.289   9.894   2.253
27255W        W99581  43.377  17.809  11.969
27256W        W99582  13.298   1.352  14.601
27257W        W99583  18.709  27.185   3.256
27258W        W99584  10.904   9.165   2.341
27259W        W99585  16.729  43.432   3.210
27260W        W99586  17.666   3.928   0.876
27261W        W99587  23.012   4.356  11.539
27262W        W99588  23.876  40.030  14.428
27263W        W99589  13.244  30.466   1.828
27264W        W99590  42.299  18.550  14.060
27265W        W99591  33.274  23.281   4.055
27266W        W99592  26.297  40.780  12.970
27267W        W99593  13.186  12.032  12.208
27268W        W99594  32.330  13.627  11.974
27269W        W99595  31.962  17.246   2.403
27270W        W99596  40.887   7.724   0.300
27271W        W99597  23.598  37.275  14.718
27272W        W99598  36.741  15.076  12.677
27273W        W99599  35.423  20.197   3.826
27274W        W99600  40.501  34.962   1.949
27275W        W99601   2.548  41.969   2.276
27276W        W99602   1.294  19.114   1.764
27277W        W99603  25.937  24.187   1.767
27278W        W99604  23.834  17.772   4.368
27279W        W99605  18.843  33.194  12.113
27280W        W99606  32.135   9.738   1.198
27281W        W99607  26.683   2.671  13.447
27282W        W99608  29.468  13.087   1.299
27283W        W99609  20.547   8.367  11.045
27284W        W99610  24.999  34.604  14.175
27285W        W99611  43.760  10.383  12.109
27286W        W99612   5.772  19.708   4.040
27287W        W99613  38.309  30.077   4.633
27288W        W99614  21.498  24.727  11.602
27289W        W99615  39.768  16.830  10.650
27290W        W99616  38.555   6.459  11.989
27291W        W99617  27.274   2.790   2.342
27292W        W99618  36.856  15.495  12.969
27293W        W99619  42.518  21.612   3.936
27294W        W99620   5.455  41.066   3.239
27295W        W99621   9.905  42.799  12.663
27296W        W99622  21.236  14.792  11.079
27297W        W99623  18.422  26.545  14.479
27298W        W99624  44.769  35.418  10.492
27299W        W99625  35.677  24.211   3.863
27300W        W99626   6.437  13.642  12.374
27301W        W99627  38.922   6.983   4.933
27302W        W99628  33.503  43.545  12.917
27303W        W99629  35.238  17.075   1.871
27304W        W99630  38.051  29.562  13.447
27305W        W99631   7.345  17.227   1.161
27306W        W99632  26.575  12.305   2.356
27307W        W99633  29.454   9.646  13.575
27308W        W99634  23.008  13.669  11.480
27309W        W99635  32.486   1.501   1.021
27310W        W99636  40.807   0.909   4.260
27311W        W99637  43.763  20.324   1.948
27312W        W99638  10.222  11.779  11.796
27313W        W99639  24.448   7.111  10.833
27314W        W99640  14.630  34.309   2.347
27315W        W99641   7.044  20.056  14.848
27316W        W99642  10.112   1.949  13.064
27317W        W99643  28.893  36.017  14.411
27318W        W99644  33.662  13.793  13.814
27319W        W99645  37.436  28.878   2.700
27320W        W99646  23.322   7.369   1.643
27321W        W99647  41.378  13.599  14.455
27322W        W99648  42.957  11.424  11.147
27323W        W99649  13.373  14.089  13.703
27324W        W99650   6.677   7.655   1.757
27325W        W99651  36.053  43.524   1.341
27326W        W99652  27.711  44.814   4.737
27327W        W99653  33.555  41.354   1.831
27328W        W99654  43.994   5.276   3.136
27329W        W99655  10.074   4.807  11.309
27330W        W99656  30.420  16.310   2.848
27331W        W99657  18.693  33.422  11.671
27332W        W99658   2.654  33.500   3.768
27333W        W99659  18.075  41.418   2.857
27334W        W99660  28.395  33.153  11.629
27335W        W99661  15.728  41.817   2.849
27336W        W99662  29.715  21.137  10.730
27337W        W99663  14.786  30.398  10.703
27338W        W99664  33.459   7.337  14.024
27339W        W99665  34.986  42.355   1.068
27340W        W99666  22.988  20.704  14.813
27341W        W99667   7.816   1.381   1.966
27342W        W99668  24.027  31.686   9.944
27343W        W99669  16.078   9.754  12.153
27344W        W99670  43.093  12.775   1.790
27345W        W99671   3.763  22.345  13.477
27346W        W99672  38.141  26.448   4.154
27347W        W99673   0.835   5.874  12.582
27348W        W99674  31.708  27.620  12.990
27349W        W99675  31.773  29.487  12.844
27350W        W99676  10.349  25.084   3.250
27351W        W99677   7.638  14.075  11.549
27352W        W99678  24.379  42.293   2.388
27353W        W99679  18.199  27.107  13.368
27354W        W99680  30.958   7.627  11.460
27355W        W99681  15.433  17.735   0.271
27356W        W99682  30.544  15.708  12.406
27357W        W99683  21.299   7.967  11.197
27358W        W99684  37.693  44.047   3.861
27359W        W99685  40.033   3.029   4.953
27360W        W99686  22.558  30.548   2.630
27361W        W99687  33.324  19.709  14.092
27362W        W99688   0.427   1.377   0.654
27363W        W99689  17.582  39.437  14.523
27364W        W99690  22.778  39.335   3.317
27365W        W99691  19.352  12.065  13.424
27366W        W99692  32.914  14.877   1.849
27367W        W99693   5.459   3.301  13.947
27368W        W99694  31.349   1.708   2.766
27369W        W99695  32.853  36.412  12.981
27370W        W99696  32.929  10.804  12.936
27371W        W99697  33.557  12.076   0.907
27372W        W99698  20.489  34.090   1.031
27373W        W99699  43.159   7.853   4.043
27374W        W99700   5.657   5.325   1.317
27375W        W99701  30.370  25.984  10.328
27376W        W99702   5.619  16.134  11.926
27377W        W99703  33.628   4.346  14.140
27378W        W99704   6.975  25.141  14.414
27379W        W99705   3.782  26.242   4.225
27380W        W99706  14.282  25.549  11.226
27381W        W99707  11.006   0.477  10.572
27382W        W99708  44.472  25.585  13.625
27383W        W99709  23.954   0.309  11.113
27384W        W99710  26.102  35.425   0.966
27385W        W99711   7.708  12.254   3.158
27386W        W99712   9.183  25.761  10.839
27387W        W99713  21.676   2.772  12.627
27388W        W99714   6.360  10.436   2.783
27389W        W99715  33.606  38.326   0.710
27390W        W99716  42.702  41.391   3.350
27391W        W99717  20.452  33.677   1.744
27392W        W99718  24.993  40.643   4.136
27393W        W99719  40.306   7.191   0.767
27394W        W99720  28.431   1.356   4.271
27395W        W99721  33.188  13.311  11.055
27396W        W99722   6.015  37.118   2.691
27397W        W99723  43.915  12.363  11.856
27398W        W99724  12.234  43.581   1.497
27399W        W99725  35.972  11.877   9.980
27400W        W99726  26.414   0.094   0.763
27401W        W99727  15.105  15.868   5.049
27402W        W99728  41.039  34.371  14.901
27403W        W99729   8.836  40.997  12.017
27404W        W99730  44.892  15.702   1.028
27405W        W99731   9.091   7.338  12.306
27406W        W99732  23.005  26.972  11.505
27407W        W99733  30.897  19.622  11.937
27408W        W99734  11.420  24.548   2.705
27409W        W99735  14.753   4.178  13.352
27410W        W99736  31.137  37.551   3.336
27411W        W99737  44.824   9.652   3.661
27412W        W99738  36.275  15.598   2.043
27413W        W99739  26.815   0.951   4.587
27414W        W99740   7.371  43.501   1.666
27415W        W99741  27.980  32.339  13.481
27416W        W99742  38.011  11.120   0.420
27417W        W99743  37.356  14.299   4.111
27418W        W99744  39.286  36.543   2.730
27419W        W99745  33.416  12.627   1.626
27420W        W99746  31.018  29.171  13.370
27421W        W99747  44.366  39.595   3.346
27422W        W99748  16.967  28.233   1.396
27423W        W99749  42.524  43.272   4.500
27424W        W99750   7.366  11.823   3.879
27425W        W99751  25.441  42.960   4.062
27426W        W99752  38.945  44.286  14.469
27427W        W99753  11.810  36.844   3.713
27428W        W99754   1.224  39.951   3.376
27429W        W99755  31.470  24.505  11.730
27430W        W99756  19.037  29.012   3.577
27431W        W99757   4.281  34.607  13.397
27432W        W99758  21.657  12.098  11.243
27433W        W99759  20.795   6.675  11.474
27434W        W99760   4.243  23.586   3.662
27435W        W99761  23.868  19.181  11.936
27436W        W99762  29.072  21.586   0.249
27437W        W99763  28.898   7.808  14.434
27438W        W99764   1.439  34.319  10.773
27439W        W99765  39.348  43.079   4.590
27440W        W99766  31.452  21.644   0.899
27441W        W99767  26.886  35.147  14.177
27442W        W99768  19.221  21.964   2.844
27443W        W99769   1.689  33.847  11.387
27444W        W99770  23.570  17.376   9.579
27445W        W99771  23.963   4.373   3.536
27446W        W99772   5.690  18.076   1.884
27447W        W99773  24.699  36.344   4.208
27448W        W99774  24.774   0.807  11.611
27449W        W99775  44.982  22.661   4.209
27450W        W99776   1.272  13.072  10.674
27451W        W99777  40.219  23.271   1.856
27452W        W99778   1.522  42.343  11.026
27453W        W99779  24.125  23.100  10.458
27454W        W99780  38.683   9.934   1.877
27455W        W99781  15.545  25.557  13.008
27456W        W99782  18.411  11.295  12.783
27457W        W99783   6.000   7.737  10.719
27458W        W99784  22.664   0.427  11.199
27459W        W99785   1.558  37.113  14.324
27460W        W99786  13.316  42.105   1.720
27461W        W99787   0.109  13.090  13.546
27462W        W99788  15.726   0.169  11.503
27463W        W99789  24.667  11.818  14.263
27464W        W99790  24.932  29.284  13.911
27465W        W99791   0.364   4.295   1.642
27466W        W99792   4.916  28.488   4.086
27467W        W99793  41.964  23.677  14.876
27468W        W99794  38.587  34.854   1.852
27469W        W99795   1.681   4.758   0.979
27470W        W99796  10.261  16.108   0.986
27471W        W99797   2.833   0.454   0.836
27472W        W99798  20.967  43.663  14.267
27473W        W99799  24.315  34.864   0.311
27474W        W99800  17.200  11.761   3.693
27475W        W99801  26.271  15.254   4.613
27476W        W99802  14.782  20.152   3.189
27477W        W99803  28.380  12.798  12.964
27478W        W99804   6.110   8.775   1.315
27479W        W99805   2.329  44.872   1.933
27480W        W99806  17.568  17.634  12.930
27481W        W99807  41.768  41.967   2.060
27482W        W99808   5.105  17.079  14.469
27483W        W99809  18.176  39.024  12.097
27484W        W99810  24.267   5.292  14.364
27485W        W99811  30.978  17.309  12.090
27486W        W99812  28.678   9.686  13.935
27487W        W99813  16.841  16.297   1.307
27488W        W99814  32.711  25.759  12.493
27489W        W99815  36.599  14.227   1.903
27490W        W99816  26.005  31.121   4.751
27491W        W99817  38.424   9.636  12.630
27492W        W99818  40.918  32.579  11.989
27493W        W99819  36.968  31.125  12.230
27494W        W99820  23.453  32.014  12.094
27495W        W99821  41.663  38.999   3.267
27496W        W99822  32.073  44.953  12.878
27497W        W99823  40.430  27.980  11.643
27498W        W99824  41.223   2.963   4.002
27499W        W99825  35.516  20.749  11.884
27500W        W99826   7.690   2.542   4.693
27501W        W99827  16.819  26.943   3.083
27502W        W99828  23.540  36.550   4.936
27503W        W99829  13.424  20.260   3.097
27504W        W99830   2.371  23.294   4.291
27505W        W99831  41.355  26.239  11.169
27506W        W99832   1.636   9.594  11.130
27507W        W99833  28.364   9.454  10.698
27508W        W99834  18.632  26.514  11.963
27509W        W99835  11.240  10.812   1.860
27510W        W99836  27.468   2.973  12.109
27511W        W99837  38.840  29.019  13.941
27512W        W99838  21.097  10.068  13.322
27513W        W99839  11.968   1.724  14.936
27514W        W99840  41.452  25.922   0.861
27515W        W99841  38.745  39.642  11.272
27516W        W99842  14.298  38.967   4.343
27517W        W99843  29.448  39.072  14.403
27518W        W99844  33.741  20.521  12.541
27519W        W99845  12.093  41.472   3.256
27520W        W99846  18.131   3.472  12.134
27521W        W99847  12.962  38.459  10.335
27522W        W99848  15.320  36.685   4.223
27523W        W99849   5.089  43.262   3.259
27524W        W99850  23.267  18.310   2.204
27525W        W99851  28.181  40.974   0.110
27526W        W99852  27.227  11.066   1.733
27527W        W99853  28.978  29.185   1.870
27528W        W99854   4.540  10.315   4.998
27529W        W99855   2.454  32.983   2.376
27530W        W99856  43.733  21.528   2.797
27531W        W99857  22.699   9.240  14.453
27532W        W99858  35.068   2.027  11.110
27533W        W99859  22.789   4.108   0.367
27534W        W99860  17.606  40.267  11.043
27535W        W99861  33.235  10.115  11.732
27536W        W99862  25.063  31.161  11.131
27537W        W99863  36.632  18.111   2.379
27538W        W99864   2.679  37.198  11.500
27539W        W99865   5.401  27.482   2.429
27540W        W99866   9.295  11.648  13.875
27541W        W99867  30.532  37.046  12.986
27542W        W99868   2.989   8.611   3.643
27543W        W99869  19.782  31.388  13.148
27544W        W99870  38.290  34.631  10.726
27545W        W99871  16.191  32.031  12.652
27546W        W99872  15.195  10.435   0.761
27547W        W99873  39.723  29.879  14.747
27548W        W99874   9.120   9.599   1.902
27549W        W99875   7.593  27.520  13.609
27550W        W99876  20.665  25.118   1.675
27551W        W99877  25.259  38.920   2.401
27552W        W99878  23.083  17.317  14.272
27553W        W99879   6.945  33.113  12.000
27554W        W99880  35.918  28.046  13.503
27555W        W99881  35.001  17.583   4.560
27556W        W99882  18.968   7.639   2.198
27557W        W99883  13.364  13.821   1.377
27558W        W99884  36.526   2.329  13.741
27559W        W99885  26.140  29.184   1.212
27560W        W99886  31.551  30.475  12.163
27561W        W99887  15.843   5.819   4.661
27562W        W99888  20.768  22.991   3.802
27563W        W99889  27.617  35.872  13.120
27564W        W99890  10.381  23.608  14.854
27565W        W99891  17.031   6.661  14.860
27566W        W99892   6.627  17.829   0.981
27567W        W99893  35.504  17.218  11.167
27568W        W99894  32.950  25.671  10.619
27569W        W99895  22.303  32.560   2.159
27570W        W99896   2.933  41.151  10.723
27571W        W99897   7.833   2.026   4.574
27572W        W99898  17.224  36.541  13.539
27573W        W99899  27.528   1.476  14.345
27574W        W99900  18.863  40.041  13.458
27575W        W99901  37.389  19.404  14.552
27576W        W99902   2.910  29.022   3.312
27577W        W99903  15.123  14.578  12.131
27578W        W99904  25.770   7.665  11.999
27579W        W99905  10.310  30.846   3.308
27580W        W99906  15.453  42.879   4.998
27581W        W99907  23.926   3.755  14.295
27582W        W99908  15.184  32.456  13.365
27583W        W99909   3.404   8.856  12.909
27584W        W99910  23.160   9.589   0.734
27585W        W99911  41.024   6.198   1.253
27586W        W99912  34.076  24.519  13.604
27587W        W99913  13.182  27.367   3.798
27588W        W99914  37.664  24.976  12.072
27589W        W99915  35.540  40.652   1.796
27590W        W99916   3.039  35.885  13.977
27591W        W99917  19.529  29.593  14.886
27592W        W99918  16.589   8.914   1.827
27593W        W99919  37.312   8.636   4.309
27594W        W99920  16.242  35.769  12.914
27595W        W99921  20.040  12.188  10.481
27596W        W99922  16.742  42.525  13.029
27597W        W99923  27.160   0.895   3.264
27598W        W99924  11.626  29.286   2.342
27599W        W99925   8.656  10.416   2.345
27600W        W99926  31.449  30.746  12.599
27601W        W99927  13.663  20.947   3.792
27602W        W99928  23.237  32.437  12.956
27603W        W99929  40.165  27.457   3.278
27604W        W99930  14.111  12.344  12.650
27605W        W99931  37.171  21.591   1.041
27606W        W99932   3.714  12.232  11.582
27607W        W99933  23.247  21.670   2.957
27608W        W99934   4.001  34.942   2.276
27609W        W99935  21.436  11.727  12.384
27610W        W99936  15.688  34.541  12.744
27611W        W99937  16.745  20.448  11.321
27612W        W99938  40.726  25.866  13.784
27613W        W99939   2.678  40.596  13.842
27614W        W99940  31.034  24.671   0.732
27615W        W99941  11.290  24.198  11.869
27616W        W99942  27.141   0.755  12.545
27617W        W99943  12.806  27.426  13.718
27618W        W99944  19.491  16.589  13.883
27619W        W99945  34.009  40.248   3.976
27620W        W99946  28.150  23.310   2.817
27621W        W99947  44.432  32.078  14.012
27622W        W99948  37.524  26.227  12.876
27623W        W99949  33.560  38.580  13.907
27624W        W99950  31.336  23.599   0.928
27625W        W99951   0.419   8.426  13.441
27626W        W99952  13.522  41.772  14.628
27627W        W99953  27.159  12.657  11.457
27628W        W99954  43.547  33.883   5.002
27629W        W99955  40.868  42.884   2.646
27630W        W99956  23.489   7.796  14.555
27631W        W99957  14.096  15.230   1.366
27632W        W99958  10.192  25.159   4.680
27633W        W99959  39.957  24.416  14.361
27634W        W99960  34.046  11.196   4.082
27635W        W99961  19.297  25.123   3.387
27636W        W99962  17.372  31.990  11.089
27637W        W99963  41.174  11.420  12.325
27638W        W99964   0.890  33.351  14.636
27639W        W99965  24.508  16.645  10.652
27640W        W99966  34.008  41.477  13.353
27641W        W99967  26.677   7.141  11.956
27642W        W99968  39.103  26.655   2.352
27643W        W99969  27.548  42.625  11.121
27644W        W99970   1.843   5.442  10.507
27645W        W99971  12.272  12.100  10.563
27646W        W99972  19.504   5.958   2.019
27647W        W99973   8.677  11.219  10.899
27648W        W99974  16.749  13.178  11.228
27649W        W99975  12.796  30.335   3.845
27650W        W99976   0.488  32.960  13.553
27651W        W99977  30.021  38.503   4.694
27652W        W99978  34.542   1.704  11.337
27653W        W99979  35.952  30.603   2.741
27654W        W99980  25.521   0.471  14.154
27655W        W99981  41.456  11.678  14.059
27656W        W99982   6.090  15.187   4.328
27657W        W99983  18.748   3.024   4.130
27658W        W99984   7.742  26.984  13.883
27659W        W99985   3.696  23.088   5.043
27660W        W99986  42.764   9.472  11.060
27661W        W99987  35.853  33.873  10.522
27662W        W99988  22.158  25.471   2.697
27663W        W99989   9.833  44.414   4.318
27664W        W99990  35.115  36.544   0.363
27665W        W99991  37.332  18.250   0.900
27666W        W99992  29.390  21.306  11.789
27667W        W99993  19.682  32.448   3.919
27668W        W99994  19.671  44.989  14.843
27669W        W99995  27.672  10.661   0.618
27670W        W99996  29.590  25.537  14.830
27671W        W99997  28.079  32.147  14.286
27672W        W99998  10.443   7.122   0.695
27673W        W99999   3.879   2.383  14.366
27674W        W    0   1.741  37.493   4.160
27675W        W    1  36.081  44.774   0.156
27676W        W    2  28.974  40.133  11.989
27677W        W    3  20.584  18.128  11.889
27678W        W    4   9.290   3.027   0.361
27679W        W    5  30.703  22.052  14.046
27680W        W    6  41.343  43.910  13.339
27681W        W    7  15.159  39.515  12.317
27682W        W    8  24.073  36.923  12.002
27683W        W    9  16.500  34.047  12.504
27684W        W   10  41.442  25.823   1.831
27685W        W   11  43.856  16.032  10.747
27686W        W   12  27.932  43.792  13.342
27687W        W   13  36.882  41.868   4.377
27688W        W   14  12.660  16.669  10.649
27689W        W   15  44.015  28.378  14.056
27690W        W   16  20.516   8.201   0.433
27691W        W   17  30.701  36.401   4.165
27692W        W   18  22.193   1.969   0.960
27693W        W   19  15.126  17.521  12.586
27694W        W   20   3.771  20.461   1.710
27695W        W   21  29.084  43.335  10.579
27696W        W   22  13.054  44.470  11.076
27697W        W   23  24.197  29.495   1.872
27698W        W   24  27.264  43.910  11.562
27699W        W   25   8.435   9.233  10.342
27700W        W   26   4.389  27.690   2.356
27701W        W   27  12.306  44.043   4.002
27702W        W   28   1.330  36.942   4.570
27703W        W   29  24.492  15.709  10.859
27704W        W   30  31.324  40.213   3.276
27705W        W   31  17.280  44.807  12.834
27706W        W   32  32.138   8.635  14.907
27707W        W   33  43.001  22.561  14.802
27708W        W   34  30.420  42.035  11.584
27709W        W   35  41.246  42.329   3.611
27710W        W   36  22.986   9.269  12.099
27711W        W   37  18.347  14.843  14.890
27712W        W   38  40.363   4.723   1.725
27713W        W   39  28.511  12.721   2.243
27714W        W   40  44.161  20.989  11.522
27715W        W   41  26.133   3.463  12.438
27716W        W   42  43.405  43.593   0.733
27717W        W   43  26.116  15.261   2.552
27718W        W   44  24.529   8.819  11.498
27719W        W   45  36.084  30.246  13.924
27720W        W   46   4.216  20.886   0.368
27721W        W   47  23.968  25.101   5.089
27722W        W   48   7.479  17.601  13.476
27723W        W   49  10.191  24.546   0.513
27724W        W   50  44.803  30.271  13.407
27725W        W   51   4.559  22.198  10.642
27726W        W   52  37.922  17.328   4.474
27727W        W   53   0.465  43.942  14.827
27728W        W   54  13.230   5.715   0.402
27729W        W   55  28.538  35.845   1.981
27730W        W   56   2.553  10.935   0.981
27731W        W   57  36.892   4.022   2.359
27732W        W   58  41.110  13.642  11.524
27733W        W   59  15.293   1.334   0.977
27734W        W   60  20.992  10.308   4.645
27735W        W   61  35.094  11.727  14.227
27736W        W   62  21.722   5.105  13.107
27737W        W   63  32.877  20.817  12.604
27738W        W   64  23.433  12.248  11.245
27739W        W   65  14.344  15.267  13.602
27740W        W   66   9.691   4.433  13.906
27741W        W   67  13.216  36.915  14.297
27742W        W   68  39.830  35.988  13.755
27743W        W   69  17.788  35.781  10.720
27744W        W   70  24.469   1.806   2.105
27745W        W   71  43.442  43.048  12.907
27746W        W   72   2.939  36.154  11.533
27747W        W   73  33.909  41.038  12.459
27748W        W   74  16.260  42.834  11.515
27749W        W   75  15.200   0.049   1.739
27750W        W   76  35.025   0.976   0.729
27751W        W   77   3.092   5.811  13.279
27752W        W   78  14.619  40.080  12.155
27753W        W   79  25.037  12.288   2.823
27754W        W   80  13.670   1.598  11.623
27755W        W   81  14.377  32.615   2.192
27756W        W   82  24.528  19.769   4.030
27757W        W   83  38.458  41.628   2.172
27758W        W   84  40.038  26.321   0.211
27759W        W   85  23.853   1.921  12.824
27760W        W   86  30.316  22.438  13.941
27761W        W   87   6.507   4.950   0.256
27762W        W   88  26.665  24.517  10.903
27763W        W   89  33.402  36.927   0.514
27764W        W   90  32.748  21.701   4.561
27765W        W   91   8.153   0.510   4.401
27766W        W   92   1.764   6.624   1.838
27767W        W   93   4.221  32.501   3.018
27768W        W   94  35.625  23.923   2.545
27769W        W   95   4.334  35.601   4.217
27770W        W   96  41.536  30.925   1.241
27771W        W   97  19.953   8.844  11.455
27772W        W   98  21.686   9.946  12.236
27773W        W   99  20.054   8.028   0.646
27774W        W  100  38.397  16.684  13.972
27775W        W  101  17.070   8.048  12.749
27776W        W  102  34.953  14.986   0.979
27777W        W  103  26.342  20.973  13.474
27778W        W  104  19.621   6.756  12.343
27779W        W  105  39.047   7.922   4.167
27780W        W  106  23.772  39.978   2.646
27781W        W  107  11.840  29.131  12.074
27782W        W  108  16.675   1.247  13.030
27783W        W  109  35.599  37.323   1.471
27784W        W  110  27.065   0.836  14.788
27785W        W  111   2.387  41.299  13.521
27786W        W  112  33.119   5.253  12.416
27787W        W  113  11.758  24.777  12.551
27788W        W  114  13.053   5.622   4.085
27789W        W  115  31.209  17.754  13.011
27790W        W  116  23.019  22.329  11.640
27791W        W  117   8.509   3.426   2.508
27792W        W  118  24.216   4.443  10.462
27793W        W  119  28.016   1.824   0.161
27794W        W  120   1.730  39.954   0.523
27795W        W  121  30.373  20.149   0.304
27796W        W  122  22.486  31.865   3.279
27797W        W  123  34.819   7.741  14.785
27798W        W  124   0.287  13.903   2.273
27799W        W  125  37.186   3.239  10.982
27800W        W  126  10.911  20.643   3.726
27801W        W  127  32.333  30.271   4.670
27802W        W  128  34.929   2.883  13.700
27803W        W  129  26.912  34.344  11.929
27804W        W  130  27.532  24.961   3.698
27805W        W  131  25.104  28.501  10.691
27806W        W  132  42.313  18.094   3.223
27807W        W  133   2.769  35.118   1.817
27808W        W  134  19.069   0.538   2.026
27809W        W  135  12.818   3.768  14.230
27810W        W  136  31.983   8.455  14.042
27811W        W  137  30.870  29.659  13.267
27812W        W  138  29.686  10.286   3.129
27813W        W  139  30.946   6.623   2.789
27814W        W  140  27.738  37.001   2.945
27815W        W  141  38.967  41.559  11.660
27816W        W  142  35.362   1.988   2.371
27817W        W  143   8.200  42.764  12.908
27818W        W  144   8.209  11.073   0.905
27819W        W  145  38.970  22.749  11.097
27820W        W  146   0.803  28.108  13.452
27821W        W  147  15.189  30.004   1.005
27822W        W  148  28.011  33.136  11.958
27823W        W  149  24.563  29.681   4.421
27824W        W  150   3.214  17.018   0.724
27825W        W  151  11.020  24.549  12.143
27826W        W  152  19.073  29.999   2.674
27827W        W  153  31.991   7.964  11.619
27828W        W  154  39.662  28.407   3.304
27829W        W  155  41.215   6.234  13.419
27830W        W  156  24.189   3.433   2.731
27831W        W  157  20.696   2.707  12.381
27832W        W  158   8.687  36.719   4.299
27833W        W  159  24.634  38.872   5.122
27834W        W  160  18.215   5.630  14.054
27835W        W  161  41.344  19.711   1.456
27836W        W  162  20.964  27.570   3.806
27837W        W  163  39.905   3.192  14.475
27838W        W  164  35.348  29.383  11.006
27839W        W  165  42.887  41.399   0.866
27840W        W  166  27.895  20.824   4.240
27841W        W  167   8.227  29.570  14.750
27842W        W  168  44.796   2.511   0.515
27843W        W  169   3.180  28.871  13.037
27844W        W  170  42.692  33.517   5.223
27845W        W  171  36.989  38.845  10.783
27846W        W  172  44.954  10.310  14.971
27847W        W  173   7.067  41.012  12.578
27848W        W  174  43.682  13.145   2.224
27849W        W  175  26.559  33.924  13.035
27850W        W  176  38.354  20.488  13.472
27851W        W  177  30.681  14.109  10.486
27852W        W  178  20.591   2.978   0.785
27853W        W  179  22.081   2.314  11.437
27854W        W  180  13.910  40.504  14.974
27855W        W  181  23.233  30.552   0.759
27856W        W  182  35.978  21.663   3.346
27857W        W  183  14.343  31.162  10.699
27858W        W  184   1.503  18.510  11.091
27859W        W  185  22.494  40.406   4.384
27860W        W  186  27.973  27.980   1.807
27861W        W  187  26.101  17.495   3.884
27862W        W  188   6.016  34.057  13.416
27863W        W  189  14.367  34.478   4.209
27864W        W  190  28.828  15.344   1.383
27865W        W  191  10.700  36.536   1.046
27866W        W  192  44.670  41.370  11.177
27867W        W  193  34.902  43.293   4.246
27868W        W  194   3.197  44.525  11.045
27869W        W  195   9.096  21.695   4.173
27870W        W  196   9.812  27.941   2.309
27871W        W  197  36.539  23.191  10.642
27872W        W  198  35.405  42.930  12.514
27873W        W  199  42.766  30.331   4.618
27874W        W  200  24.744  41.880   3.150
27875W        W  201   3.483  35.205   4.677
27876W        W  202  21.925   9.658   0.410
27877W        W  203  40.573  40.914   1.251
27878W        W  204   4.145  35.818  12.958
27879W        W  205  12.465  31.158  10.660
27880W        W  206  25.419  37.425   3.790
27881W        W  207  38.390  23.187  12.000
27882W        W  208   1.981  26.570  14.485
27883W        W  209   8.482  32.354  11.192
27884W        W  210   7.499   1.962   2.785
27885W        W  211   0.144   4.179  12.931
27886W        W  212  13.592  24.368  11.316
27887W        W  213  27.264  16.302  14.035
27888W        W  214  33.864  30.060   2.155
27889W        W  215   0.821  23.860   4.617
27890W        W  216  16.137  18.338  13.506
27891W        W  217  19.238   8.666  13.914
27892W        W  218   4.918   0.349  13.316
27893W        W  219   5.617  15.613   1.789
27894W        W  220  21.442  41.162  12.007
27895W        W  221   1.775  27.243   1.742
27896W        W  222  10.959   4.766  11.890
27897W        W  223  16.634  12.547  14.118
27898W        W  224   1.731  21.781   0.279
27899W        W  225  27.269  36.191  14.828
27900W        W  226  29.103  16.632   2.358
27901W        W  227  20.714  27.460  14.685
27902W        W  228  30.448  15.522   4.162
27903W        W  229  44.405  24.097  11.578
27904W        W  230   5.739   7.222  13.420
27905W        W  231  12.138  44.468  10.614
27906W        W  232  38.386   4.790  11.432
27907W        W  233  16.588  36.375   2.233
27908W        W  234  23.374   2.052  12.931
27909W        W  235   6.798   5.341   3.242
27910W        W  236   2.506  22.176   1.420
27911W        W  237  40.693   4.887  14.047
27912W        W  238  44.987   9.800  13.468
27913W        W  239  40.018  33.658  13.627
27914W        W  240   5.971  27.034   3.136
27915W        W  241   0.979  31.592  13.193
27916W        W  242  11.723   4.257  10.544
27917W        W  243   3.862  28.942   2.281
27918W        W  244  44.871  23.168   4.136
27919W        W  245  23.231  23.120  13.885
27920W        W  246  16.827   8.371  11.015
27921W        W  247   4.764  29.614   0.602
27922W        W  248  11.805  37.008   3.236
27923W        W  249   5.163  29.552   4.128
27924W        W  250  10.316  22.460  11.413
27925W        W  251   6.777  19.316   0.156
27926W        W  252  14.308   4.406  13.541
27927W        W  253   5.378  30.108  13.354
27928W        W  254  33.547  42.759  13.429
27929W        W  255   9.781  34.925   1.618
27930W        W  256  21.168  29.066  14.388
27931W        W  257   7.281  13.881  12.005
27932W        W  258  36.629  22.590  13.852
27933W        W  259  29.361  21.801  12.995
27934W        W  260  43.855  43.468  10.618
27935W        W  261  18.257  43.787   2.284
27936W        W  262   7.384  42.933   2.927
27937W        W  263  21.003  23.584  12.014
27938W        W  264   4.871  38.674   4.780
27939W        W  265  28.669  43.268  13.976
27940W        W  266   3.368  43.984   4.637
27941W        W  267  20.972  28.425   4.385
27942W        W  268  23.788  25.800  11.049
27943W        W  269  36.974   5.806   0.837
27944W        W  270   0.815  43.628  10.348
27945W        W  271  23.152  27.182   0.882
27946W        W  272  11.971  22.661   1.384
27947W        W  273   7.462  29.177  13.310
27948W        W  274  30.906  13.370  13.285
27949W        W  275  11.272   3.258  14.547
27950W        W  276   4.917   5.308  14.190
27951W        W  277  38.399  26.549   2.285
27952W        W  278   3.970  15.789  12.366
27953W        W  279  25.530  33.245   2.347
27954W        W  280  19.697  12.352   0.329
27955W        W  281  24.244  35.408   1.843
27956W        W  282  11.179  35.402  13.446
27957W        W  283  35.533  24.440   2.462
27958W        W  284  19.559  44.465  14.821
27959W        W  285  15.785  17.380  13.055
27960W        W  286   3.701  35.021   1.243
27961W        W  287  34.640  32.130  10.107
27962W        W  288   7.293  15.184   4.578
27963W        W  289  25.491   9.456   3.689
27964W        W  290  34.423  22.429  14.940
27965W        W  291  17.277  43.404  13.510
27966W        W  292  14.323  37.343  11.681
27967W        W  293  24.628   4.437   0.208
27968W        W  294   2.755  26.053  12.991
27969W        W  295  29.700  17.664  12.282
27970W        W  296  29.116  35.057  14.977
27971W        W  297  27.222  32.573  11.056
27972W        W  298  16.282  10.687   2.391
27973W        W  299  10.990  26.441  11.977
27974W        W  300  21.126  37.504   1.915
27975W        W  301  39.497  33.124  11.943
27976W        W  302  34.962  13.324  10.662
27977W        W  303  31.062  18.768  12.952
27978W        W  304  31.354  14.467  11.608
27979W        W  305  22.621  39.787   3.528
27980W        W  306  25.803  22.231  14.423
27981W        W  307  43.165  20.668  12.853
27982W        W  308   4.172   8.358  13.001
27983W        W  309  11.571  10.395   2.011
27984W        W  310  31.551  28.725  14.282
27985W        W  311  39.944  30.186   1.236
27986W        W  312  16.578  11.353  13.298
27987W        W  313  36.565   2.967   1.854
27988W        W  314  34.091  35.470   1.255
27989W        W  315  26.449  28.080   3.137
27990W        W  316   1.883  33.118   4.443
27991W        W  317   3.188  13.230   2.399
27992W        W  318  37.870  24.952   1.959
27993W        W  319  28.643  43.359  11.816
27994W        W  320  28.698  30.947  11.869
27995W        W  321  15.737  43.325   0.756
27996W        W  322  23.587  16.981  10.249
27997W        W  323   7.873  41.516   4.056
27998W        W  324  12.868   6.507   2.818
27999W        W  325  42.453  20.166  14.097
28000W        W  326  42.953   6.144  11.145
28001W        W  327  30.930  14.317  12.900
28002W        W  328  22.496  12.305   1.328
28003W        W  329  44.721   6.237  13.383
28004W        W  330  16.723  41.012  13.438
28005W        W  331   2.643  14.715   3.079
28006W        W  332  43.717   6.444  12.012
28007W        W  333  11.110  35.065   3.888
28008W        W  334  19.466   2.877   2.693
28009W        W  335  17.730   5.379  14.062
28010W        W  336  28.547   3.828   4.183
28011W        W  337  15.264  27.674  10.971
28012W        W  338  33.410   0.436  14.280
28013W        W  339   1.815  15.259   0.862
28014W        W  340   6.869  32.545  14.251
28015W        W  341  14.589   4.794  12.513
28016W        W  342  26.943  34.413  13.594
28017W        W  343  13.098  19.678  11.586
28018W        W  344  37.889  40.173   4.601
28019W        W  345  25.640  34.533   4.586
28020W        W  346  13.753  27.768   0.018
28021W        W  347  36.517  18.198   3.275
28022W        W  348  31.908  18.760   5.053
28023W        W  349  42.387   4.696   3.127
28024W        W  350  21.294  14.962   2.017
28025W        W  351  10.304  37.827   1.248
28026W        W  352  40.615   0.367   1.325
28027W        W  353  18.955   9.275  12.107
28028W        W  354  30.071  15.325   4.469
28029W        W  355  19.772  11.834  14.682
28030W        W  356  31.128  11.437  11.546
28031W        W  357  18.692  10.691   2.317
28032W        W  358   5.935  17.875  11.680
28033W        W  359  20.087   4.894  13.377
28034W        W  360  15.988  38.313  12.036
28035W        W  361   3.721  38.635   0.086
28036W        W  362  29.145  12.992  11.259
28037W        W  363  41.865  44.703   1.288
28038W        W  364  30.016  23.478  13.154
28039W        W  365  38.318   3.491  12.441
28040W        W  366  30.135  16.129   0.528
28041W        W  367   3.249   6.766  14.504
28042W        W  368   4.890  12.838   1.679
28043W        W  369  13.691   1.358   4.650
28044W        W  370  43.754  17.657   4.634
28045W        W  371  27.903  37.973   3.132
28046W        W  372  14.737  24.497   1.692
28047W        W  373   1.950  17.216  10.335
28048W        W  374  23.990  20.568  11.190
28049W        W  375  39.542  13.075   1.602
28050W        W  376   8.659  15.550  12.349
28051W        W  377   7.625  16.178   0.037
28052W        W  378  32.500  15.369   4.196
28053W        W  379  40.167  22.824  14.526
28054W        W  380  26.850  10.618   3.094
28055W        W  381  13.159  36.343  11.608
28056W        W  382   3.191   0.331   4.881
28057W        W  383   2.336  12.262   3.102
28058W        W  384   7.355  38.063  12.198
28059W        W  385  41.828  34.038   0.782
28060W        W  386  12.246  32.183   5.010
28061W        W  387  21.184   1.400   4.667
28062W        W  388  16.159   4.278  11.497
28063W        W  389  25.580  20.112   2.785
28064W        W  390  21.553  13.628  13.898
28065W        W  391  25.554  42.100   3.743
28066W        W  392  21.507  38.622   4.103
28067W        W  393  37.854  43.748  14.892
28068W        W  394  29.940  43.667  14.850
28069W        W  395  26.154  36.787   4.650
28070W        W  396   2.770  10.222  13.093
28071W        W  397  27.944  27.493   4.343
28072W        W  398  33.197  24.129  11.514
28073W        W  399   6.365  34.656  13.897
28074W        W  400  20.465  24.491  12.061
28075W        W  401  32.511  11.217  11.712
28076W        W  402  30.816  11.233  14.338
28077W        W  403  16.722  21.777   4.555
28078W        W  404   7.172  28.483   3.369
28079W        W  405  11.222  31.681   4.848
28080W        W  406  37.476  40.801   0.852
28081W        W  407  30.266  18.798  14.408
28082W        W  408  35.964  44.357  14.751
28083W        W  409   4.105  42.009   3.184
28084W        W  410   7.384   5.255   4.536
28085W        W  411  31.992  22.065  10.633
28086W        W  412  38.424  26.854   4.346
28087W        W  413   7.838  36.932   3.108
28088W        W  414  21.544  43.710  14.402
28089W        W  415  38.595  21.726  12.877
28090W        W  416  25.076  33.936  10.722
28091W        W  417   0.476  22.181  11.897
28092W        W  418  31.995   1.498  11.493
28093W        W  419   0.045   7.330  12.490
28094W        W  420  21.067  42.055   1.176
28095W        W  421  23.609  38.332  11.010
28096W        W  422  13.318   1.721  12.249
28097W        W  423  12.117   3.397  13.704
28098W        W  424  25.478   8.002   3.715
28099W        W  425  36.871  10.742   3.842
28100W        W  426  25.690  16.726  14.786
28101W        W  427  27.550  15.393   0.196
28102W        W  428   6.460  29.041   4.581
28103W        W  429  27.052  43.819   2.706
28104W        W  430  13.928  12.778   2.341
28105W        W  431  31.951  32.116  11.996
28106W        W  432   3.802  30.159   3.193
28107W        W  433  26.986  36.492   2.923
28108W        W  434  22.629   4.360  11.173
28109W        W  435  28.370   7.454  10.677
28110W        W  436  30.487   9.575   4.136
28111W        W  437  44.392  11.837  12.362
28112W        W  438  17.102   8.575   2.708
28113W        W  439  21.064  29.921   2.694
28114W        W  440   5.031  38.849   1.608
28115W        W  441  44.333  39.034   3.213
28116W        W  442  18.877  34.435  11.514
28117W        W  443  11.188  27.920   3.167
28118W        W  444  26.673  31.477  12.964
28119W        W  445  34.436  22.742  11.405
28120W        W  446  17.756   8.678  12.374
28121W        W  447   8.118  37.160  11.085
28122W        W  448   9.760  24.725  11.122
28123W        W  449   7.365  11.872  11.136
28124W        W  450   3.168  12.486   1.774
28125W        W  451  22.983   9.951   3.877
28126W        W  452  40.337  38.288  14.815
28127W        W  453  24.892  26.537   0.278
28128W        W  454  13.263   9.606  13.971
28129W        W  455   2.286   5.270   4.629
28130W        W  456  39.653  35.972  12.871
28131W        W  457  29.534  28.984   1.879
28132W        W  458  30.121  42.475   3.219
28133W        W  459  13.131  24.718   3.106
28134W        W  460  42.056  24.428  12.586
28135W        W  461  32.268  20.945  14.688
28136W        W  462  10.792  15.529  13.573
28137W        W  463  36.323   5.211   4.629
28138W        W  464   8.936  35.827  14.220
28139W        W  465  31.602  20.422  14.358
28140W        W  466  26.431  37.121   1.262
28141W        W  467   0.511  16.178  12.599
28142W        W  468  43.959  39.550  14.363
28143W        W  469  34.825  40.427  11.137
28144W        W  470   6.345  31.258  11.515
28145W        W  471  42.992   5.879  10.696
28146W        W  472  38.141   6.329  13.318
28147W        W  473  44.093   8.098   1.813
28148W        W  474  23.698  17.504  13.075
28149W        W  475   2.140  11.621   3.616
28150W        W  476   7.907  42.045   4.119
28151W        W  477  39.539  24.715   4.527
28152W        W  478  23.397  41.265  11.599
28153W        W  479  13.104   2.520  13.847
28154W        W  480  21.333  24.617   1.734
28155W        W  481  29.395   5.646  14.834
28156W        W  482  43.985   8.421   4.816
28157W        W  483  10.034   7.311  13.292
28158W        W  484  12.873  10.646  13.476
28159W        W  485  37.378  35.068   3.622
28160W        W  486  39.581  21.545  10.890
28161W        W  487  37.127  13.745   5.540
28162W        W  488  26.618   4.632  11.869
28163W        W  489  21.163  37.427   2.873
28164W        W  490   9.107  35.160  11.149
28165W        W  491  26.933  20.794  10.671
28166W        W  492  12.103   5.767  12.588
28167W        W  493  21.754  31.096   0.489
28168W        W  494  29.571   3.491  10.382
28169W        W  495  20.572  32.175  14.740
28170W        W  496  10.646  27.560   0.997
28171W        W  497  13.322   0.687  11.570
28172W        W  498  37.115  38.359   4.639
28173W        W  499  12.123  22.793  10.459
28174W        W  500  39.470  22.580   3.786
28175W        W  501  22.019  43.678  14.754
28176W        W  502  11.247  28.913   2.247
28177W        W  503  13.180  26.728  13.538
28178W        W  504  41.461  14.610  13.608
28179W        W  505  41.866  24.898   0.277
28180W        W  506  19.615  24.657   3.670
28181W        W  507   2.475  42.346  14.902
28182W        W  508   5.273  11.608  12.880
28183W        W  509  38.264  33.527   0.755
28184W        W  510  20.718  18.800   2.714
28185W        W  511  39.592  34.041   4.047
28186W        W  512  15.349  27.521  12.885
28187W        W  513   7.157  16.131  11.621
28188W        W  514   1.528  30.647   1.009
28189W        W  515  32.733  22.623  12.972
28190W        W  516  26.462   3.900  11.497
28191W        W  517   5.871  37.415  10.460
28192W        W  518  32.063   0.233  12.416
28193W        W  519  44.408   2.199   4.154
28194W        W  520  32.224  22.661  12.920
28195W        W  521  20.223  30.506   1.712
28196W        W  522   4.032  42.302  11.966
28197W        W  523  28.758  18.761  11.663
28198W        W  524  18.103  22.585  13.436
28199W        W  525  37.551  27.207   2.347
28200W        W  526  41.321   3.940  12.268
28201W        W  527   3.147  15.670  11.157
28202W        W  528  24.940  34.221  14.561
28203W        W  529   8.650  11.285   2.669
28204W        W  530  35.582  42.026   0.362
28205W        W  531  12.640  15.097   0.346
28206W        W  532  32.327   0.477   3.091
28207W        W  533  32.156  17.281  13.736
28208W        W  534   8.096  44.446   0.837
28209W        W  535  19.013  39.350  11.244
28210W        W  536  28.650  26.220   0.889
28211W        W  537  18.124  26.472  14.037
28212W        W  538   0.037  21.235  14.205
28213W        W  539  12.807  42.872   3.173
28214W        W  540  27.919  36.164   4.574
28215W        W  541  35.102  44.816   2.205
28216W        W  542   6.097   7.805  12.009
28217W        W  543  29.116  18.537  11.978
28218W        W  544  27.953   6.045   2.117
28219W        W  545   4.031  15.100  12.893
28220W        W  546   1.283  12.269  10.127
28221W        W  547  33.712  30.609   3.673
28222W        W  548  28.989   0.816   1.621
28223W        W  549  21.681   5.283  11.261
28224W        W  550   9.579  29.444   0.244
28225W        W  551   8.853  33.567   3.572
28226W        W  552  21.586  22.672   0.942
28227W        W  553  15.536   3.933   0.791
28228W        W  554   3.209  32.905  13.882
28229W        W  555  12.759   0.305   1.443
28230W        W  556  18.542   9.966  13.946
28231W        W  557  27.916   7.122  11.652
28232W        W  558  40.445  44.552   3.234
28233W        W  559  11.875  26.074   0.365
28234W        W  560  19.848  24.391   1.799
28235W        W  561  43.486  31.384  14.743
28236W        W  562  28.986  11.224   4.865
28237W        W  563   4.857   0.859   2.792
28238W        W  564  25.598  15.803   4.036
28239W        W  565   2.003  13.313  14.010
28240W        W  566  29.710  33.983   3.250
28241W        W  567  29.856   0.341  14.787
28242W        W  568  16.347  15.728  13.408
28243W        W  569  29.599  35.856  14.091
28244W        W  570   1.155  27.228  11.557
28245W        W  571  37.757  23.234  14.633
28246W        W  572  39.936   5.440   2.771
28247W        W  573   0.624  39.117   9.887
28248W        W  574  41.534  31.253  14.525
28249W        W  575  44.263  23.527   3.653
28250W        W  576  44.241   3.909   0.352
28251W        W  577  33.431  14.286  12.942
28252W        W  578   7.086   0.242  11.747
28253W        W  579   1.215  17.809  12.932
28254W        W  580  17.522  16.809  13.989
28255W        W  581  14.461  14.226   3.712
28256W        W  582  11.337  38.407  12.429
28257W        W  583  22.015  20.091  13.256
28258W        W  584   7.867  13.737  14.872
28259W        W  585  35.670   2.382   2.126
28260W        W  586  19.754  17.978  11.113
28261W        W  587  18.506  32.237  12.089
28262W        W  588  17.539  38.327   3.798
28263W        W  589  18.031  22.475  14.853
28264W        W  590  43.422  10.685   1.864
28265W        W  591  24.267   7.516   0.978
28266W        W  592  19.548  17.348   1.920
28267W        W  593  16.997  34.081   3.071
28268W        W  594  38.834  29.673  13.868
28269W        W  595  36.582   7.161   2.864
28270W        W  596  28.165   0.387  11.708
28271W        W  597  41.392  15.535  10.898
28272W        W  598  16.443   0.775  13.061
28273W        W  599  31.725  22.515  12.991
28274W        W  600  41.756  25.066   5.073
28275W        W  601  10.641   3.298  14.034
28276W        W  602  40.989  44.930   0.230
28277W        W  603   2.383  42.286   3.225
28278W        W  604  35.869   7.726   2.294
28279W        W  605   4.301  17.686   4.410
28280W        W  606  44.377  39.879   1.125
28281W        W  607  14.833  17.275   1.467
28282W        W  608  36.872   0.197  10.314
28283W        W  609   7.674  41.162   5.056
28284W        W  610  39.027  28.088  13.402
28285W        W  611  19.952  13.609   0.411
28286W        W  612  42.951  42.842  13.858
28287W        W  613  13.347  16.391   2.833
28288W        W  614   7.217  31.799  11.782
28289W        W  615  25.476  41.390  13.489
28290W        W  616  40.530  32.580   2.250
28291W        W  617  35.735  30.669  13.845
28292W        W  618  42.279  21.251  12.003
28293W        W  619  22.217  27.026   3.917
28294W        W  620  15.945  16.692   3.530
28295W        W  621   2.555  42.806   3.827
28296W        W  622  11.460  22.657   1.340
28297W        W  623   8.852   9.300  13.636
28298W        W  624  43.567  11.338  14.445
28299W        W  625  43.355  31.828  13.024
28300W        W  626  13.090  29.517   3.693
28301W        W  627  14.683  18.084  10.430
28302W        W  628   2.966   0.022   0.231
28303W        W  629  17.550  39.958  11.463
28304W        W  630  38.296  18.560   3.210
28305W        W  631   5.189   2.442  11.341
28306W        W  632  31.078  34.954   0.737
28307W        W  633   7.232  33.197   1.266
28308W        W  634  20.625   0.892   3.309
28309W        W  635  26.410  28.627  12.010
28310W        W  636  43.787  39.555   0.693
28311W        W  637  36.467   5.594   1.914
28312W        W  638  13.422  29.133   3.711
28313W        W  639  13.221  44.851  13.986
28314W        W  640   3.266  18.236   2.353
28315W        W  641  33.539  25.073  12.040
28316W        W  642   9.668   8.496   3.712
28317W        W  643   6.787  41.761  12.124
28318W        W  644  16.614   9.364   2.103
28319W        W  645  40.744   1.304   4.600
28320W        W  646   5.406  43.955  13.942
28321W        W  647  43.215  20.616   2.657
28322W        W  648  27.878  10.700  14.475
28323W        W  649   9.205  43.752   1.938
28324W        W  650   8.716   6.496   5.001
28325W        W  651  40.993   1.423  14.606
28326W        W  652  30.476   2.103  14.905
28327W        W  653  26.654  11.320  14.389
28328W        W  654  24.902   0.308  11.117
28329W        W  655   9.007  29.469   3.103
28330W        W  656   6.898  15.324   3.261
28331W        W  657  34.153  36.338   1.236
28332W        W  658  28.621  32.773  14.046
28333W        W  659   3.402  40.622   4.062
28334W        W  660  10.820  33.889   0.286
28335W        W  661  14.492  24.483  13.846
28336W        W  662  37.729   0.320  12.116
28337W        W  663   0.452   3.429   5.579
28338W        W  664  31.911  26.748  11.745
28339W        W  665  36.261   8.652  13.724
28340W        W  666   1.280  15.630   0.302
28341W        W  667  32.068  31.220   4.558
28342W        W  668  13.750   7.214  14.887
28343W        W  669   2.522  26.572   1.882
28344W        W  670  11.238  29.163   2.690
28345W        W  671  17.513  44.190  11.955
28346W        W  672  26.500   6.289  13.418
28347W        W  673   8.805   7.664  10.644
28348W        W  674  24.775  44.777  14.876
28349W        W  675  34.892   0.351   2.961
28350W        W  676   4.826  18.165  13.303
28351W        W  677  34.854  42.272  12.302
28352W        W  678  25.447   3.584   1.605
28353W        W  679  16.741  16.108  12.111
28354W        W  680  39.163  21.615  11.632
28355W        W  681  26.116  23.648  14.345
28356W        W  682  11.480  14.796   4.323
28357W        W  683  21.475  18.035  12.421
28358W        W  684  22.731  13.437  13.551
28359W        W  685   9.715  21.802   0.774
28360W        W  686  14.189  15.182   3.333
28361W        W  687   9.465  27.547   4.081
28362W        W  688  28.378  29.090   4.655
28363W        W  689  40.864  43.895  11.579
28364W        W  690   9.709   6.707   1.033
28365W        W  691  16.736  31.930  11.497
28366W        W  692   2.807  10.314  14.681
28367W        W  693  22.884  10.268   4.872
28368W        W  694  40.903  44.483  14.965
28369W        W  695  22.511  17.621   2.838
28370W        W  696  43.802  27.614   3.256
28371W        W  697  13.313  29.105  14.550
28372W        W  698  31.176  24.866   2.819
28373W        W  699  32.858  12.826   3.941
28374W        W  700  37.029  24.002   3.119
28375W        W  701  33.388  31.462   2.209
28376W        W  702  16.558  14.202   0.951
28377W        W  703  35.072  25.938  13.315
28378W        W  704   4.785   8.362  10.699
28379W        W  705  14.369  20.243  11.829
28380W        W  706   6.881  41.098  10.683
28381W        W  707  35.599  27.630  13.566
28382W        W  708  35.062  15.528   3.783
28383W        W  709  15.785   3.700  14.814
28384W        W  710  16.721   6.693  10.559
28385W        W  711  35.105  24.216   0.245
28386W        W  712  43.854  38.328   1.306
28387W        W  713   8.242  37.362  10.638
28388W        W  714  27.031  20.303  12.406
28389W        W  715  14.120  20.684   1.296
28390W        W  716  19.543  16.030   3.158
28391W        W  717   1.242  16.069  13.845
28392W        W  718  33.431  34.042  13.727
28393W        W  719  19.060  36.591   1.907
28394W        W  720  15.424   3.046   4.072
28395W        W  721  37.209  22.931  12.879
28396W        W  722   1.007   6.145  11.213
28397W        W  723   0.790  32.413  10.492
28398W        W  724  25.736  16.205  10.634
28399W        W  725  25.230   2.143   4.592
28400W        W  726  39.976  13.692   1.278
28401W        W  727  23.028   5.987   2.251
28402W        W  728  30.196  28.521   4.634
28403W        W  729  29.603  20.518  13.615
28404W        W  730   4.485  24.755  13.507
28405W        W  731  35.095   5.963  12.956
28406W        W  732  12.142  20.654   0.762
28407W        W  733  11.120  11.716  12.075
28408W        W  734  12.164  27.927   0.461
28409W        W  735  20.820  34.651  13.059
28410W        W  736  36.452  24.588  12.466
28411W        W  737   5.339  33.004  10.428
28412W        W  738  13.519  34.955  11.377
28413W        W  739   9.400  41.528   3.725
28414W        W  740   0.750   1.797  14.260
28415W        W  741  16.469  42.995  11.974
28416W        W  742   0.300  14.114  11.513
28417W        W  743  31.839  37.441   4.658
28418W        W  744  23.111  33.859   0.301
28419W        W  745   1.966  14.448   2.381
28420W        W  746  32.962   1.891   2.487
28421W        W  747  12.798   1.479  14.734
28422W        W  748  24.578  21.811   4.570
28423W        W  749  40.403  16.067  10.646
28424W        W  750   4.276  27.541  11.515
28425W        W  751  19.472   2.503  11.241
28426W        W  752  13.866  37.387   1.372
28427W        W  753   7.274   2.231   4.631
28428W        W  754  10.702  27.421  10.777
28429W        W  755  36.559   3.726   4.613
28430W        W  756   7.427  37.935   4.099
28431W        W  757  35.458  25.126   1.938
28432W        W  758  15.263   7.225  10.736
28433W        W  759  33.080  31.484   3.879
28434W        W  760  13.208   2.849   2.970
28435W        W  761  13.052  10.366   4.295
28436W        W  762  10.908   9.292  12.608
28437W        W  763  10.180  19.124  12.671
28438W        W  764  29.874  22.547   3.782
28439W        W  765  44.506  27.667   3.621
28440W        W  766  19.665  22.466   3.147
28441W        W  767   2.332  33.584  12.580
28442W        W  768   8.861  41.577   3.194
28443W        W  769  25.242  24.257  14.936
28444W        W  770  33.515  33.710   5.414
28445W        W  771  21.558   9.801  13.304
28446W        W  772  17.921  36.405   3.364
28447W        W  773  36.877   0.670  14.450
28448W        W  774  21.606  41.099  13.752
28449W        W  775   0.983  22.326  11.763
28450W        W  776  10.120  13.738  11.063
28451W        W  777  37.140  36.230  10.485
28452W        W  778  31.842  19.102  11.148
28453W        W  779   1.716  32.831  11.067
28454W        W  780  31.916  11.304   0.225
28455W        W  781  22.675  21.234  12.915
28456W        W  782  11.111   1.105   3.058
28457W        W  783  17.097   1.895   1.381
28458W        W  784  19.576  13.885  12.515
28459W        W  785  10.316  43.868  13.041
28460W        W  786   8.123  35.913  13.801
28461W        W  787  31.213  41.100  14.765
28462W        W  788  32.456  37.127  10.449
28463W        W  789   2.058  21.926  11.760
28464W        W  790  21.057  11.585   3.396
28465W        W  791  16.968  17.495   0.487
28466W        W  792  27.890  18.699  11.527
28467W        W  793  22.681  15.933  11.008
28468W        W  794  10.800  18.572   2.863
28469W        W  795  24.778  44.877  12.643
28470W        W  796  32.974  44.481   2.735
28471W        W  797  13.795  39.694  11.946
28472W        W  798   6.434  33.605   2.896
28473W        W  799  24.742  30.701   4.343
28474W        W  800  41.309  21.281   3.203
28475W        W  801  40.942  11.819  12.101
28476W        W  802  21.977  28.937   3.850
28477W        W  803  29.845  17.350  11.704
28478W        W  804   6.412  10.684   0.381
28479W        W  805  19.474   9.372   2.580
28480W        W  806  24.974  24.558   2.720
28481W        W  807  25.814  25.091   0.188
28482W        W  808  11.135   6.540   3.349
28483W        W  809   0.060  23.479  14.704
28484W        W  810  27.444  36.341  13.002
28485W        W  811  29.149  17.664   3.236
28486W        W  812  26.458  14.801  12.982
28487W        W  813  30.651  14.792   1.357
28488W        W  814   7.713   6.038   0.007
28489W        W  815  41.692  29.670  14.989
28490W        W  816  37.549   4.508  11.109
28491W        W  817  23.741  33.533  11.926
28492W        W  818  12.263  18.319   2.310
28493W        W  819  20.277  21.328   0.497
28494W        W  820   8.250   6.872   0.470
28495W        W  821   1.402  14.230  11.593
28496W        W  822  11.892  31.980  10.709
28497W        W  823  28.630  31.976  13.947
28498W        W  824  13.814   5.342   4.075
28499W        W  825  24.722  28.960  14.694
28500W        W  826   5.806   6.370   2.632
28501W        W  827  30.096  20.075  10.649
28502W        W  828  38.328  13.220  14.713
28503W        W  829  27.663  14.104   3.770
28504W        W  830   4.339   5.941   0.706
28505W        W  831   3.050  23.718  10.709
28506W        W  832  13.188  26.143  11.673
28507W        W  833  13.379  11.270  11.021
28508W        W  834   8.880  33.079  12.313
28509W        W  835  35.154  11.147  11.993
28510W        W  836   7.256  11.059  14.921
28511W        W  837   5.974  44.852  12.331
28512W        W  838  42.368  40.058  10.620
28513W        W  839  27.208  18.583  14.312
28514W        W  840  30.472   8.329  13.927
28515W        W  841   7.207  40.022   0.239
28516W        W  842  44.302  26.088   4.324
28517W        W  843   7.068  31.334   1.256
28518W        W  844   8.920  28.509  12.472
28519W        W  845  17.461  34.429   3.503
28520W        W  846  39.069  38.687  11.820
28521W        W  847  43.353   2.609  13.962
28522W        W  848  32.111  43.546   3.284
28523W        W  849   1.486  25.703  12.427
28524W        W  850   2.255  24.212  12.016
28525W        W  851  20.767   9.084   3.718
28526W        W  852  33.509  19.067  12.995
28527W        W  853   2.779  38.354  12.419
28528W        W  854  24.540  30.189  13.516
28529W        W  855   7.705  13.491  14.362
28530W        W  856  21.476   7.848   2.660
28531W        W  857   5.964  11.811  11.592
28532W        W  858   0.312  17.030  13.046
28533W        W  859  14.615  35.027   1.152
28534W        W  860  31.495  26.664  14.842
28535W        W  861   8.811  25.349  10.606
28536W        W  862  44.095  31.470  12.866
28537W        W  863   4.864  29.450   1.411
28538W        W  864  38.833  17.131  11.868
28539W        W  865  12.273  25.103  10.396
28540W        W  866   8.835  40.025   2.937
28541W        W  867  30.905  25.954  12.935
28542W        W  868  14.229  22.253  12.551
28543W        W  869  27.088  44.769   2.070
28544W        W  870   9.180   9.176  11.762
28545W        W  871  37.834  28.576   0.982
28546W        W  872  40.554  42.662   1.800
28547W        W  873  39.059  30.522   4.733
28548W        W  874  16.047  36.496  11.947
28549W        W  875  28.612   2.454  11.614
28550W        W  876  37.095  20.598   0.036
28551W        W  877  28.638  34.171  13.445
28552W        W  878  10.822  17.852   0.315
28553W        W  879  44.791  21.325   2.032
28554W        W  880  12.326   4.789  12.427
28555W        W  881  30.605   3.246   3.351
28556W        W  882  19.947  36.723  13.474
28557W        W  883  23.454  25.940  10.673
28558W        W  884   7.361  18.190   1.637
28559W        W  885  31.554  41.376  14.447
28560W        W  886  36.448  28.891   1.850
28561W        W  887  33.383  20.841   0.182
28562W        W  888  15.331   1.393  10.391
28563W        W  889  10.936  27.517   2.916
28564W        W  890  12.638  38.470  12.839
28565W        W  891   6.715   7.475   1.268
28566W        W  892  21.794   7.210  11.124
28567W        W  893   3.753  14.658  12.965
28568W        W  894  23.702  19.986  11.577
28569W        W  895   2.303  29.515  11.311
28570W        W  896  25.140  23.063   3.308
28571W        W  897  20.770  13.716   4.391
28572W        W  898   6.475  12.745   2.684
28573W        W  899  36.580  32.515  11.930
28574W        W  900   0.332   7.440   0.693
28575W        W  901   4.820  25.743  10.056
28576W        W  902  16.903  39.245  14.832
28577W        W  903   5.738  25.957  14.755
28578W        W  904   8.107   8.203  13.806
28579W        W  905  13.868  36.579  12.041
28580W        W  906   3.388  37.266   1.726
28581W        W  907   3.907  21.634   5.206
28582W        W  908   7.008  44.478  11.553
28583W        W  909  26.009  27.957  11.466
28584W        W  910  30.150  29.928  14.437
28585W        W  911  25.122  10.692   3.107
28586W        W  912  17.725   9.103  13.972
28587W        W  913  44.080  23.015  14.359
28588W        W  914  11.892  22.624   4.159
28589W        W  915   2.924  22.055   3.256
28590W        W  916  28.371  10.148  13.954
28591W        W  917  12.674  41.988   0.808
28592W        W  918  42.193   2.942   4.122
28593W        W  919  12.812  13.093  10.774
28594W        W  920  33.719  44.062   4.178
28595W        W  921  26.222  32.247   2.474
28596W        W  922  30.463  20.675  12.539
28597W        W  923   1.637  31.028   1.722
28598W        W  924  13.242  37.325  12.983
28599W        W  925   4.508  27.203   1.445
28600W        W  926   0.830  18.270  14.198
28601W        W  927  33.505  24.512  11.668
28602W        W  928  44.755  37.364   3.797
28603W        W  929  40.073   4.580  12.534
28604W        W  930  12.618  35.365  11.246
28605W        W  931  15.829  22.441  13.445
28606W        W  932   2.411  31.453   3.158
28607W        W  933  26.740  32.164  11.576
28608W        W  934  40.485  40.404   2.391
28609W        W  935  26.800  42.298   1.824
28610W        W  936   8.878  17.494  10.931
28611W        W  937  21.757  17.268   1.742
28612W        W  938  13.154   5.101  11.921
28613W        W  939   6.837  12.851  14.550
28614W        W  940   6.316  44.268  12.453
28615W        W  941  23.625   6.289  13.871
28616W        W  942   2.793  27.588   2.753
28617W        W  943  24.220  33.691  11.879
28618W        W  944   9.868  35.901   1.715
28619W        W  945   8.340  29.454  13.079
28620W        W  946  26.141  34.931   0.787
28621W        W  947  19.968  41.442  12.804
28622W        W  948  37.119   9.777   0.394
28623W        W  949  35.177  41.558   3.812
28624W        W  950  42.529   0.968  11.142
28625W        W  951  19.741  21.987   1.875
28626W        W  952  31.580   4.937  14.454
28627W        W  953  25.073  34.865   2.668
28628W        W  954  25.968   5.272   1.779
28629W        W  955  19.987  26.408   0.972
28630W        W  956  30.395  41.332  12.928
28631W        W  957  22.208   8.043  12.027
28632W        W  958  29.092  36.057   0.836
28633W        W  959  19.041  37.123   1.864
28634W        W  960   9.151  22.592   1.451
28635W        W  961  24.080  41.239  12.091
28636W        W  962   7.382  22.762  14.346
28637W        W  963   9.527  29.471  11.197
28638W        W  964   5.257  35.577  11.089
28639W        W  965  27.407  25.287  10.652
28640W        W  966   2.225  31.148   0.722
28641W        W  967  27.100   8.427  13.477
28642W        W  968  21.755  24.918   1.298
28643W        W  969   8.643  15.136  11.494
28644W        W  970  38.849  17.267   4.277
28645W        W  971  36.927  13.309   4.196
28646W        W  972  11.080  14.779  13.298
28647W        W  973  26.632  20.646   4.790
28648W        W  974  38.384   3.712   3.265
28649W        W  975  14.089  33.351   4.671
28650W        W  976  11.223   1.255  13.874
28651W        W  977   9.873  22.051  13.806
28652W        W  978  18.511   5.650   3.381
28653W        W  979  33.888  33.517   0.975
28654W        W  980  41.827  42.956   1.893
28655W        W  981  33.773  31.168  10.791
28656W        W  982   9.233  43.355  10.714
28657W        W  983  41.241  38.998  10.767
28658W        W  984   8.303  13.873  11.204
28659W        W  985  13.745  37.421  12.894
28660W        W  986  13.157  13.124  11.179
28661W        W  987  31.849  12.207  11.565
28662W        W  988  15.234  14.161   2.890
28663W        W  989  44.274   4.368  12.405
28664W        W  990  25.233  18.501  14.778
28665W        W  991   8.666  30.914  10.859
28666W        W  992  33.645  35.419  10.677
28667W        W  993   0.214  44.254  11.344
28668W        W  994  33.469  40.336   5.151
28669W        W  995  21.870   7.656   2.383
28670W        W  996  41.869  43.747  13.380
28671W        W  997  19.924  17.372   2.738
28672W        W  998  30.054   6.431   4.635
28673W        W  999  12.084  32.143   3.225
28674W        W 1000  13.254  27.452   2.921
28675W        W 1001  28.455  39.240  13.300
28676W        W 1002  11.606  38.124  13.637
28677W        W 1003  35.856  29.149   1.221
28678W        W 1004  42.432  42.107  10.669
28679W        W 1005  24.639   1.475   1.728
28680W        W 1006   0.514  11.216  14.185
28681W        W 1007  41.374  14.527   4.542
28682W        W 1008   0.316  19.233   0.937
28683W        W 1009  36.622  35.117   0.801
28684W        W 1010  35.544  34.249  10.728
28685W        W 1011   6.513  43.806   0.835
28686W        W 1012  30.219  24.198   1.799
28687W        W 1013  14.844  31.998   2.795
28688W        W 1014  12.292  20.102  14.500
28689W        W 1015  43.862  11.422   1.818
28690W        W 1016  27.075  14.597   2.199
28691W        W 1017  25.557  40.282   1.957
28692W        W 1018  28.176  40.916  13.007
28693W        W 1019  37.103  34.650   2.748
28694W        W 1020  18.578  12.330   4.648
28695W        W 1021  10.692  31.103  14.579
28696W        W 1022  40.390  34.632  11.195
28697W        W 1023   4.375  25.561  11.863
28698W        W 1024   4.834   6.191   0.821
28699W        W 1025   6.870  36.522  10.984
28700W        W 1026  15.212  36.561  12.318
28701W        W 1027  29.881   2.839  14.664
28702W        W 1028  37.548   8.728   2.411
28703W        W 1029   4.167  34.846   1.389
28704W        W 1030   3.898   8.675   0.283
28705W        W 1031  20.235  12.349  11.149
28706W        W 1032  37.829  16.248   3.599
28707W        W 1033  18.941  23.249  11.683
28708W        W 1034  18.967  26.562   4.641
28709W        W 1035   5.651   0.738   4.614
28710W        W 1036  13.065  14.201   2.116
28711W        W 1037  43.297   9.823  12.772
28712W        W 1038  38.791  38.088   0.667
28713W        W 1039  26.629   8.384  10.790
28714W        W 1040  13.295  43.863   4.199
28715W        W 1041  24.465  33.606   3.736
28716W        W 1042  10.550  22.268   4.450
28717W        W 1043  44.333  32.235   1.793
28718W        W 1044   8.294  32.013   0.849
28719W        W 1045  43.004  33.180   1.073
28720W        W 1046  19.753  34.102   1.391
28721W        W 1047  10.704  39.315   4.454
28722W        W 1048  16.736  37.485   4.777
28723W        W 1049  27.960   4.518   2.256
28724W        W 1050   5.646  33.406  10.577
28725W        W 1051  24.193   5.451   4.586
28726W        W 1052  19.943  13.411  14.251
28727W        W 1053  25.440  23.926  11.924
28728W        W 1054  37.484  24.222  13.052
28729W        W 1055  44.552  22.520  11.207
28730W        W 1056   8.170  40.832   0.842
28731W        W 1057  24.214  12.538   4.316
28732W        W 1058  38.972   8.820  10.485
28733W        W 1059   1.407  39.794  12.122
28734W        W 1060  17.070  29.033  10.643
28735W        W 1061   6.495  11.418   1.797
28736W        W 1062  12.066   9.192  14.563
28737W        W 1063   8.667  10.107   0.359
28738W        W 1064  25.438  41.440  10.667
28739W        W 1065   1.348  35.681  14.423
28740W        W 1066  41.309   5.837   0.979
28741W        W 1067  44.959   6.391  14.831
28742W        W 1068   6.972  36.084  14.945
28743W        W 1069   3.335  43.845   3.021
28744W        W 1070   3.243  25.629  12.527
28745W        W 1071  44.399  30.536  11.341
28746W        W 1072  36.326  34.951  10.649
28747W        W 1073  30.586  42.356   3.665
28748W        W 1074  24.732   7.479  12.812
28749W        W 1075   4.683  10.714  14.410
28750W        W 1076  41.926  38.690   4.554
28751W        W 1077   7.177  39.023   4.152
28752W        W 1078  19.420  17.098   1.196
28753W        W 1079  21.728  34.624  13.979
28754W        W 1080  13.410  15.273  12.485
28755W        W 1081   8.489   7.162  13.017
28756W        W 1082  13.595   7.804   3.668
28757W        W 1083  36.073  25.958   3.858
28758W        W 1084   3.036  29.355   0.252
28759W        W 1085  39.612   7.931   4.077
28760W        W 1086  17.326  42.376  10.957
28761W        W 1087  27.573  43.239  11.606
28762W        W 1088  17.188  36.463  11.189
28763W        W 1089  25.164  11.018  13.837
28764W        W 1090  19.111  37.871  12.513
28765W        W 1091  19.618   9.804   4.362
28766W        W 1092  31.580  39.347   5.103
28767W        W 1093  23.273  26.736  12.998
28768W        W 1094   0.756  19.480   1.280
28769W        W 1095  15.151  16.392  11.687
28770W        W 1096  40.756  14.356   0.317
28771W        W 1097  15.666  18.455   4.618
28772W        W 1098   5.978   9.308  13.914
28773W        W 1099  42.577  23.498   1.640
28774W        W 1100   9.883   9.613  11.834
28775W        W 1101   1.428   7.258   2.768
28776W        W 1102  26.051  43.803   1.302
28777W        W 1103  15.051  24.644  11.993
28778W        W 1104  14.335  33.562  12.950
28779W        W 1105  15.937  10.791   0.179
28780W        W 1106  30.834  34.656   1.462
28781W        W 1107  41.434   3.311   2.810
28782W        W 1108  13.882  42.286  13.121
28783W        W 1109  32.398   1.842   1.839
28784W        W 1110  25.258  24.767   2.312
28785W        W 1111  30.318  37.679  12.581
28786W        W 1112  18.332  31.050  13.920
28787W        W 1113  42.820  25.180   0.343
28788W        W 1114  37.344   7.645   0.455
28789W        W 1115   8.767   2.434   3.702
28790W        W 1116   3.543  10.851  11.584
28791W        W 1117  32.611  44.499  12.908
28792W        W 1118  27.950  32.708  12.241
28793W        W 1119  40.500   6.387   1.962
28794W        W 1120  11.490  35.152   4.199
28795W        W 1121  39.462  15.602   2.387
28796W        W 1122   9.811  44.364   2.259
28797W        W 1123  44.127   7.661  12.636
28798W        W 1124  22.051   5.825   0.299
28799W        W 1125  38.764   4.054   3.297
28800W        W 1126   9.241  37.371   9.828
28801W        W 1127  41.940   8.689   0.375
28802W        W 1128  44.516  24.271   4.346
28803W        W 1129  33.545  22.054   4.251
28804W        W 1130  35.162  17.119  14.327
28805W        W 1131  12.164   9.222  10.670
28806W        W 1132  12.861  39.163   1.192
28807W        W 1133  19.987  39.958   0.764
28808W        W 1134  24.970  29.439   4.795
28809W        W 1135  15.355  13.110   1.385
28810W        W 1136  26.810  31.844   0.957
28811W        W 1137  35.669  17.708  11.199
28812W        W 1138  21.257  41.542  10.963
28813W        W 1139  11.571  27.863  12.153
28814W        W 1140  12.487  14.363   0.412
28815W        W 1141  40.827  30.158  14.225
28816W        W 1142  15.619  29.481  14.432
28817W        W 1143  17.998   7.660  11.529
28818W        W 1144  44.445   7.641   2.766
28819W        W 1145  18.741   9.701  11.083
28820W        W 1146  11.817  21.039   1.477
28821W        W 1147  42.726  24.285   3.174
28822W        W 1148  21.366  20.526  12.925
28823W        W 1149  31.845  25.109   1.696
28824W        W 1150   0.401  25.534   4.668
28825W        W 1151  16.619   8.045   0.737
28826W        W 1152  30.642  36.335   0.318
28827W        W 1153  21.496  40.288  14.991
28828W        W 1154  10.187  18.727   4.606
28829W        W 1155   5.466   2.221   0.937
28830W        W 1156  17.550  33.004  12.556
28831W        W 1157   7.421  39.478  13.542
28832W        W 1158  11.634  32.974   3.247
28833W        W 1159  35.172  29.735  14.422
28834W        W 1160   0.466  27.100   0.266
28835W        W 1161  33.939  32.454   3.708
28836W        W 1162  39.930   3.819  14.862
28837W        W 1163  11.233   3.697  12.268
28838W        W 1164   9.787   4.183  11.632
28839W        W 1165  12.556  41.825  11.642
28840W        W 1166  19.790  39.470   0.929
28841W        W 1167  14.531  11.960   0.402
28842W        W 1168  36.325   1.935  13.997
28843W        W 1169  40.486  30.402   1.941
28844W        W 1170  18.750   8.160  12.537
28845W        W 1171   5.272  11.109  14.066
28846W        W 1172  17.749  29.699  12.631
28847W        W 1173  41.460  18.615   4.110
28848W        W 1174  43.873  40.095  11.017
28849W        W 1175  30.969  23.556  13.511
28850W        W 1176  44.215  36.838   0.403
28851W        W 1177  40.750  43.724  12.053
28852W        W 1178  36.615  27.008   3.925
28853W        W 1179  33.103  14.209   4.138
28854W        W 1180  25.024   4.469  13.436
28855W        W 1181  34.899  33.590  11.037
28856W        W 1182   2.801  38.458   2.424
28857W        W 1183  10.686  12.911  14.019
28858W        W 1184  38.238  41.516   3.773
28859W        W 1185   7.563  25.827   4.180
28860W        W 1186   2.652  38.614  14.414
28861W        W 1187   7.138  19.707   4.179
28862W        W 1188   3.800   2.338   3.197
28863W        W 1189  44.846   8.230  11.367
28864W        W 1190  11.807  25.151   2.220
28865W        W 1191  43.922  20.081   0.511
28866W        W 1192   9.203  14.889   3.403
28867W        W 1193   4.185  41.996  12.514
28868W        W 1194   5.894  15.495  14.501
28869W        W 1195   7.787  20.759  13.398
28870W        W 1196  21.076  20.299   0.748
28871W        W 1197  21.062  32.466  11.588
28872W        W 1198  26.116  26.196   4.553
28873W        W 1199  18.770   8.694   1.298
28874W        W 1200   6.201  18.030   1.912
28875W        W 1201  27.675  24.624   1.017
28876W        W 1202  20.499  21.263  11.577
28877W        W 1203  11.220   5.775  14.446
28878W        W 1204  22.468   5.001  13.844
28879W        W 1205  15.694   8.363  11.544
28880W        W 1206  41.063  38.193   3.960
28881W        W 1207  37.405  25.903  13.316
28882W        W 1208  13.556  39.462   1.800
28883W        W 1209  35.979   2.856   1.380
28884W        W 1210  17.145  18.826   3.833
28885W        W 1211  31.140  23.112  13.323
28886W        W 1212  37.480  35.110  13.458
28887W        W 1213   9.596   1.671   2.275
28888W        W 1214  22.910  26.184  14.062
28889W        W 1215  39.099  25.047  14.411
28890W        W 1216  43.047  33.620   2.807
28891W        W 1217  41.087  29.585   0.582
28892W        W 1218  34.539  23.662  14.332
28893W        W 1219  23.494  34.094  14.450
28894W        W 1220   8.960  21.540  11.220
28895W        W 1221  18.616  14.756   1.724
28896W        W 1222  19.999  35.420  12.017
28897W        W 1223  41.119   3.837  13.749
28898W        W 1224  35.774   8.716  13.520
28899W        W 1225  24.623  20.526   1.751
28900W        W 1226  17.461  22.800  14.881
28901W        W 1227  44.248  26.492   4.021
28902W        W 1228  18.655  42.600   4.655
28903W        W 1229  40.010  37.107   3.622
28904W        W 1230  11.578  30.143   1.930
28905W        W 1231   5.932   8.866  14.872
28906W        W 1232  13.573   6.843  12.939
28907W        W 1233  17.035  35.438  12.069
28908W        W 1234  21.829  28.955  12.523
28909W        W 1235  43.010  10.407  14.760
28910W        W 1236  30.182  18.602   3.170
28911W        W 1237  23.995  33.337   3.672
28912W        W 1238   2.672  24.199  11.472
28913W        W 1239  18.640  13.815  14.945
28914W        W 1240   3.364  11.757   5.444
28915W        W 1241  33.084  37.302  14.883
28916W        W 1242  20.752  32.653  12.009
28917W        W 1243  39.999  44.044   4.041
28918W        W 1244  18.339  16.735  11.555
28919W        W 1245  31.161  33.121  11.864
28920W        W 1246  30.191  31.909   1.860
28921W        W 1247  19.151  38.335  10.403
28922W        W 1248  19.809  25.235   1.397
28923W        W 1249  36.109   6.423  12.437
28924W        W 1250  25.429  39.021  11.054
28925W        W 1251  28.707  43.482   4.811
28926W        W 1252   0.868  32.425   4.334
28927W        W 1253   0.846   1.373   0.201
28928W        W 1254  27.573  25.759   2.341
28929W        W 1255  44.354   7.166   3.677
28930W        W 1256  23.161  14.368   0.462
28931W        W 1257  22.421  15.296  13.820
28932W        W 1258   2.500  11.704  11.989
28933W        W 1259  39.128  20.132   1.383
28934W        W 1260   3.958  19.717   0.445
28935W        W 1261  25.432  40.145  11.046
28936W        W 1262  42.733  40.287   0.890
28937W        W 1263  21.976  30.886   2.766
28938W        W 1264  22.317  44.996  13.084
28939W        W 1265  37.575  22.487   2.202
28940W        W 1266  21.657  35.991   0.010
28941W        W 1267  17.277   3.279   4.947
28942W        W 1268  14.100  10.566  12.425
28943W        W 1269  27.590   6.115  12.855
28944W        W 1270  25.663  44.862   3.072
28945W        W 1271  30.431   2.336  12.803
28946W        W 1272  19.973   9.348   1.856
28947W        W 1273  24.572   3.905   2.744
28948W        W 1274  19.287  18.828  12.441
28949W        W 1275  20.793  31.950  12.482
28950W        W 1276   9.360  10.044   2.000
28951W        W 1277  11.706  12.788   4.007
28952W        W 1278   8.308  12.356   4.082
28953W        W 1279  41.291  22.089  14.113
28954W        W 1280  21.099   8.742  12.451
28955W        W 1281   8.307  17.851  10.767
28956W        W 1282  27.783  23.119   4.656
28957W        W 1283  12.825  18.642  12.481
28958W        W 1284  24.661  43.330   0.351
28959W        W 1285  22.002  24.531  11.873
28960W        W 1286  27.809  25.602  10.524
28961W        W 1287  39.042   1.023  13.036
28962W        W 1288   2.064  40.466   4.519
28963W        W 1289  11.339  41.374  14.909
28964W        W 1290  42.806  35.529   4.582
28965W        W 1291   9.939  25.743   0.758
28966W        W 1292   0.862  33.189   1.499
28967W        W 1293  26.927  22.114   0.832
28968W        W 1294   4.822  12.712   2.884
28969W        W 1295  10.798  17.234   3.853
28970W        W 1296  29.244  27.133  13.845
28971W        W 1297  27.457   7.672  13.563
28972W        W 1298   0.880  33.011  10.533
28973W        W 1299  34.865  18.742  11.525
28974W        W 1300  42.958  10.615   0.956
28975W        W 1301  25.945  35.090   2.370
28976W        W 1302   6.972  13.609  12.428
28977W        W 1303  23.320  27.390  11.444
28978W        W 1304  38.894  21.203   2.476
28979W        W 1305  23.534  14.378   2.217
28980W        W 1306   3.625   3.779   2.832
28981W        W 1307  30.243  33.107   0.280
28982W        W 1308   5.637  29.612   0.332
28983W        W 1309   6.799  13.903  13.773
28984W        W 1310  22.186   8.258  10.729
28985W        W 1311  12.144  39.162   3.855
28986W        W 1312   8.741  43.758  12.395
28987W        W 1313  10.807   9.335   2.840
28988W        W 1314  20.757  20.233  14.821
28989W        W 1315  40.498   8.104  12.033
28990W        W 1316  13.896  11.352  11.173
28991W        W 1317  20.519  39.429   0.430
28992W        W 1318  11.609  11.743  11.899
28993W        W 1319  29.085  12.337  13.098
28994W        W 1320  18.097  30.499  13.272
28995W        W 1321  23.389  33.195  11.031
28996W        W 1322  36.818  40.302  13.956
28997W        W 1323  17.753  32.819  14.434
28998W        W 1324   0.025   3.765  12.216
28999W        W 1325   1.895  29.900   2.232
29000W        W 1326  12.610   3.544  12.522
29001W        W 1327  43.419  43.046   3.642
29002W        W 1328  26.766  24.560   3.432
29003W        W 1329  15.639   1.360   2.598
29004W        W 1330  41.031  12.824   3.323
29005W        W 1331  35.382   7.356   1.391
29006W        W 1332  25.509  31.636  13.889
29007W        W 1333  12.867   5.638   0.772
29008W        W 1334  14.763  36.669  11.104
29009W        W 1335  24.544   9.016  14.957
29010W        W 1336  28.603  35.874   0.769
29011W        W 1337  10.339  10.628   2.350
29012W        W 1338  42.580  37.371  12.100
29013W        W 1339  31.561  10.657   2.301
29014W        W 1340  17.281  19.590   0.601
29015W        W 1341  17.231   6.428   0.281
29016W        W 1342   1.677  22.873  11.973
29017W        W 1343  15.617  17.056  11.145
29018W        W 1344  41.034  19.885   5.016
29019W        W 1345  26.256  34.596  14.830
29020W        W 1346   3.204  17.790   2.690
29021W        W 1347   2.304   6.250  11.553
29022W        W 1348  24.660  42.066  14.310
29023W        W 1349  38.426  20.800   1.687
29024W        W 1350  35.296   5.957   3.208
29025W        W 1351   5.867  44.742  11.845
29026W        W 1352  32.856  11.598  12.100
29027W        W 1353  42.005  27.230   1.932
29028W        W 1354  30.879  44.535  10.210
29029W        W 1355  19.364  32.578  13.950
29030W        W 1356  39.430   4.847   4.577
29031W        W 1357  23.511  11.319   3.705
29032W        W 1358  35.363  17.541   1.423
29033W        W 1359  23.536  23.215   0.791
29034W        W 1360  19.316  36.600   3.360
29035W        W 1361   1.020  42.997   2.222
29036W        W 1362   0.407  29.978  12.476
29037W        W 1363   1.708   9.703  12.465
29038W        W 1364  31.077  33.301   5.071
29039W        W 1365  31.209  42.743  14.011
29040W        W 1366  40.250  11.313  11.041
29041W        W 1367  42.659  14.006  12.591
29042W        W 1368  43.650  15.066   4.188
29043W        W 1369  33.610  20.617  14.746
29044W        W 1370   5.406  20.678   0.639
29045W        W 1371  24.196  44.299   3.436
29046W        W 1372   9.805  12.560   3.142
29047W        W 1373  38.055  23.723   4.665
29048W        W 1374   4.671  26.761   3.713
29049W        W 1375  42.111  28.981  14.499
29050W        W 1376  32.936  39.385  12.852
29051W        W 1377  16.792  31.499   2.406
29052W        W 1378  24.677  29.333  14.340
29053W        W 1379  20.651  20.169   2.593
29054W        W 1380   7.904   3.003  11.596
29055W        W 1381   7.349   2.751   3.288
29056W        W 1382  33.686   4.501   0.880
29057W        W 1383  35.517  32.249  11.983
29058W        W 1384  38.468  37.719  14.831
29059W        W 1385  41.853   8.377   3.431
29060W        W 1386  44.033   4.082   0.815
29061W        W 1387   9.778   6.164  12.569
29062W        W 1388  43.584  39.978   3.668
29063W        W 1389  22.240  14.806   1.041
29064W        W 1390  32.590  36.308   0.302
29065W        W 1391  32.453  39.827   3.801
29066W        W 1392  27.256  29.880  14.281
29067W        W 1393   3.457  44.360  10.627
29068W        W 1394   0.253  24.235   2.680
29069W        W 1395   7.738  29.609  13.869
29070W        W 1396  25.960  39.652  12.404
29071W        W 1397  44.656  41.581   2.363
29072W        W 1398  16.227  22.191   4.748
29073W        W 1399  19.228   6.404   1.292
29074W        W 1400   6.422  34.478   3.461
29075W        W 1401  21.506   3.281   2.297
29076W        W 1402  10.883   8.317   4.807
29077W        W 1403  39.412   6.533  13.591
29078W        W 1404   9.319  21.676   0.383
29079W        W 1405   8.664  34.465   3.178
29080W        W 1406  24.007  16.817  10.006
29081W        W 1407  24.363  15.284   4.877
29082W        W 1408   9.749  44.045  14.124
29083W        W 1409  36.017  22.288   4.556
29084W        W 1410   4.857   2.471  12.072
29085W        W 1411   1.729  13.816  11.601
29086W        W 1412   1.754  34.858  14.812
29087W        W 1413  16.240  18.102  10.502
29088W        W 1414   8.517  34.441   0.866
29089W        W 1415  16.819   7.219   0.504
29090W        W 1416  44.447   0.355  11.926
29091W        W 1417  34.636  36.016  11.033
29092W        W 1418  19.993   0.287   2.621
29093W        W 1419  20.576   6.918   4.088
29094W        W 1420  12.841  18.496  14.475
29095W        W 1421  24.580  40.951  11.996
29096W        W 1422   4.451   8.671  11.997
29097W        W 1423  39.774  24.486  13.087
29098W        W 1424  43.385  24.400   0.397
29099W        W 1425  21.639  16.603  14.248
29100W        W 1426  13.836  31.369  13.402
29101W        W 1427   3.557  23.011  11.495
29102W        W 1428  28.048  38.444  10.600
29103W        W 1429   0.391  18.676   3.166
29104W        W 1430   4.827   1.657  12.543
29105W        W 1431  41.001  27.388  14.987
29106W        W 1432  18.127  37.608  13.506
29107W        W 1433  22.638   0.059   2.810
29108W        W 1434   9.733  19.540  13.014
29109W        W 1435   4.168  31.967   3.255
29110W        W 1436  16.155  15.529  11.921
29111W        W 1437   4.306  41.523   3.806
29112W        W 1438  17.799   4.507   2.548
29113W        W 1439   6.105  30.665   3.574
29114W        W 1440  11.681  34.165   3.143
29115W        W 1441  27.720  17.660  13.525
29116W        W 1442  15.569  38.314  12.380
29117W        W 1443   4.923  35.534   1.222
29118W        W 1444   4.792   1.305   4.495
29119W        W 1445   8.900   6.378   0.924
29120W        W 1446  33.617  41.286   2.673
29121W        W 1447  23.305  12.764  14.942
29122W        W 1448   4.467  20.405   0.396
29123W        W 1449  36.468  29.939  13.727
29124W        W 1450  33.208  18.507  13.383
29125W        W 1451   9.665   2.829  11.266
29126W        W 1452  35.940   8.818   0.033
29127W        W 1453  30.028  39.306  14.464
29128W        W 1454  19.978  37.057   2.717
29129W        W 1455  22.132  17.361  11.068
29130W        W 1456  23.522  33.486  11.461
29131W        W 1457  31.617  39.804   2.837
29132W        W 1458   3.532   3.710   2.328
29133W        W 1459   8.923  18.191  14.027
29134W        W 1460  42.253  29.341   2.253
29135W        W 1461  20.999  24.187   1.707
29136W        W 1462  20.993  41.835  11.968
29137W        W 1463   9.941   5.908   4.087
29138W        W 1464  25.142   5.391   2.191
29139W        W 1465  33.140  33.670   3.281
29140W        W 1466  15.560  13.381  12.093
29141W        W 1467   2.179  25.542   0.436
29142W        W 1468   4.346  25.113   4.905
29143W        W 1469   6.908  29.629  12.960
29144W        W 1470  37.964  16.839  11.654
29145W        W 1471  36.026  21.787   1.821
29146W        W 1472  15.334  41.336   0.763
29147W        W 1473   1.054  41.918  14.321
29148W        W 1474  10.184  18.695   2.924
29149W        W 1475  18.140   3.817   3.272
29150W        W 1476  19.163  13.118  10.670
29151W        W 1477  37.511  18.281   1.415
29152W        W 1478  21.493  40.569  11.299
29153W        W 1479  12.296   8.211  14.368
29154W        W 1480  28.072   8.309   0.206
29155W        W 1481  31.990  32.440  10.912
29156W        W 1482   3.702  24.177  14.398
29157W        W 1483   1.726  19.808   2.719
29158W        W 1484   4.473  13.600  10.562
29159W        W 1485  32.816  30.131  12.095
29160W        W 1486  22.427  10.824  10.744
29161W        W 1487  29.935  25.074   1.690
29162W        W 1488   4.211  44.955   1.204
29163W        W 1489  13.214  32.850   3.412
29164W        W 1490  31.977  21.414   4.253
29165W        W 1491  19.200  17.025  13.821
29166W        W 1492  23.520   4.272  11.566
29167W        W 1493  18.328  22.951   2.352
29168W        W 1494  14.351  32.940  13.978
29169W        W 1495  40.416  40.819  13.309
29170W        W 1496  13.319  16.297  12.468
29171W        W 1497  40.613   0.274   0.392
29172W        W 1498   5.688   0.944  11.684
29173W        W 1499  40.371  36.069   4.282
29174W        W 1500   0.420   7.906  11.216
29175W        W 1501  44.820  10.686  14.437
29176W        W 1502  23.068   1.818   2.450
29177W        W 1503  21.607  32.632  13.920
29178W        W 1504  12.768  27.042  10.585
29179W        W 1505   6.818  23.670  11.473
29180W        W 1506  33.359  26.106  11.852
29181W        W 1507  39.564  39.217   3.754
29182W        W 1508   5.365  44.253  12.474
29183W        W 1509  18.108   5.731   0.856
29184W        W 1510  32.672  21.104   4.543
29185W        W 1511  44.211  32.377   0.319
29186W        W 1512  18.486  44.470   4.707
29187W        W 1513  41.830  20.186  14.798
29188W        W 1514  24.616   2.487  13.832
29189W        W 1515  23.759  28.926   2.374
29190W        W 1516  11.376  37.661  11.098
29191W        W 1517  10.150  40.661   3.124
29192W        W 1518  43.975  24.254   2.300
29193W        W 1519  25.103  41.793   3.823
29194W        W 1520   1.284  30.989   2.788
29195W        W 1521  33.176  40.553   0.815
29196W        W 1522  33.757  40.079  14.841
29197W        W 1523  38.788  16.374  13.081
29198W        W 1524   2.857  10.734  10.418
29199W        W 1525  37.096  28.679   4.229
29200W        W 1526   1.767  11.906  13.673
29201W        W 1527  38.366   4.628  13.921
29202W        W 1528  25.111  17.483  14.915
29203W        W 1529  36.924  32.136  11.990
29204W        W 1530  13.358  25.161  13.547
29205W        W 1531   9.147   2.039  13.902
29206W        W 1532  36.983  34.969  12.985
29207W        W 1533   8.863  44.431   1.391
29208W        W 1534  36.554  17.491   3.718
29209W        W 1535  24.964  13.647  10.812
29210W        W 1536   7.672  36.053   3.733
29211W        W 1537   3.816  31.634   3.486
29212W        W 1538  21.322  37.010   0.969
29213W        W 1539  40.860  38.436  13.353
29214W        W 1540   5.142  10.250   0.226
29215W        W 1541   8.213   0.322   1.954
29216W        W 1542  31.367  35.557  14.344
29217W        W 1543  24.239  36.419   1.730
29218W        W 1544  19.041  19.817  13.381
29219W        W 1545  18.102  13.556   4.623
29220W        W 1546  26.873  26.564  11.698
29221W        W 1547  14.613  29.633   3.673
29222W        W 1548  43.301  35.132   1.610
29223W        W 1549  22.047  40.224   5.545
29224W        W 1550  22.109   8.939  13.325
29225W        W 1551  19.534  27.160  13.171
29226W        W 1552  32.407  16.714  10.666
29227W        W 1553   0.504  17.564   1.268
29228W        W 1554   4.178  26.419   1.507
29229W        W 1555   3.521   8.432   3.216
29230W        W 1556  36.800  35.961   5.124
29231W        W 1557  34.594   0.914  10.697
29232W        W 1558   7.684  27.024  11.321
29233W        W 1559  20.461  11.779   0.731
29234W        W 1560   6.521  36.402  11.341
29235W        W 1561  43.388  14.081   2.381
29236W        W 1562  11.014  44.835   1.697
29237W        W 1563  34.744  26.493   4.246
29238W        W 1564   1.819  42.305  10.592
29239W        W 1565  24.720  12.198  12.881
29240W        W 1566  10.249  39.532   2.710
29241W        W 1567  20.820   6.815   3.627
29242W        W 1568  30.503  11.788  12.485
29243W        W 1569  20.754  43.353  10.505
29244W        W 1570  24.237  41.784   3.306
29245W        W 1571  24.482  42.831   5.312
29246W        W 1572  14.301  38.962  14.051
29247W        W 1573   5.633  42.042  11.141
29248W        W 1574   1.889  35.502   0.968
29249W        W 1575  27.452  27.633  11.095
29250W        W 1576  13.050  36.117   1.404
29251W        W 1577  25.040  30.762   5.039
29252W        W 1578   8.189  36.082   3.789
29253W        W 1579  20.797  43.422   1.715
29254W        W 1580  34.856  43.769   0.373
29255W        W 1581   0.341  35.042   1.313
29256W        W 1582  30.076  29.917   2.453
29257W        W 1583  42.293  35.369   4.508
29258W        W 1584  22.570   6.440   0.998
29259W        W 1585  39.080  44.046   1.861
29260W        W 1586   1.778  44.932   2.771
29261W        W 1587  11.593  30.458  13.913
29262W        W 1588  27.938  30.383  14.859
29263W        W 1589  10.777  36.337  12.885
29264W        W 1590  16.242  31.536   2.358
29265W        W 1591  19.405  23.525  13.428
29266W        W 1592  19.533  40.294   0.540
29267W        W 1593  34.084  37.933   4.223
29268W        W 1594  43.880  14.585  13.955
29269W        W 1595  16.140  37.582  13.356
29270W        W 1596   9.294   3.227  14.847
29271W        W 1597  43.939  38.207  11.146
29272W        W 1598  12.624  35.011  10.871
29273W        W 1599  38.872   2.275   0.828
29274W        W 1600   4.527   6.753  10.390
29275W        W 1601  35.104  16.517   0.472
29276W        W 1602  39.815  33.441  12.405
29277W        W 1603  42.327  19.829   3.591
29278W        W 1604  33.500  32.549   0.884
29279W        W 1605   1.913  12.545  11.826
29280W        W 1606  27.600  11.594   1.335
29281W        W 1607  13.121  13.091   5.168
29282W        W 1608  18.141   8.886  13.519
29283W        W 1609  32.157  16.561   4.506
29284W        W 1610  39.258   8.889  11.619
29285W        W 1611   6.806   7.144  11.219
29286W        W 1612  43.272   3.396   3.614
29287W        W 1613  37.348  43.095  14.478
29288W        W 1614  34.429  11.699  13.531
29289W        W 1615  34.516  19.033   3.141
29290W        W 1616  25.026  27.695   2.199
29291W        W 1617  29.704  24.017  12.460
29292W        W 1618  40.522   7.416   4.215
29293W        W 1619   4.791  28.169   1.178
29294W        W 1620  42.852  20.181   3.183
29295W        W 1621   4.418  18.027  10.975
29296W        W 1622   4.716  30.484   4.116
29297W        W 1623   6.131  25.697   1.488
29298W        W 1624  13.351  22.006   2.144
29299W        W 1625  35.809  14.975   2.357
29300W        W 1626  33.960  30.108   3.344
29301W        W 1627   5.812   5.737  14.521
29302W        W 1628  39.833   6.221   3.253
29303W        W 1629   0.014   4.193   0.861
29304W        W 1630  42.456  41.538  13.135
29305W        W 1631   3.842  36.003  13.546
29306W        W 1632  33.661  24.173   2.356
29307W        W 1633  42.483  40.757   0.147
29308W        W 1634  36.311  34.876   1.822
29309W        W 1635  30.945  32.699   0.146
29310W        W 1636   5.260  38.930   0.532
29311W        W 1637  18.633  16.056  12.583
29312W        W 1638  32.253  25.627  13.036
29313W        W 1639  25.732  21.820   2.735
29314W        W 1640  18.211  28.706  12.025
29315W        W 1641   7.347   4.804   4.781
29316W        W 1642  14.770  23.571  13.661
29317W        W 1643  20.244   8.332  14.008
29318W        W 1644   9.375  17.983   2.751
29319W        W 1645  27.438  35.807  14.476
29320W        W 1646  34.434   3.865   3.104
29321W        W 1647  44.462   0.321  14.864
29322W        W 1648   5.458  32.565   1.734
29323W        W 1649  24.575   9.621  13.574
29324W        W 1650  31.502  33.037   4.267
29325W        W 1651  29.514  21.234   2.704
29326W        W 1652  37.467  28.009  11.613
29327W        W 1653  18.561  38.975  11.376
29328W        W 1654  44.896   1.954  13.351
29329W        W 1655  16.851  22.058   3.550
29330W        W 1656   5.457   4.902   0.985
29331W        W 1657  36.148  25.729   0.718
29332W        W 1658  24.988   6.774  14.668
29333W        W 1659  26.518  43.434   0.730
29334W        W 1660  16.001  26.481   2.905
29335W        W 1661   6.129  27.783  11.308
29336W        W 1662  24.049  30.681   2.259
29337W        W 1663  36.847  23.493   2.232
29338W        W 1664   9.920  10.163  14.896
29339W        W 1665  19.557  42.898   1.700
29340W        W 1666  31.922  27.959  10.723
29341W        W 1667  41.348   4.704  11.441
29342W        W 1668  29.648  27.341   3.895
29343W        W 1669  33.527  37.817  10.841
29344W        W 1670  40.069  39.394  11.826
29345W        W 1671   1.291  20.716   0.848
29346W        W 1672  27.164  31.819  11.824
29347W        W 1673  38.543  17.720  11.096
29348W        W 1674   8.771  12.073  12.625
29349W        W 1675   0.874   0.273   2.693
29350W        W 1676  32.537  26.505   1.343
29351W        W 1677  10.322   7.362   1.234
29352W        W 1678   1.321  12.403  12.176
29353W        W 1679   5.940   5.480   1.866
29354W        W 1680  29.942  26.232  11.076
29355W        W 1681  32.346   1.801  10.754
29356W        W 1682   7.417  41.837   4.135
29357W        W 1683   4.022  21.829   1.178
29358W        W 1684   0.985  35.463   0.289
29359W        W 1685  24.544  36.414  11.395
29360W        W 1686  26.618  15.928   2.234
29361W        W 1687  38.426  34.173  12.619
29362W        W 1688   4.909   0.388   0.366
29363W        W 1689  17.772   6.119  14.238
29364W        W 1690  21.279   0.217   1.261
29365W        W 1691  17.011  39.790  14.788
29366W        W 1692  16.542  26.177  12.274
29367W        W 1693  29.762   3.757   0.847
29368W        W 1694   3.958  31.059   1.502
29369W        W 1695  17.765  28.537  11.616
29370W        W 1696  43.735  38.115   2.176
29371W        W 1697  22.709  41.883   3.365
29372W        W 1698   4.788   9.456  11.493
29373W        W 1699   1.934  16.337   3.734
29374W        W 1700  43.864  43.745   2.828
29375W        W 1701   0.526  36.397   1.854
29376W        W 1702  27.997   0.250  12.168
29377W        W 1703  17.196  19.242   2.772
29378W        W 1704   8.934  28.699  12.957
29379W        W 1705  16.834  38.716  14.899
29380W        W 1706  36.810  34.405  13.893
29381W        W 1707   9.880   3.343  14.767
29382W        W 1708   3.661  44.537  12.493
29383W        W 1709   5.002   6.859  10.198
29384W        W 1710  33.510  11.823  10.806
29385W        W 1711  41.868  17.259   2.732
29386W        W 1712  18.167  33.694  10.443
29387W        W 1713  18.187  27.620   4.559
29388W        W 1714  22.729  33.915   1.535
29389W        W 1715  19.801   0.823  13.429
29390W        W 1716   5.900  43.829   4.669
29391W        W 1717  36.518  18.311  12.983
29392W        W 1718  42.356  42.918   0.749
29393W        W 1719  36.842  42.462  13.194
29394W        W 1720  38.972  11.772   0.723
29395W        W 1721  39.255  36.113   3.461
29396W        W 1722  33.583  30.486  14.046
29397W        W 1723   0.879  38.170  12.885
29398W        W 1724   8.151  22.076   0.494
29399W        W 1725  14.662  18.673   4.485
29400W        W 1726  11.089   2.285  14.841
29401W        W 1727  41.741  38.927   5.018
29402W        W 1728  26.115  42.214   0.301
29403W        W 1729  16.777  43.859   1.296
29404W        W 1730  14.460  44.741   3.771
29405W        W 1731   5.198   5.897   9.798
29406W        W 1732  12.235   7.411   3.081
29407W        W 1733   8.469  36.004   2.383
29408W        W 1734  25.096  13.825   1.309
29409W        W 1735  15.913  28.634  11.200
29410W        W 1736  15.251   0.387   3.575
29411W        W 1737  26.125  37.807  14.931
29412W        W 1738   2.254  31.130  14.348
29413W        W 1739  22.500  23.606   0.386
29414W        W 1740  19.203   8.414  12.594
29415W        W 1741  20.643  28.431   0.952
29416W        W 1742  38.981  36.697   0.821
29417W        W 1743  42.038  32.253  12.443
29418W        W 1744   9.656  11.315   4.697
29419W        W 1745  10.390  11.576  13.837
29420W        W 1746  15.278  43.832   4.073
29421W        W 1747  34.807  26.047  10.709
29422W        W 1748  24.425  38.370  10.506
29423W        W 1749  28.196  43.536   1.319
29424W        W 1750  11.322   8.326  12.332
29425W        W 1751   1.545  25.491  14.387
29426W        W 1752   7.126  31.390   2.193
29427W        W 1753  15.287   7.683  12.092
29428W        W 1754   1.920  23.062   4.147
29429W        W 1755  32.100   4.804   2.887
29430W        W 1756  32.577  37.564  12.580
29431W        W 1757   7.627  41.561   2.766
29432W        W 1758   6.372  38.219  10.848
29433W        W 1759  34.203   1.894   3.259
29434W        W 1760   2.877  35.333  14.860
29435W        W 1761  20.282  19.293   1.342
29436W        W 1762  44.214  13.212  11.868
29437W        W 1763  12.332  36.878   1.986
29438W        W 1764  42.474  41.126  12.803
29439W        W 1765  43.559   8.754  13.630
29440W        W 1766   1.023  35.940  13.212
29441W        W 1767  14.156   1.282   4.378
29442W        W 1768  31.002  31.434   2.157
29443W        W 1769  16.207  23.628  11.053
29444W        W 1770  26.825  29.148   4.472
29445W        W 1771  35.185  37.038  12.140
29446W        W 1772  34.379  28.505  11.057
29447W        W 1773  11.667   4.481  12.406
29448W        W 1774   3.186  42.486  12.917
29449W        W 1775   0.709  31.564   4.584
29450W        W 1776   1.299  10.643  12.155
29451W        W 1777  34.896  38.895   1.807
29452W        W 1778  32.022  31.992   4.690
29453W        W 1779  19.255   6.684   3.782
29454W        W 1780   6.343   6.920  12.026
29455W        W 1781   4.753  36.505  11.587
29456W        W 1782  30.301   8.557   1.280
29457W        W 1783  42.966  41.521  11.506
29458W        W 1784  24.005   5.735  13.416
29459W        W 1785  24.341  13.404  14.540
29460W        W 1786   7.204   7.923   3.972
29461W        W 1787  34.865  16.937   4.194
29462W        W 1788  30.604   8.649  12.824
29463W        W 1789  20.650  40.464   4.340
29464W        W 1790  29.007  17.948  14.439
29465W        W 1791   3.178  13.150   4.215
29466W        W 1792   0.276  25.059  11.605
29467W        W 1793  10.115  35.937  12.451
29468W        W 1794  20.296   0.890   4.695
29469W        W 1795  31.816   4.800   2.293
29470W        W 1796  15.097   6.741   0.047
29471W        W 1797  31.613  35.395  11.493
29472W        W 1798  28.641  23.732   4.714
29473W        W 1799  42.884  31.288   4.687
29474W        W 1800  13.255   5.824   4.529
29475W        W 1801   1.401  10.258   9.883
29476W        W 1802   7.158  30.491  11.441
29477W        W 1803  10.700  31.076   1.240
29478W        W 1804  26.520  24.147  11.247
29479W        W 1805   6.368  12.679   4.564
29480W        W 1806  15.027   0.734   2.196
29481W        W 1807  42.522  40.835   4.756
29482W        W 1808  37.994  34.115   1.831
29483W        W 1809  34.555   8.887  11.964
29484W        W 1810  12.622   6.876  11.677
29485W        W 1811  39.484  40.399   3.230
29486W        W 1812   9.126  16.200  14.934
29487W        W 1813  16.158  24.077   2.764
29488W        W 1814  41.937  10.918   2.217
29489W        W 1815  38.032   9.948   0.801
29490W        W 1816   8.460  14.807   4.103
29491W        W 1817   2.224  31.456   2.132
29492W        W 1818  10.419  35.568   4.698
29493W        W 1819  13.606  34.889  13.032
29494W        W 1820  42.725  36.108   1.980
29495W        W 1821  38.962  23.379  11.540
29496W        W 1822  20.645   5.917  10.742
29497W        W 1823  15.695  25.671   2.580
29498W        W 1824  18.094  19.662   0.328
29499W        W 1825  18.058  33.866   3.229
29500W        W 1826  36.283  21.682  11.625
29501W        W 1827   3.743  25.736   2.816
29502W        W 1828  42.267   5.464   0.390
29503W        W 1829  42.267   9.218   3.155
29504W        W 1830  38.449  21.040   4.284
29505W        W 1831  35.462   3.740  13.366
29506W        W 1832  40.420  28.732  12.593
29507W        W 1833  12.283  11.659   2.956
29508W        W 1834  30.654  36.484  11.565
29509W        W 1835  28.449   9.435  11.920
29510W        W 1836  26.835  24.950   0.168
29511W        W 1837   1.983  20.546   3.072
29512W        W 1838   6.776  43.897   3.750
29513W        W 1839  26.532  24.002   1.361
29514W        W 1840  16.363   0.996  11.852
29515W        W 1841  22.492  16.311  13.027
29516W        W 1842  38.255  29.756   0.715
29517W        W 1843  31.240  41.020  13.347
29518W        W 1844  35.907  23.629  13.822
29519W        W 1845  11.303   7.009  11.517
29520W        W 1846   5.181  41.312   2.853
29521W        W 1847   9.630  42.353   3.635
29522W        W 1848  11.350  26.277  13.548
29523W        W 1849  36.150  31.613  13.876
29524W        W 1850  16.706  26.795  10.808
29525W        W 1851  10.723  13.036   3.724
29526W        W 1852  40.478  11.764   2.643
29527W        W 1853  42.969  35.009  12.040
29528W        W 1854  37.456  10.614  13.413
29529W        W 1855   6.447   9.318  11.447
29530W        W 1856  12.240  35.132  12.606
29531W        W 1857  31.967   6.666   2.806
29532W        W 1858  25.589  27.375  10.986
29533W        W 1859  26.461  17.349  14.469
29534W        W 1860  15.552   2.775  12.502
29535W        W 1861  34.938  13.655   1.837
29536W        W 1862  11.095  41.318   1.426
29537W        W 1863  25.529  33.197  10.483
29538W        W 1864  41.334  27.043  10.878
29539W        W 1865  41.730   3.859   0.335
29540W        W 1866   9.171  18.252  11.133
29541W        W 1867  16.510  39.911  11.667
29542W        W 1868  13.823  16.672  11.493
29543W        W 1869  21.218  41.499   3.673
29544W        W 1870  27.037  43.364  10.883
29545W        W 1871  31.462  38.551   0.814
29546W        W 1872  13.458  37.568   2.351
29547W        W 1873  43.630  44.487  12.525
29548W        W 1874  16.743  33.515  11.554
29549W        W 1875  35.019  40.891   3.249
29550W        W 1876  34.850  32.180  14.914
29551W        W 1877  15.125   1.495  13.884
29552W        W 1878  44.283   7.440   0.535
29553W        W 1879  13.694  28.207  11.802
29554W        W 1880  38.577   3.015  12.949
29555W        W 1881   6.838  27.547  12.185
29556W        W 1882  29.220  41.351   2.470
29557W        W 1883  42.601   1.507   1.380
29558W        W 1884  41.286  19.797  11.922
29559W        W 1885  15.444  34.907  12.374
29560W        W 1886  22.079   1.502  12.872
29561W        W 1887  12.437  40.021   1.749
29562W        W 1888  30.646  33.862   2.430
29563W        W 1889  40.081   8.872  12.060
29564W        W 1890   7.754  13.182   3.191
29565W        W 1891  31.361  32.412   3.649
29566W        W 1892  12.434  36.616   4.196
29567W        W 1893  17.895  24.013   0.881
29568W        W 1894  24.595  26.542  11.540
29569W        W 1895  39.766  36.369  12.460
29570W        W 1896  38.918   5.666  14.647
29571W        W 1897   0.616  21.564  11.649
29572W        W 1898  26.611  15.776   3.140
29573W        W 1899  37.986  12.671   0.878
29574W        W 1900  26.391   3.897   4.229
29575W        W 1901  33.603  27.405  12.983
29576W        W 1902  23.511   2.673   1.230
29577W        W 1903  14.619  36.455  10.083
29578W        W 1904   0.279   2.540  11.332
29579W        W 1905  41.797   8.294  12.410
29580W        W 1906  19.048  15.075   0.859
29581W        W 1907   0.667  25.501  13.309
29582W        W 1908  15.340  40.481   0.691
29583W        W 1909  18.020   2.959   3.768
29584W        W 1910  25.287  42.095   4.197
29585W        W 1911  42.472  23.672  12.413
29586W        W 1912   4.992  24.005  13.955
29587W        W 1913   5.754   4.506   2.811
29588W        W 1914  39.247   5.386   3.311
29589W        W 1915  42.514  33.907   1.232
29590W        W 1916  13.590  27.462  13.111
29591W        W 1917  43.430   7.010  13.719
29592W        W 1918  23.509  39.634  14.458
29593W        W 1919  12.098  42.502  12.901
29594W        W 1920   7.696  44.512  10.809
29595W        W 1921  34.662  29.601  13.459
29596W        W 1922  44.887  26.572   1.676
29597W        W 1923  33.453   8.905   5.084
29598W        W 1924  12.393  20.142   0.724
29599W        W 1925  22.428  11.805   1.219
29600W        W 1926  28.011  29.641   0.278
29601W        W 1927   1.264  10.079  11.122
29602W        W 1928  28.618  15.207  13.067
29603W        W 1929  23.337   3.888   3.719
29604W        W 1930  18.179  26.541   4.114
29605W        W 1931  31.565  16.250   1.707
29606W        W 1932  39.521   6.929  12.079
29607W        W 1933  34.951  20.157   1.115
29608W        W 1934  14.266  19.764  12.070
29609W        W 1935  38.640  41.974  13.419
29610W        W 1936   5.404  18.497  11.180
29611W        W 1937  25.619  28.244  11.226
29612W        W 1938  33.345  25.258  13.348
29613W        W 1939   3.968  44.485  11.509
29614W        W 1940   3.372  43.587   1.902
29615W        W 1941  18.234   5.459   3.802
29616W        W 1942  12.553  22.067   3.616
29617W        W 1943   0.489  17.888  14.011
29618W        W 1944  20.592  23.750  13.877
29619W        W 1945  40.914  11.149   3.130
29620W        W 1946  25.949  25.075  13.882
29621W        W 1947  32.927  44.425   4.803
29622W        W 1948  17.072  36.928  12.323
29623W        W 1949  35.340  41.127   1.888
29624W        W 1950   5.934   9.746  10.875
29625W        W 1951  38.323   8.704   4.970
29626W        W 1952   5.901  41.519  14.439
29627W        W 1953  43.061  29.895   4.116
29628W        W 1954  17.797  19.662   0.758
29629W        W 1955  11.022  18.706   3.314
29630W        W 1956   7.403  11.724  14.125
29631W        W 1957  32.665  29.588   1.968
29632W        W 1958  25.954  13.181   1.195
29633W        W 1959  40.038  27.516  11.070
29634W        W 1960  23.113  11.274   1.513
29635W        W 1961   1.739  13.924  11.094
29636W        W 1962  28.620  27.544  11.732
29637W        W 1963  41.033  14.750  14.384
29638W        W 1964  33.490  26.824   3.029
29639W        W 1965  30.018   5.173   0.515
29640W        W 1966  24.922  29.495  12.996
29641W        W 1967  13.779  36.730   9.715
29642W        W 1968  16.538  17.238   3.384
29643W        W 1969   3.291  25.729   3.715
29644W        W 1970   9.456  39.558  11.193
29645W        W 1971  17.207  14.779  14.306
29646W        W 1972  16.965  29.523   2.194
29647W        W 1973  33.467  14.161   0.309
29648W        W 1974  35.284  43.909   0.625
29649W        W 1975   8.791  40.409  12.460
29650W        W 1976   9.795   5.956  13.905
29651W        W 1977  15.201  24.697  14.443
29652W        W 1978  16.057  14.879  14.270
29653W        W 1979   6.803  23.454   4.993
29654W        W 1980  35.326  11.885   3.403
29655W        W 1981  15.692  27.600  11.261
29656W        W 1982  13.779  32.491  10.433
29657W        W 1983  44.721  40.647   1.628
29658W        W 1984  37.191  10.710   5.128
29659W        W 1985  37.086  35.103  14.410
29660W        W 1986  11.901  29.766   4.137
29661W        W 1987  30.632  36.564  14.799
29662W        W 1988  27.904  43.799  13.855
29663W        W 1989   4.089  34.122   0.941
29664W        W 1990  27.009  28.067  10.700
29665W        W 1991  33.789  41.702   4.124
29666W        W 1992  35.490  20.811  14.103
29667W        W 1993  42.229  43.352  14.890
29668W        W 1994  14.195  21.176   3.633
29669W        W 1995  30.914  27.038   4.414
29670W        W 1996  31.983  40.125  10.047
29671W        W 1997  37.580  11.780  14.322
29672W        W 1998  32.026   3.986   1.009
29673W        W 1999   8.212  32.043  12.688
29674W        W 2000  36.782  16.737  11.573
29675W        W 2001  16.124   2.127   2.154
29676W        W 2002  44.234  13.171   3.141
29677W        W 2003  18.762   6.383   2.363
29678W        W 2004  28.186  15.676  12.290
29679W        W 2005  25.942   4.347  12.488
29680W        W 2006  36.391  38.267   0.375
29681W        W 2007   8.896   8.229  12.552
29682W        W 2008   3.361  41.279   0.307
29683W        W 2009  36.316  36.615   4.293
29684W        W 2010  14.594  38.435   0.987
29685W        W 2011  27.098  38.202  12.379
29686W        W 2012   1.141   0.779   5.121
29687W        W 2013  13.628  31.029  13.740
29688W        W 2014   6.305  12.401   1.354
29689W        W 2015  20.654  32.963  13.369
29690W        W 2016  29.658  20.325   2.153
29691W        W 2017  13.185   8.320   2.391
29692W        W 2018  12.355  25.180  10.904
29693W        W 2019   7.006  41.378   3.327
29694W        W 2020  31.446   8.481  13.438
29695W        W 2021  44.190  10.128  11.112
29696W        W 2022   5.954  29.906   3.742
29697W        W 2023   1.325  31.669   4.101
29698W        W 2024  15.307  20.229  13.122
29699W        W 2025   3.323  31.204  11.953
29700W        W 2026   3.246  21.041  11.257
29701W        W 2027  31.681   6.203  12.351
29702W        W 2028  17.993   1.715  14.028
29703W        W 2029  33.466  37.573   1.484
29704W        W 2030  31.702   8.097  11.213
29705W        W 2031  23.536  35.671  12.139
29706W        W 2032  21.266  24.730  10.804
29707W        W 2033   3.231  24.994  10.517
29708W        W 2034  22.775  35.963  11.269
29709W        W 2035  40.431  34.226   3.528
29710W        W 2036  21.185  41.229   0.806
29711W        W 2037  10.323  37.362  14.398
29712W        W 2038  18.967   2.878   2.532
29713W        W 2039  28.459  26.979  12.853
29714W        W 2040  39.730  12.213   3.100
29715W        W 2041   9.350  28.956   2.279
29716W        W 2042  27.399  29.638   1.160
29717W        W 2043   0.319   8.401  11.112
29718W        W 2044  25.653  29.155  14.297
29719W        W 2045  27.690  19.676  10.354
29720W        W 2046  26.210  26.333  14.759
29721W        W 2047   5.996  33.526  11.904
29722W        W 2048  38.207  11.372  14.774
29723W        W 2049  35.667  23.684  11.497
29724W        W 2050  24.738  10.917   3.643
29725W        W 2051  15.271  21.270   1.882
29726W        W 2052  41.075  38.831  12.606
29727W        W 2053  40.583  10.886  13.310
29728W        W 2054   2.185   9.878  12.288
29729W        W 2055  37.929  39.277  12.642
29730W        W 2056  43.820  17.125   0.398
29731W        W 2057  24.434  24.072   1.734
29732W        W 2058  21.134   3.311  13.412
29733W        W 2059  34.339  34.894   2.837
29734W        W 2060  29.106  23.026   4.894
29735W        W 2061  18.558  31.401   3.338
29736W        W 2062   3.028  18.109  13.759
29737W        W 2063  10.741  31.112  13.549
29738W        W 2064  36.363  32.292   3.247
29739W        W 2065  35.563  40.305  11.579
29740W        W 2066  11.570  37.766   4.872
29741W        W 2067  37.015   5.211   4.123
29742W        W 2068  36.085   8.823  13.090
29743W        W 2069  36.360  31.509   2.345
29744W        W 2070  15.525  26.560   0.741
29745W        W 2071   9.734  23.140  14.366
29746W        W 2072   5.965  14.701   4.506
29747W        W 2073  28.017  14.017  10.424
29748W        W 2074   0.007  34.461  12.773
29749W        W 2075  26.765  30.949   2.347
29750W        W 2076  20.822  15.198  11.152
29751W        W 2077  28.084  29.063  12.127
29752W        W 2078   8.754  32.926   1.718
29753W        W 2079  18.372  38.124   1.826
29754W        W 2080  38.631  17.989  12.336
29755W        W 2081  22.532   8.101   3.795
29756W        W 2082  30.429  21.591   4.231
29757W        W 2083  19.207   0.654  11.254
29758W        W 2084  10.425  38.627   4.307
29759W        W 2085  21.148   7.766   1.398
29760W        W 2086   5.681  43.435   1.770
29761W        W 2087  12.605  27.811   0.782
29762W        W 2088  38.603  35.052  12.406
29763W        W 2089  33.500  21.451   1.950
29764W        W 2090   1.308  37.745  14.981
29765W        W 2091  20.054   5.026  12.054
29766W        W 2092   3.490  42.809  12.576
29767W        W 2093   3.288  33.413  12.988
29768W        W 2094  25.645  27.600   1.987
29769W        W 2095  43.854   9.939   2.530
29770W        W 2096  37.217  19.832   5.115
29771W        W 2097  10.143  11.613   0.877
29772W        W 2098  19.554  12.203   3.874
29773W        W 2099  36.086  10.409  10.248
29774W        W 2100  38.913  11.481  14.513
29775W        W 2101  42.813  34.316   1.381
29776W        W 2102  41.351  37.278  14.894
29777W        W 2103  12.031  41.513  12.066
29778W        W 2104  12.397  32.930   4.883
29779W        W 2105  16.329   5.328   0.909
29780W        W 2106  34.225   6.910   0.045
29781W        W 2107  13.930   4.709   3.774
29782W        W 2108   6.637   1.740   1.791
29783W        W 2109  29.827  19.666  13.928
29784W        W 2110  20.122   4.966   2.589
29785W        W 2111  37.919  23.617  13.332
29786W        W 2112   4.622  41.785   0.383
29787W        W 2113  11.969  23.052  11.587
29788W        W 2114  17.665  36.849   1.831
29789W        W 2115   8.431  15.130  13.975
29790W        W 2116   2.061  35.735  13.089
29791W        W 2117  43.319  23.929  10.709
29792W        W 2118  12.678  35.338   3.673
29793W        W 2119   3.972  16.745  13.374
29794W        W 2120  24.454  14.788  12.421
29795W        W 2121   7.212  11.120  12.498
29796W        W 2122  13.596  35.959  12.536
29797W        W 2123  27.918  17.060   0.521
29798W        W 2124   8.392   7.208   2.879
29799W        W 2125  29.007  36.321   2.856
29800W        W 2126  21.847  19.126   4.960
29801W        W 2127   6.256   0.948   1.156
29802W        W 2128  24.646  18.181  10.656
29803W        W 2129  29.977   0.731   4.109
29804W        W 2130  30.120  21.761  12.581
29805W        W 2131  39.039  16.185  11.431
29806W        W 2132  34.966  29.212  12.669
29807W        W 2133  40.105  18.775  12.196
29808W        W 2134  21.263  44.502   4.167
29809W        W 2135  32.849  21.911  11.074
29810W        W 2136  40.756  39.812   3.122
29811W        W 2137  38.303  25.726   1.383
29812W        W 2138   4.781  11.050  10.200
29813W        W 2139  27.210  24.084  14.749
29814W        W 2140  23.981   0.385   2.880
29815W        W 2141  36.132  25.573   1.604
29816W        W 2142  15.134  26.260  12.494
29817W        W 2143  20.733   2.046  11.730
29818W        W 2144  32.373  37.413  13.503
29819W        W 2145  32.601  14.058  12.338
29820W        W 2146   3.880  39.988  12.700
29821W        W 2147  27.531  44.525  13.401
29822W        W 2148  25.723  25.038  11.995
29823W        W 2149   8.129   4.317  12.977
29824W        W 2150   5.255   5.408   4.107
29825W        W 2151  40.779  10.880  14.370
29826W        W 2152  34.846  22.158  13.334
29827W        W 2153   2.155  17.606   3.078
29828W        W 2154  24.090  40.065   0.737
29829W        W 2155  34.465  28.922   1.457
29830W        W 2156   3.591   1.393   9.991
29831W        W 2157  23.293   7.702  13.327
29832W        W 2158  42.237  27.530  12.870
29833W        W 2159   2.709  12.769   3.662
29834W        W 2160  40.729   4.721  10.727
29835W        W 2161  38.881   7.486  10.640
29836W        W 2162  24.809  20.722  14.322
29837W        W 2163  43.517  40.282   1.203
29838W        W 2164  23.079   6.717  13.417
29839W        W 2165  30.166   4.164  12.124
29840W        W 2166  42.898   7.846   3.614
29841W        W 2167  27.710  16.126   0.895
29842W        W 2168  24.613  13.089   3.269
29843W        W 2169   2.867  42.114   2.653
29844W        W 2170  12.676  28.728   1.480
29845W        W 2171  31.351  43.771   1.882
29846W        W 2172  21.419  20.083   3.252
29847W        W 2173  11.703  26.942   4.053
29848W        W 2174   4.345  18.999   4.869
29849W        W 2175  21.716  23.985   2.316
29850W        W 2176  12.061  10.834  12.047
29851W        W 2177  34.791  37.534   4.605
29852W        W 2178  14.657  19.992  10.598
29853W        W 2179   5.411  41.568   1.393
29854W        W 2180  14.216  20.915   3.166
29855W        W 2181  26.363  38.675   1.375
29856W        W 2182   4.256  44.398   4.652
29857W        W 2183   6.309  38.798  13.350
29858W        W 2184  37.889   0.154  13.621
29859W        W 2185   6.966  43.544  14.363
29860W        W 2186   9.519  26.718   4.520
29861W        W 2187  10.677  38.806   3.206
29862W        W 2188  32.539  32.060   4.856
29863W        W 2189  11.978  21.512  13.749
29864W        W 2190  31.866  26.627  11.224
29865W        W 2191   7.727  18.308   5.121
29866W        W 2192  44.899   2.277   3.232
29867W        W 2193  43.254  36.426  14.315
29868W        W 2194  43.839  29.443   4.097
29869W        W 2195  38.044  13.452   1.325
29870W        W 2196  38.484  29.601  11.616
29871W        W 2197  36.459   8.751   0.786
29872W        W 2198  29.368  15.592   4.153
29873W        W 2199   7.897  26.052  14.858
29874W        W 2200   1.282  43.828  10.420
29875W        W 2201  14.144   6.992   3.849
29876W        W 2202  13.278  10.738   2.337
29877W        W 2203  21.481   3.409   4.564
29878W        W 2204  28.126   7.169   4.156
29879W        W 2205  14.876  25.513   3.786
29880W        W 2206  26.992   3.230  12.124
29881W        W 2207  14.098   9.918  11.132
29882W        W 2208  21.856  31.515   0.801
29883W        W 2209  37.366  19.312   4.920
29884W        W 2210  24.950  23.533   3.112
29885W        W 2211  36.099   4.012  13.380
29886W        W 2212   5.673   1.308  12.049
29887W        W 2213  16.769  16.409  13.031
29888W        W 2214  35.852  16.572   4.280
29889W        W 2215  13.547   6.802  13.858
29890W        W 2216  22.775  38.889   3.073
29891W        W 2217  36.469   7.467  11.073
29892W        W 2218  41.491  37.550  14.416
29893W        W 2219  36.770  18.189  11.344
29894W        W 2220  32.215  16.650  12.111
29895W        W 2221   6.415  28.176   4.781
29896W        W 2222  14.282  25.102   1.536
29897W        W 2223  33.574  31.138   0.798
29898W        W 2224  22.151  18.159   4.865
29899W        W 2225  36.033  43.317   3.703
29900W        W 2226  21.703  15.658  11.117
29901W        W 2227   4.001  26.095   2.505
29902W        W 2228  39.096  13.302  14.582
29903W        W 2229   4.403  19.206   2.859
29904W        W 2230  15.626  31.846  13.925
29905W        W 2231  32.264  18.186   1.708
29906W        W 2232  15.449  25.641   3.354
29907W        W 2233  30.419   3.086  11.213
29908W        W 2234  18.018   3.235  13.120
29909W        W 2235  16.564  36.627  12.009
29910W        W 2236  33.605  11.877  13.408
29911W        W 2237  36.793  39.187  14.886
29912W        W 2238  38.065  42.327  13.944
29913W        W 2239   8.637  32.481  12.894
29914W        W 2240  10.733  15.374   3.394
29915W        W 2241   7.419  41.926   4.649
29916W        W 2242  35.490  37.111  11.552
29917W        W 2243  44.382  39.041  11.030
29918W        W 2244  13.817  36.496  14.902
29919W        W 2245  23.489   2.798  11.038
29920W        W 2246  33.964  22.035   2.357
29921W        W 2247   4.251   1.437   4.143
29922W        W 2248   5.797  13.254   0.557
29923W        W 2249   5.498  29.613  13.508
29924W        W 2250   0.688  29.615   4.138
29925W        W 2251  31.720  24.079  14.395
29926W        W 2252  14.373  19.477   0.408
29927W        W 2253  30.004  25.609  13.626
29928W        W 2254   9.322   0.046   1.328
29929W        W 2255  29.411  44.893   2.235
29930W        W 2256  41.991   3.471   4.847
29931W        W 2257   8.162  34.772  14.976
29932W        W 2258  44.638   1.003   1.872
29933W        W 2259  33.989  15.169  14.260
29934W        W 2260  34.138  23.101  11.151
29935W        W 2261  35.807  13.888   1.789
29936W        W 2262  21.953   1.375   0.971
29937W        W 2263  20.381  33.932  13.444
29938W        W 2264   2.996  24.029   1.876
29939W        W 2265  14.882   2.620   4.110
29940W        W 2266  28.059  27.228  11.704
29941W        W 2267  44.898  36.309   4.820
29942W        W 2268  15.314  30.887  14.827
29943W        W 2269   3.736  25.050  11.418
29944W        W 2270   6.249  22.624   4.093
29945W        W 2271  19.981  38.910  13.014
29946W        W 2272  26.525  36.522   3.153
29947W        W 2273   9.969  28.492   1.926
29948W        W 2274  10.158   4.240   3.760
29949W        W 2275   3.735  34.368  11.122
29950W        W 2276  21.960  35.274   1.757
29951W        W 2277  26.014  41.363   3.850
29952W        W 2278   6.413  18.519   1.435
29953W        W 2279  11.939   5.290  14.709
29954W        W 2280  32.876  23.212  13.907
29955W        W 2281  20.320  16.678   4.057
29956W        W 2282   0.600  14.765  11.858
29957W        W 2283  10.086  20.611  11.133
29958W        W 2284  30.706  14.129   3.645
29959W        W 2285  32.502  33.245   0.808
29960W        W 2286   2.183  44.878   3.743
29961W        W 2287   6.802  42.280  14.839
29962W        W 2288  25.708  18.119   4.262
29963W        W 2289  11.966  42.580   2.585
29964W        W 2290  41.031  27.021   1.259
29965W        W 2291  40.061  27.778  11.962
29966W        W 2292  10.659   4.245   2.338
29967W        W 2293  41.141  35.699  12.052
29968W        W 2294  41.019  22.714  10.475
29969W        W 2295   0.331  17.282  13.538
29970W        W 2296  17.240  44.001  12.379
29971W        W 2297  34.349  30.003  12.966
29972W        W 2298  43.894  18.422  14.781
29973W        W 2299   5.796  43.862  10.862
29974W        W 2300  11.733   9.107  12.065
29975W        W 2301  19.040  44.692  13.351
29976W        W 2302  20.516  17.832   4.320
29977W        W 2303  39.054   2.860  14.765
29978W        W 2304  23.171  39.075   1.365
29979W        W 2305  22.683  30.025   0.192
29980W        W 2306  20.127  37.501  10.540
29981W        W 2307  44.736   3.034   0.594
29982W        W 2308  34.042  44.228  11.098
29983W        W 2309  18.841  26.071   4.623
29984W        W 2310  29.857  24.178   2.772
29985W        W 2311  27.080   9.206  11.004
29986W        W 2312  35.666   6.146  12.458
29987W        W 2313  44.251  34.623  10.569
29988W        W 2314  14.229  42.211  11.483
29989W        W 2315  10.808  36.373   1.547
29990W        W 2316  16.608  32.567   4.037
29991W        W 2317   0.640  27.576  13.545
29992W        W 2318  21.157  11.083  13.256
29993W        W 2319  41.000  24.045  10.683
29994W        W 2320  29.081   6.432   1.883
29995W        W 2321  41.435  43.488   0.293
29996W        W 2322  10.654  44.264   2.694
29997W        W 2323   5.364  34.192   1.626
29998W        W 2324   3.731  32.769  12.088
29999W        W 2325  39.116  11.371   2.821
30000W        W 2326  30.812  10.271  13.354
30001W        W 2327  40.316  23.146  11.556
30002W        W 2328  42.805   0.858  13.375
30003W        W 2329  12.596   1.778  11.621
30004W        W 2330  24.542   4.921   0.501
30005W        W 2331  31.642  21.058   1.752
30006W        W 2332  37.536  10.172  11.963
30007W        W 2333  43.036  14.634  13.474
30008W        W 2334  20.171   7.909  12.833
30009W        W 2335  13.187  32.982   2.335
30010W        W 2336  37.143  16.038   2.287
30011W        W 2337  26.229  11.093   0.317
30012W        W 2338   6.804  42.284  13.049
30013W        W 2339  21.333  14.188  12.506
30014W        W 2340  13.826   1.368  12.457
30015W        W 2341  14.177  25.080  11.392
30016W        W 2342   3.457   4.696   4.699
30017W        W 2343  25.420  40.304   3.778
30018W        W 2344  42.965   6.965   0.967
30019W        W 2345  18.473  44.491  11.724
30020W        W 2346  33.106   3.585   1.711
30021W        W 2347   5.788   0.442  11.818
30022W        W 2348  30.488   8.774   0.189
30023W        W 2349  32.253  10.153   1.477
30024W        W 2350  41.936   5.173  11.872
30025W        W 2351  42.485  20.120   4.059
30026W        W 2352  20.816  30.915  13.774
30027W        W 2353  26.642  19.216   0.644
30028W        W 2354  20.086  11.051  10.154
30029W        W 2355  42.178  39.022   3.413
30030W        W 2356  39.969  15.017  13.899
30031W        W 2357  41.387  24.755  11.670
30032W        W 2358   4.742  42.292   2.890
30033W        W 2359  26.632   7.405   2.769
30034W        W 2360  42.703  31.026   4.117
30035W        W 2361  40.292  17.255   3.798
30036W        W 2362  19.275   0.179  11.379
30037W        W 2363  40.431  35.043   2.451
30038W        W 2364  40.657  43.088  14.848
30039W        W 2365   3.227   3.901   4.242
30040W        W 2366  40.544   8.177  14.278
30041W        W 2367  15.078  24.642   2.331
30042W        W 2368  18.555  41.321  12.085
30043W        W 2369  19.447  44.868   1.468
30044W        W 2370   9.283  25.490   0.498
30045W        W 2371  29.643  19.338  10.305
30046W        W 2372  42.455   0.876   4.598
30047W        W 2373  36.629  25.321   4.262
30048W        W 2374  15.656   7.272  11.100
30049W        W 2375   7.761  26.567   0.349
30050W        W 2376  26.498   5.414   3.012
30051W        W 2377  15.416  37.340   1.373
30052W        W 2378  27.456  11.661   3.671
30053W        W 2379  30.998  35.577   0.961
30054W        W 2380   0.073  31.656  10.807
30055W        W 2381   0.500  25.915   0.159
30056W        W 2382  23.876  18.066   1.068
30057W        W 2383  10.694  40.928  11.711
30058W        W 2384  33.812  16.109   2.567
30059W        W 2385  10.826  27.629  10.313
30060W        W 2386  33.784  16.939  12.667
30061W        W 2387   9.956   6.559   5.100
30062W        W 2388   2.945  20.381   4.134
30063W        W 2389  14.306  40.284  12.504
30064W        W 2390  39.753  44.433  11.213
30065W        W 2391  25.672  22.544  11.620
30066W        W 2392  41.117  26.399   1.567
30067W        W 2393  35.899   9.925  13.956
30068W        W 2394  29.677   8.223  13.412
30069W        W 2395  33.395  35.795   9.715
30070W        W 2396  44.366  40.336  10.547
30071W        W 2397  13.744   5.923   1.773
30072W        W 2398  17.329  10.890  14.310
30073W        W 2399   1.009  41.517   3.703
30074W        W 2400  41.366   8.744  10.659
30075W        W 2401  40.445  42.431  14.768
30076W        W 2402  35.389  33.481  12.541
30077W        W 2403  19.294  33.811  14.421
30078W        W 2404   3.799  37.666   5.056
30079W        W 2405  14.819  39.490   0.894
30080W        W 2406  30.913   1.448   1.872
30081W        W 2407  15.146  23.164   1.836
30082W        W 2408  23.742  28.593   4.143
30083W        W 2409   3.969  41.383   0.816
30084W        W 2410  30.626  33.087   4.864
30085W        W 2411  42.959  20.801  13.387
30086W        W 2412  40.443  21.632  12.549
30087W        W 2413  15.334   8.728  11.657
30088W        W 2414  35.866  33.507   3.444
30089W        W 2415  32.858  26.649   0.287
30090W        W 2416   4.805  28.882  14.062
30091W        W 2417  36.782  41.111  13.515
30092W        W 2418  22.071  11.653  14.368
30093W        W 2419  14.178   2.782   2.800
30094W        W 2420  12.723  41.276  14.413
30095W        W 2421  19.761  14.619  11.698
30096W        W 2422  19.731  32.696  11.905
30097W        W 2423  14.735  32.006  13.840
30098W        W 2424  13.805  13.101   1.948
30099W        W 2425   8.058  30.384  13.754
30100W        W 2426  21.667   1.685  12.568
30101W        W 2427  44.991   0.613   1.843
30102W        W 2428  34.587  34.111  12.300
30103W        W 2429  43.006  39.883  14.219
30104W        W 2430  10.495  10.575  11.839
30105W        W 2431  38.760  38.096   3.637
30106W        W 2432  35.265  44.965   3.698
30107W        W 2433  38.127  33.464  11.520
30108W        W 2434  42.503  32.492  14.979
30109W        W 2435  40.509  18.480  10.821
30110W        W 2436   6.816  39.915   2.110
30111W        W 2437  30.501   9.854   2.764
30112W        W 2438  13.936   2.602   4.103
30113W        W 2439  18.602  18.758  11.546
30114W        W 2440  32.821  11.310   0.684
30115W        W 2441   1.440  32.170   4.039
30116W        W 2442   7.926  41.969  11.628
30117W        W 2443   0.766  38.866   2.810
30118W        W 2444  22.546  39.962  12.827
30119W        W 2445   7.701  28.254  11.920
30120W        W 2446  34.485  15.447   2.152
30121W        W 2447   2.314  30.587   2.638
30122W        W 2448  27.188  17.457  13.214
30123W        W 2449  42.799  25.581   3.563
30124W        W 2450   0.104   1.253  10.686
30125W        W 2451  28.522  14.349  11.003
30126W        W 2452   4.996  30.865  14.860
30127W        W 2453  31.668  31.190  14.816
30128W        W 2454  13.072   9.767   2.616
30129W        W 2455   0.368  23.081   2.308
30130W        W 2456  44.917  34.886   3.663
30131W        W 2457  17.203  40.959  11.430
30132W        W 2458  32.197  44.965   4.805
30133W        W 2459  37.534   4.915  13.781
30134W        W 2460  19.285  35.051   3.502
30135W        W 2461  41.549  18.667   3.224
30136W        W 2462  27.578  39.075   0.854
30137W        W 2463  38.155  12.416   4.075
30138W        W 2464  23.513   6.560  11.644
30139W        W 2465  31.521   3.156   3.358
30140W        W 2466  14.553   3.690   0.747
30141W        W 2467  25.675  14.244   3.527
30142W        W 2468  38.347  31.357   1.928
30143W        W 2469   5.988   5.418   3.597
30144W        W 2470  38.466   7.293   2.822
30145W        W 2471  35.886  43.860   2.628
30146W        W 2472  38.506   4.426   4.581
30147W        W 2473  10.170  19.126  11.284
30148W        W 2474  27.569  11.649   4.162
30149W        W 2475  37.569  11.996   2.305
30150W        W 2476  43.602   5.910   0.699
30151W        W 2477   7.139  21.798  11.418
30152W        W 2478  42.393   5.489  10.763
30153W        W 2479  35.087   8.838   2.714
30154W        W 2480   8.612   3.249   1.765
30155W        W 2481   1.904  20.806  10.586
30156W        W 2482  16.509  32.259  11.196
30157W        W 2483  17.299   7.223  13.278
30158W        W 2484  39.056  44.508   1.339
30159W        W 2485  37.124  15.213   0.670
30160W        W 2486  25.688  24.286   3.258
30161W        W 2487   8.677  32.047   2.042
30162W        W 2488   6.791  20.802   4.109
30163W        W 2489  33.902  28.907  14.225
30164W        W 2490  15.963  15.529  11.032
30165W        W 2491  12.468  28.783  14.969
30166W        W 2492  26.444   9.770   4.928
30167W        W 2493  17.514  13.056  14.758
30168W        W 2494  30.412  35.146  11.600
30169W        W 2495  14.730   8.449   1.915
30170W        W 2496  24.696   4.902   3.591
30171W        W 2497  23.703   7.786  12.829
30172W        W 2498  25.491  27.488   2.958
30173W        W 2499  34.142  26.915  14.765
30174W        W 2500  32.068  13.811  10.693
30175W        W 2501  27.550  15.590   2.714
30176W        W 2502  28.866   1.211  11.915
30177W        W 2503  22.671   1.972   0.763
30178W        W 2504  38.469   4.271  11.368
30179W        W 2505  10.677   3.590   0.825
30180W        W 2506  18.211  15.714  13.611
30181W        W 2507  20.737  44.159   2.982
30182W        W 2508  38.624  33.184   4.097
30183W        W 2509  23.743  39.346   1.803
30184W        W 2510  25.091  39.014   1.694
30185W        W 2511  34.347  40.941  14.462
30186W        W 2512  23.363   7.391   4.596
30187W        W 2513  41.288  11.161   2.769
30188W        W 2514  16.913   6.986  12.325
30189W        W 2515  40.667  37.830  11.150
30190W        W 2516  17.706  36.322   4.688
30191W        W 2517   5.718  26.587  12.298
30192W        W 2518  32.029   0.932  12.100
30193W        W 2519  10.283   5.097   0.357
30194W        W 2520  39.304  33.936   3.638
30195W        W 2521   7.836  26.018   1.685
30196W        W 2522  14.744  37.963  13.224
30197W        W 2523  33.806  31.158   0.333
30198W        W 2524   2.865   9.180  10.125
30199W        W 2525  26.742  31.587  13.478
30200W        W 2526  41.345  24.152   4.602
30201W        W 2527  36.757  32.868   2.485
30202W        W 2528  19.097   3.724   0.484
30203W        W 2529   6.310  10.944  11.210
30204W        W 2530   6.694  32.488  10.966
30205W        W 2531   4.425  39.590  10.804
30206W        W 2532  42.263   9.192  13.862
30207W        W 2533  27.142  23.782   0.704
30208W        W 2534  29.670   3.413   3.672
30209W        W 2535   0.457  33.520  14.435
30210W        W 2536  15.564  24.127   1.329
30211W        W 2537  15.456  44.411   3.735
30212W        W 2538  39.489   6.365  13.076
30213W        W 2539  27.123  14.181  13.321
30214W        W 2540  20.532  22.259  12.460
30215W        W 2541  28.179  19.594  12.467
30216W        W 2542  17.118  22.349  10.304
30217W        W 2543  20.807  23.180   4.556
30218W        W 2544  19.281  16.749   3.292
30219W        W 2545  15.649   5.126   4.517
30220W        W 2546  17.323  15.477  13.725
30221W        W 2547  20.504  26.685  11.167
30222W        W 2548  40.594  15.128  13.362
30223W        W 2549   2.215  21.132   0.772
30224W        W 2550   1.424  43.333   2.293
30225W        W 2551  24.203  22.676   2.430
30226W        W 2552   6.788   9.354   4.896
30227W        W 2553  21.372   3.255  12.464
30228W        W 2554  13.858  13.132   4.140
30229W        W 2555  20.084   7.896  14.241
30230W        W 2556  21.187  40.386   0.436
30231W        W 2557  26.517  15.547  14.775
30232W        W 2558  42.694  44.330   1.253
30233W        W 2559  24.795  22.317  14.352
30234W        W 2560  28.238  22.258  13.602
30235W        W 2561  12.284  14.518   0.969
30236W        W 2562  31.936  20.618   0.599
30237W        W 2563  35.255  40.546  14.023
30238W        W 2564  35.943   9.700   3.064
30239W        W 2565  31.872  34.376  12.814
30240W        W 2566  41.777   1.472   5.105
30241W        W 2567  44.968  26.913  12.439
30242W        W 2568  16.503   5.313  12.079
30243W        W 2569  14.053  44.060   0.779
30244W        W 2570  26.501  30.511  10.762
30245W        W 2571   6.815  20.723  12.484
30246W        W 2572  25.746  21.012   0.969
30247W        W 2573  31.544  37.011   4.684
30248W        W 2574  27.949   6.295   0.095
30249W        W 2575  23.511  12.476   4.471
30250W        W 2576  25.239  42.302   2.744
30251W        W 2577  24.299  18.301   1.871
30252W        W 2578  42.431  17.137  10.654
30253W        W 2579  29.683  39.805  13.911
30254W        W 2580  40.448  26.213   0.521
30255W        W 2581  29.491  19.559   0.877
30256W        W 2582   8.532  30.188   0.256
30257W        W 2583  28.284  29.048   0.595
30258W        W 2584  31.088  42.020   2.325
30259W        W 2585  10.312   5.234  11.471
30260W        W 2586  29.976  23.697   1.384
30261W        W 2587  34.140  24.181  12.222
30262W        W 2588  12.772  29.746   2.233
30263W        W 2589  35.760   4.178  12.534
30264W        W 2590   2.320  22.280  13.566
30265W        W 2591  12.967  10.588  11.658
30266W        W 2592  18.154  24.031   2.687
30267W        W 2593  20.491   2.649  12.863
30268W        W 2594  42.286   0.278   1.789
30269W        W 2595  32.341  11.308   4.064
30270W        W 2596  37.302  17.358   1.184
30271W        W 2597  14.341  18.758   1.397
30272W        W 2598  32.580   0.241  10.636
30273W        W 2599   6.220  39.537  12.837
30274W        W 2600  14.582  44.027  11.360
30275W        W 2601   5.449   8.280  12.635
30276W        W 2602  18.002  14.702   2.566
30277W        W 2603  21.793  22.944  10.986
30278W        W 2604   1.433  25.440  11.470
30279W        W 2605  33.425  17.259  12.458
30280W        W 2606   9.600   8.831  12.441
30281W        W 2607  28.953   8.860  14.433
30282W        W 2608  31.067   3.662  12.022
30283W        W 2609  30.079  16.512  10.701
30284W        W 2610  23.211  36.063  13.030
30285W        W 2611  43.645  40.216  10.042
30286W        W 2612  19.367  25.231  12.914
30287W        W 2613  15.844  11.207   0.816
30288W        W 2614  41.295   2.792   4.508
30289W        W 2615  29.973  36.087  11.742
30290W        W 2616  30.418  22.537   4.590
30291W        W 2617  29.668   5.988  14.530
30292W        W 2618  44.939   7.956   4.835
30293W        W 2619  12.183  20.831   2.865
30294W        W 2620  18.918   1.656  10.982
30295W        W 2621  24.550  29.029   4.063
30296W        W 2622   9.163  15.089  13.437
30297W        W 2623   5.868  18.589  13.125
30298W        W 2624  36.346   0.242   1.728
30299W        W 2625  20.295  17.500  11.112
30300W        W 2626  30.982  10.760  11.851
30301W        W 2627   7.481  21.968   4.208
30302W        W 2628  35.042  21.010   4.776
30303W        W 2629  41.602  15.818   3.576
30304W        W 2630  39.924  21.126   3.543
30305W        W 2631  14.125  18.867  13.778
30306W        W 2632  35.214  29.620  12.459
30307W        W 2633   0.630  35.750  11.193
30308W        W 2634  30.570  41.803  13.507
30309W        W 2635   8.150  35.371  10.737
30310W        W 2636   0.890  44.395   1.704
30311W        W 2637  32.906  31.081   1.423
30312W        W 2638  13.684  27.426   3.273
30313W        W 2639   7.457  24.203   3.555
30314W        W 2640  28.162  24.672   3.339
30315W        W 2641  39.609   8.953  14.845
30316W        W 2642  23.707   8.307  12.657
30317W        W 2643  27.864  39.502   0.940
30318W        W 2644  13.178  22.067  10.650
30319W        W 2645   6.920  10.661  10.670
30320W        W 2646  15.992  15.860  10.647
30321W        W 2647  39.737  42.069  11.155
30322W        W 2648  21.805   4.343  14.793
30323W        W 2649  11.308  44.037   3.652
30324W        W 2650  39.489  34.144   2.733
30325W        W 2651   2.942  30.619  11.787
30326W        W 2652  35.521  18.585  12.385
30327W        W 2653   8.228  35.427   3.272
30328W        W 2654  20.943  15.157  12.341
30329W        W 2655  31.496   4.434  11.410
30330W        W 2656  31.615  16.679   4.505
30331W        W 2657  35.745  10.832   0.765
30332W        W 2658   7.886  10.239  11.586
30333W        W 2659  12.270  16.850   1.216
30334W        W 2660  13.230   0.945   0.938
30335W        W 2661   6.188   3.988   3.575
30336W        W 2662  19.183  39.254   4.894
30337W        W 2663   2.964  32.419   1.183
30338W        W 2664  44.208   7.359  14.486
30339W        W 2665   2.268  40.516   2.325
30340W        W 2666   1.718  18.249   4.818
30341W        W 2667  29.098  19.171   4.479
30342W        W 2668   1.731  20.549  13.507
30343W        W 2669   2.654  43.996  13.044
30344W        W 2670  40.020  32.444  14.018
30345W        W 2671  25.100  41.253   2.905
30346W        W 2672  27.915  14.791   4.190
30347W        W 2673  23.005  13.345   4.237
30348W        W 2674  41.543  42.798   3.869
30349W        W 2675  21.632  32.108   1.527
30350W        W 2676  34.604   8.082  13.577
30351W        W 2677   3.738  24.146  11.138
30352W        W 2678  23.134   5.627   0.370
30353W        W 2679  25.033  21.323   3.208
30354W        W 2680  15.254  20.187   4.456
30355W        W 2681   2.786  12.538   5.590
30356W        W 2682  11.640  31.079   1.432
30357W        W 2683  12.564  37.788   1.151
30358W        W 2684   2.929  26.215  13.457
30359W        W 2685  13.068   6.617  11.612
30360W        W 2686  42.290  23.981   1.847
30361W        W 2687  23.783  39.908  12.565
30362W        W 2688  44.417  30.228  14.046
30363W        W 2689  34.476  38.266   4.091
30364W        W 2690  37.334  36.576   0.956
30365W        W 2691  16.681  41.351  12.587
30366W        W 2692  42.730  41.220  11.904
30367W        W 2693  15.030  33.469   2.154
30368W        W 2694  21.999  42.874   3.152
30369W        W 2695   8.523  23.928   4.969
30370W        W 2696   5.717  29.594  13.039
30371W        W 2697  22.046  10.691  13.088
30372W        W 2698   9.253  23.001  12.410
30373W        W 2699  24.184  13.687   2.610
30374W        W 2700  31.586  41.077   1.708
30375W        W 2701  10.899  26.538   1.555
30376W        W 2702  34.512  39.771   2.729
30377W        W 2703   9.279  23.268  11.977
30378W        W 2704  24.253  12.099  10.238
30379W        W 2705  31.468  24.574  12.216
30380W        W 2706  42.185  31.400   1.851
30381W        W 2707  12.314  29.284  11.695
30382W        W 2708  30.522  35.033  12.099
30383W        W 2709   3.226  40.972  14.440
30384W        W 2710   7.883  38.546   0.971
30385W        W 2711   2.317  13.047   1.875
30386W        W 2712  16.605  19.465   1.394
30387W        W 2713  14.112   7.212  13.583
30388W        W 2714  29.973  39.490  12.658
30389W        W 2715  18.826  10.576  11.470
30390W        W 2716   6.832   7.465  11.608
30391W        W 2717  16.035  17.092   3.216
30392W        W 2718   0.556  18.121  11.415
30393W        W 2719  32.642  31.609  13.016
30394W        W 2720  15.052  44.424  12.994
30395W        W 2721  27.377  39.511   1.090
30396W        W 2722   0.215  31.008   0.960
30397W        W 2723   7.619   6.097  10.911
30398W        W 2724  16.732   6.685   0.298
30399W        W 2725  13.220  35.565   4.909
30400W        W 2726  18.738  27.700   4.169
30401W        W 2727  16.210  23.044   2.632
30402W        W 2728  10.401   8.422   0.455
30403W        W 2729   5.646  40.068  14.520
30404W        W 2730  35.850   0.955  12.947
30405W        W 2731  25.692   8.178   4.153
30406W        W 2732  37.985  25.313  12.982
30407W        W 2733  44.890  30.585  12.096
30408W        W 2734   7.103   9.014  13.429
30409W        W 2735  16.653   6.859  13.234
30410W        W 2736  14.610  26.066  10.342
30411W        W 2737  23.185  29.888   0.869
30412W        W 2738  39.474  40.566  14.811
30413W        W 2739  11.178  42.509  11.572
30414W        W 2740  19.076   3.964  10.681
30415W        W 2741  41.507  24.602  10.712
30416W        W 2742  17.322  23.719  12.834
30417W        W 2743  44.340  15.050   1.434
30418W        W 2744  30.552  29.629   2.400
30419W        W 2745   1.925   7.101   3.519
30420W        W 2746   5.861  35.843   4.167
30421W        W 2747  22.076  19.445   4.394
30422W        W 2748  24.203  10.436   5.019
30423W        W 2749   3.241  35.657  11.108
30424W        W 2750   7.911   3.322  10.553
30425W        W 2751  32.383  25.600   1.240
30426W        W 2752  12.855  39.876   4.079
30427W        W 2753  41.776  36.349  14.672
30428W        W 2754   3.420   5.416  14.134
30429W        W 2755   6.255  32.344  13.035
30430W        W 2756  36.464   2.661   3.831
30431W        W 2757  39.574   3.674   1.011
30432W        W 2758   0.503  14.405   4.073
30433W        W 2759  44.484   6.355   1.313
30434W        W 2760  10.773  26.703  13.322
30435W        W 2761  23.392   1.673  13.939
30436W        W 2762  17.845  21.218   0.243
30437W        W 2763   1.234   3.181  10.206
30438W        W 2764   7.647  28.405  12.637
30439W        W 2765  11.635  35.568   4.983
30440W        W 2766  28.527   0.961   3.950
30441W        W 2767  29.501  30.168  11.536
30442W        W 2768  38.209  13.693  14.898
30443W        W 2769   4.952  21.115   3.213
30444W        W 2770  11.072  14.978   4.705
30445W        W 2771  21.651  32.527  11.703
30446W        W 2772  19.121  13.390  13.034
30447W        W 2773  16.251   8.351   1.816
30448W        W 2774  10.174  22.619  12.765
30449W        W 2775  11.387  26.062  10.185
30450W        W 2776  13.199   4.612  11.149
30451W        W 2777  12.743  20.935   1.401
30452W        W 2778  22.493  37.942  13.054
30453W        W 2779  28.083   0.494  14.818
30454W        W 2780  14.156  35.410   1.675
30455W        W 2781   6.716   6.695   2.699
30456W        W 2782  12.151  17.626  11.508
30457W        W 2783  43.295  30.537  12.974
30458W        W 2784  31.900  27.268   5.091
30459W        W 2785  32.565   7.286  10.673
30460W        W 2786  24.329  10.640  11.594
30461W        W 2787  10.894  20.649   4.569
30462W        W 2788  42.993   1.033   4.461
30463W        W 2789  38.800  11.303   1.898
30464W        W 2790  34.850  16.225   1.429
30465W        W 2791  20.467   7.951   1.913
30466W        W 2792   4.147  18.395  11.534
30467W        W 2793  12.340  11.247   1.236
30468W        W 2794  25.130  25.740  13.299
30469W        W 2795  12.556  28.361  14.678
30470W        W 2796  26.373   5.864   0.385
30471W        W 2797  27.610  35.357  13.295
30472W        W 2798  14.055  25.274   4.634
30473W        W 2799  41.305   3.847  11.777
30474W        W 2800   1.212   9.139   0.449
30475W        W 2801   9.330  43.667   0.236
30476W        W 2802  44.591   5.630   3.717
30477W        W 2803  10.408   9.261   2.254
30478W        W 2804  23.965  22.172  13.684
30479W        W 2805   4.278  10.588  10.409
30480W        W 2806  21.500  33.695   3.766
30481W        W 2807  25.148  35.517   1.968
30482W        W 2808  23.777  10.288  14.449
30483W        W 2809   3.015  31.913  14.867
30484W        W 2810   7.828  23.069  12.291
30485W        W 2811   5.808  43.953   1.347
30486W        W 2812  29.581  40.497  10.841
30487W        W 2813  21.054  42.823   3.488
30488W        W 2814  32.230  30.646   0.789
30489W        W 2815  38.427  30.499   0.770
30490W        W 2816  10.585  16.582  14.667
30491W        W 2817  10.468  37.193  12.031
30492W        W 2818   1.056  28.613   0.486
30493W        W 2819   1.876  38.419  10.708
30494W        W 2820  38.578  14.039  14.927
30495W        W 2821  18.655  44.322  13.376
30496W        W 2822  40.381  11.122  11.885
30497W        W 2823  16.210  20.567   2.087
30498W        W 2824  32.408  27.476  14.035
30499W        W 2825  15.153  38.868  14.289
30500W        W 2826  11.735  17.760   1.399
30501W        W 2827   3.415  34.130  13.947
30502W        W 2828  19.632  29.026  13.643
30503W        W 2829  30.586  30.530  10.633
30504W        W 2830   9.198  42.870  11.548
30505W        W 2831  18.799  17.585  12.204
30506W        W 2832   1.138  11.552   0.396
30507W        W 2833  14.870   8.472  12.018
30508W        W 2834  37.595  38.994  12.332
30509W        W 2835  18.773  14.184   1.480
30510W        W 2836  13.659  27.230   5.072
30511W        W 2837   3.194   2.564   3.803
30512W        W 2838  29.935   5.436   0.988
30513W        W 2839  36.411  22.620   2.126
30514W        W 2840  43.325   1.293   4.141
30515W        W 2841  23.539  18.570  14.406
30516W        W 2842   5.360  38.928  12.556
30517W        W 2843  11.041  26.706   5.511
30518W        W 2844  25.204  41.572   4.275
30519W        W 2845  14.962  14.539  14.345
30520W        W 2846  44.494  32.614   3.322
30521W        W 2847  28.442  34.352   3.668
30522W        W 2848  20.012  34.025   0.858
30523W        W 2849   5.907   0.361  13.017
30524W        W 2850  12.887  43.025   3.675
30525W        W 2851  32.548  19.250   2.694
30526W        W 2852  21.493   3.772   4.926
30527W        W 2853  12.921  30.539  13.134
30528W        W 2854  14.517  44.947   3.311
30529W        W 2855  24.722  39.911  12.580
30530W        W 2856  14.286  34.716  11.155
30531W        W 2857  17.776  40.172   3.723
30532W        W 2858   9.180  23.568  14.945
30533W        W 2859   7.697   2.735  12.235
30534W        W 2860   6.872   5.398  10.920
30535W        W 2861  21.187  35.505  11.534
30536W        W 2862  31.601   0.236   1.608
30537W        W 2863  33.455  37.868   0.503
30538W        W 2864  30.711  22.201  13.555
30539W        W 2865  16.096   6.783   2.675
30540W        W 2866   2.288   3.860   3.430
30541W        W 2867  29.476  40.459  13.224
30542W        W 2868  38.664  20.756   2.353
30543W        W 2869  27.832  17.655   3.594
30544W        W 2870  22.038  16.351   2.877
30545W        W 2871  43.767  22.084  13.798
30546W        W 2872  40.048  18.652  11.700
30547W        W 2873  29.962  26.689  11.984
30548W        W 2874   2.942   1.318   1.959
30549W        W 2875   3.748   2.553  12.056
30550W        W 2876  33.574  17.293   4.638
30551W        W 2877  27.410  39.815  12.926
30552W        W 2878  29.230  27.053  11.501
30553W        W 2879  10.393   5.645   0.303
30554W        W 2880  21.665   7.394  13.801
30555W        W 2881  12.345  22.096  11.903
30556W        W 2882   0.849  35.323  11.453
30557W        W 2883   0.809  34.912  12.499
30558W        W 2884  35.838  39.262  12.614
30559W        W 2885  25.487  19.511   4.695
30560W        W 2886  31.021  36.042  13.081
30561W        W 2887  33.625  11.512  12.586
30562W        W 2888  14.534  32.606  14.434
30563W        W 2889   1.191   7.288  14.361
30564W        W 2890  43.696  41.451   0.641
30565W        W 2891  17.300  44.052   0.961
30566W        W 2892  29.443  34.380   2.771
30567W        W 2893  13.668  37.824   0.251
30568W        W 2894  35.637  33.112  11.457
30569W        W 2895  37.960  31.401   3.760
30570W        W 2896  28.662   6.709   2.484
30571W        W 2897  12.382  34.561   2.637
30572W        W 2898  14.123   7.312  10.845
30573W        W 2899   2.283  24.895  14.723
30574W        W 2900  37.296  14.124   1.335
30575W        W 2901  12.285  33.439  14.351
30576W        W 2902  12.109  31.764  11.239
30577W        W 2903   8.360  38.457   2.985
30578W        W 2904  27.742  12.830   0.379
30579W        W 2905  21.082  34.938  12.751
30580W        W 2906  37.579   3.215   3.287
30581W        W 2907  16.590  17.328   1.858
30582W        W 2908   5.913   5.566  11.679
30583W        W 2909  23.444  11.309   0.933
30584W        W 2910  22.226  21.081   0.773
30585W        W 2911  34.311  26.611   3.170
30586W        W 2912  22.308  31.925  11.484
30587W        W 2913  42.828  43.269  13.599
30588W        W 2914  29.061  11.176  11.915
30589W        W 2915  43.245  11.563  10.322
30590W        W 2916  28.417  16.327  11.000
30591W        W 2917  15.114  14.716  10.867
30592W        W 2918   0.846  31.669   2.345
30593W        W 2919  26.804  11.412   1.627
30594W        W 2920   6.744  24.464  13.366
30595W        W 2921  10.872  13.651   1.550
30596W        W 2922  30.001  16.490  14.518
30597W        W 2923   0.363   0.658  11.519
30598W        W 2924  22.890  24.742  13.029
30599W        W 2925  13.826  27.250   2.339
30600W        W 2926  43.659  19.304  14.893
30601W        W 2927  28.175  11.646   1.811
30602W        W 2928   3.344  22.243  10.195
30603W        W 2929  32.357   3.684  11.148
30604W        W 2930  41.375  41.969   2.409
30605W        W 2931  24.540  18.622  13.162
30606W        W 2932  29.031   4.417   0.736
30607W        W 2933   4.705  18.503  12.055
30608W        W 2934  38.166  33.060  11.832
30609W        W 2935  21.174  26.749  12.157
30610W        W 2936   5.820  39.803  14.029
30611W        W 2937  44.834  25.578   1.776
30612W        W 2938   1.961  19.126  14.036
30613W        W 2939  23.582  32.413   1.860
30614W        W 2940  23.548  30.939   3.252
30615W        W 2941   9.106   6.253  11.207
30616W        W 2942  15.252  31.564  14.410
30617W        W 2943  39.542   5.744  14.292
30618W        W 2944   6.340   4.553  13.033
30619W        W 2945  20.068  44.839   0.267
30620W        W 2946  35.832  27.960   2.119
30621W        W 2947  36.890  25.482   1.267
30622W        W 2948  10.901  27.907  13.852
30623W        W 2949  12.856  24.577  14.305
30624W        W 2950  23.084  11.884  10.712
30625W        W 2951  22.805  24.101  12.016
30626W        W 2952  10.752  27.992   2.155
30627W        W 2953  22.657  29.038   3.796
30628W        W 2954  34.857  17.377  13.532
30629W        W 2955   0.801  39.154   5.129
30630W        W 2956  14.598  13.957  13.315
30631W        W 2957   0.787  13.062  11.971
30632W        W 2958  32.050  31.519   5.013
30633W        W 2959  28.105  33.185   1.735
30634W        W 2960  30.125  32.144  12.174
30635W        W 2961  22.909  42.899  10.786
30636W        W 2962  26.633  33.194  12.495
30637W        W 2963   8.350  24.973   3.421
30638W        W 2964  29.674   6.800   0.147
30639W        W 2965  14.891  32.949   3.979
30640W        W 2966  26.063  13.097  11.492
30641W        W 2967   3.310  25.291  13.357
30642W        W 2968  25.343  22.747   0.291
30643W        W 2969   1.219  21.582  10.724
30644W        W 2970  44.383  33.982  13.308
30645W        W 2971  39.502  38.440  10.995
30646W        W 2972  16.462   0.707  11.441
30647W        W 2973   0.275  22.917  13.812
30648W        W 2974  37.437  16.160   4.558
30649W        W 2975  14.147   7.247   1.878
30650W        W 2976   7.659  39.090  11.606
30651W        W 2977   3.277  35.404  13.254
30652W        W 2978  44.209  33.658   0.421
30653W        W 2979  31.142  30.593   2.358
30654W        W 2980   2.750  13.759   0.418
30655W        W 2981  41.325   8.275  13.216
30656W        W 2982  29.803  17.908   1.070
30657W        W 2983   3.956  11.877  10.720
30658W        W 2984   0.460  17.195   2.835
30659W        W 2985  42.756  28.231   2.368
30660W        W 2986  24.233  12.047  10.752
30661W        W 2987  29.017   3.571   0.540
30662W        W 2988  39.409   4.389   3.701
30663W        W 2989  43.796  27.352  14.977
30664W        W 2990  22.224  16.923   9.746
30665W        W 2991  40.996  32.718  13.802
30666W        W 2992  17.500   7.053   4.202
30667W        W 2993  27.914  33.571  12.649
30668W        W 2994  43.099  15.127   4.094
30669W        W 2995  26.697  36.930   2.777
30670W        W 2996   7.337  26.667   4.516
30671W        W 2997   6.250  36.745   2.427
30672W        W 2998  21.122   1.134   2.223
30673W        W 2999  41.765  37.333   1.703
30674W        W 3000   9.654  22.108  14.753
30675W        W 3001   0.838  14.368   3.614
30676W        W 3002  17.764  35.234   4.055
30677W        W 3003  43.624   2.063   4.629
30678W        W 3004  28.114  39.632   5.206
30679W        W 3005  22.981   3.400   1.361
30680W        W 3006  20.535  33.583  10.527
30681W        W 3007  23.338   4.411  10.691
30682W        W 3008  15.321   8.125   0.295
30683W        W 3009  21.275  44.990   5.262
30684W        W 3010  29.485  34.973  13.096
30685W        W 3011   9.814  23.581   3.396
30686W        W 3012  31.898   8.886   1.832
30687W        W 3013  18.608  12.646   2.218
30688W        W 3014  33.511   5.147   2.229
30689W        W 3015  32.701  40.946  14.843
30690W        W 3016  25.611  38.554   2.584
30691W        W 3017  36.091   8.920   3.637
30692W        W 3018  34.516  18.871  11.875
30693W        W 3019  15.573  12.331  13.843
30694W        W 3020   4.563   0.816   3.285
30695W        W 3021  37.844  40.819  11.020
30696W        W 3022  41.605  38.782   1.744
30697W        W 3023  34.326  34.433  11.008
30698W        W 3024   0.887  43.551   3.564
30699W        W 3025  16.871  35.461   2.780
30700W        W 3026  28.280  11.730   4.848
30701W        W 3027  17.345  28.106   2.401
30702W        W 3028   6.930  22.584   3.279
30703W        W 3029  29.974   4.859  10.694
30704W        W 3030  44.785  29.968   3.316
30705W        W 3031   0.137  34.307  11.055
30706W        W 3032  31.078  42.527  13.528
30707W        W 3033  42.073   3.465  14.766
30708W        W 3034  41.078  15.041  12.439
30709W        W 3035  36.331  21.694   1.378
30710W        W 3036  26.680  27.518   1.912
30711W        W 3037  24.145  38.574  14.336
30712W        W 3038  12.271  18.749  12.122
30713W        W 3039  11.341  19.742   3.160
30714W        W 3040  23.310  41.023   4.310
30715W        W 3041  13.326  44.099   1.760
30716W        W 3042  23.523  18.689   5.089
30717W        W 3043  30.437  40.901  14.905
30718W        W 3044  12.123  12.987  14.922
30719W        W 3045   3.814  34.327   4.078
30720W        W 3046   2.871   2.676  13.440
30721W        W 3047  43.413  36.207  13.412
30722W        W 3048  15.781  41.401  10.343
30723W        W 3049  33.951  29.690  12.887
30724W        W 3050  17.696  11.049   0.481
30725W        W 3051  40.632  37.919   3.996
30726W        W 3052   1.235  43.229   2.784
30727W        W 3053  20.546  17.213   4.234
30728W        W 3054  31.293  15.173  11.967
30729W        W 3055  22.632  18.287   3.556
30730W        W 3056  17.796  37.492   1.501
30731W        W 3057  39.391  30.102   4.649
30732W        W 3058   2.780   9.839   2.231
30733W        W 3059   6.695  25.212  11.531
30734W        W 3060  18.126  33.350   3.263
30735W        W 3061  25.904  17.748  10.720
30736W        W 3062  18.899  26.915  12.127
30737W        W 3063  38.056  13.637   2.386
30738W        W 3064  38.644  20.326  13.858
30739W        W 3065   4.835   0.683  11.422
30740W        W 3066   2.987   3.975   0.324
30741W        W 3067  13.410   1.419   0.856
30742W        W 3068  35.564  22.041   1.606
30743W        W 3069  27.714  16.846   4.762
30744W        W 3070  20.780  22.629   4.191
30745W        W 3071  13.645  12.669  13.908
30746W        W 3072  37.864  19.755   1.623
30747W        W 3073  36.931  21.140  11.570
30748W        W 3074  43.474  30.579   3.906
30749W        W 3075  19.994  32.157   3.207
30750W        W 3076   9.106  15.759  10.313
30751W        W 3077  26.237  26.678  14.367
30752W        W 3078   7.108  19.142  14.237
30753W        W 3079  24.249  25.140   3.181
30754W        W 3080  23.978  39.492   3.979
30755W        W 3081  10.401  28.183   3.517
30756W        W 3082   3.317  10.816   3.576
30757W        W 3083  43.148  10.419   2.411
30758W        W 3084  44.926  31.838  14.918
30759W        W 3085  18.041  28.707   3.847
30760W        W 3086  14.578  21.693   0.437
30761W        W 3087  13.260  25.739   0.823
30762W        W 3088  32.667  18.004   0.378
30763W        W 3089   2.248  27.908   3.172
30764W        W 3090  10.731  43.931   0.287
30765W        W 3091  31.715  40.956  14.751
30766W        W 3092  12.272  26.950   0.006
30767W        W 3093  37.113  28.346  11.466
30768W        W 3094  11.228  35.492  10.427
30769W        W 3095  33.533  18.684   4.854
30770W        W 3096   6.919  23.315   1.915
30771W        W 3097  43.756  35.511  10.704
30772W        W 3098  41.350  43.583  10.502
30773W        W 3099  38.973  34.036   2.756
30774W        W 3100  16.670   8.046  14.493
30775W        W 3101  12.611  35.843  10.305
30776W        W 3102  30.946  22.922  14.813
30777W        W 3103  25.681  39.096   9.993
30778W        W 3104  32.146  21.164  12.885
30779W        W 3105  13.785  13.753   4.565
30780W        W 3106   1.869   3.673  10.874
30781W        W 3107   1.788  32.068  13.425
30782W        W 3108  22.823  42.984  13.325
30783W        W 3109  42.975  38.033   0.288
30784W        W 3110  37.683  22.198  14.446
30785W        W 3111   6.243  35.797   3.072
30786W        W 3112  16.775  34.478  12.449
30787W        W 3113  26.421  36.592  10.636
30788W        W 3114   8.368  35.593   0.315
30789W        W 3115   3.982   8.248   0.728
30790W        W 3116  43.385   4.509   0.299
30791W        W 3117  27.948  29.017  10.238
30792W        W 3118  41.969  16.017   3.267
30793W        W 3119  16.229  13.211  14.427
30794W        W 3120   1.387   7.406  11.276
30795W        W 3121   3.751  26.894   0.847
30796W        W 3122  13.697  30.033   3.150
30797W        W 3123   6.344  34.534   2.906
30798W        W 3124  22.088   2.886  10.751
30799W        W 3125  35.382  39.394   1.430
30800W        W 3126  23.036  30.447  14.029
30801W        W 3127   6.314   4.765   1.211
30802W        W 3128  22.326   5.891   3.022
30803W        W 3129  44.883   2.054  12.438
30804W        W 3130  25.275  21.822  11.033
30805W        W 3131  34.324   6.855   0.705
30806W        W 3132   1.310  26.087   3.826
30807W        W 3133   9.932  32.564   2.878
30808W        W 3134  28.206  18.910  14.548
30809W        W 3135  10.473   0.598   1.703
30810W        W 3136  42.495   7.709   1.557
30811W        W 3137  41.989  30.473   4.010
30812W        W 3138  21.589  11.234   3.136
30813W        W 3139  18.283  31.424  11.171
30814W        W 3140  33.129  16.553   4.646
30815W        W 3141  21.670   2.692  11.637
30816W        W 3142   8.641  40.400   2.145
30817W        W 3143   7.113  24.746  12.366
30818W        W 3144  20.653   3.983   1.174
30819W        W 3145  30.538  40.364  10.424
30820W        W 3146  40.477  29.968  11.153
30821W        W 3147  31.782  15.649   1.204
30822W        W 3148  16.134  37.348  13.830
30823W        W 3149  26.161   3.231  12.950
30824W        W 3150  40.958  41.926   2.707
30825W        W 3151   0.293  22.007   3.206
30826W        W 3152  44.466  37.979   3.118
30827W        W 3153  24.059  41.035  10.679
30828W        W 3154   3.644  22.281  10.653
30829W        W 3155   0.348  30.968   2.844
30830W        W 3156  34.552  28.217  11.755
30831W        W 3157  34.846  27.464  13.436
30832W        W 3158   9.810  14.758   4.211
30833W        W 3159   1.892   9.306  13.344
30834W        W 3160   2.389  18.507  12.026
30835W        W 3161  11.884  11.068   4.213
30836W        W 3162  36.870   8.422   0.838
30837W        W 3163  14.816  44.794   1.974
30838W        W 3164   2.796   5.747  13.704
30839W        W 3165  16.945  22.822  14.855
30840W        W 3166  18.619  18.746  10.685
30841W        W 3167  28.704   5.457  10.527
30842W        W 3168  32.153  24.224   2.389
30843W        W 3169  14.656  31.952  11.878
30844W        W 3170  27.062  28.817   9.763
30845W        W 3171  11.638  13.511  13.473
30846W        W 3172  41.137  15.095  10.725
30847W        W 3173   4.632  17.349  11.499
30848W        W 3174  14.703  21.593  13.451
30849W        W 3175  30.241   3.912   0.758
30850W        W 3176  16.121   0.249   3.648
30851W        W 3177   0.571  17.633  11.612
30852W        W 3178  28.914  33.913  12.524
30853W        W 3179  20.528  42.273   0.312
30854W        W 3180  28.089  44.302   4.672
30855W        W 3181  19.745  18.931  11.145
30856W        W 3182  37.539  27.153  12.074
30857W        W 3183   5.698   0.501   1.713
30858W        W 3184  15.301  12.044   3.150
30859W        W 3185  23.537   2.225   0.305
30860W        W 3186   5.439   6.280  13.373
30861W        W 3187  28.169  29.011   1.460
30862W        W 3188   2.586   4.925   1.845
30863W        W 3189  18.634  34.061   1.472
30864W        W 3190   9.867  42.859   4.528
30865W        W 3191  43.249   3.121  13.966
30866W        W 3192   0.109   8.490  13.026
30867W        W 3193  44.047   8.698  13.764
30868W        W 3194  19.992  23.485  12.057
30869W        W 3195  41.953  28.253   0.755
30870W        W 3196   7.688   7.914  14.581
30871W        W 3197  32.170  43.081  14.333
30872W        W 3198  11.876  23.064   0.430
30873W        W 3199  33.153  36.956  10.708
30874W        W 3200  37.363  31.605   1.194
30875W        W 3201  14.792  16.668  11.167
30876W        W 3202   7.591  30.667   3.666
30877W        W 3203  44.298  31.600   4.494
30878W        W 3204  20.834  18.098   4.635
30879W        W 3205   7.733   5.530  14.976
30880W        W 3206  26.547  21.596   3.993
30881W        W 3207  17.690  15.352  12.876
30882W        W 3208   1.713   0.558  11.865
30883W        W 3209  38.376  41.621   1.657
30884W        W 3210  28.092  19.202   3.447
30885W        W 3211  41.742  27.668  12.860
30886W        W 3212  24.997  19.182  12.002
30887W        W 3213   7.670  18.501   2.125
30888W        W 3214  41.071   3.332   4.650
30889W        W 3215   9.199  31.098  14.408
30890W        W 3216  12.556  43.300  11.648
30891W        W 3217  30.681  44.956  13.916
30892W        W 3218  41.887   1.786  11.164
30893W        W 3219  44.506  43.904  14.902
30894W        W 3220  25.609   8.705  10.991
30895W        W 3221  24.152  20.470   3.338
30896W        W 3222   7.852  30.607  13.337
30897W        W 3223  28.073  20.823   0.239
30898W        W 3224  42.456  37.985   0.290
30899W        W 3225   7.372   9.347   4.441
30900W        W 3226  12.773   8.919  14.328
30901W        W 3227  42.018  18.727   1.726
30902W        W 3228  18.174   2.695   2.217
30903W        W 3229  42.465  16.921  11.607
30904W        W 3230  30.468  39.858  10.711
30905W        W 3231  22.673   1.896  14.250
30906W        W 3232   2.313  31.122  12.554
30907W        W 3233  36.057  27.918   4.710
30908W        W 3234   7.547  11.757   1.678
30909W        W 3235  38.583   4.904   4.853
30910W        W 3236  38.015  44.789  13.269
30911W        W 3237  31.182  12.078   0.311
30912W        W 3238  29.943  35.448  13.958
30913W        W 3239  43.109  15.577  11.095
30914W        W 3240  13.262  25.764  10.343
30915W        W 3241  21.510   4.357  10.367
30916W        W 3242   4.352   2.294  10.327
30917W        W 3243  43.899  18.341  13.857
30918W        W 3244  10.320   0.288  11.957
30919W        W 3245  42.580  26.626  10.906
30920W        W 3246   7.130  38.412   3.175
30921W        W 3247   5.783   9.910   3.241
30922W        W 3248  39.946  36.450  12.936
30923W        W 3249  44.307   6.875  14.311
30924W        W 3250  17.050  19.586   4.990
30925W        W 3251  13.935  40.452  13.482
30926W        W 3252  14.837  35.323   2.354
30927W        W 3253   7.817  20.841   0.519
30928W        W 3254  33.341  39.233  12.561
30929W        W 3255   8.353  41.856   0.973
30930W        W 3256   4.353  41.549  12.293
30931W        W 3257  39.914  18.728   0.036
30932W        W 3258  28.515  25.682  13.541
30933W        W 3259  34.490  13.584   1.575
30934W        W 3260   7.626  42.434  11.048
30935W        W 3261  38.081  15.749   1.075
30936W        W 3262  30.971  28.613  14.600
30937W        W 3263  15.894  17.131   4.602
30938W        W 3264   5.721  38.265  14.690
30939W        W 3265   3.577   2.301   0.811
30940W        W 3266  34.523  37.314  11.004
30941W        W 3267  35.171  21.032   0.372
30942W        W 3268  15.415  38.033  14.013
30943W        W 3269  31.696   2.630   2.795
30944W        W 3270  43.596  20.512   0.420
30945W        W 3271  18.722   1.279   1.517
30946W        W 3272  36.604  10.810  14.399
30947W        W 3273   5.823  27.073   1.748
30948W        W 3274  36.564  44.374   4.231
30949W        W 3275  23.997  40.566  10.381
30950W        W 3276  10.246  31.883   3.333
30951W        W 3277  38.759   4.448   1.687
30952W        W 3278  36.364  40.300   2.165
30953W        W 3279  36.823  28.408  13.068
30954W        W 3280  23.653  11.197   0.439
30955W        W 3281   4.886   2.765   0.436
30956W        W 3282  15.268  31.612   0.445
30957W        W 3283   8.202   7.381  13.396
30958W        W 3284  24.767   7.326   4.762
30959W        W 3285  16.251   2.808   0.886
30960W        W 3286  23.435  43.865  14.512
30961W        W 3287  20.591  44.305   3.666
30962W        W 3288  27.702  44.490   1.734
30963W        W 3289   0.522  12.585   0.909
30964W        W 3290  28.201  22.185  14.791
30965W        W 3291  16.060  21.638  12.735
30966W        W 3292  19.109  40.312  14.953
30967W        W 3293  11.236  11.797  12.935
30968W        W 3294   4.668  21.163  10.646
30969W        W 3295  15.536   1.728  14.573
30970W        W 3296  21.767  31.360  11.643
30971W        W 3297  12.572  13.583   1.531
30972W        W 3298  35.652   6.347   0.835
30973W        W 3299  26.035  23.408  14.829
30974W        W 3300  32.693  41.001  11.942
30975W        W 3301  33.922  35.806  13.848
30976W        W 3302  31.398  36.809   1.744
30977W        W 3303   8.633  17.033   4.133
30978W        W 3304  11.703  36.978   0.023
30979W        W 3305  18.607  43.607  10.665
30980W        W 3306  23.516  24.961  13.026
30981W        W 3307  18.061  12.897  14.783
30982W        W 3308  32.233  18.119   0.696
30983W        W 3309   1.031  24.567   2.687
30984W        W 3310  23.469  28.910   1.954
30985W        W 3311   8.962  11.275  12.961
30986W        W 3312  25.629  12.735  14.297
30987W        W 3313  17.560   2.971  10.885
30988W        W 3314  33.124  34.894   9.653
30989W        W 3315  22.651  25.707  11.632
30990W        W 3316  24.613  23.119  12.718
30991W        W 3317  34.779  11.322   0.531
30992W        W 3318  43.069  15.271  11.506
30993W        W 3319  16.755  16.888  13.301
30994W        W 3320  34.902  44.994  14.932
30995W        W 3321  35.179   1.741   4.524
30996W        W 3322  17.484  10.226  13.363
30997W        W 3323   4.152  22.962  10.293
30998W        W 3324  38.891  23.185   3.791
30999W        W 3325  27.067  42.433  11.120
31000W        W 3326   1.520  33.099   2.272
31001W        W 3327  22.847  34.532  11.489
31002W        W 3328  17.398  12.966   5.025
31003W        W 3329   9.823   8.323   2.198
31004W        W 3330  36.513  42.015  12.860
31005W        W 3331  18.969  29.693   2.264
31006W        W 3332  31.987  41.340   2.899
31007W        W 3333   6.743  13.851  12.012
31008W        W 3334  28.886  41.727   4.139
31009W        W 3335   2.015  26.033  11.412
31010W        W 3336  21.930  44.965  12.075
31011W        W 3337  43.228  19.183   0.232
31012W        W 3338  11.280  22.600  14.930
31013W        W 3339  35.467   8.814   1.504
31014W        W 3340  33.885  30.553  11.432
31015W        W 3341  14.383  19.303  11.904
31016W        W 3342  19.097  43.025  11.845
31017W        W 3343  22.042  10.853  14.028
31018W        W 3344  43.272  43.939   3.282
31019W        W 3345  10.634  29.372  13.057
31020W        W 3346   3.898  37.081  14.118
31021W        W 3347  44.088  28.667   1.848
31022W        W 3348   4.796  14.072  13.419
31023W        W 3349  35.562  30.608  13.038
31024W        W 3350  28.433   0.598   4.897
31025W        W 3351  27.982   4.504  13.427
31026W        W 3352  41.724  44.909   1.740
31027W        W 3353  44.865  20.565   0.853
31028W        W 3354   5.347   3.791  11.236
31029W        W 3355  16.212  25.089   2.629
31030W        W 3356  10.565  14.050  11.098
31031W        W 3357  31.858  26.692   2.227
31032W        W 3358   8.750  17.699  13.906
31033W        W 3359  11.624  39.422  12.934
31034W        W 3360  20.638  17.112  11.833
31035W        W 3361   5.672  26.717  14.101
31036W        W 3362   9.419  15.269  13.864
31037W        W 3363   8.445   9.569   2.242
31038W        W 3364  22.476   0.004   0.765
31039W        W 3365  30.156  11.647   1.881
31040W        W 3366  23.116  14.108   0.898
31041W        W 3367  19.480  23.003  12.413
31042W        W 3368  36.156  16.549  10.384
31043W        W 3369   7.422  22.102   1.209
31044W        W 3370  12.321  31.883   0.891
31045W        W 3371  10.098   5.440   2.310
31046W        W 3372   0.545  41.954   3.274
31047W        W 3373  23.612  16.986   1.487
31048W        W 3374  41.964   5.963   4.669
31049W        W 3375   9.889   0.186   0.327
31050W        W 3376  44.795  32.528   0.881
31051W        W 3377  36.298   9.873   1.949
31052W        W 3378  38.940  19.549   0.532
31053W        W 3379  11.935  15.958  10.196
31054W        W 3380  34.061  25.182  12.066
31055W        W 3381  39.583  36.919   0.890
31056W        W 3382  15.721   4.400  11.259
31057W        W 3383   2.197  26.922   1.666
31058W        W 3384  32.097  23.018   1.848
31059W        W 3385  24.624  20.552   3.133
31060W        W 3386  19.126   1.962   4.858
31061W        W 3387  16.203  20.202  14.019
31062W        W 3388   8.428  27.607   2.482
31063W        W 3389  34.911  23.633   3.969
31064W        W 3390   2.679  41.485   2.195
31065W        W 3391  15.705  22.174   1.216
31066W        W 3392   9.328  38.940  14.324
31067W        W 3393  32.978  26.117   2.442
31068W        W 3394  39.856  28.693   1.215
31069W        W 3395  10.746  32.376  11.542
31070W        W 3396  35.346  22.177   4.765
31071W        W 3397  43.885  42.401   3.429
31072W        W 3398   2.390  16.675  13.317
31073W        W 3399  16.032  31.644   1.267
31074W        W 3400  15.202   0.015   1.228
31075W        W 3401  20.162  10.388   2.732
31076W        W 3402   5.309  13.140   1.852
31077W        W 3403   7.439   6.482   0.584
31078W        W 3404  39.368  29.185   0.037
31079W        W 3405   9.535  36.432  14.116
31080W        W 3406  18.213   3.413   3.621
31081W        W 3407  14.807  28.993   0.233
31082W        W 3408  42.278   7.522  12.147
31083W        W 3409  34.366   2.396  10.781
31084W        W 3410   5.987   8.452  11.170
31085W        W 3411  33.674   0.684  14.992
31086W        W 3412   3.620   9.578  11.121
31087W        W 3413   8.328  16.886   0.520
31088W        W 3414   3.849  11.565   0.731
31089W        W 3415  11.639   3.141   0.867
31090W        W 3416  14.574  31.565   4.922
31091W        W 3417  26.595  14.644   4.681
31092W        W 3418  37.115   7.813  13.555
31093W        W 3419  21.400  34.985   3.719
31094W        W 3420  29.483   8.696   2.715
31095W        W 3421   7.928   6.329   1.651
31096W        W 3422  25.482  20.679  12.897
31097W        W 3423  24.813  15.176   4.647
31098W        W 3424  44.935  20.289  11.477
31099W        W 3425  35.379  42.080  13.774
31100W        W 3426  39.487  41.373  13.212
31101W        W 3427  33.081  39.995  14.382
31102W        W 3428   4.433  10.424   2.067
31103W        W 3429   9.576  11.280  14.977
31104W        W 3430   3.504   9.252   4.245
31105W        W 3431  21.707  32.471  10.680
31106W        W 3432   9.352  39.744  12.961
31107W        W 3433   8.188  20.744   1.771
31108W        W 3434  34.039   7.828   1.671
31109W        W 3435  11.366  42.605   0.261
31110W        W 3436  16.318  34.701  11.151
31111W        W 3437  22.092  20.125  14.190
31112W        W 3438  44.862  15.380   4.847
31113W        W 3439  38.465   5.074  11.009
31114W        W 3440   1.513   8.737  11.432
31115W        W 3441  10.189   8.843   0.075
31116W        W 3442  16.754   2.312  11.186
31117W        W 3443  24.445  13.811  13.356
31118W        W 3444   4.765  28.102   3.540
31119W        W 3445  25.179   3.257   4.205
31120W        W 3446  40.331  20.564  12.320
31121W        W 3447  31.710  17.157   4.732
31122W        W 3448  33.545   7.844  13.927
31123W        W 3449  11.205  22.112   2.164
31124W        W 3450  11.062   1.754  14.933
31125W        W 3451  33.668   7.258  14.486
31126W        W 3452  33.887  26.115  14.600
31127W        W 3453  24.446  40.992  13.312
31128W        W 3454   8.748  10.558   0.558
31129W        W 3455  31.668  28.555   4.851
31130W        W 3456  40.564  33.391  13.043
31131W        W 3457  14.245  31.935  11.194
31132W        W 3458   4.266  42.512   2.858
31133W        W 3459  16.279  36.068   0.217
31134W        W 3460  42.939  25.663  12.417
31135W        W 3461  26.854  36.601   5.042
31136W        W 3462  32.567  21.734   3.753
31137W        W 3463   1.566   8.696   1.372
31138W        W 3464   2.340  39.739  13.762
31139W        W 3465  26.917  22.317  12.915
31140W        W 3466   3.364   6.142   1.792
31141W        W 3467  42.451   7.026  12.100
31142W        W 3468   7.706  17.307   2.298
31143W        W 3469   8.417  41.043  13.804
31144W        W 3470  30.452  31.905  12.517
31145W        W 3471  26.245  28.465   1.814
31146W        W 3472  15.169  18.343   1.868
31147W        W 3473  24.179   9.996  12.398
31148W        W 3474  25.580   0.631   0.033
31149W        W 3475  39.180  35.563   1.833
31150W        W 3476  23.802  23.654   1.725
31151W        W 3477  35.321  20.490   2.827
31152W        W 3478  10.315  28.657   0.233
31153W        W 3479  22.624  37.113  12.493
31154W        W 3480   9.657  26.909  13.011
31155W        W 3481  32.686  27.189   3.189
31156W        W 3482  41.253  17.190  13.815
31157W        W 3483  26.116  25.835   1.766
31158W        W 3484   5.200  44.977   3.207
31159W        W 3485  19.131   9.746  12.395
31160W        W 3486  33.932  36.184   5.498
31161W        W 3487  15.624  15.062  13.447
31162W        W 3488  18.936  17.114   2.787
31163W        W 3489   7.695  41.436  13.750
31164W        W 3490  34.986   0.931  11.921
31165W        W 3491  32.108   5.909  10.692
31166W        W 3492   1.326  23.716   0.556
31167W        W 3493  32.466  33.907  13.491
31168W        W 3494  29.332  18.173  12.702
31169W        W 3495   3.743  16.128   0.733
31170W        W 3496   3.708  44.037  11.580
31171W        W 3497  38.004  16.435   0.433
31172W        W 3498  26.158  43.032  14.093
31173W        W 3499  19.100  41.074   2.177
31174W        W 3500  24.210  23.145   4.875
31175W        W 3501  43.831   1.269   2.099
31176W        W 3502  35.840  32.490  14.846
31177W        W 3503   3.737  16.077   2.579
31178W        W 3504  11.656  35.650  12.109
31179W        W 3505  35.142   3.330  14.469
31180W        W 3506  40.800  41.282   0.385
31181W        W 3507  34.405  31.859   3.260
31182W        W 3508  42.076  11.476   0.725
31183W        W 3509   5.420  19.139   2.833
31184W        W 3510  24.004   5.726   1.445
31185W        W 3511   8.774  32.025  12.012
31186W        W 3512  22.655  26.246  10.638
31187W        W 3513  33.994  21.735  10.413
31188W        W 3514  22.247  21.759   3.149
31189W        W 3515  42.744  15.772   1.971
31190W        W 3516  43.604  27.190   4.218
31191W        W 3517  41.454  11.836  13.018
31192W        W 3518  25.685   4.832  12.804
31193W        W 3519  25.170   4.346  13.929
31194W        W 3520  39.082  39.646  12.052
31195W        W 3521  27.127  34.964   1.878
31196W        W 3522  26.968  34.469   1.918
31197W        W 3523  10.646  12.840   2.662
31198W        W 3524  13.084   2.865  11.556
31199W        W 3525  42.352  37.414   2.865
31200W        W 3526  24.244  22.924   3.521
31201W        W 3527  12.583  11.198  12.660
31202W        W 3528  12.823  39.952  11.989
31203W        W 3529   8.423   4.299  13.399
31204W        W 3530  20.742  40.307   0.195
31205W        W 3531  10.842  20.966   3.304
31206W        W 3532  10.348  10.727   4.438
31207W        W 3533  22.218  29.646  12.325
31208W        W 3534  32.091  40.520   5.201
31209W        W 3535  16.074  42.762   4.109
31210W        W 3536  10.657  25.026   1.544
31211W        W 3537  27.360  38.902  14.268
31212W        W 3538  25.505  37.453  10.622
31213W        W 3539  20.232   2.054  12.918
31214W        W 3540   7.786  10.877   0.686
31215W        W 3541  35.825  18.305  12.676
31216W        W 3542  44.941  17.607   1.701
31217W        W 3543  41.038   3.082  11.375
31218W        W 3544   6.270  16.323   3.761
31219W        W 3545   1.875  22.142  11.345
31220W        W 3546  24.582  34.877   4.113
31221W        W 3547  24.102  36.699   2.175
31222W        W 3548  17.635  30.676  13.061
31223W        W 3549   7.714  17.937  10.016
31224W        W 3550  14.631  19.799  12.410
31225W        W 3551   4.194  14.296   1.902
31226W        W 3552   7.881  33.587   0.867
31227W        W 3553  23.172  22.951   2.257
31228W        W 3554  13.600  31.410  11.126
31229W        W 3555  28.036   7.476  12.078
31230W        W 3556  32.908  20.762   2.821
31231W        W 3557  43.802  35.776  13.035
31232W        W 3558   3.755   7.209   0.866
31233W        W 3559  26.153  39.960  10.620
31234W        W 3560   7.681  44.189  12.884
31235W        W 3561  30.884  19.213   1.941
31236W        W 3562  19.163  28.858  13.453
31237W        W 3563  33.647  16.962   2.711
31238W        W 3564  15.719  42.300   4.624
31239W        W 3565  11.302  39.708  14.914
31240W        W 3566  37.808  31.607  12.345
31241W        W 3567  19.223  42.458  14.893
31242W        W 3568  44.029   4.198  11.111
31243W        W 3569   7.079  32.585  10.621
31244W        W 3570  43.451  38.343  11.081
31245W        W 3571  31.717  28.229  14.222
31246W        W 3572   3.456  13.156  12.049
31247W        W 3573   9.381  15.179  10.545
31248W        W 3574  31.420  29.412   0.400
31249W        W 3575  16.642  14.790  12.880
31250W        W 3576   7.294  15.173   0.872
31251W        W 3577   4.740  25.262  10.406
31252W        W 3578   2.733  14.124   0.821
31253W        W 3579  12.835  13.141   4.319
31254W        W 3580  19.995  40.906   3.759
31255W        W 3581  13.699  37.118  13.351
31256W        W 3582  14.087  21.206  10.591
31257W        W 3583   9.120  11.320   0.230
31258W        W 3584   0.687  13.618   4.089
31259W        W 3585   3.368   9.092  11.170
31260W        W 3586  20.498  15.316   1.525
31261W        W 3587  23.982  36.113  13.964
31262W        W 3588  37.033  40.457   1.431
31263W        W 3589  20.422  11.258   3.853
31264W        W 3590  37.897  35.949   3.639
31265W        W 3591  19.561  15.019   4.531
31266W        W 3592   4.244  11.741  14.275
31267W        W 3593  32.432  36.130   2.415
31268W        W 3594  13.041  14.520  13.454
31269W        W 3595  32.657   3.663  13.764
31270W        W 3596   1.756  42.535   3.334
31271W        W 3597  29.033  28.415   2.333
31272W        W 3598  37.111  37.909  11.762
31273W        W 3599  24.324  16.450  10.210
31274W        W 3600  37.871  28.617   4.629
31275W        W 3601  24.131  36.253   2.454
31276W        W 3602   7.906  16.141  12.005
31277W        W 3603  17.107   4.346  14.759
31278W        W 3604  34.646   2.041   0.293
31279W        W 3605  23.520  24.790  14.455
31280W        W 3606  14.273  17.228  11.042
31281W        W 3607   4.490  38.450   4.443
31282W        W 3608   8.946  13.329  10.639
31283W        W 3609  29.570   4.517   3.710
31284W        W 3610  19.738  30.047   3.084
31285W        W 3611   4.071  40.255  13.103
31286W        W 3612   8.697  30.995  11.377
31287W        W 3613  24.659   5.185  12.336
31288W        W 3614  30.391  33.557  12.916
31289W        W 3615  18.682  21.543   3.360
31290W        W 3616  15.730  35.225   2.263
31291W        W 3617   1.319  10.622  14.448
31292W        W 3618  33.117   1.691  12.567
31293W        W 3619  35.867  16.768  13.584
31294W        W 3620   8.194  29.655   4.264
31295W        W 3621  40.074  36.575   0.816
31296W        W 3622  13.827  25.757   1.658
31297W        W 3623  24.811  26.612   3.371
31298W        W 3624  18.126  33.488  10.922
31299W        W 3625  11.196   8.793   1.389
31300W        W 3626  42.835  18.763   0.471
31301W        W 3627   9.285  36.264   1.228
31302W        W 3628  18.159  25.200  10.746
31303W        W 3629   7.524  13.682  10.706
31304W        W 3630  22.119   7.734  14.973
31305W        W 3631   8.760  15.128   1.920
31306W        W 3632  33.425  33.847   1.367
31307W        W 3633  31.169  12.302   4.432
31308W        W 3634  41.011  27.595  10.985
31309W        W 3635  34.042  14.276   4.388
31310W        W 3636  33.707  31.633   0.520
31311W        W 3637   3.383  19.492   4.222
31312W        W 3638  12.132  43.447  10.651
31313W        W 3639  11.274  35.870   4.754
31314W        W 3640  41.916  25.531   4.770
31315W        W 3641   8.687  10.189  13.346
31316W        W 3642   9.583  22.542   2.343
31317W        W 3643  12.730  22.391   0.759
31318W        W 3644   2.971  33.893  14.907
31319W        W 3645  39.534  21.066  11.682
31320W        W 3646  22.220  12.182   4.419
31321W        W 3647  19.510  39.350   2.457
31322W        W 3648   6.665   0.378  11.483
31323W        W 3649  20.932   0.596  10.697
31324W        W 3650  36.021   0.814  14.990
31325W        W 3651  31.458  15.779  11.256
31326W        W 3652  40.295  29.513  11.555
31327W        W 3653  12.816  43.783   0.505
31328W        W 3654  19.131   1.722   1.206
31329W        W 3655  10.761  20.274  12.453
31330W        W 3656  18.851  44.548   0.786
31331W        W 3657  27.544  38.580   0.974
31332W        W 3658  43.716  22.126   4.087
31333W        W 3659  17.280  39.043   3.173
31334W        W 3660   9.648  29.399   2.341
31335W        W 3661  27.432  35.402   0.272
31336W        W 3662  14.690  40.542  13.820
31337W        W 3663  23.549  18.057  14.339
31338W        W 3664  14.678  23.651  14.695
31339W        W 3665   1.495  21.108  12.086
31340W        W 3666  13.772   2.860   3.343
31341W        W 3667   7.703  27.127   0.808
31342W        W 3668  38.542  12.284   4.927
31343W        W 3669  13.579  40.954  12.367
31344W        W 3670  23.293  42.750  12.447
31345W        W 3671  43.803  15.606  13.308
31346W        W 3672   8.821  27.903  10.131
31347W        W 3673  11.370  16.279  12.365
31348W        W 3674  22.461  14.621  13.126
31349W        W 3675  15.655  38.294  13.306
31350W        W 3676  13.249  25.474   0.400
31351W        W 3677  35.309  33.123   4.687
31352W        W 3678  22.782  35.244  10.307
31353W        W 3679   2.519  42.800  13.312
31354W        W 3680  42.294   1.920  14.777
31355W        W 3681  21.139  32.638  14.444
31356W        W 3682   8.302  30.591   2.706
31357W        W 3683   8.863  22.541   3.649
31358W        W 3684  37.630  21.862  11.606
31359W        W 3685  20.703  23.565  14.954
31360W        W 3686  27.123   3.450  13.589
31361W        W 3687  17.543  15.218  14.966
31362W        W 3688  23.527  36.340  14.006
31363W        W 3689  38.904  23.466  12.852
31364W        W 3690  14.042  24.282  11.018
31365W        W 3691  36.089  24.458   4.113
31366W        W 3692   8.623  43.516  11.930
31367W        W 3693  10.711  21.645   2.237
31368W        W 3694  24.192   4.148   0.228
31369W        W 3695  39.820  29.543  13.094
31370W        W 3696   5.451  42.475  14.521
31371W        W 3697   0.503  35.863   4.631
31372W        W 3698  14.537  41.756  14.316
31373W        W 3699  26.541  14.833   1.300
31374W        W 3700  19.664  30.857   3.275
31375W        W 3701  18.126  18.544  10.653
31376W        W 3702  21.812   6.254  12.003
31377W        W 3703  19.058  20.716  13.196
31378W        W 3704   3.227  16.171   2.693
31379W        W 3705  17.693  20.127  13.817
31380W        W 3706  29.249   8.952   5.023
31381W        W 3707  14.155  22.199  13.892
31382W        W 3708  11.237  31.397  10.862
31383W        W 3709  20.981  30.694  10.690
31384W        W 3710  23.193  15.247   3.360
31385W        W 3711  35.643  40.137   1.892
31386W        W 3712  23.981  14.256   1.951
31387W        W 3713  33.552  14.031   4.382
31388W        W 3714   5.328  24.714   1.451
31389W        W 3715   8.355  22.206  12.556
31390W        W 3716  31.326  42.310   0.850
31391W        W 3717  38.880  19.526  10.734
31392W        W 3718  14.160  12.656   1.050
31393W        W 3719  28.448  18.731   4.672
31394W        W 3720  19.761   0.712   2.256
31395W        W 3721  40.069  15.388  11.089
31396W        W 3722  14.672  41.862   1.383
31397W        W 3723  20.940  43.916   1.523
31398W        W 3724   9.376  38.386  11.609
31399W        W 3725  26.226   1.737   1.261
31400W        W 3726  28.698   2.624   3.176
31401W        W 3727  42.768   5.222   2.697
31402W        W 3728  15.331  14.914   4.115
31403W        W 3729  14.448  12.187  11.713
31404W        W 3730  17.021  23.515  14.013
31405W        W 3731  32.889  35.623   0.753
31406W        W 3732  26.712  33.036  13.426
31407W        W 3733  12.068  38.963   2.925
31408W        W 3734  18.308  24.444   5.069
31409W        W 3735   2.843  30.444  11.309
31410W        W 3736  11.127  23.215   2.883
31411W        W 3737   2.900  30.922   0.960
31412W        W 3738  13.418  30.713  12.427
31413W        W 3739  30.933  14.007   1.919
31414W        W 3740   3.171  21.518  10.664
31415W        W 3741  11.764  13.906   4.133
31416W        W 3742  32.957  37.575  11.434
31417W        W 3743  36.714  32.882   3.334
31418W        W 3744  43.560  38.568   2.955
31419W        W 3745   0.977  24.249  10.981
31420W        W 3746  39.940   2.482   4.113
31421W        W 3747   8.609   9.921  14.894
31422W        W 3748  25.208  40.142  12.585
31423W        W 3749  28.610  30.884   0.753
31424W        W 3750   2.670   9.785  12.444
31425W        W 3751  43.530  10.759  14.862
31426W        W 3752  43.035  26.712  10.661
31427W        W 3753  11.895  43.434  13.809
31428W        W 3754  35.976   6.861  11.640
31429W        W 3755  15.043  37.202   1.850
31430W        W 3756  12.114  37.929  14.407
31431W        W 3757  31.630  33.772   4.992
31432W        W 3758   4.974  11.168   1.702
31433W        W 3759  42.515  39.993   1.534
31434W        W 3760  15.276  37.621   0.954
31435W        W 3761  25.231  23.774   4.057
31436W        W 3762   0.162  28.872  11.085
31437W        W 3763   1.234  44.251  13.037
31438W        W 3764  26.885  10.258  11.739
31439W        W 3765  17.504  34.622   3.035
31440W        W 3766  44.331  17.135  11.477
31441W        W 3767   2.379  39.610  11.952
31442W        W 3768  22.965  14.235  10.234
31443W        W 3769  34.166   9.170   1.974
31444W        W 3770   5.752  32.885   0.727
31445W        W 3771  17.812  42.361   2.628
31446W        W 3772  39.455  44.153  11.644
31447W        W 3773   1.143  18.385   0.377
31448W        W 3774  43.873  24.639  13.493
31449W        W 3775  37.102  36.517  14.253
31450W        W 3776  39.798  19.845  10.684
31451W        W 3777  10.356   6.218   1.741
31452W        W 3778  15.349  22.234  10.536
31453W        W 3779  41.384  20.971  10.757
31454W        W 3780  38.979   3.653   1.684
31455W        W 3781  28.938  37.738   2.260
31456W        W 3782  19.840  37.387   3.277
31457W        W 3783  31.165  38.438  10.596
31458W        W 3784  25.766  40.486  14.352
31459W        W 3785  27.068   6.678  11.419
31460W        W 3786  38.982  17.884   3.871
31461W        W 3787  10.577   0.744  11.974
31462W        W 3788  44.730  36.043   3.668
31463W        W 3789  21.719  13.850  10.943
31464W        W 3790  20.090  38.587   0.482
31465W        W 3791   5.686  25.243   3.201
31466W        W 3792  19.730  39.586  13.673
31467W        W 3793  27.269  30.384  13.775
31468W        W 3794   4.610  38.233  11.895
31469W        W 3795   4.450  18.765   1.034
31470W        W 3796  40.878  29.734   3.229
31471W        W 3797  40.754  31.012  13.928
31472W        W 3798  31.182  24.511   1.755
31473W        W 3799  44.451  41.358   1.935
31474W        W 3800  44.476  41.951   4.124
31475W        W 3801  33.234   2.338   4.261
31476W        W 3802  17.143  28.050  14.888
31477W        W 3803  41.383  18.686   1.374
31478W        W 3804  23.944   9.952   2.971
31479W        W 3805  24.329  22.440   3.370
31480W        W 3806  22.666  18.798  13.847
31481W        W 3807  23.984   3.232   1.222
31482W        W 3808  40.466   9.146   2.301
31483W        W 3809  26.617  41.693  11.552
31484W        W 3810  22.220  14.940   1.722
31485W        W 3811  37.396  14.856   3.870
31486W        W 3812  26.573  44.204   3.596
31487W        W 3813  33.180  29.994   0.890
31488W        W 3814   1.758  21.265   1.715
31489W        W 3815  16.120  33.142  12.614
31490W        W 3816  44.726  40.414  12.975
31491W        W 3817  21.286   5.414  12.185
31492W        W 3818  36.966  43.945   0.435
31493W        W 3819   5.997  36.420  14.306
31494W        W 3820  25.176  30.404   4.272
31495W        W 3821  39.264  43.671  11.537
31496W        W 3822  31.403  26.742  11.038
31497W        W 3823   8.689  10.753   3.334
31498W        W 3824  42.461  18.968   3.155
31499W        W 3825  24.263  11.190  14.253
31500W        W 3826  28.370  18.507  11.478
31501W        W 3827  23.938  35.936  12.398
31502W        W 3828  10.221   8.795  12.874
31503W        W 3829  27.307   0.858   0.636
31504W        W 3830  14.776  18.170  14.105
31505W        W 3831  42.472  15.257   4.933
31506W        W 3832  13.795   8.624  11.568
31507W        W 3833  30.048  15.134   1.749
31508W        W 3834  32.781  26.703  11.476
31509W        W 3835  11.776   6.220  11.937
31510W        W 3836  30.575   3.059   0.720
31511W        W 3837  27.519  12.778  13.149
31512W        W 3838  43.246  41.012   1.680
31513W        W 3839   9.072  34.938   4.855
31514W        W 3840  39.174  38.909   3.832
31515W        W 3841  26.945  25.741   4.303
31516W        W 3842  24.959  20.716   4.821
31517W        W 3843  17.274  28.631   1.232
31518W        W 3844  25.003   8.464  12.924
31519W        W 3845  10.573  30.036  14.822
31520W        W 3846  18.738  17.814   3.812
31521W        W 3847  12.832  39.061  11.570
31522W        W 3848  12.657  38.833  14.361
31523W        W 3849  28.689   0.954  14.323
31524W        W 3850  22.126  23.041  10.623
31525W        W 3851  36.384  37.856   2.417
31526W        W 3852  19.381   5.748  12.109
31527W        W 3853  10.910  32.494  12.478
31528W        W 3854  21.429   4.941  12.028
31529W        W 3855  26.441  33.604   4.181
31530W        W 3856  40.181  31.670  12.840
31531W        W 3857   8.427   2.201  14.346
31532W        W 3858  35.943  10.110  12.538
31533W        W 3859   9.792  41.813  12.341
31534W        W 3860  42.794   4.838  10.676
31535W        W 3861  40.098  29.148  12.886
31536W        W 3862  11.414  42.280  14.845
31537W        W 3863  18.867  23.661  10.350
31538W        W 3864  41.525   2.438  11.035
31539W        W 3865  40.337  15.669   1.341
31540W        W 3866  15.853  25.128   0.453
31541W        W 3867  44.493   6.661   4.470
31542W        W 3868  20.249   9.052   3.283
31543W        W 3869  12.213   8.476   3.783
31544W        W 3870  23.793  33.439   0.977
31545W        W 3871  43.462  34.121  13.392
31546W        W 3872   3.345  26.263   1.604
31547W        W 3873  12.178  35.154  11.065
31548W        W 3874  35.895  35.158   4.683
31549W        W 3875   0.401  29.356  14.118
31550W        W 3876  13.409  26.507  12.335
31551W        W 3877  10.245   1.542   4.478
31552W        W 3878  29.447  22.012  10.894
31553W        W 3879  23.906   4.370  11.897
31554W        W 3880  16.135  13.232   4.429
31555W        W 3881   1.920  37.431   2.727
31556W        W 3882  44.406  19.992   4.545
31557W        W 3883   9.216  39.112  11.983
31558W        W 3884  12.304  19.925   4.170
31559W        W 3885  32.458  12.647  12.921
31560W        W 3886   4.764  21.765  13.983
31561W        W 3887  40.898   7.543  12.451
31562W        W 3888  42.813  31.051  11.211
31563W        W 3889  22.613  14.252   2.302
31564W        W 3890  15.741  42.761  10.726
31565W        W 3891   3.363  30.747   0.823
31566W        W 3892  41.419  44.757   2.150
31567W        W 3893   6.737  15.644  12.408
31568W        W 3894  39.591   9.248   0.433
31569W        W 3895   8.461  40.918   1.275
31570W        W 3896  41.367   9.507   0.554
31571W        W 3897  42.244  27.366  11.457
31572W        W 3898   6.300  21.046   4.268
31573W        W 3899  37.312  15.359   3.674
31574W        W 3900  14.111  35.193  10.998
31575W        W 3901   5.522  26.397  14.480
31576W        W 3902  37.437  30.868   0.721
31577W        W 3903  11.625  31.205   3.008
31578W        W 3904  12.086  35.606  12.453
31579W        W 3905  29.205  12.746   3.807
31580W        W 3906  38.334  14.066  12.119
31581W        W 3907  34.082  30.991   0.802
31582W        W 3908  20.747   0.866  13.575
31583W        W 3909  18.149   9.031  11.943
31584W        W 3910  21.167  43.795   3.679
31585W        W 3911  23.156  12.836   2.882
31586W        W 3912  14.288  13.283   3.715
31587W        W 3913  40.787  17.918  11.436
31588W        W 3914  11.819  23.957  12.417
31589W        W 3915  11.145  16.494  11.928
31590W        W 3916  19.221  10.143   0.952
31591W        W 3917  34.413  15.570   0.044
31592W        W 3918  15.670  12.891  12.068
31593W        W 3919  40.776   9.881  11.475
31594W        W 3920  33.522   6.447  13.828
31595W        W 3921   1.754  13.181   0.980
31596W        W 3922  26.779   0.845  14.349
31597W        W 3923  21.278   5.387   2.274
31598W        W 3924  24.760  15.755   3.052
31599W        W 3925  31.382  33.864  14.760
31600W        W 3926  38.541  20.659  14.237
31601W        W 3927   3.858   1.499   1.906
31602W        W 3928  11.424   4.454  13.488
31603W        W 3929   8.611  18.144  13.611
31604W        W 3930   1.232   3.608   3.249
31605W        W 3931  20.587  40.329  11.471
31606W        W 3932   4.631  16.165  12.163
31607W        W 3933  15.062  11.733   1.525
31608W        W 3934  36.884   2.476   4.055
31609W        W 3935  16.685  20.959  14.012
31610W        W 3936  35.200  41.084  10.672
31611W        W 3937  12.380  11.743  14.325
31612W        W 3938  33.162  38.844   3.325
31613W        W 3939   7.678  24.875   4.352
31614W        W 3940  15.612  32.672   4.568
31615W        W 3941  34.614   3.296   3.836
31616W        W 3942   5.579  31.862   0.736
31617W        W 3943   6.770  25.869   4.681
31618W        W 3944  31.188   2.206  11.031
31619W        W 3945  41.387  31.577   3.146
31620W        W 3946  28.624  26.584  12.093
31621W        W 3947   1.851  18.671   3.609
31622W        W 3948   4.001   4.016  11.604
31623W        W 3949   4.509   4.431  10.354
31624W        W 3950  25.049  24.451   0.831
31625W        W 3951   9.857  21.964   1.993
31626W        W 3952   3.043   5.498  10.607
31627W        W 3953  22.628  20.711   3.926
31628W        W 3954  26.646  18.166  13.118
31629W        W 3955   2.785  29.875   2.132
31630W        W 3956  32.622  19.753  11.594
31631W        W 3957   6.946  15.217   2.692
31632W        W 3958  41.911   6.865   0.880
31633W        W 3959  33.827  29.007   2.976
31634W        W 3960  30.680  27.450  13.957
31635W        W 3961  44.821   6.398   3.363
31636W        W 3962  41.274   3.419  12.117
31637W        W 3963  22.254  13.775  11.015
31638W        W 3964  29.361  26.261  14.082
31639W        W 3965  23.295   1.375   1.688
31640W        W 3966  44.457  29.436  11.903
31641W        W 3967  19.538  29.529   0.738
31642W        W 3968   3.557  30.293   4.626
31643W        W 3969  15.794   7.530   2.306
31644W        W 3970  42.929  11.432   3.316
31645W        W 3971  10.849  22.320  13.942
31646W        W 3972   6.448  42.767   3.227
31647W        W 3973  21.590   7.742  11.549
31648W        W 3974  41.386  41.404   4.625
31649W        W 3975  30.149   5.158   2.356
31650W        W 3976   9.421  23.932   1.372
31651W        W 3977  40.369  41.228  11.618
31652W        W 3978   3.383  17.039  10.499
31653W        W 3979   2.489  42.791  11.454
31654W        W 3980   2.775  30.578   2.370
31655W        W 3981  18.262   1.914   2.785
31656W        W 3982  32.446  38.420  12.102
31657W        W 3983  23.797  37.516   0.135
31658W        W 3984  24.897  43.379  14.878
31659W        W 3985  28.079   8.246   3.916
31660W        W 3986  21.006  12.884  12.783
31661W        W 3987  23.250   5.107   0.383
31662W        W 3988  17.035  19.781   0.169
31663W        W 3989  11.688  38.459   1.318
31664W        W 3990   7.382  40.897   4.544
31665W        W 3991   3.246  40.902   4.485
31666W        W 3992  24.265  15.265  14.393
31667W        W 3993   6.922   8.562  13.325
31668W        W 3994   4.296  36.679  12.982
31669W        W 3995  24.090  26.059   3.599
31670W        W 3996  13.575  17.822   1.940
31671W        W 3997  35.005  22.785  14.102
31672W        W 3998  10.298  26.275   5.000
31673W        W 3999  23.722  24.321  12.272
31674W        W 4000   0.215  21.867  11.534
31675W        W 4001  20.822   0.801   4.645
31676W        W 4002  34.543  23.352   1.374
31677W        W 4003   0.698  41.420  12.848
31678W        W 4004  11.188  18.394  11.143
31679W        W 4005  14.144  34.048  13.305
31680W        W 4006   3.839   6.430   0.207
31681W        W 4007  26.148  27.069  12.369
31682W        W 4008  41.072   7.437   0.981
31683W        W 4009  18.647  24.430   1.710
31684W        W 4010  25.118   2.217  11.655
31685W        W 4011  20.139  44.721  12.585
31686W        W 4012  38.819  12.262   0.718
31687W        W 4013   0.928  38.556  12.016
31688W        W 4014  29.200  15.587  11.201
31689W        W 4015  30.511  11.102   3.539
31690W        W 4016  13.296   7.894  12.379
31691W        W 4017  17.354   4.503   2.245
31692W        W 4018  23.551  14.230  12.957
31693W        W 4019  31.307  21.586  11.933
31694W        W 4020   6.370  17.125  12.073
31695W        W 4021  40.334   8.465   4.673
31696W        W 4022  11.870  43.326   3.717
31697W        W 4023   4.260  37.442  11.656
31698W        W 4024   9.712  29.016   1.016
31699W        W 4025   6.185  27.102   3.699
31700W        W 4026  22.106  27.965  10.439
31701W        W 4027  32.324  15.388  12.058
31702W        W 4028   9.913   3.383   3.665
31703W        W 4029  10.800  35.147  14.284
31704W        W 4030  21.136  37.395  13.007
31705W        W 4031  11.364   8.872   2.803
31706W        W 4032  37.450  19.056   0.657
31707W        W 4033  38.559  32.512   2.233
31708W        W 4034  39.881  27.696   3.661
31709W        W 4035  36.267  18.735  14.837
31710W        W 4036  13.299   3.790  11.790
31711W        W 4037  33.205  16.392   0.214
31712W        W 4038  18.216  28.700   4.727
31713W        W 4039  42.915  37.288   4.065
31714W        W 4040  40.643  35.896   3.473
31715W        W 4041   0.271  30.840  11.876
31716W        W 4042  36.064  16.205   3.282
31717W        W 4043  30.547  10.636   3.249
31718W        W 4044   7.694  27.153   3.665
31719W        W 4045   4.362  11.082  10.588
31720W        W 4046   5.325  19.807   0.373
31721W        W 4047  25.421  26.180  12.564
31722W        W 4048  16.662  23.424  10.878
31723W        W 4049  24.220  33.074   1.793
31724W        W 4050  43.754  28.699   3.279
31725W        W 4051  35.814  30.455   1.297
31726W        W 4052  20.125  24.214   4.382
31727W        W 4053   8.654   1.771   0.174
31728W        W 4054   7.459  29.412  14.270
31729W        W 4055  17.307  38.628   2.881
31730W        W 4056  41.227  19.155  12.463
31731W        W 4057  14.062  13.571   0.896
31732W        W 4058  30.059  32.558   0.440
31733W        W 4059   5.757  28.082  11.663
31734W        W 4060  16.274  17.548  12.986
31735W        W 4061  44.772  22.690  10.694
31736W        W 4062  33.436   0.463   0.737
31737W        W 4063   3.126  38.521   0.717
31738W        W 4064   5.780  27.243   4.031
31739W        W 4065  37.478  30.067  12.552
31740W        W 4066  22.473   5.686  13.370
31741W        W 4067  43.248  13.628   1.529
31742W        W 4068  16.722  10.554  13.028
31743W        W 4069   4.391  28.936   1.792
31744W        W 4070  23.976   1.406  12.484
31745W        W 4071  12.187  32.641  13.833
31746W        W 4072  42.611  17.563   1.966
31747W        W 4073  38.952  14.879   2.684
31748W        W 4074  36.549   9.336   1.662
31749W        W 4075  16.072  38.840  12.843
31750W        W 4076  17.310  42.520  12.975
31751W        W 4077   9.399  23.048  10.636
31752W        W 4078  30.892  22.076   4.262
31753W        W 4079  29.421  37.535   2.208
31754W        W 4080  36.495  23.016  12.498
31755W        W 4081   4.896  37.766   3.348
31756W        W 4082  17.141  22.217  12.935
31757W        W 4083  36.087  30.178  14.498
31758W        W 4084   2.257   2.492  11.840
31759W        W 4085  22.258  41.507   3.867
31760W        W 4086  13.233  26.014   1.812
31761W        W 4087  38.863  12.328  10.223
31762W        W 4088   6.402  44.029   4.606
31763W        W 4089  32.302  10.670  13.947
31764W        W 4090   2.175  17.832   2.607
31765W        W 4091  38.766   3.919  12.533
31766W        W 4092   6.962   3.688   1.734
31767W        W 4093  34.956  13.909  11.285
31768W        W 4094  36.517   1.062  13.831
31769W        W 4095   0.459  10.681  10.928
31770W        W 4096  15.220  42.762   4.159
31771W        W 4097  32.589  36.643  14.301
31772W        W 4098  17.060   5.313  11.208
31773W        W 4099  13.277   5.380   0.982
31774W        W 4100   5.618  29.966   3.355
31775W        W 4101  15.640  34.847  10.193
31776W        W 4102  34.882   9.559  14.707
31777W        W 4103   4.204   9.554  14.947
31778W        W 4104   1.813  28.187  10.469
31779W        W 4105  13.285  43.266  13.526
31780W        W 4106   2.423  36.022  14.951
31781W        W 4107  44.348  35.178   2.347
31782W        W 4108  37.848  12.094  11.997
31783W        W 4109  11.281  42.851   2.397
31784W        W 4110  24.627   8.844  14.423
31785W        W 4111   0.994  24.985   1.731
31786W        W 4112   7.561  37.983   0.721
31787W        W 4113   8.868  44.414   3.283
31788W        W 4114   5.604  21.040   2.229
31789W        W 4115   0.189  21.298   2.422
31790W        W 4116  19.932  15.126  13.390
31791W        W 4117  42.452  38.169   3.345
31792W        W 4118  36.848  24.721  11.741
31793W        W 4119  18.267  23.739  14.309
31794W        W 4120  39.024  30.967  14.273
31795W        W 4121   9.307  28.919   1.308
31796W        W 4122  24.255   0.803   4.693
31797W        W 4123  35.356   5.371   4.606
31798W        W 4124  24.000  38.115   5.118
31799W        W 4125   4.442   4.539  14.187
31800W        W 4126  16.748  18.128  11.444
31801W        W 4127  39.293   3.563  14.309
31802W        W 4128   9.588   2.428   2.781
31803W        W 4129   5.923  32.994   3.108
31804W        W 4130  24.123   8.678  14.969
31805W        W 4131  23.145   2.964  13.808
31806W        W 4132  34.928  30.189   1.190
31807W        W 4133   4.820  32.689  12.498
31808W        W 4134  33.142  39.484   1.750
31809W        W 4135  27.157  33.542   3.111
31810W        W 4136  26.196  23.072   1.301
31811W        W 4137  18.659  29.542   1.258
31812W        W 4138  28.719  38.625   1.492
31813W        W 4139   5.257  22.169   4.898
31814W        W 4140  33.674  11.318  10.091
31815W        W 4141   5.975  11.321   1.866
31816W        W 4142  10.321   1.715  14.559
31817W        W 4143  23.555  24.830  12.198
31818W        W 4144   3.368  17.050   1.621
31819W        W 4145  28.458  15.993   2.640
31820W        W 4146  15.460  28.327   4.124
31821W        W 4147  23.625  22.811   0.439
31822W        W 4148  29.067   7.184   4.140
31823W        W 4149   2.670  35.257   5.209
31824W        W 4150  19.551  41.215  13.009
31825W        W 4151  32.108  32.949   3.447
31826W        W 4152  12.669  15.976   3.296
31827W        W 4153  22.996  37.429   2.339
31828W        W 4154   1.255  10.125   0.481
31829W        W 4155   2.538   5.935  10.107
31830W        W 4156  22.783  40.032   1.482
31831W        W 4157  44.918  34.014  14.578
31832W        W 4158   9.102  36.494   2.420
31833W        W 4159  32.036  37.957  11.541
31834W        W 4160  23.638  42.205   3.798
31835W        W 4161  29.949  23.685  12.087
31836W        W 4162  23.242   5.754   4.199
31837W        W 4163   2.440  10.126   3.202
31838W        W 4164  11.756  31.137  10.983
31839W        W 4165  32.528   5.175   3.195
31840W        W 4166  32.698  27.101   0.502
31841W        W 4167  23.245  40.458   9.649
31842W        W 4168   3.824   8.820  10.255
31843W        W 4169   9.815  42.317   4.583
31844W        W 4170   7.058  37.553   4.562
31845W        W 4171  27.733  26.837  11.541
31846W        W 4172  17.851   7.783   3.726
31847W        W 4173   6.760   5.856  11.134
31848W        W 4174  37.319  32.411  13.326
31849W        W 4175  37.958  26.080   4.545
31850W        W 4176  11.350  33.830  14.367
31851W        W 4177  31.208  22.554   1.007
31852W        W 4178  18.783   5.198  12.035
31853W        W 4179  37.386  31.428   3.243
31854W        W 4180  26.088  26.277   0.270
31855W        W 4181  17.318  43.874  13.769
31856W        W 4182  30.676   9.391   1.857
31857W        W 4183  31.865  42.747  11.175
31858W        W 4184  23.027  16.102  10.139
31859W        W 4185   1.479  12.947   2.567
31860W        W 4186  38.821   4.698   4.105
31861W        W 4187   7.917  12.931   0.851
31862W        W 4188  31.415  33.010  10.993
31863W        W 4189  16.560  31.133   0.824
31864W        W 4190  26.042  13.185  13.132
31865W        W 4191  28.044  29.912   1.234
31866W        W 4192  29.463  29.653   0.317
31867W        W 4193  29.705   0.766  14.478
31868W        W 4194  17.147  17.371   5.073
31869W        W 4195   7.145  14.673  12.400
31870W        W 4196  43.715  24.973  12.577
31871W        W 4197  28.647  39.137   2.735
31872W        W 4198   5.352  11.335  12.132
31873W        W 4199  14.859  36.037   5.504
31874W        W 4200  10.743  31.056   1.758
31875W        W 4201  24.916  32.685  11.186
31876W        W 4202  44.004   0.315   4.153
31877W        W 4203  18.439  34.299   3.245
31878W        W 4204  33.892   1.374   0.345
31879W        W 4205   3.296   2.663  10.776
31880W        W 4206  23.653   2.853  14.490
31881W        W 4207   8.179  40.391  13.035
31882W        W 4208  27.202  12.757   1.907
31883W        W 4209   4.102  29.230   0.423
31884W        W 4210   3.752  10.946   0.176
31885W        W 4211  14.150  10.140  11.578
31886W        W 4212  13.370  14.203  10.252
31887W        W 4213   5.897  41.957  12.025
31888W        W 4214  35.459  32.959   4.226
31889W        W 4215  38.039  38.883  12.969
31890W        W 4216  13.123  18.557  12.890
31891W        W 4217  25.331  40.785   2.152
31892W        W 4218  28.516  28.259  13.387
31893W        W 4219  15.711   1.233   4.647
31894W        W 4220   6.472  40.751  14.278
31895W        W 4221   7.682   0.414   3.773
31896W        W 4222   1.717  40.913  14.014
31897W        W 4223   0.859  33.856  14.494
31898W        W 4224   5.168   2.342   4.720
31899W        W 4225  13.397   7.834   2.277
31900W        W 4226   2.408  25.355  13.924
31901W        W 4227   2.763  38.051  11.998
31902W        W 4228   4.708  29.419  10.758
31903W        W 4229  42.713   9.040   0.776
31904W        W 4230  14.605  33.121   0.753
31905W        W 4231  12.504  34.474  12.456
31906W        W 4232  32.574  41.991  14.872
31907W        W 4233   4.903  22.291  11.058
31908W        W 4234  38.907   7.219  11.436
31909W        W 4235  39.367   0.221  11.343
31910W        W 4236  25.183  41.114   1.785
31911W        W 4237  23.949  40.617   1.254
31912W        W 4238  32.961  26.254  14.954
31913W        W 4239  38.508  26.218  13.928
31914W        W 4240  40.373  28.252  12.077
31915W        W 4241   6.802  35.166   1.273
31916W        W 4242  40.985   7.945   3.526
31917W        W 4243  27.486  34.297  12.467
31918W        W 4244  27.649  28.236  13.353
31919W        W 4245  14.599  17.631  10.697
31920W        W 4246  16.986  19.773  13.211
31921W        W 4247   2.993  44.250   1.130
31922W        W 4248  34.097   1.978  13.349
31923W        W 4249  12.610  42.507  12.859
31924W        W 4250  29.105  21.738   4.328
31925W        W 4251  14.566   1.992  12.527
31926W        W 4252   3.732  14.129  12.064
31927W        W 4253  13.176  12.363  14.013
31928W        W 4254  35.867  17.690   2.310
31929W        W 4255  27.451  27.054   1.451
31930W        W 4256  17.329   6.377   1.324
31931W        W 4257  25.532  43.458  13.456
31932W        W 4258  23.554  37.933   1.768
31933W        W 4259  15.398  10.834   4.293
31934W        W 4260  34.906  29.629   4.547
31935W        W 4261  20.465   7.689  14.535
31936W        W 4262   9.788  28.198  13.531
31937W        W 4263  34.671  14.541  14.259
31938W        W 4264  17.782   9.128  13.146
31939W        W 4265  10.910  32.386   2.835
31940W        W 4266   8.899  19.351  11.685
31941W        W 4267  36.896  19.022  11.958
31942W        W 4268  38.590  40.865  12.041
31943W        W 4269  22.001   3.212   2.310
31944W        W 4270  31.397  38.810   3.730
31945W        W 4271  10.678  32.415  10.625
31946W        W 4272  42.338  15.141  14.595
31947W        W 4273  33.857   1.833   1.638
31948W        W 4274  22.249  22.638  10.945
31949W        W 4275  10.319  18.097   2.191
31950W        W 4276   0.682  30.484  10.460
31951W        W 4277  32.403  23.296  13.712
31952W        W 4278  35.974   1.936  14.828
31953W        W 4279  37.603  20.972  12.578
31954W        W 4280  12.707  17.748  13.010
31955W        W 4281  42.066   6.826  10.623
31956W        W 4282   3.771  42.618   0.646
31957W        W 4283  18.626   3.275   4.568
31958W        W 4284  26.272   3.104  10.594
31959W        W 4285   9.379   1.177   3.517
31960W        W 4286  21.561  37.656   3.179
31961W        W 4287  29.301  35.651  10.685
31962W        W 4288  42.540  36.359  14.915
31963W        W 4289  36.891   8.332   4.518
31964W        W 4290  43.453  31.190   1.166
31965W        W 4291  23.438  17.722   4.065
31966W        W 4292  36.496  22.867  14.897
31967W        W 4293  12.629   0.812  12.914
31968W        W 4294  44.519  41.384   2.839
31969W        W 4295  12.030  10.399   0.874
31970W        W 4296  36.848   9.785   3.233
31971W        W 4297   6.312  31.657  12.482
31972W        W 4298  38.482  33.133  12.613
31973W        W 4299  10.677  23.119   1.464
31974W        W 4300  42.362   8.104   4.569
31975W        W 4301  28.118  36.654  14.040
31976W        W 4302   1.496  21.547   3.729
31977W        W 4303   2.372  37.804   2.310
31978W        W 4304  40.754  11.333   1.687
31979W        W 4305   3.835   5.153  12.652
31980W        W 4306  19.085  40.845  10.989
31981W        W 4307  16.100  24.110   1.742
31982W        W 4308  33.583   3.392   3.085
31983W        W 4309  14.332  39.904   2.427
31984W        W 4310   3.261  32.022   1.797
31985W        W 4311  29.730  15.252   3.118
31986W        W 4312  23.041  33.691  11.474
31987W        W 4313  14.135  43.919   2.660
31988W        W 4314  17.564  15.173   3.269
31989W        W 4315  25.985  13.754   2.328
31990W        W 4316  26.941   8.347  12.061
31991W        W 4317  13.873  27.999  12.722
31992W        W 4318  28.567  10.213   2.414
31993W        W 4319  15.262  32.428   1.564
31994W        W 4320  16.865  32.558  12.763
31995W        W 4321  19.626   0.895  11.166
31996W        W 4322  24.750  17.965  11.127
31997W        W 4323   5.938  29.442   2.166
31998W        W 4324   7.415  34.050  14.929
31999W        W 4325  21.260  38.018  11.078
32000W        W 4326  40.010   6.824  11.894
32001W        W 4327  24.128  39.002   1.026
32002W        W 4328  14.187  24.902   1.043
32003W        W 4329  21.503  18.313   1.740
32004W        W 4330  15.098   2.773  14.372
32005W        W 4331  32.173   8.641  12.099
32006W        W 4332  42.400  21.736   1.460
32007W        W 4333  40.747  12.076   4.682
32008W        W 4334  27.578  15.288  10.693
32009W        W 4335   1.251   8.707   3.283
32010W        W 4336  18.646  26.153   3.668
32011W        W 4337  16.216  25.519  11.167
32012W        W 4338  18.790  19.461   4.053
32013W        W 4339   9.553  14.923  13.108
32014W        W 4340  15.267  29.183   1.946
32015W        W 4341   6.422  32.908   0.358
32016W        W 4342   1.486  41.405   1.674
32017W        W 4343   2.360  22.705   4.898
32018W        W 4344  37.623  13.302   2.732
32019W        W 4345  42.046  15.051  12.358
32020W        W 4346  42.316  16.574   2.452
32021W        W 4347  40.789  41.450   3.805
32022W        W 4348  27.250  13.271  10.736
32023W        W 4349   0.855   7.540   2.778
32024W        W 4350   3.078   4.547   9.907
32025W        W 4351  22.341   4.675  12.587
32026W        W 4352  27.744  42.479   3.674
32027W        W 4353  28.894  12.398   3.161
32028W        W 4354   1.816  21.043  11.052
32029W        W 4355  19.423   3.187  13.387
32030W        W 4356  25.014  38.681  12.538
32031W        W 4357  17.344   7.176   1.234
32032W        W 4358  17.928  41.831   1.190
32033W        W 4359  36.074  40.685   4.725
32034W        W 4360  22.781  35.466   4.093
32035W        W 4361  40.001  13.845  10.899
32036W        W 4362  21.695  25.589   0.299
32037W        W 4363   4.803   0.754   3.739
32038W        W 4364   7.092  15.231   2.176
32039W        W 4365  10.713  16.047  14.093
32040W        W 4366  18.271  30.357  12.809
32041W        W 4367  11.558  31.580   2.647
32042W        W 4368  25.151  15.601   3.852
32043W        W 4369   7.578   0.866  14.061
32044W        W 4370  35.338   9.835  13.384
32045W        W 4371   2.688   7.808   4.153
32046W        W 4372  31.542  20.261   1.159
32047W        W 4373  35.693   0.480  11.228
32048W        W 4374  16.342  28.450  14.900
32049W        W 4375  42.342  20.334   3.585
32050W        W 4376  32.942  23.172   1.659
32051W        W 4377  43.392  32.905  13.074
32052W        W 4378  38.730  37.996  12.981
32053W        W 4379  40.825  15.347   2.161
32054W        W 4380  18.460  14.040  14.514
32055W        W 4381   3.133  41.075   0.752
32056W        W 4382   0.714   6.698   4.628
32057W        W 4383  16.716  37.477  11.352
32058W        W 4384  35.103  31.128  12.448
32059W        W 4385  28.218  15.069   3.205
32060W        W 4386  11.985  11.534  11.512
32061W        W 4387   3.391  12.905   0.336
32062W        W 4388  18.607  32.935   4.928
32063W        W 4389   1.033   7.689   0.501
32064W        W 4390  27.440  35.154   2.243
32065W        W 4391  27.373   5.707  11.104
32066W        W 4392  25.149  30.653  11.154
32067W        W 4393  30.654  28.888   0.481
32068W        W 4394  43.062  15.675   4.443
32069W        W 4395  16.084   3.412  11.658
32070W        W 4396  40.117  16.261   1.210
32071W        W 4397  43.159  16.240  14.398
32072W        W 4398  29.725   2.408  11.124
32073W        W 4399  14.840  27.556  11.932
32074W        W 4400  41.407   4.217  13.515
32075W        W 4401  30.248  41.566   0.460
32076W        W 4402  36.471  40.319   4.079
32077W        W 4403  24.560  42.521  10.620
32078W        W 4404  17.403  15.887   2.264
32079W        W 4405   0.261   6.452   4.664
32080W        W 4406  43.018  26.848  11.171
32081W        W 4407  10.376  22.066  12.049
32082W        W 4408   2.975   2.006  12.758
32083W        W 4409  33.373  12.245  10.515
32084W        W 4410  28.029  10.648   4.752
32085W        W 4411  26.074   7.167   3.444
32086W        W 4412  35.434   6.650   2.076
32087W        W 4413   6.707   2.772  12.347
32088W        W 4414  24.498  20.715   0.719
32089W        W 4415  19.553   2.394   2.831
32090W        W 4416  31.344  32.917   3.775
32091W        W 4417   1.253  34.376  14.000
32092W        W 4418   0.681  24.776   0.110
32093W        W 4419  42.620  44.946   1.977
32094W        W 4420  21.081  38.864   3.883
32095W        W 4421   8.893  11.087  12.463
32096W        W 4422  30.124   0.878  11.900
32097W        W 4423  40.541   4.302  11.661
32098W        W 4424   9.171  16.285   3.405
32099W        W 4425  11.653  37.973   1.106
32100W        W 4426  20.979  33.142  12.541
32101W        W 4427  39.864  25.214   3.701
32102W        W 4428  35.067  33.192  14.796
32103W        W 4429  12.103  37.015   5.304
32104W        W 4430   7.753  37.712  12.125
32105W        W 4431  14.184  40.440  14.026
32106W        W 4432  10.339  14.759  14.406
32107W        W 4433   3.755  20.001  13.878
32108W        W 4434  14.223  28.852  11.599
32109W        W 4435   1.990  40.338  10.585
32110W        W 4436   8.252   4.671   2.820
32111W        W 4437   4.812   0.721   1.291
32112W        W 4438  19.529  20.183  10.664
32113W        W 4439  10.683  14.364  14.951
32114W        W 4440  36.910   8.366   2.877
32115W        W 4441  40.251  28.844   4.114
32116W        W 4442  17.450  22.974   3.178
32117W        W 4443  40.967  20.261  14.537
32118W        W 4444  39.995  11.757  11.075
32119W        W 4445  15.564   0.921  13.390
32120W        W 4446  28.129   0.875   2.804
32121W        W 4447  33.025  18.783  12.974
32122W        W 4448  29.720  41.771   3.747
32123W        W 4449  32.639  17.823  12.829
32124W        W 4450   9.938  42.502  14.445
32125W        W 4451  21.318  41.409   4.925
32126W        W 4452  44.453  24.796   1.341
32127W        W 4453   7.211   5.707  11.401
32128W        W 4454  12.141  44.982  12.123
32129W        W 4455  44.669  38.216  14.509
32130W        W 4456   1.826   2.886  13.434
32131W        W 4457   4.196   4.261   0.140
32132W        W 4458  39.334  32.132  14.102
32133W        W 4459  23.475  29.512  13.942
32134W        W 4460   2.357  25.690   0.913
32135W        W 4461   4.366   3.471  10.998
32136W        W 4462  17.471  44.758  11.234
32137W        W 4463  17.861  26.130   4.317
32138W        W 4464   4.436   8.700   2.796
32139W        W 4465  12.060  15.669  12.643
32140W        W 4466  19.699  20.126  11.604
32141W        W 4467   7.274   1.491  14.768
32142W        W 4468  25.490  14.728  11.652
32143W        W 4469   2.657  17.224   0.495
32144W        W 4470  12.397  44.196  12.340
32145W        W 4471  19.114  40.141  12.674
32146W        W 4472  36.592  13.106  13.508
32147W        W 4473  40.777  22.184  11.155
32148W        W 4474  36.815  37.286   2.218
32149W        W 4475  39.822  40.541  11.027
32150W        W 4476  32.918  17.215  13.357
32151W        W 4477  23.754  11.214   3.259
32152W        W 4478   5.887  41.633  12.586
32153W        W 4479  42.850  21.026  14.915
32154W        W 4480  28.508  30.379  14.364
32155W        W 4481  29.978  41.956   1.818
32156W        W 4482  12.573  22.672   2.180
32157W        W 4483   7.433  26.165   4.618
32158W        W 4484  41.339  28.440   2.286
32159W        W 4485  30.520  25.741  13.605
32160W        W 4486   4.042  29.736   0.498
32161W        W 4487   3.654  19.159  12.013
32162W        W 4488  12.606   2.903   1.730
32163W        W 4489  13.799   3.689  11.092
32164W        W 4490  14.257  21.975  11.603
32165W        W 4491  21.853  37.911   2.780
32166W        W 4492  41.970  24.354  10.708
32167W        W 4493   2.934  11.408   9.877
32168W        W 4494  23.698  16.333   4.166
32169W        W 4495  27.100   5.735   1.286
32170W        W 4496  19.681  39.978  11.113
32171W        W 4497   6.922  33.004   0.361
32172W        W 4498  23.061  15.913   0.288
32173W        W 4499  44.840  34.222  11.522
32174W        W 4500  15.231   0.317  11.546
32175W        W 4501   3.450  40.495  13.922
32176W        W 4502  39.943  24.713   3.701
32177W        W 4503  20.178  10.623  10.429
32178W        W 4504  12.270  19.068  14.000
32179W        W 4505   6.085   2.316   3.187
32180W        W 4506  17.233  40.409  11.362
32181W        W 4507  42.674  10.865   1.315
32182W        W 4508   5.178  16.197  13.557
32183W        W 4509   0.757   9.655  13.793
32184W        W 4510  30.185   9.289  14.354
32185W        W 4511   2.735  13.353   4.054
32186W        W 4512  44.453   4.261  10.320
32187W        W 4513   1.913  41.781   4.412
32188W        W 4514   8.640  17.084  10.670
32189W        W 4515  40.755  18.577   4.383
32190W        W 4516   3.792  22.809   0.382
32191W        W 4517   7.321   7.283   3.170
32192W        W 4518   1.802  35.366   3.337
32193W        W 4519  14.875  15.250   2.732
32194W        W 4520  17.095  12.786  12.306
32195W        W 4521  41.426   7.232  14.092
32196W        W 4522   0.976  20.644  12.894
32197W        W 4523  19.185  24.738  12.213
32198W        W 4524  10.287   7.962  12.414
32199W        W 4525  17.258  35.613  10.779
32200W        W 4526  43.915   4.860   2.433
32201W        W 4527  32.865  23.080  14.784
32202W        W 4528   3.791  12.651   4.620
32203W        W 4529  42.302   0.495  11.147
32204W        W 4530   9.595   4.750   0.875
32205W        W 4531  28.686   4.989   2.841
32206W        W 4532  13.838  27.986   0.974
32207W        W 4533  16.990  21.117  14.396
32208W        W 4534  28.933   7.926   3.697
32209W        W 4535  30.156  18.685   1.777
32210W        W 4536   9.845  29.929   2.430
32211W        W 4537  20.697  26.794  11.976
32212W        W 4538  22.087   5.166   0.868
32213W        W 4539  28.211   0.907  11.595
32214W        W 4540  18.224  17.281   4.860
32215W        W 4541   3.325  20.484   0.436
32216W        W 4542  25.027  40.212  12.088
32217W        W 4543  44.493  12.793  14.021
32218W        W 4544  35.060  16.585  14.170
32219W        W 4545   3.442   1.022   2.784
32220W        W 4546  38.972   0.227  12.609
32221W        W 4547  24.056  17.721  10.733
32222W        W 4548  18.983   2.719   3.801
32223W        W 4549  20.210  18.321   2.393
32224W        W 4550  10.253  16.036  13.811
32225W        W 4551  39.650   6.128  11.679
32226W        W 4552  15.902  19.946  12.646
32227W        W 4553   8.832  14.722  14.263
32228W        W 4554  20.271  18.310  11.522
32229W        W 4555   6.737   8.355  10.696
32230W        W 4556   5.586   7.773  11.981
32231W        W 4557  21.341  43.280   3.678
32232W        W 4558  10.152  30.291   2.673
32233W        W 4559  13.444  16.616   2.397
32234W        W 4560  10.268  38.955   2.602
32235W        W 4561  32.096   4.932  13.160
32236W        W 4562  44.107  26.879   3.720
32237W        W 4563  42.857  21.004   3.713
32238W        W 4564   4.908  26.466   1.097
32239W        W 4565  31.893   5.484  13.386
32240W        W 4566  43.419  36.686  11.142
32241W        W 4567  27.579  12.299  12.927
32242W        W 4568  39.472  41.114   2.893
32243W        W 4569  39.074  24.908  10.701
32244W        W 4570   6.187  28.034  13.761
32245W        W 4571  10.947  27.692  13.385
32246W        W 4572  23.369   7.669   0.058
32247W        W 4573  27.613  15.117  12.865
32248W        W 4574   5.989  30.020  11.026
32249W        W 4575  25.123  24.033  13.005
32250W        W 4576  43.028  12.778   0.368
32251W        W 4577   8.262  34.174  13.731
32252W        W 4578  22.624  29.983   3.333
32253W        W 4579  18.675  16.598  10.731
32254W        W 4580  37.073  41.543   0.794
32255W        W 4581  43.635  15.467   2.369
32256W        W 4582  39.818   5.898  10.529
32257W        W 4583  31.002  34.136  14.960
32258W        W 4584  26.306  39.794  12.775
32259W        W 4585   0.484   4.607   1.240
32260W        W 4586  12.193  24.140  12.056
32261W        W 4587  11.131  35.556   0.864
32262W        W 4588   4.874  20.730   2.867
32263W        W 4589  42.483  43.956   4.855
32264W        W 4590  31.477   0.161   2.563
32265W        W 4591   2.011  13.273  13.070
32266W        W 4592  40.809  17.446   1.409
32267W        W 4593   7.783  17.076   4.509
32268W        W 4594  26.241   7.402  14.932
32269W        W 4595  23.813  14.046   9.926
32270W        W 4596  39.922   1.867   3.197
32271W        W 4597  28.642  34.921  12.980
32272W        W 4598  13.131  40.088  14.756
32273W        W 4599   6.369  10.134  14.022
32274W        W 4600  40.528  39.495   3.509
32275W        W 4601  12.843  19.335  11.187
32276W        W 4602  23.532   4.102  14.200
32277W        W 4603  14.117  23.558  13.010
32278W        W 4604  12.817  16.313   1.901
32279W        W 4605   7.298   3.311   1.947
32280W        W 4606   3.728  16.360   1.197
32281W        W 4607   0.950   2.493  13.770
32282W        W 4608  17.207  25.094  14.820
32283W        W 4609  34.454  12.694   0.023
32284W        W 4610   3.994  11.427  10.435
32285W        W 4611   0.353  15.554  12.890
32286W        W 4612  23.278  35.493   1.359
32287W        W 4613  16.085   7.358   1.896
32288W        W 4614  23.666   3.690  13.841
32289W        W 4615  27.432  43.347   4.141
32290W        W 4616  44.265  37.494   2.914
32291W        W 4617   6.428  14.679   1.676
32292W        W 4618  23.041  40.897  11.457
32293W        W 4619  21.647  30.889   0.961
32294W        W 4620  20.240  33.592  13.051
32295W        W 4621  16.725  14.609  12.413
32296W        W 4622  31.181   9.780  12.146
32297W        W 4623  23.889  11.686  14.020
32298W        W 4624   4.908  12.346   4.041
32299W        W 4625   4.717  34.960   3.125
32300W        W 4626  44.339   5.688  10.426
32301W        W 4627  15.644   9.404   1.376
32302W        W 4628   5.733  29.574   4.076
32303W        W 4629  24.454  13.733  14.954
32304W        W 4630  29.166   9.774   3.554
32305W        W 4631  40.021  33.110  12.827
32306W        W 4632   9.848  14.356   2.724
32307W        W 4633  11.303  11.393  10.948
32308W        W 4634  23.834  39.323   4.506
32309W        W 4635   4.268  14.008   3.230
32310W        W 4636  33.969  11.527   3.685
32311W        W 4637  27.348  11.748   2.824
32312W        W 4638  13.131  41.775   0.707
32313W        W 4639   4.176  34.316  11.880
32314W        W 4640  36.696  35.980   3.792
32315W        W 4641  37.376  17.537  14.916
32316W        W 4642  11.847  40.986  13.900
32317W        W 4643  21.962  38.433   1.784
32318W        W 4644  37.807  40.584   1.825
32319W        W 4645  35.641  31.358   1.926
32320W        W 4646  27.456  26.595  11.038
32321W        W 4647  33.694  21.921   1.936
32322W        W 4648  13.546  28.099  11.121
32323W        W 4649  39.513  21.075  11.171
32324W        W 4650  15.343  23.129   0.751
32325W        W 4651   1.743  22.424  10.920
32326W        W 4652  33.549  32.938  14.366
32327W        W 4653   4.894  19.893   4.262
32328W        W 4654   5.478  18.041   0.313
32329W        W 4655  20.653   9.764  14.559
32330W        W 4656   4.195  43.306  10.680
32331W        W 4657  15.306  19.593  11.146
32332W        W 4658  30.603  11.868   0.584
32333W        W 4659  42.035   5.873   2.789
32334W        W 4660  25.256  34.979   0.601
32335W        W 4661  31.464  24.580  12.722
32336W        W 4662  38.138  35.817  12.927
32337W        W 4663  28.565   3.307  13.849
32338W        W 4664  44.764  25.297   1.166
32339W        W 4665  16.166  35.356   1.363
32340W        W 4666   2.699  37.863   3.626
32341W        W 4667  30.112  44.463  10.573
32342W        W 4668  41.307  10.038   1.433
32343W        W 4669   4.994  44.962  11.966
32344W        W 4670  31.050  33.536  11.548
32345W        W 4671  36.528  22.756   9.868
32346W        W 4672  24.032  27.756   4.604
32347W        W 4673  30.414  41.978   3.195
32348W        W 4674   0.508  34.725  12.930
32349W        W 4675  23.099  23.223   1.247
32350W        W 4676  13.084  43.525   1.219
32351W        W 4677  39.324   2.885   0.384
32352W        W 4678  36.662  20.460  13.787
32353W        W 4679  14.554   3.412  11.610
32354W        W 4680   9.571  20.742   4.194
32355W        W 4681  33.455   9.389  10.237
32356W        W 4682   2.623  30.282   5.135
32357W        W 4683  11.105  44.518  10.682
32358W        W 4684   9.550  30.966  11.911
32359W        W 4685  19.012   8.177  13.010
32360W        W 4686   8.162  26.737  14.980
32361W        W 4687  14.112  27.465  10.611
32362W        W 4688  30.303   2.250   3.316
32363W        W 4689  38.353  12.219  10.719
32364W        W 4690   4.378  35.832  14.827
32365W        W 4691  29.378  40.894   4.241
32366W        W 4692  11.828  10.707  11.114
32367W        W 4693  37.049  37.546   1.726
32368W        W 4694  21.259   0.730  12.534
32369W        W 4695   2.772   8.718   4.649
32370W        W 4696  12.259  29.143   4.447
32371W        W 4697  36.841  18.003   4.555
32372W        W 4698   2.904  40.524  14.821
32373W        W 4699  18.265  40.478  13.021
32374W        W 4700   0.494  15.683   1.853
32375W        W 4701  22.918  17.653  10.171
32376W        W 4702  32.532  12.559   3.085
32377W        W 4703  19.234   9.436  13.564
32378W        W 4704  10.870  22.512   1.995
32379W        W 4705  34.040  27.469   2.794
32380W        W 4706  32.026  16.876   0.746
32381W        W 4707  42.739  37.846  14.855
32382W        W 4708  19.796  40.919   0.901
32383W        W 4709  28.247  37.407   1.361
32384W        W 4710  10.616  21.109   1.700
32385W        W 4711  11.192  32.333   2.401
32386W        W 4712  37.428   6.414   4.648
32387W        W 4713  30.441   6.929  14.496
32388W        W 4714  35.063   4.952  11.636
32389W        W 4715  21.104  42.783  14.368
32390W        W 4716  15.366   6.154  11.507
32391W        W 4717  37.473  17.601   0.419
32392W        W 4718  10.321  26.516  10.124
32393W        W 4719   5.462  22.639   9.860
32394W        W 4720  44.244  39.557  11.454
32395W        W 4721  36.864  24.736  11.219
32396W        W 4722  17.557  13.473  14.351
32397W        W 4723  42.793  23.891  12.753
32398W        W 4724   7.785  24.516  12.931
32399W        W 4725  27.158   3.144   0.278
32400W        W 4726  29.956   7.191  11.641
32401W        W 4727  14.206  42.218  13.995
32402W        W 4728  11.127   9.450   3.552
32403W        W 4729  33.130  14.777   0.039
32404W        W 4730  22.662  35.532   1.762
32405W        W 4731   6.355  25.688   3.761
32406W        W 4732  41.336   4.667  14.756
32407W        W 4733  17.129  33.337   2.798
32408W        W 4734  38.590  36.869   2.958
32409W        W 4735   9.252  34.644  11.153
32410W        W 4736  35.664  10.694   1.804
32411W        W 4737  18.267   2.985  10.671
32412W        W 4738   7.821  10.620   4.124
32413W        W 4739  19.660  22.073  12.879
32414W        W 4740  12.424  29.766  11.558
32415W        W 4741  26.362  35.531  11.178
32416W        W 4742   1.675  32.991  14.379
32417W        W 4743  10.155   3.549  10.294
32418W        W 4744  12.409   0.721   1.457
32419W        W 4745  36.568  37.413   1.761
32420W        W 4746  14.691  18.193   0.461
32421W        W 4747  21.535  37.241  12.695
32422W        W 4748  22.742  38.613  12.869
32423W        W 4749  11.801  22.525  14.938
32424W        W 4750   5.719  31.957  13.807
32425W        W 4751  39.927  35.145  10.980
32426W        W 4752   4.021  13.266   1.424
32427W        W 4753  33.363  16.096  14.809
32428W        W 4754  30.171   2.889  13.381
32429W        W 4755  12.418   6.953  12.140
32430W        W 4756   7.707  14.068   4.601
32431W        W 4757   0.252   2.938  12.377
32432W        W 4758  17.677  12.606  14.573
32433W        W 4759  16.565  37.847  13.236
32434W        W 4760  38.005  16.024  14.378
32435W        W 4761  12.212  36.178   4.349
32436W        W 4762  20.847  14.510   5.111
32437W        W 4763  14.524   4.892  14.420
32438W        W 4764  14.248  12.287  14.609
32439W        W 4765  19.669  19.540   4.334
32440W        W 4766  34.574  40.643   4.474
32441W        W 4767  35.489  24.720  13.327
32442W        W 4768   8.192   0.540   2.952
32443W        W 4769  38.645  35.789  12.937
32444W        W 4770  35.871  23.953  14.218
32445W        W 4771  40.365  41.886   2.788
32446W        W 4772  41.453  15.375  13.971
32447W        W 4773  16.528  15.038   1.815
32448W        W 4774   1.493  44.465  13.779
32449W        W 4775  38.555  27.880   4.611
32450W        W 4776   1.286  40.986  14.513
32451W        W 4777   5.179  25.032  11.665
32452W        W 4778   1.495  25.193  10.989
32453W        W 4779  23.683  23.185  14.439
32454W        W 4780  10.693  31.645   3.350
32455W        W 4781  12.686  26.949  13.573
32456W        W 4782  21.056  10.752  12.308
32457W        W 4783  28.130  33.506   3.283
32458W        W 4784  33.693   0.261  12.228
32459W        W 4785  27.498  14.600   2.915
32460W        W 4786  38.804  13.579   1.005
32461W        W 4787  34.496  44.029   4.546
32462W        W 4788  36.926  39.031  13.596
32463W        W 4789  41.666   8.730   1.670
32464W        W 4790  38.948  24.877  11.513
32465W        W 4791  19.064  32.215   3.285
32466W        W 4792  28.330  37.846  13.624
32467W        W 4793  18.086  40.029   1.425
32468W        W 4794  17.016  31.000   2.387
32469W        W 4795  33.303  35.606   5.171
32470W        W 4796  37.998  24.927  11.241
32471W        W 4797  20.298   9.058   2.340
32472W        W 4798  25.699  33.643   1.089
32473W        W 4799  34.503  33.116   1.115
32474W        W 4800  24.003  42.090  13.718
32475W        W 4801  44.420  24.591  11.522
32476W        W 4802  44.142  27.137  13.450
32477W        W 4803  28.333  20.011   4.203
32478W        W 4804   7.587  31.879   0.290
32479W        W 4805  23.693   6.987   4.607
32480W        W 4806  39.523  21.560   0.051
32481W        W 4807   3.230  38.554  12.576
32482W        W 4808  22.598  17.505  11.306
32483W        W 4809  28.216  40.585   0.451
32484W        W 4810   0.820  37.639  11.608
32485W        W 4811  14.795  29.012  11.577
32486W        W 4812  37.077  42.416   3.639
32487W        W 4813  12.832  21.328   4.294
32488W        W 4814  32.473   5.679  11.999
32489W        W 4815  40.727  36.971   1.182
32490W        W 4816  27.687  20.751  14.328
32491W        W 4817  39.272  32.613   0.266
32492W        W 4818  18.793   0.813  11.028
32493W        W 4819   8.984   0.805  14.476
32494W        W 4820  12.259   0.488   4.053
32495W        W 4821  15.255   9.367  14.885
32496W        W 4822  33.762   3.428   4.050
32497W        W 4823  20.121  18.707   5.082
32498W        W 4824  28.614   7.221   4.408
32499W        W 4825  14.008  24.680  13.261
32500W        W 4826  30.482  12.295   0.924
32501W        W 4827  44.907   9.921  14.025
32502W        W 4828  17.680   2.748   1.450
32503W        W 4829  43.726  30.656   2.238
32504W        W 4830   9.266  38.451   2.125
32505W        W 4831  31.377  29.196   2.315
32506W        W 4832   9.758  17.716   5.027
32507W        W 4833   3.908  37.198   1.730
32508W        W 4834  11.146  30.869   1.390
32509W        W 4835  26.856  27.536   0.798
32510W        W 4836  10.760   6.689   1.042
32511W        W 4837   7.453   4.732  12.385
32512W        W 4838   8.961   6.641   4.565
32513W        W 4839  38.322   4.385   2.598
32514W        W 4840  42.795  22.292  14.346
32515W        W 4841  30.270  41.461   2.474
32516W        W 4842  44.219  36.106   3.631
32517W        W 4843   9.725  33.369   4.345
32518W        W 4844  25.404  42.460   0.537
32519W        W 4845   2.322  36.300   4.129
32520W        W 4846  43.576  32.040   1.151
32521W        W 4847  27.350  15.390  12.371
32522W        W 4848  19.010  29.011   1.682
32523W        W 4849  16.576  35.341   3.215
32524W        W 4850   8.709  22.277  11.618
32525W        W 4851  38.587  30.369  13.775
32526W        W 4852  28.395   6.851   1.459
32527W        W 4853  32.972  40.336   2.122
32528W        W 4854  12.631  33.961   1.346
32529W        W 4855   4.302  18.096  13.139
32530W        W 4856  19.293  24.975  11.688
32531W        W 4857  44.746  34.845  14.821
32532W        W 4858   1.858  18.902  12.669
32533W        W 4859  13.400  36.483  11.187
32534W        W 4860  28.964   2.923   4.789
32535W        W 4861  43.481  23.748  14.906
32536W        W 4862   9.302  40.340  12.411
32537W        W 4863  37.726   8.132  12.523
32538W        W 4864   5.312   7.308   0.502
32539W        W 4865   9.918   6.308  14.880
32540W        W 4866   6.141  17.011  11.636
32541W        W 4867  27.660  29.413   3.615
32542W        W 4868   2.341  33.498  10.626
32543W        W 4869  41.833  16.245   0.975
32544W        W 4870  32.511  41.583  10.744
32545W        W 4871  19.458  22.927   4.306
32546W        W 4872  14.056  11.890   5.029
32547W        W 4873  25.993  21.938  14.946
32548W        W 4874  38.341   6.942  14.921
32549W        W 4875  22.965  14.103  13.988
32550W        W 4876  10.908   5.744   0.569
32551W        W 4877  27.464  41.734   4.080
32552W        W 4878  23.329  10.729  11.845
32553W        W 4879  21.148  37.256  14.993
32554W        W 4880  23.184  13.847   0.374
32555W        W 4881  16.702   5.545   2.270
32556W        W 4882   3.733  16.270  13.456
32557W        W 4883  42.331   6.448  14.925
32558W        W 4884  19.574   9.699   2.981
32559W        W 4885  39.458  16.334  11.654
32560W        W 4886  25.870  31.004   3.423
32561W        W 4887   7.115  12.182   4.624
32562W        W 4888  20.471  19.106  11.664
32563W        W 4889   6.699  16.118  14.836
32564W        W 4890  12.344  44.822  13.017
32565W        W 4891  12.316   0.972   2.276
32566W        W 4892  34.822  35.896   0.677
32567W        W 4893  13.532   1.400   1.583
32568W        W 4894  11.380   0.057  12.077
32569W        W 4895   1.944  43.354   2.141
32570W        W 4896   6.298  34.275   0.213
32571W        W 4897  23.051  42.499  11.738
32572W        W 4898  34.169  32.666  12.890
32573W        W 4899  41.827  18.604  13.831
32574W        W 4900   0.007  35.382  14.896
32575W        W 4901  33.623  25.683   0.803
32576W        W 4902  10.239  35.106  11.072
32577W        W 4903  44.272  40.281  12.084
32578W        W 4904  34.894  25.424   5.011
32579W        W 4905  17.492   5.887   1.245
32580W        W 4906   0.054  29.560   0.715
32581W        W 4907   9.153  13.333   0.336
32582W        W 4908  38.394   9.147   1.590
32583W        W 4909  23.184  42.525   2.023
32584W        W 4910   4.426  31.661  14.064
32585W        W 4911   5.728  26.152  11.050
32586W        W 4912  43.010  41.004   4.666
32587W        W 4913  24.656  42.916   0.996
32588W        W 4914  31.214  17.320  14.498
32589W        W 4915  23.569   1.952   2.279
32590W        W 4916  28.480  11.754   1.417
32591W        W 4917  44.082  17.501   1.474
32592W        W 4918   0.309  11.269  14.972
32593W        W 4919   6.646  28.292   0.210
32594W        W 4920  16.455   4.998  14.742
32595W        W 4921   7.943  43.365  14.802
32596W        W 4922   2.324   5.741  11.428
32597W        W 4923  38.793  42.905   2.662
32598W        W 4924  30.190  22.202   0.878
32599W        W 4925  22.049  32.136   2.338
32600W        W 4926  10.236   5.751  12.418
32601W        W 4927  18.052  21.866  11.190
32602W        W 4928  18.563  14.266  10.775
32603W        W 4929  31.950   6.812  11.180
32604W        W 4930   5.380  22.110  11.159
32605W        W 4931   9.883   3.624  12.503
32606W        W 4932   3.979  33.439  13.485
32607W        W 4933  25.157  44.401  12.112
32608W        W 4934  38.126  27.111   3.577
32609W        W 4935  40.408  13.536   0.634
32610W        W 4936  22.173  14.334   4.676
32611W        W 4937  41.222  39.534  13.396
32612W        W 4938  35.889  27.235  11.608
32613W        W 4939  35.302  21.244   2.261
32614W        W 4940  43.301  39.579   4.558
32615W        W 4941  15.131  29.399   4.762
32616W        W 4942  16.781  36.555  12.529
32617W        W 4943   1.277  26.088  13.924
32618W        W 4944  15.785  37.030  14.073
32619W        W 4945  27.040  32.089  10.974
32620W        W 4946   0.030  13.610  13.470
32621W        W 4947  28.609  14.229   0.870
32622W        W 4948  32.769  11.425   1.793
32623W        W 4949  25.152   1.190  10.721
32624W        W 4950  21.642  37.329   4.529
32625W        W 4951  42.959   7.819  14.873
32626W        W 4952  16.570  10.155  10.216
32627W        W 4953  22.326   5.807  11.533
32628W        W 4954   1.426   7.157   3.744
32629W        W 4955   2.542  20.347  13.408
32630W        W 4956  24.778  39.927   4.505
32631W        W 4957  32.396  41.856   0.336
32632W        W 4958   3.064  27.236  11.152
32633W        W 4959  41.460  23.498  13.076
32634W        W 4960   0.761  22.520   4.727
32635W        W 4961   1.742  13.807  13.987
32636W        W 4962  20.048  40.661  14.735
32637W        W 4963   3.167  38.085   4.488
32638W        W 4964  10.326  25.501   2.902
32639W        W 4965  11.108  37.626   5.083
32640W        W 4966   3.423  43.296  14.453
32641W        W 4967  15.327  30.482   2.489
32642W        W 4968  43.450   5.810  12.009
32643W        W 4969   3.314  38.284  12.995
32644W        W 4970  36.088  37.995   0.701
32645W        W 4971  18.328  25.278  11.538
32646W        W 4972  34.014  22.648  13.971
32647W        W 4973   8.743  10.503  10.162
32648W        W 4974   9.947  30.410   0.421
32649W        W 4975  39.331  25.442   0.695
32650W        W 4976  41.462  20.196   4.130
32651W        W 4977   4.397  18.034   0.426
32652W        W 4978  27.485  39.803  14.805
32653W        W 4979  26.713  40.068   1.270
32654W        W 4980  42.975  21.565  11.203
32655W        W 4981  16.803  43.482   1.819
32656W        W 4982   8.638  16.922  13.269
32657W        W 4983  36.332  22.066   3.355
32658W        W 4984  31.117  36.351   2.432
32659W        W 4985  14.911  28.641  10.286
32660W        W 4986  25.933   1.321  10.694
32661W        W 4987  41.551   1.802   1.932
32662W        W 4988  29.116  41.849  10.471
32663W        W 4989  35.682  29.877  14.352
32664W        W 4990   1.497  17.172  11.107
32665W        W 4991   7.216  22.574  12.498
32666W        W 4992  38.292  22.670   4.123
32667W        W 4993  43.270   1.417  11.961
32668W        W 4994  16.215  30.529   2.877
32669W        W 4995   7.430  35.678   1.558
32670W        W 4996  20.153  24.031   2.746
32671W        W 4997  12.232  43.805  13.696
32672W        W 4998  21.441  39.705   5.023
32673W        W 4999  19.387   7.414   1.454
32674W        W 5000  22.156   8.841   4.700
32675W        W 5001  37.704  22.266   3.465
32676W        W 5002  39.540  16.245   4.156
32677W        W 5003   4.122  10.194   2.412
32678W        W 5004  33.302  43.199  11.970
32679W        W 5005  35.527  15.362   0.927
32680W        W 5006  11.380   4.391   1.012
32681W        W 5007  12.281  23.894   9.719
32682W        W 5008  10.060  37.931   2.283
32683W        W 5009  19.892  27.246  13.522
32684W        W 5010  30.049  43.487   3.739
32685W        W 5011  31.535   8.238   0.367
32686W        W 5012  27.187  31.737   0.581
32687W        W 5013  23.961   2.253  11.611
32688W        W 5014   2.782   6.342   0.621
32689W        W 5015  12.352  15.026   1.847
32690W        W 5016   3.301  24.005   3.696
32691W        W 5017  12.157   1.253   2.671
32692W        W 5018  33.991  44.533  13.395
32693W        W 5019  25.357  30.058  14.443
32694W        W 5020  16.674  27.921   3.194
32695W        W 5021   3.340  26.736   3.684
32696W        W 5022  17.248  12.840   0.365
32697W        W 5023  28.096   3.342   4.514
32698W        W 5024   3.551  25.917  11.764
32699W        W 5025  17.261  44.823  14.833
32700W        W 5026  30.852  40.963   4.058
32701W        W 5027  36.714  21.475   4.545
32702W        W 5028  44.796  20.336   3.659
32703W        W 5029  16.731  23.393   0.862
32704W        W 5030   1.897  42.809   4.284
32705W        W 5031  11.322  26.038  14.497
32706W        W 5032  31.490  27.217   4.153
32707W        W 5033  27.571  41.040   2.726
32708W        W 5034   9.331  23.259  13.029
32709W        W 5035  20.740  31.920   3.243
32710W        W 5036  27.990  36.445  13.573
32711W        W 5037   0.145  13.139   4.632
32712W        W 5038  15.167   2.343  11.650
32713W        W 5039  26.640   8.820   3.808
32714W        W 5040  36.094  42.570  14.234
32715W        W 5041  11.892  36.558  11.131
32716W        W 5042  24.098   3.847  11.022
32717W        W 5043  21.518  32.183  12.998
32718W        W 5044   0.941  42.211   0.925
32719W        W 5045   5.282  20.032   2.403
32720W        W 5046  23.274   5.131  11.120
32721W        W 5047  31.680  20.028  14.004
32722W        W 5048  31.698  23.470   0.568
32723W        W 5049  38.632  13.100   2.669
32724W        W 5050   7.945   7.289  13.831
32725W        W 5051  39.450  28.452  11.870
32726W        W 5052  18.136   0.836  14.884
32727W        W 5053  20.617  21.288   4.439
32728W        W 5054   5.730  43.604  13.522
32729W        W 5055  36.396  23.500   1.921
32730W        W 5056  11.263  27.356   5.080
32731W        W 5057  11.543  25.994   5.110
32732W        W 5058  38.586  15.602   3.389
32733W        W 5059  17.166  20.497   2.152
32734W        W 5060   6.706  18.105  12.114
32735W        W 5061  22.977   8.097  12.403
32736W        W 5062   9.827  44.929  11.555
32737W        W 5063  23.967   7.400  14.461
32738W        W 5064  23.376  20.307  12.457
32739W        W 5065  12.692   2.197  14.003
32740W        W 5066  20.968   2.756   4.027
32741W        W 5067  39.170  44.837   2.183
32742W        W 5068  24.576  41.316   3.689
32743W        W 5069  18.271  13.803   2.857
32744W        W 5070  37.427  36.772   0.201
32745W        W 5071  21.719   8.933  14.796
32746W        W 5072  38.779  29.422  13.015
32747W        W 5073   8.336  23.230  13.532
32748W        W 5074   4.107   2.415   4.145
32749W        W 5075  23.725  29.842  11.458
32750W        W 5076  14.554  22.739   0.708
32751W        W 5077   5.770  44.315   2.812
32752W        W 5078   8.489  38.254  13.823
32753W        W 5079   7.091  40.531   0.463
32754W        W 5080  18.665  16.943  12.982
32755W        W 5081  31.861  32.433   0.206
32756W        W 5082  44.607  13.351   4.089
32757W        W 5083  11.733  27.024   0.736
32758W        W 5084  19.224  17.719  11.942
32759W        W 5085  44.918  37.898  12.114
32760W        W 5086  25.693  29.570  10.830
32761W        W 5087  20.978  14.887   3.331
32762W        W 5088  33.078  34.689   4.168
32763W        W 5089  39.065  13.781   0.595
32764W        W 5090   5.798  37.583  11.518
32765W        W 5091  19.033  16.549   0.011
32766W        W 5092  20.332   8.014  11.994
32767W        W 5093  13.378   8.289  11.605
32768W        W 5094   1.968  23.777  13.065
32769W        W 5095   1.450   8.957  10.561
32770W        W 5096  28.425  27.187   3.641
32771W        W 5097   7.969  43.740  12.817
32772W        W 5098   0.054  23.132   4.626
32773W        W 5099  19.667   6.126  13.015
32774W        W 5100   6.125  20.987   5.099
32775W        W 5101  38.318  16.555  12.981
32776W        W 5102  15.397  35.014   3.694
32777W        W 5103  15.827  18.977   3.176
32778W        W 5104  22.333   7.913  13.541
32779W        W 5105   9.340  29.955   0.731
32780W        W 5106  25.722  21.236   1.457
32781W        W 5107   7.705  11.857   3.506
32782W        W 5108  31.667  13.557   4.083
32783W        W 5109  40.439  13.379   1.140
32784W        W 5110  28.840  34.941  12.459
32785W        W 5111   7.637  10.197   3.207
32786W        W 5112  38.140  41.928  13.239
32787W        W 5113  41.486  35.545   0.754
32788W        W 5114  31.210  43.196  12.045
32789W        W 5115  44.993  15.241  14.281
32790W        W 5116  36.595   1.748   5.162
32791W        W 5117  41.944   3.479  10.735
32792W        W 5118  17.314  39.570  11.722
32793W        W 5119  14.739  15.318  11.199
32794W        W 5120  20.295  25.717   2.916
32795W        W 5121  39.447  32.455  10.825
32796W        W 5122  23.866  34.467  11.631
32797W        W 5123  31.958  20.138   1.472
32798W        W 5124  21.057   9.969  14.308
32799W        W 5125  29.156  31.149  10.980
32800W        W 5126  32.286  37.477  14.870
32801W        W 5127   0.310   8.167  10.654
32802W        W 5128   0.949  33.003   0.021
32803W        W 5129  37.309   7.260   2.170
32804W        W 5130  14.267  44.404  11.480
32805W        W 5131   1.960  20.998  10.112
32806W        W 5132  15.213  40.124  11.509
32807W        W 5133  44.886   0.548  14.623
32808W        W 5134   4.142   9.253  13.158
32809W        W 5135  18.083  23.643  10.953
32810W        W 5136  41.091  28.936   2.822
32811W        W 5137  35.944  19.921   1.032
32812W        W 5138  20.171  26.902   0.923
32813W        W 5139  26.206  23.899  14.832
32814W        W 5140   3.916  28.688   4.390
32815W        W 5141  37.430  34.044  11.286
32816W        W 5142   3.494  10.856   2.678
32817W        W 5143  44.968  33.006   3.634
32818W        W 5144  42.909  23.464   4.108
32819W        W 5145   4.485  40.880   2.115
32820W        W 5146  34.091  12.870   1.793
32821W        W 5147   9.986   0.285  10.690
32822W        W 5148  13.840  11.658   3.135
32823W        W 5149  28.551   7.212   1.815
32824W        W 5150   2.678  14.579  14.342
32825W        W 5151   2.968   2.462  12.461
32826W        W 5152   8.896   5.995  13.971
32827W        W 5153  31.282  31.411  11.214
32828W        W 5154  32.240  35.955  10.718
32829W        W 5155  38.801  43.750   2.201
32830W        W 5156   4.534  39.027   1.674
32831W        W 5157  33.590  11.111   4.307
32832W        W 5158  26.540  28.687   2.599
32833W        W 5159  28.557  11.135   0.953
32834W        W 5160  28.146  39.922  11.572
32835W        W 5161  22.031   2.017  13.831
32836W        W 5162  29.337  22.111  11.570
32837W        W 5163  26.571  20.508   1.306
32838W        W 5164  40.842  10.782  14.881
32839W        W 5165  38.039   5.224   3.218
32840W        W 5166  25.205  27.239   2.010
32841W        W 5167  37.623  15.344   2.707
32842W        W 5168  12.547  18.619   0.709
32843W        W 5169   7.795   3.257  11.055
32844W        W 5170  31.573   1.480   2.304
32845W        W 5171   5.405   1.856   2.739
32846W        W 5172  42.938  25.995  13.688
32847W        W 5173  25.467  19.611  14.047
32848W        W 5174  36.024  44.767   4.787
32849W        W 5175  19.504  24.793   1.298
32850W        W 5176  37.570  17.696   3.653
32851W        W 5177  14.581   1.478  13.019
32852W        W 5178  18.302  35.113   1.952
32853W        W 5179   1.483   2.551  14.874
32854W        W 5180  10.343  16.741  13.451
32855W        W 5181  14.933  13.468  12.431
32856W        W 5182  16.719  20.984   4.309
32857W        W 5183  10.392   0.432  13.397
32858W        W 5184  28.155  35.075  10.913
32859W        W 5185  39.758  24.217   2.735
32860W        W 5186   8.509   8.188   1.819
32861W        W 5187  19.532  13.755   3.789
32862W        W 5188  27.678  22.271  14.055
32863W        W 5189  16.909  30.116   2.903
32864W        W 5190  42.275  19.491   0.863
32865W        W 5191  20.383  31.894  11.624
32866W        W 5192  15.591  44.481   4.654
32867W        W 5193  44.902  24.275   2.314
32868W        W 5194   3.858  43.387   4.211
32869W        W 5195  36.883  13.897  10.109
32870W        W 5196  35.755  44.835  14.774
32871W        W 5197  17.286   3.681   3.781
32872W        W 5198  12.683  19.379  13.915
32873W        W 5199  31.443   7.128  14.783
32874W        W 5200   3.153  13.128  14.932
32875W        W 5201  38.331   3.249  11.508
32876W        W 5202  34.810  16.519  12.018
32877W        W 5203   4.950   5.871  12.978
32878W        W 5204  38.973  15.764  11.698
32879W        W 5205  37.922  12.800  10.195
32880W        W 5206  17.167  26.275   2.315
32881W        W 5207  12.178   4.370  13.897
32882W        W 5208  29.037  23.488  12.659
32883W        W 5209  33.347   9.362   3.769
32884W        W 5210  27.616  29.698   4.461
32885W        W 5211  24.051  23.293  10.982
32886W        W 5212  21.435  19.215  11.748
32887W        W 5213  42.001  11.994   0.737
32888W        W 5214  18.042  10.957  12.929
32889W        W 5215  33.108  36.472   0.319
32890W        W 5216  33.342  33.445  14.289
32891W        W 5217   6.310   8.083   2.186
32892W        W 5218  32.051   0.407  10.627
32893W        W 5219  14.743  32.832   0.327
32894W        W 5220   1.811   1.275  12.406
32895W        W 5221  15.026  26.905   0.157
32896W        W 5222  36.217  14.757   3.455
32897W        W 5223   6.196  12.806  14.808
32898W        W 5224   7.327  27.647  12.435
32899W        W 5225   6.789  38.304   0.517
32900W        W 5226  26.207  38.509  13.770
32901W        W 5227  33.057  20.658   1.001
32902W        W 5228  23.173  34.344   4.070
32903W        W 5229  39.815  11.590  11.530
32904W        W 5230  22.662   6.159  14.538
32905W        W 5231  15.082  42.502  14.053
32906W        W 5232  27.192  25.524  12.539
32907W        W 5233  36.466   2.995   2.789
32908W        W 5234  17.743  14.777   4.306
32909W        W 5235   7.740  38.068  11.740
32910W        W 5236   6.092  25.518   3.362
32911W        W 5237   0.433  22.570  13.366
32912W        W 5238  44.258  28.048  13.437
32913W        W 5239   9.371  23.814   3.213
32914W        W 5240  29.819  42.021  13.851
32915W        W 5241   3.671  27.276   4.106
32916W        W 5242   3.054  20.227   2.827
32917W        W 5243  19.754   4.222   4.156
32918W        W 5244  13.549  19.581   3.650
32919W        W 5245  24.652  30.847  10.998
32920W        W 5246  36.282  10.215   0.335
32921W        W 5247   2.354  26.911   4.136
32922W        W 5248   4.573  31.454   0.448
32923W        W 5249  23.935   9.697   1.852
32924W        W 5250  35.805   9.031  11.694
32925W        W 5251  23.152  34.985   4.708
32926W        W 5252  21.687  34.972   4.724
32927W        W 5253  10.873  26.938  10.865
32928W        W 5254  35.618   2.869  14.550
32929W        W 5255  44.433   7.235  10.725
32930W        W 5256   8.295  22.694   4.880
32931W        W 5257   7.828  30.851   2.694
32932W        W 5258  27.404  17.141   0.437
32933W        W 5259  27.223  16.718  10.662
32934W        W 5260  34.575  22.348  12.180
32935W        W 5261  20.162  40.483   4.506
32936W        W 5262  28.162  31.690   3.289
32937W        W 5263   7.555  18.227   0.201
32938W        W 5264   8.560  11.630   1.757
32939W        W 5265  40.957  35.197   1.351
32940W        W 5266  39.659  28.373  11.191
32941W        W 5267  13.253  35.182   1.171
32942W        W 5268  12.222   7.708  13.567
32943W        W 5269  24.800   2.801  10.707
32944W        W 5270   9.940  15.244  13.865
32945W        W 5271  40.444  38.474   1.338
32946W        W 5272  11.903  25.245   1.730
32947W        W 5273   9.936  31.098  10.553
32948W        W 5274   2.056   3.276   4.125
32949W        W 5275  25.408  37.594  12.988
32950W        W 5276  14.706  42.302   4.133
32951W        W 5277  20.815  22.291  11.570
32952W        W 5278   6.239  34.206  11.488
32953W        W 5279  41.476   4.773   3.266
32954W        W 5280  39.045  24.004   0.412
32955W        W 5281   1.936   2.604  13.844
32956W        W 5282  40.350  33.708  11.194
32957W        W 5283   4.244  11.145   4.180
32958W        W 5284  41.534  42.457   0.284
32959W        W 5285  42.335  37.479   0.015
32960W        W 5286  43.397  23.060   4.722
32961W        W 5287  37.863  43.716  13.298
32962W        W 5288  33.372  37.089   2.868
32963W        W 5289  39.316  30.626   2.297
32964W        W 5290  28.822  20.494   1.776
32965W        W 5291  29.683   8.748  13.975
32966W        W 5292  14.818  21.929   3.836
32967W        W 5293  39.984  38.402  14.326
32968W        W 5294   0.307  16.955   0.871
32969W        W 5295  11.598   8.168   4.067
32970W        W 5296  27.929  20.906  12.029
32971W        W 5297  19.148  44.196  11.659
32972W        W 5298   1.949  33.779  14.991
32973W        W 5299  38.760   6.252  12.824
32974W        W 5300  37.109  22.086  12.940
32975W        W 5301  33.008  25.455  11.114
32976W        W 5302  16.221  22.743   4.771
32977W        W 5303  32.978  10.966   3.074
32978W        W 5304  31.218   9.721  12.683
32979W        W 5305  33.146   2.937  10.672
32980W        W 5306   8.192  17.363  10.584
32981W        W 5307  27.175  11.315   1.273
32982W        W 5308  31.738  19.888  11.659
32983W        W 5309  44.920   1.445  12.184
32984W        W 5310  22.512  44.462   4.141
32985W        W 5311   0.536  25.785  12.761
32986W        W 5312   0.427  29.546   1.291
32987W        W 5313  36.824   6.619   2.383
32988W        W 5314  13.778  40.066   4.197
32989W        W 5315  27.453  29.149   1.034
32990W        W 5316   8.841  44.898   2.585
32991W        W 5317  37.488   6.960  12.397
32992W        W 5318  17.129  30.893   0.076
32993W        W 5319  19.680   6.981  10.374
32994W        W 5320  42.400   1.428   0.874
32995W        W 5321  40.350  18.440   1.915
32996W        W 5322  43.906  36.154   4.044
32997W        W 5323   8.478  20.022   1.959
32998W        W 5324   4.649  44.453  13.479
32999W        W 5325   2.137  15.728   4.651
33000W        W 5326  19.110   7.091  12.141
33001W        W 5327  24.775  15.705  12.330
33002W        W 5328  13.913   9.114  12.468
33003W        W 5329   1.450  18.343  14.918
33004W        W 5330  32.073  23.185  12.987
33005W        W 5331  13.697  16.786   2.832
33006W        W 5332   6.133  40.101   0.349
33007W        W 5333  39.334  16.637   4.453
33008W        W 5334  20.013  29.449  14.246
33009W        W 5335   1.681   3.277  11.537
33010W        W 5336   0.925  17.342  12.821
33011W        W 5337  24.149   2.193   1.515
33012W        W 5338   5.006   5.875   4.176
33013W        W 5339  15.387  22.699   3.203
33014W        W 5340  32.943  34.178   4.066
33015W        W 5341  20.771  19.707   4.593
33016W        W 5342  37.593   2.919  11.032
33017W        W 5343  23.564  28.939  10.810
33018W        W 5344  34.637   8.618  12.401
33019W        W 5345  18.245   7.842   0.174
33020W        W 5346  37.641  10.705   2.157
33021W        W 5347  24.125   7.411  12.397
33022W        W 5348  40.377  31.167  13.011
33023W        W 5349   8.739  16.645   0.256
33024W        W 5350   4.330  30.125  14.535
33025W        W 5351   0.248  14.349  11.975
33026W        W 5352  43.234  14.227  11.195
33027W        W 5353  42.882   7.444  12.950
33028W        W 5354  31.470  38.975  13.792
33029W        W 5355  30.102  31.142  12.117
33030W        W 5356   2.894  20.738  11.562
33031W        W 5357  10.625  16.454  13.775
33032W        W 5358  27.604  38.813  14.921
33033W        W 5359  40.356  36.949  12.979
33034W        W 5360  24.473  22.982  13.551
33035W        W 5361  21.132   5.706   1.856
33036W        W 5362   9.806  10.106   1.665
33037W        W 5363  44.763  38.901   4.142
33038W        W 5364  31.014  29.393   0.765
33039W        W 5365   0.883  26.644   1.315
33040W        W 5366   1.949  16.806   0.908
33041W        W 5367  34.896  16.357   2.833
33042W        W 5368  22.144  38.894   2.756
33043W        W 5369  19.578  29.909   2.598
33044W        W 5370  20.524  41.419   4.523
33045W        W 5371   8.927  44.774   0.464
33046W        W 5372   4.190   7.171   1.180
33047W        W 5373  38.277  23.043  11.092
33048W        W 5374   1.806  20.301   0.287
33049W        W 5375  14.844  24.689  11.159
33050W        W 5376   8.202  10.316  12.345
33051W        W 5377   5.660   4.140   3.545
33052W        W 5378  12.725  19.055   2.455
33053W        W 5379   5.938  38.413  10.574
33054W        W 5380  18.766   2.237  12.472
33055W        W 5381  36.137  10.437  14.871
33056W        W 5382  26.753  40.124  10.636
33057W        W 5383  24.041   3.925   2.908
33058W        W 5384  29.452  43.630   1.852
33059W        W 5385  20.396  22.739  14.179
33060W        W 5386  30.595  13.371   0.491
33061W        W 5387  39.888  17.138   1.276
33062W        W 5388  34.323  28.216   2.249
33063W        W 5389  25.627  30.909  11.213
33064W        W 5390  42.746   4.728  14.955
33065W        W 5391  24.327  28.743  11.169
33066W        W 5392  24.451  27.170  12.481
33067W        W 5393  35.386   0.198  14.876
33068W        W 5394  40.333  39.610  12.997
33069W        W 5395  14.249  16.046  14.794
33070W        W 5396   0.428  39.030  13.905
33071W        W 5397   0.264   7.405   1.237
33072W        W 5398  39.800   8.215  10.912
33073W        W 5399  29.539   7.253  11.943
33074W        W 5400  14.516  43.275   2.400
33075W        W 5401  42.323  13.163   1.426
33076W        W 5402   2.657  20.683   9.690
33077W        W 5403   7.771  43.738   1.260
33078W        W 5404  14.605   6.731   0.729
33079W        W 5405  36.325  28.957  12.426
33080W        W 5406  30.335  34.497   3.809
33081W        W 5407  22.191  43.023  12.069
33082W        W 5408  16.627   8.243  14.025
33083W        W 5409   2.773  10.543   4.764
33084W        W 5410   1.433  25.994  12.858
33085W        W 5411   9.262  33.207   1.662
33086W        W 5412  11.684  13.016  10.356
33087W        W 5413  31.534  28.896  10.564
33088W        W 5414  18.941  27.611  11.092
33089W        W 5415  38.065   4.154   4.570
33090W        W 5416   3.689   2.934   2.162
33091W        W 5417  23.190  37.908   2.384
33092W        W 5418   4.821  20.464  11.978
33093W        W 5419  23.951  17.180   2.327
33094W        W 5420   9.768  42.513   1.783
33095W        W 5421  44.596   5.199  11.908
33096W        W 5422  18.677  16.198   2.640
33097W        W 5423   8.457  19.130  14.802
33098W        W 5424  18.163  35.159  14.204
33099W        W 5425   6.744   7.957  14.141
33100W        W 5426  11.415  16.573  11.117
33101W        W 5427  36.086  23.948   4.110
33102W        W 5428  30.151  44.123  12.577
33103W        W 5429  36.314   2.783  13.877
33104W        W 5430  36.709  36.382   4.697
33105W        W 5431   0.987   5.311   1.337
33106W        W 5432  34.489  23.486  14.835
33107W        W 5433  25.388   4.816   0.612
33108W        W 5434   5.351  26.556   2.342
33109W        W 5435   2.435  25.908   3.239
33110W        W 5436  20.760  12.853  11.913
33111W        W 5437  36.087   5.433  12.150
33112W        W 5438  44.254  25.230   1.144
33113W        W 5439  14.057  39.976  14.814
33114W        W 5440  10.822  35.644  11.520
33115W        W 5441  36.054  31.136   0.739
33116W        W 5442  27.160  15.737  14.274
33117W        W 5443  43.985  40.826  11.934
33118W        W 5444  14.802   3.213   1.412
33119W        W 5445  37.774  39.289   3.026
33120W        W 5446  21.091   3.566  10.710
33121W        W 5447  42.682   8.802   3.136
33122W        W 5448  29.489  28.424   2.846
33123W        W 5449  17.835   7.687   1.514
33124W        W 5450  32.859  19.287  11.152
33125W        W 5451   3.470  25.037  11.883
33126W        W 5452  23.412  15.519   3.743
33127W        W 5453   3.355  44.203   0.305
33128W        W 5454  28.027  15.069  11.166
33129W        W 5455  18.782  25.292   1.333
33130W        W 5456  27.973  19.465   1.912
33131W        W 5457  16.259  34.109  12.061
33132W        W 5458  30.313  43.129  13.004
33133W        W 5459   6.167  29.720   0.374
33134W        W 5460  17.592  10.248   2.137
33135W        W 5461  26.644   4.248   2.125
33136W        W 5462  33.937  42.569   3.625
33137W        W 5463  12.924  16.250  11.263
33138W        W 5464  26.937  37.104  13.996
33139W        W 5465  36.032  28.564  13.507
33140W        W 5466  10.432  11.263  10.553
33141W        W 5467   6.656  16.069   1.113
33142W        W 5468   6.906  44.437  13.297
33143W        W 5469  10.116  37.364  13.487
33144W        W 5470  33.073  40.972   1.125
33145W        W 5471  26.479  44.315   1.267
33146W        W 5472  19.988  13.878   0.857
33147W        W 5473  35.184  35.863   3.657
33148W        W 5474   0.259  18.347   1.431
33149W        W 5475  43.310  27.479   0.097
33150W        W 5476   1.568   5.009   4.203
33151W        W 5477  21.976  38.952   5.458
33152W        W 5478   1.745   8.267  13.689
33153W        W 5479  18.569  15.546  12.451
33154W        W 5480  32.397   3.165  11.139
33155W        W 5481  36.469  26.189  10.994
33156W        W 5482   7.943  19.228   4.382
33157W        W 5483   4.428  25.105  12.156
33158W        W 5484  13.639   3.787  10.614
33159W        W 5485  14.231  20.789  13.991
33160W        W 5486   7.382  38.358   2.687
33161W        W 5487  35.512  38.047  14.904
33162W        W 5488   8.249   8.337   0.083
33163W        W 5489  30.535  27.564  11.448
33164W        W 5490  23.872  15.657   0.109
33165W        W 5491  29.014   0.356  11.183
33166W        W 5492  29.411  30.715   0.483
33167W        W 5493  30.537  16.217  10.655
33168W        W 5494  24.017  28.952   9.929
33169W        W 5495  26.773   8.811  11.963
33170W        W 5496  10.719  24.411   4.845
33171W        W 5497   5.356   2.430   3.195
33172W        W 5498  26.621  20.791   2.376
33173W        W 5499  35.485  22.213   3.920
33174W        W 5500  43.570  42.325   2.452
33175W        W 5501  12.788  25.254  11.161
33176W        W 5502  44.537  40.420  14.838
33177W        W 5503  14.372  40.333  11.629
33178W        W 5504  17.964   5.628  13.122
33179W        W 5505  37.012  13.353   2.408
33180W        W 5506  39.446   9.425   0.922
33181W        W 5507  23.321  28.301  12.915
33182W        W 5508  18.526  36.182   1.275
33183W        W 5509  25.438  34.421  13.315
33184W        W 5510  28.587  11.588  14.109
33185W        W 5511  21.295  44.851  14.813
33186W        W 5512  16.576  18.128   2.363
33187W        W 5513  27.960   9.430  12.039
33188W        W 5514  44.977   2.940   4.368
33189W        W 5515  26.150  11.913  11.974
33190W        W 5516  10.719  39.917   3.673
33191W        W 5517  43.959  15.585  12.799
33192W        W 5518  41.916  35.501   0.062
33193W        W 5519  16.836  18.221  12.861
33194W        W 5520  25.707  22.231  12.106
33195W        W 5521  28.483   3.434   5.065
33196W        W 5522  13.935  29.473   4.097
33197W        W 5523   9.055  32.515   4.661
33198W        W 5524   1.761  29.392  12.619
33199W        W 5525  10.324  27.300  14.735
33200W        W 5526  26.188   9.373   4.397
33201W        W 5527  20.214   3.750   1.326
33202W        W 5528  25.971  41.561  14.502
33203W        W 5529   0.444  10.715   5.105
33204W        W 5530  43.713  36.071  13.907
33205W        W 5531  33.002   8.736   4.285
33206W        W 5532  11.681  25.495   1.249
33207W        W 5533   3.739  33.845   4.265
33208W        W 5534  14.776   6.747   1.818
33209W        W 5535  34.931  11.460   5.079
33210W        W 5536  25.860  20.059   3.235
33211W        W 5537  24.711  21.167  14.011
33212W        W 5538  32.471   5.269  13.106
33213W        W 5539  23.688  39.775  11.211
33214W        W 5540  12.230  21.678   0.022
33215W        W 5541   7.652  41.453   1.417
33216W        W 5542  39.349   2.473   0.069
33217W        W 5543   3.875  36.810  12.419
33218W        W 5544   8.947   2.194   1.645
33219W        W 5545  21.129   3.779  14.983
33220W        W 5546  27.623  39.083   4.078
33221W        W 5547  39.073  18.190  12.054
33222W        W 5548  43.444   1.468  12.897
33223W        W 5549  26.203  21.278   5.333
33224W        W 5550   9.320  44.204  11.100
33225W        W 5551  14.026   4.360   0.223
33226W        W 5552   0.831   5.696   4.244
33227W        W 5553   0.689  44.398  11.563
33228W        W 5554   6.880   4.923   1.273
33229W        W 5555  17.178  13.332  12.952
33230W        W 5556  20.539  21.220  14.484
33231W        W 5557  27.099   9.637  12.952
33232W        W 5558   7.706  18.267   3.383
33233W        W 5559  40.810   6.248   2.371
33234W        W 5560  13.381   4.306   2.823
33235W        W 5561  32.163   0.527   1.342
33236W        W 5562  42.304   7.324   2.575
33237W        W 5563   6.145  27.504   2.850
33238W        W 5564  11.102   7.713  10.378
33239W        W 5565  33.515  34.781   1.302
33240W        W 5566  23.732  18.187  10.218
33241W        W 5567  27.475  17.335   2.344
33242W        W 5568  10.152   9.675   1.750
33243W        W 5569  22.472  16.681   0.823
33244W        W 5570  32.390  12.097   2.885
33245W        W 5571  29.445  23.387   0.697
33246W        W 5572  41.521  33.221  14.456
33247W        W 5573  26.952  14.539   1.257
33248W        W 5574   8.568  40.041  13.079
33249W        W 5575  33.308  28.525  14.961
33250W        W 5576  40.470  27.797  12.299
33251W        W 5577  12.399  30.631  13.052
33252W        W 5578  32.468  17.496   3.224
33253W        W 5579  36.541   0.293  14.290
33254W        W 5580  13.502  22.561  14.378
33255W        W 5581   0.518  39.977  13.119
33256W        W 5582  17.915  34.754   4.180
33257W        W 5583  13.925  36.918  10.514
33258W        W 5584  31.023  10.893  12.336
33259W        W 5585  18.132   1.761  10.585
33260W        W 5586   7.407  16.105  14.246
33261W        W 5587  10.355  44.143   5.155
33262W        W 5588  19.662  13.557   2.906
33263W        W 5589  28.049  19.625   0.832
33264W        W 5590  35.018   5.457  11.543
33265W        W 5591  29.826  16.186  11.184
33266W        W 5592  38.408  12.101   1.417
33267W        W 5593  17.031  39.053   2.717
33268W        W 5594  10.076   3.396  11.590
33269W        W 5595  41.617   9.118   3.882
33270W        W 5596   2.971  25.549  11.622
33271W        W 5597   1.896  14.339   0.516
33272W        W 5598  16.251  16.024  12.026
33273W        W 5599  15.294  32.681  13.845
33274W        W 5600   1.758  42.916  12.187
33275W        W 5601  41.255  34.945  14.000
33276W        W 5602  20.673  44.476  12.428
33277W        W 5603  31.739  35.451  13.995
33278W        W 5604  39.424  27.659  13.512
33279W        W 5605  26.422   7.523   3.673
33280W        W 5606   1.229  16.217   1.310
33281W        W 5607  25.139  17.722   0.393
33282W        W 5608  13.591  22.787  12.148
33283W        W 5609   6.556  13.773  13.329
33284W        W 5610  43.659  12.584  12.360
33285W        W 5611  38.905  41.434  11.160
33286W        W 5612  32.289  15.481  13.945
33287W        W 5613  20.125  25.563   1.113
33288W        W 5614   3.498  26.848  12.156
33289W        W 5615  30.302  43.547  10.995
33290W        W 5616  17.533  24.958  11.241
33291W        W 5617  37.762  10.371   3.445
33292W        W 5618  11.568  38.999  12.617
33293W        W 5619  14.846   0.660  14.707
33294W        W 5620   6.376  13.948   1.044
33295W        W 5621  17.062  23.066  14.279
33296W        W 5622   3.470  31.132  11.438
33297W        W 5623  36.468   2.464   2.761
33298W        W 5624  43.174  28.110   2.097
33299W        W 5625  24.465  36.996  13.734
33300W        W 5626  42.755  30.963  11.703
33301W        W 5627  20.140  27.620  13.882
33302W        W 5628  44.849   5.912  10.723
33303W        W 5629  40.083   8.191  14.525
33304W        W 5630  44.274  18.887   1.896
33305W        W 5631   6.583  35.536  12.421
33306W        W 5632  42.264  17.636   4.247
33307W        W 5633  20.669  12.777   3.594
33308W        W 5634   5.374   2.349  14.292
33309W        W 5635  13.207   6.882   1.243
33310W        W 5636   5.679  17.549   1.875
33311W        W 5637  35.133  32.921  13.352
33312W        W 5638  31.623  14.093  10.697
33313W        W 5639   8.238  11.872   1.375
33314W        W 5640  24.843  21.582   1.919
33315W        W 5641  20.724   4.517  12.387
33316W        W 5642  41.017  37.028  13.800
33317W        W 5643   2.667  14.413  12.334
33318W        W 5644  40.098  25.182  13.037
33319W        W 5645  21.362  36.931  11.810
33320W        W 5646  23.581  12.161   0.749
33321W        W 5647  26.880  35.500   4.593
33322W        W 5648  30.193  18.981  13.025
33323W        W 5649  16.063  30.139   1.028
33324W        W 5650   4.637  43.013   2.167
33325W        W 5651  24.666  36.229  12.137
33326W        W 5652  19.357  10.294   3.267
33327W        W 5653  28.102   1.950   3.101
33328W        W 5654  18.660  28.731   2.369
33329W        W 5655  23.537   0.478  13.044
33330W        W 5656  42.631  21.625  12.099
33331W        W 5657  37.657  38.053  14.479
33332W        W 5658   8.781  39.361   0.868
33333W        W 5659  31.903   1.292  14.879
33334W        W 5660   2.976   4.239  11.972
33335W        W 5661  35.848  36.132  10.458
33336W        W 5662  14.293  22.800   1.549
33337W        W 5663  44.404  36.725  10.566
33338W        W 5664  18.544  27.898  10.933
33339W        W 5665  30.110  21.671  11.456
33340W        W 5666  34.941  40.306  14.458
33341W        W 5667  38.555  31.560  11.605
33342W        W 5668  43.420  14.068  11.846
33343W        W 5669  42.526   9.697   2.713
33344W        W 5670  25.248  18.972  13.794
33345W        W 5671  41.843  32.595   4.249
33346W        W 5672  43.530   9.267  13.425
33347W        W 5673  23.354  29.178   3.251
33348W        W 5674  17.821   9.740   0.499
33349W        W 5675  42.652  14.301   4.691
33350W        W 5676  17.958  32.445   4.578
33351W        W 5677  17.155  22.497  12.471
33352W        W 5678   8.123   5.289  13.999
33353W        W 5679   1.503   5.242   1.595
33354W        W 5680  36.129  33.496  13.932
33355W        W 5681  37.101   7.209   4.162
33356W        W 5682  27.637  13.071  12.464
33357W        W 5683  32.728  43.049   4.114
33358W        W 5684   1.558  15.643  14.414
33359W        W 5685  17.359  29.397  14.203
33360W        W 5686   4.233  14.604   4.609
33361W        W 5687  28.832  25.038  13.654
33362W        W 5688  24.466   1.446   0.814
33363W        W 5689  12.140  20.647   2.385
33364W        W 5690  32.195  17.483  12.951
33365W        W 5691  14.696  26.555   3.804
33366W        W 5692  38.428  13.883   3.928
33367W        W 5693  23.482  13.269   4.430
33368W        W 5694  21.256  33.431  11.805
33369W        W 5695  33.639  40.875   0.846
33370W        W 5696  16.365  31.088  13.956
33371W        W 5697  25.451  33.802  14.374
33372W        W 5698   1.860  25.059   3.277
33373W        W 5699  24.499  40.252   2.253
33374W        W 5700  41.859  19.913  11.015
33375W        W 5701  14.817  19.753  13.340
33376W        W 5702  15.333  21.108  11.483
33377W        W 5703  39.837  38.964  12.070
33378W        W 5704  17.513  36.904  12.626
33379W        W 5705  27.623  22.098  12.330
33380W        W 5706  20.362  19.515   0.298
33381W        W 5707  18.184   4.911   3.808
33382W        W 5708  44.915  15.725  14.099
33383W        W 5709  23.135  44.424  10.146
33384W        W 5710  10.222  33.160  12.013
33385W        W 5711   1.246  10.666   2.140
33386W        W 5712  23.180  32.556  10.718
33387W        W 5713   3.832  30.233   4.176
33388W        W 5714  28.650   1.165   2.219
33389W        W 5715  14.872   6.300  11.612
33390W        W 5716   0.005  12.661  12.217
33391W        W 5717  38.208  24.035   1.591
33392W        W 5718  28.371  15.090  10.445
33393W        W 5719  12.793  28.395   1.880
33394W        W 5720  26.079   0.514   0.856
33395W        W 5721  23.286   1.094   4.932
33396W        W 5722  24.672   6.864  14.234
33397W        W 5723  37.165  25.204   0.864
33398W        W 5724   2.009  42.279   4.269
33399W        W 5725  37.624   7.182   4.171
33400W        W 5726   3.381   1.840   0.467
33401W        W 5727  32.065   2.853  10.879
33402W        W 5728   6.762   8.046   0.882
33403W        W 5729  17.026   7.240   2.970
33404W        W 5730  31.842  19.538  14.011
33405W        W 5731  43.001   0.715  14.672
33406W        W 5732  14.733   2.558  11.482
33407W        W 5733   0.300  44.259   2.707
33408W        W 5734  24.951  24.327  11.976
33409W        W 5735   6.251  28.009  10.427
33410W        W 5736  18.766  36.654   3.298
33411W        W 5737  32.025  27.877   1.784
33412W        W 5738  32.999  38.897  13.491
33413W        W 5739   6.261   1.439   0.904
33414W        W 5740  20.574  10.209   3.031
33415W        W 5741  15.611  21.485  12.344
33416W        W 5742  31.409  27.490  14.523
33417W        W 5743   2.683   1.236  14.536
33418W        W 5744  13.781  25.503   0.765
33419W        W 5745  12.088  20.688  11.595
33420W        W 5746  25.437  34.963   1.297
33421W        W 5747  21.450  12.151   4.057
33422W        W 5748  31.053  42.416  14.402
33423W        W 5749  35.433   6.382   0.344
33424W        W 5750   0.169   3.542   2.565
33425W        W 5751   1.336  25.216  12.551
33426W        W 5752  24.045  23.049   4.405
33427W        W 5753  22.310   7.423  13.343
33428W        W 5754  21.219  13.907  12.073
33429W        W 5755  39.452   0.225   3.763
33430W        W 5756   5.888  35.506  13.723
33431W        W 5757   7.253  14.315  11.202
33432W        W 5758  29.891  31.007   0.523
33433W        W 5759   3.720   3.517   5.071
33434W        W 5760  32.978   2.370   3.781
33435W        W 5761  32.194  23.242   3.673
33436W        W 5762  23.198  29.408  12.710
33437W        W 5763  19.776  15.200   0.094
33438W        W 5764  15.052  39.363  12.933
33439W        W 5765  28.394  41.342  12.635
33440W        W 5766   3.882  19.171   4.704
33441W        W 5767  33.212   7.789   2.741
33442W        W 5768   2.800  43.342  14.823
33443W        W 5769  20.528  28.173   4.320
33444W        W 5770  19.971  31.166   0.627
33445W        W 5771  30.652  31.601   4.655
33446W        W 5772  14.287  11.304  10.773
33447W        W 5773  24.598  38.489   4.096
33448W        W 5774   5.909  17.759   2.293
33449W        W 5775  12.641  15.761  10.542
33450W        W 5776   4.400  21.591   3.900
33451W        W 5777   1.825  40.254  14.572
33452W        W 5778  42.056   5.938  13.404
33453W        W 5779  18.633   5.710   2.881
33454W        W 5780   2.736  21.841   0.464
33455W        W 5781  42.608  16.295   4.193
33456W        W 5782   1.868   0.793  13.578
33457W        W 5783  41.810   3.882  11.033
33458W        W 5784  18.277   3.700  12.993
33459W        W 5785   1.470  12.645  11.452
33460W        W 5786   3.260  17.164  11.832
33461W        W 5787  36.883  20.553   3.297
33462W        W 5788  44.812   4.437   0.443
33463W        W 5789  38.246   7.673   3.646
33464W        W 5790  44.239  13.680   0.025
33465W        W 5791  23.953  23.188   1.570
33466W        W 5792  25.852  35.260  10.988
33467W        W 5793  19.508   4.287   1.184
33468W        W 5794   2.834  35.670  13.527
33469W        W 5795  33.144  42.404   3.262
33470W        W 5796  35.007  36.983  10.462
33471W        W 5797  43.937  41.000  10.908
33472W        W 5798  11.318  12.852  10.720
33473W        W 5799   7.389  18.082  13.966
33474W        W 5800  31.497  25.244   1.351
33475W        W 5801   0.357  20.927   4.575
33476W        W 5802  32.409  38.880   9.730
33477W        W 5803   9.352  42.303   4.084
33478W        W 5804  38.302  12.866   9.814
33479W        W 5805  22.997   0.842   0.331
33480W        W 5806  44.910  12.070   0.454
33481W        W 5807  30.367  14.624   0.961
33482W        W 5808  16.079  21.299  12.363
33483W        W 5809  42.945  44.256   2.651
33484W        W 5810  24.700   7.272   0.869
33485W        W 5811  25.287  28.312  12.432
33486W        W 5812  32.626  29.067   3.493
33487W        W 5813  36.047   5.873   1.891
33488W        W 5814  37.680   6.857   4.580
33489W        W 5815  30.006  30.177   2.003
33490W        W 5816  30.289  13.625  14.772
33491W        W 5817  32.510  10.609   1.754
33492W        W 5818   5.249  18.783   0.395
33493W        W 5819  25.006  20.229   3.239
33494W        W 5820  27.790   8.354  11.620
33495W        W 5821   4.013  20.440  11.029
33496W        W 5822   0.462   6.196  11.968
33497W        W 5823   2.168  35.083  12.601
33498W        W 5824  35.235  11.898  12.543
33499W        W 5825   7.362  38.045   1.193
33500W        W 5826  43.236  34.104   0.740
33501W        W 5827  31.072  32.388   4.692
33502W        W 5828  25.519   1.497  10.407
33503W        W 5829  15.251  25.247   0.147
33504W        W 5830   7.519  36.115   0.818
33505W        W 5831  37.886  29.750  11.331
33506W        W 5832  22.708  33.374   2.417
33507W        W 5833  31.597   9.939   0.334
33508W        W 5834   0.224  21.436  14.868
33509W        W 5835   3.558  35.998   4.480
33510W        W 5836  15.934   7.259  14.337
33511W        W 5837  36.056  40.354  12.034
33512W        W 5838  27.946   9.619   1.859
33513W        W 5839  43.215  11.877   5.074
33514W        W 5840   7.757  15.387  13.151
33515W        W 5841  22.966   8.822   3.191
33516W        W 5842  11.174   2.186  11.577
33517W        W 5843  13.618  31.208   4.187
33518W        W 5844   2.707   1.668  14.233
33519W        W 5845  30.662  44.484   2.756
33520W        W 5846   3.193  25.999   2.838
33521W        W 5847  34.270  41.500   4.155
33522W        W 5848   9.653   1.731  12.987
33523W        W 5849  32.538  11.143  13.968
33524W        W 5850   4.699  26.058   3.643
33525W        W 5851  37.539  42.399  12.080
33526W        W 5852  40.022   0.049   3.856
33527W        W 5853  42.470  11.906   0.037
33528W        W 5854  44.682  29.588  11.443
33529W        W 5855   8.888   3.843  12.846
33530W        W 5856  33.471  27.217   1.699
33531W        W 5857   5.489   2.547   3.683
33532W        W 5858  18.976  21.935  11.656
33533W        W 5859  13.649   7.954   1.779
33534W        W 5860  28.237   2.945  12.441
33535W        W 5861   8.885   6.734   2.196
33536W        W 5862   4.451  24.727  12.515
33537W        W 5863  40.047   7.244  13.451
33538W        W 5864  39.827   8.655   0.687
33539W        W 5865  29.129  33.935  13.428
33540W        W 5866  34.919  36.325   3.613
33541W        W 5867   8.640  29.600  10.915
33542W        W 5868  37.624  26.902   1.895
33543W        W 5869  19.238   5.762  10.928
33544W        W 5870  40.772  18.781   4.874
33545W        W 5871  25.516  36.471  14.632
33546W        W 5872  12.174  35.100  13.134
33547W        W 5873  18.583  24.953  10.592
33548W        W 5874  29.985  42.907  10.705
33549W        W 5875   7.685  31.677  11.948
33550W        W 5876  35.429  29.711  14.893
33551W        W 5877  43.868  17.383   3.372
33552W        W 5878  13.539  19.216  14.330
33553W        W 5879  35.541  28.098   4.726
33554W        W 5880   2.650  24.654  12.974
33555W        W 5881  22.004   5.889   2.606
33556W        W 5882  24.867  18.815   5.032
33557W        W 5883  19.902  39.594  12.511
33558W        W 5884  28.883  12.806   0.672
33559W        W 5885   0.451   8.787   4.626
33560W        W 5886  10.190  42.328  10.693
33561W        W 5887   0.045  17.030  11.150
33562W        W 5888  24.608  29.020   0.185
33563W        W 5889  36.104  29.063   2.834
33564W        W 5890  11.075  40.289   0.636
33565W        W 5891  31.656  21.130   3.822
33566W        W 5892   6.577  32.551  12.111
33567W        W 5893  22.594  18.611  12.315
33568W        W 5894  24.471   8.318   4.687
33569W        W 5895  15.639  44.845   1.912
33570W        W 5896  36.866  39.071   0.878
33571W        W 5897   6.525  37.021   2.759
33572W        W 5898  40.575  23.750  14.354
33573W        W 5899  21.939  18.112  12.225
33574W        W 5900   0.649  27.021   2.672
33575W        W 5901   7.459  21.041  12.486
33576W        W 5902  14.781  34.501   2.828
33577W        W 5903   1.553   6.635  13.203
33578W        W 5904  18.441   1.763  12.188
33579W        W 5905  27.140  33.534   0.666
33580W        W 5906  29.173  18.255   0.427
33581W        W 5907  17.542   6.903  13.808
33582W        W 5908  41.797   2.993   2.061
33583W        W 5909  39.554  37.836  12.957
33584W        W 5910  34.290   0.891  11.607
33585W        W 5911   1.551  36.530  12.487
33586W        W 5912  12.663  17.238   2.817
33587W        W 5913  25.514  26.631   5.021
33588W        W 5914  12.226  26.461  14.721
33589W        W 5915  33.726  23.790   1.869
33590W        W 5916   6.163  39.556  11.152
33591W        W 5917   9.610  13.588   0.284
33592W        W 5918  38.423  26.693  14.814
33593W        W 5919  11.712  10.782  13.787
33594W        W 5920  25.203   4.727   2.827
33595W        W 5921  20.932  21.012  14.747
33596W        W 5922   8.357   9.098  12.914
33597W        W 5923  23.976  31.157  14.465
33598W        W 5924  23.275   7.975   0.487
33599W        W 5925  19.684   7.296  12.231
33600W        W 5926  43.322  34.762  11.745
33601W        W 5927  19.529  23.410   4.142
33602W        W 5928  18.248  42.576  13.959
33603W        W 5929  25.252  20.749  13.369
33604W        W 5930  21.194  41.037   1.305
33605W        W 5931  26.506  21.463   3.100
33606W        W 5932  16.158   7.886   3.295
33607W        W 5933  40.050  24.222  10.796
33608W        W 5934  14.254  16.886  13.520
33609W        W 5935  27.563  11.248   2.740
33610W        W 5936  37.030   2.715   1.910
33611W        W 5937  41.528  32.075  13.419
33612W        W 5938   8.767  30.589  12.983
33613W        W 5939  16.117  17.156   3.720
33614W        W 5940  15.629  24.732  10.703
33615W        W 5941  13.705  24.426  10.637
33616W        W 5942   1.972  10.064  14.063
33617W        W 5943  30.853  28.033  11.715
33618W        W 5944  22.735  17.136   2.708
33619W        W 5945  28.880  12.066   1.997
33620W        W 5946   8.076  16.087  12.486
33621W        W 5947  31.481   7.936   1.877
33622W        W 5948  33.006   5.137   1.690
33623W        W 5949  31.062  38.833  11.552
33624W        W 5950   5.917   5.085   4.594
33625W        W 5951  31.565  34.990  13.608
33626W        W 5952   8.775   5.656   1.393
33627W        W 5953  23.201  44.563  11.940
33628W        W 5954  15.835   5.028   2.262
33629W        W 5955   9.272  25.660  14.979
33630W        W 5956   9.831   0.467  14.743
33631W        W 5957  17.486  15.458  11.960
33632W        W 5958  43.969  41.250  13.737
33633W        W 5959  37.795  39.435  14.871
33634W        W 5960  37.081   2.622   3.226
33635W        W 5961  23.976  25.630   2.367
33636W        W 5962   0.435  44.706   1.630
33637W        W 5963   9.365  11.123  13.915
33638W        W 5964  11.547  18.779   3.402
33639W        W 5965  11.368  27.713   2.733
33640W        W 5966  38.151   7.508  13.057
33641W        W 5967  14.226   0.826  11.727
33642W        W 5968  30.503  44.422  13.862
33643W        W 5969   5.688   5.873   2.723
33644W        W 5970   2.692  38.997   2.720
33645W        W 5971  27.973  18.044   4.849
33646W        W 5972   8.669  31.396   2.858
33647W        W 5973  30.020  10.855   1.359
33648W        W 5974  42.950  32.616  11.914
33649W        W 5975  17.245  11.336  11.077
33650W        W 5976  12.142   5.026  13.105
33651W        W 5977  43.064  39.088  11.245
33652W        W 5978  18.196   8.818  14.505
33653W        W 5979  10.979   5.422   2.436
33654W        W 5980  26.605   1.842  14.363
33655W        W 5981   9.767  40.989   2.866
33656W        W 5982  25.752  34.117  14.058
33657W        W 5983  11.665  19.134   1.353
33658W        W 5984   3.286   5.444   2.141
33659W        W 5985  17.190  18.228   4.527
33660W        W 5986  28.036   6.683  12.551
33661W        W 5987  14.137  11.774  11.525
33662W        W 5988  33.508  16.289  11.964
33663W        W 5989  16.655  27.294  12.021
33664W        W 5990  43.255  29.166   4.250
33665W        W 5991  42.345  23.106  12.116
33666W        W 5992  21.518  16.698   4.593
33667W        W 5993  32.345  15.890  14.881
33668W        W 5994  43.477  24.580  14.271
33669W        W 5995  39.072   4.738   0.308
33670W        W 5996  10.255  29.995  10.979
33671W        W 5997  32.419  17.485   2.316
33672W        W 5998  22.238  10.132   1.266
33673W        W 5999  26.938   3.419  14.901
33674W        W 6000   8.683   0.571  11.612
33675W        W 6001  29.525   3.963   3.600
33676W        W 6002  13.316  38.300  14.680
33677W        W 6003  38.713   5.219  12.081
33678W        W 6004  18.577   7.894  12.955
33679W        W 6005  34.618   7.996  11.029
33680W        W 6006  35.436  37.810   2.317
33681W        W 6007  26.913  27.161  12.972
33682W        W 6008  17.283  11.664   0.869
33683W        W 6009  40.326  13.085   2.135
33684W        W 6010  20.057  33.448   0.024
33685W        W 6011  33.959  33.945  11.578
33686W        W 6012  16.691   9.286  13.870
33687W        W 6013  43.060   1.634  13.504
33688W        W 6014   7.771  23.578  12.618
33689W        W 6015   8.361  13.787   3.577
33690W        W 6016   6.698   1.983   4.046
33691W        W 6017  40.388  40.931  14.690
33692W        W 6018  12.396  28.311  12.938
33693W        W 6019  15.907  32.279  13.098
33694W        W 6020   2.011  43.770   1.842
33695W        W 6021   1.419  14.244   0.306
33696W        W 6022  30.717  35.577  11.576
33697W        W 6023  31.197  26.528   0.775
33698W        W 6024  10.233  30.891   1.316
33699W        W 6025  18.603   9.717   4.542
33700W        W 6026   3.901  12.275  11.049
33701W        W 6027  13.861   5.754   0.867
33702W        W 6028   4.778  14.373  14.439
33703W        W 6029  21.869  40.002   1.373
33704W        W 6030   1.354   4.152   1.386
33705W        W 6031  17.915   1.804  12.145
33706W        W 6032  24.552  28.070  11.623
33707W        W 6033  26.495  28.004  11.580
33708W        W 6034  43.353  17.292   4.673
33709W        W 6035  25.970   0.808  10.746
33710W        W 6036   3.765  22.947   5.532
33711W        W 6037   8.679  15.115  14.566
33712W        W 6038  19.679  17.214  13.118
33713W        W 6039   9.431  15.873  12.207
33714W        W 6040  29.210  33.933  11.092
33715W        W 6041   3.848   3.686  11.254
33716W        W 6042  23.291  36.044  11.217
33717W        W 6043  33.445  25.170  11.068
33718W        W 6044  22.410  22.473   4.649
33719W        W 6045   6.637   5.712  13.564
33720W        W 6046   6.368   6.543  11.643
33721W        W 6047   7.961  32.249  11.853
33722W        W 6048  43.778  39.335   4.121
33723W        W 6049   3.510   5.844  11.901
33724W        W 6050  23.078  36.529   2.372
33725W        W 6051  36.345  34.467   1.307
33726W        W 6052  32.629  26.146   4.623
33727W        W 6053  38.615   2.766  14.497
33728W        W 6054  14.481  36.626   4.988
33729W        W 6055  28.765   4.230  10.855
33730W        W 6056  28.517  15.826  14.487
33731W        W 6057   9.230  11.703   1.253
33732W        W 6058   1.861  41.869   1.040
33733W        W 6059  34.585   2.174   3.503
33734W        W 6060  12.145  16.674  10.664
33735W        W 6061  10.850  18.664   1.736
33736W        W 6062  29.336  12.835  10.807
33737W        W 6063  44.024  41.933   1.363
33738W        W 6064  17.760  41.919  14.464
33739W        W 6065  27.822  43.089   1.383
33740W        W 6066  33.452  34.603   2.791
33741W        W 6067   2.903  43.521   2.122
33742W        W 6068  12.681  31.816  12.920
33743W        W 6069  43.536  27.741   2.828
33744W        W 6070   4.291  31.976  12.403
33745W        W 6071  42.040   8.902   4.263
33746W        W 6072  17.346   2.656  14.946
33747W        W 6073  28.498  39.291  11.504
33748W        W 6074  33.088   0.305  11.555
33749W        W 6075  33.576  22.938   4.775
33750W        W 6076  13.874  41.370  13.472
33751W        W 6077  20.836  38.779  10.253
33752W        W 6078   9.240   7.332   4.207
33753W        W 6079  20.083  13.424  12.916
33754W        W 6080  16.704  31.187   0.203
33755W        W 6081  11.372  25.089  10.501
33756W        W 6082  35.339   5.885   0.076
33757W        W 6083  12.807  30.968  13.735
33758W        W 6084   1.015  10.385  13.323
33759W        W 6085  34.860  13.692   2.832
33760W        W 6086  40.506  13.231   2.705
33761W        W 6087  35.559   7.970   0.254
33762W        W 6088  42.809  25.701   0.282
33763W        W 6089  10.386  16.976   1.381
33764W        W 6090  11.705  17.797   4.621
33765W        W 6091  20.570  37.545  11.559
33766W        W 6092  19.530  12.839  11.176
33767W        W 6093   5.240  35.383   0.535
33768W        W 6094  34.472  27.736   2.962
33769W        W 6095  18.594  15.029  12.350
33770W        W 6096   1.249  19.266  14.760
33771W        W 6097  11.380  13.838  14.670
33772W        W 6098  15.148  22.943  14.842
33773W        W 6099   9.491  10.175   2.483
33774W        W 6100   8.836  13.270   3.875
33775W        W 6101  36.108  44.067  13.818
33776W        W 6102  22.637  22.933   2.343
33777W        W 6103  32.158  19.612  12.451
33778W        W 6104  24.588  30.488  14.937
33779W        W 6105   8.010  44.865   1.838
33780W        W 6106  20.497  23.539  12.031
33781W        W 6107  17.256  34.519   1.692
33782W        W 6108   6.984  36.771  14.911
33783W        W 6109  29.121  19.989  14.846
33784W        W 6110  26.411   5.304   0.831
33785W        W 6111   8.178  12.349  14.943
33786W        W 6112  35.248  17.171  11.640
33787W        W 6113  21.652  16.119  13.478
33788W        W 6114  10.799   8.313  13.800
33789W        W 6115  32.777  30.948   2.654
33790W        W 6116   6.649  16.286   0.351
33791W        W 6117  13.237  31.009  12.814
33792W        W 6118  35.548  11.781  13.922
33793W        W 6119  26.125  20.040  12.561
33794W        W 6120  40.543  36.450   0.563
33795W        W 6121  23.086  29.951  13.448
33796W        W 6122  32.086  38.369  12.483
33797W        W 6123  10.305  33.601   4.116
33798W        W 6124  23.207  33.510   2.407
33799W        W 6125  29.069  19.144   3.044
33800W        W 6126  17.335  26.577   1.759
33801W        W 6127  25.201  15.873  12.033
33802W        W 6128  26.939   1.225   2.399
33803W        W 6129  43.032   2.684   0.757
33804W        W 6130   1.343   1.581   0.841
33805W        W 6131   8.895   7.259   2.767
33806W        W 6132   5.252  20.179  12.744
33807W        W 6133   2.285  25.391  11.319
33808W        W 6134  39.284  42.459   0.947
33809W        W 6135  31.593  18.989  14.020
33810W        W 6136   3.862  38.900  12.620
33811W        W 6137   3.934  44.890  12.068
33812W        W 6138  13.056  32.168   2.277
33813W        W 6139  35.574  30.147  13.892
33814W        W 6140  35.464   9.971   3.321
33815W        W 6141  22.296  28.496   0.180
33816W        W 6142  28.070   5.187   3.279
33817W        W 6143   4.001  11.818   4.621
33818W        W 6144  16.060  15.598   3.207
33819W        W 6145  10.281  23.229   1.762
33820W        W 6146  33.578  18.120  14.854
33821W        W 6147  38.807  19.706   4.240
33822W        W 6148  37.810   7.421   0.345
33823W        W 6149  16.492  11.300   3.666
33824W        W 6150  25.469  27.036  13.574
33825W        W 6151  37.073  41.544  11.317
33826W        W 6152  42.409  32.384  12.044
33827W        W 6153  24.289  20.827  12.364
33828W        W 6154  27.349  28.182  10.307
33829W        W 6155   3.891   2.019   1.825
33830W        W 6156   2.347   6.996  11.036
33831W        W 6157   4.475  43.060   1.249
33832W        W 6158  21.098  38.000   1.821
33833W        W 6159  13.498  28.677   1.448
33834W        W 6160  36.806  38.040   2.674
33835W        W 6161   8.671  36.770   2.390
33836W        W 6162  26.174  39.976   4.035
33837W        W 6163  24.167  38.562   2.847
33838W        W 6164  23.842  23.439   4.151
33839W        W 6165  12.339  14.825   3.815
33840W        W 6166  21.755  14.655   1.835
33841W        W 6167  28.411   7.713  14.424
33842W        W 6168  35.247  18.052  13.910
33843W        W 6169  18.513   0.447  10.823
33844W        W 6170  25.612  38.260  12.507
33845W        W 6171   6.347  10.624  14.878
33846W        W 6172  32.098  18.798   3.224
33847W        W 6173  13.816  22.594   1.417
33848W        W 6174  28.502   8.945  10.688
33849W        W 6175  22.128  25.675   2.177
33850W        W 6176  24.962  30.425  12.362
33851W        W 6177   1.378   9.456   5.002
33852W        W 6178  38.486   9.836   2.394
33853W        W 6179  10.177   0.927   3.373
33854W        W 6180  30.487  12.116  12.896
33855W        W 6181  25.364  37.082   3.072
33856W        W 6182   5.832  28.533   0.022
33857W        W 6183  12.235  40.714   1.200
33858W        W 6184  14.948  21.060   3.585
33859W        W 6185  27.670  37.907   3.587
33860W        W 6186   9.692  34.499  14.297
33861W        W 6187  15.279   5.879   2.341
33862W        W 6188  10.690  21.268  11.218
33863W        W 6189  20.696  21.735   0.258
33864W        W 6190   1.330  44.475   0.827
33865W        W 6191  37.720  36.508  13.419
33866W        W 6192  38.549   7.284   3.806
33867W        W 6193  18.526  15.102  13.400
33868W        W 6194   6.884  33.689  11.349
33869W        W 6195   5.123  19.177   2.266
33870W        W 6196   0.106  18.577  12.501
33871W        W 6197  21.841   0.812   4.946
33872W        W 6198  25.179  43.396   0.343
33873W        W 6199   0.737  39.044  12.037
33874W        W 6200   2.915   9.943  11.566
33875W        W 6201  25.470  23.609   3.198
33876W        W 6202  20.985   7.307   1.595
33877W        W 6203  39.437   0.387   3.245
33878W        W 6204  33.591  15.557   2.342
33879W        W 6205  42.764  26.235  10.643
33880W        W 6206  20.513  27.535   4.648
33881W        W 6207   4.234  14.057  11.275
33882W        W 6208   5.684  20.096   2.749
33883W        W 6209  27.265  28.166   2.811
33884W        W 6210  37.977  39.805  10.708
33885W        W 6211  13.270  15.158   1.720
33886W        W 6212  25.638  22.098   1.307
33887W        W 6213  30.022  29.467   1.132
33888W        W 6214  39.384  11.329  11.469
33889W        W 6215  44.171  18.968   4.587
33890W        W 6216  16.776  17.901  13.654
33891W        W 6217  21.698   1.670   1.885
33892W        W 6218  39.951  21.182  10.933
33893W        W 6219  10.668  22.158  14.426
33894W        W 6220  22.601   7.757  10.808
33895W        W 6221  26.496  39.096  11.428
33896W        W 6222  34.190  25.938  13.096
33897W        W 6223  19.707  18.722  11.637
33898W        W 6224  32.092  36.472   2.217
33899W        W 6225   8.211   3.405   4.558
33900W        W 6226  44.283   9.119   2.402
33901W        W 6227  16.611   2.469   3.823
33902W        W 6228   4.488   9.744  13.825
33903W        W 6229  36.771  27.969   2.360
33904W        W 6230  25.256  14.713   3.744
33905W        W 6231  29.026  33.034  10.829
33906W        W 6232  16.377  31.457   1.843
33907W        W 6233  28.722  31.889   4.293
33908W        W 6234   8.057   5.913   4.303
33909W        W 6235  42.463  23.634  14.721
33910W        W 6236   6.422   9.760   4.565
33911W        W 6237  23.744  44.000  12.250
33912W        W 6238   0.775  16.838  12.929
33913W        W 6239  16.914  39.752   2.243
33914W        W 6240  23.568  40.893   4.774
33915W        W 6241  26.889   6.195  11.504
33916W        W 6242  39.924  26.754  12.101
33917W        W 6243  24.287  32.882  11.074
33918W        W 6244  20.616  25.451  10.626
33919W        W 6245  21.599  29.668  11.077
33920W        W 6246  12.393  11.659  12.448
33921W        W 6247  18.906  10.827   3.180
33922W        W 6248   8.925  30.583   0.268
33923W        W 6249  12.205  38.546   2.641
33924W        W 6250  42.940  40.015  10.856
33925W        W 6251  16.118  20.114   3.304
33926W        W 6252  37.885  36.906  11.484
33927W        W 6253  38.869   6.493   1.353
33928W        W 6254  41.853  42.780   2.886
33929W        W 6255  28.909  24.035   0.627
33930W        W 6256   0.404   5.253  12.096
33931W        W 6257  37.466  17.171   4.680
33932W        W 6258   1.199   9.492  13.012
33933W        W 6259  26.377   4.469  10.656
33934W        W 6260  21.262  22.513   2.261
33935W        W 6261   0.040  35.615  10.888
33936W        W 6262  35.372  29.095  13.401
33937W        W 6263  19.935  26.929   0.421
33938W        W 6264   3.976  23.113   1.817
33939W        W 6265  38.436   1.683   3.215
33940W        W 6266   1.462   2.539   5.504
33941W        W 6267  34.467  43.510   4.388
33942W        W 6268  25.701  31.219  11.624
33943W        W 6269  19.233  23.346   1.990
33944W        W 6270  15.387  16.579   0.404
33945W        W 6271  25.031  15.645   1.276
33946W        W 6272  16.811  12.114   4.637
33947W        W 6273  10.195  20.657   3.235
33948W        W 6274   4.814  20.027   1.690
33949W        W 6275  29.308   1.774  14.499
33950W        W 6276  42.801  19.036  11.984
33951W        W 6277  30.969  10.870   3.811
33952W        W 6278  32.406  41.216  11.508
33953W        W 6279  21.991  13.355   0.713
33954W        W 6280  26.601   9.284  10.741
33955W        W 6281  41.098  29.117  11.927
33956W        W 6282   3.587  27.158  11.168
33957W        W 6283  14.249   8.785  12.777
33958W        W 6284  30.338   0.820   1.442
33959W        W 6285  10.153  39.498   4.224
33960W        W 6286  31.997   3.723   0.558
33961W        W 6287  26.373  40.079   0.869
33962W        W 6288   9.161   0.671  11.362
33963W        W 6289   1.079   3.977   5.439
33964W        W 6290  42.425   8.923  12.296
33965W        W 6291  14.168  30.029   3.375
33966W        W 6292  21.104  44.972   3.087
33967W        W 6293  29.807  27.238   0.441
33968W        W 6294  24.305  41.956   1.220
33969W        W 6295  35.416  27.999   1.448
33970W        W 6296  25.986  14.082  13.141
33971W        W 6297  14.381   9.073   0.775
33972W        W 6298  16.435  40.635   4.332
33973W        W 6299  42.089  36.479  12.077
33974W        W 6300  30.067  37.867  10.666
33975W        W 6301   2.660  39.338   2.280
33976W        W 6302   0.720  17.196   3.821
33977W        W 6303  26.437  33.838   2.117
33978W        W 6304  26.528  11.642   3.250
33979W        W 6305  44.821  14.609   1.286
33980W        W 6306   7.192   6.157  10.628
33981W        W 6307  44.759  29.082  10.308
33982W        W 6308  16.784  14.080  13.485
33983W        W 6309   3.831  43.769   0.140
33984W        W 6310  30.415  25.291  13.852
33985W        W 6311  15.340  31.037  10.985
33986W        W 6312  27.456  16.582   1.779
33987W        W 6313   9.754  43.001  14.472
33988W        W 6314  18.143  24.041  13.882
33989W        W 6315   1.376   1.439  12.166
33990W        W 6316  22.912   3.193  10.728
33991W        W 6317   9.345   9.282  13.492
33992W        W 6318  34.106  27.187   2.371
33993W        W 6319   7.661  21.465  12.768
33994W        W 6320  20.075  12.375  12.978
33995W        W 6321  35.106  10.333   0.009
33996W        W 6322  35.547  19.272  10.738
33997W        W 6323  37.020  28.839   3.001
33998W        W 6324  20.808  28.205  13.484
33999W        W 6325   1.300  36.415   4.618
34000W        W 6326  26.868  25.838   0.485
34001W        W 6327  15.645  44.691  12.956
34002W        W 6328  34.924  27.802  13.044
34003W        W 6329  20.686   6.658  14.278
34004W        W 6330  24.151   6.243   1.712
34005W        W 6331  30.360  20.608  12.013
34006W        W 6332   8.170  14.825   3.566
34007W        W 6333  27.205  42.877   4.214
34008W        W 6334  35.518  34.454   1.938
34009W        W 6335  31.667   0.991  12.889
34010W        W 6336  40.445   6.969  13.150
34011W        W 6337  17.708   8.812  10.325
34012W        W 6338  22.943  40.972   5.401
34013W        W 6339  10.173  17.317   1.721
34014W        W 6340   1.471  34.103  13.051
34015W        W 6341  38.819  21.304   5.098
34016W        W 6342  42.882  14.684  12.927
34017W        W 6343  14.786  24.468   3.709
34018W        W 6344  11.415  26.524   1.222
34019W        W 6345  10.180  14.012  11.496
34020W        W 6346  32.478  30.433   1.431
34021W        W 6347  11.390  44.208  13.593
34022W        W 6348  24.541  41.384   3.170
34023W        W 6349  28.705  41.880   3.676
34024W        W 6350  12.544  13.652  13.533
34025W        W 6351   7.877  20.716   2.432
34026W        W 6352   8.423  40.005   0.555
34027W        W 6353  38.041  31.291   0.206
34028W        W 6354   5.335  10.797   4.872
34029W        W 6355   4.535  22.558   2.263
34030W        W 6356  33.848   6.459  14.240
34031W        W 6357   8.854   5.949   4.063
34032W        W 6358  42.883  34.035  11.141
34033W        W 6359  20.442  24.904   5.200
34034W        W 6360   0.545  25.187  11.206
34035W        W 6361  44.932   0.936  12.270
34036W        W 6362  44.396  14.854   4.745
34037W        W 6363   7.167  25.856  10.977
34038W        W 6364   7.958  42.377  12.354
34039W        W 6365  23.589  34.876   1.803
34040W        W 6366  39.364  37.667   1.321
34041W        W 6367  15.045  34.046   3.347
34042W        W 6368  36.388  14.223  14.553
34043W        W 6369   2.648  38.944  14.808
34044W        W 6370  29.741  13.247  13.955
34045W        W 6371  36.061  22.966  12.048
34046W        W 6372  22.496   3.580   1.198
34047W        W 6373  38.583  28.424  12.962
34048W        W 6374  34.922  38.876  10.692
34049W        W 6375  21.203  18.802  13.922
34050W        W 6376  37.490  23.212   2.653
34051W        W 6377  15.813  13.648  11.502
34052W        W 6378   3.839  30.403  13.882
34053W        W 6379  41.433  34.602   0.796
34054W        W 6380  32.916  33.020  14.034
34055W        W 6381  19.442  24.310  14.831
34056W        W 6382  42.913  10.893   2.364
34057W        W 6383   9.709  40.824  13.498
34058W        W 6384  24.745  26.369  12.015
34059W        W 6385  17.078  27.092  13.816
34060W        W 6386  42.737  25.552  13.911
34061W        W 6387  16.219  40.037   1.417
34062W        W 6388  36.965  22.021   1.891
34063W        W 6389   9.688   1.049  10.504
34064W        W 6390  24.702  14.847  10.435
34065W        W 6391  42.535  25.668   1.254
34066W        W 6392   3.418  36.770  12.125
34067W        W 6393  27.997   8.836  11.474
34068W        W 6394   5.152  16.816   4.071
34069W        W 6395  10.459  32.452  13.492
34070W        W 6396  35.358  31.575  12.479
34071W        W 6397  14.090  38.468  14.189
34072W        W 6398  41.266  21.242   2.695
34073W        W 6399  44.716  37.854   3.595
34074W        W 6400   4.248  14.778  10.634
34075W        W 6401   4.951  32.885  13.430
34076W        W 6402   2.870  43.469  11.429
34077W        W 6403   1.551   1.243  13.701
34078W        W 6404  22.889   5.313  12.071
34079W        W 6405  12.511  40.368   4.461
34080W        W 6406   5.367   4.202   0.199
34081W        W 6407   4.908  15.765  12.360
34082W        W 6408  17.265  30.619   0.498
34083W        W 6409  16.466  43.009  11.084
34084W        W 6410  39.149  17.030   9.977
34085W        W 6411   0.228  25.549  13.556
34086W        W 6412  39.481   6.765  14.129
34087W        W 6413   0.377  26.636   1.394
34088W        W 6414  44.536  24.649   4.720
34089W        W 6415  11.840  44.972   2.896
34090W        W 6416   3.218  12.603  14.819
34091W        W 6417   9.365  20.225   1.110
34092W        W 6418  10.888  17.156   2.890
34093W        W 6419  30.520  24.633   0.043
34094W        W 6420  13.610  42.290  12.100
34095W        W 6421   2.085   8.889  14.496
34096W        W 6422  39.514   2.940   1.291
34097W        W 6423   3.163   4.751   1.710
34098W        W 6424  17.208  11.336  12.102
34099W        W 6425  31.872  10.238  11.137
34100W        W 6426  31.066  24.615  11.410
34101W        W 6427   0.916  28.140   1.029
34102W        W 6428  34.439  12.803  12.154
34103W        W 6429  16.765  25.564   0.246
34104W        W 6430  20.161   7.490  11.951
34105W        W 6431  34.516  25.503  14.925
34106W        W 6432  40.365  19.231  11.151
34107W        W 6433  13.828  22.965  14.419
34108W        W 6434  13.664  18.856   1.885
34109W        W 6435  15.050   3.060  13.944
34110W        W 6436   1.548  42.429  13.865
34111W        W 6437   2.478   4.312   3.174
34112W        W 6438  10.416  43.353  13.005
34113W        W 6439  20.919  21.934  12.540
34114W        W 6440  10.158  41.537  11.696
34115W        W 6441   4.946  22.545  10.553
34116W        W 6442  16.027  22.568  11.601
34117W        W 6443  41.051  44.403   2.029
34118W        W 6444  40.757  34.910  11.654
34119W        W 6445   6.900  26.217   2.668
34120W        W 6446  24.674  19.548  14.424
34121W        W 6447   7.636  22.611   0.674
34122W        W 6448  31.944  31.596   0.145
34123W        W 6449  18.253   6.223   2.301
34124W        W 6450   2.016   0.740  11.467
34125W        W 6451   5.351  39.333   1.196
34126W        W 6452  42.612  26.993   4.155
34127W        W 6453  22.302  32.675   0.985
34128W        W 6454  22.935  39.302  10.780
34129W        W 6455  44.395  20.779   0.946
34130W        W 6456   4.886  29.008  13.009
34131W        W 6457  17.277   0.783   3.728
34132W        W 6458  39.128  21.284  13.963
34133W        W 6459   6.258  34.045   0.672
34134W        W 6460  14.260  18.253  13.068
34135W        W 6461  36.903  25.063   3.362
34136W        W 6462  17.589  43.299  11.609
34137W        W 6463  33.417  12.551   1.125
34138W        W 6464  39.483   4.799  13.911
34139W        W 6465  15.249   1.229   3.228
34140W        W 6466  39.409  15.081   2.396
34141W        W 6467  32.045  18.562  14.751
34142W        W 6468   0.794  15.478  13.138
34143W        W 6469  36.667  36.303  10.656
34144W        W 6470  43.392  22.531   4.609
34145W        W 6471  36.009  44.335   2.427
34146W        W 6472  14.535  29.943  13.337
34147W        W 6473  22.668   7.490   2.473
34148W        W 6474  28.782  16.518   3.275
34149W        W 6475  22.306  41.590  11.155
34150W        W 6476  17.666   5.946  12.781
34151W        W 6477  14.946  36.448  13.409
34152W        W 6478  15.573   4.890   0.947
34153W        W 6479  25.756  43.335  13.933
34154W        W 6480  24.382  43.495  14.896
34155W        W 6481  16.279  32.707  10.646
34156W        W 6482  29.650   0.997   3.687
34157W        W 6483   4.941  17.106  11.108
34158W        W 6484   9.984  18.034  14.797
34159W        W 6485   1.494  14.791   3.221
34160W        W 6486  19.331  24.226   3.620
34161W        W 6487  40.815  16.570  14.497
34162W        W 6488  20.128  21.186  14.808
34163W        W 6489   7.797  25.956  13.941
34164W        W 6490  31.960  12.075  10.710
34165W        W 6491  23.727  22.690  11.507
34166W        W 6492   8.868  39.286   3.766
34167W        W 6493  10.674  12.660   5.034
34168W        W 6494  21.702  17.668  11.653
34169W        W 6495  42.497  38.956   3.806
34170W        W 6496   5.754  35.952  13.990
34171W        W 6497  21.018   7.440  10.381
34172W        W 6498  42.767  10.110   2.249
34173W        W 6499   5.325  28.605   0.177
34174W        W 6500  27.133  33.947   1.486
34175W        W 6501  32.124  12.905  10.986
34176W        W 6502  22.695  12.795  14.870
34177W        W 6503  10.664  26.476  11.584
34178W        W 6504  25.394  11.430   0.112
34179W        W 6505  22.016   0.329   0.790
34180W        W 6506  19.073  33.637   3.618
34181W        W 6507  43.242   9.207  11.154
34182W        W 6508  10.356   7.775   3.789
34183W        W 6509  35.587  42.281   3.425
34184W        W 6510  14.808  36.615  11.965
34185W        W 6511  38.340  13.528   0.737
34186W        W 6512  15.875  42.094  13.834
34187W        W 6513  11.148  29.893   1.137
34188W        W 6514  34.058  37.673   2.896
34189W        W 6515  44.768  39.187  10.229
34190W        W 6516  10.210  16.345  11.782
34191W        W 6517  32.580  38.766  11.411
34192W        W 6518  44.570  37.497  12.170
34193W        W 6519   4.254  10.104  10.066
34194W        W 6520   6.218  23.974   3.138
34195W        W 6521  12.519  20.523  14.293
34196W        W 6522  23.470  23.995  10.932
34197W        W 6523  23.022  22.598  13.509
34198W        W 6524  28.322  11.687  10.171
34199W        W 6525   8.131  27.068   3.946
34200W        W 6526  20.356  30.590  11.646
34201W        W 6527  13.387  33.148   0.254
34202W        W 6528  20.090  20.138  11.232
34203W        W 6529   7.169  26.350  13.873
34204W        W 6530  24.121  16.598   4.032
34205W        W 6531  41.444   2.700   1.235
34206W        W 6532   5.871  26.100   2.729
34207W        W 6533  20.883  13.283  13.963
34208W        W 6534  24.933   8.404  14.484
34209W        W 6535   0.270  38.899  14.395
34210W        W 6536  41.522  44.271   1.661
34211W        W 6537   9.644  25.558   3.200
34212W        W 6538  27.181  15.162   0.445
34213W        W 6539   4.852  33.590   3.134
34214W        W 6540  11.376   0.258  13.485
34215W        W 6541  38.110  18.084  12.412
34216W        W 6542   3.241   0.362   4.376
34217W        W 6543   6.867  15.257   3.762
34218W        W 6544  30.511  23.886  11.326
34219W        W 6545  23.035  16.771  14.008
34220W        W 6546  28.954  43.478   2.669
34221W        W 6547  15.650  10.561  11.725
34222W        W 6548  42.834  39.143  10.778
34223W        W 6549  20.275   6.827  14.037
34224W        W 6550  25.504  14.100   9.864
34225W        W 6551   1.980  30.462   1.214
34226W        W 6552   6.088  33.363  10.320
34227W        W 6553  18.084  31.850  14.966
34228W        W 6554  19.092  27.791   0.263
34229W        W 6555  35.227   3.930   3.399
34230W        W 6556  41.170  27.768  12.890
34231W        W 6557   0.795  18.084   0.674
34232W        W 6558  17.103  42.837   3.707
34233W        W 6559   6.162  39.808  11.604
34234W        W 6560  21.552  20.422   2.878
34235W        W 6561  34.164   3.219  12.902
34236W        W 6562  43.333  10.562   0.307
34237W        W 6563  24.612   0.279  14.796
34238W        W 6564  15.237  40.372   1.181
34239W        W 6565  44.286  30.684   3.198
34240W        W 6566  29.536  32.436  12.013
34241W        W 6567   0.330   6.276   2.621
34242W        W 6568  17.221  43.573   2.336
34243W        W 6569  31.937   2.942  10.369
34244W        W 6570  29.729  36.097   1.342
34245W        W 6571   5.690  24.728   4.552
34246W        W 6572  22.689  11.833  13.066
34247W        W 6573  25.549   2.659   4.586
34248W        W 6574  20.668  35.139   1.632
34249W        W 6575  41.350  12.152   2.187
34250W        W 6576  28.120  14.377   3.773
34251W        W 6577  16.104   6.818  10.484
34252W        W 6578  27.575   8.163  13.458
34253W        W 6579  21.778  39.126  11.117
34254W        W 6580  31.459  11.076   4.118
34255W        W 6581  42.369  34.458  10.984
34256W        W 6582  10.201  24.090  12.338
34257W        W 6583  43.870   7.421   3.784
34258W        W 6584   6.166  16.703   1.482
34259W        W 6585  23.193   8.934   1.351
34260W        W 6586  21.969  37.914  13.827
34261W        W 6587  38.719  37.214  14.891
34262W        W 6588   9.795   1.495  11.940
34263W        W 6589  10.370   9.827   3.338
34264W        W 6590   4.309  27.182  14.702
34265W        W 6591   7.429  19.268   4.179
34266W        W 6592   8.198  41.423   0.731
34267W        W 6593  30.023  40.558  11.116
34268W        W 6594  37.379  33.007  11.722
34269W        W 6595   0.454  29.481   2.890
34270W        W 6596   4.870  40.411  14.878
34271W        W 6597   3.729  22.961   2.269
34272W        W 6598  16.646   3.977  13.933
34273W        W 6599  43.903   5.417  12.820
34274W        W 6600  17.794   2.815   4.235
34275W        W 6601   6.429  33.979   3.674
34276W        W 6602  34.049  35.120  10.774
34277W        W 6603  32.981  29.626  12.068
34278W        W 6604  33.954  17.246  11.177
34279W        W 6605  37.473   2.441  13.045
34280W        W 6606  34.127  23.774   3.754
34281W        W 6607  24.045  36.669   1.320
34282W        W 6608  19.769  42.511   1.962
34283W        W 6609  16.164  36.998  11.908
34284W        W 6610   2.428  20.825   1.303
34285W        W 6611  38.881  26.736   4.554
34286W        W 6612  39.717  26.015   3.254
34287W        W 6613  28.710  34.011   4.099
34288W        W 6614  21.817  23.516  10.667
34289W        W 6615  33.985  28.248  12.925
34290W        W 6616  12.074  17.074  13.915
34291W        W 6617  35.662  41.408   3.698
34292W        W 6618  13.180  36.540  10.246
34293W        W 6619  44.334   5.397   0.417
34294W        W 6620  11.111  40.483  12.965
34295W        W 6621   2.720   2.242   1.670
34296W        W 6622  20.134  20.044   1.888
34297W        W 6623  21.115  15.841  14.086
34298W        W 6624  23.021  23.046  12.456
34299W        W 6625  32.532  24.329  10.637
34300W        W 6626  40.098  25.465  12.599
34301W        W 6627  34.954  18.044  11.163
34302W        W 6628   4.420  33.150   0.695
34303W        W 6629  39.151   9.810   1.710
34304W        W 6630  20.246  21.611   2.328
34305W        W 6631  42.409   8.453   2.074
34306W        W 6632  19.184  12.727   0.863
34307W        W 6633   8.615  22.824   0.867
34308W        W 6634  33.473  29.941   2.474
34309W        W 6635  30.026  16.756   3.881
34310W        W 6636  39.728   6.397  11.251
34311W        W 6637   1.764  36.119  11.148
34312W        W 6638  40.293   6.299  13.754
34313W        W 6639  29.085  25.918  10.045
34314W        W 6640  41.705  10.156  12.463
34315W        W 6641  14.051  32.712  12.208
34316W        W 6642  43.248  15.981  11.820
34317W        W 6643  10.552  42.211   1.164
34318W        W 6644  35.596   5.846   4.508
34319W        W 6645  13.814  12.045   0.545
34320W        W 6646  13.212  44.341  14.888
34321W        W 6647  40.301  11.604   0.278
34322W        W 6648  28.107  38.550  14.636
34323W        W 6649  43.961   3.132   2.374
34324W        W 6650  22.078  33.665   3.185
34325W        W 6651   8.325  15.789   0.253
34326W        W 6652  12.804   9.860   3.110
34327W        W 6653  35.365  39.449  13.787
34328W        W 6654   0.696  24.022   1.379
34329W        W 6655   1.669   8.230  12.315
34330W        W 6656  15.027  30.715   4.294
34331W        W 6657   0.773  17.129   1.026
34332W        W 6658  29.003  34.744   0.447
34333W        W 6659   4.693  20.531  14.461
34334W        W 6660  20.164  38.148   0.188
34335W        W 6661  41.924  23.026   3.274
34336W        W 6662  11.300  43.366   2.550
34337W        W 6663   2.355  27.321  12.827
34338W        W 6664  34.972   7.303  14.529
34339W        W 6665  13.976  35.365   2.178
34340W        W 6666  28.935  26.036   1.769
34341W        W 6667  30.943  11.307  13.827
34342W        W 6668   6.773  21.860  13.493
34343W        W 6669   8.404  15.372  11.103
34344W        W 6670   3.164   1.185  10.181
34345W        W 6671  19.497   4.450   3.772
34346W        W 6672  42.397  41.585  11.917
34347W        W 6673  22.681  36.569  10.771
34348W        W 6674  15.601  10.184  14.979
34349W        W 6675  34.348  11.007  14.794
34350W        W 6676  23.717  35.094   3.877
34351W        W 6677  35.243   6.266   3.723
34352W        W 6678  23.154   1.792  12.515
34353W        W 6679  22.027  16.736   3.815
34354W        W 6680   7.643  40.910   1.311
34355W        W 6681   2.953  30.440  12.625
34356W        W 6682  28.922  19.777   3.796
34357W        W 6683  24.008   9.361  11.989
34358W        W 6684   1.795  41.922  11.417
34359W        W 6685  24.962  40.051  10.813
34360W        W 6686  27.357   9.753   3.266
34361W        W 6687  17.575  11.266   4.090
34362W        W 6688  27.625  23.236   2.736
34363W        W 6689  30.195  18.583  11.828
34364W        W 6690  42.534  28.250  14.006
34365W        W 6691  15.407  17.737   2.696
34366W        W 6692  20.751   3.759  11.940
34367W        W 6693  19.069  17.568   2.034
34368W        W 6694  18.473   9.407  12.046
34369W        W 6695  32.186  32.922  10.763
34370W        W 6696   9.467  39.568  12.049
34371W        W 6697  29.481  23.503  12.364
34372W        W 6698  23.743  17.518   0.054
34373W        W 6699  26.516  10.828  12.520
34374W        W 6700   5.766  43.944   1.870
34375W        W 6701   3.103  41.518   1.860
34376W        W 6702  12.493  38.906   3.211
34377W        W 6703   7.244   4.475  14.745
34378W        W 6704  36.937   2.778  12.216
34379W        W 6705  32.514  42.350   1.006
34380W        W 6706   7.692  14.606  11.656
34381W        W 6707  23.569  27.428   0.225
34382W        W 6708  28.442  37.538  11.888
34383W        W 6709  17.637  38.983  14.310
34384W        W 6710  36.166  32.868   0.486
34385W        W 6711  16.589  20.657   2.869
34386W        W 6712   8.148   8.418  10.635
34387W        W 6713  43.811  23.315  12.366
34388W        W 6714  12.366  18.097  11.518
34389W        W 6715   1.264   0.047  10.663
34390W        W 6716  38.962  15.803   3.667
34391W        W 6717  12.064  18.335  11.886
34392W        W 6718  16.187  44.967   0.361
34393W        W 6719  24.682  24.243   5.005
34394W        W 6720  33.736  27.543   2.296
34395W        W 6721  38.184  25.134   4.215
34396W        W 6722  35.086  35.561   0.373
34397W        W 6723  35.907  13.391  11.079
34398W        W 6724  40.983  25.461   3.263
34399W        W 6725  27.423  35.520   1.126
34400W        W 6726  27.917   1.546   3.369
34401W        W 6727  32.025  40.096   4.006
34402W        W 6728  29.837  39.565  14.876
34403W        W 6729  22.207  27.489  11.196
34404W        W 6730  44.033  13.772  13.495
34405W        W 6731  41.124  44.395  13.385
34406W        W 6732  39.065  34.557  14.759
34407W        W 6733  34.355  15.492  14.545
34408W        W 6734  24.228  34.363   1.465
34409W        W 6735  27.068  43.824  13.295
34410W        W 6736  13.179  11.403   0.250
34411W        W 6737   3.279  20.132   3.631
34412W        W 6738  20.805  11.100   4.204
34413W        W 6739  28.408  17.223   1.310
34414W        W 6740  28.995  31.879   0.007
34415W        W 6741   0.473  15.273   0.192
34416W        W 6742  33.840  19.284  14.482
34417W        W 6743  25.525  25.212  10.520
34418W        W 6744  23.493  29.578   4.692
34419W        W 6745  33.153  27.370  13.657
34420W        W 6746  40.894  23.616   2.876
34421W        W 6747  15.376   8.390   3.374
34422W        W 6748  34.829  44.979  12.929
34423W        W 6749  30.952  41.765  10.363
34424W        W 6750  14.260  41.504  12.066
34425W        W 6751  20.647  44.588   4.542
34426W        W 6752  40.238  15.322  12.911
34427W        W 6753  36.348  17.944   0.268
34428W        W 6754   7.704   9.718  11.547
34429W        W 6755   4.400  41.350  11.367
34430W        W 6756   0.634  34.174   2.458
34431W        W 6757  31.187  40.935   3.579
34432W        W 6758  35.647  42.462   0.096
34433W        W 6759  30.052   1.669  10.551
34434W        W 6760  26.740  29.588  10.816
34435W        W 6761   5.788  20.729  12.610
34436W        W 6762  36.499  41.521  14.379
34437W        W 6763  16.973   7.782  13.582
34438W        W 6764  32.082  43.492   0.307
34439W        W 6765  10.154  24.964  11.394
34440W        W 6766   5.965  10.595   3.637
34441W        W 6767  30.651  30.883   0.635
34442W        W 6768  10.452  38.143  10.751
34443W        W 6769  18.076  11.250   3.929
34444W        W 6770  37.948  26.252  10.677
34445W        W 6771   1.798  23.768  10.217
34446W        W 6772  43.439   6.846   0.734
34447W        W 6773  28.922  26.005  14.445
34448W        W 6774   3.261  31.989   1.216
34449W        W 6775   0.789  17.422   2.491
34450W        W 6776  19.271  28.476  11.532
34451W        W 6777  18.723  26.495   1.827
34452W        W 6778  16.238  32.812  14.593
34453W        W 6779  27.406  37.859  13.865
34454W        W 6780  13.319  37.998   1.863
34455W        W 6781  43.347  36.500   4.719
34456W        W 6782  32.383  12.380   2.436
34457W        W 6783  40.454  21.514  12.050
34458W        W 6784   8.843  37.964   3.075
34459W        W 6785  34.090  30.009  10.628
34460W        W 6786  19.005   9.640  11.521
34461W        W 6787  37.109  36.015   4.723
34462W        W 6788   3.347  30.961  12.992
34463W        W 6789   5.217  11.631   4.148
34464W        W 6790  12.283  18.966  11.205
34465W        W 6791  28.010  23.214  10.751
34466W        W 6792  10.911  42.340   0.069
34467W        W 6793  22.591  10.365  10.570
34468W        W 6794   1.514  17.781   2.119
34469W        W 6795   9.827  11.809   1.319
34470W        W 6796  41.467  10.803  14.117
34471W        W 6797  17.865  10.298   2.834
34472W        W 6798  35.089  37.974  14.381
34473W        W 6799  39.263  24.129  11.226
34474W        W 6800   2.288  24.748  12.534
34475W        W 6801  32.956  37.519  13.066
34476W        W 6802   0.779  33.944  12.547
34477W        W 6803   3.437  24.067  13.004
34478W        W 6804   3.309  18.179  12.112
34479W        W 6805  21.545  34.081   0.265
34480W        W 6806  41.762  37.993   1.041
34481W        W 6807  31.663  17.236   3.635
34482W        W 6808  15.235   4.421  13.450
34483W        W 6809  12.754  20.383  11.129
34484W        W 6810   6.514  11.852  12.494
34485W        W 6811  30.486  44.698  14.321
34486W        W 6812  43.855  18.746   3.999
34487W        W 6813  27.618  34.009   0.051
34488W        W 6814  39.790  36.491   2.766
34489W        W 6815   0.425   2.297   3.287
34490W        W 6816   2.036  24.024   1.744
34491W        W 6817   0.822  17.505   3.010
34492W        W 6818  31.005  15.695  12.152
34493W        W 6819  22.723   9.872   4.547
34494W        W 6820  15.604  38.479   1.787
34495W        W 6821   3.422  15.591   1.313
34496W        W 6822   0.299  17.117  12.510
34497W        W 6823  23.795  12.595  14.972
34498W        W 6824  22.092  27.954  11.003
34499W        W 6825  10.877   3.395  11.187
34500W        W 6826   3.154  30.871  14.528
34501W        W 6827   1.476  32.437   0.554
34502W        W 6828  39.350  42.531  12.637
34503W        W 6829   1.385  15.150  14.301
34504W        W 6830  39.029  32.934  12.108
34505W        W 6831  37.368  16.878  13.341
34506W        W 6832   8.327   2.499  10.789
34507W        W 6833   6.333  34.013   4.593
34508W        W 6834  37.248  36.804   3.717
34509W        W 6835  42.879  38.803   0.874
34510W        W 6836   1.475  31.560   3.163
34511W        W 6837  41.860  27.955  14.565
34512W        W 6838  43.085  42.191  12.020
34513W        W 6839  40.767  23.966   3.281
34514W        W 6840  23.008  35.604   0.949
34515W        W 6841  19.198  32.707   3.220
34516W        W 6842   1.328  24.536   0.698
34517W        W 6843  30.664  25.587  10.654
34518W        W 6844  24.865  33.480  11.241
34519W        W 6845  16.549  16.169  12.626
34520W        W 6846  40.067  18.142   4.152
34521W        W 6847  12.568  37.619  12.871
34522W        W 6848  30.190  26.965  11.609
34523W        W 6849  27.634  33.475  14.232
34524W        W 6850  17.872  25.525   3.329
34525W        W 6851  27.240  22.860   1.368
34526W        W 6852   2.574  41.672  12.799
34527W        W 6853  33.769   0.454  12.736
34528W        W 6854  33.774  21.959  12.436
34529W        W 6855   0.889  18.526  13.461
34530W        W 6856  31.206   5.232   4.548
34531W        W 6857  19.759  19.023   4.293
34532W        W 6858  43.813  44.386  11.388
34533W        W 6859  29.640  10.144  11.202
34534W        W 6860   5.305  20.459   2.694
34535W        W 6861  30.042  20.332  14.427
34536W        W 6862  16.991  33.964  14.404
34537W        W 6863  22.127  41.470  10.707
34538W        W 6864  38.869  24.175   2.325
34539W        W 6865  27.967  41.685   1.920
34540W        W 6866  29.643   4.341  14.010
34541W        W 6867   7.610  19.553  12.033
34542W        W 6868  12.821  16.903   3.602
34543W        W 6869  13.652  36.519   4.591
34544W        W 6870  13.224   9.934   4.504
34545W        W 6871  14.984  37.621   2.203
34546W        W 6872  10.424   4.752   3.700
34547W        W 6873   1.887  31.333   2.496
34548W        W 6874  16.150   5.476  13.604
34549W        W 6875  16.085  26.071  13.308
34550W        W 6876  22.647  31.292   1.885
34551W        W 6877  35.839  39.399  11.535
34552W        W 6878   7.852  31.825   1.306
34553W        W 6879   5.206  43.793  11.620
34554W        W 6880   6.543  18.829   3.880
34555W        W 6881  39.752  36.136  10.676
34556W        W 6882  26.519  15.191  10.728
34557W        W 6883  23.956  17.930   4.828
34558W        W 6884  17.226  13.692   9.823
34559W        W 6885   5.864  11.241  11.979
34560W        W 6886  30.117  40.323   1.434
34561W        W 6887  35.949  28.013  12.020
34562W        W 6888   5.832   8.193   2.619
34563W        W 6889  33.935  17.304   3.467
34564W        W 6890  30.818  27.914   4.926
34565W        W 6891  13.632  22.029  10.887
34566W        W 6892  20.005  30.011  13.049
34567W        W 6893   3.661  20.155  10.771
34568W        W 6894  10.758  22.650   0.114
34569W        W 6895   1.385  18.675  13.477
34570W        W 6896  33.505  25.070   1.845
34571W        W 6897  13.211  20.956   3.541
34572W        W 6898  16.028   2.463  14.681
34573W        W 6899  37.639  37.777   0.312
34574W        W 6900   8.842  24.531   3.223
34575W        W 6901  13.037  40.906  11.532
34576W        W 6902  37.631  15.777   3.773
34577W        W 6903  43.865  44.292  11.897
34578W        W 6904   8.418  12.937   2.862
34579W        W 6905   8.350   8.442   0.579
34580W        W 6906   1.189  17.196   0.006
34581W        W 6907  21.561   0.611  13.865
34582W        W 6908  36.034  41.969  10.657
34583W        W 6909  26.181  20.971  12.954
34584W        W 6910  18.179   7.689   2.757
34585W        W 6911  15.230  19.183   4.289
34586W        W 6912  23.047   1.473   3.908
34587W        W 6913  35.735  23.684   0.405
34588W        W 6914  14.102   5.303  12.430
34589W        W 6915  35.813  38.494   5.006
34590W        W 6916  37.796  23.963  12.036
34591W        W 6917   9.218  44.352  10.607
34592W        W 6918  10.254  42.977   2.192
34593W        W 6919  43.821  32.580  13.907
34594W        W 6920  28.069   7.139  13.923
34595W        W 6921  27.637  32.987  14.522
34596W        W 6922  16.644  39.175  10.678
34597W        W 6923  18.875  38.430   4.173
34598W        W 6924  33.362  13.776  11.148
34599W        W 6925  30.582  35.802   0.715
34600W        W 6926  18.260   4.575   0.194
34601W        W 6927  16.601  31.558  12.858
34602W        W 6928  39.385  35.336   3.736
34603W        W 6929  40.474  28.254   1.038
34604W        W 6930   2.867  41.430  12.381
34605W        W 6931   6.042  18.808   3.161
34606W        W 6932  42.311  39.854   3.197
34607W        W 6933   0.598  25.051  14.708
34608W        W 6934  31.145  44.346  11.656
34609W        W 6935  26.977  21.725   2.916
34610W        W 6936  42.562   2.289  13.866
34611W        W 6937  17.386   0.756  11.995
34612W        W 6938  25.033  20.780  13.831
34613W        W 6939   1.840  26.889   0.397
34614W        W 6940  26.243  36.597  12.648
34615W        W 6941  41.277  19.310  14.382
34616W        W 6942  43.010   3.400   3.162
34617W        W 6943   8.318  19.192   1.685
34618W        W 6944  16.784  39.232  10.008
34619W        W 6945  32.619  13.279  11.030
34620W        W 6946  12.606  23.917   0.931
34621W        W 6947  16.189  42.818   3.618
34622W        W 6948  44.367   2.996  11.950
34623W        W 6949  27.732  41.602  11.049
34624W        W 6950  44.248  43.016  10.356
34625W        W 6951  35.186   5.198  10.482
34626W        W 6952   0.799  23.527  14.561
34627W        W 6953  38.471  21.431  12.478
34628W        W 6954  24.696  28.552   1.824
34629W        W 6955  23.325  17.966  11.111
34630W        W 6956  33.170   7.268   0.786
34631W        W 6957   6.510   7.181   1.932
34632W        W 6958  27.186  37.318   0.280
34633W        W 6959  20.172  21.224  10.954
34634W        W 6960   7.698   8.431  12.872
34635W        W 6961   3.212  12.634  12.420
34636W        W 6962  44.461  20.709  13.924
34637W        W 6963  18.641   9.135   4.668
34638W        W 6964  15.049   8.079   1.266
34639W        W 6965   5.219  14.528   1.306
34640W        W 6966  34.594  31.594  10.720
34641W        W 6967   1.622   8.026  12.892
34642W        W 6968  27.361  17.033  11.065
34643W        W 6969  33.118   7.266   3.835
34644W        W 6970  16.689  22.538  11.896
34645W        W 6971  25.427  28.003  10.807
34646W        W 6972  24.357  32.096   4.122
34647W        W 6973  11.591   7.781  10.555
34648W        W 6974  14.697   2.225   0.922
34649W        W 6975  24.802  13.805   1.793
34650W        W 6976  27.168  28.772   4.615
34651W        W 6977   3.460  34.188   4.547
34652W        W 6978  35.849   8.399   1.786
34653W        W 6979  21.073   9.150  10.746
34654W        W 6980  31.120  28.859   4.284
34655W        W 6981  37.912   4.291  12.611
34656W        W 6982  21.121  31.146  13.450
34657W        W 6983  21.081  39.353   3.174
34658W        W 6984  16.887  28.096  12.552
34659W        W 6985  26.395  28.548  10.131
34660W        W 6986  29.970  20.505   3.807
34661W        W 6987  12.197  18.620   4.806
34662W        W 6988  25.058  15.169  10.226
34663W        W 6989  37.537   5.346   3.344
34664W        W 6990  28.924   8.294   0.694
34665W        W 6991  13.725   8.771   4.079
34666W        W 6992  37.012   8.833   4.681
34667W        W 6993  35.344  26.145  10.703
34668W        W 6994  13.222  18.673  13.764
34669W        W 6995  20.126  44.733  10.764
34670W        W 6996  37.448  24.696  14.809
34671W        W 6997   2.676  40.127   1.410
34672W        W 6998   5.506   8.278  11.266
34673W        W 6999  28.891  27.958   3.583
34674W        W 7000  32.682  14.216   4.438
34675W        W 7001  19.795   9.743   0.031
34676W        W 7002  44.242   5.681   1.831
34677W        W 7003  42.364  28.938  14.048
34678W        W 7004  14.208   8.387   2.730
34679W        W 7005  41.992  23.942  12.434
34680W        W 7006   6.227  26.315  11.176
34681W        W 7007   4.903  17.798   5.049
34682W        W 7008  10.869   6.086  12.926
34683W        W 7009  38.435  26.446   4.663
34684W        W 7010  25.048  44.983   0.315
34685W        W 7011  14.146  10.661   1.850
34686W        W 7012   2.858  25.627   1.449
34687W        W 7013   4.379  41.005   3.018
34688W        W 7014  19.252  17.523  13.891
34689W        W 7015  26.854  22.484   3.667
34690W        W 7016  22.116  25.022  10.566
34691W        W 7017  13.080  13.833   0.926
34692W        W 7018  37.599  32.994  12.598
34693W        W 7019  37.097   2.564   4.853
34694W        W 7020  14.141  10.895   3.264
34695W        W 7021  28.419  25.110  13.375
34696W        W 7022  26.404   8.566   1.325
34697W        W 7023  20.523  16.621  12.543
34698W        W 7024  43.565   2.879  13.579
34699W        W 7025  27.251  33.354  14.570
34700W        W 7026  25.018  36.037   2.747
34701W        W 7027   4.129   0.957  12.270
34702W        W 7028  28.887  28.488   0.006
34703W        W 7029  25.002  12.569   2.370
34704W        W 7030  13.245  32.992   5.351
34705W        W 7031  27.960  32.915  13.462
34706W        W 7032  11.391  10.227   2.875
34707W        W 7033   5.210  30.768  13.903
34708W        W 7034   1.691  37.094   1.466
34709W        W 7035  36.914   0.272  12.966
34710W        W 7036  18.603  28.151   0.360
34711W        W 7037   9.553  43.527   4.092
34712W        W 7038  44.824   1.314   4.094
34713W        W 7039  29.167  20.722  14.532
34714W        W 7040   9.298   2.696   3.673
34715W        W 7041   0.886  17.824  10.677
34716W        W 7042  15.530   2.789   1.420
34717W        W 7043  35.355  31.523   2.366
34718W        W 7044  37.373  14.777   1.928
34719W        W 7045   3.484  44.935  11.138
34720W        W 7046  28.653  22.441  14.821
34721W        W 7047  10.375  34.523   0.490
34722W        W 7048  14.579  12.140   0.885
34723W        W 7049  27.088  23.273   4.049
34724W        W 7050  24.001  20.010  10.612
34725W        W 7051  36.750  32.738   1.193
34726W        W 7052   0.359  15.543   4.062
34727W        W 7053  15.113  28.671   1.277
34728W        W 7054  25.592  42.403  13.518
34729W        W 7055  41.663   8.923   4.603
34730W        W 7056  11.714  32.926  12.276
34731W        W 7057  42.538  23.298  14.347
34732W        W 7058  33.910  15.835  13.007
34733W        W 7059   7.538  21.461   3.881
34734W        W 7060   0.724  39.092  12.889
34735W        W 7061  32.568  41.188   0.969
34736W        W 7062  16.363  19.178   4.068
34737W        W 7063  42.524   8.244   1.607
34738W        W 7064  15.293  19.188  10.800
34739W        W 7065  41.050   2.446   2.359
34740W        W 7066  11.788  31.579   4.091
34741W        W 7067  26.400  35.080  13.989
34742W        W 7068  36.553   9.313  13.277
34743W        W 7069   4.176   8.460  13.969
34744W        W 7070  12.179  41.296   2.199
34745W        W 7071   8.293  23.530   0.300
34746W        W 7072  26.157   0.332  10.745
34747W        W 7073  33.100  13.673  10.680
34748W        W 7074  35.100  19.983  11.203
34749W        W 7075  17.893  40.240  12.718
34750W        W 7076  32.496  21.660   0.874
34751W        W 7077  43.413   6.936  12.359
34752W        W 7078  23.528  43.187  14.874
34753W        W 7079  20.113  42.418   2.660
34754W        W 7080  43.439  32.448  11.876
34755W        W 7081   6.023   9.416   4.184
34756W        W 7082   5.482  30.713  13.480
34757W        W 7083  15.752  21.951   4.820
34758W        W 7084  31.616   3.556   0.038
34759W        W 7085  20.978  44.875  13.390
34760W        W 7086   1.512  21.814   1.485
34761W        W 7087  40.754  39.883  10.422
34762W        W 7088  23.498  28.973  14.028
34763W        W 7089  33.203  41.316   2.280
34764W        W 7090  12.241  44.203  11.105
34765W        W 7091   7.145  29.993   0.486
34766W        W 7092  22.174  16.266   4.168
34767W        W 7093  31.627  20.701  11.525
34768W        W 7094  36.072  28.668   1.479
34769W        W 7095   5.422   5.127  13.442
34770W        W 7096  14.701  21.958  12.472
34771W        W 7097  36.424  22.694  14.337
34772W        W 7098  40.285  14.226  10.615
34773W        W 7099  12.319   1.076  13.320
34774W        W 7100   3.899  13.722  11.535
34775W        W 7101  23.991   0.832  11.223
34776W        W 7102  26.494  42.667   5.067
34777W        W 7103  19.344   0.962   1.978
34778W        W 7104  16.082  43.535   2.406
34779W        W 7105   9.967  26.675   0.740
34780W        W 7106  38.614  10.165  10.733
34781W        W 7107  19.403  14.290   0.320
34782W        W 7108  27.762   0.361   1.990
34783W        W 7109  14.276  33.015  10.601
34784W        W 7110  30.096  23.317   2.793
34785W        W 7111  16.233  14.099   1.962
34786W        W 7112   2.790  21.013   0.917
34787W        W 7113  26.208  32.645   3.711
34788W        W 7114  39.662  35.524  13.135
34789W        W 7115  20.210  42.016   3.379
34790W        W 7116  38.324  33.443  14.453
34791W        W 7117   3.957  39.680   4.206
34792W        W 7118  18.803  35.164   2.103
34793W        W 7119  32.512  22.130  10.734
34794W        W 7120  38.725  12.841   1.327
34795W        W 7121   3.394  30.744  10.608
34796W        W 7122  21.042  29.446   2.922
34797W        W 7123  23.047  36.577   1.209
34798W        W 7124  11.192  40.829  11.010
34799W        W 7125  24.230  27.121   0.517
34800W        W 7126   5.700  42.757  12.962
34801W        W 7127   4.121  12.005   0.720
34802W        W 7128  28.385   1.195  12.105
34803W        W 7129   5.707  35.012  13.821
34804W        W 7130  42.292  43.922  12.038
34805W        W 7131  11.392   0.974   0.458
34806W        W 7132   7.844   4.972   2.659
34807W        W 7133  42.580  20.527   1.840
34808W        W 7134  33.054  30.892   2.206
34809W        W 7135   4.786  31.299   4.527
34810W        W 7136  28.501  27.091  14.385
34811W        W 7137  28.181  37.416  10.261
34812W        W 7138   9.305  38.201  12.879
34813W        W 7139  14.163  23.031  13.025
34814W        W 7140  17.619  38.798  12.619
34815W        W 7141  34.966   9.282  14.157
34816W        W 7142  42.767   6.787   1.449
34817W        W 7143   2.801  22.507   4.163
34818W        W 7144  44.371   2.705   0.788
34819W        W 7145  38.642  41.227   1.872
34820W        W 7146  36.072  34.381   1.756
34821W        W 7147  42.146   9.291  13.369
34822W        W 7148   9.669  23.059   4.076
34823W        W 7149  10.387  42.559   3.205
34824W        W 7150  18.750  30.514  13.839
34825W        W 7151  27.159  30.599   4.039
34826W        W 7152   8.266  28.100   0.838
34827W        W 7153  18.590  10.220   3.796
34828W        W 7154  25.544  39.331   0.806
34829W        W 7155  12.833   1.703  13.872
34830W        W 7156  20.631  35.824  10.452
34831W        W 7157  10.856   7.747  13.192
34832W        W 7158  44.248   4.146   3.202
34833W        W 7159  39.884   6.733  10.900
34834W        W 7160  14.394  40.910  14.055
34835W        W 7161  14.918  42.785  14.445
34836W        W 7162  42.775   1.442   2.369
34837W        W 7163  34.828  34.179   1.993
34838W        W 7164  24.740   9.757   3.170
34839W        W 7165  44.292  44.435   4.023
34840W        W 7166   5.101   6.166   4.609
34841W        W 7167  15.828  34.176  11.814
34842W        W 7168  13.342  39.321   1.108
34843W        W 7169  11.692   9.331  11.411
34844W        W 7170  10.534   1.259   3.144
34845W        W 7171  42.518  31.497   1.470
34846W        W 7172  15.799  36.050  12.030
34847W        W 7173   2.440   4.882   3.849
34848W        W 7174   8.970  42.867   0.419
34849W        W 7175  17.507  38.470   4.688
34850W        W 7176  11.801  41.603   2.377
34851W        W 7177  20.240  28.794   0.915
34852W        W 7178   2.355  29.618  10.812
34853W        W 7179  23.683  16.937   2.771
34854W        W 7180   5.776  10.393   1.380
34855W        W 7181  11.336  19.273   1.892
34856W        W 7182  28.478  41.928   0.230
34857W        W 7183  15.552   3.222   4.548
34858W        W 7184   1.352  13.519  11.400
34859W        W 7185  33.966  18.661  13.881
34860W        W 7186  11.894   3.864   0.475
34861W        W 7187  14.562  29.502  13.916
34862W        W 7188  33.896  24.284   1.897
34863W        W 7189  14.325   5.140  12.897
34864W        W 7190  28.433  11.172   2.461
34865W        W 7191   5.145  29.473  13.897
34866W        W 7192  31.989  24.991  14.056
34867W        W 7193  42.712  19.180   1.727
34868W        W 7194   6.670   4.257   2.876
34869W        W 7195  37.634  13.229  10.322
34870W        W 7196   1.704  20.625  11.986
34871W        W 7197  16.819  26.103   1.926
34872W        W 7198  41.392  29.077  13.843
34873W        W 7199   6.414   5.820  14.409
34874W        W 7200  30.012  25.952  14.967
34875W        W 7201  27.598  15.570   3.574
34876W        W 7202   4.395  11.783  13.321
34877W        W 7203   6.446  37.780  14.848
34878W        W 7204  24.518  15.256   0.750
34879W        W 7205  33.896  21.987  11.640
34880W        W 7206   9.771   5.983  11.171
34881W        W 7207  14.149  14.332   3.321
34882W        W 7208  37.281  30.068   3.746
34883W        W 7209  19.129  44.008   1.263
34884W        W 7210  35.541   1.518   4.199
34885W        W 7211  25.091   9.815  11.810
34886W        W 7212  23.174   2.704   2.422
34887W        W 7213  21.228  13.227   4.188
34888W        W 7214   0.299  31.871  12.063
34889W        W 7215   9.849   9.880   0.337
34890W        W 7216  19.165  18.728  10.969
34891W        W 7217   0.982   2.336  12.463
34892W        W 7218  42.150  32.185   4.570
34893W        W 7219  18.511  39.930   3.125
34894W        W 7220  14.136  44.932   2.948
34895W        W 7221  13.351  24.039  13.001
34896W        W 7222  28.693  22.101   0.791
34897W        W 7223  31.377  40.060  14.889
34898W        W 7224   6.213   8.519  13.001
34899W        W 7225  31.245  14.232   3.583
34900W        W 7226  44.923  10.498   2.327
34901W        W 7227  44.518  22.815  12.950
34902W        W 7228   1.773   1.982   4.851
34903W        W 7229   5.952   5.539  12.206
34904W        W 7230  17.272  17.111   1.756
34905W        W 7231  42.409  13.703   4.731
34906W        W 7232   2.682  12.204  11.490
34907W        W 7233  11.647  25.034   0.313
34908W        W 7234  43.396  18.546   4.172
34909W        W 7235   5.303  19.986   1.884
34910W        W 7236  12.676  23.957   0.013
34911W        W 7237  35.801   9.282   2.776
34912W        W 7238   8.939   5.122   0.523
34913W        W 7239  23.471  10.218  11.901
34914W        W 7240  44.139  20.716   2.932
34915W        W 7241   4.826  13.336   1.841
34916W        W 7242  29.953  18.704  14.802
34917W        W 7243  42.462   7.190  13.980
34918W        W 7244  13.491  18.472   1.402
34919W        W 7245  31.511  27.228  11.075
34920W        W 7246  19.109  44.911   3.233
34921W        W 7247  41.541   6.239   0.326
34922W        W 7248   9.396  42.320  12.069
34923W        W 7249   9.653  28.407   3.763
34924W        W 7250   8.170  19.986   1.440
34925W        W 7251  37.859  23.555   3.800
34926W        W 7252   2.971  24.462  12.495
34927W        W 7253   7.644  31.411  12.396
34928W        W 7254  19.160  17.906  12.432
34929W        W 7255   0.872  31.316  12.471
34930W        W 7256  20.887  16.523   0.847
34931W        W 7257  44.393  26.689  11.169
34932W        W 7258  40.648  26.978  14.834
34933W        W 7259  40.031  44.562   4.041
34934W        W 7260  13.426  23.618  10.698
34935W        W 7261  12.554  19.613  12.419
34936W        W 7262  27.203   7.210  11.111
34937W        W 7263  29.099  17.741  12.877
34938W        W 7264  37.148   2.072   3.359
34939W        W 7265  13.743  29.182   4.600
34940W        W 7266  14.118  13.286   2.342
34941W        W 7267  23.871  17.409   2.803
34942W        W 7268  13.359  16.098   1.271
34943W        W 7269  16.079   0.944  13.404
34944W        W 7270  17.476  27.022  11.483
34945W        W 7271  17.202  23.675  10.405
34946W        W 7272  39.232  17.620   0.892
34947W        W 7273  14.070  37.102   0.947
34948W        W 7274  39.059  30.047   0.818
34949W        W 7275   5.358  44.621  13.803
34950W        W 7276  39.392   6.961   4.148
34951W        W 7277  21.435  24.396  12.897
34952W        W 7278  16.044  16.771   4.946
34953W        W 7279   4.524  13.242   1.229
34954W        W 7280  42.004  38.649   0.987
34955W        W 7281  19.425   9.804   3.891
34956W        W 7282   7.229  36.046  13.402
34957W        W 7283  44.960  21.575  13.082
34958W        W 7284   7.679   9.159  10.747
34959W        W 7285  22.064   1.755   0.471
34960W        W 7286   5.785  33.966   2.404
34961W        W 7287   9.180  10.659  10.371
34962W        W 7288  15.521  44.381  11.118
34963W        W 7289  35.968   5.796  14.086
34964W        W 7290  23.139  24.597  14.773
34965W        W 7291   5.835  44.490  14.518
34966W        W 7292  32.284  26.446   4.135
34967W        W 7293   1.447  31.366   3.689
34968W        W 7294  18.031  26.318  12.260
34969W        W 7295  35.647  33.959  12.312
34970W        W 7296   5.163  12.896  14.846
34971W        W 7297  37.415  24.043   3.977
34972W        W 7298  21.120  40.200  12.171
34973W        W 7299   8.855  15.057   0.496
34974W        W 7300   5.618   6.151  14.278
34975W        W 7301   2.194  18.734   4.433
34976W        W 7302   8.340  43.494   4.605
34977W        W 7303  30.201  26.171  13.737
34978W        W 7304  33.459   4.412  10.165
34979W        W 7305   0.348  15.721  14.965
34980W        W 7306  17.722  13.821  13.394
34981W        W 7307  13.207  16.607  13.821
34982W        W 7308  32.149  23.013  11.679
34983W        W 7309   9.305  30.188  11.120
34984W        W 7310  29.899  20.575   0.882
34985W        W 7311  30.369  40.953   4.231
34986W        W 7312  44.461  23.249  11.898
34987W        W 7313  30.978  14.784  12.053
34988W        W 7314   7.968  10.639  14.719
34989W        W 7315  41.946  22.683  14.039
34990W        W 7316  12.022   3.490   2.039
34991W        W 7317  12.567   4.282   0.583
34992W        W 7318  21.576  40.464   4.431
34993W        W 7319  27.398  13.837   0.386
34994W        W 7320  11.764   2.447  14.252
34995W        W 7321  42.166  41.247   4.176
34996W        W 7322   8.172  18.011   3.290
34997W        W 7323  36.318  35.472   5.487
34998W        W 7324  18.832  29.033   3.107
34999W        W 7325  21.703  27.210   4.820
35000W        W 7326  11.301  29.986  10.610
35001W        W 7327  29.481  42.065  13.449
35002W        W 7328  30.144  35.334  14.845
35003W        W 7329  17.263  32.164   1.888
35004W        W 7330  25.407   4.180  11.671
35005W        W 7331   4.768  18.599   0.259
35006W        W 7332  23.025   8.867  11.512
35007W        W 7333  43.675  10.158  11.094
35008W        W 7334   8.262   6.655  10.784
35009W        W 7335  27.666  43.085   2.728
35010W        W 7336  14.833  42.188  14.960
35011W        W 7337  26.126  28.291   3.551
35012W        W 7338   1.031  44.334  13.991
35013W        W 7339  44.804  14.372   5.072
35014W        W 7340  15.316  32.030   0.755
35015W        W 7341  23.875  43.863  14.228
35016W        W 7342   4.924  36.962   1.006
35017W        W 7343  40.539  41.690  10.733
35018W        W 7344   6.865  10.715   4.930
35019W        W 7345  11.785  27.154  11.525
35020W        W 7346  39.969   5.772   0.732
35021W        W 7347  14.788   0.251  13.338
35022W        W 7348  26.761   8.845   0.349
35023W        W 7349  42.192  16.848  13.994
35024W        W 7350  23.519  10.778   4.090
35025W        W 7351   3.676  21.301  14.443
35026W        W 7352   6.391   1.964   3.641
35027W        W 7353  21.177   4.219   2.327
35028W        W 7354   2.372  39.198   1.368
35029W        W 7355  39.491  35.947   4.484
35030W        W 7356   5.202  30.925  11.087
35031W        W 7357  25.274  21.119   1.171
35032W        W 7358  32.746  21.637  14.488
35033W        W 7359  35.377  11.307  13.997
35034W        W 7360   9.851  23.600  14.767
35035W        W 7361  13.886  36.068  12.034
35036W        W 7362  26.266  22.578   1.219
35037W        W 7363  21.756  29.498   0.256
35038W        W 7364  12.236  18.233   2.837
35039W        W 7365  43.801   0.265  13.998
35040W        W 7366  32.456  34.971  14.941
35041W        W 7367   0.010  10.839  12.082
35042W        W 7368  19.064  26.321   0.924
35043W        W 7369  34.613  37.062  14.959
35044W        W 7370  33.257  12.940  13.961
35045W        W 7371  18.067  32.129   4.107
35046W        W 7372  43.929  36.863   1.368
35047W        W 7373  44.469  26.542   2.295
35048W        W 7374   1.754  23.823   4.750
35049W        W 7375   0.268  21.848   1.474
35050W        W 7376   0.242  13.181   0.386
35051W        W 7377  39.776  29.260   2.362
35052W        W 7378  42.983  10.805   3.245
35053W        W 7379  37.794   8.758  13.958
35054W        W 7380  10.461  15.156  13.886
35055W        W 7381  26.516  37.915   3.457
35056W        W 7382  11.654  34.194   3.670
35057W        W 7383   9.680  25.970   1.331
35058W        W 7384  29.115  43.422  12.069
35059W        W 7385  31.397   2.455  14.713
35060W        W 7386  25.565  30.832   4.851
35061W        W 7387  24.607  41.862   4.582
35062W        W 7388  29.202  29.515   0.802
35063W        W 7389  15.023  42.410   3.324
35064W        W 7390  33.580  11.307   1.294
35065W        W 7391  42.971  34.140   3.151
35066W        W 7392   0.309  27.115   1.646
35067W        W 7393  33.113  15.153  11.577
35068W        W 7394  24.403  19.751  14.825
35069W        W 7395  35.606  15.601  12.330
35070W        W 7396   8.091  28.268   4.153
35071W        W 7397  36.567  41.820   3.109
35072W        W 7398   1.498   1.485   3.416
35073W        W 7399  33.571  11.169   0.441
35074W        W 7400  14.027  20.270   2.320
35075W        W 7401  35.953  32.633   1.818
35076W        W 7402  16.175  12.751  11.821
35077W        W 7403  20.768  33.092   1.690
35078W        W 7404  39.431  26.136   4.247
35079W        W 7405  37.049  21.754   4.843
35080W        W 7406   7.329  41.563  14.089
35081W        W 7407   7.090  17.534  14.783
35082W        W 7408  41.959   9.155   4.957
35083W        W 7409  39.623   2.312   4.500
35084W        W 7410  19.996  16.674  13.960
35085W        W 7411  26.909  29.824  13.049
35086W        W 7412   3.201   9.844  12.439
35087W        W 7413  17.386  21.402   9.980
35088W        W 7414   0.621  39.542   4.104
35089W        W 7415  39.498  39.818   1.914
35090W        W 7416  31.125  20.660  14.402
35091W        W 7417  13.052  17.530  14.438
35092W        W 7418   5.716  37.539   1.788
35093W        W 7419   7.267  16.607  13.515
35094W        W 7420  43.435   9.108   1.259
35095W        W 7421  12.629   9.566  12.539
35096W        W 7422  39.889   6.237   0.481
35097W        W 7423   6.094  37.927  11.197
35098W        W 7424  33.844  23.264  13.152
35099W        W 7425  19.236  11.995   2.429
35100W        W 7426  23.375  42.012   0.293
35101W        W 7427  37.391  10.309   9.753
35102W        W 7428  28.883   9.297  10.675
35103W        W 7429  38.026  29.711   1.174
35104W        W 7430  21.289  35.108  14.428
35105W        W 7431  42.396  30.922  10.921
35106W        W 7432  15.072  25.685  14.869
35107W        W 7433  32.075   6.319  13.182
35108W        W 7434  14.248  37.906  14.908
35109W        W 7435  23.439   4.866   4.631
35110W        W 7436  32.489  28.404  14.047
35111W        W 7437   5.952  26.537   4.565
35112W        W 7438   8.326  37.674  14.363
35113W        W 7439  32.049  18.617  11.929
35114W        W 7440  24.612   3.270   1.834
35115W        W 7441  17.196  18.916   2.365
35116W        W 7442  28.936  26.933  11.913
35117W        W 7443  18.771  11.188   2.268
35118W        W 7444  20.435  16.079  10.873
35119W        W 7445  32.682   4.484   0.797
35120W        W 7446  17.804  40.936   3.315
35121W        W 7447  23.174  14.093  12.106
35122W        W 7448  38.517  22.456   0.736
35123W        W 7449  35.866  39.737   3.266
35124W        W 7450  25.365  31.343  13.464
35125W        W 7451   2.843  17.106   1.484
35126W        W 7452  15.783   9.629  13.538
35127W        W 7453  26.172  15.511  10.511
35128W        W 7454   9.090   8.723  12.488
35129W        W 7455   9.718  24.985   3.080
35130W        W 7456  29.599  29.925   2.758
35131W        W 7457   1.995  43.313   3.206
35132W        W 7458  14.107  41.850  13.357
35133W        W 7459  44.525  13.081  14.615
35134W        W 7460  34.975  38.786  13.387
35135W        W 7461  37.554  41.279  13.959
35136W        W 7462  10.312   7.179  14.248
35137W        W 7463  19.233   0.680  12.642
35138W        W 7464  32.887   0.745  12.589
35139W        W 7465  38.131   1.945  10.402
35140W        W 7466   9.594  24.932  10.638
35141W        W 7467   6.289  17.635  10.743
35142W        W 7468  40.681   2.149   4.502
35143W        W 7469  10.252  16.807  11.975
35144W        W 7470  13.710  29.485  11.318
35145W        W 7471  12.769  31.582   3.641
35146W        W 7472  14.645  32.522   4.160
35147W        W 7473  12.530  20.382   4.200
35148W        W 7474  37.924   1.957   3.830
35149W        W 7475  10.679   3.733   4.653
35150W        W 7476  28.861  26.167  13.898
35151W        W 7477  12.374   3.736   1.734
35152W        W 7478   1.872  37.954  14.308
35153W        W 7479  41.293  15.893   0.031
35154W        W 7480  25.070   9.821   4.568
35155W        W 7481   6.804  32.665   4.478
35156W        W 7482  37.363   8.646   5.030
35157W        W 7483  17.723  41.895  11.698
35158W        W 7484  25.259   9.803   3.191
35159W        W 7485  25.967   3.019  13.847
35160W        W 7486  39.531  36.355   3.845
35161W        W 7487  18.998   8.825   0.325
35162W        W 7488  13.607  23.460  11.153
35163W        W 7489   0.134  23.170  14.277
35164W        W 7490  11.599   3.823   0.055
35165W        W 7491  11.388  44.902  11.568
35166W        W 7492  40.551  40.326  13.329
35167W        W 7493  19.801  15.683  14.464
35168W        W 7494  34.336  43.546  12.558
35169W        W 7495  11.888   4.854  12.684
35170W        W 7496  38.214  13.212  10.174
35171W        W 7497  13.735  38.402  12.484
35172W        W 7498  34.399  30.701  10.796
35173W        W 7499  34.344  16.264  12.098
35174W        W 7500  35.039  23.485   4.878
35175W        W 7501   1.744  24.320   4.672
35176W        W 7502  34.825  26.453  12.444
35177W        W 7503  24.228  24.029  10.688
35178W        W 7504   6.192  30.036  12.242
35179W        W 7505   5.169  27.559   4.223
35180W        W 7506  13.401   3.382   0.433
35181W        W 7507  21.567  10.845  10.370
35182W        W 7508   9.242  29.035   4.212
35183W        W 7509  42.275  11.182  10.499
35184W        W 7510   1.407  33.031   4.616
35185W        W 7511  37.865  17.968   0.283
35186W        W 7512  30.269  12.600   0.555
35187W        W 7513  36.141  17.714   5.231
35188W        W 7514  36.999   3.703  11.113
35189W        W 7515  30.993  33.821  14.418
35190W        W 7516  43.452   2.407   3.247
35191W        W 7517  25.448  39.339  10.555
35192W        W 7518  38.763  34.522  12.430
35193W        W 7519  11.667  27.589  14.520
35194W        W 7520  35.558  12.827   0.936
35195W        W 7521   1.450  22.024   3.577
35196W        W 7522  14.686   0.266  13.841
35197W        W 7523  23.679  35.523   2.433
35198W        W 7524  28.029  24.636   0.042
35199W        W 7525  20.520  27.237  13.842
35200W        W 7526  28.253  29.729  12.662
35201W        W 7527  20.172   1.336  14.818
35202W        W 7528  17.080  33.466   4.918
35203W        W 7529  28.325  10.819   2.840
35204W        W 7530  39.476  17.216  14.327
35205W        W 7531  26.025   6.074  13.516
35206W        W 7532  19.093  19.199  14.487
35207W        W 7533  11.894  20.083   0.905
35208W        W 7534  39.587  30.166   2.347
35209W        W 7535  31.403  24.716   3.307
35210W        W 7536   2.245  26.115  10.620
35211W        W 7537  26.254  41.156  13.778
35212W        W 7538  43.916   6.876   1.659
35213W        W 7539  44.491   6.789   0.784
35214W        W 7540  30.686  23.657   1.920
35215W        W 7541  36.049   1.353   3.096
35216W        W 7542  11.887   5.770   1.947
35217W        W 7543   0.734  29.665  14.352
35218W        W 7544  43.019   5.507  11.946
35219W        W 7545  15.190  40.315  14.263
35220W        W 7546  11.316   8.695  13.491
35221W        W 7547   6.264  30.077  13.241
35222W        W 7548  11.823  14.431   4.138
35223W        W 7549  43.751  16.673   1.642
35224W        W 7550  17.853  33.635   1.181
35225W        W 7551  11.230  33.386   4.185
35226W        W 7552   1.609  39.018   3.915
35227W        W 7553  22.355  39.869   1.241
35228W        W 7554  28.139   8.406  11.225
35229W        W 7555  13.673  39.982   1.716
35230W        W 7556  32.879  28.199   2.066
35231W        W 7557  29.166  15.987  12.531
35232W        W 7558  15.823  28.159   3.750
35233W        W 7559  13.155   9.446   4.584
35234W        W 7560   3.564   5.125  11.143
35235W        W 7561   9.383  19.801   2.838
35236W        W 7562   3.328   9.374  13.820
35237W        W 7563  14.627  10.093  14.910
35238W        W 7564  19.258  35.336  12.562
35239W        W 7565  44.431   3.709   0.783
35240W        W 7566  41.324  38.602  13.548
35241W        W 7567  26.697  36.903  11.008
35242W        W 7568  22.122  43.047  13.034
35243W        W 7569  34.819  21.070  10.638
35244W        W 7570  10.198  23.275  11.058
35245W        W 7571   2.435   3.181   1.762
35246W        W 7572   4.676  25.651   4.569
35247W        W 7573   3.866  19.777   2.363
35248W        W 7574  11.737  18.283   0.643
35249W        W 7575   6.540  43.040   0.429
35250W        W 7576  42.905  31.619   4.277
35251W        W 7577  28.516  40.244   5.189
35252W        W 7578  41.606  25.015   4.065
35253W        W 7579  44.285  28.596   4.064
35254W        W 7580  18.090  39.837  12.946
35255W        W 7581  22.166  26.505   3.852
35256W        W 7582  10.619  19.020  11.557
35257W        W 7583   1.966  21.220   3.741
35258W        W 7584  30.213  27.444   0.693
35259W        W 7585  11.620   1.948  13.217
35260W        W 7586  32.506  31.346  13.990
35261W        W 7587  24.122  24.505   1.913
35262W        W 7588   4.671   6.889   5.008
35263W        W 7589   2.772  20.243  10.732
35264W        W 7590   0.753  41.846   1.845
35265W        W 7591  44.832  26.061   2.435
35266W        W 7592  14.552  27.499   4.930
35267W        W 7593  14.041  12.334  13.932
35268W        W 7594   5.766  44.140   3.304
35269W        W 7595  37.635  25.119   1.547
35270W        W 7596  37.067  38.366   3.603
35271W        W 7597  17.206  19.446   2.295
35272W        W 7598  23.505   7.181   2.988
35273W        W 7599  25.563  36.080   4.612
35274W        W 7600   4.814   6.700  14.343
35275W        W 7601  12.287  40.237   2.249
35276W        W 7602  37.086  42.417   0.386
35277W        W 7603  24.271   4.440  14.796
35278W        W 7604  33.847  26.792  12.572
35279W        W 7605  22.969   9.869  11.756
35280W        W 7606   3.494  29.001  11.517
35281W        W 7607  13.885   9.145   0.893
35282W        W 7608  44.455   4.929   1.307
35283W        W 7609  25.100  36.199   1.280
35284W        W 7610   2.443  33.866   4.887
35285W        W 7611   9.174  26.957   4.846
35286W        W 7612  19.197   1.845   1.721
35287W        W 7613  44.508   1.404   0.799
35288W        W 7614  28.151  39.383  10.941
35289W        W 7615  38.965  14.149  10.215
35290W        W 7616   1.545   7.866   3.185
35291W        W 7617  25.025   4.018  14.785
35292W        W 7618  25.281   2.877   0.330
35293W        W 7619   3.453   4.902  14.045
35294W        W 7620  34.555   3.859   2.222
35295W        W 7621  32.390  22.919   4.928
35296W        W 7622  13.412  27.594   4.210
35297W        W 7623   7.937  14.068   3.696
35298W        W 7624  16.261  11.586   3.268
35299W        W 7625  29.277  28.604   0.381
35300W        W 7626  21.006  19.733  13.416
35301W        W 7627  40.017  40.020  12.934
35302W        W 7628   8.150  36.035   0.113
35303W        W 7629   8.152  33.077   3.851
35304W        W 7630  24.602   8.521  14.863
35305W        W 7631  26.232  33.370  14.332
35306W        W 7632  20.543  35.597   4.200
35307W        W 7633  37.494  38.115   3.405
35308W        W 7634  16.233  11.417   4.609
35309W        W 7635  29.542   4.960  12.035
35310W        W 7636  40.108  22.766   0.863
35311W        W 7637  25.208   5.130  14.335
35312W        W 7638  14.271  40.910  14.995
35313W        W 7639  30.194   7.865   3.865
35314W        W 7640  14.089  14.328   2.361
35315W        W 7641  32.557  44.105  13.986
35316W        W 7642  11.219   1.438  10.732
35317W        W 7643  34.390  21.366  10.710
35318W        W 7644  20.144  41.786   4.562
35319W        W 7645   5.516  36.616  11.022
35320W        W 7646   4.042  19.243  14.321
35321W        W 7647  20.196  12.905   4.289
35322W        W 7648   4.418  21.618  10.600
35323W        W 7649  20.280  42.378   2.178
35324W        W 7650  43.806  21.556  10.444
35325W        W 7651  28.163   7.066   4.676
35326W        W 7652  44.343  32.379   2.886
35327W        W 7653  19.685   7.416  10.684
35328W        W 7654  23.042  29.132  13.132
35329W        W 7655  16.610  21.474  11.093
35330W        W 7656  43.912  40.811  14.934
35331W        W 7657  35.888  24.238   2.169
35332W        W 7658   2.722  16.360   2.582
35333W        W 7659  14.062  39.216   5.105
35334W        W 7660   0.203  43.263   2.631
35335W        W 7661  22.002   3.672  11.741
35336W        W 7662   1.217  17.574  10.971
35337W        W 7663  41.197  17.230   0.665
35338W        W 7664  28.004   3.712   4.144
35339W        W 7665  13.743   3.696   3.238
35340W        W 7666  20.706  29.578   1.333
35341W        W 7667  44.058   3.374   1.327
35342W        W 7668  41.449   7.321   2.216
35343W        W 7669  17.190  18.318   1.425
35344W        W 7670  30.131  25.664   3.850
35345W        W 7671   2.013  20.501   4.217
35346W        W 7672  41.615   6.591   2.908
35347W        W 7673  23.069   6.316  14.230
35348W        W 7674  42.991  24.222   2.269
35349W        W 7675  16.252  36.487  12.446
35350W        W 7676  38.990   0.395  12.110
35351W        W 7677  27.471  37.573   0.962
35352W        W 7678  17.035  36.986  12.815
35353W        W 7679  24.626   7.764   2.623
35354W        W 7680  13.548  24.127   4.281
35355W        W 7681  33.507  23.542   0.509
35356W        W 7682  11.132   1.797  13.097
35357W        W 7683   7.717  12.234  13.833
35358W        W 7684  33.352  12.139  13.814
35359W        W 7685   6.232  43.391  11.976
35360W        W 7686  41.966  27.609  13.858
35361W        W 7687  20.311  43.827   3.064
35362W        W 7688  38.848  20.602  12.596
35363W        W 7689  29.905  18.425  14.362
35364W        W 7690  12.491   2.345   2.856
35365W        W 7691  33.000  29.569   2.813
35366W        W 7692  14.138   2.879   1.872
35367W        W 7693  20.251  40.519  11.118
35368W        W 7694  11.798  13.532   2.783
35369W        W 7695  24.376  22.947   1.748
35370W        W 7696  33.939   6.845  14.590
35371W        W 7697   0.104   9.077   3.384
35372W        W 7698  32.178  40.015   4.988
35373W        W 7699  41.196  18.807   3.620
35374W        W 7700  43.423  21.538   4.401
35375W        W 7701  18.234   2.805   1.329
35376W        W 7702  24.083  42.557  10.936
35377W        W 7703   8.428  30.193  13.446
35378W        W 7704  42.077  38.858  11.114
35379W        W 7705  17.967  14.549   3.887
35380W        W 7706   1.854  37.133   0.427
35381W        W 7707  16.268   3.335  10.716
35382W        W 7708  33.633   8.419   1.314
35383W        W 7709  35.321  15.748   4.178
35384W        W 7710  27.040  26.936  10.255
35385W        W 7711  36.926  38.708  11.620
35386W        W 7712  39.769  31.072   4.562
35387W        W 7713  34.376  33.531   0.820
35388W        W 7714  40.224   1.760  11.139
35389W        W 7715  31.812  14.061  13.384
35390W        W 7716  43.294  42.177  10.754
35391W        W 7717  44.201   6.916  11.584
35392W        W 7718  35.786  43.840  14.894
35393W        W 7719  32.444  30.901   1.655
35394W        W 7720   9.320  11.826  10.931
35395W        W 7721  11.698  23.883  13.563
35396W        W 7722  14.619  22.456  14.287
35397W        W 7723  42.935  11.705  14.869
35398W        W 7724  30.129   1.913   0.631
35399W        W 7725   8.774  11.384   4.591
35400W        W 7726  38.416  24.950  11.597
35401W        W 7727  14.711  25.643   2.692
35402W        W 7728   4.464  39.078  10.695
35403W        W 7729  24.985  28.964  13.102
35404W        W 7730  28.147   7.323   1.254
35405W        W 7731  38.389  21.148   2.953
35406W        W 7732  31.785  26.226   4.068
35407W        W 7733   4.736  28.418   2.357
35408W        W 7734  32.610  23.989   3.084
35409W        W 7735  21.964  10.334   4.770
35410W        W 7736  10.497   0.380  10.665
35411W        W 7737  36.021  32.114  12.036
35412W        W 7738   5.342   6.265   4.164
35413W        W 7739  16.891  14.068   0.186
35414W        W 7740   9.680  33.563  13.341
35415W        W 7741  22.666  15.359   3.495
35416W        W 7742   3.757  23.189   1.347
35417W        W 7743   5.847   9.755  13.526
35418W        W 7744  18.267  31.667  14.487
35419W        W 7745  40.186  26.545   1.244
35420W        W 7746  43.030   5.165   1.372
35421W        W 7747  21.012   5.861   0.441
35422W        W 7748   2.607  26.582   0.428
35423W        W 7749  11.172   0.219  13.002
35424W        W 7750  16.010  12.197  14.828
35425W        W 7751  13.196  32.966   2.877
35426W        W 7752  43.771  30.653  14.296
35427W        W 7753  11.581   9.385  13.487
35428W        W 7754  11.325  41.505   2.862
35429W        W 7755  14.826  21.721  12.951
35430W        W 7756  34.162   9.621  12.209
35431W        W 7757  38.597   3.218   5.118
35432W        W 7758   1.721  14.389  11.974
35433W        W 7759  40.444  31.548  14.953
35434W        W 7760  43.519  15.080  10.599
35435W        W 7761  11.283  43.513   1.198
35436W        W 7762  17.472  38.812   3.606
35437W        W 7763  15.077   7.178   1.807
35438W        W 7764  14.465  10.873  12.611
35439W        W 7765  30.768   4.837  11.623
35440W        W 7766   8.325  12.167   0.962
35441W        W 7767  43.218   3.261  11.063
35442W        W 7768  34.726  33.855   0.646
35443W        W 7769   2.462  18.413  13.881
35444W        W 7770  39.452  35.383   0.942
35445W        W 7771  14.196  39.077   1.387
35446W        W 7772  22.761  14.001  12.406
35447W        W 7773  37.486  37.649  12.020
35448W        W 7774  33.780  24.546  14.978
35449W        W 7775  32.584  10.962   1.363
35450W        W 7776  26.406  28.540  14.311
35451W        W 7777  31.717  30.570   3.939
35452W        W 7778   8.745  42.033  14.162
35453W        W 7779  41.646  22.902   0.298
35454W        W 7780  40.523  11.340  14.350
35455W        W 7781  14.876  32.475  14.057
35456W        W 7782  25.447  37.361   0.897
35457W        W 7783  33.629  26.216   0.148
35458W        W 7784  22.681  28.246  14.191
35459W        W 7785  25.091  30.946   0.908
35460W        W 7786  33.524  20.366   1.080
35461W        W 7787   4.947  29.314  14.367
35462W        W 7788  38.901  31.096  12.735
35463W        W 7789  26.804  29.858   1.633
35464W        W 7790  15.105  22.348   0.366
35465W        W 7791  10.168  29.224  12.855
35466W        W 7792  13.928   5.933   3.251
35467W        W 7793   1.552   3.837   2.369
35468W        W 7794   9.800   5.389   3.070
35469W        W 7795   8.895  13.584   3.026
35470W        W 7796   2.205   8.439  11.922
35471W        W 7797  39.973   2.393  13.853
35472W        W 7798  37.992  19.869  10.510
35473W        W 7799  22.080  36.355   0.302
35474W        W 7800   5.524  37.003   2.831
35475W        W 7801  17.420  23.964  12.391
35476W        W 7802  37.010  25.670  11.719
35477W        W 7803  11.816   1.696   3.334
35478W        W 7804  38.828  28.512   3.689
35479W        W 7805  13.049  23.224   0.532
35480W        W 7806  40.126   2.839  12.909
35481W        W 7807  29.183   3.236  12.546
35482W        W 7808   9.236  14.114  14.877
35483W        W 7809  41.722  14.594   0.368
35484W        W 7810  28.530   8.881  13.100
35485W        W 7811  20.809  17.978  12.924
35486W        W 7812   4.371  38.551  10.668
35487W        W 7813  43.999  12.319   4.555
35488W        W 7814  18.544   5.164   4.092
35489W        W 7815  37.659  14.733  12.519
35490W        W 7816  31.498  35.328  14.829
35491W        W 7817  25.038  34.331   0.390
35492W        W 7818  19.879  31.889  11.527
35493W        W 7819  39.987  36.639   4.544
35494W        W 7820  38.576  31.397  13.003
35495W        W 7821  33.652  41.261   5.021
35496W        W 7822  38.688  13.875  13.968
35497W        W 7823   8.474  14.355  11.871
35498W        W 7824  36.341  37.436   0.748
35499W        W 7825  22.508   7.158   3.442
35500W        W 7826  27.952  10.461   4.263
35501W        W 7827  40.599  37.565  12.137
35502W        W 7828  41.982  44.582  14.898
35503W        W 7829  32.503  30.021   2.221
35504W        W 7830  13.378  23.074   2.057
35505W        W 7831  34.190  43.501   2.361
35506W        W 7832  34.860  31.007   0.380
35507W        W 7833   3.444   7.496  12.987
35508W        W 7834  11.675  27.586  10.650
35509W        W 7835  39.315  14.767  10.803
35510W        W 7836  26.431  14.394  11.624
35511W        W 7837  32.396  13.838   1.388
35512W        W 7838  28.619   3.017   3.594
35513W        W 7839  17.834  20.776  12.491
35514W        W 7840  36.128  27.506  10.668
35515W        W 7841  18.037  11.325  13.720
35516W        W 7842  30.044   3.390   2.691
35517W        W 7843  16.635  44.428  10.233
35518W        W 7844   6.295  41.714  11.099
35519W        W 7845  14.885  44.220   0.715
35520W        W 7846   1.807  32.935  10.404
35521W        W 7847   8.184  34.001   0.902
35522W        W 7848  36.559  30.225   4.440
35523W        W 7849  38.982  16.111  10.940
35524W        W 7850   2.166  44.537  11.110
35525W        W 7851  10.301  40.932  13.073
35526W        W 7852  20.707  12.161   2.692
35527W        W 7853  22.554   0.889  14.716
35528W        W 7854  14.603  23.833  13.266
35529W        W 7855  43.376  11.161  11.274
35530W        W 7856   0.504   5.263   3.285
35531W        W 7857  41.876  40.842   3.978
35532W        W 7858   8.371   6.844   2.090
35533W        W 7859  16.636   9.563  12.903
35534W        W 7860  22.716   5.402   2.222
35535W        W 7861  11.791  34.627   0.284
35536W        W 7862   5.761  32.402   3.662
35537W        W 7863  39.558  43.696  12.904
35538W        W 7864  17.278  34.024  12.064
35539W        W 7865  18.886  43.016   2.418
35540W        W 7866  28.472  41.490   3.978
35541W        W 7867   0.804  21.412  12.396
35542W        W 7868  22.311  25.973   0.782
35543W        W 7869  26.466  38.948   0.127
35544W        W 7870   7.239  15.339   4.091
35545W        W 7871  18.707  12.073  13.041
35546W        W 7872  38.611  35.522   3.128
35547W        W 7873  21.482  10.315  13.038
35548W        W 7874   4.864  30.771  12.331
35549W        W 7875  44.844  24.453  11.193
35550W        W 7876  29.935   4.723  14.304
35551W        W 7877  36.051  31.925  11.553
35552W        W 7878  14.432  32.557   1.660
35553W        W 7879   2.455   1.779   2.611
35554W        W 7880  30.595   8.239  11.564
35555W        W 7881  27.158  42.916   0.051
35556W        W 7882  24.158  11.203  10.965
35557W        W 7883  25.617  27.023  13.083
35558W        W 7884  24.132  26.167  12.809
35559W        W 7885   1.648  32.896  12.330
35560W        W 7886  43.278  19.327   4.788
35561W        W 7887  19.670  41.277   3.586
35562W        W 7888  43.366  24.551   2.079
35563W        W 7889  32.058  35.250  10.562
35564W        W 7890  42.373  18.725  12.061
35565W        W 7891  20.613   6.902  11.023
35566W        W 7892  35.403  26.290  13.525
35567W        W 7893   9.132   4.244  14.348
35568W        W 7894  24.205  18.149   5.224
35569W        W 7895  30.687  21.046   0.790
35570W        W 7896  29.756   9.134   2.920
35571W        W 7897  20.696  12.810  10.536
35572W        W 7898  22.661   6.365   4.610
35573W        W 7899  39.910  14.768   2.421
35574W        W 7900   8.586   5.190  12.886
35575W        W 7901   0.886  21.277  11.104
35576W        W 7902   7.102   1.799  14.349
35577W        W 7903  33.905  27.137   0.498
35578W        W 7904  38.604  16.726   1.376
35579W        W 7905  18.963  19.683  11.630
35580W        W 7906   1.436  44.733  14.533
35581W        W 7907  29.914   7.704   1.771
35582W        W 7908  13.629  38.151  10.700
35583W        W 7909  40.229  10.479  12.499
35584W        W 7910   7.307  15.401  11.985
35585W        W 7911  24.129   0.886  14.875
35586W        W 7912  38.269  27.878  13.833
35587W        W 7913  26.505  20.239   1.758
35588W        W 7914  33.435  14.070  14.790
35589W        W 7915   6.721  19.498  14.287
35590W        W 7916  44.557  36.588  12.437
35591W        W 7917  11.242  30.448  14.463
35592W        W 7918   5.335  16.625   1.842
35593W        W 7919  13.296  42.325   4.108
35594W        W 7920   7.927  37.899  14.749
35595W        W 7921  11.284  39.656   3.170
35596W        W 7922  37.593  43.788   2.121
35597W        W 7923   6.376  33.661  11.540
35598W        W 7924  41.000  12.948   1.903
35599W        W 7925  14.410   5.812   0.593
35600W        W 7926   8.216  34.288  12.574
35601W        W 7927  25.753  34.530   1.371
35602W        W 7928   0.862  34.470  13.682
35603W        W 7929  37.071  39.281   4.614
35604W        W 7930  20.738   0.353  11.151
35605W        W 7931  41.004  29.006   0.260
35606W        W 7932  20.925   1.231   1.000
35607W        W 7933  38.378  28.572  12.490
35608W        W 7934  14.538  16.976   3.236
35609W        W 7935  36.443  42.676   4.831
35610W        W 7936  31.706   2.085   2.827
35611W        W 7937  37.923  13.634  10.173
35612W        W 7938  20.483  35.581   1.842
35613W        W 7939  21.845   3.311  14.025
35614W        W 7940  25.066   5.983  11.941
35615W        W 7941  27.363  36.001   4.590
35616W        W 7942   0.030  20.959   2.814
35617W        W 7943  19.512  18.725   2.921
35618W        W 7944  17.021   7.351  10.354
35619W        W 7945  39.178   3.366   4.309
35620W        W 7946  35.939   7.601   0.442
35621W        W 7947  41.894   4.263  13.767
35622W        W 7948  14.221  33.915  14.318
35623W        W 7949  39.424  15.709   1.863
35624W        W 7950   1.395  31.384  12.971
35625W        W 7951  25.432  38.291  11.692
35626W        W 7952   6.751  31.735   2.813
35627W        W 7953   0.955   1.465  12.942
35628W        W 7954  43.466  21.533  11.031
35629W        W 7955   1.911  40.885  11.754
35630W        W 7956  42.356  27.474  10.900
35631W        W 7957  31.191   6.348   0.363
35632W        W 7958  25.929  12.145  10.986
35633W        W 7959  26.429  14.293  12.980
35634W        W 7960  26.696   7.674  13.122
35635W        W 7961   2.441  13.105  12.108
35636W        W 7962   4.721  16.009  11.370
35637W        W 7963   7.313   2.776   1.294
35638W        W 7964  20.596  39.022  11.547
35639W        W 7965   4.295  29.251   2.309
35640W        W 7966  43.478  41.290  11.508
35641W        W 7967  28.171  10.101   3.412
35642W        W 7968  16.273  44.333   2.365
35643W        W 7969  20.993  43.259   3.221
35644W        W 7970  13.735  21.561  11.086
35645W        W 7971  29.586  31.954   4.009
35646W        W 7972   4.289   8.829   2.092
35647W        W 7973  43.677  41.634  11.181
35648W        W 7974  30.640  33.395  12.485
35649W        W 7975  39.096   2.744  14.225
35650W        W 7976  20.069  16.894  13.035
35651W        W 7977  21.607  33.055   4.358
35652W        W 7978  22.015   1.648   3.263
35653W        W 7979  12.354  25.119  12.934
35654W        W 7980  38.110  23.182  11.558
35655W        W 7981  16.584  40.831  11.206
35656W        W 7982  14.718   7.400   0.585
35657W        W 7983   7.191  41.316   2.847
35658W        W 7984  17.301   9.794   3.842
35659W        W 7985  34.467  43.930  11.158
35660W        W 7986  29.201   7.817  10.620
35661W        W 7987  42.103  17.063   3.175
35662W        W 7988  29.918  38.542   0.896
35663W        W 7989  10.344   3.341   4.659
35664W        W 7990   5.162   9.243  14.076
35665W        W 7991  29.572   3.980  13.423
35666W        W 7992  43.967  36.347   1.831
35667W        W 7993  17.957  21.036   0.759
35668W        W 7994  28.173  36.964  13.329
35669W        W 7995  14.877  17.801  12.208
35670W        W 7996   6.716  41.356   4.587
35671W        W 7997   7.573   6.426   1.199
35672W        W 7998  35.714  27.471  10.961
35673W        W 7999  12.728  39.786  12.539
35674W        W 8000  15.609   3.359   3.629
35675W        W 8001  27.629  28.192   0.664
35676W        W 8002   9.645  17.431   1.900
35677W        W 8003  30.035  39.849  14.506
35678W        W 8004  38.906  26.994   4.109
35679W        W 8005  27.432  29.146   3.236
35680W        W 8006  36.820  22.824   0.561
35681W        W 8007  20.639  28.430   2.283
35682W        W 8008  17.932  41.414  12.694
35683W        W 8009  23.758  21.746   0.781
35684W        W 8010  29.712  35.467  10.983
35685W        W 8011  12.157   2.177   1.338
35686W        W 8012  41.871  21.604   0.181
35687W        W 8013  23.012  18.425  11.150
35688W        W 8014  38.389  29.179  13.392
35689W        W 8015  20.587  43.471   4.774
35690W        W 8016  10.397  17.736   4.242
35691W        W 8017   9.773  33.250  12.314
35692W        W 8018  25.290  28.561  13.860
35693W        W 8019  13.275  35.493  14.234
35694W        W 8020  34.375  43.966  14.142
35695W        W 8021  34.029  10.652  10.393
35696W        W 8022  23.481  38.368  12.072
35697W        W 8023  41.239  14.627   1.235
35698W        W 8024  20.763  35.426   3.214
35699W        W 8025  30.158  21.632   2.392
35700W        W 8026   2.249  21.800  13.468
35701W        W 8027   5.825  36.668   1.249
35702W        W 8028  18.122   2.203  13.913
35703W        W 8029  32.068  30.569   2.350
35704W        W 8030  11.175  12.854   2.828
35705W        W 8031  39.570  14.046   2.468
35706W        W 8032  37.093  32.452  12.844
35707W        W 8033  41.811  40.763  12.067
35708W        W 8034   2.242   4.606  12.380
35709W        W 8035   8.233   2.289   1.303
35710W        W 8036  40.389   4.845  12.852
35711W        W 8037  26.073  35.857  13.850
35712W        W 8038  17.703  31.978  13.388
35713W        W 8039  40.998  35.642   0.500
35714W        W 8040  42.079  22.527   1.911
35715W        W 8041  13.768  27.939  13.219
35716W        W 8042  29.662   5.269   2.198
35717W        W 8043  41.029  36.888   0.738
35718W        W 8044  38.150  35.422  13.302
35719W        W 8045  25.741  35.656   3.285
35720W        W 8046  42.151  11.242   4.476
35721W        W 8047  12.118  17.203   3.018
35722W        W 8048  22.900  15.364  14.739
35723W        W 8049   4.961  11.247  14.456
35724W        W 8050  24.165  39.041   2.716
35725W        W 8051  28.516  11.942  14.616
35726W        W 8052  16.751  21.441   1.170
35727W        W 8053  36.090  32.873  11.450
35728W        W 8054  12.406  12.640   0.374
35729W        W 8055  30.465  26.432  11.932
35730W        W 8056  20.272  23.503   2.695
35731W        W 8057  34.367   7.463   1.437
35732W        W 8058  34.327  25.122  11.585
35733W        W 8059   5.403  21.209   4.923
35734W        W 8060  27.041  23.799   1.231
35735W        W 8061  33.261  40.234  14.846
35736W        W 8062  26.478  10.927  11.066
35737W        W 8063  11.770  40.260   2.366
35738W        W 8064  10.739  23.166   2.519
35739W        W 8065  42.957  16.714  14.300
35740W        W 8066   3.369  15.756   2.383
35741W        W 8067  29.887  16.829  13.540
35742W        W 8068  13.849   5.150   4.564
35743W        W 8069   4.382  29.644   4.003
35744W        W 8070  27.663  41.612  13.813
35745W        W 8071  26.922  18.107   3.847
35746W        W 8072   2.228  38.366  13.561
35747W        W 8073  43.264   2.849  11.809
35748W        W 8074  10.627  23.656  11.517
35749W        W 8075   4.343  27.654  12.537
35750W        W 8076  40.286  34.629   0.425
35751W        W 8077  44.734  41.979   2.836
35752W        W 8078  26.622   6.346  13.918
35753W        W 8079   1.775   3.493  13.839
35754W        W 8080  19.971  37.541   3.767
35755W        W 8081   2.988  13.269  12.986
35756W        W 8082  28.514  23.150   3.141
35757W        W 8083   6.728   3.979   3.381
35758W        W 8084  26.560  11.606  13.748
35759W        W 8085  16.787  32.065   1.707
35760W        W 8086   7.480  37.553   2.388
35761W        W 8087   6.414  40.932  11.571
35762W        W 8088  44.484  14.836   2.106
35763W        W 8089   6.299  27.734   5.052
35764W        W 8090  18.498  32.147  13.366
35765W        W 8091   9.407  23.178   2.686
35766W        W 8092  44.135  30.388  12.172
35767W        W 8093  40.016  44.454  12.061
35768W        W 8094   1.267  32.614   3.864
35769W        W 8095  43.072  15.528   3.732
35770W        W 8096  29.746  25.005   4.311
35771W        W 8097  16.646   2.009  10.739
35772W        W 8098  34.562  37.911  14.402
35773W        W 8099  21.602  29.041   0.451
35774W        W 8100  14.154  36.894  14.925
35775W        W 8101  13.689  32.396  12.908
35776W        W 8102   5.556  32.502   0.254
35777W        W 8103  35.010  24.505  13.420
35778W        W 8104  21.526  30.584   0.525
35779W        W 8105  23.512  22.193  11.450
35780W        W 8106  38.141  37.756   0.365
35781W        W 8107   6.282   9.213   4.900
35782W        W 8108  12.700  26.880   5.011
35783W        W 8109  14.373   3.962  14.389
35784W        W 8110  42.478   4.201  13.034
35785W        W 8111  33.544  10.624  12.848
35786W        W 8112   2.510  36.711   2.669
35787W        W 8113  34.533  37.392   0.366
35788W        W 8114  39.561  28.313  14.715
35789W        W 8115  35.340   4.259   2.754
35790W        W 8116  42.383  15.739   3.149
35791W        W 8117   5.840  21.312   4.188
35792W        W 8118   5.370   0.468   3.157
35793W        W 8119   2.905  40.092  12.448
35794W        W 8120   0.212  20.455  11.960
35795W        W 8121  13.628  22.097  13.652
35796W        W 8122  27.967  41.084   3.153
35797W        W 8123  42.873  34.563  11.059
35798W        W 8124   0.374  16.247   4.598
35799W        W 8125   2.715  40.767   0.770
35800W        W 8126   3.182  31.613  12.230
35801W        W 8127  10.642  35.018   2.659
35802W        W 8128  36.268  26.989  11.382
35803W        W 8129  31.302  10.417  14.743
35804W        W 8130  12.470  36.686  14.973
35805W        W 8131  25.523  10.849   4.369
35806W        W 8132  36.857  32.530   4.726
35807W        W 8133  13.217  39.845   1.924
35808W        W 8134  19.955  15.994   4.590
35809W        W 8135   4.361  40.564   0.293
35810W        W 8136  18.778   6.606  13.400
35811W        W 8137   4.905  16.015   1.215
35812W        W 8138   1.513  22.119  14.914
35813W        W 8139   7.576  30.685   9.962
35814W        W 8140  37.953  35.453   2.257
35815W        W 8141  18.569  25.176  14.498
35816W        W 8142  33.523  23.788   0.979
35817W        W 8143  18.779  34.395  10.125
35818W        W 8144  37.825  30.613  12.025
35819W        W 8145  17.561  18.546   3.652
35820W        W 8146   7.257  14.063  12.504
35821W        W 8147  27.028   1.805   0.240
35822W        W 8148  23.018   0.346   3.221
35823W        W 8149  31.137  24.797   3.732
35824W        W 8150  14.173  31.096   0.759
35825W        W 8151  32.925  30.489  13.432
35826W        W 8152  15.260   7.536   4.614
35827W        W 8153  27.660   6.747   0.777
35828W        W 8154  11.844  35.859  12.863
35829W        W 8155  12.347  30.502   2.614
35830W        W 8156  28.023  28.552  11.990
35831W        W 8157  25.098  26.615  14.788
35832W        W 8158  21.074  21.946  14.282
35833W        W 8159  14.557  15.880   1.272
35834W        W 8160   9.653  30.203   2.870
35835W        W 8161  41.356  11.381  11.826
35836W        W 8162  41.437   4.983  12.984
35837W        W 8163  40.210  15.831  12.875
35838W        W 8164  10.723  44.248  14.871
35839W        W 8165  28.108   9.038  11.013
35840W        W 8166  44.394   9.942   3.702
35841W        W 8167  14.781   4.382  12.840
35842W        W 8168  28.583  31.859  11.031
35843W        W 8169  33.154  32.166  14.263
35844W        W 8170  22.021   9.880   3.968
35845W        W 8171  30.572  11.126   4.066
35846W        W 8172  28.467   1.728  12.909
35847W        W 8173  17.009  34.166   3.996
35848W        W 8174  42.965  37.135   2.138
35849W        W 8175  16.804  25.777  13.401
35850W        W 8176  25.152  30.091   2.596
35851W        W 8177   2.493  23.669   3.146
35852W        W 8178  21.308  10.719  11.449
35853W        W 8179  10.776   4.245   4.668
35854W        W 8180  32.605   6.125  12.368
35855W        W 8181   5.361   0.987   0.009
35856W        W 8182  23.705  37.044   3.728
35857W        W 8183  32.894  18.255  13.729
35858W        W 8184   5.052  40.575   9.871
35859W        W 8185   4.694  40.947  10.652
35860W        W 8186  42.751  18.109  10.438
35861W        W 8187  39.847  28.178  11.677
35862W        W 8188  15.014   1.972   2.203
35863W        W 8189   0.621   1.305  13.293
35864W        W 8190  26.231  21.683   0.334
35865W        W 8191  12.594   6.408  11.478
35866W        W 8192   2.172  42.730  14.746
35867W        W 8193  11.102   9.950  11.011
35868W        W 8194   2.754  32.979   0.524
35869W        W 8195  11.289   0.741  13.676
35870W        W 8196  23.625  20.245  14.898
35871W        W 8197   2.372  33.396  12.108
35872W        W 8198   2.607   8.223  12.988
35873W        W 8199  42.876  26.418   4.042
35874W        W 8200  43.268  44.278  10.763
35875W        W 8201  36.552  21.145  10.665
35876W        W 8202  10.410  25.710   0.994
35877W        W 8203   3.214  16.129   1.788
35878W        W 8204  16.008  17.791  13.933
35879W        W 8205  24.349  44.959  11.122
35880W        W 8206  33.940  32.759   4.179
35881W        W 8207   7.892  22.990  10.827
35882W        W 8208  34.621  21.131   3.526
35883W        W 8209  28.376  21.256   2.370
35884W        W 8210  20.467  10.694  11.200
35885W        W 8211  11.351  26.664   0.732
35886W        W 8212  25.616   4.627   4.941
35887W        W 8213   0.043  10.229  10.697
35888W        W 8214  35.929   8.112   4.074
35889W        W 8215  29.699  41.975  12.067
35890W        W 8216  22.162  15.046  14.425
35891W        W 8217  10.299  35.542  13.078
35892W        W 8218  40.839  24.271   4.633
35893W        W 8219  13.813   4.263  10.618
35894W        W 8220  40.658  19.964   0.432
35895W        W 8221  43.289   6.382   3.187
35896W        W 8222  23.069   4.661  11.122
35897W        W 8223   8.103   6.507  14.385
35898W        W 8224  41.290  10.021   0.541
35899W        W 8225  12.326   2.678   1.360
35900W        W 8226  34.958  14.304  10.949
35901W        W 8227  25.802   1.388   0.383
35902W        W 8228  12.291  14.509   1.972
35903W        W 8229   9.174  12.674   2.207
35904W        W 8230  21.139  19.361   4.430
35905W        W 8231  11.385  43.098  14.447
35906W        W 8232  22.936  27.098  14.031
35907W        W 8233  31.437  28.451  12.563
35908W        W 8234  21.998  11.171   4.841
35909W        W 8235   3.370  11.026  12.055
35910W        W 8236  15.255  36.152   3.307
35911W        W 8237  37.893  18.006  12.968
35912W        W 8238  14.264   7.786  11.989
35913W        W 8239  32.159  13.292   2.719
35914W        W 8240  36.800  41.776  13.983
35915W        W 8241  18.173  41.127  10.488
35916W        W 8242  21.694  31.616   1.649
35917W        W 8243  17.759  44.969   4.184
35918W        W 8244  27.719  26.650  12.854
35919W        W 8245  23.192  12.078   3.204
35920W        W 8246  10.332  31.963   1.060
35921W        W 8247   3.051  10.708  14.414
35922W        W 8248  30.577  13.279  14.994
35923W        W 8249   2.744   5.173   4.901
35924W        W 8250   7.262  25.141   4.575
35925W        W 8251  30.239   9.132  12.078
35926W        W 8252  17.740  31.152   0.878
35927W        W 8253  43.316  15.452   2.779
35928W        W 8254  11.413  42.991  10.301
35929W        W 8255  26.051   6.861  11.544
35930W        W 8256  44.175  43.399  11.469
35931W        W 8257  43.468  17.178  13.521
35932W        W 8258   0.729  41.216   1.008
35933W        W 8259  16.708  26.770  13.066
35934W        W 8260   2.793  35.485   4.228
35935W        W 8261   7.326  10.284  13.715
35936W        W 8262  43.036   1.905  11.212
35937W        W 8263  22.255  44.545  11.121
35938W        W 8264  37.919   0.930   4.409
35939W        W 8265  11.156  23.668  12.824
35940W        W 8266   6.610  15.052   0.323
35941W        W 8267  30.109  11.286   2.920
35942W        W 8268  16.434  18.818   1.942
35943W        W 8269   8.798  42.886   2.566
35944W        W 8270  41.990  26.848   3.349
35945W        W 8271  32.080  15.037   4.833
35946W        W 8272  35.018   6.863  11.182
35947W        W 8273  23.477  39.369   4.118
35948W        W 8274  12.471  12.558  10.732
35949W        W 8275  25.168  18.522   1.947
35950W        W 8276  17.978   6.821   4.245
35951W        W 8277  19.504  13.067   2.802
35952W        W 8278  38.422  32.124   0.427
35953W        W 8279   7.941  30.829   0.476
35954W        W 8280   4.929   8.498   1.921
35955W        W 8281  11.144   7.876   2.832
35956W        W 8282  35.880   8.918   1.810
35957W        W 8283  40.797  22.215  12.024
35958W        W 8284  17.894  31.501  13.501
35959W        W 8285   7.814  22.915   0.277
35960W        W 8286   4.255  44.683  13.808
35961W        W 8287  39.577  29.476   0.430
35962W        W 8288   7.390  40.342  10.638
35963W        W 8289  31.076  39.766  11.399
35964W        W 8290   4.833  17.459  14.197
35965W        W 8291   7.430  21.710  14.378
35966W        W 8292  14.386   2.192   4.867
35967W        W 8293   7.630  15.557   4.734
35968W        W 8294  43.553   3.118  14.733
35969W        W 8295  26.621  11.428  11.098
35970W        W 8296  23.060   0.963  13.870
35971W        W 8297   3.452  20.105   3.138
35972W        W 8298  36.034  27.543   3.251
35973W        W 8299  11.754  35.001  10.378
35974W        W 8300  32.996  13.734  12.413
35975W        W 8301  37.039   9.295  13.820
35976W        W 8302  10.149   5.678   2.790
35977W        W 8303   2.984  19.108  14.330
35978W        W 8304   1.426  17.843  10.587
35979W        W 8305  44.910  11.037   0.284
35980W        W 8306   9.002  38.263  13.900
35981W        W 8307  10.676  34.352  11.714
35982W        W 8308   1.292  14.193   4.653
35983W        W 8309  24.685   4.083  13.823
35984W        W 8310  27.807  38.141  12.964
35985W        W 8311  12.869  40.932  13.761
35986W        W 8312  39.780   5.641   1.197
35987W        W 8313  20.081   4.458   2.501
35988W        W 8314  35.138  34.823   4.172
35989W        W 8315   3.172  38.819   1.614
35990W        W 8316  26.886  33.511  13.017
35991W        W 8317  11.204  12.381  14.791
35992W        W 8318  17.174   0.069   4.862
35993W        W 8319  31.550   3.304   0.505
35994W        W 8320  24.542  41.467  12.023
35995W        W 8321  26.541  19.528   2.729
35996W        W 8322  19.683   7.347  11.185
35997W        W 8323  42.204   5.724  12.942
35998W        W 8324  12.113   0.828  12.890
35999W        W 8325  19.402  43.744   0.907
36000W        W 8326  14.824  28.007   0.673
36001W        W 8327  16.236  34.065   4.644
36002W        W 8328  11.110  23.086   0.015
36003W        W 8329  23.593  23.429   1.284
36004W        W 8330  13.175  16.577  10.732
36005W        W 8331  22.569  26.004   1.244
36006W        W 8332  32.968  15.583   4.094
36007W        W 8333   9.817  19.487   3.535
36008W        W 8334  43.494  10.655  12.591
36009W        W 8335  22.790  32.464   2.414
36010W        W 8336  40.003  39.231   4.967
36011W        W 8337   5.227  33.605   2.413
36012W        W 8338  13.671  17.026   1.501
36013W        W 8339   4.739  23.485   3.552
36014W        W 8340  13.711  22.712  14.866
36015W        W 8341   7.325  18.658  14.342
36016W        W 8342  21.497  24.526  12.070
36017W        W 8343   9.768  20.333   1.407
36018W        W 8344  16.501  17.626   1.337
36019W        W 8345  14.169  39.346  11.223
36020W        W 8346  24.478  19.201  11.869
36021W        W 8347  37.051  10.776   3.335
36022W        W 8348   9.392  31.922   3.158
36023W        W 8349  30.160  43.036   4.010
36024W        W 8350  21.915  16.779   1.754
36025W        W 8351  24.014  42.389   0.940
36026W        W 8352  21.743  40.124  12.929
36027W        W 8353  22.657  41.421   4.657
36028W        W 8354  28.282  10.048   0.947
36029W        W 8355   8.702  18.654   5.009
36030W        W 8356  14.379  25.715   5.309
36031W        W 8357  19.268  24.250   0.330
36032W        W 8358   6.780  42.337   3.396
36033W        W 8359  29.707  29.110   3.156
36034W        W 8360   9.188  13.642   4.271
36035W        W 8361   1.317  43.440  11.896
36036W        W 8362   5.868  34.437   2.661
36037W        W 8363  30.588  43.982  12.335
36038W        W 8364  20.086  19.075  14.384
36039W        W 8365   9.634  29.952  12.021
36040W        W 8366  24.704  17.913   4.203
36041W        W 8367  28.710  41.786   2.306
36042W        W 8368  15.955  12.559  12.832
36043W        W 8369   0.327  27.482  13.958
36044W        W 8370   8.337   3.180  11.927
36045W        W 8371  42.714  22.106   2.756
36046W        W 8372  23.019  25.998  11.407
36047W        W 8373  13.755  38.289   3.846
36048W        W 8374  44.309  25.412  10.778
36049W        W 8375  44.660  11.376  10.476
36050W        W 8376  32.510   6.609   2.294
36051W        W 8377   3.226  26.654  13.494
36052W        W 8378   2.418  40.126  12.068
36053W        W 8379  34.718  20.937   3.009
36054W        W 8380   5.831  25.670  14.342
36055W        W 8381  10.095   0.846  12.657
36056W        W 8382  43.715  20.691  14.922
36057W        W 8383  22.010   6.775   1.762
36058W        W 8384  27.975  36.791  12.380
36059W        W 8385  11.802  24.464   0.305
36060W        W 8386  30.378  25.219   1.901
36061W        W 8387  35.185  40.812  11.995
36062W        W 8388  18.542  23.883  12.127
36063W        W 8389  27.050  31.150  10.707
36064W        W 8390   7.792  14.254  12.486
36065W        W 8391  13.249  33.092  12.087
36066W        W 8392  29.011  44.359  12.056
36067W        W 8393  37.645  25.713  12.888
36068W        W 8394   4.897   1.504  14.028
36069W        W 8395  17.209  42.004   1.729
36070W        W 8396  29.980   3.371   4.092
36071W        W 8397  24.894  12.670  12.629
36072W        W 8398   9.270  24.040  11.619
36073W        W 8399  36.232  32.124   0.014
36074W        W 8400  20.856   9.876   0.040
36075W        W 8401  33.127  44.882   0.910
36076W        W 8402  36.561  17.258  12.871
36077W        W 8403   3.304  42.446   0.862
36078W        W 8404  39.035  39.404  14.477
36079W        W 8405   4.900  11.274  13.037
36080W        W 8406  28.108  19.843  14.974
36081W        W 8407  28.171  42.893   4.292
36082W        W 8408  34.565  44.392   0.950
36083W        W 8409  41.018  32.615   1.481
36084W        W 8410  40.510   2.027  10.758
36085W        W 8411   0.558  41.009   4.213
36086W        W 8412  32.353  10.240   4.585
36087W        W 8413  32.801  25.180   4.475
36088W        W 8414   2.371  41.924   4.588
36089W        W 8415  20.636   8.431  10.535
36090W        W 8416  24.435  28.433  10.527
36091W        W 8417  39.553  29.550   1.334
36092W        W 8418  44.874  10.691   4.577
36093W        W 8419  18.736  39.455  10.748
36094W        W 8420  21.068   6.286  13.859
36095W        W 8421  24.026  19.468   3.269
36096W        W 8422  28.694  26.832   3.244
36097W        W 8423  24.225  19.539  10.611
36098W        W 8424  17.118   2.143  12.892
36099W        W 8425  35.971  29.321  10.324
36100W        W 8426   4.764   4.853  10.193
36101W        W 8427  23.058   8.938   4.647
36102W        W 8428  41.879  19.423   4.364
36103W        W 8429  42.485  20.763   0.249
36104W        W 8430  16.676  20.526  14.662
36105W        W 8431   4.720  19.324   3.309
36106W        W 8432  36.839  44.789   4.412
36107W        W 8433  20.084   4.278   2.032
36108W        W 8434   9.715   1.007   0.728
36109W        W 8435  12.379  23.612   1.290
36110W        W 8436   2.016  41.912   3.896
36111W        W 8437  30.571  37.302  11.163
36112W        W 8438  33.020  39.272   3.042
36113W        W 8439  36.371  25.689  11.132
36114W        W 8440  17.096  36.521  12.007
36115W        W 8441  41.944  18.005   1.324
36116W        W 8442  43.879  18.278  11.212
36117W        W 8443  18.004  30.628  11.540
36118W        W 8444  43.528  39.860  11.316
36119W        W 8445   6.455  38.830   5.192
36120W        W 8446  22.195   9.686  14.951
36121W        W 8447  11.864  36.463   3.364
36122W        W 8448  28.140  18.012   4.164
36123W        W 8449  16.807  15.825   0.847
36124W        W 8450  35.830  12.714  13.745
36125W        W 8451  11.854  21.126  11.672
36126W        W 8452  13.124  34.356   0.783
36127W        W 8453   0.260  26.130   1.145
36128W        W 8454  12.391  32.179   0.424
36129W        W 8455  13.160   7.395  12.474
36130W        W 8456   3.858   4.695  11.087
36131W        W 8457  23.492  29.131   4.108
36132W        W 8458  36.092  21.769   0.395
36133W        W 8459   6.275   2.880  12.610
36134W        W 8460  20.208  15.415   0.279
36135W        W 8461   1.356   4.740  13.924
36136W        W 8462  28.475  33.307   2.417
36137W        W 8463  38.453  27.283   0.753
36138W        W 8464  14.181  18.979   0.162
36139W        W 8465  27.396   3.586  14.770
36140W        W 8466  43.435   1.689   2.766
36141W        W 8467  24.680  28.146   4.335
36142W        W 8468   0.240  30.108   3.050
36143W        W 8469  29.146  18.512  11.054
36144W        W 8470  28.604   0.273  11.967
36145W        W 8471   3.575  37.628  10.215
36146W        W 8472  34.337  11.877   3.774
36147W        W 8473  32.467   7.786  12.427
36148W        W 8474  37.667  24.097   1.598
36149W        W 8475  27.430   2.706  13.807
36150W        W 8476  37.613  41.271  12.939
36151W        W 8477  18.250   3.017   4.824
36152W        W 8478  22.254  30.431  11.399
36153W        W 8479  16.545  15.057   3.803
36154W        W 8480  18.325  14.508   0.706
36155W        W 8481  41.552  35.052   0.486
36156W        W 8482  33.121   4.716  11.674
36157W        W 8483   7.261   3.860  10.614
36158W        W 8484  26.354  30.278  11.201
36159W        W 8485  17.131  36.011  14.776
36160W        W 8486  30.716  41.441  13.860
36161W        W 8487  14.575  21.509  11.658
36162W        W 8488  38.375  38.160  13.360
36163W        W 8489  29.429   3.873   0.451
36164W        W 8490  17.851  27.471  13.276
36165W        W 8491  21.702   8.316   1.478
36166W        W 8492  32.321  33.587  14.407
36167W        W 8493  26.465   4.872  13.580
36168W        W 8494  33.733  10.698   3.519
36169W        W 8495   2.643  36.691  13.754
36170W        W 8496  41.006   1.284  11.574
36171W        W 8497  35.094   3.769  13.759
36172W        W 8498  29.368  27.067  14.737
36173W        W 8499  20.758  43.428   1.188
36174W        W 8500  38.574  42.969  11.412
36175W        W 8501  15.051  41.394   0.296
36176W        W 8502   3.493  44.060   1.789
36177W        W 8503   8.834  43.734  11.488
36178W        W 8504  20.345   2.478   2.230
36179W        W 8505  25.551   5.146  11.931
36180W        W 8506  35.350  12.546   0.540
36181W        W 8507  43.726   5.303   2.647
36182W        W 8508  25.044  14.913  11.807
36183W        W 8509   4.695  14.501   3.607
36184W        W 8510  24.112  15.138   1.953
36185W        W 8511  15.924  16.370  10.674
36186W        W 8512  23.462   3.014  14.956
36187W        W 8513   4.853  37.754   2.842
36188W        W 8514  33.139  41.084   1.643
36189W        W 8515  28.662  33.040   0.530
36190W        W 8516  18.460  37.427  12.073
36191W        W 8517  32.889  36.267  14.892
36192W        W 8518  39.530   7.710   0.400
36193W        W 8519  22.734  43.219   4.876
36194W        W 8520  29.048  40.108   1.928
36195W        W 8521  27.539  18.624  11.161
36196W        W 8522   9.828   1.439   1.802
36197W        W 8523  23.441  13.601   3.695
36198W        W 8524  19.074  33.129   0.843
36199W        W 8525   7.610  43.111   1.922
36200W        W 8526  38.660  19.205   4.287
36201W        W 8527  41.335  19.301  13.380
36202W        W 8528   2.449  14.767  14.769
36203W        W 8529  24.656  27.705   3.927
36204W        W 8530  31.864   5.925   0.124
36205W        W 8531  22.527   2.194   4.977
36206W        W 8532  28.605  30.072   0.453
36207W        W 8533  24.342  23.582   4.221
36208W        W 8534  43.070  40.002   2.752
36209W        W 8535  38.993   7.969  14.580
36210W        W 8536   7.177  32.039   2.812
36211W        W 8537   2.855  44.935  13.852
36212W        W 8538   8.236  31.583  10.519
36213W        W 8539  11.761  37.389   3.611
36214W        W 8540  37.748   8.680  14.540
36215W        W 8541  25.696  37.753  12.585
36216W        W 8542  32.442  24.241  13.557
36217W        W 8543  25.525  32.354   3.196
36218W        W 8544   2.718  25.652   5.004
36219W        W 8545  21.951  18.146  11.711
36220W        W 8546  38.901  33.154   0.051
36221W        W 8547   3.354  42.731  11.629
36222W        W 8548  42.748  41.916  12.913
36223W        W 8549   4.505  23.428   2.358
36224W        W 8550   4.190  41.757   1.763
36225W        W 8551   8.451  20.179  12.045
36226W        W 8552  14.331  12.138   4.532
36227W        W 8553   6.649  36.036  12.561
36228W        W 8554  20.769  19.309   2.868
36229W        W 8555  23.294  11.872  11.585
36230W        W 8556  26.426  27.616  12.332
36231W        W 8557  33.121  17.149   2.738
36232W        W 8558  33.771  33.852   2.797
36233W        W 8559   7.223  17.557  13.939
36234W        W 8560  38.187  20.206   2.486
36235W        W 8561  32.896  23.906  11.152
36236W        W 8562   2.820  15.195   2.784
36237W        W 8563  16.623  11.287   1.371
36238W        W 8564   0.378  20.049  14.439
36239W        W 8565  29.361  17.297  13.033
36240W        W 8566   9.858  35.838  11.486
36241W        W 8567  18.772  31.563   5.192
36242W        W 8568  38.917   8.023  12.992
36243W        W 8569  39.036   1.280   3.714
36244W        W 8570   8.690  36.266  14.338
36245W        W 8571   3.700  39.260   2.423
36246W        W 8572   9.409  28.562   0.279
36247W        W 8573  34.544  34.398   2.878
36248W        W 8574  28.229  12.924   3.707
36249W        W 8575  31.497  36.643  12.710
36250W        W 8576   0.850  14.194   1.410
36251W        W 8577  12.052   0.832   1.816
36252W        W 8578  32.043  20.222   0.222
36253W        W 8579  28.099   5.268   0.817
36254W        W 8580  31.674  32.365  11.373
36255W        W 8581  30.364   2.606  10.846
36256W        W 8582  43.538  28.382  12.365
36257W        W 8583  39.747  26.699  11.611
36258W        W 8584  34.375  16.804  12.064
36259W        W 8585  25.077  38.088  11.372
36260W        W 8586  38.251  39.358  13.052
36261W        W 8587   6.274  39.839  12.417
36262W        W 8588  31.048  22.076   3.385
36263W        W 8589  31.316  28.935  11.634
36264W        W 8590  13.633  25.312   3.699
36265W        W 8591  14.658  12.851   3.048
36266W        W 8592  39.830  42.032   4.097
36267W        W 8593   7.760  36.646  11.969
36268W        W 8594  22.524  35.973   3.248
36269W        W 8595   2.796  39.505   3.624
36270W        W 8596   4.499  16.235   4.559
36271W        W 8597  22.174  20.994   3.853
36272W        W 8598  13.931   0.870  12.667
36273W        W 8599  11.126  23.544   0.317
36274W        W 8600  25.592  40.627   3.421
36275W        W 8601  36.931  29.673   1.779
36276W        W 8602  18.643  26.070  14.340
36277W        W 8603  12.615  43.246   2.219
36278W        W 8604   3.816  21.741   9.840
36279W        W 8605   4.964  24.721  12.539
36280W        W 8606  39.907   3.502  11.695
36281W        W 8607  32.313  33.442  11.916
36282W        W 8608  21.345  39.433   3.631
36283W        W 8609  36.619  36.616  11.066
36284W        W 8610  32.620  12.563  14.818
36285W        W 8611  15.247   2.996  14.827
36286W        W 8612  20.520   5.314  14.796
36287W        W 8613   1.230  40.481  12.855
36288W        W 8614  33.675  18.669   2.347
36289W        W 8615   9.637  39.371  12.516
36290W        W 8616  15.810  19.321   2.218
36291W        W 8617  38.415  26.514  10.658
36292W        W 8618   9.637   5.310   2.078
36293W        W 8619  33.286  12.300   0.005
36294W        W 8620  44.068   2.373   3.731
36295W        W 8621  31.676  38.397  10.676
36296W        W 8622  23.108  22.244   1.731
36297W        W 8623  19.396  15.689  12.418
36298W        W 8624  12.475  22.936  11.538
36299W        W 8625  42.635  21.247  12.442
36300W        W 8626  21.762  36.627  11.984
36301W        W 8627  14.810  35.963   0.748
36302W        W 8628   4.659   7.174   2.237
36303W        W 8629  13.148   2.917  10.670
36304W        W 8630   8.329  44.000  13.993
36305W        W 8631   3.560  14.707  11.187
36306W        W 8632  16.995  43.778  14.693
36307W        W 8633  12.442   3.615  13.370
36308W        W 8634  12.640  16.611  14.678
36309W        W 8635   0.706  10.084   4.628
36310W        W 8636  24.129  36.406   3.565
36311W        W 8637  24.697  12.042   0.274
36312W        W 8638  27.786  41.083  11.080
36313W        W 8639  35.459   2.075  14.851
36314W        W 8640  44.919  39.543  13.450
36315W        W 8641  41.046  22.940   1.319
36316W        W 8642  28.682   1.682  11.167
36317W        W 8643  13.604  39.818  14.540
36318W        W 8644  41.033  25.958  11.450
36319W        W 8645  32.654   8.381   4.458
36320W        W 8646  43.841  17.174   3.845
36321W        W 8647  28.935  16.513   3.772
36322W        W 8648   4.439  28.017  11.445
36323W        W 8649  12.796  13.712  11.770
36324W        W 8650  16.912  10.163  13.883
36325W        W 8651  18.527   6.782   0.720
36326W        W 8652   4.976  15.768   0.749
36327W        W 8653  34.876  23.031  13.668
36328W        W 8654  32.319  29.171  14.310
36329W        W 8655  35.102  17.593   1.885
36330W        W 8656   3.481  34.431  12.885
36331W        W 8657  21.731  14.328   0.055
36332W        W 8658  38.360  33.330   2.000
36333W        W 8659  18.453  28.380   3.792
36334W        W 8660  38.335  43.386  11.194
36335W        W 8661  16.378  42.104  11.913
36336W        W 8662  33.578   7.912   0.291
36337W        W 8663  22.929  16.247   3.830
36338W        W 8664   9.429  15.370  11.931
36339W        W 8665  38.909  17.230  13.433
36340W        W 8666  36.737  44.783  13.070
36341W        W 8667   5.233  20.558   1.110
36342W        W 8668  34.520   1.658   4.632
36343W        W 8669  44.993   6.946  14.967
36344W        W 8670   6.948  18.836   3.099
36345W        W 8671  35.396  29.107  12.388
36346W        W 8672  41.018  15.111  14.916
36347W        W 8673   8.179  42.468   3.066
36348W        W 8674  16.234  22.497  12.963
36349W        W 8675  37.900  22.700  12.516
36350W        W 8676  30.516  33.914  12.006
36351W        W 8677  18.710   8.408   0.812
36352W        W 8678  11.237  39.039  11.844
36353W        W 8679  13.254  21.130  10.002
36354W        W 8680   3.573  41.790   2.282
36355W        W 8681  26.455   8.437   0.401
36356W        W 8682   5.590   8.944   1.322
36357W        W 8683  40.356  12.949   4.531
36358W        W 8684  15.762   0.302   2.125
36359W        W 8685  21.365   9.629   4.523
36360W        W 8686  42.450  33.382   1.842
36361W        W 8687  20.855  16.973   1.595
36362W        W 8688  33.857  43.934   2.256
36363W        W 8689  41.580  37.004   2.888
36364W        W 8690  33.139  38.937   1.897
36365W        W 8691  15.342  33.539  12.518
36366W        W 8692  18.522   3.789   2.945
36367W        W 8693  15.350  13.646  10.741
36368W        W 8694   6.936  33.941   4.652
36369W        W 8695  10.431   8.776   2.481
36370W        W 8696   7.330  23.315   3.657
36371W        W 8697   0.717  16.438  11.589
36372W        W 8698  21.445  16.161  14.482
36373W        W 8699  18.088  12.294  13.924
36374W        W 8700  21.968  13.730  11.439
36375W        W 8701  34.931  37.539  14.175
36376W        W 8702  15.183  39.688   2.155
36377W        W 8703   3.978  12.840   2.659
36378W        W 8704  29.405   3.522  11.893
36379W        W 8705  20.998   0.376   0.850
36380W        W 8706  43.646  24.875   1.264
36381W        W 8707   4.326   9.620   0.819
36382W        W 8708  29.214  16.290   0.496
36383W        W 8709   2.774  35.044  11.726
36384W        W 8710   9.936  38.439   3.575
36385W        W 8711  33.533  16.756   0.393
36386W        W 8712  42.886   2.173  12.493
36387W        W 8713  43.597  28.571  13.822
36388W        W 8714  32.189  22.003   1.673
36389W        W 8715  13.061  41.500   1.440
36390W        W 8716  27.011   1.796   4.674
36391W        W 8717   3.934  42.917   2.961
36392W        W 8718  10.501  37.376  13.848
36393W        W 8719  42.954   6.695  12.526
36394W        W 8720  38.377  13.250   2.219
36395W        W 8721  14.342  24.333   2.746
36396W        W 8722  15.040  29.618   1.337
36397W        W 8723  14.274  44.722  13.305
36398W        W 8724  29.589   4.864   4.678
36399W        W 8725  14.225  30.669  12.139
36400W        W 8726  30.394  33.520  14.931
36401W        W 8727  15.492  16.199  13.375
36402W        W 8728  12.527  35.826  12.081
36403W        W 8729  19.490  30.517  13.391
36404W        W 8730  31.664  37.937   4.706
36405W        W 8731  43.209  17.720  14.368
36406W        W 8732  24.245  15.811   2.254
36407W        W 8733   8.851  40.580   1.340
36408W        W 8734  22.696  43.074  14.919
36409W        W 8735  17.963  38.973  13.085
36410W        W 8736  44.291  20.479   3.730
36411W        W 8737  34.970   0.860   3.131
36412W        W 8738  21.410  28.200   1.731
36413W        W 8739  27.562  40.714  11.405
36414W        W 8740   1.287  15.532  13.944
36415W        W 8741  26.005  40.994  13.333
36416W        W 8742   9.238  14.850  12.011
36417W        W 8743  20.218  29.438  10.991
36418W        W 8744  23.701  39.281  11.389
36419W        W 8745   7.931  33.435   1.771
36420W        W 8746  29.206  21.313  12.367
36421W        W 8747   7.146  32.454  12.952
36422W        W 8748  32.603  37.129  13.960
36423W        W 8749  41.860  40.235   4.593
36424W        W 8750  30.104  38.336   2.797
36425W        W 8751  18.145  35.121   0.606
36426W        W 8752   1.303   7.175   1.848
36427W        W 8753  40.688  20.278   2.776
36428W        W 8754  12.026  18.698   0.692
36429W        W 8755  12.121  30.005  11.893
36430W        W 8756  42.790  24.081  14.556
36431W        W 8757  12.569  24.786  10.646
36432W        W 8758   7.287  44.424   2.739
36433W        W 8759  11.437   6.375   1.625
36434W        W 8760  18.665  34.831   1.716
36435W        W 8761  39.664  32.338  12.632
36436W        W 8762  34.647  36.958   9.801
36437W        W 8763  29.651  39.164   1.409
36438W        W 8764  20.324  32.089   0.915
36439W        W 8765  18.852  24.895   4.200
36440W        W 8766   0.272  33.936   3.481
36441W        W 8767  41.305  15.368  12.115
36442W        W 8768  42.823  21.035  13.831
36443W        W 8769   8.887  32.041  14.084
36444W        W 8770  26.189  36.937   2.650
36445W        W 8771  36.014  10.893  10.067
36446W        W 8772  35.854   1.430   4.605
36447W        W 8773  40.498  32.495   3.260
36448W        W 8774  24.740  44.045   4.937
36449W        W 8775   0.356   4.182  14.453
36450W        W 8776  36.353  34.764   9.745
36451W        W 8777  44.132  37.780   0.860
36452W        W 8778  24.068  39.438  10.177
36453W        W 8779  13.228  18.256  12.490
36454W        W 8780   4.736  36.310   3.295
36455W        W 8781   4.872  14.658  12.171
36456W        W 8782  21.680  23.583   4.624
36457W        W 8783  39.559   9.895   0.762
36458W        W 8784  27.708  17.362   4.645
36459W        W 8785   2.981  35.552   0.329
36460W        W 8786  43.011  26.938   4.695
36461W        W 8787  29.155   3.019  13.358
36462W        W 8788   1.292  24.124  13.470
36463W        W 8789  15.275   3.014  10.793
36464W        W 8790  34.561  21.894  13.006
36465W        W 8791   9.244   7.829  10.420
36466W        W 8792  43.124   4.228   5.088
36467W        W 8793  17.988  23.091   3.303
36468W        W 8794  42.228  14.819  13.072
36469W        W 8795  38.909   4.151  12.102
36470W        W 8796  28.180  37.447   4.166
36471W        W 8797   2.393  40.771  13.461
36472W        W 8798  15.119  13.525   1.655
36473W        W 8799  35.514  15.264   4.174
36474W        W 8800  11.304   2.548   0.235
36475W        W 8801   3.936  14.825  12.475
36476W        W 8802   5.944  38.004   1.832
36477W        W 8803  39.107  17.028   1.639
36478W        W 8804  25.726  30.455   5.176
36479W        W 8805  41.113  24.744  14.908
36480W        W 8806  16.589  27.886  14.055
36481W        W 8807  25.901  31.825  11.070
36482W        W 8808  37.963  20.144  13.542
36483W        W 8809  20.245  35.384   4.824
36484W        W 8810  31.862   4.250   0.576
36485W        W 8811  12.586  21.770   4.226
36486W        W 8812  21.024  18.676   0.425
36487W        W 8813   1.460   4.137  10.649
36488W        W 8814  44.780  40.873   3.690
36489W        W 8815  26.403  20.696  10.605
36490W        W 8816  38.369  38.557   0.064
36491W        W 8817   5.453  26.520   4.450
36492W        W 8818  33.936  41.239  13.807
36493W        W 8819   4.905  28.099  13.492
36494W        W 8820   6.341  22.199  14.403
36495W        W 8821  21.219  26.580  12.654
36496W        W 8822   3.488  26.260  14.323
36497W        W 8823  31.632  41.823   0.928
36498W        W 8824  27.917   5.244  11.479
36499W        W 8825  18.716   7.182  10.970
36500W        W 8826  36.808  27.991   3.335
36501W        W 8827  10.179  40.004  14.611
36502W        W 8828  38.362  36.131   0.411
36503W        W 8829  25.944   1.038  12.830
36504W        W 8830   6.345  26.168   1.385
36505W        W 8831  42.335   6.514  12.236
36506W        W 8832   5.923  19.201   1.433
36507W        W 8833  14.590   7.152   1.528
36508W        W 8834  16.609   9.175  10.600
36509W        W 8835  10.772   3.473  12.553
36510W        W 8836  13.955  36.669  13.913
36511W        W 8837  37.063  10.292   1.752
36512W        W 8838   5.989  17.269   0.273
36513W        W 8839   9.110  39.747  13.890
36514W        W 8840  22.076  37.253  11.590
36515W        W 8841   3.063   5.303  13.754
36516W        W 8842  31.301  15.469   1.260
36517W        W 8843  34.985  32.008  10.468
36518W        W 8844  35.027  27.108  11.946
36519W        W 8845  40.262  22.000  14.745
36520W        W 8846  11.723  43.710   3.339
36521W        W 8847  38.876  40.842  12.960
36522W        W 8848  44.395  30.029  11.454
36523W        W 8849  24.303  34.039  13.880
36524W        W 8850   3.938   5.637   4.180
36525W        W 8851  30.075  17.567  10.888
36526W        W 8852  13.636  28.478  14.242
36527W        W 8853  37.533  12.847  10.670
36528W        W 8854  12.822  41.335   4.580
36529W        W 8855  25.410  26.596   0.228
36530W        W 8856  36.967  34.786   3.349
36531W        W 8857  15.912   5.322   2.670
36532W        W 8858   9.811  34.959  13.477
36533W        W 8859  13.731  13.344  12.006
36534W        W 8860  19.701  25.944   4.115
36535W        W 8861   2.860   5.491  14.190
36536W        W 8862  12.503  14.572   2.823
36537W        W 8863  23.644  25.112   0.433
36538W        W 8864  42.598   0.436  14.851
36539W        W 8865  42.803   6.355  10.694
36540W        W 8866   4.651  35.005  12.398
36541W        W 8867  36.286  37.406   2.181
36542W        W 8868  27.404  16.127  14.526
36543W        W 8869  23.734  39.023  10.217
36544W        W 8870  40.499   8.879  12.364
36545W        W 8871  39.000  12.974  14.974
36546W        W 8872  31.499  44.446   1.204
36547W        W 8873  35.095  15.930  11.181
36548W        W 8874  36.496  14.731   0.457
36549W        W 8875  41.334  35.838   3.712
36550W        W 8876   5.719  13.677  11.149
36551W        W 8877  30.957  31.030  10.789
36552W        W 8878  21.765  29.463   1.289
36553W        W 8879  25.598  18.267   0.094
36554W        W 8880   0.519  22.459   3.276
36555W        W 8881  29.931  11.348  14.070
36556W        W 8882   5.733  23.052  12.608
36557W        W 8883  35.915  23.505   0.961
36558W        W 8884  30.487  34.495   0.196
36559W        W 8885  23.959   6.925  10.889
36560W        W 8886  10.902  39.363  12.127
36561W        W 8887  39.877   6.113   4.182
36562W        W 8888   0.033  21.845   0.283
36563W        W 8889  21.627  12.752  13.415
36564W        W 8890  37.499  40.077  10.477
36565W        W 8891  11.596   3.655   0.919
36566W        W 8892  21.478  18.854  10.978
36567W        W 8893  22.048   5.518  12.824
36568W        W 8894  19.062   4.227   2.452
36569W        W 8895  36.489  25.769  10.638
36570W        W 8896   8.414  15.661   4.062
36571W        W 8897  12.337  37.494  13.512
36572W        W 8898  44.273   9.190  13.992
36573W        W 8899  15.364   2.412   1.110
36574W        W 8900   7.857   1.914   1.187
36575W        W 8901   5.796  18.145  10.370
36576W        W 8902  43.555  17.989  11.514
36577W        W 8903  16.276  37.972   4.443
36578W        W 8904  11.267   5.238   2.841
36579W        W 8905  15.618  44.772   1.402
36580W        W 8906  19.566  44.931   3.519
36581W        W 8907  14.284  32.622   0.353
36582W        W 8908   0.124  14.349   0.952
36583W        W 8909  22.178  21.039  11.286
36584W        W 8910  27.813   7.910   5.155
36585W        W 8911  37.459  26.063  10.717
36586W        W 8912  36.109   9.101  11.263
36587W        W 8913   8.907  18.191   3.649
36588W        W 8914  37.826  35.396  12.890
36589W        W 8915  24.896  20.081   0.411
36590W        W 8916  12.231   2.212   3.584
36591W        W 8917  42.978  40.270  13.851
36592W        W 8918  13.785  40.768  11.902
36593W        W 8919  19.687  34.127   2.279
36594W        W 8920   5.374  14.186  11.090
36595W        W 8921  31.514  11.865   2.194
36596W        W 8922  16.522  16.716   4.576
36597W        W 8923  36.973  41.590  13.482
36598W        W 8924  11.139  22.674   0.459
36599W        W 8925  13.766  36.187   1.977
36600W        W 8926   5.484  18.775  11.627
36601W        W 8927  12.131  39.987   2.769
36602W        W 8928   9.553   7.901   3.159
36603W        W 8929  41.325  11.319   0.865
36604W        W 8930   5.288  15.705   3.159
36605W        W 8931   6.432  17.007   1.169
36606W        W 8932  20.218  25.397  12.828
36607W        W 8933  24.870   4.215   0.931
36608W        W 8934  33.536  27.118  13.418
36609W        W 8935  14.774  25.181   2.918
36610W        W 8936   2.358  20.642   0.814
36611W        W 8937   7.731  10.089   2.286
36612W        W 8938  36.447   4.703  10.658
36613W        W 8939  29.389  14.030   1.372
36614W        W 8940  23.023  10.876  11.477
36615W        W 8941  43.084   3.470  13.167
36616W        W 8942   2.647  12.258  10.595
36617W        W 8943  38.434   1.417  10.548
36618W        W 8944  17.254  19.538  12.823
36619W        W 8945   9.878  15.833   4.234
36620W        W 8946  25.208  20.691   1.471
36621W        W 8947  14.901  31.528  11.585
36622W        W 8948  10.426  14.343  10.678
36623W        W 8949  34.116  27.738   3.836
36624W        W 8950  26.326  18.755  12.961
36625W        W 8951   3.335   4.176   2.137
36626W        W 8952  15.908  22.047   1.694
36627W        W 8953  35.612   2.402  14.322
36628W        W 8954   9.818  11.255   2.897
36629W        W 8955  28.984  15.515  12.645
36630W        W 8956  25.750  22.958  13.955
36631W        W 8957  12.762  18.852  14.012
36632W        W 8958   4.466  18.000  13.621
36633W        W 8959  43.774  32.136  11.623
36634W        W 8960  18.880  24.753  10.947
36635W        W 8961  41.768  25.994   1.283
36636W        W 8962  27.552  10.798  14.072
36637W        W 8963  33.527  34.503  12.776
36638W        W 8964  12.747  25.296  10.607
36639W        W 8965  13.184  38.968  10.798
36640W        W 8966   9.257  35.026  11.972
36641W        W 8967   5.120   6.372  12.952
36642W        W 8968  40.291  13.087   3.219
36643W        W 8969  37.420   5.880   9.644
36644W        W 8970  32.682  20.787   1.893
36645W        W 8971  41.528  26.765  12.942
36646W        W 8972  20.001  11.384  13.742
36647W        W 8973  35.562  33.915   2.332
36648W        W 8974  27.617  19.387   0.335
36649W        W 8975  29.585   3.479  12.366
36650W        W 8976  42.090  10.751   4.190
36651W        W 8977  19.261  40.465  11.892
36652W        W 8978  41.820  39.293   3.650
36653W        W 8979  15.602  39.584  12.052
36654W        W 8980  40.478   1.988   2.133
36655W        W 8981  16.203  37.063  13.385
36656W        W 8982   6.909  11.933  13.508
36657W        W 8983  27.623  13.626   0.835
36658W        W 8984  10.855  25.563   3.928
36659W        W 8985   7.444  35.013   4.420
36660W        W 8986   9.642  23.230   1.289
36661W        W 8987  26.255  30.913   2.492
36662W        W 8988  44.935  20.210  12.318
36663W        W 8989  37.238  20.271  14.666
36664W        W 8990   7.408   1.808   1.444
36665W        W 8991  21.222  20.626   4.778
36666W        W 8992   0.481  30.836  13.727
36667W        W 8993   3.340   0.656   2.430
36668W        W 8994  24.446   4.436   0.698
36669W        W 8995   1.928   5.984  10.347
36670W        W 8996  10.768   0.874  12.480
36671W        W 8997  41.434  31.148  11.812
36672W        W 8998  16.208  41.434   3.934
36673W        W 8999  38.590  30.872  13.858
36674W        W 9000  36.024  28.016   3.785
36675W        W 9001  12.424  32.709   0.312
36676W        W 9002  37.143  36.246  14.771
36677W        W 9003  29.627   0.268   0.290
36678W        W 9004  23.625  39.571   3.117
36679W        W 9005   8.838  18.518  12.260
36680W        W 9006  14.780   0.990  12.316
36681W        W 9007  10.843  42.197   4.171
36682W        W 9008   6.402  41.612   0.284
36683W        W 9009  44.715  35.420   4.831
36684W        W 9010  32.773  14.156  13.143
36685W        W 9011  24.855  23.122   1.875
36686W        W 9012   7.760  27.349   3.192
36687W        W 9013  25.476  25.239   2.465
36688W        W 9014  31.472   9.169  13.830
36689W        W 9015  32.044   7.818   1.879
36690W        W 9016   8.781  40.452   2.630
36691W        W 9017  42.484  21.436  11.040
36692W        W 9018  23.947  44.007   2.745
36693W        W 9019  39.202  31.227   0.493
36694W        W 9020  14.136  18.779  10.644
36695W        W 9021  35.459  35.120  11.597
36696W        W 9022  23.019  21.983  14.118
36697W        W 9023   1.841  44.918  11.095
36698W        W 9024  11.685  34.419   4.823
36699W        W 9025  33.151  15.297   3.226
36700W        W 9026  21.405  28.622  14.218
36701W        W 9027  12.330   7.825  11.137
36702W        W 9028   4.142  13.230   4.542
36703W        W 9029  17.044  10.393   0.314
36704W        W 9030  13.321  27.557   1.489
36705W        W 9031   9.928   2.387  14.327
36706W        W 9032  21.496   5.676   2.697
36707W        W 9033  14.695   2.921   1.862
36708W        W 9034  18.352   0.237   2.404
36709W        W 9035  32.258  16.550   2.736
36710W        W 9036  21.100  41.039   2.356
36711W        W 9037  21.559  22.711   4.628
36712W        W 9038  10.373  29.533  14.785
36713W        W 9039  18.311  20.816  14.401
36714W        W 9040  33.356  12.282  11.922
36715W        W 9041   7.685   4.707   0.896
36716W        W 9042  36.494   1.772   0.865
36717W        W 9043  15.603  14.820  12.136
36718W        W 9044   6.419  30.702  13.623
36719W        W 9045   1.027  20.428   0.248
36720W        W 9046  23.925  44.916   0.795
36721W        W 9047  18.131  16.650  11.083
36722W        W 9048   4.543  21.495   4.768
36723W        W 9049  21.754  39.516  11.455
36724W        W 9050  15.250  14.660  13.940
36725W        W 9051  29.636  35.882   0.889
36726W        W 9052  31.442  30.475  11.646
36727W        W 9053  18.269  19.650   4.970
36728W        W 9054  31.517  11.611  13.936
36729W        W 9055   5.354   3.039  12.513
36730W        W 9056  19.076   5.890   1.216
36731W        W 9057  35.437  44.191  14.786
36732W        W 9058  34.920  26.565  11.525
36733W        W 9059  13.363  42.303  12.556
36734W        W 9060  30.710  33.916   2.958
36735W        W 9061  19.851   5.274   0.335
36736W        W 9062   1.056  25.817  11.486
36737W        W 9063  18.864   5.326   0.637
36738W        W 9064  14.773   5.734   0.961
36739W        W 9065  23.043   7.151   0.696
36740W        W 9066   6.679  29.023   2.722
36741W        W 9067  17.712   2.151  13.578
36742W        W 9068   8.868  21.253   4.045
36743W        W 9069   1.560   7.080  13.420
36744W        W 9070  34.269   7.828  14.835
36745W        W 9071  18.080  15.959   1.556
36746W        W 9072   3.777  44.360  11.995
36747W        W 9073  10.476  21.227   0.896
36748W        W 9074   5.315  33.627   2.910
36749W        W 9075   5.262  44.817   1.420
36750W        W 9076   5.265  40.408   2.210
36751W        W 9077  24.631  33.808  13.090
36752W        W 9078   9.862   7.094   3.670
36753W        W 9079  10.240  19.750  13.922
36754W        W 9080  42.500  10.235  12.909
36755W        W 9081  42.318  13.063  12.511
36756W        W 9082   5.136  22.107  13.067
36757W        W 9083   5.952   0.932  13.585
36758W        W 9084  40.938  40.792   3.419
36759W        W 9085  38.814  39.518   0.937
36760W        W 9086  38.764   1.998  13.074
36761W        W 9087  40.481  11.696  13.924
36762W        W 9088   3.605  29.106   1.870
36763W        W 9089   9.809  19.089   3.184
36764W        W 9090  13.323  10.142  13.914
36765W        W 9091  15.894  30.143   2.663
36766W        W 9092   9.895  10.369   4.886
36767W        W 9093   5.757  36.044   0.436
36768W        W 9094  20.620  41.730  11.080
36769W        W 9095  35.631  35.566  14.349
36770W        W 9096  34.343  35.553  12.938
36771W        W 9097  12.549  40.792  11.686
36772W        W 9098   9.804   4.878   2.377
36773W        W 9099   1.399  30.862   4.667
36774W        W 9100   1.099  41.857   4.112
36775W        W 9101  22.556  37.130   0.440
36776W        W 9102  31.642   4.575   2.732
36777W        W 9103  31.187   7.470   3.126
36778W        W 9104  35.621  40.324   3.208
36779W        W 9105  13.606   0.588   0.885
36780W        W 9106  24.925   6.720  12.475
36781W        W 9107  28.849  21.929  12.943
36782W        W 9108  19.995   1.036   4.223
36783W        W 9109  39.315  20.078   3.909
36784W        W 9110  25.516  21.945  14.764
36785W        W 9111  12.560  15.126  12.069
36786W        W 9112  10.635  43.261   0.044
36787W        W 9113  24.674   3.003   4.222
36788W        W 9114  44.037  16.614  13.295
36789W        W 9115  14.617  36.584  12.982
36790W        W 9116  26.921   0.457  13.956
36791W        W 9117  38.400  12.410   1.833
36792W        W 9118  11.234  19.683   4.666
36793W        W 9119  23.632   9.559  14.006
36794W        W 9120  23.459  25.856  12.102
36795W        W 9121  20.227   4.402   0.853
36796W        W 9122   4.043   2.342  11.684
36797W        W 9123   3.224  17.688  12.379
36798W        W 9124  36.395  18.578  14.376
36799W        W 9125  28.038  39.021   4.628
36800W        W 9126  11.910   4.914  13.533
36801W        W 9127   2.839  26.108   1.674
36802W        W 9128   7.498  26.353   4.138
36803W        W 9129   8.541  30.298  12.579
36804W        W 9130   1.240  41.202  12.607
36805W        W 9131   6.405   1.894   0.071
36806W        W 9132  22.509  26.158  13.740
36807W        W 9133  31.470   2.714   1.449
36808W        W 9134  38.977  13.983  11.069
36809W        W 9135  30.860  21.503  14.918
36810W        W 9136  25.131  32.140   1.779
36811W        W 9137  38.170  32.036   3.129
36812W        W 9138  37.581   8.860  11.332
36813W        W 9139  19.715  36.571   3.694
36814W        W 9140  29.367  33.902  13.932
36815W        W 9141  12.622  24.518  10.219
36816W        W 9142  15.002  18.740  13.835
36817W        W 9143  16.726   1.631   3.469
36818W        W 9144   0.420  34.129   0.255
36819W        W 9145  43.536   3.530  12.338
36820W        W 9146  26.780  26.716  14.457
36821W        W 9147  13.234  17.558  12.986
36822W        W 9148  25.467  24.537   2.863
36823W        W 9149   0.742  22.964  13.086
36824W        W 9150  14.464  34.208   1.346
36825W        W 9151  44.868  30.327  14.985
36826W        W 9152   8.222   7.975  14.251
36827W        W 9153   3.833   4.355   2.258
36828W        W 9154  44.707  28.082   5.188
36829W        W 9155   3.824  28.178   1.629
36830W        W 9156  10.733   7.221   4.588
36831W        W 9157  39.454   0.322  11.922
36832W        W 9158  41.028   6.357   1.865
36833W        W 9159  16.970   0.326   4.021
36834W        W 9160  29.982  12.165   0.511
36835W        W 9161  39.577  17.621   0.050
36836W        W 9162  24.548   5.103  13.965
36837W        W 9163   8.927  31.767   4.143
36838W        W 9164  40.506  16.965  11.638
36839W        W 9165  12.677  30.037   0.215
36840W        W 9166  28.578  44.850   1.625
36841W        W 9167   9.115  44.858   4.710
36842W        W 9168  17.043  44.317  14.051
36843W        W 9169  35.492  31.621   0.904
36844W        W 9170   0.406  10.034  13.906
36845W        W 9171   8.273  10.914   4.099
36846W        W 9172  32.064  21.336   0.241
36847W        W 9173  23.009  19.638   2.059
36848W        W 9174  29.524  23.848   3.697
36849W        W 9175  43.441  36.255  14.846
36850W        W 9176  39.620  28.134   3.730
36851W        W 9177  32.065  31.507   3.120
36852W        W 9178   9.612   9.860  10.430
36853W        W 9179  16.663  39.797   1.323
36854W        W 9180   4.334  38.857  14.728
36855W        W 9181  38.980  40.784   1.189
36856W        W 9182   4.922   3.219   3.757
36857W        W 9183  25.519  28.916   2.173
36858W        W 9184   8.242  39.017  11.992
36859W        W 9185  36.774   1.661  12.442
36860W        W 9186  22.827  33.257  14.232
36861W        W 9187  17.312  15.019   4.153
36862W        W 9188  42.057   7.453  14.894
36863W        W 9189  12.194  21.243   3.156
36864W        W 9190  10.419   1.304  13.354
36865W        W 9191  40.151  15.254  10.595
36866W        W 9192  42.208  22.164  13.902
36867W        W 9193  17.577  13.326  13.459
36868W        W 9194  17.264   3.191  14.917
36869W        W 9195   4.355  34.726   4.668
36870W        W 9196  31.180  21.746   1.344
36871W        W 9197  43.461  11.685   1.642
36872W        W 9198   6.430  21.049  14.599
36873W        W 9199  10.430  44.304   3.648
36874W        W 9200  12.750  28.145  14.244
36875W        W 9201  38.721  43.566   1.119
36876W        W 9202  10.734  41.555  10.502
36877W        W 9203   8.860  24.919  14.070
36878W        W 9204  14.773  31.514  10.670
36879W        W 9205  16.931   5.243   1.716
36880W        W 9206  28.187  15.703  12.793
36881W        W 9207  35.013  34.103  13.629
36882W        W 9208  22.653  19.634  11.653
36883W        W 9209   9.857  19.170   4.506
36884W        W 9210  42.872   3.927  11.960
36885W        W 9211  35.270  33.129  14.256
36886W        W 9212  39.513  42.278   1.390
36887W        W 9213  32.575  33.213  10.583
36888W        W 9214  43.908  30.877  12.152
36889W        W 9215  12.648   8.674   1.647
36890W        W 9216  44.917  41.368  13.413
36891W        W 9217  37.577   8.093  13.402
36892W        W 9218  18.742  26.655   3.690
36893W        W 9219  43.591  44.517  13.456
36894W        W 9220  37.196   6.506  12.889
36895W        W 9221   3.278  25.403   0.810
36896W        W 9222  43.799  23.408  11.433
36897W        W 9223  12.636  31.835   4.083
36898W        W 9224  13.312  14.294  12.675
36899W        W 9225  14.916  37.818   3.861
36900W        W 9226  20.886  39.840  10.096
36901W        W 9227  33.024  41.244  13.958
36902W        W 9228  15.676  15.796   0.793
36903W        W 9229  31.208   7.908  11.114
36904W        W 9230  40.043  29.104   3.731
36905W        W 9231  28.414  31.121  11.474
36906W        W 9232  31.107  30.927   1.440
36907W        W 9233  26.184  20.076   0.858
36908W        W 9234   9.869  29.733  13.462
36909W        W 9235  17.984  24.231   1.823
36910W        W 9236  12.119  44.374   0.884
36911W        W 9237   1.207  21.224   0.743
36912W        W 9238  31.216  22.958   1.851
36913W        W 9239   8.431   5.030   0.531
36914W        W 9240  12.614  38.524  14.903
36915W        W 9241  27.441  15.261  14.267
36916W        W 9242   0.270   3.687  10.536
36917W        W 9243  16.574   1.235   0.928
36918W        W 9244   6.907   1.916  12.779
36919W        W 9245   3.231  16.045  14.829
36920W        W 9246  42.044  32.437  10.758
36921W        W 9247  20.150   1.736  14.485
36922W        W 9248   7.439  36.919  13.136
36923W        W 9249   3.928   9.143   2.885
36924W        W 9250  10.402  15.889   5.153
36925W        W 9251  43.575  23.172  14.291
36926W        W 9252  15.040  37.577   4.337
36927W        W 9253  34.116   2.694  12.904
36928W        W 9254   9.237  18.824   2.523
36929W        W 9255   5.626  44.007  14.469
36930W        W 9256  10.306  10.323  13.010
36931W        W 9257  11.185  26.366   4.188
36932W        W 9258   9.215  11.853  14.366
36933W        W 9259  20.012  31.097  11.226
36934W        W 9260  38.518   8.179   2.885
36935W        W 9261  11.096   2.529   2.271
36936W        W 9262  16.553   4.875  10.882
36937W        W 9263  41.055  16.301   2.386
36938W        W 9264   8.164  10.855  14.017
36939W        W 9265  14.196  21.026   1.686
36940W        W 9266  18.884  29.957  14.872
36941W        W 9267   5.079  20.313   4.566
36942W        W 9268  17.588  23.683  11.726
36943W        W 9269  19.971  18.484   1.573
36944W        W 9270   5.451   5.970  12.952
36945W        W 9271   8.398  37.971  13.360
36946W        W 9272   6.427  33.465   3.807
36947W        W 9273  17.005  10.386  13.433
36948W        W 9274  20.636  17.645   1.040
36949W        W 9275  40.858  26.258  11.068
36950W        W 9276  26.138  17.342   9.842
36951W        W 9277  12.338  33.631   0.767
36952W        W 9278   3.757   4.440   0.356
36953W        W 9279  21.554  32.967  13.514
36954W        W 9280  16.787  40.845  14.088
36955W        W 9281  34.045   4.803  11.536
36956W        W 9282  31.429  30.165  12.624
36957W        W 9283   9.408   9.175   1.829
36958W        W 9284  25.006  44.443  13.518
36959W        W 9285  38.019  24.495  14.041
36960W        W 9286  21.788  39.915  11.097
36961W        W 9287   4.494  30.629  10.638
36962W        W 9288   5.037  10.552   3.654
36963W        W 9289  11.700  32.856   2.006
36964W        W 9290   8.281  32.087  14.537
36965W        W 9291  44.047  26.513  12.830
36966W        W 9292  41.592  18.614  10.827
36967W        W 9293   2.769  20.098   4.921
36968W        W 9294   6.373  14.778  13.597
36969W        W 9295  21.704  28.068   4.734
36970W        W 9296  18.211  11.075   4.409
36971W        W 9297   9.859  18.627  11.209
36972W        W 9298  33.385  15.855   4.242
36973W        W 9299   2.466  19.644  11.114
36974W        W 9300   9.116  29.399   2.124
36975W        W 9301  18.571  10.712  12.083
36976W        W 9302  10.679   1.438  11.523
36977W        W 9303  34.005  26.928  13.575
36978W        W 9304  28.474  20.488  14.646
36979W        W 9305  29.212  29.894   1.151
36980W        W 9306   5.746   4.673  11.673
36981W        W 9307   1.180  38.376  12.470
36982W        W 9308  35.919   9.598   1.137
36983W        W 9309  42.394   2.332   1.867
36984W        W 9310  12.201  10.379  11.168
36985W        W 9311  34.009   0.041  14.775
36986W        W 9312  44.076  27.707   2.816
36987W        W 9313   6.779  42.441  10.400
36988W        W 9314  15.613   5.496   2.294
36989W        W 9315  11.596   9.657  10.638
36990W        W 9316   7.705  10.604   2.177
36991W        W 9317  44.584  30.826  10.034
36992W        W 9318  43.343  16.985  11.585
36993W        W 9319  27.550  29.693   1.714
36994W        W 9320   4.370   1.495  11.420
36995W        W 9321   9.423   9.138  11.103
36996W        W 9322  35.085   7.197   0.538
36997W        W 9323  12.647  28.978  13.812
36998W        W 9324  38.029   8.875   3.693
36999W        W 9325  35.520  23.511   2.231
37000W        W 9326  35.118  11.196  11.086
37001W        W 9327  26.603   9.631  12.023
37002W        W 9328  24.500  38.289   3.203
37003W        W 9329  17.251  30.959   1.014
37004W        W 9330  39.914  27.380   0.938
37005W        W 9331   4.184  13.716  12.878
37006W        W 9332  18.647  29.360   3.620
37007W        W 9333  42.718  35.904  14.150
37008W        W 9334  31.174  27.228  11.780
37009W        W 9335  42.650  28.719  11.536
37010W        W 9336  27.965   2.711  11.223
37011W        W 9337  41.437  27.032   2.638
37012W        W 9338  28.374   0.284   0.750
37013W        W 9339  27.557  10.217   2.447
37014W        W 9340   5.909  12.569  12.153
37015W        W 9341   1.466  30.871  13.028
37016W        W 9342   0.984  39.346  14.462
37017W        W 9343  27.282   8.796   0.321
37018W        W 9344  38.218   7.473  12.109
37019W        W 9345   3.466  31.509   1.728
37020W        W 9346   7.883   1.337  14.214
37021W        W 9347  15.519   1.899   1.295
37022W        W 9348  27.032  19.607  14.975
37023W        W 9349   4.986  32.071   3.392
37024W        W 9350  11.328  26.523   9.444
37025W        W 9351   7.170   7.342  14.814
37026W        W 9352  20.853  29.140  12.521
37027W        W 9353   1.441  33.831  12.177
37028W        W 9354  36.393  26.289   1.128
37029W        W 9355  11.770   4.371  11.909
37030W        W 9356  39.148   4.885  14.290
37031W        W 9357  28.536  44.458   3.905
37032W        W 9358  20.170  27.115  14.970
37033W        W 9359   3.895  29.721   4.165
37034W        W 9360  32.826  38.032  13.013
37035W        W 9361   4.564  43.269   3.289
37036W        W 9362   0.463  40.945   1.359
37037W        W 9363  43.959   4.384   2.779
37038W        W 9364  23.577   4.626   1.373
37039W        W 9365  27.638   0.526   0.199
37040W        W 9366  14.302  40.133   3.376
37041W        W 9367  29.370  21.297  13.127
37042W        W 9368  12.667  13.337   3.242
37043W        W 9369   9.645   5.720  11.588
37044W        W 9370  15.183  15.021   3.619
37045W        W 9371  44.296  21.254  11.960
37046W        W 9372  25.552  29.618  11.729
37047W        W 9373  15.841  43.722   1.084
37048W        W 9374  43.984  28.132   4.087
37049W        W 9375  24.580  39.411   1.075
37050W        W 9376  19.756  12.819   3.498
37051W        W 9377  10.632  21.696  14.199
37052W        W 9378  34.054   0.734   3.719
37053W        W 9379  24.249   3.370  12.091
37054W        W 9380  27.111  40.581   1.215
37055W        W 9381   7.721   8.390   4.738
37056W        W 9382   9.547  38.365  12.458
37057W        W 9383   3.195  11.619   1.375
37058W        W 9384  20.447   0.941   1.275
37059W        W 9385  32.229  28.378  10.816
37060W        W 9386   3.914  15.589  14.822
37061W        W 9387   3.671  30.781  14.503
37062W        W 9388  24.699  11.402  13.955
37063W        W 9389   4.818  23.538  11.516
37064W        W 9390   6.892  11.797  12.102
37065W        W 9391  37.928  12.957   1.315
37066W        W 9392  19.531  36.021   4.313
37067W        W 9393  32.471  27.335   3.647
37068W        W 9394  34.659  14.926  12.109
37069W        W 9395   8.767  18.552  12.762
37070W        W 9396  26.518  15.272  11.236
37071W        W 9397  19.006   8.129   2.000
37072W        W 9398  30.887  38.856  10.596
37073W        W 9399   3.140   0.782  14.127
37074W        W 9400  27.032  37.118  12.388
37075W        W 9401  40.057  38.964  11.566
37076W        W 9402  18.672  33.866   3.380
37077W        W 9403  33.569   3.890   1.878
37078W        W 9404   4.066   1.325  10.567
37079W        W 9405  11.153  10.676   2.737
37080W        W 9406  22.630  27.948  12.479
37081W        W 9407  34.884  13.721  13.407
37082W        W 9408  20.256  16.528   2.346
37083W        W 9409  36.478  13.312  11.678
37084W        W 9410  32.749  27.263   0.006
37085W        W 9411  11.853  35.592   1.129
37086W        W 9412  14.754  43.636  14.534
37087W        W 9413  21.742  26.991   2.268
37088W        W 9414  15.906  29.553   3.155
37089W        W 9415  25.569  35.919  14.382
37090W        W 9416   9.191  32.195   5.074
37091W        W 9417  36.522   1.485  14.202
37092W        W 9418   2.169  39.505   2.364
37093W        W 9419  24.307  17.196   5.070
37094W        W 9420  34.856  36.516  14.917
37095W        W 9421  33.594   0.345  11.713
37096W        W 9422   7.160  27.846  10.454
37097W        W 9423   0.542  36.409  12.628
37098W        W 9424  10.133  32.577   4.896
37099W        W 9425  18.904  20.819   3.664
37100W        W 9426  19.830  21.635  10.769
37101W        W 9427  27.191  19.490  12.038
37102W        W 9428  10.168   6.961   2.355
37103W        W 9429  23.238  23.538   1.676
37104W        W 9430   4.182  12.848  13.150
37105W        W 9431  31.567  17.540   3.216
37106W        W 9432  41.953  25.884   1.768
37107W        W 9433  26.769   1.453   0.593
37108W        W 9434  39.589  37.305   0.516
37109W        W 9435  23.773  34.362   0.037
37110W        W 9436  15.236  42.487  10.349
37111W        W 9437   2.543  21.214  12.192
37112W        W 9438   2.784  26.582  13.806
37113W        W 9439  31.420   7.959   4.808
37114W        W 9440  23.996  27.452  12.498
37115W        W 9441  31.319  40.495   0.197
37116W        W 9442  40.403  39.272   1.908
37117W        W 9443  42.422  25.211  12.586
37118W        W 9444   3.268   2.358  12.040
37119W        W 9445   1.226  43.428  12.443
37120W        W 9446  18.857   5.775  10.278
37121W        W 9447  31.908  13.905  12.011
37122W        W 9448  22.574  40.097   5.579
37123W        W 9449  32.666   4.073   4.629
37124W        W 9450  18.870  29.549  11.079
37125W        W 9451  34.402  26.164  12.292
37126W        W 9452  18.916  20.082  12.099
37127W        W 9453  27.238  34.990   4.390
37128W        W 9454  42.241   5.652  13.897
37129W        W 9455   4.171  38.423  14.965
37130W        W 9456  10.855   7.575  14.890
37131W        W 9457  33.718  32.527   5.016
37132W        W 9458   8.240  17.386  14.605
37133W        W 9459  11.331  35.404   9.797
37134W        W 9460   1.383  29.574  11.143
37135W        W 9461   2.321   6.645  14.434
37136W        W 9462   5.646  42.338  11.591
37137W        W 9463  16.746  26.701  12.130
37138W        W 9464  12.726  13.883  13.965
37139W        W 9465  26.525  33.358   2.285
37140W        W 9466  41.903  35.207  12.856
37141W        W 9467  19.663  27.132  14.361
37142W        W 9468   3.832   6.580   3.202
37143W        W 9469  23.778  24.554  11.419
37144W        W 9470  15.722   2.272   1.887
37145W        W 9471  44.543  39.520  11.023
37146W        W 9472  20.080  13.137   4.729
37147W        W 9473  38.097   3.538   5.018
37148W        W 9474  42.541   3.843  13.927
37149W        W 9475   3.461  36.172  13.830
37150W        W 9476  37.164   3.866  14.443
37151W        W 9477  19.825  25.921  10.518
37152W        W 9478  36.722  21.651   2.311
37153W        W 9479   5.600  27.252  13.937
37154W        W 9480  31.867  29.632  13.391
37155W        W 9481   3.419  24.747  12.523
37156W        W 9482   7.018  12.638   3.733
37157W        W 9483  38.783  28.502   1.916
37158W        W 9484  30.680  16.240   1.909
37159W        W 9485   8.658   9.788   1.788
37160W        W 9486  38.332  41.161   2.340
37161W        W 9487  38.262  16.593  14.912
37162W        W 9488  11.473  15.268   4.520
37163W        W 9489  37.262  44.297   1.915
37164W        W 9490  23.277  43.625  11.244
37165W        W 9491  37.087  38.396  11.990
37166W        W 9492  20.483   8.735   3.996
37167W        W 9493  22.043  33.029  14.255
37168W        W 9494   7.067  30.594  13.853
37169W        W 9495  14.568  34.311  13.453
37170W        W 9496   1.931  25.584   2.348
37171W        W 9497   8.393  16.890  11.287
37172W        W 9498  16.492   5.916  14.375
37173W        W 9499   3.367  32.556   1.862
37174W        W 9500  38.960  18.539  11.049
37175W        W 9501  11.807   3.026  11.159
37176W        W 9502  24.036   4.944   4.712
37177W        W 9503   2.389  19.284   3.169
37178W        W 9504  37.669   5.513  11.379
37179W        W 9505  11.730  43.167   4.612
37180W        W 9506  32.660  17.278  12.894
37181W        W 9507   2.313  39.210  13.852
37182W        W 9508  42.900  41.512  14.578
37183W        W 9509  35.568   5.337  10.896
37184W        W 9510  29.785  23.612   0.345
37185W        W 9511  12.840  20.681   0.270
37186W        W 9512  13.186  42.153   2.673
37187W        W 9513  17.826   4.303  12.604
37188W        W 9514  14.445  39.856  12.749
37189W        W 9515  30.357  18.284   3.636
37190W        W 9516   3.870  14.668   1.691
37191W        W 9517  26.998  38.118  13.641
37192W        W 9518   0.899  17.183   4.317
37193W        W 9519  34.983  32.925  10.495
37194W        W 9520  36.110  18.599  13.960
37195W        W 9521   7.858  22.491   2.830
37196W        W 9522  33.047  16.396   2.013
37197W        W 9523  39.558  31.084  11.549
37198W        W 9524   5.262  11.310   2.828
37199W        W 9525  14.086  13.456   3.263
37200W        W 9526  14.779  31.705   2.390
37201W        W 9527  36.368  22.627   4.741
37202W        W 9528  25.204  10.621   2.591
37203W        W 9529  37.049   3.957  11.565
37204W        W 9530  12.377  15.200  13.546
37205W        W 9531   2.303  40.903  11.430
37206W        W 9532  33.902   8.343  13.454
37207W        W 9533  14.515  24.679   0.682
37208W        W 9534   0.360  34.067  14.309
37209W        W 9535  23.975  37.379  11.521
37210W        W 9536  20.599  19.791  13.065
37211W        W 9537   9.185   8.843   0.438
37212W        W 9538  35.461  16.160  14.826
37213W        W 9539   5.598  12.769  11.817
37214W        W 9540  17.031  23.968   2.711
37215W        W 9541   1.227  17.109   3.748
37216W        W 9542  11.570  24.564   5.251
37217W        W 9543  43.912  35.132   4.568
37218W        W 9544   1.944  43.236  10.557
37219W        W 9545  31.601   5.784   1.257
37220W        W 9546  36.702   3.908  10.331
37221W        W 9547  20.290  41.026   0.962
37222W        W 9548  22.239  34.392   2.183
37223W        W 9549   9.348  29.667   1.749
37224W        W 9550   8.185  32.669  11.537
37225W        W 9551  12.374  15.554  11.030
37226W        W 9552  26.509  19.158   1.141
37227W        W 9553  22.610  26.234  11.661
37228W        W 9554   6.888  38.975  13.602
37229W        W 9555   1.692  43.531   4.452
37230W        W 9556  18.629  41.306   3.232
37231W        W 9557  17.279  26.014  11.160
37232W        W 9558  22.000  44.359   0.394
37233W        W 9559  14.425  41.491   1.633
37234W        W 9560  24.840  16.607  10.212
37235W        W 9561  28.120  31.754   5.017
37236W        W 9562  39.012  44.746  13.460
37237W        W 9563   8.232  29.522   4.735
37238W        W 9564  22.269   8.350  11.223
37239W        W 9565  34.403   9.738  14.760
37240W        W 9566  33.163  11.691   0.767
37241W        W 9567  18.790  44.047   4.661
37242W        W 9568  27.515   5.353   0.968
37243W        W 9569  11.886  43.210  13.354
37244W        W 9570  11.859   4.897  11.166
37245W        W 9571  36.936  35.385  13.909
37246W        W 9572  14.777  14.751  14.960
37247W        W 9573  34.029  11.924   0.731
37248W        W 9574  25.688  44.652   3.540
37249W        W 9575  28.087   8.859   9.710
37250W        W 9576  13.579  39.023  11.143
37251W        W 9577  10.590  43.836   2.273
37252W        W 9578  25.005  20.755   4.197
37253W        W 9579  43.948   5.526   0.802
37254W        W 9580  13.294  33.175  13.864
37255W        W 9581  12.628  23.757  11.917
37256W        W 9582  22.575  18.624  12.895
37257W        W 9583   7.276  14.792  11.407
37258W        W 9584   2.760  24.957  12.557
37259W        W 9585   6.261  14.281  13.366
37260W        W 9586  43.992  15.043   3.810
37261W        W 9587  14.244  35.367   4.550
37262W        W 9588  23.247   4.343   0.431
37263W        W 9589   7.291  30.960  14.839
37264W        W 9590  16.124  20.668  13.218
37265W        W 9591  13.806   2.054  14.427
37266W        W 9592   7.998  30.615   3.976
37267W        W 9593  10.230  12.760   0.357
37268W        W 9594   4.443  20.833  13.148
37269W        W 9595   5.785  38.754  14.823
37270W        W 9596  39.524  15.046   1.902
37271W        W 9597  32.000  10.500   3.752
37272W        W 9598  10.713  38.375  12.164
37273W        W 9599   2.047  35.175   4.780
37274W        W 9600  10.600   2.004   3.766
37275W        W 9601   5.170  42.897  11.484
37276W        W 9602  38.821  16.964  13.871
37277W        W 9603  43.430  28.450   2.954
37278W        W 9604  30.808  43.147  13.204
37279W        W 9605  27.106  21.455  13.813
37280W        W 9606   7.853  42.825  13.627
37281W        W 9607   5.975  20.263  13.454
37282W        W 9608  35.078  27.225   0.775
37283W        W 9609  25.139  34.867   1.764
37284W        W 9610   4.967  22.016   4.066
37285W        W 9611  11.263  18.747  10.767
37286W        W 9612  29.554  12.353   0.762
37287W        W 9613  35.157   1.657   1.488
37288W        W 9614  39.015  10.619   3.197
37289W        W 9615  25.977  31.521  12.571
37290W        W 9616  39.988  10.835  14.784
37291W        W 9617   4.130  43.477   1.388
37292W        W 9618  35.653  23.216  11.799
37293W        W 9619  42.930  21.251  14.430
37294W        W 9620   0.867   3.543  11.672
37295W        W 9621  26.055  34.213  12.057
37296W        W 9622  25.662   9.220  10.698
37297W        W 9623  12.231  23.124  12.020
37298W        W 9624  20.287   7.686   3.741
37299W        W 9625   7.855   2.202  13.495
37300W        W 9626  43.423  12.554  11.901
37301W        W 9627   7.201  41.403  14.918
37302W        W 9628  33.017  42.916   3.279
37303W        W 9629  32.891   8.796  10.695
37304W        W 9630   4.898  38.902  14.689
37305W        W 9631  28.958  33.128  12.041
37306W        W 9632  35.819  33.921   3.757
37307W        W 9633  34.531  18.336   2.325
37308W        W 9634  42.568  18.551   3.416
37309W        W 9635   5.264  22.995  12.836
37310W        W 9636  17.826  39.873   4.599
37311W        W 9637   4.213   5.280  14.890
37312W        W 9638   3.474  30.557  13.546
37313W        W 9639  35.827   2.796   0.807
37314W        W 9640   5.528   9.567  13.934
37315W        W 9641  36.795  23.661  10.715
37316W        W 9642  38.125  20.528  13.924
37317W        W 9643  44.474  18.162   3.407
37318W        W 9644  38.670  34.885   2.718
37319W        W 9645  13.228  42.519  14.398
37320W        W 9646  15.175  13.802   2.526
37321W        W 9647   5.414  37.940  14.964
37322W        W 9648  12.339   1.805  14.581
37323W        W 9649  34.906  17.238  14.861
37324W        W 9650  28.608  41.235  13.809
37325W        W 9651  27.487  24.595   2.812
37326W        W 9652  34.184  18.287  13.580
37327W        W 9653  27.461  39.413   2.636
37328W        W 9654  19.775  24.406  13.345
37329W        W 9655  16.410  34.478   0.505
37330W        W 9656   1.362  38.538  10.904
37331W        W 9657   0.430  13.378  12.168
37332W        W 9658  14.005  36.661   2.396
37333W        W 9659   8.651  19.873   0.378
37334W        W 9660  37.155   1.226   3.285
37335W        W 9661  34.455  33.996  14.297
37336W        W 9662  13.078  40.437   1.857
37337W        W 9663   9.674   9.302   3.440
37338W        W 9664  42.865  33.511   3.810
37339W        W 9665   5.304  33.837  10.586
37340W        W 9666  25.587   6.258   0.703
37341W        W 9667   4.010  32.975  10.884
37342W        W 9668   1.511  29.089   4.764
37343W        W 9669  43.478  38.359   4.162
37344W        W 9670   8.086   3.316   3.283
37345W        W 9671  18.368  35.998   0.323
37346W        W 9672  17.345  24.609  12.030
37347W        W 9673  38.246  40.358   4.269
37348W        W 9674  33.458  35.288   5.543
37349W        W 9675  29.413  44.370   2.180
37350W        W 9676  12.281   2.457  10.703
37351W        W 9677  23.534  40.470   2.023
37352W        W 9678  26.579  22.126   2.316
37353W        W 9679  19.708  14.063  13.441
37354W        W 9680  42.602  26.030  11.652
37355W        W 9681  33.871  42.231  10.788
37356W        W 9682  28.830  19.983   1.924
37357W        W 9683   7.367   5.008  13.077
37358W        W 9684   1.141   4.129  10.242
37359W        W 9685  19.727   7.429   1.854
37360W        W 9686  29.046   8.732  13.039
37361W        W 9687  20.255  41.821   0.432
37362W        W 9688  39.959  43.792   4.491
37363W        W 9689  24.740  10.414   2.810
37364W        W 9690  15.811  11.271  12.267
37365W        W 9691   2.731  42.545   1.195
37366W        W 9692   2.537   5.844   3.779
37367W        W 9693   8.646  36.065   0.280
37368W        W 9694  30.369  14.290   1.411
37369W        W 9695  12.756  32.926   3.129
37370W        W 9696   4.890  43.089   4.163
37371W        W 9697  10.604  15.782  12.382
37372W        W 9698   7.346  21.701   4.665
37373W        W 9699  26.169  15.722   2.328
37374W        W 9700  41.749   4.839   1.939
37375W        W 9701   0.978  37.121   2.633
37376W        W 9702  32.103  33.520  12.382
37377W        W 9703  11.617  23.116   2.757
37378W        W 9704  32.816  31.573   4.868
37379W        W 9705  24.087   9.162   0.678
37380W        W 9706  33.342   5.206  11.159
37381W        W 9707  32.939  35.344   2.667
37382W        W 9708  41.004  25.990   3.352
37383W        W 9709  14.848  32.000  11.410
37384W        W 9710  35.021  18.983  12.003
37385W        W 9711   5.318  17.881   0.801
37386W        W 9712   6.772  37.513  11.625
37387W        W 9713  38.918  25.744   0.823
37388W        W 9714  12.311  36.118  12.853
37389W        W 9715  38.560  41.470   2.777
37390W        W 9716  29.420  10.231  14.780
37391W        W 9717   4.809  28.687   4.548
37392W        W 9718   8.246  34.374  11.129
37393W        W 9719  23.617  37.538   3.589
37394W        W 9720  10.778  14.090   1.227
37395W        W 9721  40.925  42.557  10.747
37396W        W 9722  41.366  35.382  12.409
37397W        W 9723  17.234  24.099  10.716
37398W        W 9724   6.336  28.620  12.954
37399W        W 9725  15.148  37.870  14.498
37400W        W 9726  14.139  29.026   0.862
37401W        W 9727  36.873  19.651  13.610
37402W        W 9728  23.958   1.380   3.737
37403W        W 9729  32.806   7.355  13.099
37404W        W 9730  20.244  11.759   3.855
37405W        W 9731  18.285  44.032   4.529
37406W        W 9732  40.165  37.889   4.922
37407W        W 9733  26.753  20.519   3.780
37408W        W 9734  37.352  43.746  11.976
37409W        W 9735  28.402  44.334   2.334
37410W        W 9736   1.969  32.313   1.364
37411W        W 9737  34.415  30.238   1.270
37412W        W 9738  18.296  42.631  13.152
37413W        W 9739  31.087  22.051   2.775
37414W        W 9740   0.261   3.842  11.774
37415W        W 9741  10.812  33.541  14.753
37416W        W 9742  25.776  11.100   2.336
37417W        W 9743   2.442  39.210  12.384
37418W        W 9744  13.559  36.532  14.198
37419W        W 9745  23.749   2.194   2.712
37420W        W 9746  30.075  19.251  14.538
37421W        W 9747  20.998  30.551   0.542
37422W        W 9748  15.294   9.599  13.385
37423W        W 9749  14.592  14.035   1.659
37424W        W 9750  24.125  19.058  10.410
37425W        W 9751  19.264  24.525  14.115
37426W        W 9752  35.147  39.020   4.120
37427W        W 9753  12.653  43.275   1.379
37428W        W 9754   2.861   0.792   3.302
37429W        W 9755  17.154  10.642  11.420
37430W        W 9756  39.945  36.814   3.181
37431W        W 9757  15.109  39.050   2.668
37432W        W 9758  41.313  19.625   0.946
37433W        W 9759  33.405   4.805  13.979
37434W        W 9760  10.120  43.552  13.389
37435W        W 9761  23.650  27.240   1.132
37436W        W 9762   5.357  30.429  11.109
37437W        W 9763  15.345  21.227   9.630
37438W        W 9764  34.769  34.050   4.612
37439W        W 9765  13.268  26.651  11.836
37440W        W 9766  19.127   8.939  13.463
37441W        W 9767  44.884  43.735  13.440
37442W        W 9768  37.643  12.797  12.447
37443W        W 9769  25.034   7.994   1.808
37444W        W 9770  18.734  19.012  11.122
37445W        W 9771  25.398  15.734  14.810
37446W        W 9772  16.181  19.860  11.570
37447W        W 9773   6.614  13.674  14.420
37448W        W 9774  35.060   7.711   2.690
37449W        W 9775  31.087  33.039  11.374
37450W        W 9776  20.258  29.924   3.734
37451W        W 9777  21.260  34.115   3.209
37452W        W 9778  34.349  25.737   0.404
37453W        W 9779  26.728   0.867  13.464
37454W        W 9780  38.476  31.391  13.900
37455W        W 9781  15.129  30.567  11.057
37456W        W 9782  20.473   7.216   9.902
37457W        W 9783   4.700  41.396  14.867
37458W        W 9784  22.621  14.009   0.720
37459W        W 9785  18.434  10.716   0.977
37460W        W 9786   0.870   5.597   2.327
37461W        W 9787  31.915  28.204  12.519
37462W        W 9788  37.546  29.951   0.550
37463W        W 9789  22.703   9.173   0.387
37464W        W 9790  13.795   2.722   1.537
37465W        W 9791   7.464  40.552   2.350
37466W        W 9792  15.328  14.788  12.580
37467W        W 9793  22.748  12.342   2.285
37468W        W 9794  33.328  27.584   0.890
37469W        W 9795  36.793  39.409  13.879
37470W        W 9796  35.511  27.703  12.678
37471W        W 9797  28.211  16.248   0.037
37472W        W 9798  20.155   0.308  12.382
37473W        W 9799  38.280  36.611  11.650
37474W        W 9800  29.479  13.603  14.246
37475W        W 9801   7.149  26.376  13.247
37476W        W 9802  28.988  22.122  10.658
37477W        W 9803  25.633  12.814  11.578
37478W        W 9804  25.349  21.687   1.827
37479W        W 9805  36.619  34.447   1.746
37480W        W 9806  39.534  31.095   3.208
37481W        W 9807  34.928  28.392  14.946
37482W        W 9808  37.937  23.617  14.319
37483W        W 9809  26.557   1.302   1.037
37484W        W 9810  42.971  13.232   0.597
37485W        W 9811   0.918  17.372  11.875
37486W        W 9812   1.246  18.640   3.098
37487W        W 9813  37.925  25.412  11.033
37488W        W 9814   5.856  30.904  10.661
37489W        W 9815  21.790  28.172   2.755
37490W        W 9816  32.850  44.953   1.359
37491W        W 9817  31.004  24.556  11.934
37492W        W 9818  29.631  11.715   2.305
37493W        W 9819  21.150  11.630  10.569
37494W        W 9820  36.540  31.356   1.837
37495W        W 9821  13.194  24.020   1.465
37496W        W 9822  16.701  20.305   2.166
37497W        W 9823  40.948   9.663   4.675
37498W        W 9824   1.222  27.891  13.230
37499W        W 9825  35.821  33.646  14.386
37500W        W 9826  32.647  37.005   4.678
37501W        W 9827  14.539   7.893  14.837
37502W        W 9828  15.566  17.168   2.185
37503W        W 9829   1.909   3.603   3.731
37504W        W 9830   3.769   6.928  11.149
37505W        W 9831  15.343  43.973  11.943
37506W        W 9832  42.958  17.382  14.802
37507W        W 9833  14.603  33.855  12.510
37508W        W 9834  21.180  11.292   1.845
37509W        W 9835  38.043  29.943   4.197
37510W        W 9836  11.912   5.658   0.266
37511W        W 9837  25.238  39.232  13.331
37512W        W 9838  40.698  22.435   1.317
37513W        W 9839  11.090   3.363   2.367
37514W        W 9840  43.790  16.605   0.736
37515W        W 9841   5.272  32.578  14.313
37516W        W 9842  30.143   3.370   0.804
37517W        W 9843  39.772  33.981  14.926
37518W        W 9844  36.087  11.283   1.203
37519W        W 9845  27.727  39.762   1.362
37520W        W 9846  29.132  34.177  10.648
37521W        W 9847  14.283   0.364   2.716
37522W        W 9848  17.152   1.928  11.533
37523W        W 9849  26.198  28.475  11.519
37524W        W 9850  13.336  25.052   1.875
37525W        W 9851  44.579  19.810   2.880
37526W        W 9852  34.718  32.675  11.679
37527W        W 9853  17.257  43.430   3.234
37528W        W 9854  25.404  13.379   2.217
37529W        W 9855  12.280   1.857   0.832
37530W        W 9856  15.045  24.064  12.451
37531W        W 9857  11.225  27.884  11.172
37532W        W 9858  30.670  43.510   0.533
37533W        W 9859  39.047  10.920  11.166
37534W        W 9860  25.871   3.300  13.401
37535W        W 9861  28.432  24.872  10.519
37536W        W 9862  19.471  19.264   3.907
37537W        W 9863  21.257   4.970  11.544
37538W        W 9864   2.488  31.534  13.422
37539W        W 9865  27.317   8.357   0.614
37540W        W 9866  42.721  42.007  11.084
37541W        W 9867  18.123  15.243  10.579
37542W        W 9868  19.945  27.486  11.056
37543W        W 9869   1.200  38.399   4.652
37544W        W 9870   8.700  44.310  10.614
37545W        W 9871  20.677   9.373   3.302
37546W        W 9872   3.753  35.985   4.955
37547W        W 9873  30.465  35.294   4.644
37548W        W 9874  17.101  34.992   2.907
37549W        W 9875  25.071   2.313  12.597
37550W        W 9876  19.974  22.062   2.330
37551W        W 9877   8.681  20.281  12.527
37552W        W 9878  12.311  10.725   1.910
37553W        W 9879  40.201  34.322  12.050
37554W        W 9880  10.908  42.540  13.497
37555W        W 9881  39.498  10.313  11.578
37556W        W 9882   4.746  41.465  12.633
37557W        W 9883  14.157  21.505   0.204
37558W        W 9884  20.546  27.457   0.719
37559W        W 9885  21.062  34.980  11.553
37560W        W 9886  33.090   4.754  14.462
37561W        W 9887   7.021   7.379   0.324
37562W        W 9888  20.019   0.191  11.125
37563W        W 9889  33.291  36.108   5.110
37564W        W 9890  41.195  12.115  14.354
37565W        W 9891  42.319  29.217   3.161
37566W        W 9892  13.397  33.863  11.166
37567W        W 9893   3.156  36.146  12.271
37568W        W 9894   9.881  35.012   3.072
37569W        W 9895   3.916  34.921  12.832
37570W        W 9896  39.634  36.473   1.654
37571W        W 9897  41.322   3.281   1.723
37572W        W 9898  35.876  38.412  11.907
37573W        W 9899  19.601   3.823  11.547
37574W        W 9900   9.809  39.108  12.067
37575W        W 9901  39.791  37.701  11.570
37576W        W 9902  24.554  40.037   0.438
37577W        W 9903  35.101  44.457   2.947
37578W        W 9904   1.185   0.143   2.206
37579W        W 9905  39.434  27.614   1.937
37580W        W 9906   7.675   0.019  10.661
37581W        W 9907  44.317  19.773  10.922
37582W        W 9908   7.194   5.099  13.689
37583W        W 9909   1.097   3.815  14.317
37584W        W 9910  26.395  40.900   1.434
37585W        W 9911   8.408   5.767  13.974
37586W        W 9912  30.236  39.881  12.870
37587W        W 9913  28.616  25.702   4.718
37588W        W 9914  43.863  21.628  13.080
37589W        W 9915  16.548  44.300  13.896
37590W        W 9916   3.128  32.367  13.104
37591W        W 9917  24.298  31.157   1.502
37592W        W 9918  34.403  32.107   0.402
37593W        W 9919  41.490   0.328  13.507
37594W        W 9920  39.466  29.079   4.597
37595W        W 9921  22.997  21.276  11.625
37596W        W 9922  11.858  35.606  14.097
37597W        W 9923  10.389  42.498   2.460
37598W        W 9924  39.442  17.116   2.200
37599W        W 9925   3.277  35.276   0.949
37600W        W 9926  30.649   0.876  10.257
37601W        W 9927  37.146  25.003  12.058
37602W        W 9928  23.548  29.285  13.115
37603W        W 9929  21.207  15.237  13.319
37604W        W 9930  28.243  38.455  11.708
37605W        W 9931  18.608  13.683  13.618
37606W        W 9932  30.688   3.301   4.391
37607W        W 9933  41.573   1.349   1.272
37608W        W 9934  25.298  22.325  14.273
37609W        W 9935  38.269  14.272   4.234
37610W        W 9936  11.754  41.152   4.218
37611W        W 9937  40.019  41.909   1.758
37612W        W 9938  22.477  38.470   2.651
37613W        W 9939  15.247  15.622  12.869
37614W        W 9940   4.685  20.063   0.730
37615W        W 9941  37.994  22.473  11.095
37616W        W 9942   2.285  41.072  14.402
37617W        W 9943  25.717  39.542   4.599
37618W        W 9944  33.343   5.227  14.468
37619W        W 9945  18.686  38.382   3.699
37620W        W 9946   2.359  42.462   2.334
37621W        W 9947  17.205  31.084  10.582
37622W        W 9948  44.330  30.219   4.486
37623W        W 9949   9.216  41.298   5.079
37624W        W 9950  17.014  33.970  11.576
37625W        W 9951  30.894  44.868  11.013
37626W        W 9952  29.953  43.275  14.511
37627W        W 9953  42.434  24.214  11.629
37628W        W 9954   3.079  31.150  14.054
37629W        W 9955  31.638  28.977   1.396
37630W        W 9956  31.616  22.192  14.082
37631W        W 9957  24.388  42.887   3.023
37632W        W 9958   8.673  22.477   1.325
37633W        W 9959  21.903  22.896   1.609
37634W        W 9960  30.565  20.140  11.021
37635W        W 9961   6.099  36.335  14.801
37636W        W 9962  31.197  21.027   3.405
37637W        W 9963  43.661   6.837   1.210
37638W        W 9964  42.962  19.542  14.058
37639W        W 9965  18.268  38.485   4.033
37640W        W 9966   1.072  15.890   0.928
37641W        W 9967   8.768  28.963  12.076
37642W        W 9968  21.537  24.037   4.306
37643W        W 9969   2.660  10.139   1.286
37644W        W 9970  21.624   8.436  14.955
37645W        W 9971  37.794  42.914  11.948
37646W        W 9972  20.507  35.331   0.680
37647W        W 9973  41.895  19.931   4.219
37648W        W 9974  35.849  21.217  14.971
37649W        W 9975  10.619  12.308   2.611
37650W        W 9976  42.238  17.158  12.057
37651W        W 9977  33.449  24.153   2.821
37652W        W 9978   7.272  24.498   3.150
37653W        W 9979  28.920   5.501  13.891
37654W        W 9980   1.729   7.131  10.441
37655W        W 9981  12.772  25.658   4.395
37656W        W 9982  35.167   2.766  10.621
37657W        W 9983   8.077   8.877  12.496
37658W        W 9984   4.279  41.722  11.682
37659W        W 9985  34.924  20.590   0.404
37660W        W 9986  21.075  39.578   4.637
37661W        W 9987  40.429  17.259   4.856
37662W        W 9988   2.506  29.228   0.243
37663W        W 9989  33.599  33.170  11.011
37664W        W 9990  44.939  27.510   1.683
37665W        W 9991  24.190  16.725   2.220
37666W        W 9992  13.603  38.904  12.411
37667W        W 9993  41.208  12.344   3.389
37668W        W 9994  40.363  26.202  13.587
37669W        W 9995  32.286  43.749  11.293
37670W        W 9996  15.897  37.492  14.325
37671W        W 9997  18.275  36.884  14.903
37672W        W 9998   6.755  12.751  12.313
37673W        W 9999  39.436  13.371  13.319
37674W        W10000  38.439  21.956   0.826
37675W        W10001   0.187  18.681   3.640
37676W        W10002  35.323  17.152  12.420
37677W        W10003  25.646   4.709  10.431
37678W        W10004  16.595  23.426  11.915
37679W        W10005  20.324   3.028  12.497
37680W        W10006   5.759  28.447  13.082
37681W        W10007  25.905  12.618  10.662
37682W        W10008  10.370  41.799   2.893
37683W        W10009   2.440  22.054   1.923
37684W        W10010  15.528  24.677  12.948
37685W        W10011  17.334  13.199   4.279
37686W        W10012  44.570  10.610   3.161
37687W        W10013  25.419  38.868  14.259
37688W        W10014  25.675   7.870  12.474
37689W        W10015  22.641  33.116   0.439
37690W        W10016  16.842  38.438  14.436
37691W        W10017  12.230   0.332  13.982
37692W        W10018  34.138  17.161  13.007
37693W        W10019   4.285  38.598  13.598
37694W        W10020  16.031  19.181   3.650
37695W        W10021  38.776   2.249   1.901
37696W        W10022  29.423  28.671   3.908
37697W        W10023  28.561  12.549  11.490
37698W        W10024  10.853  15.547  12.840
37699W        W10025  40.824   0.843  14.194
37700W        W10026  18.695   3.879   3.982
37701W        W10027  11.591   0.207   0.759
37702W        W10028  16.819   3.183   4.119
37703W        W10029   0.703  25.947   2.857
37704W        W10030  42.970   9.098   2.428
37705W        W10031   6.356  25.407   5.098
37706W        W10032  32.007  37.409   2.726
37707W        W10033  44.123   3.255   4.578
37708W        W10034  40.442  17.061   1.368
37709W        W10035  12.687  33.508   9.864
37710W        W10036  29.054  20.310   3.831
37711W        W10037  17.789  16.133   0.897
37712W        W10038  33.595   7.918   1.426
37713W        W10039  29.991   8.754  11.155
37714W        W10040   5.095  41.277  10.656
37715W        W10041  16.121  36.905  11.402
37716W        W10042  14.692   6.416  12.545
37717W        W10043  10.748  22.777   4.547
37718W        W10044  37.821  23.019   0.494
37719W        W10045  42.219  17.824  14.637
37720W        W10046  32.860  39.905  14.837
37721W        W10047  37.259  25.383  13.433
37722W        W10048  24.629  44.557   3.583
37723W        W10049  12.958   4.189  11.010
37724W        W10050  36.931   3.326  11.466
37725W        W10051  44.032   2.987  14.582
37726W        W10052  36.630  26.741   1.282
37727W        W10053  43.624  21.896   2.234
37728W        W10054  10.229   0.240   0.732
37729W        W10055  12.597  35.171  10.377
37730W        W10056  38.602  32.051   1.363
37731W        W10057  35.927  38.498  14.489
37732W        W10058   4.299   6.621  11.870
37733W        W10059  39.065  20.819   0.599
37734W        W10060  27.566   0.988   4.643
37735W        W10061  14.180   6.755   2.929
37736W        W10062   4.429  36.585  13.552
37737W        W10063  14.140  10.891   1.364
37738W        W10064   0.397   5.626  13.829
37739W        W10065  17.309  28.449   1.708
37740W        W10066  30.771  40.315  13.949
37741W        W10067  21.751   2.310   2.183
37742W        W10068  17.544  23.011  12.168
37743W        W10069  44.003  29.683   3.129
37744W        W10070   1.008  26.928   0.892
37745W        W10071  12.593  37.949  13.518
37746W        W10072  42.440  31.472   0.003
37747W        W10073  37.260  24.501   4.639
37748W        W10074  44.037   2.280  11.024
37749W        W10075  41.355  25.702   2.328
37750W        W10076   4.456  34.217  12.999
37751W        W10077  15.722   5.001  13.035
37752W        W10078  31.800  22.928   3.751
37753W        W10079  44.290  37.644   1.364
37754W        W10080  15.713  33.433  13.798
37755W        W10081  28.628  26.571  13.628
37756W        W10082  40.038  38.211  11.415
37757W        W10083  31.921  43.942   2.689
37758W        W10084  22.753  36.951  12.976
37759W        W10085  34.302  37.886   3.749
37760W        W10086  25.704  39.215  12.432
37761W        W10087  10.262  35.463  12.588
37762W        W10088  31.372  22.576  12.030
37763W        W10089  44.430  40.790   4.569
37764W        W10090  10.190  40.298   2.257
37765W        W10091  41.239  27.634  11.453
37766W        W10092  13.652   1.837  12.617
37767W        W10093  15.070  19.235  13.930
37768W        W10094  42.996   8.411   2.956
37769W        W10095  23.469  43.969   3.676
37770W        W10096   6.197  34.907   3.302
37771W        W10097  21.215  16.624  14.577
37772W        W10098  12.153  14.529  13.868
37773W        W10099  31.581  28.602   4.344
37774W        W10100  18.552  26.258   2.269
37775W        W10101  17.187   8.300  11.496
37776W        W10102  22.198  20.144   1.202
37777W        W10103  33.705  25.926  11.515
37778W        W10104  15.270  28.045  14.395
37779W        W10105   0.791  15.070  14.837
37780W        W10106  44.581   0.443   0.757
37781W        W10107  17.080   8.264  10.584
37782W        W10108   5.335  28.431  11.643
37783W        W10109  37.877   1.682  11.223
37784W        W10110   6.222  30.169  10.592
37785W        W10111   6.318   6.211   3.908
37786W        W10112  32.223   4.412  13.499
37787W        W10113  30.033  11.688  14.441
37788W        W10114  43.929   7.704  11.242
37789W        W10115  15.416  22.240   1.649
37790W        W10116  27.966   0.421  10.157
37791W        W10117  12.674  23.180   1.339
37792W        W10118  39.385  26.262  11.151
37793W        W10119  26.109   7.173  14.478
37794W        W10120  35.523  18.525   0.511
37795W        W10121   8.715  22.707   4.128
37796W        W10122  39.354  21.273   1.448
37797W        W10123  12.214  20.828   1.236
37798W        W10124  41.536   7.565   4.327
37799W        W10125  44.221  21.175   3.203
37800W        W10126  15.554   4.307   0.261
37801W        W10127  40.455  41.491  11.199
37802W        W10128  29.636  22.680   2.420
37803W        W10129   6.625  25.658   2.745
37804W        W10130  29.099   5.509   2.288
37805W        W10131  31.101  21.623   4.374
37806W        W10132   3.744  30.122   0.298
37807W        W10133  11.115  36.949  14.209
37808W        W10134  40.435   2.625  13.809
37809W        W10135  14.282   4.753  14.878
37810W        W10136  14.724   3.052   4.578
37811W        W10137  10.126   5.367   1.276
37812W        W10138  11.667   1.978   2.907
37813W        W10139   4.628  38.087  12.777
37814W        W10140  26.248   0.340   3.446
37815W        W10141  13.366  20.207  13.332
37816W        W10142  24.190  25.404  10.229
37817W        W10143  41.377  27.306  14.262
37818W        W10144  32.459  38.580   3.305
37819W        W10145  33.100  37.902   1.319
37820W        W10146  14.323  25.707   4.778
37821W        W10147  18.764  13.900   3.691
37822W        W10148  33.204  37.406  11.017
37823W        W10149   7.836   7.703  11.168
37824W        W10150  36.003   9.668   2.504
37825W        W10151   5.441  21.930   1.285
37826W        W10152  14.856  25.674   5.072
37827W        W10153  37.420   7.725  11.033
37828W        W10154   7.241   8.789   0.196
37829W        W10155  11.716  12.625  12.986
37830W        W10156  25.985  24.433   2.801
37831W        W10157  43.079   2.890   1.881
37832W        W10158  23.804  41.447  12.487
37833W        W10159  35.327  30.588  13.521
37834W        W10160  23.008  28.257   2.368
37835W        W10161  23.817  32.095  14.825
37836W        W10162  12.268   2.370  12.860
37837W        W10163  22.084  29.919  12.956
37838W        W10164  26.019  38.019  13.963
37839W        W10165   3.042  21.371   5.462
37840W        W10166   7.737  14.361  13.001
37841W        W10167  40.857  10.812   0.395
37842W        W10168  21.077  30.280   4.086
37843W        W10169  11.984  38.340   3.076
37844W        W10170  30.677  25.011  14.683
37845W        W10171  11.790   1.877  10.145
37846W        W10172  19.268  42.384  13.238
37847W        W10173   4.662  13.110  13.343
37848W        W10174  38.637  32.011  11.329
37849W        W10175  21.196  28.476   3.373
37850W        W10176  40.368  39.605   0.368
37851W        W10177  10.108  22.079  14.991
37852W        W10178   8.337  21.588  14.803
37853W        W10179   5.140  44.546   0.261
37854W        W10180  43.475   7.605  11.542
37855W        W10181  13.239   0.514   1.274
37856W        W10182   6.932  28.569  13.887
37857W        W10183  43.112   1.887   9.725
37858W        W10184  21.770   3.866  12.999
37859W        W10185  17.244  38.576  12.303
37860W        W10186   0.458  12.147  14.655
37861W        W10187   0.344  33.241  13.088
37862W        W10188  11.573  43.674   0.321
37863W        W10189  36.056   0.409   3.560
37864W        W10190  27.301  13.782   1.754
37865W        W10191  18.706   1.048   3.318
37866W        W10192   1.866   7.892  13.342
37867W        W10193  40.516  44.859   0.966
37868W        W10194  22.344  27.914  12.915
37869W        W10195   0.393  24.461   4.173
37870W        W10196  11.241   7.367   3.009
37871W        W10197   1.920  39.877  12.001
37872W        W10198  16.185   8.151  14.311
37873W        W10199  27.925  28.942  11.138
37874W        W10200  40.367  10.353  14.183
37875W        W10201   9.341  23.508  12.543
37876W        W10202   1.875  19.690  13.400
37877W        W10203  10.153  18.249   0.881
37878W        W10204  42.844  39.365  13.395
37879W        W10205  40.568  37.655   3.277
37880W        W10206   5.316  21.892   3.659
37881W        W10207   0.884  29.604   3.656
37882W        W10208  14.874  15.577  14.298
37883W        W10209  26.005  28.792   3.662
37884W        W10210  16.659   0.768   3.234
37885W        W10211   6.611  37.890  14.341
37886W        W10212  36.895  40.575   0.954
37887W        W10213  44.887  43.030  12.264
37888W        W10214  43.285  10.396   3.281
37889W        W10215   1.341   4.850   3.733
37890W        W10216  38.659   1.384  11.672
37891W        W10217  22.553  20.186  10.922
37892W        W10218  11.794   0.275  11.862
37893W        W10219   6.763   0.087  12.497
37894W        W10220  31.522  44.856  14.363
37895W        W10221   6.167  11.063   3.629
37896W        W10222  29.194  40.471   1.430
37897W        W10223  32.496  24.728  10.972
37898W        W10224  13.802  44.605  13.512
37899W        W10225   2.081  36.852  10.794
37900W        W10226   3.493  17.597   0.318
37901W        W10227  18.236  19.144   3.241
37902W        W10228  13.126  44.440   3.714
37903W        W10229  17.279  11.948   0.410
37904W        W10230   3.450   4.676   2.392
37905W        W10231   5.417  30.465   4.615
37906W        W10232   6.214  19.656   3.767
37907W        W10233  44.577   1.249  10.675
37908W        W10234  29.460  22.444  11.181
37909W        W10235   5.366  38.495   0.769
37910W        W10236  11.934  10.341   5.215
37911W        W10237  44.942  33.531  13.298
37912W        W10238  39.985  39.929   0.559
37913W        W10239  16.618   6.328  11.042
37914W        W10240  35.045  28.720   2.227
37915W        W10241  31.892  38.268  14.470
37916W        W10242   6.173  29.431   3.808
37917W        W10243  15.134   8.210   3.829
37918W        W10244  32.409   5.654  13.448
37919W        W10245   9.876  28.148   3.353
37920W        W10246  36.613  40.952   1.203
37921W        W10247  41.655  33.529  12.028
37922W        W10248  11.104   9.141   0.412
37923W        W10249   4.992  39.297   0.305
37924W        W10250  40.758  42.037   1.174
37925W        W10251  21.763   2.211   1.207
37926W        W10252   5.509  31.898  12.918
37927W        W10253  11.972  24.847  12.066
37928W        W10254  20.051  23.472   3.201
37929W        W10255   1.971  40.822   1.460
37930W        W10256  11.311  43.729  14.862
37931W        W10257   0.467   3.620   0.299
37932W        W10258  15.276  27.735   1.870
37933W        W10259  28.384  25.258   4.539
37934W        W10260  15.976  11.177   3.616
37935W        W10261  43.970  12.859  13.121
37936W        W10262  26.538   0.373  14.330
37937W        W10263  20.295  34.949  13.376
37938W        W10264  18.181   3.720   2.314
37939W        W10265  41.701  11.049  11.136
37940W        W10266  15.450   3.382  14.045
37941W        W10267  14.250  34.872  10.213
37942W        W10268  15.078  43.546   3.691
37943W        W10269  12.138   4.658  14.393
37944W        W10270  13.760   3.895   2.020
37945W        W10271  11.936  16.292  14.294
37946W        W10272  11.412  37.043   2.855
37947W        W10273  19.738   3.281   1.438
37948W        W10274  12.220  40.804   3.607
37949W        W10275  19.359  41.356   2.532
37950W        W10276  10.837  32.594  11.082
37951W        W10277   4.914  37.930   1.912
37952W        W10278  41.819  39.928  10.562
37953W        W10279  21.909  42.834   0.870
37954W        W10280  44.809  12.236   1.888
37955W        W10281  30.187  12.157   1.938
37956W        W10282  39.848  22.981  14.148
37957W        W10283  14.662  14.555   1.731
37958W        W10284   6.333   5.182  12.191
37959W        W10285   0.572  38.521  13.858
37960W        W10286  15.703   2.644  13.400
37961W        W10287   7.163  38.574  13.809
37962W        W10288  32.422  41.738  14.481
37963W        W10289  32.058  18.629   1.442
37964W        W10290   5.368  20.931   2.936
37965W        W10291  15.268  30.416   4.638
37966W        W10292  44.488  28.245   1.809
37967W        W10293  31.527  24.890  11.400
37968W        W10294  11.319  23.523  12.356
37969W        W10295   3.006   2.961  10.487
37970W        W10296   9.559  41.224   1.356
37971W        W10297  10.338  41.378  14.910
37972W        W10298  17.520  24.094  14.706
37973W        W10299  34.825  19.764  11.596
37974W        W10300  40.651  30.189  12.134
37975W        W10301  39.795  27.999  13.844
37976W        W10302  15.323  23.257  14.380
37977W        W10303  26.607  23.659  10.347
37978W        W10304  41.370   4.980  11.000
37979W        W10305  28.953  30.115   3.502
37980W        W10306  43.207   3.103  12.252
37981W        W10307  34.004  26.949   2.884
37982W        W10308  30.534  30.188   4.709
37983W        W10309  20.094  35.937  12.107
37984W        W10310  27.840  34.842   2.340
37985W        W10311  22.675  20.462   2.165
37986W        W10312  25.045  23.146   4.630
37987W        W10313  26.468  25.017   1.696
37988W        W10314  42.203  11.056   1.240
37989W        W10315  43.763  23.610   3.524
37990W        W10316  27.747   6.997   3.352
37991W        W10317  14.139  37.605   0.933
37992W        W10318  26.166  16.069   1.914
37993W        W10319   3.024  39.056  14.481
37994W        W10320  40.948  36.583  10.726
37995W        W10321  38.429  26.594  12.189
37996W        W10322   8.300   8.948   0.194
37997W        W10323  23.474  14.658   4.940
37998W        W10324  39.479  15.799   1.324
37999W        W10325   9.078  27.202  11.521
38000W        W10326  42.771  18.925  12.555
38001W        W10327  23.509  26.663   0.248
38002W        W10328  29.468  23.710   1.437
38003W        W10329   1.498  29.812   4.464
38004W        W10330  32.705  16.663  11.100
38005W        W10331   9.569  24.371   9.990
38006W        W10332   2.765  30.523  10.512
38007W        W10333  42.972  37.941  13.852
38008W        W10334  25.061  19.573   0.393
38009W        W10335  15.176  19.237  11.761
38010W        W10336  36.971  24.038   2.284
38011W        W10337  10.671  31.966  12.445
38012W        W10338   9.206   0.271  14.583
38013W        W10339   7.477  34.554   0.890
38014W        W10340  31.624   0.768   3.707
38015W        W10341  18.278  28.869  12.523
38016W        W10342   0.234  36.029  12.841
38017W        W10343  39.499  24.240   0.419
38018W        W10344  40.431  27.970   2.164
38019W        W10345  20.075   7.650   3.164
38020W        W10346   0.718  26.978  13.208
38021W        W10347  10.225  40.086  12.116
38022W        W10348  31.034   1.174  14.400
38023W        W10349   5.925   2.903  13.038
38024W        W10350  36.993  19.682   1.946
38025W        W10351  15.742  24.954   3.829
38026W        W10352  42.019  33.396  12.890
38027W        W10353  22.155  34.537  13.703
38028W        W10354  16.017   1.140   3.915
38029W        W10355  24.255  33.083  12.486
38030W        W10356  19.754  41.922  14.668
38031W        W10357  37.371  19.058  14.155
38032W        W10358  24.281  21.105   1.005
38033W        W10359  14.684  16.133   3.733
38034W        W10360  21.041   4.814  13.282
38035W        W10361  28.946  31.466   0.294
38036W        W10362  42.520  36.884   1.241
38037W        W10363  20.302  35.384  11.614
38038W        W10364  21.823  28.212   1.001
38039W        W10365  21.768  41.521   3.588
38040W        W10366  35.468  18.850   1.363
38041W        W10367  25.124  17.729   5.001
38042W        W10368   9.635  12.436  12.042
38043W        W10369  18.803   8.813   2.253
38044W        W10370  32.334  34.138  13.928
38045W        W10371  38.385   8.868  11.477
38046W        W10372  20.551  20.802  12.771
38047W        W10373  15.445  26.263  13.780
38048W        W10374  32.164  13.178   4.707
38049W        W10375  18.441  19.824  10.392
38050W        W10376  31.720  29.978  14.654
38051W        W10377   6.157   5.253   1.430
38052W        W10378  13.636  14.745  12.081
38053W        W10379   0.450  22.157  13.015
38054W        W10380   4.064   5.910   3.769
38055W        W10381  12.016  27.993   4.205
38056W        W10382   9.823  38.552  10.690
38057W        W10383  16.971  21.232  10.249
38058W        W10384   2.981  11.220  14.507
38059W        W10385   9.911  40.373   3.585
38060W        W10386  35.085  11.613   0.829
38061W        W10387  30.434  11.215  13.943
38062W        W10388  16.320   7.090   2.295
38063W        W10389   7.973  12.542  11.172
38064W        W10390   4.338  12.531  11.083
38065W        W10391  11.249  21.223  12.989
38066W        W10392  15.548  11.130  13.322
38067W        W10393   9.124  19.562   2.453
38068W        W10394  22.701  32.515  10.325
38069W        W10395   2.709  11.044   4.565
38070W        W10396  18.051  29.728  13.610
38071W        W10397  25.775  28.493   4.883
38072W        W10398  19.973  20.626   1.866
38073W        W10399  34.224  32.588  11.510
38074W        W10400  36.403  16.107  13.889
38075W        W10401  23.753  28.000  12.944
38076W        W10402  34.564  42.759  12.067
38077W        W10403  30.119   5.700  10.924
38078W        W10404  37.620  19.681  14.203
38079W        W10405  25.079  10.731   4.098
38080W        W10406  38.508  15.725   3.881
38081W        W10407   5.463   1.784  13.383
38082W        W10408  12.698  35.003   2.472
38083W        W10409  27.913  22.569  11.178
38084W        W10410  39.993   8.847   4.934
38085W        W10411   5.343   5.824   2.262
38086W        W10412  43.140  36.994  14.993
38087W        W10413  18.026  20.488  14.692
38088W        W10414   7.321  30.991  11.507
38089W        W10415   7.253  28.605   2.007
38090W        W10416  30.334  28.382  12.507
38091W        W10417  20.171  43.217  11.440
38092W        W10418   7.159   3.711  13.593
38093W        W10419  14.419  11.747  11.955
38094W        W10420   4.345  38.770   0.819
38095W        W10421  14.098   1.193  10.444
38096W        W10422   9.760  30.161  12.482
38097W        W10423   7.669  27.005  14.851
38098W        W10424  30.598  18.669   2.126
38099W        W10425  34.621  27.600  14.568
38100W        W10426   9.937  19.187   0.393
38101W        W10427  22.677   1.025   2.693
38102W        W10428  30.527  27.132  13.096
38103W        W10429  27.646  19.476   2.300
38104W        W10430   7.761  17.020   1.873
38105W        W10431  34.146   2.744   0.468
38106W        W10432  18.500   6.144   3.238
38107W        W10433  39.017  10.359   0.947
38108W        W10434  30.531   3.286  14.420
38109W        W10435  31.086  21.759  13.477
38110W        W10436  20.359   1.242  11.112
38111W        W10437  42.963  24.834  13.092
38112W        W10438  33.664  36.943  12.114
38113W        W10439  37.953  12.787   5.007
38114W        W10440  28.482  38.656   3.801
38115W        W10441  36.584   7.216  11.519
38116W        W10442  34.876  25.953  12.425
38117W        W10443  20.574  10.834  10.720
38118W        W10444  26.966  20.189   2.746
38119W        W10445  17.591  19.105  10.282
38120W        W10446  12.952  22.686  11.585
38121W        W10447  35.509  14.040   5.060
38122W        W10448  40.397  13.637  13.588
38123W        W10449  16.837  16.363   3.189
38124W        W10450  14.888  13.814   1.255
38125W        W10451  40.350  36.991   3.998
38126W        W10452   4.663   6.015  14.916
38127W        W10453   6.287  11.391  13.534
38128W        W10454   8.388  24.452   3.455
38129W        W10455  38.920   7.672   9.856
38130W        W10456  44.373  10.393   0.734
38131W        W10457  25.206   6.155   3.213
38132W        W10458  17.870  14.157   0.404
38133W        W10459  32.991   8.141   4.138
38134W        W10460  23.127  32.635  12.499
38135W        W10461  35.113  42.275   5.022
38136W        W10462  19.417  10.686  14.281
38137W        W10463  21.077  29.182  10.751
38138W        W10464   3.890  10.870  14.480
38139W        W10465   2.943  38.898  12.303
38140W        W10466  44.230  40.844   1.838
38141W        W10467  15.682  24.237  11.509
38142W        W10468  34.535  44.961  10.746
38143W        W10469  36.098   2.885  10.680
38144W        W10470  13.669  12.329  12.003
38145W        W10471   9.690  15.608   3.235
38146W        W10472   7.111  15.177   0.282
38147W        W10473   3.863  10.158  14.052
38148W        W10474  35.029  37.145   1.436
38149W        W10475  40.742  17.227  13.840
38150W        W10476  24.142   4.751  14.364
38151W        W10477   4.463   3.168   2.405
38152W        W10478  41.892  15.255  14.815
38153W        W10479  27.556  21.221  11.561
38154W        W10480  38.918  22.573  14.339
38155W        W10481  21.745  24.581  12.516
38156W        W10482  21.198  33.723  14.337
38157W        W10483   5.864  11.453   4.199
38158W        W10484   6.791  10.843  12.534
38159W        W10485  30.930   3.780  13.438
38160W        W10486  16.011  33.853  11.472
38161W        W10487  17.336  37.064   2.300
38162W        W10488  17.992  40.886  14.378
38163W        W10489  27.157  18.271  13.190
38164W        W10490  43.402  41.882   2.206
38165W        W10491  41.462  19.021  14.912
38166W        W10492   7.643  34.113  10.584
38167W        W10493  30.191   3.097  10.720
38168W        W10494  19.534  15.335   0.956
38169W        W10495  44.604  23.219  14.360
38170W        W10496  10.648  39.053  14.829
38171W        W10497  36.926  25.449  10.701
38172W        W10498  40.211  14.315   4.544
38173W        W10499  12.857   9.274   0.834
38174W        W10500  33.990   0.328   2.387
38175W        W10501  43.377  29.887   0.004
38176W        W10502  32.369  42.815   1.206
38177W        W10503   9.147  36.868  13.923
38178W        W10504  22.238   2.233   2.353
38179W        W10505  37.283  39.485  12.023
38180W        W10506  42.216  31.113  14.698
38181W        W10507  37.419  10.460   5.529
38182W        W10508  21.680  10.083   2.377
38183W        W10509  24.875  31.596   0.275
38184W        W10510  18.796  23.435  12.290
38185W        W10511   3.879  14.773  11.581
38186W        W10512  32.352   1.467   2.756
38187W        W10513  30.060  36.583   2.881
38188W        W10514  13.155  39.873   0.260
38189W        W10515  42.844  20.484   3.609
38190W        W10516  31.479  14.880   4.590
38191W        W10517   3.834   0.009   0.288
38192W        W10518  29.054   0.017  12.590
38193W        W10519  29.948   8.253  10.728
38194W        W10520  22.991   4.697   1.754
38195W        W10521  23.178   7.852   2.309
38196W        W10522   8.767  29.875  12.375
38197W        W10523  12.794  37.621  14.785
38198W        W10524  39.072  44.401   2.479
38199W        W10525   5.163   3.350  14.379
38200W        W10526  31.902  41.537  11.994
38201W        W10527   0.581   8.193  12.971
38202W        W10528  26.887  14.722   4.245
38203W        W10529  17.054  42.028  10.628
38204W        W10530  19.596   4.376   2.290
38205W        W10531  35.083  36.611   3.197
38206W        W10532  41.835  13.177  13.748
38207W        W10533  27.406  24.781   5.020
38208W        W10534  22.538  35.099   0.311
38209W        W10535  12.812  22.253  12.865
38210W        W10536  28.909   3.940  11.260
38211W        W10537  43.830   6.369   3.259
38212W        W10538  15.756  42.478  14.569
38213W        W10539  31.874   0.451   2.820
38214W        W10540  40.469  31.442  12.453
38215W        W10541  27.888   5.733  13.042
38216W        W10542  17.558   7.226   1.704
38217W        W10543  13.262  30.100  14.377
38218W        W10544  18.718  40.323   3.923
38219W        W10545  25.165  27.163   0.000
38220W        W10546   9.661  31.440   4.549
38221W        W10547  40.694   1.891  13.712
38222W        W10548   0.460  11.914   2.177
38223W        W10549  25.077  33.832  12.854
38224W        W10550  12.408  26.017  12.925
38225W        W10551   5.652  16.889  11.535
38226W        W10552  43.182  14.256   4.713
38227W        W10553   5.892  16.761  13.372
38228W        W10554  26.592  15.296  13.061
38229W        W10555  21.928  18.431   3.158
38230W        W10556  13.595  41.839  12.442
38231W        W10557  10.885  25.086   3.336
38232W        W10558  29.571  14.885   1.563
38233W        W10559   4.967  24.616  14.530
38234W        W10560   6.294  28.748  14.939
38235W        W10561  27.122  40.984  12.509
38236W        W10562   8.227  25.897  12.219
38237W        W10563  20.468   3.487  12.265
38238W        W10564  21.573  37.083   5.032
38239W        W10565  31.770  31.555  11.355
38240W        W10566  31.538   5.106  10.658
38241W        W10567  13.282   6.884  12.498
38242W        W10568  41.162   2.253  13.493
38243W        W10569   4.472  41.311   0.731
38244W        W10570  32.448   6.135  14.334
38245W        W10571  43.209   6.389  14.956
38246W        W10572  37.374  11.317  11.450
38247W        W10573  32.933  40.553   2.591
38248W        W10574  15.364  38.063   2.746
38249W        W10575   7.811   7.746  12.592
38250W        W10576   5.329  42.957   4.903
38251W        W10577  14.603  10.830   1.666
38252W        W10578   4.845  10.793  12.842
38253W        W10579  44.026  18.924  14.849
38254W        W10580  18.963  36.784   4.187
38255W        W10581  13.554  16.309   0.824
38256W        W10582   3.699  13.821   2.229
38257W        W10583  29.428  14.634   3.049
38258W        W10584   3.930  23.167  13.123
38259W        W10585  21.554   1.423   0.563
38260W        W10586  16.591   8.240  12.719
38261W        W10587  39.248   2.561   1.023
38262W        W10588  41.607  38.434   4.863
38263W        W10589  41.003  37.837   0.291
38264W        W10590   2.899  21.022   2.412
38265W        W10591  43.311  24.490  12.835
38266W        W10592  27.983  11.808  11.961
38267W        W10593  35.050  35.097   0.147
38268W        W10594  11.116   0.748   3.596
38269W        W10595   6.251  12.313  12.506
38270W        W10596  39.544   2.974  14.923
38271W        W10597  29.699  18.174   4.158
38272W        W10598  26.513  26.221  11.548
38273W        W10599  17.568  40.993   2.289
38274W        W10600   5.343   1.231  10.970
38275W        W10601  17.580  15.450   4.076
38276W        W10602   0.215   4.352   2.111
38277W        W10603   0.690   8.205  12.058
38278W        W10604   7.397  18.572  11.841
38279W        W10605  20.040  18.176   4.274
38280W        W10606  42.510  24.481   2.329
38281W        W10607  28.627  20.525   4.103
38282W        W10608  44.884  16.766   4.011
38283W        W10609   0.421  11.737   2.654
38284W        W10610  33.900   7.711   0.681
38285W        W10611   6.939   5.218   1.813
38286W        W10612  25.331  31.079   2.218
38287W        W10613   2.382  36.592   3.174
38288W        W10614   9.493  34.685  12.811
38289W        W10615  36.410  15.760  12.834
38290W        W10616  17.668  32.718   0.776
38291W        W10617  33.851  42.244  13.911
38292W        W10618  12.194  11.524  12.927
38293W        W10619   4.558   3.282   9.755
38294W        W10620  39.344  28.899  14.128
38295W        W10621  17.578   9.862   1.508
38296W        W10622  23.124  32.775  10.203
38297W        W10623  44.069  40.851   2.773
38298W        W10624  22.719   4.941   4.055
38299W        W10625  33.032   9.718  13.577
38300W        W10626  12.389  11.418  11.213
38301W        W10627  14.054  20.064   4.229
38302W        W10628  41.763  11.746  10.339
38303W        W10629  11.155  17.990  12.791
38304W        W10630  28.555  34.716  11.041
38305W        W10631   6.029  24.214   0.490
38306W        W10632  25.748   5.706  12.895
38307W        W10633  31.061  43.522  13.506
38308W        W10634   7.744  36.506  13.949
38309W        W10635  42.789  27.129  11.575
38310W        W10636   5.946  43.840  11.790
38311W        W10637  38.547  42.387  14.497
38312W        W10638  12.572  16.801  12.503
38313W        W10639  22.958  15.287   5.459
38314W        W10640  27.785   0.995  14.252
38315W        W10641  17.541   3.892  11.016
38316W        W10642   7.474  27.625   1.498
38317W        W10643  40.833   0.497   1.810
38318W        W10644  10.621  36.594   3.791
38319W        W10645  37.476   1.945   1.738
38320W        W10646   6.754   3.245  13.516
38321W        W10647   3.382   7.868  10.720
38322W        W10648  38.360  38.912   1.960
38323W        W10649  25.091  25.496   1.758
38324W        W10650  25.127  40.765   3.626
38325W        W10651  27.966  34.500  11.726
38326W        W10652  43.936  13.734  11.565
38327W        W10653  41.207  40.816  12.077
38328W        W10654  40.588   1.723   1.687
38329W        W10655   4.708   9.179  11.080
38330W        W10656  42.827  44.318  13.043
38331W        W10657  24.015  26.471   1.812
38332W        W10658  28.497  43.014  12.957
38333W        W10659  14.591  41.047  12.170
38334W        W10660  12.780   0.798   0.629
38335W        W10661  43.284  14.195  13.581
38336W        W10662  20.230  22.126   1.875
38337W        W10663  18.170   1.205   2.183
38338W        W10664  39.195  11.455  14.077
38339W        W10665  16.271   3.812   2.703
38340W        W10666  20.498   9.933  10.662
38341W        W10667  44.225  14.254  13.479
38342W        W10668  19.795  41.591   2.705
38343W        W10669   5.394  25.221   1.315
38344W        W10670  24.750  44.731  13.926
38345W        W10671  37.590  24.978  13.472
38346W        W10672  22.453  32.167  12.799
38347W        W10673  35.959  25.058   3.312
38348W        W10674  38.883   5.319  12.587
38349W        W10675  24.169   2.161  13.829
38350W        W10676  13.065  12.732   4.119
38351W        W10677  20.822  34.931  13.482
38352W        W10678  16.616  16.214  14.476
38353W        W10679  24.067  37.625   4.284
38354W        W10680  27.678   1.105   3.680
38355W        W10681   2.628  11.525  13.598
38356W        W10682  31.870  20.542  14.801
38357W        W10683  20.713  26.241  13.881
38358W        W10684  38.637  26.684  10.186
38359W        W10685  30.394  14.319  12.861
38360W        W10686  40.125  40.921   1.904
38361W        W10687  34.964   8.643   5.522
38362W        W10688  27.363  22.531   3.703
38363W        W10689  30.480  30.920   4.181
38364W        W10690  32.094  32.282  13.974
38365W        W10691  27.516  27.569   4.614
38366W        W10692   9.648   0.279   4.079
38367W        W10693  35.257  27.556   1.726
38368W        W10694  21.209  11.320   2.758
38369W        W10695  15.304  24.641   1.334
38370W        W10696  18.563   5.898  14.962
38371W        W10697  35.791  26.502  14.397
38372W        W10698  33.978  20.264   1.371
38373W        W10699   4.742  34.368  13.435
38374W        W10700   7.963  27.674   2.248
38375W        W10701  17.230  15.834  13.314
38376W        W10702  28.224  37.501   5.040
38377W        W10703   5.476   6.704   0.680
38378W        W10704  13.578   7.284  13.608
38379W        W10705  11.106   8.238  13.323
38380W        W10706   8.139  28.991  12.492
38381W        W10707  38.574  34.391   4.524
38382W        W10708   2.406  32.495   2.166
38383W        W10709   4.412   9.820   3.827
38384W        W10710  13.881   1.419   0.304
38385W        W10711  11.464   6.525   2.698
38386W        W10712  35.320  18.674   4.740
38387W        W10713  40.842  18.311   2.795
38388W        W10714  28.355  19.617  13.869
38389W        W10715  11.243  44.057  12.003
38390W        W10716  36.545  25.560   3.779
38391W        W10717  38.777  25.460  13.812
38392W        W10718   8.331  11.569  10.382
38393W        W10719  16.982  44.744  14.380
38394W        W10720  40.357  35.137  13.885
38395W        W10721  11.134  11.787   4.068
38396W        W10722  34.532   7.946   1.477
38397W        W10723  16.944  22.690  11.001
38398W        W10724  12.123   5.888  12.083
38399W        W10725  16.867  12.987   4.273
38400W        W10726   1.140  15.329  13.486
38401W        W10727  20.709  39.011   4.225
38402W        W10728   5.703  29.492   3.563
38403W        W10729   6.514  44.359  11.523
38404W        W10730  20.695  39.821  14.282
38405W        W10731  41.549  39.933   4.903
38406W        W10732  40.859  27.349  12.985
38407W        W10733  43.857  41.924   0.869
38408W        W10734  36.826   7.051   3.305
38409W        W10735  25.476   9.857  13.437
38410W        W10736  17.774  31.492  14.505
38411W        W10737  34.088  16.516  14.297
38412W        W10738   2.628   4.508  13.472
38413W        W10739   4.700  18.377   2.237
38414W        W10740   4.418  28.194  14.805
38415W        W10741   8.980  30.580  11.166
38416W        W10742  33.439  17.788   4.766
38417W        W10743  23.318  37.639  12.516
38418W        W10744  13.290  31.036  10.963
38419W        W10745  35.918  12.189   4.627
38420W        W10746  36.300  28.570   2.772
38421W        W10747  22.857  27.533  10.689
38422W        W10748  16.998  32.408   3.570
38423W        W10749  26.808  23.272   0.819
38424W        W10750   5.707  11.144   4.603
38425W        W10751   0.524   5.290  13.464
38426W        W10752  44.293  24.324   1.823
38427W        W10753  31.586  31.548   1.421
38428W        W10754  34.713  15.500  12.351
38429W        W10755   0.457  25.941   3.631
38430W        W10756  42.813  43.517  14.044
38431W        W10757   6.724  43.361  13.921
38432W        W10758  15.543  18.643   0.918
38433W        W10759  17.073   8.577   4.836
38434W        W10760   2.879   4.276   5.418
38435W        W10761  29.783   8.293   4.618
38436W        W10762  19.224  37.411  12.691
38437W        W10763  20.799  15.150   1.910
38438W        W10764   8.380  24.339  10.662
38439W        W10765  35.328  14.173  12.126
38440W        W10766  15.834  23.664  12.278
38441W        W10767   3.718  41.661   0.477
38442W        W10768  43.417  37.156   1.405
38443W        W10769   7.412  28.794  13.644
38444W        W10770  18.249  32.634   4.209
38445W        W10771  31.164   5.142   3.768
38446W        W10772  22.825  28.151  12.960
38447W        W10773  34.354  26.589  12.581
38448W        W10774  34.957   0.908   3.650
38449W        W10775   2.270   8.692  10.315
38450W        W10776  10.505  35.066  12.306
38451W        W10777  44.566  27.148   3.670
38452W        W10778  17.343  24.567  14.922
38453W        W10779  35.704  40.990  10.635
38454W        W10780   0.462   5.585   1.875
38455W        W10781   6.692  36.514   2.774
38456W        W10782   8.790  15.421  13.619
38457W        W10783  21.288  31.306   3.662
38458W        W10784   2.226  38.051  14.659
38459W        W10785  26.761  25.192   1.152
38460W        W10786   9.952  18.608   4.173
38461W        W10787  31.552  12.279  10.472
38462W        W10788  19.222   4.787  13.258
38463W        W10789  42.747  26.544   2.671
38464W        W10790  14.748  15.323  12.069
38465W        W10791  40.588  38.895  13.493
38466W        W10792  44.367   4.023  14.021
38467W        W10793  43.926  32.082   2.911
38468W        W10794  35.473   3.487   3.267
38469W        W10795   0.788  14.325   1.903
38470W        W10796   0.827  33.395   1.975
38471W        W10797   1.683   2.067  11.020
38472W        W10798  20.663  21.762   4.727
38473W        W10799  16.622  30.377  10.485
38474W        W10800  19.387  11.773   3.204
38475W        W10801  22.707  11.025   0.174
38476W        W10802   1.342  37.269  14.772
38477W        W10803  36.989  22.751  12.446
38478W        W10804  34.506  21.495   1.640
38479W        W10805  22.412  24.796   0.245
38480W        W10806  24.031  32.150  10.908
38481W        W10807  14.418  23.639   1.186
38482W        W10808  40.604   7.447   4.987
38483W        W10809  13.110  29.880  14.928
38484W        W10810   2.454  20.396  12.470
38485W        W10811  28.524  43.449   4.304
38486W        W10812  12.604   1.405   2.432
38487W        W10813  15.669   5.170  11.628
38488W        W10814  18.513  25.043   3.257
38489W        W10815  20.240  36.603   2.824
38490W        W10816   2.201  22.649  11.746
38491W        W10817  30.043  26.781   0.489
38492W        W10818   4.414  10.844  13.640
38493W        W10819   5.174   0.473   2.657
38494W        W10820  40.954  26.857   3.895
38495W        W10821  22.572  34.530  12.414
38496W        W10822  29.591   1.297   1.204
38497W        W10823   6.135  28.536   3.460
38498W        W10824  26.832  26.922   4.994
38499W        W10825  11.912  34.018   4.107
38500W        W10826   2.999   6.497   1.636
38501W        W10827  32.607  28.651   3.790
38502W        W10828   7.424  30.437  11.008
38503W        W10829  19.701  34.262   4.518
38504W        W10830   5.818  19.727  12.407
38505W        W10831  33.411   7.442  14.911
38506W        W10832   4.868  19.052   3.749
38507W        W10833  37.665   6.203   3.784
38508W        W10834  16.720  19.006  11.030
38509W        W10835  23.605  32.106  13.829
38510W        W10836  18.176  36.157  10.652
38511W        W10837  37.137  41.903   0.305
38512W        W10838  39.380  14.086   3.333
38513W        W10839  43.433  30.987  14.427
38514W        W10840   0.716  14.186  13.350
38515W        W10841  20.707  19.371  12.150
38516W        W10842  33.585  21.196   1.512
38517W        W10843  29.615   5.766  13.441
38518W        W10844  21.592  20.127  11.438
38519W        W10845   8.684   8.855   2.880
38520W        W10846  12.905  14.013  13.503
38521W        W10847  26.594  40.908   2.775
38522W        W10848  33.765  34.010   0.975
38523W        W10849   0.750  36.325   3.002
38524W        W10850   4.389  19.281   3.880
38525W        W10851  38.135  15.026  12.448
38526W        W10852  32.994  17.659   0.125
38527W        W10853  40.020  36.002  13.267
38528W        W10854  44.750  19.753  13.450
38529W        W10855  28.241  29.903  11.901
38530W        W10856  38.276  40.535  11.086
38531W        W10857  22.329  22.181   2.781
38532W        W10858  25.725  16.667  10.446
38533W        W10859  13.247  12.237  14.526
38534W        W10860   3.790  41.891   0.944
38535W        W10861   5.864  21.137  13.935
38536W        W10862  36.898  10.970  11.770
38537W        W10863   5.422   2.776   4.387
38538W        W10864  41.353  33.953  14.008
38539W        W10865  36.824  32.860   4.329
38540W        W10866  41.846  40.823  13.535
38541W        W10867  32.907  34.048  10.226
38542W        W10868  22.456  44.050   1.171
38543W        W10869  34.894  27.589  12.056
38544W        W10870  21.923   2.844   2.814
38545W        W10871  20.012  22.155   0.243
38546W        W10872   6.917  23.410   0.463
38547W        W10873   5.511  39.292   3.765
38548W        W10874   2.714  21.800  10.614
38549W        W10875  43.387  41.270   0.990
38550W        W10876  39.532  10.768   3.206
38551W        W10877   3.420   2.005  12.451
38552W        W10878  40.242  19.252  12.652
38553W        W10879   7.721  32.902   1.757
38554W        W10880   6.270  15.999   3.362
38555W        W10881   8.151   1.760   2.273
38556W        W10882  35.319   4.756  11.172
38557W        W10883   0.934   1.198   0.692
38558W        W10884  12.671   6.428   4.636
38559W        W10885  20.167  32.388   3.668
38560W        W10886  39.062  35.332  12.289
38561W        W10887  12.825   7.912   2.353
38562W        W10888  25.634  25.021   2.908
38563W        W10889  26.293  41.659  13.695
38564W        W10890  20.255  34.466  10.682
38565W        W10891   6.108  39.344  12.364
38566W        W10892  33.859  28.279   1.877
38567W        W10893  18.002  36.127  14.532
38568W        W10894  42.823  21.593   2.740
38569W        W10895  42.500  28.474  12.807
38570W        W10896  28.702  21.103  10.537
38571W        W10897  32.948  36.747  12.570
38572W        W10898  30.674   5.095   4.616
38573W        W10899   0.295  20.287   0.731
38574W        W10900  44.212  41.534  10.295
38575W        W10901  20.351   1.780  10.231
38576W        W10902  36.241  21.270   2.144
38577W        W10903  34.508  34.075   2.390
38578W        W10904  39.938  33.667  14.544
38579W        W10905  31.604  15.207   3.897
38580W        W10906   8.913  33.081  11.806
38581W        W10907  41.870  32.798  14.948
38582W        W10908   7.864   9.429  11.153
38583W        W10909  20.811   6.384  11.973
38584W        W10910  23.742   7.832   0.378
38585W        W10911   4.413  23.533  11.164
38586W        W10912  26.049  14.722   2.427
38587W        W10913  39.436  39.572  14.199
38588W        W10914  26.221   6.925  12.814
38589W        W10915  28.692   0.698   0.757
38590W        W10916  30.457   4.946   1.186
38591W        W10917  25.839  26.123  10.497
38592W        W10918  40.006  36.410  11.134
38593W        W10919  44.038  34.423  12.324
38594W        W10920   9.365  13.126  13.526
38595W        W10921  15.867  12.608   2.177
38596W        W10922  17.130   8.070   4.594
38597W        W10923  35.215  28.373  11.698
38598W        W10924   0.591  38.859   3.712
38599W        W10925  39.147  13.773   2.359
38600W        W10926   2.608  36.954   4.634
38601W        W10927   6.607   4.866   3.226
38602W        W10928  37.846   9.985  14.660
38603W        W10929  37.581  28.574  11.383
38604W        W10930  36.138  12.806   4.032
38605W        W10931   4.391  33.920  11.589
38606W        W10932   6.892  33.999   1.462
38607W        W10933  44.203  34.504   2.889
38608W        W10934  12.795  43.754  14.073
38609W        W10935  44.283   4.239   4.147
38610W        W10936  40.281   0.411  13.258
38611W        W10937  32.687  16.801   1.972
38612W        W10938  28.621   1.218   0.755
38613W        W10939  13.021   9.199  11.239
38614W        W10940  13.627  36.886  11.450
38615W        W10941  24.632  14.835  13.245
38616W        W10942  26.522  12.881  14.342
38617W        W10943  44.979  31.550   2.355
38618W        W10944  12.265  26.672  13.725
38619W        W10945  39.395  44.927   4.299
38620W        W10946  43.440  37.019  13.684
38621W        W10947   5.976  18.244  12.557
38622W        W10948  30.896  38.371  11.963
38623W        W10949  17.247  14.633  14.838
38624W        W10950   5.162  28.704   2.268
38625W        W10951  31.430  18.274  13.410
38626W        W10952  25.169  10.627   3.614
38627W        W10953  13.109  24.695  13.270
38628W        W10954  36.438  16.295   0.894
38629W        W10955   7.996  37.896   5.171
38630W        W10956  10.431  36.915  13.422
38631W        W10957   9.325  37.728   3.112
38632W        W10958   2.227  44.847   0.962
38633W        W10959  31.155  35.031  12.873
38634W        W10960   4.349  19.737   4.211
38635W        W10961   7.872   4.422   0.492
38636W        W10962  23.216  21.770   0.563
38637W        W10963  13.925  19.364  12.244
38638W        W10964   4.144  22.793   3.575
38639W        W10965  14.553  20.266  14.932
38640W        W10966   3.382  41.820   3.627
38641W        W10967   5.768  37.021  10.793
38642W        W10968  40.373  37.777  14.920
38643W        W10969  35.094   5.936   0.941
38644W        W10970  12.719  10.995  13.820
38645W        W10971  23.039   6.707   0.932
38646W        W10972  15.832   5.371   1.461
38647W        W10973  20.094   1.412  11.505
38648W        W10974   0.269   4.633  14.736
38649W        W10975  13.618  16.510   1.493
38650W        W10976  21.378  30.402  11.566
38651W        W10977  13.781  35.511  10.603
38652W        W10978   5.342   0.486  10.215
38653W        W10979  17.303  21.186   3.312
38654W        W10980  40.077   4.491   0.403
38655W        W10981   5.882  38.951  10.582
38656W        W10982  10.848  22.079  10.613
38657W        W10983  40.522  11.302   3.434
38658W        W10984  27.399  22.623  13.356
38659W        W10985  32.575  33.845   0.252
38660W        W10986  29.964  40.290  13.083
38661W        W10987  19.605  11.562  12.886
38662W        W10988  36.916  11.824   1.547
38663W        W10989  12.297  29.570   2.420
38664W        W10990   2.173   9.505  12.656
38665W        W10991   2.151  33.459   5.133
38666W        W10992  44.991  41.364   3.644
38667W        W10993  36.874  36.334  13.293
38668W        W10994  23.442  33.575  13.453
38669W        W10995  25.209  24.139   0.456
38670W        W10996  41.939  35.052   4.796
38671W        W10997  33.820  42.247   4.057
38672W        W10998  28.725  41.517   2.906
38673W        W10999   3.597  17.685  13.430
38674W        W11000  12.087  40.280   4.858
38675W        W11001  39.404  19.735   4.717
38676W        W11002   2.691   0.901  14.941
38677W        W11003  43.807  37.811   1.284
38678W        W11004  34.671  43.536  13.883
38679W        W11005  25.106  29.086   0.022
38680W        W11006  15.637  37.338  10.802
38681W        W11007   8.332  14.326   1.738
38682W        W11008  21.821  42.964  13.717
38683W        W11009  22.064  29.452   3.303
38684W        W11010  19.378  18.008  14.752
38685W        W11011  21.200   6.179   4.139
38686W        W11012  38.310  30.034   1.450
38687W        W11013  30.999  34.440  12.630
38688W        W11014  32.629   0.954  10.781
38689W        W11015  28.092   1.316  12.546
38690W        W11016  32.909  35.290  11.131
38691W        W11017  16.050  13.200   4.965
38692W        W11018  32.357  21.327  11.104
38693W        W11019   6.201  40.661  12.099
38694W        W11020   7.723  40.415   5.003
38695W        W11021   6.814   4.466   4.205
38696W        W11022  35.129  42.631  14.981
38697W        W11023  32.513   2.150   2.281
38698W        W11024  30.380  19.772  13.128
38699W        W11025   1.007   9.389   2.210
38700W        W11026   6.955  35.384  11.891
38701W        W11027  30.004  23.863  13.554
38702W        W11028  35.783  37.571  12.359
38703W        W11029  11.950   9.572   4.156
38704W        W11030   0.159   0.877  12.782
38705W        W11031  24.533  37.169  11.981
38706W        W11032  27.127  21.253   2.614
38707W        W11033  44.226  41.999  11.657
38708W        W11034  43.775  18.681   0.221
38709W        W11035  43.349  44.985   4.694
38710W        W11036  29.690  17.717   2.397
38711W        W11037  28.370  36.603  10.662
38712W        W11038   7.386  39.394  12.777
38713W        W11039  13.024  19.546   4.535
38714W        W11040  33.149   3.801   0.388
38715W        W11041  31.117  16.872   1.427
38716W        W11042   2.340  21.745  11.329
38717W        W11043   2.787   1.437   2.430
38718W        W11044   2.951   3.422   3.873
38719W        W11045  38.564  39.255   2.806
38720W        W11046  29.432  39.847  11.986
38721W        W11047  34.872  28.534   3.568
38722W        W11048  32.453  20.261   4.898
38723W        W11049  44.806   1.364  14.962
38724W        W11050  36.310  43.031   4.445
38725W        W11051  16.125   2.480   4.511
38726W        W11052   0.981  38.019   0.301
38727W        W11053  22.754  39.657   5.325
38728W        W11054  13.780  23.474   0.902
38729W        W11055  29.075  13.569   1.803
38730W        W11056  12.528  35.522  10.758
38731W        W11057  41.604  28.030   1.082
38732W        W11058  15.131   0.976   1.365
38733W        W11059  24.662  36.635   1.441
38734W        W11060  32.047  16.602  12.588
38735W        W11061  20.766  16.006  11.785
38736W        W11062   1.917  15.670  12.574
38737W        W11063  30.375   8.557  14.751
38738W        W11064  17.651  11.623  12.020
38739W        W11065   6.298  42.380  14.948
38740W        W11066  12.825   3.309  10.812
38741W        W11067  31.334  42.813  10.930
38742W        W11068  11.411  25.471   1.713
38743W        W11069  39.985   1.786   4.727
38744W        W11070  37.433   4.672   0.393
38745W        W11071  34.338   2.165  12.119
38746W        W11072  27.031  20.220   1.390
38747W        W11073  20.492  14.787  14.785
38748W        W11074   0.440  18.622  12.102
38749W        W11075  15.754  11.168   1.742
38750W        W11076  41.261   6.322  14.003
38751W        W11077  10.054   1.415   3.164
38752W        W11078  37.060   1.030  14.810
38753W        W11079   5.776  44.334   4.615
38754W        W11080   1.802  35.685  13.560
38755W        W11081  15.463  35.582  10.184
38756W        W11082  25.946  35.032  14.865
38757W        W11083  39.302   3.752  11.497
38758W        W11084  37.867   3.701  12.622
38759W        W11085  42.537  32.924  12.014
38760W        W11086   0.681  11.896  12.967
38761W        W11087   6.167  23.120   3.383
38762W        W11088   8.945  38.997   1.385
38763W        W11089   9.468  24.113  14.145
38764W        W11090  36.141   4.073   3.069
38765W        W11091  12.318  44.768   2.907
38766W        W11092   5.706  31.657  11.101
38767W        W11093  11.405   1.726  11.118
38768W        W11094  17.075  40.746  14.933
38769W        W11095  29.341  29.966  10.666
38770W        W11096  35.844  33.501  13.494
38771W        W11097   8.653  44.372   3.755
38772W        W11098  10.272   3.171   2.883
38773W        W11099   1.947  43.001  14.372
38774W        W11100   5.159  12.219   4.878
38775W        W11101  35.670  39.579  11.055
38776W        W11102  14.866   5.266   2.922
38777W        W11103  35.560  23.474  12.436
38778W        W11104  40.624   4.833  14.581
38779W        W11105  11.754  13.410   1.402
38780W        W11106   7.054  18.090   0.242
38781W        W11107  34.379  14.280  13.870
38782W        W11108  19.142  30.929  11.116
38783W        W11109  26.915  11.317  14.840
38784W        W11110  34.457   9.660   0.927
38785W        W11111  44.469  27.469  10.642
38786W        W11112   1.996  22.436  14.435
38787W        W11113   2.219  44.018  13.963
38788W        W11114   5.250   5.150   0.516
38789W        W11115  25.848  21.881  13.871
38790W        W11116  12.639  42.542  11.111
38791W        W11117  38.724   8.788  14.600
38792W        W11118  43.303  22.188  12.957
38793W        W11119  42.353  29.455  12.870
38794W        W11120  20.025  20.790  13.407
38795W        W11121  27.260  33.009  14.173
38796W        W11122   9.609   3.332   0.771
38797W        W11123  25.228  35.866  10.495
38798W        W11124  44.511  37.799   0.207
38799W        W11125  20.492  20.874   0.629
38800W        W11126  23.684   7.248   0.051
38801W        W11127  43.917  32.896   3.658
38802W        W11128  10.091  43.460   4.087
38803W        W11129   9.192   7.536   3.150
38804W        W11130  13.357  41.322  13.460
38805W        W11131  38.530  30.105   3.273
38806W        W11132  18.656  44.897  12.039
38807W        W11133  33.423  20.765   3.423
38808W        W11134  21.592  19.842   1.790
38809W        W11135  23.343   3.385   0.343
38810W        W11136  38.921   9.319  13.333
38811W        W11137  25.600  44.937  11.607
38812W        W11138  26.195  38.413   0.769
38813W        W11139  26.168  18.787  14.462
38814W        W11140  40.536  12.623  14.809
38815W        W11141  15.375  34.315   4.140
38816W        W11142  37.140  20.789   4.107
38817W        W11143  13.367  10.314  10.515
38818W        W11144  33.386   2.170  11.983
38819W        W11145  25.212  44.293  14.472
38820W        W11146  36.485  26.741   3.384
38821W        W11147  25.392  19.861   3.198
38822W        W11148  17.136  31.591  12.140
38823W        W11149  13.729  35.805   2.335
38824W        W11150  12.371   2.952  11.106
38825W        W11151  36.174  39.351  11.143
38826W        W11152   9.535   4.349   3.713
38827W        W11153   6.857  44.953   1.390
38828W        W11154  18.701  18.132   1.456
38829W        W11155  21.188  21.229  13.276
38830W        W11156  34.814  10.073  14.597
38831W        W11157   2.067  24.997   4.171
38832W        W11158   1.971  20.000   4.186
38833W        W11159  29.307  35.106  12.631
38834W        W11160  36.098  43.045  13.987
38835W        W11161  41.319  27.036  11.892
38836W        W11162   2.183  14.569   0.151
38837W        W11163  41.436   8.585  14.202
38838W        W11164   2.481  42.827  10.933
38839W        W11165  25.021  19.699  11.008
38840W        W11166   8.707  26.057   1.055
38841W        W11167  40.533  22.514   0.838
38842W        W11168  22.720  14.384  12.025
38843W        W11169  34.666  12.295   1.322
38844W        W11170  24.337  26.060  11.871
38845W        W11171  17.431  36.484   3.207
38846W        W11172  40.442  28.741  14.835
38847W        W11173   5.979  13.721  10.705
38848W        W11174  39.575   0.579   4.572
38849W        W11175   0.907   0.345  14.985
38850W        W11176   3.394  41.330  14.773
38851W        W11177  40.106  20.535  11.568
38852W        W11178   4.903   0.478  11.912
38853W        W11179  29.748  31.717   3.178
38854W        W11180   7.423  15.684  14.942
38855W        W11181  42.958  38.395  12.574
38856W        W11182  24.078  41.386  14.883
38857W        W11183  41.747  12.581  12.539
38858W        W11184  44.753  14.740  11.135
38859W        W11185  12.201   1.141   1.284
38860W        W11186  38.751  21.079  12.837
38861W        W11187  24.495  18.507   2.312
38862W        W11188  39.845   9.392  14.972
38863W        W11189  29.845  19.586  14.870
38864W        W11190  29.450  19.841   1.319
38865W        W11191  32.196  31.193  14.924
38866W        W11192   3.157  24.654  12.052
38867W        W11193  27.716  14.303   0.226
38868W        W11194  29.434  19.562  11.723
38869W        W11195  18.380  29.648  10.913
38870W        W11196  43.921  25.512  11.637
38871W        W11197  42.447  11.709   2.419
38872W        W11198   9.301   0.987  10.963
38873W        W11199  15.389  36.298  12.751
38874W        W11200  12.717   5.859  14.371
38875W        W11201  14.742  40.409   1.372
38876W        W11202  21.755   5.653   1.354
38877W        W11203  28.783  37.084   4.621
38878W        W11204   1.888  18.658   0.958
38879W        W11205  16.851  27.222   2.242
38880W        W11206   2.923   4.786   4.597
38881W        W11207  42.281   8.375   2.601
38882W        W11208  36.838  12.624  13.537
38883W        W11209  15.096  35.183   1.272
38884W        W11210  41.997  33.567   4.814
38885W        W11211  36.581   1.953   1.827
38886W        W11212   9.889   6.174   3.622
38887W        W11213  24.651   0.824  14.738
38888W        W11214  37.343   6.640  11.965
38889W        W11215  30.561  12.198  13.954
38890W        W11216  17.427  32.521   4.578
38891W        W11217  44.267  17.078   3.548
38892W        W11218  40.013  44.316  10.771
38893W        W11219   9.073  17.265   0.853
38894W        W11220  26.694   8.761  13.438
38895W        W11221  17.083   4.851   4.555
38896W        W11222  25.768  44.973   2.120
38897W        W11223  26.303  38.264  14.749
38898W        W11224  44.453  44.867  12.879
38899W        W11225  42.451   7.215  13.098
38900W        W11226  39.287  36.842   4.075
38901W        W11227   2.532  29.621   3.144
38902W        W11228  33.200   0.386  12.060
38903W        W11229  22.429   0.066  12.122
38904W        W11230  27.129   1.383   4.997
38905W        W11231  40.516  39.511  14.059
38906W        W11232  36.818  21.156   2.251
38907W        W11233   2.385  11.744   3.163
38908W        W11234  19.590  44.561  10.647
38909W        W11235  11.483  26.789  12.844
38910W        W11236   3.375  31.449   3.186
38911W        W11237  31.199   4.208  13.348
38912W        W11238  39.321   5.347   4.583
38913W        W11239  12.671  23.686  10.020
38914W        W11240   3.300  18.297   2.865
38915W        W11241  10.140  38.489   0.040
38916W        W11242   3.903  20.278  14.307
38917W        W11243  33.047  23.824   2.822
38918W        W11244   5.773   7.839  14.000
38919W        W11245   5.184  38.363   3.772
38920W        W11246  40.452  37.384   2.346
38921W        W11247  19.713  11.550   4.557
38922W        W11248  22.596  13.506  12.270
38923W        W11249   4.440   0.298   2.190
38924W        W11250   5.703  13.704   3.877
38925W        W11251   3.262  39.506   4.325
38926W        W11252  29.001  41.298   4.378
38927W        W11253  11.487   9.791  13.925
38928W        W11254   5.021  21.762   2.678
38929W        W11255  31.063  36.435   1.934
38930W        W11256  23.908  15.832  12.073
38931W        W11257  31.839  14.402  11.885
38932W        W11258  43.944  12.579  11.385
38933W        W11259  29.306  38.518  11.257
38934W        W11260   7.563  31.197  11.004
38935W        W11261  14.042  40.974   2.351
38936W        W11262  33.482  17.246  11.384
38937W        W11263  37.616  18.736  11.132
38938W        W11264   6.416  11.232   3.191
38939W        W11265  12.123  17.932  11.101
38940W        W11266  10.616  44.551  11.644
38941W        W11267  44.492   7.682  14.763
38942W        W11268   6.316  43.329  10.088
38943W        W11269  18.007  13.018  13.394
38944W        W11270  30.844  40.367   0.396
38945W        W11271   7.294  37.733  13.796
38946W        W11272   3.891  35.461   4.896
38947W        W11273  38.509  24.448   4.883
38948W        W11274  25.730  19.313   2.301
38949W        W11275  35.434  38.791  10.600
38950W        W11276   0.541  42.886   2.372
38951W        W11277   0.057   9.181   2.035
38952W        W11278  19.166  39.765   4.748
38953W        W11279  24.873  24.910  13.074
38954W        W11280  31.456  39.546  14.910
38955W        W11281   7.670   1.320  13.716
38956W        W11282  44.814   9.246  13.900
38957W        W11283   8.896   9.191   3.778
38958W        W11284  38.926  32.550  13.340
38959W        W11285  28.118  10.926   3.733
38960W        W11286  20.084   8.293   2.808
38961W        W11287  44.865  21.736  12.406
38962W        W11288  15.204   9.637   1.234
38963W        W11289  23.378  37.109   9.666
38964W        W11290  38.820  30.943   0.296
38965W        W11291  33.515  31.549   3.603
38966W        W11292  27.018  39.075  11.657
38967W        W11293  16.756   3.485  12.055
38968W        W11294  33.261  28.051   0.255
38969W        W11295  21.883  39.017  12.090
38970W        W11296  23.214   5.978  13.843
38971W        W11297  33.540  11.339  13.413
38972W        W11298  13.182  22.421   4.830
38973W        W11299  18.389  31.454  13.585
38974W        W11300  19.220  12.134  10.702
38975W        W11301  13.070  20.618  12.441
38976W        W11302  17.758  32.017  11.444
38977W        W11303  44.056  24.786  11.257
38978W        W11304  27.147  31.590   0.038
38979W        W11305  11.601   9.508   1.807
38980W        W11306  23.122  12.221  14.797
38981W        W11307  43.270  39.365   0.825
38982W        W11308  39.482  37.458  12.329
38983W        W11309  21.195  41.519  12.340
38984W        W11310  26.393  16.547  12.418
38985W        W11311  43.699  14.067   3.818
38986W        W11312  35.825  36.832   3.605
38987W        W11313  12.573  13.173  12.622
38988W        W11314   5.117  38.477  12.500
38989W        W11315  17.094  29.689  10.961
38990W        W11316   4.159  20.823   1.660
38991W        W11317  10.723  21.566  10.698
38992W        W11318  17.572  21.192   4.661
38993W        W11319  22.757  39.773  11.109
38994W        W11320  24.795  15.888   3.550
38995W        W11321   7.335  12.143  11.570
38996W        W11322  11.778  13.776   3.245
38997W        W11323  44.532   0.488  13.295
38998W        W11324   0.068  29.666  10.601
38999W        W11325   7.694  36.300   4.203
39000W        W11326  41.286  43.716  11.046
39001W        W11327  28.652   1.483   3.820
39002W        W11328  40.829   9.878  12.419
39003W        W11329  32.099   1.175   0.847
39004W        W11330  33.792  27.253  14.467
39005W        W11331  10.610   9.700   4.957
39006W        W11332   1.831   7.703   1.037
39007W        W11333  11.803  24.943   4.977
39008W        W11334  14.565  14.139   4.248
39009W        W11335  27.160   8.340  11.524
39010W        W11336  15.679  21.725  13.065
39011W        W11337  40.952  43.464  13.194
39012W        W11338  40.910   0.666  12.869
39013W        W11339  43.936  25.425   4.278
39014W        W11340  25.988  18.800  13.530
39015W        W11341  43.954   8.956  13.346
39016W        W11342  18.142  31.132  14.389
39017W        W11343  43.343  39.075  10.667
39018W        W11344  15.427  15.316   0.688
39019W        W11345  21.162  31.426   2.741
39020W        W11346  22.617  37.488  13.864
39021W        W11347  14.405  31.124   3.080
39022W        W11348  42.565  32.682   3.199
39023W        W11349  27.228   0.850   3.777
39024W        W11350  31.936  20.824  13.694
39025W        W11351  24.760  42.108   4.099
39026W        W11352  16.625   9.109   1.318
39027W        W11353  11.323   1.140  12.464
39028W        W11354  18.715  29.860   3.479
39029W        W11355   6.189   3.979   1.719
39030W        W11356  44.891  16.869   0.249
39031W        W11357  12.399   4.276  11.039
39032W        W11358   8.672  14.821  11.894
39033W        W11359  27.199  41.925   2.339
39034W        W11360  12.526  17.741   1.698
39035W        W11361  13.823  43.893  12.578
39036W        W11362  40.754  30.483   2.791
39037W        W11363  25.978   3.753   2.454
39038W        W11364  37.114  23.292  14.787
39039W        W11365  12.938  14.097   0.213
39040W        W11366  42.474  29.580   0.793
39041W        W11367  11.798  20.741   0.201
39042W        W11368  19.989   6.813   3.251
39043W        W11369  21.312  26.563  10.617
39044W        W11370  41.448   8.902  11.543
39045W        W11371   0.877  23.091   2.507
39046W        W11372  36.446   2.721  11.042
39047W        W11373  14.236  21.206  14.440
39048W        W11374  41.403  23.074  12.084
39049W        W11375  35.537  23.261   0.674
39050W        W11376   2.402  25.072   0.416
39051W        W11377  26.250   9.184   2.897
39052W        W11378  19.640  30.708   4.674
39053W        W11379  21.732   1.661   2.838
39054W        W11380   2.892  43.539  10.607
39055W        W11381  15.875  14.912   2.530
39056W        W11382  11.300   5.582  14.938
39057W        W11383   1.970  18.237  14.989
39058W        W11384  14.842  21.066  11.675
39059W        W11385   1.441  32.818   3.222
39060W        W11386   9.980  26.935  13.913
39061W        W11387   5.082  14.676   4.407
39062W        W11388  34.256  27.004  12.323
39063W        W11389  15.175  34.785  12.797
39064W        W11390  21.101   8.267   0.244
39065W        W11391  35.659  11.148  13.518
39066W        W11392  43.926  31.914   4.662
39067W        W11393  29.690  18.557  12.565
39068W        W11394  19.605  22.192   0.555
39069W        W11395   2.824  23.399  13.980
39070W        W11396  41.913  44.855  12.153
39071W        W11397   5.219  27.218  14.892
39072W        W11398  29.380  36.969   3.191
39073W        W11399   0.703   1.022  12.853
39074W        W11400   2.979   7.457  11.556
39075W        W11401   6.935  31.264   2.800
39076W        W11402  18.607  13.568   0.958
39077W        W11403  29.941   7.897  14.561
39078W        W11404  44.478  25.263  10.296
39079W        W11405  24.334  18.126   9.467
39080W        W11406   3.564   2.337  14.814
39081W        W11407   3.929  19.210  13.409
39082W        W11408  23.086  29.999   1.391
39083W        W11409  10.394  43.832   1.798
39084W        W11410  19.169  20.239   1.747
39085W        W11411  19.789  35.069   4.614
39086W        W11412  16.662   0.945  14.613
39087W        W11413   3.285  44.551   1.852
39088W        W11414  39.070  34.401   3.640
39089W        W11415  21.205  41.861  13.451
39090W        W11416  10.840  36.797   4.731
39091W        W11417  27.727  39.048  12.353
39092W        W11418   6.704   5.907  10.625
39093W        W11419  15.256   8.888  13.942
39094W        W11420   4.991  44.642  12.451
39095W        W11421  17.362  42.401   2.866
39096W        W11422  34.804   5.848  12.466
39097W        W11423  26.231  40.909   4.568
39098W        W11424  29.927  18.568   3.603
39099W        W11425  41.799  21.140   4.527
39100W        W11426  31.170  26.548   1.750
39101W        W11427  40.635  20.978   0.250
39102W        W11428  44.424  18.010   3.883
39103W        W11429  31.102  30.227  11.987
39104W        W11430   2.437  21.542   0.176
39105W        W11431  38.879  18.365   1.201
39106W        W11432  17.113  19.767   2.730
39107W        W11433   1.743  28.576  12.958
39108W        W11434  22.807  29.456  12.338
39109W        W11435  14.741  38.259   3.634
39110W        W11436  42.944  19.738  14.534
39111W        W11437  29.454  40.314  11.748
39112W        W11438  44.788  28.138  14.337
39113W        W11439  38.342   6.122   2.407
39114W        W11440   7.340   9.598   3.941
39115W        W11441  22.697  28.172   0.957
39116W        W11442  29.103  33.462   1.692
39117W        W11443  32.321  11.900   1.146
39118W        W11444  13.417  15.795   0.632
39119W        W11445  29.436  18.271  14.457
39120W        W11446   2.200  17.565  13.524
39121W        W11447   1.364  32.046  13.769
39122W        W11448  29.079  39.565   0.321
39123W        W11449  30.313  20.585   2.849
39124W        W11450  10.457  36.028   9.716
39125W        W11451  35.820  40.584   3.711
39126W        W11452   1.782   3.960   3.355
39127W        W11453   6.358   5.556  13.135
39128W        W11454  19.997  13.196  12.080
39129W        W11455  14.678  24.422  12.604
39130W        W11456   8.204  25.785   2.907
39131W        W11457  40.294  42.989  13.512
39132W        W11458  18.745  40.399  14.388
39133W        W11459   2.308  41.797   0.786
39134W        W11460  32.362  35.460   0.836
39135W        W11461  38.992  34.512   1.784
39136W        W11462   3.449  39.705   2.461
39137W        W11463  13.810  20.080   2.769
39138W        W11464   0.331  29.935  11.344
39139W        W11465  17.616  35.625  11.190
39140W        W11466  42.791  34.842   1.382
39141W        W11467  33.518  15.346  10.678
39142W        W11468  29.992   5.225  14.076
39143W        W11469  31.092  42.569  12.621
39144W        W11470  29.633  44.808  12.979
39145W        W11471  30.454  20.706   3.746
39146W        W11472  28.567  40.619   0.037
39147W        W11473  37.021   1.277   2.800
39148W        W11474  28.502  15.767   3.591
39149W        W11475   4.922  17.847  13.815
39150W        W11476  18.052  10.975   1.205
39151W        W11477  19.254  28.074  13.499
39152W        W11478  13.289  33.828  14.449
39153W        W11479  23.394  25.738   4.181
39154W        W11480  30.982  41.468  12.070
39155W        W11481  37.527  29.114  10.514
39156W        W11482  39.072   0.282  14.413
39157W        W11483  42.423  23.729   3.595
39158W        W11484   8.226  19.140   0.706
39159W        W11485  33.171  20.338   4.253
39160W        W11486   0.031  23.253   3.221
39161W        W11487  17.816  24.995   4.190
39162W        W11488  19.561  15.141  10.543
39163W        W11489   7.106   3.192  12.023
39164W        W11490  37.725  42.513   1.161
39165W        W11491  32.617  23.213  11.423
39166W        W11492  44.710  33.840  10.633
39167W        W11493  26.273   0.745  12.533
39168W        W11494  39.846  42.243   2.138
39169W        W11495  19.219  20.118  14.745
39170W        W11496  32.906  42.572   0.329
39171W        W11497  23.063   0.014   1.731
39172W        W11498   1.731   8.521  12.734
39173W        W11499  39.255  34.635   1.348
39174W        W11500   0.928  40.534  11.867
39175W        W11501   3.287  20.464   1.888
39176W        W11502  37.748  15.856  13.934
39177W        W11503  13.140  12.840  13.847
39178W        W11504  27.483  32.802  11.428
39179W        W11505  21.584  25.656  13.804
39180W        W11506  33.350  10.204   0.556
39181W        W11507  43.397  22.500   3.207
39182W        W11508  25.461   6.113   4.163
39183W        W11509  36.150  35.083   3.312
39184W        W11510  34.618  10.336  11.978
39185W        W11511  42.194   2.428  10.615
39186W        W11512  42.670  39.121  12.155
39187W        W11513  31.073  38.572   2.427
39188W        W11514  24.905  19.678   1.362
39189W        W11515   1.537  35.081   0.253
39190W        W11516  37.580  22.545   3.051
39191W        W11517  44.267  29.433   2.290
39192W        W11518  14.173   8.216  12.779
39193W        W11519   7.728  27.081  11.838
39194W        W11520   6.645   0.245   1.833
39195W        W11521   2.700  41.907   3.084
39196W        W11522  24.784  14.094   3.139
39197W        W11523  41.466  41.370   2.761
39198W        W11524   3.489  24.485   2.470
39199W        W11525   7.848  11.091   2.399
39200W        W11526  21.442   2.279  12.523
39201W        W11527  42.063  33.160  10.406
39202W        W11528  36.532  12.819   4.386
39203W        W11529  33.527   2.739  14.875
39204W        W11530  30.071  20.831  13.527
39205W        W11531  32.628  25.042  13.919
39206W        W11532   4.341  41.400  14.284
39207W        W11533  16.278  31.880  13.139
39208W        W11534  12.042  22.993  14.828
39209W        W11535   2.314  33.509  13.086
39210W        W11536  25.487  40.037   4.607
39211W        W11537   4.410  44.431   2.454
39212W        W11538   8.242  37.509  11.967
39213W        W11539   7.164  25.260   0.352
39214W        W11540  32.992   5.889   2.016
39215W        W11541   6.095  24.723   2.383
39216W        W11542   6.667  26.204   3.900
39217W        W11543  29.170  13.750   2.785
39218W        W11544  41.424   1.811  13.404
39219W        W11545  18.897  43.468  12.850
39220W        W11546  12.272  44.782  13.965
39221W        W11547  42.420  26.207  13.516
39222W        W11548   0.355  32.594   4.303
39223W        W11549  13.156  19.701   2.792
39224W        W11550  25.112  23.848   2.271
39225W        W11551  35.940   0.960  11.217
39226W        W11552  32.089   0.354  14.088
39227W        W11553  27.493   4.328   4.710
39228W        W11554  26.966  33.950   0.969
39229W        W11555  41.564  12.963   5.042
39230W        W11556   2.530  34.654  14.407
39231W        W11557  29.997   1.696   1.656
39232W        W11558  41.051  36.838  14.830
39233W        W11559   2.972  31.137  10.557
39234W        W11560  34.681  17.759  11.909
39235W        W11561   9.813  25.451   4.879
39236W        W11562   8.985   2.324  11.875
39237W        W11563  29.981  17.262   1.237
39238W        W11564  37.448  37.470   2.801
39239W        W11565  38.608   6.676  14.326
39240W        W11566  14.348  19.915   3.314
39241W        W11567  31.010  42.527   1.395
39242W        W11568   2.352  42.076  13.021
39243W        W11569  39.349   7.188   4.714
39244W        W11570  35.568   0.472   0.308
39245W        W11571   9.784   1.722   4.295
39246W        W11572  25.069  31.490   2.454
39247W        W11573  40.060  13.240   0.112
39248W        W11574  41.845  36.500   4.402
39249W        W11575  35.023  36.860   1.002
39250W        W11576  29.009  40.928  13.810
39251W        W11577   3.490  42.836   1.493
39252W        W11578  28.940  24.603  14.444
39253W        W11579  11.308  12.753   4.347
39254W        W11580  32.857   8.222  10.699
39255W        W11581   0.280  26.212   2.678
39256W        W11582   2.350  31.668  11.602
39257W        W11583  20.185   2.302   0.752
39258W        W11584  28.490  41.639  13.536
39259W        W11585  40.970  33.574  14.347
39260W        W11586   8.727  23.658  12.606
39261W        W11587  37.392  19.261   1.174
39262W        W11588   1.834   2.668   3.727
39263W        W11589  39.756  26.449  12.497
39264W        W11590  31.576  20.802   1.278
39265W        W11591  17.535  33.015   2.894
39266W        W11592  28.350   8.854   5.071
39267W        W11593  34.050  38.079  10.868
39268W        W11594  19.127  24.376  12.599
39269W        W11595  19.841  32.494   1.431
39270W        W11596   5.826  22.091   2.412
39271W        W11597  40.002   4.203  14.460
39272W        W11598  26.606  32.134  10.645
39273W        W11599  15.365  13.118   1.901
39274W        W11600  43.887   0.821  10.976
39275W        W11601  17.717  43.776   2.279
39276W        W11602  29.596  24.064   1.014
39277W        W11603  39.990  11.603   1.342
39278W        W11604   8.297  16.333   0.459
39279W        W11605  36.121  17.242   0.642
39280W        W11606   1.811  40.999  10.728
39281W        W11607  20.037  10.638  10.923
39282W        W11608  28.367   8.358  13.870
39283W        W11609  24.465  16.279   2.263
39284W        W11610  36.329  32.414  11.491
39285W        W11611  15.829  20.136   2.871
39286W        W11612  26.553  36.658   0.490
39287W        W11613  41.707  14.824  13.035
39288W        W11614  16.992  40.870   1.284
39289W        W11615   5.383  17.754   2.304
39290W        W11616   1.784  30.069  13.313
39291W        W11617  29.013  27.363  14.447
39292W        W11618  20.098  23.142  14.324
39293W        W11619  28.916   5.445  14.755
39294W        W11620  43.377  34.834  10.359
39295W        W11621  17.073   8.916  14.394
39296W        W11622  12.220  13.136  14.105
39297W        W11623  27.007  24.529   0.548
39298W        W11624  17.606  15.656  12.448
39299W        W11625  40.589  19.099   4.246
39300W        W11626  36.836   9.673  12.116
39301W        W11627  25.508   2.270   3.171
39302W        W11628  18.956  40.863  14.526
39303W        W11629  35.993  39.227   3.254
39304W        W11630  34.011   6.924  11.087
39305W        W11631  27.956  29.220  10.698
39306W        W11632  24.591   5.233   1.379
39307W        W11633  32.561   5.847   1.683
39308W        W11634  33.479   5.328   4.056
39309W        W11635  42.356  19.741  10.996
39310W        W11636  42.945   7.494   1.713
39311W        W11637   7.191  29.478   4.773
39312W        W11638  39.511   8.801   4.073
39313W        W11639  24.693  19.125   0.261
39314W        W11640  36.487  10.848   2.447
39315W        W11641  14.366  17.217  10.505
39316W        W11642  13.094  37.027   5.060
39317W        W11643  42.718  34.348  12.925
39318W        W11644  37.958  11.691  10.159
39319W        W11645  34.143   0.327   0.190
39320W        W11646  28.388  20.668  12.092
39321W        W11647  35.297  43.524   0.989
39322W        W11648   3.456  17.167  12.359
39323W        W11649  38.554  14.344  11.025
39324W        W11650  21.051  11.311  13.756
39325W        W11651   6.696  40.258  13.977
39326W        W11652   6.504  27.573  11.604
39327W        W11653  31.161  13.414   4.111
39328W        W11654  38.711  36.857   3.434
39329W        W11655  21.162  37.121  13.492
39330W        W11656  44.415  30.815  12.124
39331W        W11657  37.075  28.460   3.341
39332W        W11658  34.072  26.603  11.935
39333W        W11659  14.142  22.446   1.895
39334W        W11660  19.550  44.871  11.070
39335W        W11661   5.794  18.077   4.640
39336W        W11662  32.905   4.223   3.822
39337W        W11663  36.434  16.094  12.417
39338W        W11664  35.613  38.859   3.204
39339W        W11665  25.941  19.597   0.834
39340W        W11666  39.446  39.573  12.416
39341W        W11667  27.736  12.229  10.704
39342W        W11668  34.077  17.679  13.047
39343W        W11669  10.533  44.810   1.931
39344W        W11670  43.734  17.676  14.364
39345W        W11671  44.783  25.761  10.985
39346W        W11672  15.761  40.300   3.572
39347W        W11673   4.814  13.428  10.912
39348W        W11674  42.899  19.050   4.107
39349W        W11675   1.305  16.706   1.657
39350W        W11676   9.176  16.410   0.443
39351W        W11677  43.285  38.749   3.900
39352W        W11678  18.818  11.072   0.941
39353W        W11679  36.907   9.298  12.860
39354W        W11680  24.921  16.097  13.353
39355W        W11681  13.841  40.399   3.569
39356W        W11682  27.216  41.743   2.822
39357W        W11683   6.323  38.953  10.286
39358W        W11684  13.739  30.174  14.540
39359W        W11685  42.916   4.333   4.632
39360W        W11686  20.073  15.242  14.245
39361W        W11687   4.243  21.149  12.549
39362W        W11688  27.458  21.634   1.995
39363W        W11689  23.691  19.567  10.665
39364W        W11690  33.707  26.528   5.052
39365W        W11691  22.260  25.160  13.563
39366W        W11692  35.880  28.229   0.730
39367W        W11693  20.515  30.138   1.352
39368W        W11694  19.535  13.069  13.409
39369W        W11695  18.519   1.499  14.587
39370W        W11696  36.145  15.628  11.024
39371W        W11697  15.690   8.407  12.555
39372W        W11698  37.980  17.466   0.366
39373W        W11699  24.657   5.431   2.899
39374W        W11700   5.158  18.252  11.554
39375W        W11701  33.502  26.184   2.833
39376W        W11702  26.905  32.377   2.901
39377W        W11703   5.151  21.551   2.194
39378W        W11704  28.942  24.751  10.607
39379W        W11705  34.625  44.869   1.997
39380W        W11706  33.007   0.291   2.215
39381W        W11707  18.371   7.961  11.152
39382W        W11708  24.847  41.238  13.581
39383W        W11709  22.054  44.664   4.198
39384W        W11710  11.675  31.777  14.221
39385W        W11711  25.047  23.726   3.577
39386W        W11712  26.134  44.695   2.853
39387W        W11713  23.967  15.230  13.969
39388W        W11714  32.796   0.293  12.379
39389W        W11715  33.538  44.288   0.505
39390W        W11716   6.281  10.612  11.722
39391W        W11717   1.818  28.211   3.240
39392W        W11718  26.545  21.959   4.351
39393W        W11719   6.483  39.959   1.662
39394W        W11720  29.613  40.829  11.833
39395W        W11721   9.678   7.877  11.591
39396W        W11722  40.608  42.522   2.336
39397W        W11723  22.751  40.021   2.931
39398W        W11724  32.131   8.233   0.446
39399W        W11725   4.313  26.037   1.204
39400W        W11726  42.333  42.964   1.782
39401W        W11727   0.532   0.382  13.425
39402W        W11728  42.167  16.633   3.776
39403W        W11729  42.394  21.994   0.975
39404W        W11730  12.666  17.817   4.632
39405W        W11731  23.295  17.210   3.956
39406W        W11732   3.543   2.360  11.601
39407W        W11733  33.470   3.718  14.997
39408W        W11734   0.404  31.644   4.171
39409W        W11735  12.551  12.836   3.998
39410W        W11736  12.314  20.181  12.643
39411W        W11737   6.208  11.168   4.478
39412W        W11738   7.796  10.097   4.127
39413W        W11739   5.943  26.989  12.633
39414W        W11740  11.632   5.204   0.118
39415W        W11741  21.489  37.136   3.175
39416W        W11742  22.488  40.889   4.643
39417W        W11743  16.310  10.294   1.821
39418W        W11744  17.417  44.338   0.040
39419W        W11745  41.841  30.044   3.702
39420W        W11746  25.660  44.324  13.609
39421W        W11747  14.671   2.886   2.745
39422W        W11748   3.941  37.994  14.780
39423W        W11749  34.033  14.625  10.689
39424W        W11750   7.863  43.204   3.623
39425W        W11751  37.157   6.384  10.789
39426W        W11752  19.248   3.486   1.338
39427W        W11753  19.959  28.126  10.200
39428W        W11754  14.618  15.856   4.216
39429W        W11755  41.598  43.714  12.922
39430W        W11756  31.178  13.929  11.607
39431W        W11757  16.221   6.445  13.795
39432W        W11758  26.071  10.738   2.081
39433W        W11759  39.520  30.964   0.808
39434W        W11760  17.373  10.433  13.815
39435W        W11761   2.480  26.701   2.827
39436W        W11762   3.501  31.976  12.012
39437W        W11763  13.078  19.707  12.454
39438W        W11764  21.804  36.471  14.223
39439W        W11765   3.387  39.368  14.688
39440W        W11766  22.589  34.584   0.383
39441W        W11767  26.954  22.530   1.665
39442W        W11768  17.788  43.943   0.810
39443W        W11769  10.590  30.128  13.909
39444W        W11770  19.239  35.676   0.677
39445W        W11771  10.393   3.744  14.267
39446W        W11772  26.460  26.475   4.330
39447W        W11773  24.175  11.318  13.759
39448W        W11774  15.308   6.643   1.828
39449W        W11775   9.246  38.192  11.126
39450W        W11776  40.266  14.212  11.630
39451W        W11777  10.383   2.712  14.328
39452W        W11778  24.305  25.723   1.432
39453W        W11779  12.786  43.495   4.630
39454W        W11780  30.827  12.570  12.408
39455W        W11781  35.853  44.785  11.531
39456W        W11782  30.173  44.009  10.830
39457W        W11783  24.616  27.116  13.342
39458W        W11784  40.881  34.954  10.620
39459W        W11785  23.073   0.696  14.446
39460W        W11786  17.815  37.812  13.887
39461W        W11787  16.765  39.069  11.686
39462W        W11788  13.722  29.254   2.180
39463W        W11789   2.419  37.615   2.813
39464W        W11790  22.578  21.491   1.805
39465W        W11791   4.148   1.946   2.341
39466W        W11792  32.431  11.957   4.371
39467W        W11793  19.868  30.108  14.517
39468W        W11794  15.208  18.010  13.452
39469W        W11795  10.003  34.531  11.890
39470W        W11796   3.681  18.508  12.839
39471W        W11797  10.826   1.264   1.315
39472W        W11798   2.030  35.898  11.537
39473W        W11799   2.206  18.572  12.875
39474W        W11800   8.446   5.847   1.766
39475W        W11801  38.353  33.541  10.779
39476W        W11802  44.987  36.030   3.103
39477W        W11803  32.235  12.572  13.393
39478W        W11804  24.153  41.042   1.020
39479W        W11805  12.688  39.488   4.419
39480W        W11806   9.599   6.872   3.036
39481W        W11807  29.712  35.073   5.056
39482W        W11808  37.834  11.813   2.709
39483W        W11809  10.655  37.838  11.991
39484W        W11810  26.038  28.592  12.992
39485W        W11811  34.011  40.738   2.137
39486W        W11812  11.391  26.965   3.557
39487W        W11813  31.156  42.805   0.962
39488W        W11814   9.014   9.617  11.563
39489W        W11815  24.141  23.447   3.714
39490W        W11816  36.490  34.748   3.129
39491W        W11817  27.496   2.324   2.299
39492W        W11818  20.727   0.434   4.241
39493W        W11819  20.827  24.654   1.835
39494W        W11820  38.601  12.764   2.256
39495W        W11821  30.641  40.815  11.172
39496W        W11822  14.154  23.913   0.841
39497W        W11823  41.268  36.108   1.376
39498W        W11824   3.641  23.761  13.521
39499W        W11825  18.666  19.514  11.234
39500W        W11826   2.889  27.431  11.592
39501W        W11827  34.541   7.553  13.588
39502W        W11828  15.655  26.724  13.753
39503W        W11829  32.155  10.641   1.378
39504W        W11830  43.381  31.982   2.190
39505W        W11831  32.973  25.105   0.490
39506W        W11832   3.878  17.704   4.723
39507W        W11833  28.623  41.042   0.370
39508W        W11834  17.074  31.624   4.606
39509W        W11835  34.024   8.640  13.859
39510W        W11836  41.900  34.309   2.813
39511W        W11837  30.879  42.756  11.201
39512W        W11838  19.516  35.903  13.287
39513W        W11839   7.861  11.389   3.303
39514W        W11840   2.441  24.171   5.219
39515W        W11841  24.129  44.249   1.913
39516W        W11842  35.814  35.288   5.481
39517W        W11843  36.262  20.367  12.921
39518W        W11844  40.265   6.456  11.090
39519W        W11845  33.008  35.926   0.268
39520W        W11846  19.984   2.185  14.828
39521W        W11847   1.008  26.929  11.974
39522W        W11848  19.285  18.234  11.760
39523W        W11849  31.982  38.496  14.002
39524W        W11850  17.836  23.054   0.952
39525W        W11851  18.709   8.189  11.468
39526W        W11852  40.086  31.617   1.257
39527W        W11853  43.472  28.622   0.656
39528W        W11854  13.608  10.985  14.639
39529W        W11855  11.708   8.722   1.252
39530W        W11856  38.438   2.404  12.557
39531W        W11857  34.631   6.207   1.869
39532W        W11858  39.345   4.273  13.979
39533W        W11859  30.245  24.782   2.713
39534W        W11860  30.002  30.692  12.517
39535W        W11861   0.702  34.368   3.700
39536W        W11862   2.832  44.833   4.344
39537W        W11863  37.352   9.192  11.022
39538W        W11864  39.300  40.910  13.296
39539W        W11865  23.817  16.810  11.157
39540W        W11866  16.066   9.331   2.675
39541W        W11867  41.238  15.073   2.453
39542W        W11868  22.175  36.602   2.644
39543W        W11869   6.731  30.902  10.727
39544W        W11870  21.610  22.076  10.632
39545W        W11871  26.024  24.551  10.683
39546W        W11872  28.655  44.386   2.777
39547W        W11873  29.037  31.526   2.163
39548W        W11874  35.978  35.161   1.046
39549W        W11875  29.179  22.223  12.672
39550W        W11876  31.187  39.146   3.381
39551W        W11877   1.247  36.391  13.943
39552W        W11878  41.395  40.877   4.145
39553W        W11879  44.380  14.406   2.400
39554W        W11880  25.873  27.815  10.986
39555W        W11881   1.770  21.055  12.535
39556W        W11882   2.883   2.670  10.079
39557W        W11883  10.924  34.309  13.092
39558W        W11884  34.062  42.533  10.419
39559W        W11885  37.042  33.925  13.001
39560W        W11886  14.180  23.769   3.656
39561W        W11887  30.315  23.500  11.648
39562W        W11888  29.458  44.724  11.625
39563W        W11889  30.209   0.430   3.236
39564W        W11890   9.328   9.811  14.385
39565W        W11891  33.526  40.833   3.888
39566W        W11892  36.455  16.039   4.575
39567W        W11893   3.457   6.741  12.464
39568W        W11894  26.592  34.878  13.023
39569W        W11895  16.057  19.356  11.536
39570W        W11896  44.205   1.799  14.149
39571W        W11897  24.073  23.758  10.260
39572W        W11898  14.884  25.180   0.501
39573W        W11899  14.822  15.531   2.110
39574W        W11900  19.573  11.093  11.479
39575W        W11901  30.587  17.722   2.216
39576W        W11902   3.929  36.442   2.267
39577W        W11903   6.766  10.198  13.322
39578W        W11904  31.806  40.474  14.986
39579W        W11905  21.070  16.179   3.365
39580W        W11906  31.549  15.364  14.982
39581W        W11907  33.446   7.449  11.938
39582W        W11908  18.789  30.694   3.787
39583W        W11909  30.554  27.447  12.376
39584W        W11910   6.768   3.999   0.215
39585W        W11911  26.443   9.853  14.334
39586W        W11912  18.971  14.571  11.969
39587W        W11913  39.922   3.876   1.345
39588W        W11914   2.955  16.501  14.815
39589W        W11915  26.043  20.283   2.623
39590W        W11916  36.926   4.680   4.156
39591W        W11917  14.877   8.304   3.376
39592W        W11918  23.046  27.089  10.506
39593W        W11919  20.259  32.121  13.513
39594W        W11920   4.294  24.628   2.451
39595W        W11921  20.924  19.858   2.889
39596W        W11922  30.064  26.381  14.626
39597W        W11923  16.751  36.351  13.523
39598W        W11924  44.262  28.016  14.343
39599W        W11925  44.826  19.768   0.237
39600W        W11926   5.432  15.270  10.948
39601W        W11927  41.287  40.577   0.161
39602W        W11928  32.815  10.243  14.347
39603W        W11929  42.613   9.094  13.457
39604W        W11930  28.571  37.963  10.692
39605W        W11931  14.973   3.376  10.566
39606W        W11932  23.716  29.212  13.601
39607W        W11933   7.714   0.787   3.157
39608W        W11934  41.920  41.426   1.798
39609W        W11935  35.155  21.971   1.926
39610W        W11936  35.492  35.044  10.218
39611W        W11937  20.859  30.149  13.437
39612W        W11938  42.535  35.959   4.469
39613W        W11939  40.116   7.306   1.727
39614W        W11940  15.680  39.606  13.032
39615W        W11941  15.113  31.076  14.245
39616W        W11942   6.325   3.824  10.512
39617W        W11943  26.400  43.894  14.453
39618W        W11944  27.653   6.480   3.135
39619W        W11945  40.586   1.344  14.277
39620W        W11946   9.405   4.878  13.907
39621W        W11947   8.165  40.197  12.125
39622W        W11948  30.163  20.517   3.339
39623W        W11949  14.371   9.195   1.639
39624W        W11950  14.701  15.657   0.783
39625W        W11951  14.739   6.179   1.271
39626W        W11952  34.820  15.290   0.169
39627W        W11953   4.619  20.829   1.883
39628W        W11954  31.423  15.632  13.371
39629W        W11955  21.423  40.202   3.586
39630W        W11956   6.430  19.856   0.636
39631W        W11957  25.600  15.592  12.207
39632W        W11958  34.341  31.540   1.076
39633W        W11959  31.172  24.310   3.502
39634W        W11960  40.962  13.364   4.234
39635W        W11961  39.826  19.733   3.105
39636W        W11962   4.974  22.253   1.871
39637W        W11963   3.244   0.414  12.458
39638W        W11964  32.442   0.659  12.292
39639W        W11965  36.999  27.018  12.022
39640W        W11966  30.243  33.002   4.456
39641W        W11967   5.872  29.187   1.199
39642W        W11968  40.199   4.750   5.232
39643W        W11969  28.579  31.118   4.638
39644W        W11970  19.122  31.426   0.157
39645W        W11971   0.807  11.270   0.141
39646W        W11972  42.813  34.716  10.549
39647W        W11973   8.072  35.009  14.254
39648W        W11974  43.940  12.027  13.546
39649W        W11975  22.031   8.331   3.823
39650W        W11976  43.718   3.593   4.531
39651W        W11977  31.548  31.625  13.828
39652W        W11978  36.020  18.932   1.435
39653W        W11979  24.653  35.468   2.169
39654W        W11980   3.455  14.206  12.978
39655W        W11981  39.438   3.365   0.241
39656W        W11982   7.210  27.008   3.790
39657W        W11983   8.412  24.023  12.075
39658W        W11984  25.970  37.969  11.253
39659W        W11985   6.366   0.444  14.840
39660W        W11986   5.767  19.922  10.637
39661W        W11987  25.491  18.855   2.196
39662W        W11988   3.149   8.910   1.942
39663W        W11989  10.323  19.579   4.175
39664W        W11990  41.907  37.759  11.565
39665W        W11991   3.147  29.399   1.813
39666W        W11992  23.367  32.353  14.895
39667W        W11993  11.290   1.657  12.479
39668W        W11994  35.352  15.231  11.029
39669W        W11995  23.945  23.045  14.908
39670W        W11996   9.698  22.440   3.518
39671W        W11997  16.794  44.820  13.032
39672W        W11998   5.722  23.483   0.035
39673W        W11999  18.340   6.210   0.884
39674W        W12000  37.968  34.939  13.515
39675W        W12001  15.296  32.996   3.685
39676W        W12002   4.276  17.067  10.536
39677W        W12003  44.820  41.096  11.600
39678W        W12004   7.772  21.137  11.507
39679W        W12005  15.529   4.868  11.204
39680W        W12006  24.994  20.554  14.791
39681W        W12007  24.347  10.755   1.159
39682W        W12008  41.442  13.829   3.484
39683W        W12009  11.866  23.478  13.818
39684W        W12010  16.708   0.268  11.598
39685W        W12011   6.685   5.807  12.622
39686W        W12012   0.624  16.589   3.432
39687W        W12013   1.737  14.338  14.057
39688W        W12014  33.465  16.681   3.375
39689W        W12015   4.703   9.772   4.321
39690W        W12016  37.030  21.745   3.783
39691W        W12017  32.493  32.469   1.330
39692W        W12018   5.902  26.205   2.204
39693W        W12019  12.725  21.737  12.854
39694W        W12020   4.193   4.900  14.506
39695W        W12021  32.532  11.297  10.694
39696W        W12022  18.459  33.623  14.173
39697W        W12023  29.150  32.123  12.035
39698W        W12024   2.104  37.396   5.084
39699W        W12025  43.246  41.985   2.686
39700W        W12026  40.945  21.095   1.557
39701W        W12027  20.500   6.771  11.880
39702W        W12028  17.039  17.712  11.432
39703W        W12029  33.488  37.298  14.524
39704W        W12030  32.492  24.583   0.728
39705W        W12031  24.702  44.749   3.075
39706W        W12032  28.942  39.448  12.632
39707W        W12033  18.176  24.731   0.144
39708W        W12034  12.392  17.564   0.413
39709W        W12035   2.640  14.272  11.113
39710W        W12036  22.142   3.226  12.002
39711W        W12037  27.713  13.388   1.813
39712W        W12038  22.666   2.498  12.981
39713W        W12039  26.010  16.448   1.476
39714W        W12040   8.648  25.212   5.012
39715W        W12041  21.929   0.902  11.201
39716W        W12042   7.126  26.860  13.988
39717W        W12043  10.672   9.751  12.563
39718W        W12044  13.246  20.945   2.175
39719W        W12045  36.936  15.593  12.440
39720W        W12046  33.709  22.505   4.048
39721W        W12047   9.274  16.515   2.973
39722W        W12048  36.546  27.597   3.125
39723W        W12049  28.542  17.257  12.542
39724W        W12050  44.382  22.679   0.251
39725W        W12051  39.393  42.381  11.612
39726W        W12052   0.955  14.382   2.382
39727W        W12053  14.158   1.209  14.433
39728W        W12054   9.276  24.938  13.752
39729W        W12055  13.093  18.663   0.703
39730W        W12056   2.346  20.282   3.354
39731W        W12057  30.584  31.698  11.517
39732W        W12058   5.263  35.605   3.747
39733W        W12059  35.795  29.558   0.815
39734W        W12060  21.577  30.683  13.040
39735W        W12061   4.298   2.780   9.792
39736W        W12062  42.543  22.597   1.229
39737W        W12063   5.960   2.853   0.486
39738W        W12064   6.831  10.270  13.854
39739W        W12065  40.372  20.639  12.825
39740W        W12066  30.558   4.639   1.622
39741W        W12067   1.461  19.586   5.043
39742W        W12068  25.222   4.930   3.575
39743W        W12069  11.910  35.063   3.170
39744W        W12070   3.788   0.936  13.523
39745W        W12071  11.902  36.619   4.201
39746W        W12072  30.571  24.093   4.489
39747W        W12073  43.962   6.114   4.218
39748W        W12074  36.330  15.591  10.076
39749W        W12075  23.722   1.269  10.710
39750W        W12076  36.878   1.242   0.422
39751W        W12077  35.011  29.564   1.818
39752W        W12078   5.629   2.845  14.556
39753W        W12079  25.868  29.507  11.308
39754W        W12080  28.108   2.847  14.327
39755W        W12081  44.960   2.293   0.962
39756W        W12082  29.281   9.858   0.870
39757W        W12083   7.629  39.105  13.123
39758W        W12084  10.185   3.164   0.485
39759W        W12085  37.555  13.133   0.210
39760W        W12086   6.172  32.223  13.946
39761W        W12087  11.759  11.614   2.719
39762W        W12088  20.549  42.936   1.187
39763W        W12089   8.224   0.228   0.540
39764W        W12090   7.246  38.104  14.387
39765W        W12091  43.990  13.027   3.575
39766W        W12092  34.666  22.137   1.936
39767W        W12093   8.199  35.440  14.014
39768W        W12094  29.601  22.767  12.177
39769W        W12095  44.800  19.669   2.408
39770W        W12096   8.741   1.261   0.243
39771W        W12097  15.207  13.176  13.117
39772W        W12098  32.060  11.259  14.734
39773W        W12099   6.290   0.986  10.611
39774W        W12100   1.874   2.955   2.394
39775W        W12101  28.930  23.120  13.851
39776W        W12102  23.526   4.490  13.028
39777W        W12103   9.116   6.457  13.832
39778W        W12104  30.688  31.637  13.774
39779W        W12105  11.622   7.687   2.910
39780W        W12106   7.786   1.664  11.938
39781W        W12107  16.822  25.047   0.435
39782W        W12108   3.906  36.639  10.740
39783W        W12109  41.848  15.048  13.825
39784W        W12110  43.510  18.885   0.629
39785W        W12111   3.785   7.968   3.684
39786W        W12112   9.316  24.478   2.475
39787W        W12113  13.104   9.296  10.736
39788W        W12114   9.706  43.026   1.861
39789W        W12115  21.706  22.132  12.080
39790W        W12116  30.664  10.909   2.804
39791W        W12117  25.967  33.967   3.892
39792W        W12118  29.055  14.166  14.880
39793W        W12119  20.073  17.347   3.647
39794W        W12120  10.840   0.230   4.832
39795W        W12121  34.866  30.099   3.263
39796W        W12122  38.472  29.161  14.820
39797W        W12123   8.298  43.752  14.485
39798W        W12124   0.284  36.062  14.991
39799W        W12125   4.010  38.339   2.336
39800W        W12126  38.120  18.149  14.859
39801W        W12127  28.498   5.424   3.094
39802W        W12128   1.201  39.898  10.671
39803W        W12129  14.608  12.234  14.991
39804W        W12130  11.102  16.715   0.367
39805W        W12131  12.589  28.962   4.092
39806W        W12132   1.773  30.447   0.286
39807W        W12133  44.242  39.975  14.136
39808W        W12134  28.654  11.808   3.159
39809W        W12135  21.191  36.071  11.962
39810W        W12136  14.204   5.891  13.132
39811W        W12137  27.493   0.495   2.427
39812W        W12138  27.185   3.235  14.465
39813W        W12139  44.395  44.363   2.631
39814W        W12140   3.721   0.240   4.156
39815W        W12141  35.996   1.154   0.394
39816W        W12142  13.660  33.947   4.118
39817W        W12143  43.910  22.526  13.504
39818W        W12144  39.858  29.592  10.668
39819W        W12145  20.822  14.214  12.038
39820W        W12146  40.704  17.804  10.955
39821W        W12147  26.441  35.714  11.688
39822W        W12148  22.709  30.369  11.152
39823W        W12149  23.288   9.792  12.194
39824W        W12150  18.685  22.731  13.468
39825W        W12151   3.052  25.551   3.299
39826W        W12152  33.279   3.567   0.834
39827W        W12153   1.009   5.335   3.410
39828W        W12154  13.656  33.565   9.716
39829W        W12155  37.338  13.343  13.863
39830W        W12156  32.662  34.643   0.294
39831W        W12157  13.407  42.258  13.392
39832W        W12158  43.773  44.302  14.298
39833W        W12159   4.218  33.661   2.799
39834W        W12160  16.162   3.439  13.378
39835W        W12161  14.807  33.207   1.218
39836W        W12162  13.805  38.898  14.290
39837W        W12163   8.907  18.624   3.062
39838W        W12164  11.181  35.569   2.758
39839W        W12165  28.543  15.259   3.814
39840W        W12166   8.665  11.316   0.799
39841W        W12167   5.668  27.532   1.962
39842W        W12168  30.067   5.015  12.955
39843W        W12169  42.850  41.857   2.108
39844W        W12170   4.807  10.220  12.605
39845W        W12171  38.890  43.298   3.903
39846W        W12172  33.012  20.154  14.197
39847W        W12173   8.199  14.833   2.621
39848W        W12174  14.195  19.200   1.198
39849W        W12175  44.532  29.255   1.869
39850W        W12176   4.235  28.488   4.739
39851W        W12177  12.582   3.419   0.775
39852W        W12178  42.531  42.433   0.754
39853W        W12179  32.594  13.444   0.039
39854W        W12180  39.168  14.685  12.264
39855W        W12181  17.169  10.115  11.436
39856W        W12182   7.420  34.710   1.391
39857W        W12183  22.043  37.615  11.989
39858W        W12184  42.623  12.837   4.660
39859W        W12185  41.038   7.872   4.074
39860W        W12186   1.485  36.924   2.115
39861W        W12187  24.491  29.868   2.189
39862W        W12188  28.842  35.581  11.979
39863W        W12189  23.887  16.270   2.113
39864W        W12190  14.222  13.132   2.819
39865W        W12191  33.041  16.039  11.941
39866W        W12192  12.360  15.320   0.756
39867W        W12193  20.462  15.309   0.934
39868W        W12194  43.021   3.856   2.366
39869W        W12195  29.476  29.381  11.036
39870W        W12196  28.717  31.565  10.634
39871W        W12197  35.249  30.606   3.333
39872W        W12198  20.669  13.299   3.603
39873W        W12199  27.982  14.063  13.323
39874W        W12200  19.686  34.151  14.475
39875W        W12201  14.416  25.373  13.777
39876W        W12202   1.805  12.924   1.931
39877W        W12203  25.962   6.410   1.140
39878W        W12204   1.657  31.568   4.940
39879W        W12205  22.160  31.453   1.807
39880W        W12206   3.478  23.579  12.309
39881W        W12207   9.896  36.881  13.481
39882W        W12208   7.243  10.658   3.035
39883W        W12209  28.437  30.529   4.534
39884W        W12210   6.860  43.039  14.386
39885W        W12211  30.390   3.933  10.700
39886W        W12212  22.799  23.829  11.542
39887W        W12213  30.888  18.301  11.805
39888W        W12214   5.908  15.676  13.099
39889W        W12215  12.151  15.286   0.282
39890W        W12216  13.811   0.372  12.859
39891W        W12217   4.264  30.084   3.416
39892W        W12218  31.237  43.887   2.386
39893W        W12219  30.707   0.737   1.085
39894W        W12220   3.716  10.662   3.261
39895W        W12221  41.245   3.249   3.284
39896W        W12222  43.971  33.559  11.850
39897W        W12223  14.038  31.839  13.469
39898W        W12224  19.099  36.571  13.321
39899W        W12225  39.337   4.460  10.742
39900W        W12226  14.229  35.861   4.727
39901W        W12227  18.703  34.503  12.666
39902W        W12228  28.919  22.310   1.233
39903W        W12229  33.625  31.662  10.708
39904W        W12230  15.807  22.970   0.252
39905W        W12231   7.432  33.137   0.283
39906W        W12232  39.351  43.647   4.597
39907W        W12233  23.774  34.230   2.391
39908W        W12234  28.012  32.038   2.343
39909W        W12235  29.449  41.479  14.534
39910W        W12236   0.291  22.385   5.496
39911W        W12237   4.210  28.427   0.728
39912W        W12238  24.711   0.050  12.162
39913W        W12239   9.591  42.854   2.780
39914W        W12240   5.142  31.283   1.072
39915W        W12241  42.941   4.148   1.157
39916W        W12242  30.101  11.544   0.458
39917W        W12243  19.219  32.352  12.064
39918W        W12244   6.818   2.784  11.852
39919W        W12245  15.852   5.247  11.136
39920W        W12246  10.178  35.331   2.808
39921W        W12247   7.992  28.673   1.380
39922W        W12248  44.995  32.907   2.636
39923W        W12249  30.888   5.145  14.280
39924W        W12250   1.253  36.943   1.181
39925W        W12251   0.708  44.071   0.329
39926W        W12252  27.019   9.868   4.240
39927W        W12253   1.238  14.609  14.010
39928W        W12254   1.768  34.217  13.486
39929W        W12255   8.346  44.780  11.798
39930W        W12256  28.913  11.317   0.027
39931W        W12257  20.762  22.175   2.741
39932W        W12258  28.656  41.958  14.458
39933W        W12259  43.214  27.459  12.793
39934W        W12260  34.794   9.241   0.838
39935W        W12261  23.552  28.646  14.435
39936W        W12262   6.860  32.502   3.696
39937W        W12263  10.235  20.733  12.762
39938W        W12264  15.531  30.990   1.658
39939W        W12265   9.090   1.711  14.883
39940W        W12266   7.312  42.036   1.078
39941W        W12267  42.067  10.226   0.948
39942W        W12268  22.163   7.835  11.036
39943W        W12269  26.135  43.433   2.396
39944W        W12270  14.581  18.405   2.769
39945W        W12271  30.045  20.319  13.411
39946W        W12272   4.781  30.971   0.333
39947W        W12273  25.595   6.858   3.608
39948W        W12274  31.462  29.939  11.626
39949W        W12275  38.379  25.977  10.609
39950W        W12276  39.405  14.206  13.933
39951W        W12277  31.675  13.664  12.886
39952W        W12278  16.087  21.515   3.262
39953W        W12279  26.248   2.930   4.054
39954W        W12280  42.476  17.332   0.439
39955W        W12281  32.573  44.333   2.415
39956W        W12282  14.612  34.539   0.958
39957W        W12283  12.940  23.709  14.343
39958W        W12284  43.946   8.291  14.058
39959W        W12285  32.456  42.594   4.001
39960W        W12286  33.010  26.255  11.463
39961W        W12287  33.519  16.840   4.911
39962W        W12288   6.167   2.005  10.704
39963W        W12289  24.648  34.632   1.718
39964W        W12290  21.973  28.655  12.124
39965W        W12291  14.235  29.863  11.402
39966W        W12292  36.478   0.541  13.836
39967W        W12293  21.624  29.161  12.971
39968W        W12294  21.308  41.494   2.185
39969W        W12295   5.340  36.948  12.975
39970W        W12296  15.593   7.044   4.040
39971W        W12297   1.983  27.684  12.879
39972W        W12298  24.702  37.978  11.720
39973W        W12299   8.460  12.200   3.629
39974W        W12300  35.883   7.618   1.377
39975W        W12301  26.981  19.662   0.881
39976W        W12302   1.237  18.028   4.685
39977W        W12303  22.267  13.856  12.442
39978W        W12304   1.557  20.120  12.467
39979W        W12305  32.985  13.196  12.343
39980W        W12306   8.350  30.699   3.605
39981W        W12307  20.165   8.290   0.014
39982W        W12308  37.877   7.187  14.877
39983W        W12309   4.863   1.998  14.211
39984W        W12310  12.229   7.922   1.752
39985W        W12311  18.468  17.082   2.568
39986W        W12312  13.146  35.004  12.066
39987W        W12313  43.029  26.114   0.053
39988W        W12314  10.218  15.005  11.470
39989W        W12315  41.184  24.097   0.729
39990W        W12316  17.399  30.238   2.711
39991W        W12317   1.028   8.001   2.320
39992W        W12318  42.489  26.695  13.825
39993W        W12319  21.889  40.606   2.250
39994W        W12320  34.544  24.538  13.850
39995W        W12321  32.182  29.009   3.123
39996W        W12322  11.941  19.091  12.834
39997W        W12323  11.675  27.457   0.996
39998W        W12324  24.662  11.314   4.109
39999W        W12325  35.098   4.881  14.238
40000W        W12326  37.764  29.886   3.751
40001W        W12327  27.472  22.567  14.486
40002W        W12328  29.440  17.705   0.143
40003W        W12329  23.774   5.302   2.943
40004W        W12330  20.379  31.134  14.843
40005W        W12331   6.264   1.730   4.149
40006W        W12332   2.344  32.554  13.398
40007W        W12333  42.974  44.710   4.935
40008W        W12334  15.746  30.401   2.190
40009W        W12335  38.605  35.629  10.545
40010W        W12336  30.069  11.897   1.421
40011W        W12337  35.006  15.222   3.345
40012W        W12338  23.540  37.986   0.202
40013W        W12339  10.276   2.637   0.401
40014W        W12340  43.438  20.609   4.082
40015W        W12341  32.404  40.260  12.997
40016W        W12342  28.476   1.353   3.351
40017W        W12343  29.530  42.880  10.354
40018W        W12344   3.360  17.213  12.872
40019W        W12345  34.781  19.241  11.591
40020W        W12346  13.591  23.756   1.751
40021W        W12347   0.812  32.110   0.006
40022W        W12348  36.901  24.343   2.730
40023W        W12349  21.287  13.528  13.444
40024W        W12350  26.019  11.207   1.879
40025W        W12351  19.771  11.325   0.933
40026W        W12352   8.875  29.236  11.200
40027W        W12353  17.712   6.327  12.018
40028W        W12354   2.931  12.064   4.673
40029W        W12355  11.554  14.163  12.810
40030W        W12356   2.824   7.872  12.224
40031W        W12357  16.787  19.954   1.267
40032W        W12358  31.159  13.329   3.113
40033W        W12359  17.266  25.469  12.461
40034W        W12360  14.316  29.697  10.651
40035W        W12361  35.539  31.074   0.816
40036W        W12362  21.750  24.979  11.973
40037W        W12363  20.097  16.520   1.026
40038W        W12364  23.767   3.441  14.926
40039W        W12365  29.020  31.404   3.504
40040W        W12366  30.176  23.238  12.282
40041W        W12367  37.507   2.998  13.404
40042W        W12368   7.655  26.129   3.705
40043W        W12369  26.027   6.744   1.728
40044W        W12370  41.319   4.953  13.906
40045W        W12371   4.370  41.098  12.560
40046W        W12372   6.379  39.965  14.900
40047W        W12373   3.053  29.845   0.869
40048W        W12374  24.398  33.108  10.585
40049W        W12375  19.166  33.690   4.149
40050W        W12376  16.075  21.647   0.836
40051W        W12377  13.288  23.655   2.231
40052W        W12378  14.219  38.422  12.667
40053W        W12379   2.194   4.642  14.311
40054W        W12380  30.401  29.444   4.130
40055W        W12381  27.747  22.075   1.871
40056W        W12382  34.881  39.549   1.504
40057W        W12383  11.294  38.914   2.844
40058W        W12384   0.313  13.283  14.886
40059W        W12385  10.325  35.487  13.587
40060W        W12386  41.930   1.368  11.546
40061W        W12387  43.772  27.267   2.838
40062W        W12388  24.330  33.397  11.044
40063W        W12389  38.526  25.951  11.479
40064W        W12390  37.284  18.621   3.237
40065W        W12391  40.957   8.908  14.419
40066W        W12392  22.736  40.816  11.053
40067W        W12393  10.147  31.179  12.893
40068W        W12394  29.750   1.697  12.045
40069W        W12395   6.172  44.357   4.274
40070W        W12396  15.867   3.278  13.766
40071W        W12397  17.266  26.419   0.735
40072W        W12398  43.270   9.630   0.335
40073W        W12399   4.765   1.941  12.974
40074W        W12400  19.612  35.786  11.021
40075W        W12401  17.861  24.566  11.040
40076W        W12402  23.527  40.568   3.373
40077W        W12403  19.694  40.498  11.176
40078W        W12404  25.619   8.365  13.433
40079W        W12405   9.775  28.972   2.002
40080W        W12406  14.741   8.190  11.538
40081W        W12407  16.406  22.085   0.887
40082W        W12408  23.932  31.484   2.329
40083W        W12409  35.891  42.047   4.145
40084W        W12410  34.670  17.580  11.142
40085W        W12411  15.730  16.020  14.372
40086W        W12412  37.622  13.621  13.092
40087W        W12413   5.383  42.820   3.242
40088W        W12414  12.210  41.609  10.733
40089W        W12415  12.487  31.919  14.524
40090W        W12416  32.021  16.703   1.239
40091W        W12417  25.138  27.460   4.813
40092W        W12418  30.463  30.135  11.620
40093W        W12419  33.097  32.035   0.855
40094W        W12420   8.008   3.708   1.264
40095W        W12421  28.589  24.543  14.841
40096W        W12422  43.910   7.973  12.263
40097W        W12423  19.812  30.157   0.530
40098W        W12424  39.866  11.326  13.452
40099W        W12425  36.949  32.527  14.134
40100W        W12426  36.122  20.804   0.654
40101W        W12427   2.163   7.650  11.597
40102W        W12428  44.212  26.686  14.429
40103W        W12429  40.981  40.107   0.835
40104W        W12430  31.458  32.598  14.908
40105W        W12431  18.086   9.339   1.968
40106W        W12432  35.862  30.656   0.804
40107W        W12433   0.374  43.434  14.805
40108W        W12434  38.399  27.477  13.099
40109W        W12435  26.616  26.033   4.549
40110W        W12436  30.680   4.393  10.928
40111W        W12437  21.449  33.943   4.252
40112W        W12438  38.506   0.341  10.857
40113W        W12439  19.484  26.073   3.262
40114W        W12440  18.154  31.146   4.755
40115W        W12441  29.160  38.415   3.216
40116W        W12442   7.262   3.237  13.789
40117W        W12443   0.228  10.311  11.192
40118W        W12444  11.808  12.002  11.512
40119W        W12445  36.972  16.624  14.576
40120W        W12446   4.858  19.624   0.369
40121W        W12447  31.810   3.008   1.734
40122W        W12448  30.527  31.459   2.889
40123W        W12449   2.989   3.754  13.189
40124W        W12450  25.370  23.546   4.572
40125W        W12451  10.575  16.052   1.559
40126W        W12452   8.753  43.190   0.839
40127W        W12453   8.612  21.380   9.965
40128W        W12454  30.637   1.627  11.938
40129W        W12455  40.346   0.036  13.969
40130W        W12456  24.563  41.541  14.989
40131W        W12457  18.286  30.880  11.127
40132W        W12458  25.590  15.208  10.916
40133W        W12459  12.108  39.656   3.721
40134W        W12460  34.868  19.805   2.233
40135W        W12461  44.523  15.323   1.843
40136W        W12462   5.259  17.908  14.824
40137W        W12463  34.056   9.538  11.692
40138W        W12464  36.296  41.059   0.290
40139W        W12465  12.152  33.440   2.104
40140W        W12466  23.327  25.284   1.381
40141W        W12467  13.860   3.057  14.604
40142W        W12468  12.112   3.901  14.911
40143W        W12469   8.125  19.693  11.988
40144W        W12470  43.035  29.462   4.630
40145W        W12471  35.438   2.761   2.373
40146W        W12472   6.087  24.194  11.602
40147W        W12473  23.495   0.965  12.891
40148W        W12474   6.900   1.882  12.285
40149W        W12475  36.923  36.397  11.901
40150W        W12476  14.475  37.445   5.090
40151W        W12477  19.126  23.479   1.455
40152W        W12478  26.506   7.015   3.723
40153W        W12479  40.077   8.591  10.713
40154W        W12480  18.597   3.166   0.413
40155W        W12481  39.424  44.444   3.298
40156W        W12482   7.885   8.465   1.428
40157W        W12483  42.263  41.811  13.557
40158W        W12484  22.959  32.929   3.726
40159W        W12485  27.376  10.445   9.806
40160W        W12486  15.283  28.559  13.002
40161W        W12487   5.278  18.388   0.926
40162W        W12488  10.308  44.464   4.548
40163W        W12489  13.510  20.967   4.815
40164W        W12490  22.967  41.902   1.705
40165W        W12491  44.809  17.048  10.569
40166W        W12492  32.118  30.977   5.000
40167W        W12493   1.092  28.680  10.286
40168W        W12494  40.928   4.425   2.297
40169W        W12495   6.911  21.088  14.764
40170W        W12496  24.112  42.788  11.947
40171W        W12497  26.157  13.020   3.950
40172W        W12498  29.221  15.711   4.887
40173W        W12499  40.096  30.169   2.428
40174W        W12500  42.145  22.998   2.830
40175W        W12501  18.016  15.134   1.974
40176W        W12502  19.208   7.384  11.731
40177W        W12503  25.584  24.648   0.034
40178W        W12504  33.169  25.694  12.697
40179W        W12505  19.965  31.314  13.871
40180W        W12506  31.419  44.211  12.070
40181W        W12507   8.999  35.602   3.703
40182W        W12508  12.222  11.700   2.018
40183W        W12509  36.355  28.639   3.645
40184W        W12510  39.503   8.934   2.163
40185W        W12511   0.660   5.121   1.961
40186W        W12512  20.696  20.970   1.518
40187W        W12513   1.713  42.930  13.914
40188W        W12514  29.475  20.606   3.959
40189W        W12515  11.044  31.624   1.852
40190W        W12516   5.226   0.857   2.316
40191W        W12517  15.728   9.365   2.286
40192W        W12518  39.280  29.977   1.486
40193W        W12519  41.829  30.941  12.097
40194W        W12520   6.731  30.109  13.022
40195W        W12521  27.232  10.582  12.993
40196W        W12522  12.148  29.541  12.153
40197W        W12523  25.137  36.388   4.456
40198W        W12524  33.971  14.678   3.829
40199W        W12525  28.087   8.628   2.779
40200W        W12526  21.273  44.983  12.955
40201W        W12527  30.545   4.160   4.288
40202W        W12528  33.830  28.058   2.350
40203W        W12529  30.572  28.163  12.927
40204W        W12530  23.096   4.749  13.425
40205W        W12531  18.139  28.098  10.668
40206W        W12532  28.123  33.533   2.112
40207W        W12533   5.984  14.628  12.666
40208W        W12534  13.907  20.604   4.543
40209W        W12535  22.444  14.466   3.278
40210W        W12536   3.008  12.340   4.232
40211W        W12537  33.284  39.500  11.123
40212W        W12538  24.174  24.162   3.083
40213W        W12539  11.104  16.211   0.420
40214W        W12540   7.907  19.244  10.550
40215W        W12541  12.675   3.333  12.982
40216W        W12542  29.185  33.523   0.772
40217W        W12543  43.329   5.415  14.377
40218W        W12544  39.141  15.070  13.455
40219W        W12545  14.154  17.952  11.579
40220W        W12546  25.114  44.195   2.356
40221W        W12547   8.770  43.468   1.274
40222W        W12548  32.783  40.839   0.663
40223W        W12549  37.560  20.307   0.055
40224W        W12550  37.913   3.799   0.758
40225W        W12551   0.389  32.955  11.210
40226W        W12552  34.410  12.758   1.382
40227W        W12553  35.598  16.977   4.528
40228W        W12554  27.594  42.024   4.519
40229W        W12555  10.707  14.625   1.758
40230W        W12556  37.812  29.038   3.434
40231W        W12557  44.936  31.446   0.835
40232W        W12558   0.458  32.629  11.594
40233W        W12559  35.127  34.632  10.220
40234W        W12560  18.057   6.745   2.314
40235W        W12561   0.898  33.976  13.981
40236W        W12562  18.202  19.000  14.742
40237W        W12563  43.806  44.812   4.099
40238W        W12564  21.290  34.482   0.875
40239W        W12565  30.715  27.435   0.799
40240W        W12566   4.180  34.347   3.664
40241W        W12567   9.294  13.090   2.485
40242W        W12568  12.677  34.107   2.744
40243W        W12569  32.934   2.898   0.990
40244W        W12570   8.772  12.559  11.144
40245W        W12571  28.997  39.814  14.826
40246W        W12572   5.475  27.988   1.797
40247W        W12573  30.687  11.605   3.618
40248W        W12574  15.335  26.489  12.913
40249W        W12575   8.886  40.568  10.515
40250W        W12576  11.464  11.961  12.466
40251W        W12577   3.915  32.440   0.391
40252W        W12578   9.983  37.448   3.357
40253W        W12579  27.627  22.925  10.936
40254W        W12580  29.867  34.859  13.959
40255W        W12581   6.160  33.872   4.085
40256W        W12582   5.206   4.958   1.989
40257W        W12583  37.849  40.228  10.992
40258W        W12584  14.324  35.828  12.051
40259W        W12585  17.390  32.488  11.979
40260W        W12586  41.444  25.498  12.841
40261W        W12587  36.449  29.483   3.331
40262W        W12588   4.805  32.090  10.198
40263W        W12589   1.404  19.979   2.327
40264W        W12590  16.802  39.832  13.205
40265W        W12591  19.747  33.466  12.489
40266W        W12592  23.286  19.976   2.321
40267W        W12593   5.709  34.941   4.699
40268W        W12594  19.609  18.854   1.642
40269W        W12595  28.957  30.960  13.519
40270W        W12596  32.440   6.718  11.167
40271W        W12597  11.314  34.273   2.816
40272W        W12598  21.161   1.011  14.017
40273W        W12599  39.503  27.042  10.692
40274W        W12600  41.235  39.943  11.175
40275W        W12601  44.787  39.466  12.936
40276W        W12602  41.789  35.851   0.405
40277W        W12603  12.195   6.988   1.730
40278W        W12604   0.759  13.834   0.359
40279W        W12605  44.022  41.146   0.365
40280W        W12606  29.437  19.806   4.628
40281W        W12607  44.659  24.670  12.831
40282W        W12608  21.227   0.777  14.482
40283W        W12609   3.286  28.141   2.289
40284W        W12610  43.982  38.934  11.651
40285W        W12611  29.115  15.617   1.767
40286W        W12612  36.586  26.609  11.274
40287W        W12613   4.911  32.569  11.655
40288W        W12614   0.571  41.344  13.803
40289W        W12615  39.817  40.297   3.621
40290W        W12616  44.506  44.073   3.687
40291W        W12617  18.159   0.275  10.474
40292W        W12618  37.048  19.053   3.095
40293W        W12619  10.897  17.639   3.118
40294W        W12620  36.897  30.887  13.825
40295W        W12621  39.022  39.256  10.920
40296W        W12622  43.674  29.711  11.465
40297W        W12623  16.328  17.045  12.961
40298W        W12624  15.650   2.794   3.678
40299W        W12625  34.134  13.864  12.989
40300W        W12626  44.018  26.892  14.867
40301W        W12627  42.394  31.584  14.496
40302W        W12628  24.646  18.595   4.558
40303W        W12629  14.627   0.793   1.254
40304W        W12630  40.915  10.901  11.203
40305W        W12631  27.666   5.167   1.878
40306W        W12632   0.774  32.070   4.706
40307W        W12633  30.524   7.616  13.243
40308W        W12634  35.939   9.720   4.100
40309W        W12635  38.685   8.971   5.225
40310W        W12636  34.698  25.926  14.710
40311W        W12637   9.156  28.509   4.864
40312W        W12638  36.924  12.333  14.372
40313W        W12639  43.874  31.047   4.484
40314W        W12640  27.583   7.259  14.106
40315W        W12641  12.768  44.970   3.120
40316W        W12642  20.194  16.255   9.957
40317W        W12643  28.950  12.532  11.094
40318W        W12644   1.078  21.897   9.771
40319W        W12645  42.882  13.228   1.574
40320W        W12646  37.944  33.515  14.959
40321W        W12647  21.076   3.199   1.307
40322W        W12648  11.932  17.268   1.301
40323W        W12649  11.236  19.196   0.491
40324W        W12650   2.347  28.413  12.372
40325W        W12651   0.881  18.083   4.229
40326W        W12652  24.765   3.900   3.636
40327W        W12653  31.089  34.261   2.837
40328W        W12654   1.879  15.565  10.646
40329W        W12655   0.376   9.592  12.483
40330W        W12656   8.224  11.401  14.926
40331W        W12657  14.559  26.279  11.613
40332W        W12658  40.118  21.472   1.818
40333W        W12659  12.041   7.226  13.391
40334W        W12660  25.773  14.573   2.867
40335W        W12661  26.358  23.021   2.270
40336W        W12662   6.765  44.064   4.234
40337W        W12663  13.859  13.121  12.459
40338W        W12664  22.006  33.264  13.359
40339W        W12665  27.112  16.287  14.970
40340W        W12666  33.874  15.435  12.219
40341W        W12667  19.135  35.672   3.284
40342W        W12668  21.276   6.722  10.711
40343W        W12669  33.292   0.761  11.653
40344W        W12670  32.544   9.396   1.199
40345W        W12671  20.734   9.904  12.042
40346W        W12672  33.511  39.511  12.952
40347W        W12673   4.346  15.156   0.666
40348W        W12674  21.655  32.939  11.405
40349W        W12675   8.145  21.823   3.246
40350W        W12676  23.594  19.089  14.415
40351W        W12677  40.235  21.196   1.350
40352W        W12678   4.245  20.562  12.183
40353W        W12679  16.680  38.590  11.544
40354W        W12680  37.969  22.142  10.653
40355W        W12681  32.165  14.206   3.705
40356W        W12682  31.551  29.749  11.135
40357W        W12683  42.520   9.266  10.578
40358W        W12684   0.287  16.715  11.667
40359W        W12685   1.966  15.888  12.115
40360W        W12686  44.711   2.425  13.474
40361W        W12687   6.885   9.225   4.030
40362W        W12688  18.185   1.523   1.768
40363W        W12689  31.724  39.136  14.591
40364W        W12690   6.409  32.327   1.729
40365W        W12691   3.248  15.951   0.749
40366W        W12692  40.412  32.370  10.631
40367W        W12693  22.686  30.658  11.603
40368W        W12694  25.151  33.711  11.996
40369W        W12695  23.502  40.611   1.005
40370W        W12696  19.421  26.586  14.391
40371W        W12697   9.163  13.715  10.947
40372W        W12698  42.443  16.681   2.960
40373W        W12699   5.597  14.368   0.034
40374W        W12700  12.128  37.892   3.761
40375W        W12701   6.173  23.962  10.741
40376W        W12702   2.323   2.462   1.346
40377W        W12703   3.340   9.189  11.975
40378W        W12704   7.801  23.752   0.832
40379W        W12705  11.727   6.329  13.801
40380W        W12706  42.764  22.406  11.075
40381W        W12707  41.916   1.332  12.437
40382W        W12708   1.777  10.124   0.761
40383W        W12709  38.141   6.375   3.795
40384W        W12710   4.416  25.510   4.102
40385W        W12711  26.095   1.718   3.220
40386W        W12712  32.115  24.135   3.315
40387W        W12713  44.154  17.851   1.111
40388W        W12714   5.647  35.394   4.012
40389W        W12715  39.577  23.271  10.697
40390W        W12716  25.769  38.888   2.211
40391W        W12717  17.441  12.274  13.583
40392W        W12718   0.950  27.990   2.776
40393W        W12719  31.569  37.331   0.849
40394W        W12720  43.978  20.712  12.552
40395W        W12721  42.925  35.224   4.181
40396W        W12722  14.081   2.943   3.747
40397W        W12723  41.081  19.678   3.687
40398W        W12724   6.081   4.440   4.699
40399W        W12725   4.245  27.109   4.875
40400W        W12726  23.149  24.492   1.965
40401W        W12727   6.174  38.963   4.133
40402W        W12728  17.715  43.221  11.023
40403W        W12729  24.636  30.108  11.897
40404W        W12730   8.198   3.830   3.781
40405W        W12731   1.188   3.718  10.758
40406W        W12732  14.315  39.559   1.224
40407W        W12733  29.388  32.103  11.528
40408W        W12734  16.140  40.565   0.347
40409W        W12735   5.265   3.391   4.988
40410W        W12736  37.700  40.967   2.704
40411W        W12737  18.071  10.325  14.715
40412W        W12738  33.932  14.630  13.614
40413W        W12739  17.804  25.590  13.366
40414W        W12740  43.978  19.379   3.295
40415W        W12741  21.138  44.743  12.460
40416W        W12742  40.493  10.873  10.901
40417W        W12743  13.169  33.661  11.552
40418W        W12744  43.053  23.605  11.031
40419W        W12745  43.875  14.694  10.561
40420W        W12746  26.966  22.592   4.552
40421W        W12747   1.715  26.730   1.649
40422W        W12748  16.030   6.225   4.103
40423W        W12749  43.212  30.985   4.106
40424W        W12750  28.886  14.312  13.842
40425W        W12751  23.881  44.323   1.437
40426W        W12752  25.767   2.207   4.471
40427W        W12753  42.465   8.240   5.120
40428W        W12754   3.154  14.784   5.027
40429W        W12755  24.266  24.269   0.406
40430W        W12756  37.522  42.596   4.883
40431W        W12757  41.479   0.099   0.264
40432W        W12758   3.557  32.105   4.090
40433W        W12759  11.078  37.867  14.392
40434W        W12760  44.141  36.001   1.427
40435W        W12761  18.578   5.237   3.076
40436W        W12762  34.388  29.898   0.332
40437W        W12763  16.312  27.128   1.342
40438W        W12764  11.661  36.582   0.374
40439W        W12765  28.899  38.205  12.533
40440W        W12766   1.841  21.766   9.619
40441W        W12767   4.413  19.907   0.263
40442W        W12768  14.629  11.167  13.071
40443W        W12769  13.132  24.070  13.964
40444W        W12770  21.321   9.783  14.761
40445W        W12771  15.816  22.894   2.935
40446W        W12772  37.598  15.037   0.504
40447W        W12773  15.570  28.321  12.573
40448W        W12774  22.969  24.096  14.878
40449W        W12775  43.780   6.975  11.992
40450W        W12776  22.069   6.430  11.340
40451W        W12777  43.017   3.387   4.088
40452W        W12778  28.026  15.222   0.305
40453W        W12779  14.710  25.715   2.188
40454W        W12780  41.981  40.828   0.291
40455W        W12781  29.109  40.500   3.273
40456W        W12782   3.913  25.048  12.147
40457W        W12783  30.665  25.602  14.286
40458W        W12784  24.337  39.407   0.124
40459W        W12785  26.201  19.487  11.832
40460W        W12786  32.490  19.717   3.251
40461W        W12787  13.097   1.938  12.681
40462W        W12788   7.659   4.503  13.099
40463W        W12789  36.993  29.197   0.205
40464W        W12790  41.919  19.778   0.086
40465W        W12791   4.804  30.218  14.327
40466W        W12792   5.457  39.551  11.872
40467W        W12793   8.414  15.649  13.888
40468W        W12794  20.316  10.374   1.852
40469W        W12795  10.709   6.021  12.435
40470W        W12796  21.173  18.173   2.185
40471W        W12797  14.059  17.552   3.725
40472W        W12798  10.796  10.095  12.927
40473W        W12799  21.798  26.707   4.587
40474W        W12800  32.650  38.310  11.655
40475W        W12801  21.837  33.651  11.015
40476W        W12802  38.415  24.944   4.789
40477W        W12803  14.913   5.322  12.078
40478W        W12804  22.055  21.468   4.027
40479W        W12805  18.250   6.464   3.613
40480W        W12806  25.737  31.691  12.140
40481W        W12807   3.287  11.471   4.976
40482W        W12808  14.161  28.928   4.372
40483W        W12809   6.636   2.679   1.797
40484W        W12810  37.993  22.465  12.054
40485W        W12811  44.477  31.141  13.827
40486W        W12812  32.032  25.006   4.241
40487W        W12813  27.942  27.094  12.719
40488W        W12814   6.357  42.474  13.786
40489W        W12815  10.253   9.590   3.764
40490W        W12816  26.597  13.563   3.772
40491W        W12817  15.098  39.073   3.586
40492W        W12818  20.911  33.818   4.152
40493W        W12819  14.742  39.973  11.651
40494W        W12820  18.125  31.047   1.895
40495W        W12821  34.095  39.512  12.604
40496W        W12822  17.137  43.850  10.666
40497W        W12823  39.373   5.956   1.292
40498W        W12824  40.757   7.274  11.941
40499W        W12825  13.847  39.907   3.704
40500W        W12826  24.051  29.186  12.999
40501W        W12827  24.927  14.774   5.500
40502W        W12828  25.287  26.042   0.898
40503W        W12829  25.764  27.014   3.298
40504W        W12830  34.687  17.343  14.391
40505W        W12831  19.703  16.515  13.378
40506W        W12832   8.147  31.667  13.373
40507W        W12833   7.112  43.790   4.509
40508W        W12834   3.026  16.708   4.656
40509W        W12835  34.565  29.566   2.121
40510W        W12836  34.515  30.980   3.652
40511W        W12837   1.756  31.031  14.306
40512W        W12838  22.688   6.205   3.745
40513W        W12839  40.710  10.300  10.212
40514W        W12840   1.226  14.004  11.163
40515W        W12841  43.348  34.553   4.772
40516W        W12842  15.763  17.143   4.109
40517W        W12843  36.066  16.178  11.683
40518W        W12844  19.831   0.788  12.051
40519W        W12845  28.965  18.118   1.316
40520W        W12846  11.052  28.743  11.964
40521W        W12847  14.391  36.927  13.946
40522W        W12848  10.611  31.549  14.312
40523W        W12849  15.321  36.585  13.758
40524W        W12850  43.183  40.898  12.557
40525W        W12851  43.910  42.076   2.177
40526W        W12852  12.685   8.303   2.005
40527W        W12853  21.421   9.647   0.273
40528W        W12854  24.015  15.328   9.658
40529W        W12855  40.380  10.628   4.651
40530W        W12856  31.428  43.926   2.875
40531W        W12857  28.620  14.814  13.854
40532W        W12858   3.220  38.817  10.905
40533W        W12859  20.317  43.425   3.810
40534W        W12860  22.337  30.452   1.710
40535W        W12861  25.478  25.311   1.482
40536W        W12862  24.758  14.480  13.928
40537W        W12863  30.442   2.276   1.180
40538W        W12864  42.301  33.854   0.725
40539W        W12865  14.272  28.245  12.502
40540W        W12866  17.706  19.020  11.099
40541W        W12867  30.975  25.971  10.504
40542W        W12868  31.357  33.993   0.331
40543W        W12869   4.993  30.024  11.081
40544W        W12870  11.876  19.148   4.373
40545W        W12871  33.397  28.943   2.232
40546W        W12872  29.447  37.287  12.022
40547W        W12873  21.676  34.449  12.446
40548W        W12874  33.077  26.867  10.159
40549W        W12875  29.954  32.999  12.031
40550W        W12876  22.431  10.280   4.564
40551W        W12877  17.853  33.371   1.630
40552W        W12878  33.818  12.159   2.868
40553W        W12879   7.607  20.455   3.846
40554W        W12880   1.789  41.351   1.223
40555W        W12881  28.663  22.480  13.794
40556W        W12882  15.614  18.285  14.762
40557W        W12883  36.926   2.804   4.449
40558W        W12884  12.102  23.522  14.752
40559W        W12885  16.064  37.538  12.516
40560W        W12886  19.407   8.173  14.836
40561W        W12887  43.256  11.299  14.858
40562W        W12888  10.770   1.875  13.521
40563W        W12889  21.167  17.178  10.574
40564W        W12890  41.627   9.838   4.206
40565W        W12891  14.166  13.719   1.770
40566W        W12892  25.474   1.669   1.478
40567W        W12893  38.855  24.899   1.765
40568W        W12894   2.474   6.201   2.330
40569W        W12895   3.477  37.888   4.126
40570W        W12896  31.200  12.411  13.238
40571W        W12897  39.828   4.674   3.815
40572W        W12898  36.526   0.489  10.669
40573W        W12899  15.756  19.733   1.042
40574W        W12900  15.377   1.922  12.927
40575W        W12901   9.693  38.344   0.426
40576W        W12902   5.018  23.658  12.011
40577W        W12903  38.803   9.649  11.601
40578W        W12904  15.218  44.807  12.325
40579W        W12905  42.591  20.233   1.375
40580W        W12906  34.292   5.798   1.164
40581W        W12907  31.619  35.059  13.100
40582W        W12908  21.761  22.195  12.620
40583W        W12909  37.945  23.698  11.552
40584W        W12910  17.453  27.247  11.008
40585W        W12911  27.131  43.329  14.724
40586W        W12912  40.038  22.779   2.180
40587W        W12913  31.020  37.090   4.602
40588W        W12914   4.247  17.717  12.394
40589W        W12915   2.670  34.862  13.914
40590W        W12916  33.360   2.180  14.867
40591W        W12917   3.262  25.285   1.307
40592W        W12918  33.557  38.548  13.019
40593W        W12919  30.510  12.463   3.294
40594W        W12920  41.503  23.757  11.656
40595W        W12921  26.197  32.973  11.527
40596W        W12922  41.798  17.571   0.477
40597W        W12923  24.684  32.082   4.545
40598W        W12924   7.263  40.790   4.043
40599W        W12925  22.250  26.279   3.388
40600W        W12926  21.123  14.858  12.963
40601W        W12927   5.992  27.058   2.624
40602W        W12928  28.920  28.665   1.291
40603W        W12929   8.797  11.175   1.651
40604W        W12930  26.067   3.967   0.531
40605W        W12931  21.285  26.526   3.725
40606W        W12932  13.270  24.123  10.594
40607W        W12933  18.880  25.222  13.046
40608W        W12934  35.497  21.116  13.557
40609W        W12935  24.809   6.851  11.142
40610W        W12936  43.206  28.103   2.627
40611W        W12937  41.980  26.270  13.263
40612W        W12938   9.952   0.529   1.669
40613W        W12939   7.257   9.942  13.296
40614W        W12940  14.523  18.587  13.953
40615W        W12941  16.501   3.367   2.860
40616W        W12942  40.874  33.942  12.562
40617W        W12943  12.860   0.911   2.349
40618W        W12944   0.558  37.385  14.472
40619W        W12945   9.677  44.084  12.581
40620W        W12946  31.070  40.957  10.907
40621W        W12947  19.047  29.454   0.002
40622W        W12948  29.337  38.958  10.523
40623W        W12949  35.955   4.749   0.872
40624W        W12950  21.767  22.199   4.652
40625W        W12951   6.315  27.942   0.862
40626W        W12952  25.521  25.811   3.399
40627W        W12953  14.282  40.868  10.292
40628W        W12954  44.468  18.085   4.382
40629W        W12955  29.260  32.924   4.307
40630W        W12956  34.364  19.794   0.278
40631W        W12957  31.146  19.265  13.424
40632W        W12958  36.892   5.434   1.698
40633W        W12959  19.009  38.373  10.901
40634W        W12960  19.520  39.376   3.057
40635W        W12961  44.484  16.175  12.616
40636W        W12962  11.734   1.686   1.930
40637W        W12963  12.265   0.041  13.511
40638W        W12964  16.626  27.151  11.181
40639W        W12965   7.985  15.663   5.098
40640W        W12966  12.286  14.333   4.690
40641W        W12967  36.548  30.940   2.283
40642W        W12968  23.526   3.884  13.379
40643W        W12969  34.368  23.782  10.506
40644W        W12970  40.822   9.847   1.471
40645W        W12971   0.957   6.204   0.802
40646W        W12972  21.659  43.696   3.704
40647W        W12973  32.760  33.028  13.086
40648W        W12974   7.430  40.049   4.750
40649W        W12975   4.482   7.898   3.375
40650W        W12976   6.855  36.144   0.884
40651W        W12977  10.136  16.535  10.474
40652W        W12978   1.162  38.595  10.430
40653W        W12979  40.320  17.576   1.482
40654W        W12980  17.325  26.322   2.828
40655W        W12981  11.159   9.130   4.593
40656W        W12982  22.129  15.846   2.831
40657W        W12983  27.886  13.598   3.221
40658W        W12984  38.082   7.880  14.448
40659W        W12985   3.199  23.097   3.988
40660W        W12986   1.597  39.615  14.784
40661W        W12987   5.770  12.616  10.833
40662W        W12988   8.772  11.187  11.396
40663W        W12989   5.482  11.311  14.521
40664W        W12990  34.594  30.215  14.941
40665W        W12991  26.478  27.323   4.239
40666W        W12992  33.864  14.266   2.789
40667W        W12993  25.977   1.413  11.206
40668W        W12994   8.061  35.100  12.000
40669W        W12995  15.411   7.659  14.563
40670W        W12996  26.545   4.752   4.910
40671W        W12997  20.958   9.430  11.188
40672W        W12998  15.280  11.832   2.341
40673W        W12999  40.987  21.739  10.497
40674W        W13000   1.399  24.939  11.456
40675W        W13001  15.003  24.738  12.904
40676W        W13002  24.233  11.297  12.253
40677W        W13003  12.602  24.619  13.393
40678W        W13004  15.629  40.284  12.425
40679W        W13005  37.015   5.451   3.623
40680W        W13006  18.385  39.772   9.913
40681W        W13007  18.670  17.561   1.685
40682W        W13008  35.872  30.013   1.568
40683W        W13009  21.543  26.167   2.591
40684W        W13010  42.796  11.301  13.891
40685W        W13011  44.181   6.764   1.221
40686W        W13012   5.220   6.897   1.427
40687W        W13013   9.958   7.200   0.908
40688W        W13014  17.609  17.359   3.228
40689W        W13015  11.518  15.297   3.047
40690W        W13016  42.828  42.273   2.770
40691W        W13017  10.797  37.348   0.257
40692W        W13018  18.668   5.816  10.752
40693W        W13019  36.908  33.344   0.698
40694W        W13020   8.700  36.579  13.936
40695W        W13021  38.870  23.501  14.276
40696W        W13022   6.348  41.325  13.324
40697W        W13023  24.768   5.579   4.206
40698W        W13024   4.636  38.617  12.854
40699W        W13025   3.275  29.779  11.604
40700W        W13026  29.295  44.963  11.009
40701W        W13027   9.812  27.725  14.438
40702W        W13028  18.254  36.903   1.393
40703W        W13029  44.310  27.952   0.405
40704W        W13030  14.421  18.515   4.031
40705W        W13031  37.941  36.831  12.877
40706W        W13032  37.564   1.430   4.925
40707W        W13033  17.668  26.625  14.959
40708W        W13034  13.237  33.464  13.417
40709W        W13035   7.202  10.074  12.366
40710W        W13036  26.883  38.693   1.423
40711W        W13037  18.583  24.301  12.500
40712W        W13038  23.258   5.253  13.459
40713W        W13039  40.818   3.220  13.519
40714W        W13040  26.611  39.390  13.392
40715W        W13041   5.491   7.373  11.352
40716W        W13042  27.473  33.789  12.387
40717W        W13043   5.670  16.626  11.076
40718W        W13044  12.060   1.409   0.315
40719W        W13045  35.302  14.560   3.718
40720W        W13046  28.678  31.714   3.302
40721W        W13047  44.224  38.010  13.345
40722W        W13048   1.677  26.733  12.939
40723W        W13049   4.128  17.306  11.614
40724W        W13050  37.476  10.562  10.187
40725W        W13051  30.545   3.895  13.044
40726W        W13052  37.928   1.745   3.322
40727W        W13053  34.145   1.807  14.407
40728W        W13054   3.761  22.031  11.088
40729W        W13055  23.900  34.432   1.875
40730W        W13056  39.944  14.981   0.475
40731W        W13057  29.465  42.145  11.638
40732W        W13058  23.545   5.719   2.723
40733W        W13059   4.667  28.961   2.846
40734W        W13060  32.486  23.435   1.728
40735W        W13061  36.912  33.534   1.694
40736W        W13062  30.091  22.024   3.406
40737W        W13063   2.565  35.057   4.712
40738W        W13064   0.877  12.895  14.299
40739W        W13065  40.910  37.017   4.102
40740W        W13066  13.636  37.546   1.841
40741W        W13067  21.028  22.727   4.662
40742W        W13068  36.795  12.320   2.907
40743W        W13069   9.849  32.147   1.218
40744W        W13070  23.706  25.152  12.589
40745W        W13071  43.260  33.384   2.371
40746W        W13072  22.743  21.090   4.607
40747W        W13073  43.517  26.669  11.111
40748W        W13074  16.243  15.990   4.333
40749W        W13075  43.238   4.733  14.834
40750W        W13076  12.308   1.333  14.846
40751W        W13077  29.836   3.238  11.969
40752W        W13078  10.383  15.340  12.877
40753W        W13079  38.005   0.917   1.207
40754W        W13080  11.263  31.963  13.982
40755W        W13081  13.129   1.472  11.150
40756W        W13082  27.187  29.054  14.354
40757W        W13083  40.538   7.782  13.480
40758W        W13084  12.114  14.816  12.086
40759W        W13085  39.877   2.805  10.465
40760W        W13086  37.922   9.659   2.232
40761W        W13087  31.255  38.058   2.506
40762W        W13088  21.715  35.132  13.280
40763W        W13089  41.467   7.119  11.656
40764W        W13090  14.869  34.457  14.342
40765W        W13091  22.792  16.637  11.102
40766W        W13092   2.718  11.341   3.241
40767W        W13093  36.260  44.985  14.698
40768W        W13094  11.947   1.512  14.416
40769W        W13095  15.281  44.342  11.567
40770W        W13096  33.629  15.705   3.836
40771W        W13097  36.450  35.922   3.326
40772W        W13098  10.412  35.017  12.802
40773W        W13099  40.882  15.872  10.179
40774W        W13100  21.475  38.275  10.673
40775W        W13101  33.412   1.727  11.167
40776W        W13102   5.754  16.614   2.780
40777W        W13103  37.825  11.311   2.587
40778W        W13104  42.562  24.729   3.379
40779W        W13105  35.439  37.154   3.708
40780W        W13106   2.480  22.756  13.578
40781W        W13107  16.343   9.301   0.923
40782W        W13108  39.063  21.142   4.673
40783W        W13109  26.450   1.384  10.706
40784W        W13110  17.227   9.134  14.908
40785W        W13111  34.469  42.804   1.152
40786W        W13112  16.569   7.176  11.153
40787W        W13113  28.636  25.788   3.657
40788W        W13114  27.018   2.571  13.068
40789W        W13115   6.341  17.141  13.011
40790W        W13116  37.308  16.601  13.870
40791W        W13117   6.230  23.501  14.067
40792W        W13118  14.372  37.892   2.649
40793W        W13119  29.436  13.245   3.631
40794W        W13120  41.572  11.253   3.635
40795W        W13121  36.992  21.284   0.279
40796W        W13122   9.252  14.569   4.691
40797W        W13123  10.589  36.873   3.148
40798W        W13124  22.836  10.861   1.380
40799W        W13125   8.273  36.344   0.516
40800W        W13126  23.779  22.231  14.419
40801W        W13127  16.527  25.024   3.023
40802W        W13128   3.665   9.397   9.501
40803W        W13129  24.530  24.113  12.826
40804W        W13130  29.430  22.051  13.910
40805W        W13131  44.400  34.027  13.844
40806W        W13132  15.773   0.857  10.991
40807W        W13133  20.513   2.941   3.811
40808W        W13134   5.763  11.139   2.830
40809W        W13135  36.235  23.239   4.376
40810W        W13136  21.311  39.537  13.234
40811W        W13137  19.749  35.160  12.567
40812W        W13138   2.980  36.156  13.111
40813W        W13139  40.665  29.090  13.958
40814W        W13140  22.310   9.426   3.911
40815W        W13141   9.351  37.574  14.548
40816W        W13142   5.430  40.316   2.707
40817W        W13143   9.349  25.451  12.214
40818W        W13144   0.979  30.641   3.545
40819W        W13145  36.021  43.373   2.836
40820W        W13146  41.891   4.329  14.268
40821W        W13147  20.636  14.598  13.898
40822W        W13148  37.115  32.457  11.063
40823W        W13149  15.193  30.641   1.408
40824W        W13150  33.656  11.559   0.819
40825W        W13151  30.145  31.914   4.647
40826W        W13152  31.874  42.334   2.822
40827W        W13153  16.483   8.306  11.991
40828W        W13154   6.392   4.231  11.661
40829W        W13155  23.607  20.520   3.747
40830W        W13156  37.106  19.900  12.065
40831W        W13157   6.907  16.582   2.223
40832W        W13158  30.090  22.755  12.417
40833W        W13159   3.918  15.811  11.535
40834W        W13160  12.747   4.753  10.620
40835W        W13161   7.358  28.719  10.815
40836W        W13162  41.298  37.946  11.519
40837W        W13163  40.094  29.553   0.413
40838W        W13164  35.009  10.005  11.979
40839W        W13165  25.887  36.044   2.279
40840W        W13166  11.073  37.503   4.588
40841W        W13167  41.931  16.756   2.789
40842W        W13168  34.107  42.937  12.557
40843W        W13169  27.480  26.460  13.782
40844W        W13170  40.951  39.599   0.823
40845W        W13171  37.150   7.885   3.317
40846W        W13172  41.891  27.979  10.345
40847W        W13173   0.207  41.289  14.872
40848W        W13174  26.523  26.582  12.099
40849W        W13175  43.280  24.295  13.313
40850W        W13176  31.498  29.573  14.352
40851W        W13177  25.966   4.754  14.484
40852W        W13178  32.369   9.798  13.029
40853W        W13179  25.474  11.305   4.671
40854W        W13180  23.643  17.771   9.934
40855W        W13181   0.813  11.464  11.116
40856W        W13182   3.855   6.418  11.124
40857W        W13183  11.585  20.354  13.046
40858W        W13184  44.756  15.779   3.946
40859W        W13185  13.171  39.984   4.938
40860W        W13186   5.519  14.755   4.766
40861W        W13187  39.477  20.044   0.794
40862W        W13188  32.971  17.635   1.066
40863W        W13189  21.040   9.676   2.011
40864W        W13190  21.985  36.281  12.510
40865W        W13191  17.302  40.754   1.694
40866W        W13192   9.304  36.046   4.573
40867W        W13193  41.794   7.267  14.481
40868W        W13194  10.599  24.253  14.951
40869W        W13195  26.035  10.798   3.084
40870W        W13196  23.562  33.914   0.958
40871W        W13197  19.676  38.964  12.426
40872W        W13198  35.355   5.323  14.333
40873W        W13199  19.585  22.122  12.323
40874W        W13200  18.272  28.286   1.283
40875W        W13201   4.231  43.850   0.536
40876W        W13202  42.741  20.553  12.516
40877W        W13203   8.180   5.838  14.952
40878W        W13204  23.756   6.967  14.018
40879W        W13205   2.132  16.786  10.540
40880W        W13206  20.309  28.082  12.183
40881W        W13207  26.450  42.151  14.913
40882W        W13208  37.069  14.684  11.485
40883W        W13209  18.521  11.407  13.809
40884W        W13210   8.246  31.686  13.885
40885W        W13211  16.211  40.307  11.439
40886W        W13212  25.727  24.829   4.126
40887W        W13213   7.868  36.974  10.667
40888W        W13214   3.958  16.863   4.252
40889W        W13215  11.271  36.870   0.255
40890W        W13216   6.381  15.767   0.747
40891W        W13217  41.756  23.137  14.808
40892W        W13218  25.979  30.909  10.803
40893W        W13219  43.909  44.240   2.777
40894W        W13220  26.525   5.954   2.926
40895W        W13221  15.645  23.680  14.253
40896W        W13222   7.328  22.089  10.536
40897W        W13223   7.621   3.996   3.619
40898W        W13224  40.951  10.117  11.921
40899W        W13225   1.146   3.906  13.086
40900W        W13226  28.270  28.697  11.552
40901W        W13227  33.532  13.329  13.623
40902W        W13228  36.463   6.249   1.231
40903W        W13229  44.159  10.786   1.365
40904W        W13230  23.703  10.266  12.917
40905W        W13231  36.292   5.809   1.455
40906W        W13232  22.485  30.960  14.873
40907W        W13233  30.074  43.976   3.930
40908W        W13234  14.770  40.245   4.197
40909W        W13235  15.653  34.084   5.045
40910W        W13236   4.197  24.971  14.870
40911W        W13237  10.842  29.736  10.704
40912W        W13238   3.234  32.194  14.444
40913W        W13239  22.071  11.630  13.043
40914W        W13240   4.419  25.584  12.902
40915W        W13241  17.289  31.580   2.595
40916W        W13242  23.849  13.733   3.399
40917W        W13243  41.281   2.292   1.911
40918W        W13244  34.214  30.567   3.542
40919W        W13245  17.362   4.803  14.674
40920W        W13246  13.196  27.544   1.973
40921W        W13247  28.660  11.664  11.246
40922W        W13248  10.751  21.067  12.683
40923W        W13249  43.093  34.851   5.123
40924W        W13250  34.634  21.483   4.861
40925W        W13251   8.177  25.652  13.226
40926W        W13252   4.485  24.528  13.982
40927W        W13253  43.938  29.475   3.596
40928W        W13254  22.189   4.663  14.927
40929W        W13255   4.733  26.659  12.519
40930W        W13256  32.442  25.926   4.192
40931W        W13257   5.233  36.105   3.217
40932W        W13258  24.456  12.268   3.828
40933W        W13259  26.178  34.546  10.521
40934W        W13260  29.501  11.968   2.762
40935W        W13261  44.147   6.271  12.514
40936W        W13262  41.809  27.737  12.026
40937W        W13263  38.496   7.868  11.425
40938W        W13264  39.832  12.156   4.535
40939W        W13265  20.701  29.556  10.824
40940W        W13266  40.296  34.695  11.691
40941W        W13267   0.746  12.787  12.795
40942W        W13268  37.692  31.637   0.361
40943W        W13269  12.150  43.047   2.763
40944W        W13270  43.062  33.841   1.186
40945W        W13271  38.564  15.295  12.379
40946W        W13272  34.046  31.579  11.464
40947W        W13273   1.147   5.480  12.437
40948W        W13274  29.953  16.093   2.211
40949W        W13275  40.774  27.399   1.498
40950W        W13276  21.211  25.235  13.648
40951W        W13277   3.234   2.266   1.784
40952W        W13278  42.427  19.919   3.104
40953W        W13279  20.680  37.764   3.310
40954W        W13280   6.658   6.766   1.675
40955W        W13281  20.141  18.768   3.572
40956W        W13282  40.571  23.650   1.845
40957W        W13283  16.034  21.804  12.225
40958W        W13284  33.911  44.725  13.871
40959W        W13285  18.861  16.109  13.552
40960W        W13286  11.949  13.591  11.051
40961W        W13287  25.177  29.142   3.412
40962W        W13288  32.955  39.917  13.447
40963W        W13289  23.118  29.922  13.973
40964W        W13290  36.118  34.556  12.768
40965W        W13291  17.767  44.765  12.984
40966W        W13292  25.058   8.261   0.487
40967W        W13293   3.364  22.189  13.781
40968W        W13294   3.815  28.912   3.595
40969W        W13295  41.961  37.304  14.336
40970W        W13296  27.439  42.288  11.500
40971W        W13297  12.106  24.435   4.329
40972W        W13298  41.995  21.152   0.387
40973W        W13299   6.421  29.155  11.196
40974W        W13300  39.771  40.221   4.512
40975W        W13301  21.738  19.756  11.088
40976W        W13302   3.714   4.735  10.562
40977W        W13303  14.104  33.070   0.795
40978W        W13304   9.282  38.498   4.601
40979W        W13305  29.096  38.122  13.418
40980W        W13306  40.421  25.252  12.166
40981W        W13307  26.586  11.956  12.343
40982W        W13308   5.358   3.667  13.054
40983W        W13309  22.516  34.518  14.437
40984W        W13310  44.867  22.755  14.109
40985W        W13311  18.658  11.018  11.312
40986W        W13312  27.682  36.771  12.835
40987W        W13313   3.074  14.541  11.120
40988W        W13314  41.593  23.423   1.902
40989W        W13315  12.976  38.867   2.969
40990W        W13316   2.797   1.880  11.226
40991W        W13317  12.066  35.815   5.156
40992W        W13318  25.188  30.528  10.279
40993W        W13319  33.145   3.934  12.004
40994W        W13320  43.452  12.809   4.143
40995W        W13321   3.768  18.381   4.149
40996W        W13322  44.376  33.067  13.292
40997W        W13323  41.349  43.800   4.135
40998W        W13324  29.931  26.936   3.427
40999W        W13325  23.135   5.395   1.389
41000W        W13326  29.496  27.618   2.412
41001W        W13327   7.332  44.035   1.177
41002W        W13328   5.641  35.782  12.425
41003W        W13329   0.799  24.524   1.542
41004W        W13330  17.322  38.365  11.443
41005W        W13331   9.838  42.383  13.430
41006W        W13332  30.287  33.453  11.906
41007W        W13333   6.702   5.399   0.389
41008W        W13334   8.412   6.457   0.738
41009W        W13335  17.594   8.706  12.864
41010W        W13336  34.885   2.975  12.158
41011W        W13337   8.793   3.974  11.864
41012W        W13338  27.044  42.411   2.284
41013W        W13339  14.247  33.236  11.080
41014W        W13340  21.312  37.817   1.361
41015W        W13341  32.535  36.343  11.634
41016W        W13342  15.212   1.287  12.396
41017W        W13343  15.469  34.698  11.900
41018W        W13344  15.080  33.894   3.842
41019W        W13345  17.373  44.519  10.734
41020W        W13346  35.584  38.022  12.587
41021W        W13347  27.894   2.328   1.353
41022W        W13348  15.992  13.128  14.945
41023W        W13349  23.242  24.346  12.529
41024W        W13350  18.631  34.895  14.924
41025W        W13351  13.923  30.390   0.853
41026W        W13352  32.631  18.885   1.430
41027W        W13353   7.139  39.578   0.524
41028W        W13354  12.370   7.705  14.565
41029W        W13355   5.955  13.219   3.261
41030W        W13356  24.646   3.498   0.483
41031W        W13357  29.181  18.689  12.490
41032W        W13358  40.061  22.523   3.057
41033W        W13359  26.950  10.531   2.606
41034W        W13360  29.175  31.046   3.817
41035W        W13361   6.165  34.665  12.604
41036W        W13362  10.258  26.899  12.495
41037W        W13363  41.301  29.658   1.447
41038W        W13364  42.057  13.658  11.998
41039W        W13365  16.169   6.500   1.384
41040W        W13366  42.927  39.820   0.742
41041W        W13367  21.002   3.308   2.195
41042W        W13368  26.737  34.690  13.969
41043W        W13369  34.604  20.336  12.018
41044W        W13370   5.144  32.446  11.222
41045W        W13371  24.399  10.803   0.539
41046W        W13372   6.451  17.754   3.213
41047W        W13373  30.701  33.127   0.015
41048W        W13374  18.809  34.845   4.818
41049W        W13375  25.870  19.885   1.245
41050W        W13376  37.485  41.438  13.415
41051W        W13377   5.301  26.195  14.892
41052W        W13378  35.055  13.118   4.642
41053W        W13379  23.597  38.954   4.782
41054W        W13380  23.164  26.116   3.314
41055W        W13381  32.137  29.509   2.689
41056W        W13382  17.491  13.277  11.909
41057W        W13383  31.158  44.396   2.916
41058W        W13384  11.076  26.462  14.314
41059W        W13385   9.265   9.547   4.646
41060W        W13386   4.911  26.659   0.622
41061W        W13387   2.287   9.401   2.828
41062W        W13388  27.004   8.698  13.922
41063W        W13389  38.419  15.322  14.003
41064W        W13390  31.589  21.469   0.441
41065W        W13391   5.428  11.398   0.834
41066W        W13392  19.872  23.387  13.597
41067W        W13393  21.939  20.027   2.890
41068W        W13394   3.478  19.500   0.688
41069W        W13395   0.392  27.558  10.727
41070W        W13396  11.151  32.209   5.022
41071W        W13397  16.577  17.827   1.918
41072W        W13398  37.990   8.267   0.696
41073W        W13399  37.167  34.130  12.077
41074W        W13400  43.988   7.911  14.828
41075W        W13401  32.512  16.660   0.915
41076W        W13402  10.254  17.686  14.557
41077W        W13403  28.783  21.693   3.078
41078W        W13404  40.302  21.442   3.777
41079W        W13405   5.746   3.629   0.881
41080W        W13406   9.252  25.216   3.108
41081W        W13407  37.660  31.443  12.907
41082W        W13408   7.906  14.554   4.599
41083W        W13409  40.403  19.251   1.477
41084W        W13410   1.461  39.303   0.849
41085W        W13411   8.942  42.982   1.299
41086W        W13412  22.038  40.004  10.668
41087W        W13413  24.921  27.386  12.485
41088W        W13414  39.574  42.483  14.540
41089W        W13415  21.122  37.511   3.377
41090W        W13416  28.479  28.800  11.074
41091W        W13417  38.440  44.994   2.838
41092W        W13418  13.633  10.878   1.469
41093W        W13419  10.778   8.426   1.794
41094W        W13420  33.503  38.063  13.855
41095W        W13421  33.027  15.100  14.025
41096W        W13422  23.805  14.670  13.022
41097W        W13423  10.113  35.946  13.377
41098W        W13424  25.211  41.916   2.369
41099W        W13425  24.504   1.265  11.675
41100W        W13426  19.270   7.611  12.184
41101W        W13427  23.879  32.728   0.624
41102W        W13428  43.910  44.770  11.716
41103W        W13429  27.558  18.581  13.403
41104W        W13430   5.893  17.074   1.882
41105W        W13431  32.010  31.099   2.322
41106W        W13432  21.444  42.355  14.396
41107W        W13433  31.927   8.674   2.777
41108W        W13434   9.907   1.011  14.493
41109W        W13435  19.089  35.311   0.342
41110W        W13436  18.663  35.347   1.625
41111W        W13437  43.515  13.752   1.960
41112W        W13438  20.685  20.355   4.148
41113W        W13439  39.386  23.472   1.794
41114W        W13440  28.127  19.505   4.243
41115W        W13441  12.661  42.385  13.912
41116W        W13442  43.585  19.212  13.000
41117W        W13443  20.654   7.289   3.721
41118W        W13444  28.669  31.704   3.814
41119W        W13445  17.144  39.374   4.677
41120W        W13446  11.793  27.038   0.230
41121W        W13447  11.046  22.172  13.387
41122W        W13448  40.384  21.598   0.472
41123W        W13449  22.026  17.875   0.272
41124W        W13450   5.124  11.823   0.780
41125W        W13451  15.117   9.333  12.176
41126W        W13452  28.430  28.127   4.586
41127W        W13453  10.700  35.408  11.074
41128W        W13454  42.033  31.842  13.421
41129W        W13455  10.148   5.172   2.760
41130W        W13456  24.467   2.870   4.679
41131W        W13457  36.542  12.762  13.129
41132W        W13458  29.156  16.992   4.626
41133W        W13459   0.376  15.361  12.016
41134W        W13460  13.567  13.481   1.703
41135W        W13461  42.604  39.563  14.215
41136W        W13462  25.674   4.968   2.815
41137W        W13463  17.151   3.734   4.672
41138W        W13464  18.137  17.824   2.990
41139W        W13465   8.902  39.813   4.396
41140W        W13466   8.353  16.224   2.801
41141W        W13467  29.696  31.277  10.479
41142W        W13468   6.069  28.186  12.746
41143W        W13469  40.750  11.277  12.552
41144W        W13470   3.796  27.620   1.829
41145W        W13471  23.611  16.690  12.466
41146W        W13472  32.528   8.481   3.791
41147W        W13473  35.116  38.602   3.786
41148W        W13474  30.422  11.456  12.058
41149W        W13475   3.615  21.257  10.550
41150W        W13476  23.409   1.456   0.734
41151W        W13477  27.463  25.990   2.827
41152W        W13478   1.246  39.578   1.894
41153W        W13479   5.617  37.448   3.608
41154W        W13480  31.864  28.173   4.185
41155W        W13481  27.193  23.882   4.556
41156W        W13482   8.466  36.509   1.473
41157W        W13483  13.188  10.718  13.065
41158W        W13484   9.358  12.706  14.286
41159W        W13485  14.722  20.514  10.552
41160W        W13486  31.050   4.915  13.809
41161W        W13487  16.719   3.545   2.146
41162W        W13488  38.710  11.402   5.056
41163W        W13489  26.206   8.467  13.444
41164W        W13490  37.546  25.252  11.381
41165W        W13491   9.903  43.262   1.363
41166W        W13492  12.149  37.881  11.333
41167W        W13493  38.849  38.499  13.027
41168W        W13494   2.353  32.388   4.198
41169W        W13495  24.648  44.495   0.885
41170W        W13496  35.019  19.112   4.373
41171W        W13497  13.969  32.466   1.890
41172W        W13498  31.521   5.252  12.703
41173W        W13499  22.336   9.417  14.025
41174W        W13500   4.255   4.751   4.149
41175W        W13501  42.922  20.509  10.736
41176W        W13502  43.559  20.998  14.394
41177W        W13503  36.426  28.360   1.792
41178W        W13504  39.923  32.503   0.393
41179W        W13505  33.274  22.042   0.354
41180W        W13506  24.432  39.764   1.438
41181W        W13507  13.862  43.883  13.115
41182W        W13508   9.259  37.152  12.951
41183W        W13509  43.455   6.240  13.131
41184W        W13510   4.338  42.259   4.151
41185W        W13511  31.603   4.865  13.029
41186W        W13512  36.588  28.674   1.391
41187W        W13513  22.035  15.509  13.071
41188W        W13514   8.170  32.540   3.128
41189W        W13515  40.163   2.513  13.357
41190W        W13516  41.201  10.966  12.095
41191W        W13517  34.659  37.237   4.206
41192W        W13518   4.767  36.498   4.738
41193W        W13519  30.690   0.974   2.210
41194W        W13520  31.229  42.220  13.926
41195W        W13521  35.161  26.030  14.504
41196W        W13522  36.461  39.272  13.452
41197W        W13523  32.505  39.770  12.341
41198W        W13524  27.816  42.802  10.722
41199W        W13525  40.902  26.712  10.725
41200W        W13526   5.481  38.396   0.260
41201W        W13527  26.047  22.979  10.615
41202W        W13528   6.392  32.514  14.949
41203W        W13529  34.526   5.883   4.775
41204W        W13530  16.257   6.598   4.487
41205W        W13531  36.669  11.854  11.657
41206W        W13532   3.799  24.602   1.800
41207W        W13533   1.114   3.940  11.923
41208W        W13534  43.254  35.366  12.535
41209W        W13535  20.684   4.976   4.558
41210W        W13536  13.640   2.359  14.037
41211W        W13537  20.819  24.972   1.205
41212W        W13538  21.242   0.805  13.486
41213W        W13539  16.654  11.590  10.628
41214W        W13540   5.442  39.985   4.214
41215W        W13541  38.489  18.765  14.560
41216W        W13542  21.029   3.984  11.552
41217W        W13543   3.908  13.752   2.705
41218W        W13544  31.887  11.969   1.783
41219W        W13545  28.658  22.247  11.441
41220W        W13546  13.353   7.053   5.027
41221W        W13547  15.948  40.433  13.288
41222W        W13548  20.673   3.229   2.877
41223W        W13549  14.631  34.993   5.345
41224W        W13550  34.084  18.033  10.637
41225W        W13551  27.818  14.779  14.517
41226W        W13552   8.193  43.430   2.727
41227W        W13553  41.481  20.544  13.925
41228W        W13554  16.535  28.888   0.797
41229W        W13555   2.072  36.018   2.784
41230W        W13556  27.982  36.535   1.759
41231W        W13557   4.002  39.834   1.217
41232W        W13558  10.661  41.316   4.104
41233W        W13559  34.102  11.316   3.112
41234W        W13560  39.334   3.442   3.419
41235W        W13561  34.564   3.449  11.641
41236W        W13562   7.509  44.115  11.643
41237W        W13563  14.344  43.408   0.283
41238W        W13564  17.630  11.584   0.385
41239W        W13565  29.070  21.245   3.032
41240W        W13566  39.825   3.964  11.922
41241W        W13567  37.070  35.317  11.612
41242W        W13568  42.466  23.566   4.589
41243W        W13569  36.297   4.189  10.580
41244W        W13570  16.092  15.788   0.464
41245W        W13571  39.871  44.955  11.161
41246W        W13572   6.924   1.862  13.272
41247W        W13573  39.047  30.698   4.217
41248W        W13574  41.550   1.028  11.530
41249W        W13575  33.661  29.767   1.657
41250W        W13576  31.026   6.401   3.262
41251W        W13577   3.734  44.346   4.652
41252W        W13578  31.062  30.350   4.102
41253W        W13579  29.949  26.275   4.630
41254W        W13580  31.164  33.698   4.757
41255W        W13581  34.400  17.006  11.436
41256W        W13582  21.184  20.032  12.811
41257W        W13583  38.231  28.470   0.503
41258W        W13584  34.001  41.735  10.560
41259W        W13585   5.975  12.358  13.026
41260W        W13586  20.248  15.391  12.853
41261W        W13587  19.399  12.577  13.475
41262W        W13588  35.611  39.153   2.793
41263W        W13589  14.942  17.626   4.316
41264W        W13590   3.289  10.309  12.896
41265W        W13591   1.865   4.485  10.651
41266W        W13592  42.473  11.396   3.615
41267W        W13593  24.378   7.200  13.108
41268W        W13594   4.714  15.279  12.337
41269W        W13595  24.836  43.200   3.151
41270W        W13596  42.036   9.807  13.437
41271W        W13597  44.973  22.099  10.604
41272W        W13598   5.391   2.472  14.812
41273W        W13599   1.025  10.184   1.724
41274W        W13600  35.854  28.762  14.010
41275W        W13601  40.467  32.510   1.649
41276W        W13602  23.672  20.504  11.632
41277W        W13603  28.149  25.493  10.135
41278W        W13604  26.120  37.398   2.405
41279W        W13605  32.203   4.463   0.962
41280W        W13606  40.507  34.675  13.157
41281W        W13607  41.549  22.651   5.164
41282W        W13608  13.009  31.201  10.575
41283W        W13609   6.993  12.266  11.162
41284W        W13610   1.700  11.283   1.540
41285W        W13611  14.487  28.988  13.344
41286W        W13612  25.794   7.143  11.929
41287W        W13613  19.568  37.508  11.471
41288W        W13614  33.043  12.884   1.902
41289W        W13615  34.111  33.902  12.502
41290W        W13616  30.663  42.931   4.014
41291W        W13617  22.211  12.614  12.576
41292W        W13618  38.958  13.228   2.290
41293W        W13619  44.256  22.926  13.449
41294W        W13620   7.140   3.560  10.178
41295W        W13621  41.031  18.754  13.062
41296W        W13622  31.266  29.293   1.214
41297W        W13623  41.967  23.002   4.086
41298W        W13624  28.580  29.781  13.573
41299W        W13625  43.160  36.130  10.675
41300W        W13626  38.192  40.890   0.462
41301W        W13627  35.028  36.052   1.106
41302W        W13628  27.662  22.177  11.411
41303W        W13629  25.967  19.701  13.893
41304W        W13630  18.237   6.738  14.379
41305W        W13631  11.160  40.487   1.105
41306W        W13632   4.805  26.018  11.435
41307W        W13633   7.903  36.944  14.730
41308W        W13634  40.437  31.086  12.011
41309W        W13635  34.356  21.178   2.667
41310W        W13636  19.738  36.594   1.311
41311W        W13637  17.230  23.741   3.388
41312W        W13638   9.990  31.583   4.177
41313W        W13639  43.417  31.659   4.696
41314W        W13640  36.845  39.549  11.398
41315W        W13641  36.019   2.348  13.897
41316W        W13642   6.218  31.134   3.742
41317W        W13643  30.607  39.917  11.200
41318W        W13644  33.405  26.554  11.579
41319W        W13645   9.304   4.031   1.370
41320W        W13646  30.385  20.549   4.239
41321W        W13647   8.749  16.102   0.300
41322W        W13648  38.702  21.712  11.068
41323W        W13649  31.282  32.145  14.762
41324W        W13650  31.917   6.919   4.108
41325W        W13651  17.298  38.932   2.259
41326W        W13652   4.097   0.705   3.473
41327W        W13653  35.090   0.434   4.452
41328W        W13654  20.985  23.502  12.882
41329W        W13655  36.866  40.527   2.439
41330W        W13656  41.020  39.958   4.906
41331W        W13657   6.447  18.863  14.819
41332W        W13658   9.882  19.753   4.412
41333W        W13659  37.563  12.691  12.952
41334W        W13660  16.545  29.131  10.773
41335W        W13661   7.220  10.182   4.725
41336W        W13662  27.358  39.480   1.619
41337W        W13663  33.597  14.204  13.454
41338W        W13664  35.405  43.363   4.169
41339W        W13665  29.918  12.091   4.613
41340W        W13666  38.016  12.355   9.932
41341W        W13667  36.099  24.571   0.341
41342W        W13668  31.107  35.627  11.239
41343W        W13669  33.615  24.102   4.539
41344W        W13670  22.760   6.453   2.234
41345W        W13671   2.847   0.267   4.066
41346W        W13672   3.708  19.289   2.372
41347W        W13673  30.682  19.686   4.028
41348W        W13674  18.499   6.667   3.197
41349W        W13675  23.524   2.375  10.701
41350W        W13676  43.454  13.102   0.431
41351W        W13677  44.232  42.495   2.212
41352W        W13678  18.636  28.015  10.432
41353W        W13679   5.438  37.006   3.834
41354W        W13680  42.323  19.958   2.224
41355W        W13681   6.360  15.587   4.158
41356W        W13682  36.511   0.066   4.762
41357W        W13683  11.210  24.671  13.107
41358W        W13684  44.969   9.712   4.157
41359W        W13685  10.098   4.960   0.923
41360W        W13686   6.194  36.192  13.873
41361W        W13687  42.738  28.622   1.147
41362W        W13688  25.415  10.774  13.295
41363W        W13689  27.414  38.951  11.970
41364W        W13690   6.706  30.344   4.777
41365W        W13691  17.402   6.398   2.853
41366W        W13692   5.165  38.353  10.663
41367W        W13693   0.734  29.543   4.640
41368W        W13694  28.398  16.833   1.951
41369W        W13695  20.530  18.000  13.368
41370W        W13696  22.973   1.766   1.464
41371W        W13697   3.715   7.693  14.019
41372W        W13698  19.576  12.410   4.338
41373W        W13699  35.140  31.025  11.953
41374W        W13700  11.163  23.021  14.487
41375W        W13701   3.871  24.685   3.250
41376W        W13702   6.784  38.348  14.482
41377W        W13703  21.842  40.807  10.981
41378W        W13704   7.943   5.456  13.514
41379W        W13705  41.390  38.990   3.707
41380W        W13706   9.977  32.506   3.760
41381W        W13707  39.962  26.196   2.628
41382W        W13708  23.798  27.124   2.446
41383W        W13709  19.332  41.440  11.623
41384W        W13710  28.089  24.950  10.131
41385W        W13711  30.835  43.062   1.311
41386W        W13712  21.151   1.288   1.460
41387W        W13713  38.479  44.782   0.639
41388W        W13714   5.293  44.177   4.759
41389W        W13715  18.142  44.420   2.775
41390W        W13716   8.385  31.068   3.183
41391W        W13717   6.305  39.335  13.696
41392W        W13718   8.698   5.396   1.837
41393W        W13719  33.061  27.990  13.010
41394W        W13720  17.332  40.053  11.929
41395W        W13721  26.519  17.261   2.394
41396W        W13722  44.694  36.533   0.867
41397W        W13723  12.384   0.921   4.838
41398W        W13724  30.028  20.703   2.232
41399W        W13725  17.017  27.079  12.333
41400W        W13726  29.405  33.103   1.962
41401W        W13727  29.575  21.588  14.083
41402W        W13728   6.076  42.851  13.947
41403W        W13729  31.137  21.303  12.535
41404W        W13730  23.166  10.838  12.335
41405W        W13731  36.510  27.672   1.409
41406W        W13732  14.783  31.460   1.932
41407W        W13733  42.024  18.247  12.059
41408W        W13734  29.171  35.399   4.161
41409W        W13735   2.599  42.575  13.770
41410W        W13736   0.261  20.896  14.951
41411W        W13737  21.642  14.380   2.283
41412W        W13738   5.130   7.245  12.262
41413W        W13739   2.746  30.277  12.162
41414W        W13740  24.655  37.498   1.206
41415W        W13741  21.497  42.285  11.807
41416W        W13742   5.866  35.453   1.776
41417W        W13743   6.349  35.832   1.196
41418W        W13744  42.314  39.076  10.690
41419W        W13745   7.158  21.925   0.811
41420W        W13746  22.661  19.229  11.060
41421W        W13747  11.235  40.312   2.118
41422W        W13748  40.037  19.231  14.841
41423W        W13749  24.586  39.877  12.093
41424W        W13750  44.695   4.538  11.204
41425W        W13751   6.181  22.087   2.824
41426W        W13752  21.537  22.053   2.282
41427W        W13753   9.647  25.973   2.792
41428W        W13754   8.377  42.510   1.176
41429W        W13755   4.277  33.682  12.040
41430W        W13756  44.598  28.737   1.918
41431W        W13757  30.939  43.535   2.132
41432W        W13758  37.747  36.872   3.665
41433W        W13759  14.384  33.800   4.632
41434W        W13760  30.100  10.341  11.330
41435W        W13761  40.517  21.764  11.602
41436W        W13762   3.487  11.398  13.915
41437W        W13763  38.311  28.472   3.721
41438W        W13764  39.526  13.191  14.900
41439W        W13765  35.215  41.711  13.062
41440W        W13766  31.842  38.289  11.181
41441W        W13767  30.730   5.438   0.342
41442W        W13768   6.926  18.821   0.040
41443W        W13769  28.987  11.919  14.021
41444W        W13770  35.308  38.270  11.085
41445W        W13771   8.707  27.535   2.931
41446W        W13772  21.852  18.714   3.615
41447W        W13773  38.400  25.728  14.011
41448W        W13774  35.129   5.607  10.760
41449W        W13775  43.525  29.875   1.325
41450W        W13776   7.442  11.674  10.651
41451W        W13777  27.434  21.585  10.589
41452W        W13778   8.412  10.579   1.003
41453W        W13779  14.616  34.054  14.013
41454W        W13780  34.682   3.388  13.758
41455W        W13781  44.619  23.671  14.922
41456W        W13782  30.460  38.037   0.384
41457W        W13783   1.815  33.886  14.500
41458W        W13784  26.585  23.559  14.096
41459W        W13785  26.487  31.363   2.336
41460W        W13786  34.660  13.630  11.604
41461W        W13787  29.121  25.526   3.825
41462W        W13788  33.579  41.169  12.091
41463W        W13789  34.058  33.691   3.253
41464W        W13790  20.357  21.594  13.206
41465W        W13791  20.585  32.710  12.896
41466W        W13792  29.438  15.401  10.559
41467W        W13793   2.984   6.305  11.162
41468W        W13794  11.543  17.287  14.468
41469W        W13795  18.417  20.772  12.005
41470W        W13796  41.802  20.667  14.571
41471W        W13797  13.201   3.374  13.051
41472W        W13798  38.865  44.740  12.566
41473W        W13799  23.663   5.239  10.512
41474W        W13800  42.843   8.290   1.187
41475W        W13801  35.865  20.780   1.373
41476W        W13802  28.232  43.436  14.252
41477W        W13803  26.928  36.552  14.690
41478W        W13804   2.942  10.744   2.668
41479W        W13805  24.550   4.849   1.015
41480W        W13806  11.066   9.896   0.782
41481W        W13807  25.221   9.099  10.998
41482W        W13808   5.181  17.671  10.094
41483W        W13809  30.905   5.607   3.775
41484W        W13810  22.754  33.384   4.136
41485W        W13811   8.715  23.079  11.173
41486W        W13812   1.421  36.107  13.505
41487W        W13813  44.537  28.710  12.398
41488W        W13814  11.210   8.894  12.978
41489W        W13815  34.777  14.426   1.256
41490W        W13816  30.055  10.229  12.044
41491W        W13817   5.109   0.776   0.859
41492W        W13818  13.701  11.788  13.396
41493W        W13819  38.306  38.445   0.596
41494W        W13820  32.489   8.957   3.611
41495W        W13821  25.893  41.420  12.335
41496W        W13822  44.374  39.843  10.653
41497W        W13823  25.566  29.638  10.330
41498W        W13824  10.998  12.455   0.269
41499W        W13825  34.582   1.315  11.667
41500W        W13826   3.738  17.213  13.319
41501W        W13827   6.426  20.129  11.966
41502W        W13828  11.318  28.895   3.120
41503W        W13829  21.830  19.756   3.341
41504W        W13830  28.564   1.639   4.676
41505W        W13831  12.839   4.473  13.500
41506W        W13832  15.827  18.788   1.346
41507W        W13833  22.673  19.308  13.050
41508W        W13834  31.666  14.278   0.899
41509W        W13835  19.764  33.940  12.707
41510W        W13836  30.135  33.385  13.786
41511W        W13837  24.209  12.228   2.314
41512W        W13838  18.419  17.260   1.312
41513W        W13839   7.395  32.470   3.608
41514W        W13840   3.524   8.341   2.692
41515W        W13841  21.704  34.846   0.814
41516W        W13842   1.725  42.472   3.866
41517W        W13843  21.583  33.500   4.640
41518W        W13844  20.598  17.540  12.652
41519W        W13845  15.926  33.011   0.439
41520W        W13846  11.359   1.194  11.641
41521W        W13847  12.897  30.017  12.358
41522W        W13848  23.260   0.301   0.390
41523W        W13849  33.412  43.359   4.077
41524W        W13850  21.649   3.502   3.310
41525W        W13851   8.225   8.304   2.264
41526W        W13852  25.781   4.368  14.804
41527W        W13853  43.719  16.303   3.534
41528W        W13854   8.670   1.087   4.074
41529W        W13855  38.208  25.244   5.177
41530W        W13856  30.488  33.436   1.301
41531W        W13857  40.453  10.199   4.378
41532W        W13858  21.047  36.926   2.878
41533W        W13859  10.778  29.117   4.447
41534W        W13860  22.471   4.519   0.334
41535W        W13861   7.263  39.085  12.383
41536W        W13862  17.349  18.130  11.603
41537W        W13863  36.128  37.802   0.229
41538W        W13864  36.368  43.246   1.638
41539W        W13865  34.168  18.544  12.438
41540W        W13866  23.955   1.759   1.230
41541W        W13867  27.997   8.598   1.852
41542W        W13868  43.187   3.511  11.930
41543W        W13869  28.287  26.828  12.401
41544W        W13870   2.397  17.586  11.924
41545W        W13871  28.264  29.693   5.048
41546W        W13872  17.273   1.750   0.021
41547W        W13873  10.167  16.544  13.003
41548W        W13874  21.670   9.796   3.156
41549W        W13875   4.172  15.286   2.755
41550W        W13876  19.203  44.212  13.501
41551W        W13877  44.504  17.233   4.554
41552W        W13878  30.146  36.616   3.392
41553W        W13879  35.014  39.140  13.010
41554W        W13880  19.504  34.947  11.723
41555W        W13881   0.974  13.392  14.404
41556W        W13882   0.371  26.330  12.003
41557W        W13883  36.649  15.640  11.059
41558W        W13884  36.253  25.473   2.468
41559W        W13885  17.538   2.525   0.992
41560W        W13886  30.089  10.227   4.561
41561W        W13887  18.008  32.026   0.460
41562W        W13888  14.403   6.406   1.978
41563W        W13889  44.945  26.574   1.134
41564W        W13890   1.000   9.821   2.483
41565W        W13891  32.090  19.521   1.898
41566W        W13892  43.519  25.172   0.853
41567W        W13893  17.982   8.654   2.780
41568W        W13894  42.927  11.480  12.513
41569W        W13895   9.891   8.978  10.297
41570W        W13896   6.220  13.663   4.558
41571W        W13897  33.974  40.043  14.351
41572W        W13898  29.061  26.993   2.475
41573W        W13899  16.283  35.556  14.946
41574W        W13900  19.616  34.346   0.931
41575W        W13901  11.757  24.146   1.546
41576W        W13902   5.885  26.671  11.045
41577W        W13903  25.248  36.493  12.125
41578W        W13904  16.605  30.106   3.335
41579W        W13905   1.317  10.889  12.607
41580W        W13906  40.922  21.019  11.403
41581W        W13907  30.188   3.868   1.831
41582W        W13908  22.044  19.335  14.297
41583W        W13909  26.509   8.257   4.586
41584W        W13910  28.244  18.550  14.154
41585W        W13911  30.954   8.855   2.781
41586W        W13912  30.018  36.314  12.952
41587W        W13913  18.115  39.335   0.972
41588W        W13914  24.700  30.579  10.532
41589W        W13915  30.599   5.007  12.912
41590W        W13916  38.883  27.435  10.660
41591W        W13917   5.510   8.861  14.064
41592W        W13918  37.340  38.558  10.304
41593W        W13919  11.141  33.109   0.819
41594W        W13920  24.449   8.322   1.390
41595W        W13921   7.111   0.428  11.210
41596W        W13922  32.346   6.318   2.766
41597W        W13923  13.753  30.546   3.296
41598W        W13924  43.033  23.132   2.479
41599W        W13925  37.437   8.143   5.180
41600W        W13926  31.448  17.811   2.781
41601W        W13927  16.769  43.412  13.455
41602W        W13928  17.794  25.641  14.312
41603W        W13929  17.552  42.953  13.275
41604W        W13930  33.068  25.173  10.681
41605W        W13931  27.949  23.451   2.361
41606W        W13932  17.796  33.927   2.757
41607W        W13933   2.637  31.014  13.783
41608W        W13934  25.165   4.349   4.818
41609W        W13935  44.426  35.580   1.392
41610W        W13936  34.566  43.709   2.656
41611W        W13937  38.338  28.195   4.247
41612W        W13938  21.868  26.264   0.731
41613W        W13939  29.056  15.233   0.266
41614W        W13940  29.615   5.290  13.237
41615W        W13941  14.336   5.295   4.251
41616W        W13942  12.427  29.559  12.598
41617W        W13943  28.189  23.103   4.326
41618W        W13944  14.601   2.325  14.025
41619W        W13945  31.165  27.294  14.088
41620W        W13946   3.897  44.853   1.888
41621W        W13947  28.984  22.530  13.362
41622W        W13948  15.124  24.668  10.738
41623W        W13949  16.839  28.605  13.594
41624W        W13950   7.496  37.798  13.187
41625W        W13951  25.121  22.834   2.330
41626W        W13952  17.161  35.336  11.210
41627W        W13953  26.037  26.527  11.523
41628W        W13954  41.036  34.691  14.409
41629W        W13955   2.675  42.371  12.358
41630W        W13956   3.909  18.589  14.819
41631W        W13957  39.047  33.777   1.223
41632W        W13958  37.692   5.290  11.861
41633W        W13959  27.102  28.899   1.375
41634W        W13960  30.405  43.243  13.554
41635W        W13961  19.693  32.484  12.867
41636W        W13962  32.960   6.437   2.139
41637W        W13963  36.026  38.086  14.805
41638W        W13964  44.063  26.060   3.713
41639W        W13965  10.796  41.823  14.315
41640W        W13966  34.610  12.661  13.483
41641W        W13967  43.717  44.731  14.961
41642W        W13968  21.498   8.579   2.342
41643W        W13969  10.818  10.143  14.730
41644W        W13970   5.236  13.638  14.303
41645W        W13971  10.388  25.649   0.458
41646W        W13972   7.566  40.031  11.115
41647W        W13973  37.439  40.054  12.372
41648W        W13974  16.007  39.102   2.727
41649W        W13975  33.560  32.084  11.589
41650W        W13976  29.984  38.539   1.837
41651W        W13977  20.332  21.353   1.460
41652W        W13978  19.537  15.682   1.361
41653W        W13979  18.173   5.097  14.024
41654W        W13980  34.257   3.375   4.223
41655W        W13981  14.199  15.135  14.074
41656W        W13982   3.335  27.677  11.454
41657W        W13983  23.450  40.052  14.096
41658W        W13984  41.516  20.307   3.175
41659W        W13985  17.007  24.258  12.235
41660W        W13986  20.106  21.555   1.026
41661W        W13987   5.207  37.517   1.708
41662W        W13988  37.876   8.764   2.820
41663W        W13989  30.936   1.434  10.713
41664W        W13990  37.908  16.965  11.154
41665W        W13991  18.399   0.426  14.682
41666W        W13992  33.417  19.315   0.413
41667W        W13993   2.856  13.756  11.097
41668W        W13994  22.609  23.326   4.693
41669W        W13995  35.282   2.782   2.865
41670W        W13996   1.219  17.118  12.195
41671W        W13997  17.800  39.795  11.043
41672W        W13998  30.279  34.922  11.155
41673W        W13999  37.598  24.999  14.384
41674W        W14000  10.387  12.725  11.181
41675W        W14001  38.576   5.778   2.078
41676W        W14002   7.396  20.273   3.385
41677W        W14003  20.766  41.812   0.311
41678W        W14004  33.165  28.658   1.858
41679W        W14005  28.163  12.771  11.779
41680W        W14006  30.979  28.393   1.641
41681W        W14007  32.998  10.134   3.580
41682W        W14008  27.203   2.284   3.421
41683W        W14009  43.517  15.284  12.838
41684W        W14010  43.493   3.123   2.118
41685W        W14011  23.895   2.365  14.276
41686W        W14012  12.544  34.488   4.578
41687W        W14013  34.419   3.897   1.447
41688W        W14014  22.741  18.314   0.015
41689W        W14015  41.441  28.415   3.145
41690W        W14016   6.628  44.803  14.047
41691W        W14017   4.758  33.208  12.469
41692W        W14018  38.754  30.724   1.495
41693W        W14019  28.315   9.121   2.678
41694W        W14020  28.925  23.720  14.001
41695W        W14021  27.458  12.329  13.417
41696W        W14022  25.565  10.673  13.769
41697W        W14023  42.971  41.456  13.154
41698W        W14024   1.610  38.740  13.023
41699W        W14025  15.306  27.484   3.910
41700W        W14026  32.511  27.712   1.897
41701W        W14027  42.815  21.792   3.224
41702W        W14028  38.378  28.803  11.014
41703W        W14029  42.072  15.677   3.675
41704W        W14030   0.597   3.818  10.940
41705W        W14031  12.862  37.349   1.222
41706W        W14032   2.552  36.210   2.739
41707W        W14033   0.307  43.276   3.178
41708W        W14034  41.609  35.969   3.255
41709W        W14035   5.171  40.209   1.730
41710W        W14036  27.871  43.727   2.152
41711W        W14037  38.033  13.936   1.592
41712W        W14038   2.317  26.020  12.746
41713W        W14039   2.459  14.813   3.565
41714W        W14040  24.894  38.730   9.694
41715W        W14041  13.852  18.631   0.473
41716W        W14042  14.462   9.148  12.468
41717W        W14043  24.279  38.081   4.137
41718W        W14044  34.926  27.082   3.096
41719W        W14045  35.345  22.987   0.237
41720W        W14046  13.944  25.688   2.904
41721W        W14047  21.937  27.581   4.137
41722W        W14048  23.525  10.168   4.703
41723W        W14049  12.714   1.874   2.739
41724W        W14050  12.743   7.389   2.441
41725W        W14051  30.826  19.343  11.077
41726W        W14052   1.796  23.393  13.390
41727W        W14053  21.061  42.204  13.092
41728W        W14054  33.811  32.959   3.666
41729W        W14055   6.980  17.253   0.209
41730W        W14056  37.350  23.031   3.119
41731W        W14057   1.085   4.303  12.667
41732W        W14058  17.207  16.755  10.675
41733W        W14059  34.351  30.462  12.700
41734W        W14060  17.985   8.879   3.859
41735W        W14061  21.187  40.026   4.431
41736W        W14062  29.376   1.504  14.013
41737W        W14063  11.259   3.979   3.240
41738W        W14064  44.407  40.338   1.907
41739W        W14065  43.900  42.191  12.446
41740W        W14066  36.049  36.774   1.196
41741W        W14067  30.451  42.940   2.663
41742W        W14068  11.448  39.520   1.279
41743W        W14069  14.574   1.399   3.602
41744W        W14070   6.361   9.812  14.429
41745W        W14071  13.855  21.625   3.324
41746W        W14072  35.727  23.700   1.394
41747W        W14073  38.883  37.400  10.544
41748W        W14074  34.910  40.965   5.309
41749W        W14075  39.492  35.688  10.523
41750W        W14076  42.029   7.885   3.584
41751W        W14077  23.255  15.188   0.707
41752W        W14078  10.627  12.711  13.507
41753W        W14079  36.335  10.718   3.835
41754W        W14080  33.349  14.590  11.136
41755W        W14081  28.203   3.355  14.528
41756W        W14082   9.932  39.763  11.495
41757W        W14083   6.865  42.275   2.087
41758W        W14084  17.120   1.434   1.751
41759W        W14085   5.003  38.194   4.229
41760W        W14086   8.786  26.591  10.654
41761W        W14087  43.842  17.083   1.317
41762W        W14088  27.269   2.797   3.330
41763W        W14089   8.844  20.262  11.659
41764W        W14090  19.610  10.780  11.915
41765W        W14091   2.173  34.782   4.483
41766W        W14092  22.193  40.440   5.082
41767W        W14093   0.483  10.769  14.476
41768W        W14094  15.345  42.063  13.999
41769W        W14095  44.272  21.496   2.789
41770W        W14096   8.382   3.293   0.124
41771W        W14097   8.718  44.446  14.359
41772W        W14098  18.672  29.572  14.229
41773W        W14099  44.926  11.083   2.196
41774W        W14100  13.590  19.690  12.581
41775W        W14101  19.697  44.409   2.824
41776W        W14102  24.182  35.599  12.980
41777W        W14103  24.329  38.762   2.296
41778W        W14104  27.237  16.809  12.587
41779W        W14105   4.996   9.288  13.012
41780W        W14106  16.837   9.346  12.470
41781W        W14107  20.057  36.977  11.190
41782W        W14108  36.006  40.529   4.209
41783W        W14109  16.072  23.194  12.389
41784W        W14110  23.038  38.361  13.588
41785W        W14111  33.720   2.009  10.311
41786W        W14112  24.158  24.543  14.961
41787W        W14113  24.004   6.340  10.831
41788W        W14114  28.542  42.131  13.448
41789W        W14115  22.201  42.128  12.545
41790W        W14116  26.121  13.176   4.455
41791W        W14117  15.097  13.556  11.941
41792W        W14118  16.289  40.346  14.840
41793W        W14119   0.782   0.674  14.023
41794W        W14120   6.232   5.243   3.154
41795W        W14121   5.861  13.596  13.734
41796W        W14122  44.835  21.131  14.688
41797W        W14123   6.711  22.549   1.476
41798W        W14124  43.658  14.342   0.470
41799W        W14125  31.379  42.208  12.852
41800W        W14126   4.695   1.335  13.576
41801W        W14127  18.878  24.230  14.360
41802W        W14128  15.275  17.337  14.370
41803W        W14129   4.430   3.545  12.483
41804W        W14130  44.245  16.504  12.289
41805W        W14131  29.855  14.516  10.683
41806W        W14132  37.970  44.336  14.224
41807W        W14133   9.847  28.226   4.766
41808W        W14134  31.859  26.668  12.485
41809W        W14135  20.982  33.912   2.308
41810W        W14136  21.712  36.801   4.498
41811W        W14137   0.307  37.221  13.332
41812W        W14138  42.907  22.885   1.009
41813W        W14139  42.109  10.222   3.769
41814W        W14140  34.850  34.933   3.686
41815W        W14141  29.518   7.786  12.049
41816W        W14142  30.538  10.045  11.979
41817W        W14143  26.701   0.481  12.449
41818W        W14144  19.635   9.918  12.472
41819W        W14145  11.574  14.363   2.461
41820W        W14146   5.667  19.051   4.684
41821W        W14147  34.956  16.052  12.913
41822W        W14148  35.551  24.759  11.877
41823W        W14149  31.869  22.590  13.849
41824W        W14150  38.819  43.765   4.656
41825W        W14151  21.966  33.155  11.044
41826W        W14152  38.796  22.549  11.591
41827W        W14153   9.459  35.849   2.666
41828W        W14154  18.196   7.058  12.114
41829W        W14155  18.014  37.034   0.889
41830W        W14156  14.582  14.092   0.871
41831W        W14157  32.096  20.824   0.164
41832W        W14158  41.287   9.219  12.343
41833W        W14159   1.493   9.237   1.434
41834W        W14160  27.301  14.822  14.479
41835W        W14161  28.160  19.808   1.319
41836W        W14162   8.832   7.978  13.315
41837W        W14163  16.589  16.756   1.176
41838W        W14164  19.827  37.692  11.873
41839W        W14165  30.492  43.727  10.525
41840W        W14166  17.740   5.779  12.263
41841W        W14167  33.555  24.646   2.130
41842W        W14168   7.256  19.470   3.731
41843W        W14169  12.139  27.952   2.194
41844W        W14170  36.400  29.604  10.228
41845W        W14171  20.727  11.856   3.102
41846W        W14172   9.720  24.737   0.375
41847W        W14173  31.311   9.879   0.774
41848W        W14174   1.487  37.395   2.416
41849W        W14175  10.856  31.400   2.554
41850W        W14176   4.145   5.395  13.102
41851W        W14177  35.331   5.653  11.213
41852W        W14178  14.532  38.426   4.101
41853W        W14179  14.579  37.044   1.646
41854W        W14180  40.020  32.875   1.777
41855W        W14181  28.938  16.460  11.132
41856W        W14182  43.339  20.012   1.903
41857W        W14183  44.777  25.621  12.093
41858W        W14184   9.439  32.522   3.782
41859W        W14185  39.114  27.137  11.029
41860W        W14186  31.710   9.349  13.373
41861W        W14187  18.598  37.870   0.649
41862W        W14188  35.082  18.559  13.008
41863W        W14189  17.666  31.604   3.148
41864W        W14190  19.297  13.364  12.555
41865W        W14191  14.633   9.861  12.424
41866W        W14192  32.562  26.204   3.759
41867W        W14193  41.418   8.057  11.936
41868W        W14194   3.809  30.970   1.022
41869W        W14195   5.735  39.265  12.796
41870W        W14196  36.497  23.208  13.395
41871W        W14197  43.976  25.604  13.529
41872W        W14198   1.373  42.704   0.236
41873W        W14199  34.099  21.599  14.680
41874W        W14200  28.413  15.275  14.024
41875W        W14201  19.586  16.726   0.328
41876W        W14202  22.616   0.705   4.813
41877W        W14203  13.109  21.045  14.460
41878W        W14204   0.915  42.850  12.569
41879W        W14205  25.445  43.710   0.715
41880W        W14206  31.694  42.258  11.110
41881W        W14207  26.405  15.780   5.624
41882W        W14208  22.677  16.099   1.873
41883W        W14209  18.497  26.786   4.492
41884W        W14210  12.379   1.902  13.717
41885W        W14211   1.360  24.578   4.908
41886W        W14212  44.818  17.800  14.216
41887W        W14213  33.208  18.235   5.016
41888W        W14214  17.291  43.788   3.617
41889W        W14215   3.329   3.729   1.810
41890W        W14216  35.449   4.681   0.730
41891W        W14217  31.950  11.032  10.009
41892W        W14218  13.351   3.869  14.434
41893W        W14219  43.505   1.895  13.414
41894W        W14220  18.333  16.181  14.451
41895W        W14221  21.508  22.862  11.390
41896W        W14222  26.722  12.527   0.469
41897W        W14223   3.920   3.310  14.839
41898W        W14224  39.375   9.528  13.561
41899W        W14225  10.300  19.541   0.492
41900W        W14226  39.106  37.389  11.019
41901W        W14227  11.740  20.974   0.968
41902W        W14228  37.519  19.314   1.679
41903W        W14229  18.523  35.284   2.524
41904W        W14230  14.976  25.837   3.409
41905W        W14231   3.259  38.956   0.458
41906W        W14232  17.306  31.126  13.823
41907W        W14233   3.694  44.873   1.295
41908W        W14234  16.761  13.977   4.587
41909W        W14235   0.876  31.342   2.750
41910W        W14236  21.111  35.315   1.368
41911W        W14237   4.962  20.534  11.476
41912W        W14238  21.174  11.819   1.868
41913W        W14239  10.348  14.418   2.660
41914W        W14240  35.640  12.004   5.015
41915W        W14241  11.373  29.483  10.798
41916W        W14242  44.462   5.490  12.539
41917W        W14243  36.039   3.197  14.474
41918W        W14244   5.939  25.549  10.765
41919W        W14245  31.203   7.401  12.762
41920W        W14246  22.759   8.214  13.574
41921W        W14247  42.724  39.355  11.535
41922W        W14248  39.767  44.287   3.661
41923W        W14249  25.161   3.341   0.503
41924W        W14250   2.985  18.825   0.195
41925W        W14251  21.078  33.824  11.416
41926W        W14252  16.829  32.892   3.678
41927W        W14253  39.590  39.097   0.428
41928W        W14254  18.086  37.563  12.413
41929W        W14255   2.435  31.674   1.685
41930W        W14256   6.801  42.896  11.609
41931W        W14257  19.410  26.450  12.491
41932W        W14258  35.569   0.181  12.568
41933W        W14259  30.476  34.992   3.960
41934W        W14260  34.784  34.519  13.073
41935W        W14261  38.826  42.616   3.373
41936W        W14262   4.123  42.873   0.915
41937W        W14263   2.996  16.659   1.731
41938W        W14264  43.209  23.246  11.388
41939W        W14265  18.302  22.452  11.459
41940W        W14266  10.351  15.891   2.783
41941W        W14267  17.263  12.197   0.892
41942W        W14268   7.186   6.328  12.072
41943W        W14269  19.720  32.976  10.555
41944W        W14270  25.200  30.206   1.703
41945W        W14271  16.197   1.249  14.854
41946W        W14272  12.198  34.917  10.120
41947W        W14273  18.823  17.210   9.924
41948W        W14274  10.866  28.912  13.005
41949W        W14275  15.273  20.738   4.812
41950W        W14276  11.905  32.192  13.978
41951W        W14277  24.996  31.358  14.809
41952W        W14278   2.833  29.355   0.732
41953W        W14279  26.114  43.780  11.222
41954W        W14280  44.507   0.328   4.104
41955W        W14281  19.022   8.286   1.495
41956W        W14282  18.807  43.358   1.667
41957W        W14283  31.113  38.332  11.496
41958W        W14284  44.955  27.155   4.386
41959W        W14285  11.204  25.624  13.992
41960W        W14286   8.365  25.936   2.435
41961W        W14287  42.319  28.949  13.500
41962W        W14288  34.000   6.003   4.376
41963W        W14289  17.558  14.058   1.255
41964W        W14290  28.653  33.431   3.374
41965W        W14291  11.912   3.140  11.976
41966W        W14292   8.332  43.469   0.742
41967W        W14293   8.124  17.215   3.232
41968W        W14294  24.104  34.930  14.825
41969W        W14295  37.184   9.820  13.056
41970W        W14296  13.521  38.581   1.764
41971W        W14297  16.251  23.835  12.041
41972W        W14298  44.309  32.006  13.512
41973W        W14299  38.949  32.937  12.643
41974W        W14300  44.570  21.998   3.740
41975W        W14301  40.423  29.169   1.493
41976W        W14302   4.607  41.869   3.195
41977W        W14303  26.044  32.378   4.128
41978W        W14304  34.416  11.845  10.630
41979W        W14305   1.371  29.572   3.868
41980W        W14306  30.737   7.255  12.917
41981W        W14307   0.928  21.325   3.844
41982W        W14308   4.343  29.860   1.826
41983W        W14309  44.367  14.565   1.611
41984W        W14310   0.005  27.937  14.792
41985W        W14311  32.883   0.298  12.892
41986W        W14312   5.202  19.118   4.922
41987W        W14313  28.500   7.625   3.678
41988W        W14314  27.576  20.985   2.700
41989W        W14315  11.057   0.233   0.761
41990W        W14316  33.484  31.733   0.049
41991W        W14317  44.557  17.058  11.031
41992W        W14318   0.225  16.206  11.573
41993W        W14319  21.996  12.236   2.518
41994W        W14320  29.797  32.339   3.737
41995W        W14321  16.622  37.969   1.417
41996W        W14322   8.880  13.316   4.925
41997W        W14323  41.033  15.046  11.648
41998W        W14324  14.156  28.675   0.408
41999W        W14325  40.482  38.228   2.908
42000W        W14326  32.950  21.704   0.072
42001W        W14327  18.615  22.633  14.439
42002W        W14328  23.487  31.906   0.168
42003W        W14329  30.240   5.844   0.919
42004W        W14330  38.552  33.935  14.354
42005W        W14331   3.340  10.329  12.378
42006W        W14332  19.624  27.415   1.943
42007W        W14333  28.750  19.214  10.757
42008W        W14334  43.825  26.110   3.236
42009W        W14335  23.103  15.216   1.698
42010W        W14336  25.588  38.604   4.526
42011W        W14337  17.938   1.733  11.056
42012W        W14338  12.574  22.268   3.121
42013W        W14339   3.226  10.719   2.253
42014W        W14340  36.557  37.641  11.936
42015W        W14341  35.918  40.339   0.904
42016W        W14342  13.295  17.019  10.990
42017W        W14343   8.963  40.398   5.137
42018W        W14344  44.873   3.434  13.524
42019W        W14345  42.057  19.968  14.389
42020W        W14346   2.261  24.982   2.292
42021W        W14347  33.969   8.819   1.647
42022W        W14348  25.377  31.754   0.240
42023W        W14349   3.938   5.252   1.959
42024W        W14350  12.747   5.678   4.675
42025W        W14351  35.534  27.023   2.399
42026W        W14352  38.031  10.980  14.329
42027W        W14353  23.659  36.618  11.879
42028W        W14354  36.076   5.456   2.259
42029W        W14355  20.590   7.937   4.310
42030W        W14356  37.348  14.293  11.654
42031W        W14357  29.118  43.803   0.844
42032W        W14358   2.793  37.912  13.975
42033W        W14359  16.256  32.069  10.130
42034W        W14360  13.685  16.659   3.779
42035W        W14361  10.584  27.971  14.245
42036W        W14362   6.995  17.550  11.016
42037W        W14363  34.341  16.677  10.669
42038W        W14364   6.220  42.932   0.033
42039W        W14365   6.707  21.762   0.990
42040W        W14366  24.620  34.017   2.358
42041W        W14367  43.010  31.175   2.841
42042W        W14368  34.504  34.946  10.894
42043W        W14369  37.328  41.977  12.706
42044W        W14370  18.782  29.722   3.990
42045W        W14371  13.364  16.196  11.588
42046W        W14372   9.711   6.315   2.607
42047W        W14373   7.353  32.529   2.733
42048W        W14374   0.747   9.579   4.705
42049W        W14375  42.241  15.785  11.598
42050W        W14376   5.346  15.733  10.700
42051W        W14377  31.403  28.048  10.690
42052W        W14378  39.943   1.650  11.966
42053W        W14379  35.004  28.163   3.870
42054W        W14380  33.959  33.898  13.507
42055W        W14381  39.272  23.685  10.421
42056W        W14382  39.652  22.689  14.530
42057W        W14383  22.658   6.575  13.084
42058W        W14384   8.677   5.721   2.260
42059W        W14385  22.588  36.261   2.805
42060W        W14386  43.049  11.333  11.669
42061W        W14387  18.856  38.620   9.830
42062W        W14388   1.724  21.651  10.622
42063W        W14389  38.927   8.122  11.280
42064W        W14390  18.685  44.245   0.380
42065W        W14391  30.426   6.177   3.902
42066W        W14392  28.745  36.368  14.864
42067W        W14393  29.271  36.339   1.459
42068W        W14394  23.801  11.207   4.096
42069W        W14395  44.878  39.244  14.471
42070W        W14396   8.777  27.579  14.658
42071W        W14397  12.198   7.672   0.410
42072W        W14398  33.452   5.278  12.834
42073W        W14399  19.263  17.962   3.714
42074W        W14400  15.290  17.208  10.653
42075W        W14401  23.917  33.577  13.290
42076W        W14402  40.613  29.379  14.391
42077W        W14403  10.212  43.053   0.966
42078W        W14404  17.060  19.397   4.507
42079W        W14405  15.781   6.643  13.580
42080W        W14406  15.794  29.307   5.006
42081W        W14407  23.728  32.929   1.836
42082W        W14408  40.848  12.074  12.933
42083W        W14409  30.710  14.201   2.351
42084W        W14410  41.556   1.002   4.984
42085W        W14411  27.453  16.210   0.411
42086W        W14412  26.788   0.221   0.393
42087W        W14413  16.709   6.398  13.018
42088W        W14414  35.958  40.419  14.531
42089W        W14415  20.668  33.092   2.208
42090W        W14416   3.670  19.540  14.101
42091W        W14417  44.576  36.896  14.314
42092W        W14418  12.725  39.026  14.853
42093W        W14419  32.348  23.550   3.256
42094W        W14420  19.274   0.325   0.016
42095W        W14421  24.716  41.556   2.714
42096W        W14422  29.467  11.043  13.750
42097W        W14423  35.053  28.360   2.591
42098W        W14424   0.422  17.378  14.062
42099W        W14425  11.912  28.504  12.891
42100W        W14426  42.594  35.577   1.926
42101W        W14427  28.836  28.624  10.107
42102W        W14428  36.383   3.829  12.823
42103W        W14429  28.123  34.754  14.344
42104W        W14430  34.983  39.074   1.306
42105W        W14431  22.060  15.514   1.839
42106W        W14432  43.939  41.561  11.614
42107W        W14433  17.888  42.585  12.395
42108W        W14434  39.844  19.211   3.558
42109W        W14435  22.717  26.409   4.567
42110W        W14436   6.866  26.120   1.166
42111W        W14437  39.720  42.751  14.938
42112W        W14438  28.660  40.602   1.329
42113W        W14439   5.718  34.532  13.504
42114W        W14440   3.820  41.994  14.853
42115W        W14441   3.710  24.215   3.952
42116W        W14442  15.564  12.615  12.472
42117W        W14443  11.117  14.130   2.415
42118W        W14444  37.889  32.390  14.440
42119W        W14445   9.221  26.163   1.734
42120W        W14446  41.990  39.350   0.330
42121W        W14447  22.145  33.580   0.929
42122W        W14448  20.670  40.250   2.920
42123W        W14449   4.218  42.717  11.465
42124W        W14450   1.083  22.959   0.355
42125W        W14451  42.892  37.283  11.693
42126W        W14452  22.674  23.691  14.177
42127W        W14453  11.869   3.643  11.935
42128W        W14454   9.026  17.865  13.420
42129W        W14455   5.930   0.290   2.466
42130W        W14456  32.984   3.453  12.050
42131W        W14457  31.601   7.711  10.874
42132W        W14458   6.676   5.200  14.363
42133W        W14459  18.868   3.423   3.142
42134W        W14460  24.244  43.831  12.161
42135W        W14461  21.700  36.890  10.477
42136W        W14462  14.600   9.773   2.839
42137W        W14463  20.030   9.189  14.364
42138W        W14464  21.694  26.393   4.107
42139W        W14465  37.828   2.438   3.655
42140W        W14466  16.432  10.343  13.977
42141W        W14467  19.303  33.741  10.947
42142W        W14468  34.819  22.780  14.993
42143W        W14469  37.489  28.581  10.520
42144W        W14470  26.080  34.310  11.149
42145W        W14471  12.426  33.849   5.018
42146W        W14472  28.058  12.851  13.883
42147W        W14473   8.137  20.639   0.857
42148W        W14474  44.932  28.228   3.681
42149W        W14475  30.588  22.325   3.215
42150W        W14476  29.959  35.031   3.911
42151W        W14477   6.392   9.808  13.383
42152W        W14478   4.103  32.261   0.887
42153W        W14479  34.907  44.872  12.419
42154W        W14480   0.834   7.409   1.855
42155W        W14481   5.143   6.859  13.100
42156W        W14482  24.250  30.281  10.692
42157W        W14483  27.943  42.551   1.292
42158W        W14484  39.942  21.321   0.941
42159W        W14485   6.776  26.064   1.667
42160W        W14486   2.184  40.577   3.267
42161W        W14487  22.157   5.950   1.229
42162W        W14488  27.423  17.742   1.670
42163W        W14489  15.179  18.181   0.042
42164W        W14490  22.872   9.098  13.532
42165W        W14491  30.576  23.992  13.857
42166W        W14492  44.383  15.659  11.359
42167W        W14493  33.656  19.758  14.498
42168W        W14494  41.794   0.088   3.321
42169W        W14495   4.459  32.634   4.926
42170W        W14496  27.179  16.842   0.806
42171W        W14497  13.606  17.295   3.750
42172W        W14498  25.395  18.166  11.958
42173W        W14499  31.912  44.485   2.920
42174W        W14500  31.931  23.958   4.172
42175W        W14501  30.294  18.705   1.265
42176W        W14502  36.472  40.918   3.240
42177W        W14503  35.045  30.432  11.566
42178W        W14504  17.181   0.596  11.514
42179W        W14505  31.541   7.763  12.881
42180W        W14506  31.442  43.022   0.569
42181W        W14507   6.288  26.012   1.890
42182W        W14508  40.563  34.470  14.631
42183W        W14509  39.810  36.140   0.666
42184W        W14510   9.281  12.594   0.816
42185W        W14511  19.742  21.535  14.811
42186W        W14512   1.180  20.042  12.107
42187W        W14513   6.842  40.732  12.956
42188W        W14514  33.026   7.619  13.978
42189W        W14515  12.552  40.843  14.628
42190W        W14516  29.516   1.196   3.102
42191W        W14517  10.314   0.299   2.770
42192W        W14518  15.196   4.969  13.413
42193W        W14519  42.991   6.026  11.913
42194W        W14520  17.079   3.201   3.678
42195W        W14521  19.620  35.843   0.993
42196W        W14522   7.324   5.312  11.697
42197W        W14523   2.363  22.757   4.375
42198W        W14524  18.090  23.516   2.733
42199W        W14525  29.667  22.613   0.371
42200W        W14526  26.017  17.254   2.353
42201W        W14527  14.705  28.556  12.498
42202W        W14528  43.456  15.171   3.694
42203W        W14529  39.517   1.979   0.216
42204W        W14530   3.069  19.238   1.232
42205W        W14531  13.792  12.553   0.706
42206W        W14532   9.450   6.957   1.415
42207W        W14533  41.793   3.209   0.942
42208W        W14534  36.093   0.782  10.758
42209W        W14535  43.914  39.240  12.583
42210W        W14536  29.489   1.322   4.401
42211W        W14537  24.058  14.542   0.996
42212W        W14538  20.278  29.580  12.826
42213W        W14539   2.631  19.754  11.595
42214W        W14540  27.888  36.862   1.209
42215W        W14541  15.221  12.736   0.943
42216W        W14542   8.566   3.398  12.963
42217W        W14543  16.715  44.799   1.822
42218W        W14544  29.179  39.441  12.168
42219W        W14545  42.211   3.148   1.760
42220W        W14546   2.352  17.463   4.667
42221W        W14547   7.253  12.293  14.889
42222W        W14548  23.138  19.305   4.473
42223W        W14549  20.973  18.832  14.904
42224W        W14550  38.316  43.804   3.299
42225W        W14551   1.968  14.590  13.660
42226W        W14552  15.169  26.527   2.359
42227W        W14553  24.989  17.906   3.763
42228W        W14554   1.423   5.943   0.998
42229W        W14555  12.780  21.084   3.802
42230W        W14556  21.338  10.518  11.915
42231W        W14557  42.085  39.900   3.667
42232W        W14558  14.735  34.470  11.054
42233W        W14559  31.332  20.987   4.195
42234W        W14560  40.104  19.888  13.803
42235W        W14561  17.712   7.275  14.658
42236W        W14562  13.139  34.701   3.181
42237W        W14563  36.556  10.055   3.535
42238W        W14564   1.900  39.297   1.176
42239W        W14565  43.896  36.559   2.317
42240W        W14566   1.463  42.920   0.683
42241W        W14567  10.284   8.924   5.097
42242W        W14568  25.047  27.434   0.767
42243W        W14569  43.843   2.357   4.198
42244W        W14570  32.085  44.588  11.405
42245W        W14571   5.601  14.307   3.282
42246W        W14572  31.086  43.026   4.731
42247W        W14573  22.305  14.770   4.367
42248W        W14574  29.150   3.572   2.358
42249W        W14575  23.043  21.761  12.484
42250W        W14576  16.165  24.609   3.795
42251W        W14577  26.242  30.743   0.451
42252W        W14578   4.870  10.825  13.351
42253W        W14579  36.752   4.131   0.398
42254W        W14580   6.703  43.368  11.798
42255W        W14581  34.454  29.224  14.956
42256W        W14582   7.549  44.009   1.662
42257W        W14583   8.889  32.567  11.997
42258W        W14584  44.818  32.151  13.611
42259W        W14585  26.187  43.299  10.951
42260W        W14586   5.053  36.579   1.369
42261W        W14587  12.774  43.281  14.304
42262W        W14588  25.104  35.414  13.768
42263W        W14589  24.498   6.431   2.729
42264W        W14590   4.131  31.016  14.409
42265W        W14591  25.395   2.012  12.961
42266W        W14592  33.487  43.312  10.212
42267W        W14593  22.525  32.724   2.918
42268W        W14594  24.590  38.436   5.471
42269W        W14595  22.083  13.733  11.948
42270W        W14596  25.453  32.948  11.744
42271W        W14597  27.583  17.067  12.307
42272W        W14598  43.881   2.918   4.907
42273W        W14599  39.029  32.449   0.737
42274W        W14600  25.287  37.713  13.464
42275W        W14601  31.201  42.543   2.284
42276W        W14602  43.549  42.863   0.050
42277W        W14603   2.990  32.828  13.415
42278W        W14604  27.285   1.846  11.462
42279W        W14605  24.117  12.913   3.350
42280W        W14606  13.858  35.782   2.990
42281W        W14607   8.426  19.799  12.383
42282W        W14608  36.153  31.585  14.392
42283W        W14609   4.245  43.255  11.529
42284W        W14610  10.851  36.891   0.539
42285W        W14611  41.962   1.884   2.360
42286W        W14612   4.293  25.115   2.210
42287W        W14613  10.442  10.836  13.047
42288W        W14614  23.522  15.373  10.205
42289W        W14615  30.713   2.400   2.600
42290W        W14616  32.463  18.209   4.380
42291W        W14617  29.762  23.994  14.100
42292W        W14618  10.157  27.157  12.947
42293W        W14619  24.986   4.797   0.279
42294W        W14620  39.455  30.105  11.773
42295W        W14621  36.097  19.275   1.837
42296W        W14622  17.262  33.507  11.474
42297W        W14623  22.303  22.592  10.400
42298W        W14624  33.185  17.136   0.833
42299W        W14625  42.897  32.767  14.754
42300W        W14626  33.951  27.952  13.366
42301W        W14627   1.441   0.455   4.122
42302W        W14628  26.514  14.306   1.442
42303W        W14629  25.620  36.763  12.617
42304W        W14630  21.742   3.768  10.770
42305W        W14631  33.119  22.240  12.014
42306W        W14632   1.829   4.878   3.222
42307W        W14633   7.405   1.733   4.551
42308W        W14634  43.994  17.905  10.864
42309W        W14635  10.899   4.496   1.762
42310W        W14636  22.689  14.600   0.394
42311W        W14637  21.079  17.989   1.713
42312W        W14638  33.474  43.747   1.468
42313W        W14639  26.732  27.665  11.911
42314W        W14640  37.499  33.478   5.179
42315W        W14641  17.825  28.054   2.197
42316W        W14642  42.778  29.465  11.793
42317W        W14643   0.660  28.911   2.917
42318W        W14644   5.417  15.284   2.285
42319W        W14645  15.245  29.521  10.789
42320W        W14646  35.057  37.504  10.608
42321W        W14647   9.918  18.154   3.620
42322W        W14648  38.865   5.130   4.433
42323W        W14649  14.394   4.327   2.698
42324W        W14650  16.138  42.912   1.937
42325W        W14651   4.288  29.698  10.667
42326W        W14652   2.988  40.544   1.511
42327W        W14653  21.404  37.155   9.802
42328W        W14654  12.838   2.697   1.187
42329W        W14655  31.284   8.847   1.393
42330W        W14656  19.232  20.219   3.232
42331W        W14657   7.146  25.722  14.938
42332W        W14658  31.095  26.606   3.615
42333W        W14659  11.752  40.315   2.885
42334W        W14660  12.660  18.309  12.885
42335W        W14661  44.757  34.523   4.669
42336W        W14662  18.408   8.095  12.015
42337W        W14663  13.961  25.470   5.102
42338W        W14664  26.032  24.639  14.244
42339W        W14665  44.385  19.177   0.538
42340W        W14666   4.727  44.347  11.146
42341W        W14667  36.168  20.595  13.700
42342W        W14668  37.858   8.764   0.364
42343W        W14669  44.006  21.557   2.340
42344W        W14670  20.724  32.635   1.422
42345W        W14671   4.763  13.838  14.410
42346W        W14672  20.605  36.948   4.424
42347W        W14673  17.446  35.020  14.800
42348W        W14674   8.832  44.051  11.062
42349W        W14675  30.352  18.957   0.430
42350W        W14676  15.236  37.767   0.032
42351W        W14677  21.831  36.067  11.130
42352W        W14678  39.846  28.711   4.585
42353W        W14679  23.718  14.640  10.631
42354W        W14680  40.268   3.457  13.536
42355W        W14681  39.407  38.609  10.513
42356W        W14682  36.232  33.749   9.869
42357W        W14683  35.332  13.300   3.283
42358W        W14684  13.226  39.579  12.593
42359W        W14685   4.752  24.965  13.930
42360W        W14686  33.950  13.037  11.445
42361W        W14687  42.663   0.521   3.176
42362W        W14688   6.328   3.799   4.038
42363W        W14689  16.761  12.144   1.996
42364W        W14690   0.912  35.547   3.539
42365W        W14691  14.362  35.084   2.398
42366W        W14692  40.043  13.885  11.983
42367W        W14693  12.886   3.669   0.270
42368W        W14694   3.111   3.327   4.894
42369W        W14695   6.216  23.247   0.252
42370W        W14696  11.069  39.463   0.343
42371W        W14697  28.755  22.183   2.136
42372W        W14698  21.592   9.894  12.759
42373W        W14699  42.999  37.850   3.193
42374W        W14700  27.775  43.083  13.409
42375W        W14701  21.495  32.830   0.879
42376W        W14702  18.176  35.005   3.731
42377W        W14703  32.065  35.485   4.326
42378W        W14704  36.880  27.108   2.942
42379W        W14705  31.706   3.734  14.100
42380W        W14706  34.340  37.882   0.329
42381W        W14707  37.680   9.913  13.059
42382W        W14708  26.697  10.210  13.772
42383W        W14709  35.302   4.249   4.543
42384W        W14710   8.881   6.907  13.722
42385W        W14711  33.342  43.820   2.351
42386W        W14712  29.223  21.916  14.874
42387W        W14713   7.363   2.959  11.625
42388W        W14714   0.916  32.034  14.036
42389W        W14715  15.309   4.409   4.891
42390W        W14716   7.669   9.665  10.717
42391W        W14717  25.871   7.747  12.947
42392W        W14718  43.535  41.816  13.507
42393W        W14719  36.063  33.932   1.435
42394W        W14720  19.606  24.280   1.331
42395W        W14721   9.412  19.196   2.190
42396W        W14722  10.507  25.130  10.532
42397W        W14723  28.156  10.397   1.315
42398W        W14724  14.568  22.664   4.224
42399W        W14725   2.447   5.976   1.829
42400W        W14726  36.111   5.192   0.674
42401W        W14727  15.824   1.286   0.283
42402W        W14728  34.312  13.094  13.762
42403W        W14729   9.046  31.671  12.262
42404W        W14730  26.989   1.403  10.719
42405W        W14731  23.953  17.322  11.392
42406W        W14732  43.593  31.817  14.386
42407W        W14733  38.134  31.993  13.391
42408W        W14734  26.600  32.661  11.589
42409W        W14735  26.179  18.542  13.989
42410W        W14736  33.156  40.974  12.887
42411W        W14737  25.715  29.614  14.027
42412W        W14738  16.571  24.736   1.830
42413W        W14739  28.146  38.531  12.998
42414W        W14740  38.180  10.419   0.981
42415W        W14741  21.728  11.228  13.099
42416W        W14742  13.886  32.944   1.227
42417W        W14743  12.770  35.847  11.585
42418W        W14744  15.159  25.609   1.909
42419W        W14745  11.824  20.358  14.486
42420W        W14746   8.108  32.135  13.610
42421W        W14747  25.972  11.323   4.947
42422W        W14748  33.479  25.504  10.633
42423W        W14749  26.119   6.471  13.123
42424W        W14750  40.302  42.865  10.686
42425W        W14751  20.108  20.036   3.826
42426W        W14752   0.242  35.315   2.800
42427W        W14753  42.272  19.256  13.546
42428W        W14754  12.573   3.280   2.538
42429W        W14755  10.566   1.460   4.086
42430W        W14756   1.756  18.100   2.442
42431W        W14757  36.479   2.573   4.364
42432W        W14758  22.005  38.858   4.120
42433W        W14759  39.006  29.701   4.140
42434W        W14760  43.970   8.596   2.019
42435W        W14761  36.805  10.006   1.291
42436W        W14762   1.378  20.745   2.906
42437W        W14763   9.221  44.271  14.401
42438W        W14764  19.110  15.780   4.699
42439W        W14765  34.452  42.419  14.743
42440W        W14766  22.242   5.940  14.313
42441W        W14767  28.981  36.450  11.202
42442W        W14768   7.151  36.913   0.998
42443W        W14769  31.911  29.822   1.641
42444W        W14770  44.495  17.115   2.700
42445W        W14771  18.682  27.659  13.017
42446W        W14772  16.641  13.313  12.990
42447W        W14773  34.530   2.650   3.723
42448W        W14774  40.555  28.994   3.653
42449W        W14775  16.493  31.242  11.898
42450W        W14776  37.134  23.599   0.937
42451W        W14777   1.755  40.833   4.777
42452W        W14778   6.208  32.153   3.795
42453W        W14779   2.837  26.603   1.466
42454W        W14780  16.125   7.528  10.430
42455W        W14781  28.959  42.606   2.383
42456W        W14782  19.068  25.226  12.080
42457W        W14783  28.861  14.737  11.103
42458W        W14784  33.706  37.343  10.896
42459W        W14785  24.866  17.574  12.517
42460W        W14786  42.714  38.328   2.670
42461W        W14787  13.104  27.377   4.666
42462W        W14788   4.667  26.919   4.201
42463W        W14789  36.535  28.140   4.685
42464W        W14790  18.277  29.594  10.401
42465W        W14791  23.643  38.351   1.463
42466W        W14792  41.062  32.081  12.115
42467W        W14793  43.584   0.263   1.724
42468W        W14794  33.037  19.010  14.223
42469W        W14795   0.683  40.951   1.841
42470W        W14796   0.783  33.682   1.313
42471W        W14797  37.928  33.048   1.963
42472W        W14798  38.792  44.333   3.994
42473W        W14799  31.997  17.698   1.459
42474W        W14800  36.007  27.623   1.250
42475W        W14801  34.166  17.236  14.350
42476W        W14802   3.294  23.115  12.434
42477W        W14803  38.781  38.258   4.347
42478W        W14804  28.117  40.474  13.275
42479W        W14805  13.569  43.297   2.616
42480W        W14806  21.009  22.152   3.439
42481W        W14807  30.576   8.215  12.543
42482W        W14808  33.058  32.073   3.550
42483W        W14809  35.334  12.156  12.089
42484W        W14810   8.456  31.569  12.442
42485W        W14811  25.615   8.268  14.876
42486W        W14812  39.021  20.786  14.076
42487W        W14813   8.795  30.410   3.624
42488W        W14814  29.789   4.232   1.369
42489W        W14815   8.808   9.817   4.638
42490W        W14816  28.686  40.993  14.248
42491W        W14817  19.811  36.120  10.656
42492W        W14818  20.499  30.701   2.706
42493W        W14819   1.375  26.546   3.627
42494W        W14820  23.124  42.391   1.536
42495W        W14821  41.564   9.425   0.078
42496W        W14822  25.139  16.035  12.510
42497W        W14823  17.609  25.941   3.438
42498W        W14824  33.021  10.685   1.408
42499W        W14825   5.138  15.174   4.678
42500W        W14826   7.345  11.349  14.509
42501W        W14827  28.190   3.036   1.372
42502W        W14828   4.864  37.068  14.808
42503W        W14829  25.019  43.802  14.407
42504W        W14830  38.369   1.043   4.630
42505W        W14831  32.683  34.074  13.059
42506W        W14832  33.477  16.877  11.722
42507W        W14833  38.604  38.750   2.967
42508W        W14834  38.461  16.719  11.889
42509W        W14835  27.000   5.724   4.313
42510W        W14836   3.776  41.899  11.572
42511W        W14837  35.973   4.294  13.825
42512W        W14838  10.247   1.297  10.618
42513W        W14839  39.696  44.871  11.975
42514W        W14840   3.267   5.281   3.027
42515W        W14841  22.998  18.765  12.635
42516W        W14842  18.484   3.608  12.513
42517W        W14843  28.823  31.116   2.910
42518W        W14844  15.773  44.154  11.534
42519W        W14845   7.492   6.732   4.401
42520W        W14846  15.650   2.404  11.814
42521W        W14847   3.028  15.337   3.796
42522W        W14848   8.281  10.092   3.618
42523W        W14849  36.837   5.247  12.466
42524W        W14850  28.928  44.583   1.268
42525W        W14851  23.650  24.093  12.737
42526W        W14852  19.788  26.443   1.725
42527W        W14853  44.501  12.182   4.075
42528W        W14854   5.945  30.618  14.849
42529W        W14855  20.189   9.119   3.811
42530W        W14856  18.095  24.985  11.200
42531W        W14857  38.166  12.583  11.937
42532W        W14858   8.938   3.347   2.170
42533W        W14859  18.032  20.246   4.572
42534W        W14860  28.540  15.093  11.302
42535W        W14861  36.795  28.457   2.734
42536W        W14862  24.817   0.782  13.534
42537W        W14863  14.096   1.175  10.960
42538W        W14864  16.183  34.873   3.341
42539W        W14865  12.516  15.899  13.076
42540W        W14866  41.552  36.354   3.581
42541W        W14867  21.658  36.005   5.087
42542W        W14868  38.438  43.992   1.260
42543W        W14869  14.666   6.064   2.279
42544W        W14870  26.017   6.491  12.603
42545W        W14871  36.496   5.188   0.292
42546W        W14872  31.853  44.369  13.347
42547W        W14873  26.196  21.539  14.097
42548W        W14874  37.612   8.148  14.553
42549W        W14875  21.319   2.682  13.593
42550W        W14876   6.752  40.351   2.376
42551W        W14877  38.507  32.840  12.141
42552W        W14878  14.716  11.609  14.173
42553W        W14879   7.827  40.200  14.867
42554W        W14880   9.113  42.035   1.317
42555W        W14881  30.102  14.289  11.181
42556W        W14882  30.614  40.799  12.130
42557W        W14883  20.695  29.685  13.579
42558W        W14884  34.676   1.844  14.396
42559W        W14885  30.255  22.734   3.195
42560W        W14886   1.867  29.717  14.863
42561W        W14887  10.380  23.035  10.624
42562W        W14888  23.229  26.928   4.197
42563W        W14889  40.971   8.491  13.521
42564W        W14890   0.434  24.034   4.932
42565W        W14891  28.463  28.006   0.334
42566W        W14892   2.410   7.153  14.383
42567W        W14893  39.054  10.315   1.849
42568W        W14894  26.506  10.262  10.437
42569W        W14895  23.241  19.728  11.550
42570W        W14896   1.724  29.596  11.937
42571W        W14897  23.017  17.588  11.597
42572W        W14898  28.877  27.181  10.095
42573W        W14899  39.058  32.172   3.267
42574W        W14900  21.258  34.519  11.860
42575W        W14901  34.842  31.162  10.560
42576W        W14902  33.900  10.337   3.213
42577W        W14903  34.612   5.168  14.883
42578W        W14904  22.737  29.189  14.371
42579W        W14905   6.111  43.368  14.026
42580W        W14906  31.397   2.635   3.259
42581W        W14907  11.645   0.221   2.232
42582W        W14908  42.011  20.666   4.628
42583W        W14909  21.278   5.787  11.555
42584W        W14910  14.280  34.077   5.054
42585W        W14911  17.279  18.014  14.290
42586W        W14912  10.864  34.132   2.187
42587W        W14913  22.096  42.523   2.747
42588W        W14914   0.863  44.684   4.182
42589W        W14915  16.806   9.796   2.354
42590W        W14916  21.254  17.382   1.673
42591W        W14917   1.929  22.879   4.625
42592W        W14918  16.036   3.542   3.161
42593W        W14919  31.512   9.907  14.813
42594W        W14920   3.886  19.075   2.800
42595W        W14921  28.079   8.543   0.971
42596W        W14922   8.232  37.015   1.598
42597W        W14923   8.158  18.918  13.486
42598W        W14924  28.198  35.496   0.808
42599W        W14925  40.271  18.707  11.236
42600W        W14926  31.509   3.824   0.467
42601W        W14927  11.889  20.625   3.741
42602W        W14928  33.600   2.507   2.258
42603W        W14929   9.890  25.492  14.842
42604W        W14930  24.976  19.545   1.846
42605W        W14931  18.834  25.131  14.042
42606W        W14932   3.699  22.546  13.966
42607W        W14933  20.989  34.084   1.041
42608W        W14934   7.352  42.310  13.406
42609W        W14935   0.095   9.871   1.432
42610W        W14936  41.648   5.292   1.145
42611W        W14937  36.856  10.284   3.088
42612W        W14938  26.530   2.899   2.873
42613W        W14939  13.502   5.320   4.919
42614W        W14940  36.635   5.376  13.420
42615W        W14941  42.971   4.293  14.730
42616W        W14942   9.757  26.161  14.345
42617W        W14943   5.997  17.674  14.057
42618W        W14944  38.182  33.776  12.037
42619W        W14945   6.680  30.374  12.577
42620W        W14946  26.635  29.514   4.817
42621W        W14947   0.976   4.837   0.293
42622W        W14948  21.662  18.698   4.588
42623W        W14949  29.973  38.628  12.407
42624W        W14950  23.752  28.565  13.778
42625W        W14951  13.328  16.335  13.372
42626W        W14952   4.634  10.662  12.398
42627W        W14953  23.597  21.576  10.581
42628W        W14954  17.713  35.890  13.562
42629W        W14955   8.137  41.820   3.633
42630W        W14956  38.954  43.071   3.140
42631W        W14957  38.454  10.868  13.972
42632W        W14958   2.956  12.141  14.988
42633W        W14959  24.123  24.546   0.859
42634W        W14960   2.068  14.677   3.206
42635W        W14961  31.357   3.554   1.640
42636W        W14962  24.807  13.219  12.674
42637W        W14963  17.102  22.247  12.016
42638W        W14964  34.891  26.398  14.793
42639W        W14965  33.034  23.495   0.348
42640W        W14966  28.082  32.007  11.199
42641W        W14967   4.220  23.849   2.487
42642W        W14968  23.062  17.233  10.456
42643W        W14969  22.820  39.408   4.694
42644W        W14970  43.279  29.488  11.708
42645W        W14971  17.129  28.301   0.355
42646W        W14972  18.218  19.490  13.840
42647W        W14973  42.360  30.024   3.668
42648W        W14974  16.545   7.011   3.256
42649W        W14975  42.482  44.862   4.759
42650W        W14976  17.584  32.612   3.244
42651W        W14977  33.600  39.724  14.490
42652W        W14978  33.183  40.814  11.967
42653W        W14979  39.848  38.403  13.285
42654W        W14980  11.263   5.499   4.673
42655W        W14981  20.068  26.552   3.831
42656W        W14982  32.497   6.282  10.909
42657W        W14983  36.491  33.026   2.894
42658W        W14984  23.676  41.004   0.736
42659W        W14985  34.639   1.814  10.862
42660W        W14986   0.247   7.467  13.053
42661W        W14987  35.258   0.163  12.134
42662W        W14988  35.622  37.962  12.063
42663W        W14989  26.490  43.212  11.525
42664W        W14990  35.894   0.495   0.960
42665W        W14991   4.459   6.261   0.337
42666W        W14992  16.055   0.528  11.703
42667W        W14993  21.927   9.446  13.411
42668W        W14994  29.914  26.173  10.147
42669W        W14995  26.987  38.993  14.958
42670W        W14996  22.026  18.191  11.215
42671W        W14997   6.621  34.177   1.847
42672W        W14998  44.944  11.798  10.636
42673W        W14999   6.727  41.817   3.369
42674W        W15000  22.794  26.718   0.408
42675W        W15001   6.095  31.169   4.795
42676W        W15002  15.710  38.814  12.429
42677W        W15003   5.668   2.833  14.035
42678W        W15004  30.901  22.624   4.741
42679W        W15005  35.137  44.447   3.473
42680W        W15006  33.669   3.253  14.912
42681W        W15007  14.420  44.445   0.751
42682W        W15008  17.784  25.001   1.309
42683W        W15009  43.851   0.039   2.283
42684W        W15010  24.279  35.389  12.523
42685W        W15011  16.774  34.109  12.040
42686W        W15012   3.371  22.549   2.276
42687W        W15013  34.821  21.993   4.773
42688W        W15014  38.029  20.423  14.909
42689W        W15015  35.003  15.337   4.266
42690W        W15016  42.809   9.907  11.510
42691W        W15017   7.188  38.263  11.536
42692W        W15018   9.592  35.617  11.123
42693W        W15019  40.526  13.879   3.291
42694W        W15020  29.180  37.329  11.243
42695W        W15021  28.686   0.215  12.944
42696W        W15022  16.644   5.320   3.752
42697W        W15023  11.315   4.130  12.571
42698W        W15024  31.984  26.700   0.164
42699W        W15025   3.460   4.106  11.079
42700W        W15026  41.450  38.122  10.676
42701W        W15027   9.398  16.688   0.899
42702W        W15028  26.634  31.486   3.182
42703W        W15029  10.086  14.592  13.399
42704W        W15030  40.287  41.395   0.512
42705W        W15031   1.944  28.696   0.031
42706W        W15032  11.242   5.779   3.732
42707W        W15033   0.407  12.416   2.329
42708W        W15034  17.123  17.298  11.962
42709W        W15035  37.767  38.993  13.414
42710W        W15036  23.582   6.545  14.325
42711W        W15037  13.364  43.374  14.874
42712W        W15038  23.148  41.769   2.222
42713W        W15039  36.856  21.228   0.769
42714W        W15040   4.300  21.054  12.056
42715W        W15041  38.435   1.861  10.838
42716W        W15042  10.681  41.991   3.300
42717W        W15043  32.116  34.787  10.794
42718W        W15044   1.238  29.949   2.837
42719W        W15045  28.389  26.507   2.225
42720W        W15046   4.686  11.902   1.822
42721W        W15047   7.735  35.104  14.632
42722W        W15048  35.558   0.285  13.463
42723W        W15049  25.442   5.015   4.612
42724W        W15050  40.441  22.342   5.113
42725W        W15051  33.483  41.884   1.882
42726W        W15052  12.816  35.949  10.753
42727W        W15053  21.054  20.246  11.553
42728W        W15054  33.979   3.217  10.437
42729W        W15055  19.611  12.089  12.945
42730W        W15056  21.654  15.997   2.716
42731W        W15057   8.376  24.644   4.435
42732W        W15058  14.373  12.769  14.546
42733W        W15059   5.763  44.971   1.770
42734W        W15060  13.809  30.650   3.803
42735W        W15061  40.383  34.999   4.600
42736W        W15062  44.274   0.081  11.529
42737W        W15063  41.417  14.353   3.602
42738W        W15064  32.941  26.670  13.817
42739W        W15065  22.209   6.536  12.704
42740W        W15066   3.573  36.842  11.113
42741W        W15067   8.305  33.982   0.311
42742W        W15068  20.118   8.870   2.792
42743W        W15069   2.861   1.860  10.691
42744W        W15070  39.995  35.520  14.038
42745W        W15071   1.839  17.756  11.690
42746W        W15072  29.925  15.644  14.336
42747W        W15073  24.007  18.058   2.843
42748W        W15074  14.578  28.029  11.121
42749W        W15075  35.437  25.471  13.796
42750W        W15076  10.171  20.117   4.046
42751W        W15077  37.967  29.064  14.238
42752W        W15078  26.465  34.424   0.297
42753W        W15079   8.077  40.144   4.693
42754W        W15080   3.993   4.184  12.956
42755W        W15081  37.298  16.095  13.831
42756W        W15082  30.509  12.776   2.317
42757W        W15083  24.225   9.199   1.173
42758W        W15084  41.576  20.688   2.001
42759W        W15085  42.457  38.694  14.442
42760W        W15086  25.451  38.972  14.830
42761W        W15087  34.483  30.145  14.037
42762W        W15088  42.969  40.402  14.353
42763W        W15089   3.973  36.320   0.501
42764W        W15090   2.341  42.398  10.676
42765W        W15091  43.068  42.874  14.783
42766W        W15092  22.983  32.031  14.960
42767W        W15093  23.454   3.165   1.320
42768W        W15094  42.699   0.258  13.856
42769W        W15095   6.337  15.271   0.964
42770W        W15096  35.146  35.714   9.781
42771W        W15097  11.665  26.546   5.014
42772W        W15098   3.761  21.998  13.100
42773W        W15099  44.662  23.235  12.370
42774W        W15100  26.456  35.320  14.457
42775W        W15101  35.899  20.150  14.562
42776W        W15102   9.885  35.303  11.406
42777W        W15103  42.354  10.450   2.208
42778W        W15104  32.356  38.098   4.089
42779W        W15105  31.184  11.714  13.563
42780W        W15106   3.862  19.528   1.895
42781W        W15107   9.118  15.353   1.311
42782W        W15108  26.956   2.315   2.421
42783W        W15109   0.226  38.996  12.996
42784W        W15110  16.601  39.313   3.594
42785W        W15111  42.263   2.257  13.395
42786W        W15112  40.050  17.804   3.746
42787W        W15113  42.814   2.792  13.942
42788W        W15114   3.761  18.319  10.333
42789W        W15115  35.375  23.412   1.149
42790W        W15116  30.096  30.008   1.017
42791W        W15117  29.977  38.162   4.249
42792W        W15118   1.844   4.950  14.591
42793W        W15119  12.389   2.878  12.872
42794W        W15120  20.142  13.676   4.862
42795W        W15121  11.683  30.335  13.431
42796W        W15122  37.523  26.716   3.377
42797W        W15123  20.264  34.496   2.762
42798W        W15124  22.562  11.346  14.801
42799W        W15125  19.117  25.151   1.853
42800W        W15126  17.970  26.198  10.515
42801W        W15127  22.517  18.320   1.836
42802W        W15128  32.196  22.794   3.257
42803W        W15129  31.608  38.787  13.340
42804W        W15130  34.144  26.388  13.406
42805W        W15131   8.741  29.004  10.753
42806W        W15132  38.816  34.590   3.181
42807W        W15133  22.622   9.226   1.873
42808W        W15134  11.716  42.489   3.398
42809W        W15135  21.730  17.168   0.808
42810W        W15136  28.087  14.556   4.630
42811W        W15137  29.039  35.223  13.059
42812W        W15138  14.047  22.155  11.169
42813W        W15139  22.187  16.040   5.046
42814W        W15140   3.277  38.902  14.922
42815W        W15141  41.721  28.423  14.412
42816W        W15142  24.506  21.894   2.827
42817W        W15143  35.583   2.340   2.671
42818W        W15144  17.184  42.098   4.524
42819W        W15145  22.369  10.361   5.094
42820W        W15146  39.094  33.528   5.109
42821W        W15147  20.497  37.580  14.444
42822W        W15148  13.173  36.296  12.776
42823W        W15149   3.774  18.149   1.478
42824W        W15150  35.177  27.157   2.048
42825W        W15151  20.787  29.641  12.635
42826W        W15152  38.457  22.950  12.476
42827W        W15153   3.674  24.424  10.562
42828W        W15154  29.867  12.376   1.589
42829W        W15155   6.722  34.082  12.199
42830W        W15156   5.947  20.611  13.078
42831W        W15157  36.973  37.254   1.301
42832W        W15158  23.777  37.091   2.871
42833W        W15159  30.512  11.549  13.349
42834W        W15160  32.146  21.015   1.902
42835W        W15161  12.319  39.930   0.697
42836W        W15162  24.105  25.473   1.861
42837W        W15163  26.492  13.745   2.319
42838W        W15164  23.742  33.620  14.548
42839W        W15165   7.654   0.465  14.474
42840W        W15166   3.188  23.308  11.026
42841W        W15167  44.399  19.725   1.635
42842W        W15168   4.974  21.700   5.031
42843W        W15169  21.195  44.007   3.172
42844W        W15170  12.133  27.434  10.402
42845W        W15171  22.498  44.352  11.517
42846W        W15172  33.527  41.814  10.759
42847W        W15173   5.299   3.431   2.707
42848W        W15174  31.927  19.874   4.117
42849W        W15175  13.272  33.398   0.778
42850W        W15176   1.976  24.163   2.729
42851W        W15177  23.425   9.847   0.293
42852W        W15178  26.936  22.512  13.528
42853W        W15179  37.922   4.729  13.433
42854W        W15180  10.590   7.756   3.318
42855W        W15181  38.341  31.359   0.829
42856W        W15182  32.092  42.573  13.416
42857W        W15183   1.922  31.523  14.374
42858W        W15184  14.607   8.640   1.004
42859W        W15185  11.702  24.552   5.768
42860W        W15186  34.860   0.159  14.339
42861W        W15187  17.302  21.237   2.677
42862W        W15188  12.768  33.206  14.063
42863W        W15189   1.431  38.525   3.832
42864W        W15190  34.073   7.532  13.873
42865W        W15191  41.609  31.742  14.388
42866W        W15192   3.212  28.000  10.682
42867W        W15193   1.921   5.219   5.000
42868W        W15194  21.208  14.345   2.890
42869W        W15195  38.674  20.803  11.555
42870W        W15196  38.814  18.702   3.242
42871W        W15197  10.105  41.961  11.054
42872W        W15198  14.236  39.353   3.139
42873W        W15199  23.828  29.466  12.191
42874W        W15200  38.381  25.547  14.851
42875W        W15201  44.716  34.020   2.470
42876W        W15202  16.812  29.438  12.531
42877W        W15203  28.129  22.209   4.290
42878W        W15204  20.147  38.149   1.903
42879W        W15205  43.447  35.150  13.438
42880W        W15206  20.201  11.760   4.622
42881W        W15207  38.550  33.151  13.419
42882W        W15208  25.700  19.281  13.682
42883W        W15209  26.665  29.989   3.488
42884W        W15210  38.369   6.433  14.757
42885W        W15211   7.796  16.066   3.622
42886W        W15212  20.499  19.678   2.634
42887W        W15213  38.971  23.111   2.378
42888W        W15214  31.676  34.002  11.157
42889W        W15215   5.800   8.869   3.209
42890W        W15216  30.429  22.856  11.165
42891W        W15217  37.530  19.904  13.743
42892W        W15218  19.347  31.719   2.366
42893W        W15219  13.132  29.529  12.033
42894W        W15220   2.292  36.055  12.746
42895W        W15221  14.258  30.708   3.340
42896W        W15222  39.851  35.000   3.682
42897W        W15223  19.166  29.146  10.536
42898W        W15224   7.097  44.309  13.765
42899W        W15225  20.992   8.577   4.901
42900W        W15226  34.109  28.416  14.886
42901W        W15227  33.473  18.109  11.341
42902W        W15228   5.923  11.269  11.119
42903W        W15229  20.489  16.559   0.280
42904W        W15230  20.135  25.235   4.294
42905W        W15231  42.319  10.306   4.425
42906W        W15232  38.058   3.186   3.048
42907W        W15233  12.677  23.577  13.364
42908W        W15234  21.620  31.703  12.020
42909W        W15235  39.785  33.600  10.910
42910W        W15236  39.659   5.520   3.602
42911W        W15237  23.750  19.248  13.479
42912W        W15238   0.208  43.371   0.652
42913W        W15239  23.485  32.662   4.147
42914W        W15240   2.551   3.156  10.600
42915W        W15241   4.964  19.069  10.695
42916W        W15242  40.860  38.405   1.643
42917W        W15243   7.096   2.462   2.703
42918W        W15244  41.892  30.118  10.783
42919W        W15245   2.679  40.924  11.099
42920W        W15246  24.072  27.496  10.772
42921W        W15247  21.495  41.809  13.037
42922W        W15248   4.218  16.122  14.031
42923W        W15249  31.046  16.016   3.693
42924W        W15250   0.966  31.511   3.230
42925W        W15251  22.097  31.043   3.278
42926W        W15252   2.093  23.768   5.506
42927W        W15253  16.534  33.938   2.175
42928W        W15254  37.532  20.733  13.054
42929W        W15255  34.390  39.119   4.648
42930W        W15256  40.376  28.057   4.064
42931W        W15257  38.077  31.539  11.411
42932W        W15258  20.329  14.792   0.840
42933W        W15259  43.542   2.501   3.780
42934W        W15260  23.337  30.945   1.158
42935W        W15261  33.703   9.253   1.822
42936W        W15262  43.271   8.236   3.432
42937W        W15263  43.036   6.289   3.663
42938W        W15264  35.376  34.490   1.429
42939W        W15265  25.200  17.988  14.842
42940W        W15266  24.749  39.150   0.436
42941W        W15267  41.363  23.314  13.993
42942W        W15268   7.838  13.118  13.535
42943W        W15269  23.023  29.179   2.851
42944W        W15270  35.910  33.087  11.009
42945W        W15271  29.142   2.680   1.473
42946W        W15272   1.959  30.960   2.113
42947W        W15273   7.204  31.377   4.183
42948W        W15274  39.589   4.483  12.667
42949W        W15275  22.182  22.607   0.255
42950W        W15276  30.736  29.541   1.928
42951W        W15277  30.937  44.391  11.197
42952W        W15278  39.436   6.157  14.565
42953W        W15279  17.079  42.483  11.425
42954W        W15280   9.664  24.779   2.223
42955W        W15281  21.682  26.872  13.454
42956W        W15282  43.802  40.052   0.403
42957W        W15283  14.377  28.429  14.980
42958W        W15284  29.883   8.257   3.678
42959W        W15285  28.563  11.277  12.008
42960W        W15286  20.120  33.550  12.127
42961W        W15287   6.781  24.495  14.525
42962W        W15288   7.948  11.587  10.723
42963W        W15289  42.037  31.395   0.348
42964W        W15290  11.296  17.710  13.549
42965W        W15291   7.767  28.095  13.778
42966W        W15292  11.137  31.262  12.812
42967W        W15293  22.459  37.938  13.614
42968W        W15294   1.218  44.220   0.374
42969W        W15295  22.000  25.171   2.161
42970W        W15296  42.768  28.114  13.563
42971W        W15297  43.328  27.678   2.347
42972W        W15298   6.869  42.795   1.274
42973W        W15299  19.256   5.904  13.279
42974W        W15300  43.763   9.868  14.540
42975W        W15301  43.742   6.923   4.380
42976W        W15302  40.177  10.276   5.135
42977W        W15303  20.124  33.404   5.083
42978W        W15304  41.891  31.986  11.476
42979W        W15305  20.641   2.545   1.040
42980W        W15306  33.545  34.812  14.426
42981W        W15307  32.976   9.658   4.372
42982W        W15308  37.393  31.398   4.874
42983W        W15309   8.237  22.663   4.346
42984W        W15310  34.318  22.529   0.850
42985W        W15311   6.604  20.623   1.824
42986W        W15312  22.129  21.070   1.299
42987W        W15313  28.111  34.821   2.861
42988W        W15314   6.379  13.034  14.326
42989W        W15315  25.227  33.621  10.325
42990W        W15316  29.931  44.853   4.126
42991W        W15317  36.359  32.014  14.150
42992W        W15318  12.495  27.063   1.861
42993W        W15319  44.055  28.956   3.613
42994W        W15320  41.562  33.038   0.764
42995W        W15321   6.295  36.673   1.462
42996W        W15322  40.304  33.957  14.838
42997W        W15323   6.200  26.179  14.783
42998W        W15324  33.937  27.326   1.871
42999W        W15325  17.648  12.275   4.642
43000W        W15326   2.791  26.118  12.469
43001W        W15327  44.827  24.100   1.835
43002W        W15328   1.901  37.902   2.514
43003W        W15329  37.185   6.363   3.801
43004W        W15330  17.885  17.566   0.017
43005W        W15331   5.917  44.801   2.726
43006W        W15332  33.918   4.013  13.310
43007W        W15333   4.011  43.009   0.418
43008W        W15334  29.902  33.842  13.810
43009W        W15335  24.555  20.623   4.486
43010W        W15336   3.220  15.140   2.154
43011W        W15337   7.575  35.923   0.189
43012W        W15338  36.470  36.654  12.043
43013W        W15339  39.515  33.058  14.014
43014W        W15340  25.455  39.053   4.723
43015W        W15341   2.637  22.636  11.449
43016W        W15342   1.056  33.669   0.889
43017W        W15343   0.509  42.526  12.192
43018W        W15344  35.307  24.007   1.420
43019W        W15345  17.792  31.696  11.063
43020W        W15346  11.312  42.993  11.414
43021W        W15347  27.063  23.572  13.872
43022W        W15348  17.625  16.546  12.030
43023W        W15349  13.966  25.632   9.937
43024W        W15350  34.926  35.920   4.950
43025W        W15351  34.296  16.518  11.150
43026W        W15352  41.914  20.506  13.630
43027W        W15353  40.360  36.861   2.204
43028W        W15354  40.531  40.078  12.880
43029W        W15355  36.073  16.107  14.526
43030W        W15356   1.769  38.628   1.762
43031W        W15357  39.980  35.346   3.337
43032W        W15358  38.036   5.918   0.196
43033W        W15359  16.687  34.597   4.130
43034W        W15360  20.736  11.704  11.761
43035W        W15361  13.139  23.121   1.567
43036W        W15362  34.990  44.649  14.430
43037W        W15363   3.141   2.073   1.294
43038W        W15364   1.054  16.368  14.351
43039W        W15365  28.895  14.346  10.620
43040W        W15366  43.024  29.014  11.732
43041W        W15367  38.355   7.742  10.943
43042W        W15368  43.814  43.990  13.851
43043W        W15369  17.649  35.063   2.822
43044W        W15370  27.806  41.443  10.196
43045W        W15371  17.293  42.371  11.924
43046W        W15372  10.194  21.732   2.344
43047W        W15373   7.274  38.304  10.510
43048W        W15374  30.924  37.064  13.817
43049W        W15375  36.550  13.613   1.249
43050W        W15376  33.862  43.977  12.035
43051W        W15377  30.550  24.089  14.802
43052W        W15378  25.583  32.708   0.641
43053W        W15379  36.034  23.085   0.699
43054W        W15380  37.027  30.278  12.473
43055W        W15381  24.938  33.713  14.377
43056W        W15382  42.241  10.544   1.309
43057W        W15383  44.274  37.530  13.118
43058W        W15384   2.160  19.507  11.477
43059W        W15385  25.370   1.676  13.808
43060W        W15386  33.927  38.586  12.410
43061W        W15387   9.747  32.487  10.747
43062W        W15388  35.750   4.144  10.405
43063W        W15389  40.047  22.950   0.016
43064W        W15390  19.248  26.449  14.876
43065W        W15391   7.990  35.792   4.167
43066W        W15392  39.727  15.877   3.847
43067W        W15393  32.935  16.745  10.578
43068W        W15394  37.380  34.568  11.164
43069W        W15395  43.094  19.168   0.763
43070W        W15396   2.416  41.878   3.564
43071W        W15397  39.559  12.049  12.889
43072W        W15398   6.885  20.729  10.713
43073W        W15399  12.726  40.853   1.096
43074W        W15400   6.782  28.036  13.857
43075W        W15401   6.815   6.170   3.654
43076W        W15402  19.617  35.574  12.885
43077W        W15403  17.813  34.057  12.082
43078W        W15404  39.311  34.881   0.100
43079W        W15405  41.229  34.212  14.444
43080W        W15406  26.110  16.183  11.448
43081W        W15407   2.313   2.471   3.876
43082W        W15408  21.500  23.660  11.941
43083W        W15409  26.598  11.205  11.580
43084W        W15410  12.637  36.979   0.460
43085W        W15411  24.152   8.968   2.568
43086W        W15412  39.939  33.179   4.093
43087W        W15413  22.145  39.098   1.128
43088W        W15414  36.661  11.062  13.934
43089W        W15415   8.266  31.176   0.216
43090W        W15416  15.268   0.262   3.045
43091W        W15417  33.733  17.544   9.889
43092W        W15418  15.345  13.154   2.753
43093W        W15419  27.880  26.083  10.409
43094W        W15420  34.937   1.846   3.713
43095W        W15421   0.407  34.333   0.742
43096W        W15422  21.003   2.712   1.520
43097W        W15423  15.424  12.355  12.885
43098W        W15424  26.937  12.376  11.002
43099W        W15425  37.408  19.177   3.932
43100W        W15426  35.435   7.653   3.068
43101W        W15427  31.002  24.724   0.220
43102W        W15428  30.614  39.933   2.713
43103W        W15429  25.951  36.470   0.811
43104W        W15430   6.202  13.902  12.004
43105W        W15431  41.473  17.817   3.676
43106W        W15432  18.296  16.236   4.951
43107W        W15433  10.757   7.282  10.671
43108W        W15434   6.678  28.734   4.168
43109W        W15435  39.057  22.469   0.835
43110W        W15436  33.111  43.044   3.783
43111W        W15437  15.286  23.724   0.374
43112W        W15438  11.097  16.064   1.485
43113W        W15439  12.296   0.560  13.455
43114W        W15440  12.177  15.309  14.465
43115W        W15441   7.644  16.740  12.790
43116W        W15442  30.753  39.617   4.111
43117W        W15443  29.572  43.179  11.560
43118W        W15444  24.223  14.154   3.838
43119W        W15445  13.311  12.300  12.672
43120W        W15446  34.403  36.895  10.255
43121W        W15447   5.537   9.293   4.052
43122W        W15448  38.672  31.857   3.149
43123W        W15449   3.473  43.812   0.912
43124W        W15450  28.363  44.047   1.357
43125W        W15451   0.657  39.327  11.630
43126W        W15452   7.613  16.349   1.467
43127W        W15453  11.159  19.003   1.482
43128W        W15454   1.508   9.722   1.185
43129W        W15455  30.922   8.447   3.115
43130W        W15456  33.394  44.254   1.436
43131W        W15457   8.164  15.666  10.667
43132W        W15458  30.605  41.489  11.479
43133W        W15459  38.713  24.804   3.128
43134W        W15460  33.637  30.969   5.035
43135W        W15461  15.354   3.854   3.534
43136W        W15462  42.957  40.020  14.724
43137W        W15463  39.130  26.984  12.825
43138W        W15464  37.381  30.488   1.309
43139W        W15465  22.217   8.829  11.060
43140W        W15466  30.472  40.745   0.431
43141W        W15467  37.359   2.698   4.188
43142W        W15468  24.673  30.345  11.005
43143W        W15469  19.200   7.862   1.237
43144W        W15470  29.843   1.715   4.183
43145W        W15471  38.852  44.501   0.866
43146W        W15472  35.691   6.794  14.615
43147W        W15473   1.455  44.256  14.805
43148W        W15474  36.158  15.792  12.013
43149W        W15475   9.527  17.089  12.967
43150W        W15476  30.674  17.811   1.177
43151W        W15477  37.620   7.261   1.740
43152W        W15478  41.505  42.289  14.350
43153W        W15479  24.503  14.101   0.296
43154W        W15480   0.983  43.499   4.589
43155W        W15481  17.137  21.266  12.568
43156W        W15482   8.832  22.128  13.852
43157W        W15483  32.770  23.861  13.442
43158W        W15484   8.505  19.693  13.712
43159W        W15485  21.754  33.609   1.293
43160W        W15486   4.936  13.934  10.748
43161W        W15487   8.159  18.477  13.073
43162W        W15488  39.495  24.681  14.347
43163W        W15489   7.881  21.773  14.628
43164W        W15490  14.804  12.688   4.183
43165W        W15491  35.588  35.547   4.561
43166W        W15492   3.457   1.284  11.024
43167W        W15493  40.840  18.482  14.474
43168W        W15494  27.384  31.753  13.167
43169W        W15495  25.528   7.298   0.212
43170W        W15496   6.316   8.243  14.335
43171W        W15497  35.999   3.789   0.815
43172W        W15498  38.939   5.194  11.178
43173W        W15499  35.783  24.746   2.122
43174W        W15500  31.616  31.678  12.629
43175W        W15501   6.705  11.780  13.019
43176W        W15502  43.966  38.961   4.596
43177W        W15503   5.235  27.353  11.084
43178W        W15504  32.930  12.826   3.423
43179W        W15505   3.123  13.537  11.671
43180W        W15506  20.469   6.758   2.687
43181W        W15507  13.538  35.694  12.096
43182W        W15508   8.771  41.368   2.351
43183W        W15509   7.767  27.307  14.433
43184W        W15510  23.489   9.966   3.757
43185W        W15511  31.545  26.635   0.408
43186W        W15512   4.987  36.395  14.163
43187W        W15513  35.569   3.166   1.310
43188W        W15514  28.477   7.778   4.580
43189W        W15515   4.013   1.175  14.712
43190W        W15516  31.840   3.873  10.437
43191W        W15517  19.765  12.905  12.493
43192W        W15518  20.800  13.669   2.443
43193W        W15519  32.150  26.096   0.032
43194W        W15520  26.191  32.124  11.436
43195W        W15521   6.265   3.270   0.316
43196W        W15522  20.680  32.011   4.497
43197W        W15523  37.061  23.454  12.969
43198W        W15524  18.779  33.095  13.598
43199W        W15525  44.785  16.024  11.988
43200W        W15526  33.717   8.739   3.178
43201W        W15527  32.603  36.831  11.958
43202W        W15528  16.960   7.236   3.484
43203W        W15529  29.646  27.861   4.043
43204W        W15530  19.673  35.034   4.096
43205W        W15531  37.402   0.789  10.692
43206W        W15532  35.877   9.304  12.141
43207W        W15533  34.899  31.957   0.370
43208W        W15534  20.215   4.440  10.907
43209W        W15535  19.467  13.882  11.032
43210W        W15536  23.640   5.894   0.725
43211W        W15537  35.660  44.439   0.182
43212W        W15538  26.041  22.302   1.593
43213W        W15539  32.353   0.512  14.962
43214W        W15540  22.192  16.833  11.102
43215W        W15541   5.237   8.689  11.446
43216W        W15542  26.741   3.376   2.804
43217W        W15543  38.116  44.565  12.815
43218W        W15544  19.065  29.077   2.634
43219W        W15545  30.646  14.758  12.765
43220W        W15546  28.140  19.455  11.777
43221W        W15547  27.074  36.547  11.137
43222W        W15548  11.262  15.375   9.922
43223W        W15549  30.571  19.382   0.222
43224W        W15550  10.359   7.674   1.669
43225W        W15551  30.921  26.598  11.136
43226W        W15552  41.382  28.991   2.348
43227W        W15553  36.517  28.590  12.132
43228W        W15554  41.225   6.969   0.746
43229W        W15555  34.449  42.522  10.759
43230W        W15556  30.562  41.632   1.486
43231W        W15557  31.979  29.476   0.402
43232W        W15558  17.894   0.837  12.049
43233W        W15559  22.055  41.526  14.269
43234W        W15560  21.446   6.639   0.474
43235W        W15561  31.372  26.639   1.279
43236W        W15562  17.272   7.494   0.350
43237W        W15563  41.155  31.936  10.944
43238W        W15564   7.150  44.355   1.767
43239W        W15565  10.582  17.966   0.824
43240W        W15566  20.229  17.265   0.821
43241W        W15567  31.582   2.729  10.690
43242W        W15568  11.250  44.276  14.930
43243W        W15569   5.231   5.324   2.356
43244W        W15570  11.876  37.170  11.916
43245W        W15571  15.672  41.799   3.378
43246W        W15572  23.836  43.429   3.175
43247W        W15573  36.063  43.033   2.025
43248W        W15574   8.883  13.428  13.910
43249W        W15575  44.441  25.794   3.522
43250W        W15576  26.406   1.926   1.862
43251W        W15577  42.469  27.151  14.726
43252W        W15578  37.782  39.017   9.699
43253W        W15579  33.936  25.425   2.730
43254W        W15580  32.837  22.514  10.314
43255W        W15581  22.092  44.901   1.091
43256W        W15582  12.367   5.193  13.541
43257W        W15583  36.302   9.814   1.440
43258W        W15584   7.193  41.941  12.989
43259W        W15585  17.098  42.318  13.390
43260W        W15586   7.113   1.761  11.291
43261W        W15587  11.276   9.385  11.925
43262W        W15588   6.730  27.129   4.092
43263W        W15589  35.357  35.853  12.090
43264W        W15590   6.709  16.292  12.974
43265W        W15591  31.518  10.459   0.218
43266W        W15592  38.894  11.393  11.353
43267W        W15593   0.389  19.981  12.158
43268W        W15594  10.342  29.114   4.750
43269W        W15595  10.888  43.814   0.787
43270W        W15596  41.109  14.713   3.238
43271W        W15597  29.172  29.614   2.102
43272W        W15598  25.694   1.431  13.048
43273W        W15599   6.353  14.837  11.192
43274W        W15600  29.127  11.396   1.425
43275W        W15601   2.412   0.339   3.764
43276W        W15602  15.457  12.204  11.588
43277W        W15603  42.304  15.559  10.688
43278W        W15604   1.949  29.238   0.068
43279W        W15605  34.075  13.471   0.554
43280W        W15606  12.044  11.247   0.785
43281W        W15607   2.289   9.674  14.960
43282W        W15608  39.378  23.027   2.051
43283W        W15609  39.326  43.948   2.363
43284W        W15610  11.839  39.425  12.437
43285W        W15611  11.274  20.229  12.416
43286W        W15612  40.901  20.026   2.330
43287W        W15613   6.027  23.011  11.240
43288W        W15614   5.657  14.624  11.054
43289W        W15615  38.509  38.446   2.135
43290W        W15616  39.475  15.812  11.634
43291W        W15617  30.147   3.453  11.575
43292W        W15618   1.488   5.095  12.411
43293W        W15619   5.450  10.186   2.956
43294W        W15620  16.306  30.979   3.101
43295W        W15621   5.947  31.573   3.211
43296W        W15622   9.090  28.428   0.667
43297W        W15623  42.944   8.724  12.276
43298W        W15624   1.690  22.493   0.785
43299W        W15625  29.756   0.918   4.566
43300W        W15626  23.672  42.387  13.406
43301W        W15627  37.378   7.670   0.974
43302W        W15628   0.477  28.565  12.610
43303W        W15629  25.724  13.857  11.187
43304W        W15630  12.261  19.379  13.595
43305W        W15631  26.967   2.901  14.871
43306W        W15632  12.718   0.292  12.868
43307W        W15633  34.432   1.817  14.866
43308W        W15634  11.023  44.755  11.895
43309W        W15635  23.973  14.833  12.580
43310W        W15636   2.864  31.133   1.442
43311W        W15637  28.423  11.290   4.037
43312W        W15638  38.768  12.810   3.447
43313W        W15639  28.781  38.767   2.381
43314W        W15640  32.590   3.817  14.256
43315W        W15641  25.033  31.416  12.584
43316W        W15642  41.976  43.498   2.373
43317W        W15643   2.241  21.055  13.860
43318W        W15644  43.058  11.901   1.888
43319W        W15645  42.730   4.134  12.552
43320W        W15646   7.327  13.576  12.917
43321W        W15647  13.720   1.903   1.649
43322W        W15648  33.918  33.444  11.675
43323W        W15649  28.657  44.361  12.445
43324W        W15650  21.773   2.224   2.724
43325W        W15651  37.892   6.161  12.597
43326W        W15652  26.907  27.113  10.717
43327W        W15653  40.049  10.117   1.867
43328W        W15654  12.376  33.163  12.894
43329W        W15655   7.199  14.295   2.421
43330W        W15656  40.376   3.251   3.705
43331W        W15657  23.698  29.056   3.649
43332W        W15658  40.344   1.510  10.702
43333W        W15659  15.731  21.617  10.892
43334W        W15660  19.737  22.068   4.721
43335W        W15661   1.500  37.911   3.312
43336W        W15662  28.645  24.530   3.489
43337W        W15663  24.751   6.847  12.013
43338W        W15664  31.084  29.045  14.871
43339W        W15665  14.574  41.849   0.883
43340W        W15666  34.123   9.135  11.997
43341W        W15667  31.934  10.848  11.792
43342W        W15668  22.294   8.838   2.756
43343W        W15669  36.152  24.514  12.884
43344W        W15670   7.878  38.336   4.277
43345W        W15671  12.877   8.223   3.361
43346W        W15672  21.019  41.569  14.821
43347W        W15673  35.099  11.378  12.465
43348W        W15674  16.987  13.163   3.783
43349W        W15675   6.321   2.329  14.350
43350W        W15676   7.154  32.933   3.616
43351W        W15677  43.575  43.293  14.307
43352W        W15678  40.979  22.239  10.667
43353W        W15679  31.027  32.215   0.222
43354W        W15680  15.124   3.964  12.505
43355W        W15681  16.473  32.462   3.543
43356W        W15682  17.321  30.039  12.831
43357W        W15683  31.389  15.623  12.843
43358W        W15684  16.270  27.186   2.227
43359W        W15685  18.760  35.279  12.749
43360W        W15686  20.098  15.048  10.620
43361W        W15687  27.973  22.607   1.907
43362W        W15688   0.894   5.470  13.879
43363W        W15689  41.859  41.297  14.393
43364W        W15690  34.524  27.981   4.775
43365W        W15691  24.144  25.985   4.558
43366W        W15692  10.817  40.912  13.094
43367W        W15693   0.534  17.267   4.678
43368W        W15694   3.009  29.217  13.388
43369W        W15695  19.946   0.312   0.843
43370W        W15696  38.409  30.659   3.638
43371W        W15697  40.304  37.770  12.506
43372W        W15698  40.048  35.554  13.530
43373W        W15699  28.962  11.607  12.728
43374W        W15700  38.493  35.792  14.998
43375W        W15701  34.781  11.473  10.780
43376W        W15702   9.741  26.451  13.876
43377W        W15703  33.792  24.344   4.091
43378W        W15704  33.192  13.146  11.872
43379W        W15705  28.138  40.390  13.864
43380W        W15706   8.777  11.687  13.967
43381W        W15707  10.896  21.989  12.921
43382W        W15708  25.395  35.787   1.570
43383W        W15709   4.781  29.732  11.643
43384W        W15710  25.673  28.577   4.394
43385W        W15711   6.273  31.425  12.937
43386W        W15712  22.086  21.200  12.488
43387W        W15713   5.215  43.751  12.521
43388W        W15714  16.337   6.349  10.603
43389W        W15715  27.005  22.918  12.363
43390W        W15716  26.394  25.505   5.226
43391W        W15717  40.845  22.096   3.866
43392W        W15718  39.964  11.803  14.046
43393W        W15719   5.986  18.723   1.203
43394W        W15720  31.835  11.370  11.898
43395W        W15721  42.306  26.337  11.350
43396W        W15722   8.585  27.911   3.300
43397W        W15723  19.837  44.517  11.840
43398W        W15724   9.156  18.987  14.323
43399W        W15725  19.246  25.121  14.356
43400W        W15726  38.219  25.429  14.379
43401W        W15727   6.215  11.340  11.567
43402W        W15728   8.690  36.324   2.712
43403W        W15729  22.684  28.593   0.548
43404W        W15730   4.336  43.961  14.483
43405W        W15731  22.070  24.703  13.459
43406W        W15732   9.417  36.127   1.701
43407W        W15733  29.729   9.161   0.342
43408W        W15734  11.384  38.957  11.362
43409W        W15735  30.503  33.041  12.894
43410W        W15736  40.818  39.844  10.917
43411W        W15737  15.914  36.647   0.925
43412W        W15738  16.372  43.078  14.551
43413W        W15739  10.902   9.575  13.039
43414W        W15740  19.563  33.781   3.592
43415W        W15741  27.336  38.469  11.088
43416W        W15742  13.027  37.201   0.746
43417W        W15743  10.304  10.679   4.975
43418W        W15744   9.890  30.048  10.633
43419W        W15745  29.192  43.861   3.396
43420W        W15746   6.610   2.278  12.554
43421W        W15747  14.234  33.438  14.109
43422W        W15748  32.104  44.524   3.866
43423W        W15749  13.607   4.768  11.855
43424W        W15750  21.993  44.420  12.462
43425W        W15751  37.451   7.152  14.389
43426W        W15752   5.440   9.190  14.495
43427W        W15753  16.002   0.944  14.315
43428W        W15754   1.896   9.339   4.181
43429W        W15755  17.330  37.987   2.122
43430W        W15756  18.811  19.034   3.298
43431W        W15757  41.236  40.560   1.402
43432W        W15758   7.392  33.449   0.787
43433W        W15759  15.093  17.756  13.030
43434W        W15760   2.966  10.763  14.927
43435W        W15761  27.994   4.232   1.777
43436W        W15762  36.911   2.718   2.736
43437W        W15763  44.493  23.060   2.733
43438W        W15764  39.379   4.361  14.923
43439W        W15765  40.910  10.316   2.765
43440W        W15766   8.457  32.444  12.378
43441W        W15767  28.439  23.707   1.431
43442W        W15768  37.982  26.573   0.312
43443W        W15769  38.841  30.947  14.762
43444W        W15770  36.179  24.688  14.484
43445W        W15771  39.817  34.657  11.929
43446W        W15772   2.431   2.037  12.051
43447W        W15773  18.654  22.685   4.355
43448W        W15774  42.025  28.040   3.574
43449W        W15775  35.399  44.956  14.390
43450W        W15776  26.976   7.123   4.226
43451W        W15777  27.696   5.333   0.452
43452W        W15778  37.468  28.714  13.370
43453W        W15779  38.463  29.538   1.413
43454W        W15780  44.381   7.632   4.586
43455W        W15781  38.922  40.815  12.436
43456W        W15782  10.565  15.141  13.336
43457W        W15783  16.778   1.554  11.569
43458W        W15784  41.740  24.990  14.467
43459W        W15785  22.733  12.568   4.041
43460W        W15786  26.822  11.713   2.804
43461W        W15787  16.239  39.866  10.892
43462W        W15788   9.214  18.250   1.924
43463W        W15789   0.528  44.371   4.985
43464W        W15790  15.279   3.708   1.220
43465W        W15791  30.461  23.302   1.353
43466W        W15792  20.775  39.802  13.780
43467W        W15793  40.745  21.238   2.806
43468W        W15794  38.053  17.784   4.270
43469W        W15795   6.826  35.666   1.102
43470W        W15796  39.590  37.316  13.786
43471W        W15797  39.898  40.305   0.220
43472W        W15798   5.357  14.069   1.916
43473W        W15799   1.582  22.796   0.373
43474W        W15800  28.337  21.269   0.412
43475W        W15801  11.648  13.935   1.416
43476W        W15802  21.491   3.743  14.325
43477W        W15803  11.517  10.080  12.312
43478W        W15804  14.162  27.428   2.753
43479W        W15805  25.605   2.010  14.733
43480W        W15806   2.388  30.382   4.646
43481W        W15807  21.614  24.465  14.563
43482W        W15808  28.210  37.371  13.827
43483W        W15809   6.348  23.000   2.704
43484W        W15810  31.059  10.332   3.854
43485W        W15811  27.971  31.983   3.714
43486W        W15812  22.167  10.800   2.694
43487W        W15813  21.347  36.436  11.627
43488W        W15814  13.266   4.800  13.335
43489W        W15815  31.685   0.329  14.446
43490W        W15816  11.383  34.077  12.941
43491W        W15817   7.076   1.410   1.235
43492W        W15818  44.437  11.861  10.543
43493W        W15819  21.478  13.132  13.095
43494W        W15820  13.118  32.589  12.078
43495W        W15821  27.186  35.406  10.351
43496W        W15822  33.998  25.094   4.573
43497W        W15823  11.596   7.634  14.818
43498W        W15824   7.500  30.061  11.337
43499W        W15825   4.220  29.391  14.223
43500W        W15826  19.674   7.212   0.428
43501W        W15827  35.977  33.554   2.398
43502W        W15828   9.257  24.419   1.265
43503W        W15829  14.395  36.062   4.265
43504W        W15830  16.765   5.041   1.267
43505W        W15831  17.801  32.993   3.869
43506W        W15832  29.453  33.817  14.447
43507W        W15833  14.611  17.704  13.908
43508W        W15834  31.004  30.163   3.011
43509W        W15835  44.309   3.477  14.416
43510W        W15836   1.906  25.138  13.340
43511W        W15837  26.189  20.184  14.043
43512W        W15838  27.879  44.381  12.619
43513W        W15839   4.495   5.494  13.864
43514W        W15840   1.517   0.256   1.813
43515W        W15841  16.634  25.497   4.448
43516W        W15842  36.189  38.757  11.032
43517W        W15843  28.666  18.081   0.364
43518W        W15844   3.727  34.884  14.357
43519W        W15845   2.748  22.202   2.777
43520W        W15846  37.721  31.505  10.309
43521W        W15847   7.701  24.786   0.907
43522W        W15848  12.621  21.954   1.013
43523W        W15849  19.701  14.121  11.586
43524W        W15850  23.318  19.195  11.972
43525W        W15851  40.364  17.745  12.060
43526W        W15852  36.989  13.969   4.964
43527W        W15853  23.290  38.459  14.021
43528W        W15854  33.974  24.810   1.842
43529W        W15855  23.271   0.876  13.386
43530W        W15856  11.652  22.565  11.619
43531W        W15857   2.069  38.762  13.935
43532W        W15858  30.843  21.695  11.003
43533W        W15859  37.016   5.666  12.684
43534W        W15860  35.044   0.042   1.721
43535W        W15861  17.530  36.918  12.066
43536W        W15862  37.614   6.666  14.427
43537W        W15863  33.664  43.024  12.302
43538W        W15864  40.933  34.874  12.111
43539W        W15865  17.499  40.573   4.339
43540W        W15866   2.355   4.875   3.337
43541W        W15867  13.770  13.633  11.580
43542W        W15868   0.970  33.013   3.803
43543W        W15869  33.782  30.924   2.728
43544W        W15870  13.081  22.097  13.538
43545W        W15871   5.840  43.923  12.460
43546W        W15872  17.777  12.710   2.747
43547W        W15873   3.230  33.700  14.208
43548W        W15874  16.011  26.537  14.109
43549W        W15875  29.426   8.277  10.726
43550W        W15876  17.390  14.665  13.432
43551W        W15877  37.829   2.179  11.374
43552W        W15878  43.084  25.123   4.260
43553W        W15879  40.932  42.959   1.601
43554W        W15880   2.855   7.189  12.905
43555W        W15881  15.390  23.169   2.880
43556W        W15882  36.430  38.400  14.644
43557W        W15883   0.056  36.000  14.225
43558W        W15884  16.780   8.329   1.832
43559W        W15885  36.145  40.056  12.810
43560W        W15886  35.573   3.444   4.175
43561W        W15887  31.099  29.399   4.653
43562W        W15888  43.975  31.548   2.726
43563W        W15889  10.113  13.700   0.284
43564W        W15890  37.068  39.150   0.386
43565W        W15891  16.146  28.595   3.678
43566W        W15892  32.114   3.737   0.050
43567W        W15893   1.722  30.216   3.244
43568W        W15894   2.200  43.603   2.788
43569W        W15895  33.605  31.251  14.872
43570W        W15896  31.821   2.356   3.275
43571W        W15897   1.653  16.832  10.730
43572W        W15898  27.550  10.377  14.878
43573W        W15899  41.316  13.227   3.142
43574W        W15900   7.956  44.995   3.701
43575W        W15901   6.620   8.869  11.551
43576W        W15902  35.036   1.171  13.867
43577W        W15903  34.937   5.331   1.407
43578W        W15904   4.386  13.580   1.764
43579W        W15905   2.957  19.342  11.610
43580W        W15906  32.095  32.727  13.692
43581W        W15907  30.398  43.909   0.767
43582W        W15908  16.585   3.711  12.545
43583W        W15909  35.594  15.080  12.316
43584W        W15910  20.204   9.781   0.854
43585W        W15911   7.259  31.598   3.095
43586W        W15912  41.020  27.472  13.442
43587W        W15913  41.912  36.542  12.998
43588W        W15914  22.072  19.629   0.060
43589W        W15915   7.666  29.958   0.455
43590W        W15916  32.719  20.384  11.206
43591W        W15917   1.483  12.374  12.664
43592W        W15918   8.273   7.403  14.725
43593W        W15919  12.335  39.480  11.688
43594W        W15920  42.513  34.381   3.376
43595W        W15921  12.208  11.134  14.389
43596W        W15922   8.937  21.142   1.333
43597W        W15923  19.942  40.396   3.517
43598W        W15924   9.345  32.183  14.393
43599W        W15925  23.447  38.892   3.793
43600W        W15926   9.786  31.988  11.444
43601W        W15927   4.892  14.340  11.183
43602W        W15928  42.443  37.064  11.661
43603W        W15929  30.579  34.346   3.275
43604W        W15930  33.736  11.700  14.850
43605W        W15931   1.746  18.766   0.022
43606W        W15932  38.410  24.233   2.940
43607W        W15933  33.970  38.294   4.587
43608W        W15934  18.159   8.371  13.432
43609W        W15935  37.610   7.478  11.633
43610W        W15936  25.186  37.924   1.593
43611W        W15937  32.090  34.839  12.949
43612W        W15938  37.782  44.891   2.323
43613W        W15939  38.075  18.137   4.653
43614W        W15940  13.913   1.720  11.191
43615W        W15941   6.419  33.994  14.798
43616W        W15942   6.844   5.661   3.661
43617W        W15943  22.076   9.595  12.066
43618W        W15944  24.093  18.034   3.435
43619W        W15945  16.209  20.672  14.254
43620W        W15946  10.198   2.976   1.387
43621W        W15947  33.958  43.021  11.879
43622W        W15948  28.627   7.314  11.090
43623W        W15949  32.708  21.263   3.605
43624W        W15950  30.110  36.909  13.599
43625W        W15951   1.769  14.432   4.549
43626W        W15952  44.454  31.864  10.235
43627W        W15953  17.361  23.687   1.436
43628W        W15954   5.764  17.728   1.050
43629W        W15955   5.730  22.666   1.633
43630W        W15956  12.766  31.186  11.066
43631W        W15957  28.518  42.880   3.565
43632W        W15958  19.573  13.639  12.999
43633W        W15959   7.803  16.085  11.016
43634W        W15960  36.374  12.377   0.213
43635W        W15961  34.598   3.635   2.688
43636W        W15962   2.757  23.430  13.423
43637W        W15963  25.567  35.314  10.521
43638W        W15964  38.796  39.337   0.443
43639W        W15965  33.916  28.954   4.171
43640W        W15966   8.938  35.588  12.946
43641W        W15967   0.642  30.859   0.744
43642W        W15968  15.727  19.810   2.310
43643W        W15969  19.155  38.895   4.126
43644W        W15970  27.732  29.770  11.780
43645W        W15971   2.192  40.033   2.507
43646W        W15972  14.844  16.310   1.439
43647W        W15973  36.576   1.723   1.375
43648W        W15974  39.309   1.008   4.417
43649W        W15975  11.161  10.128  14.224
43650W        W15976  23.681  41.725  14.925
43651W        W15977  14.391  32.457  11.361
43652W        W15978  42.224  31.402  12.835
43653W        W15979  10.808  18.319   1.290
43654W        W15980  32.060  44.402  11.939
43655W        W15981   1.257   6.184  10.740
43656W        W15982  22.560  42.743   2.812
43657W        W15983  11.643  16.713  12.050
43658W        W15984  28.477  26.104   2.666
43659W        W15985  32.946  30.432  12.486
43660W        W15986   9.349  20.679   4.668
43661W        W15987  30.083  22.089  14.531
43662W        W15988   3.931  42.877  12.862
43663W        W15989  28.885   8.239  10.747
43664W        W15990  10.609  18.844  12.478
43665W        W15991   9.349  42.514   1.167
43666W        W15992  40.578  10.180   0.937
43667W        W15993  42.253   2.266   0.350
43668W        W15994   4.802   6.350   4.169
43669W        W15995   8.974   8.013   1.392
43670W        W15996  10.059  14.153   3.555
43671W        W15997  34.055  32.394  14.706
43672W        W15998  36.531  29.551  13.086
43673W        W15999  36.627  16.319  11.963
43674W        W16000  30.863   8.219  12.958
43675W        W16001   5.920  43.274  14.622
43676W        W16002   4.127  36.986  13.384
43677W        W16003  38.484   0.831   0.888
43678W        W16004  42.894  42.980  11.365
43679W        W16005  44.412  42.799  10.797
43680W        W16006   9.371  36.473   3.295
43681W        W16007  18.334  36.679  10.704
43682W        W16008  22.002  41.982   4.072
43683W        W16009  21.657  29.969  11.543
43684W        W16010  23.035  28.032  10.678
43685W        W16011  23.989   6.635   1.413
43686W        W16012   9.624  22.547  10.649
43687W        W16013   6.768   0.943  13.752
43688W        W16014  42.995  17.101   1.436
43689W        W16015   4.909   2.140   5.142
43690W        W16016  28.397  44.468  14.504
43691W        W16017   0.228  21.594   1.966
43692W        W16018  32.809  39.269  14.093
43693W        W16019   5.326  18.805  12.468
43694W        W16020  17.571  10.733   2.841
43695W        W16021   9.919  14.404  14.289
43696W        W16022  19.730  39.203  10.710
43697W        W16023  25.592  23.957  11.142
43698W        W16024  42.577   8.465  10.304
43699W        W16025  21.043  14.583  13.431
43700W        W16026   0.238  40.339  12.872
43701W        W16027  27.053  39.161   2.850
43702W        W16028  15.581  29.075  14.765
43703W        W16029  20.265   8.643   1.382
43704W        W16030  11.773  21.629   0.236
43705W        W16031  32.919  38.981  12.389
43706W        W16032  34.865  41.468  12.724
43707W        W16033  39.070  41.878  13.116
43708W        W16034  24.136   3.215  13.959
43709W        W16035   3.133  19.026   4.216
43710W        W16036  13.893   0.465  14.805
43711W        W16037   8.883  26.677   3.925
43712W        W16038  26.167  40.987  11.564
43713W        W16039  22.442  24.725  13.842
43714W        W16040  44.670   6.849  12.136
43715W        W16041  32.900  18.503  14.175
43716W        W16042  44.917  19.263   0.193
43717W        W16043  44.372  31.395  14.271
43718W        W16044  37.106  37.153  12.550
43719W        W16045  24.264  14.156  11.793
43720W        W16046  24.194  25.640   0.889
43721W        W16047  12.900  40.828  14.250
43722W        W16048  17.141  37.896   2.610
43723W        W16049  17.016   1.637   2.250
43724W        W16050  36.336  21.080  11.135
43725W        W16051  38.794  41.499   3.662
43726W        W16052   3.920   6.300   0.689
43727W        W16053  29.818  36.870   0.344
43728W        W16054   6.798  41.226   2.494
43729W        W16055  41.001  39.926   1.757
43730W        W16056   6.303  24.271  11.141
43731W        W16057   0.712  38.359  13.361
43732W        W16058   5.260  20.804   0.162
43733W        W16059  34.503  14.353  10.713
43734W        W16060   5.840  36.677   3.893
43735W        W16061  24.200  27.191  12.927
43736W        W16062   0.839   4.350  13.548
43737W        W16063  30.558   4.464   1.084
43738W        W16064  28.286  30.908  12.593
43739W        W16065  14.563   9.562  14.217
43740W        W16066   3.332  40.364   3.634
43741W        W16067  36.942  22.963  11.182
43742W        W16068  11.698   6.379   2.251
43743W        W16069   3.100  39.273  13.232
43744W        W16070  37.886  10.375  11.525
43745W        W16071  41.125   2.754  12.813
43746W        W16072  34.624   4.146  13.567
43747W        W16073  37.999   9.201  13.787
43748W        W16074   7.136  38.501   1.284
43749W        W16075  23.911  32.937   2.818
43750W        W16076   0.366  44.799  12.548
43751W        W16077  28.847   4.905  12.571
43752W        W16078   3.099   0.451   1.670
43753W        W16079  15.625  16.612  11.675
43754W        W16080  12.759  22.007  11.472
43755W        W16081  14.484  40.850  14.549
43756W        W16082   8.777  23.047   1.368
43757W        W16083   2.393  25.405  14.672
43758W        W16084  41.122  34.092  11.613
43759W        W16085  37.630  27.561  12.407
43760W        W16086  32.062  42.834  13.875
43761W        W16087  44.789  29.981  14.315
43762W        W16088  44.495  17.851   1.836
43763W        W16089  28.728  23.569   2.826
43764W        W16090  29.977   9.372   4.211
43765W        W16091  40.281  20.322  13.594
43766W        W16092  39.865  31.970  14.285
43767W        W16093  37.377  37.304   0.242
43768W        W16094   5.207  20.793  12.055
43769W        W16095  42.184  20.113  11.373
43770W        W16096  33.170  17.810   3.998
43771W        W16097  33.463  36.566  13.345
43772W        W16098   2.702   1.190   3.652
43773W        W16099  36.469  38.084   1.395
43774W        W16100  21.072  43.094  10.106
43775W        W16101  43.539   6.689  10.441
43776W        W16102  17.665  39.317  10.292
43777W        W16103  32.357  41.852   3.303
43778W        W16104  41.440  17.240  12.545
43779W        W16105   3.977  29.072   1.452
43780W        W16106   5.167   3.200   0.292
43781W        W16107   1.855  13.449  11.230
43782W        W16108  16.730  41.360   3.211
43783W        W16109  18.305   9.151   2.880
43784W        W16110  39.807  23.522  13.295
43785W        W16111  15.231   2.708   0.266
43786W        W16112  40.375   6.878  13.665
43787W        W16113  12.807  17.149  10.770
43788W        W16114   8.569  29.137  11.626
43789W        W16115   8.840  38.326  11.965
43790W        W16116  22.515  12.349  11.446
43791W        W16117  33.859   1.684  12.964
43792W        W16118   7.622   4.623  10.998
43793W        W16119  18.612  12.865   4.508
43794W        W16120  25.207  29.888  14.913
43795W        W16121  37.833  33.507   1.032
43796W        W16122  43.519  36.025   4.856
43797W        W16123  21.930  11.268   3.845
43798W        W16124   0.614  27.932   1.889
43799W        W16125  26.522  44.586   5.342
43800W        W16126  18.671   1.288   2.857
43801W        W16127   2.702  34.371   0.003
43802W        W16128  27.306  19.104  13.668
43803W        W16129   7.149   8.807  11.438
43804W        W16130  15.786  19.972   0.443
43805W        W16131  20.726  17.291  10.817
43806W        W16132   0.288   0.901  13.305
43807W        W16133  31.508  44.217   4.524
43808W        W16134  30.407  29.858  13.499
43809W        W16135  14.176  35.891  14.882
43810W        W16136  17.733  26.793   1.998
43811W        W16137  39.772   5.553  10.937
43812W        W16138   9.401  21.613   3.741
43813W        W16139  11.554   6.466  12.308
43814W        W16140  21.955  28.863   1.927
43815W        W16141  28.455  32.853  12.070
43816W        W16142   3.726  16.051  13.914
43817W        W16143  27.916  36.980   3.432
43818W        W16144  40.107   3.311   2.341
43819W        W16145  35.926  37.026   4.078
43820W        W16146  40.494  17.817   1.046
43821W        W16147   2.881   3.249  14.597
43822W        W16148  30.069  23.161  11.351
43823W        W16149  36.052   5.736  13.067
43824W        W16150  14.425  10.391  11.187
43825W        W16151  30.835  23.452   0.937
43826W        W16152  19.621  42.555   2.799
43827W        W16153  10.486  37.409  11.133
43828W        W16154  15.084  35.236   5.280
43829W        W16155  43.759  11.835   4.323
43830W        W16156  13.881   4.331  12.786
43831W        W16157  23.103  18.552  13.632
43832W        W16158   8.300  38.854  12.942
43833W        W16159  27.811   9.445  12.551
43834W        W16160  25.759  26.484   5.454
43835W        W16161  30.852  35.291   3.746
43836W        W16162  31.126   0.414   1.315
43837W        W16163   9.490  34.650   0.932
43838W        W16164  10.831  44.351  12.147
43839W        W16165  38.425   1.793  11.875
43840W        W16166  20.728  11.899   3.651
43841W        W16167  26.058   1.681   2.675
43842W        W16168  23.648  31.471  12.568
43843W        W16169  36.460  21.269  13.398
43844W        W16170  44.853  30.136  10.625
43845W        W16171  17.894   0.763   0.331
43846W        W16172  38.492  22.582  11.173
43847W        W16173  44.760  25.174  12.489
43848W        W16174  23.325  32.252   1.426
43849W        W16175  10.719  44.384   4.865
43850W        W16176  34.022  19.126  13.098
43851W        W16177  30.508  19.716   0.629
43852W        W16178   2.942  28.124  13.970
43853W        W16179  24.073  35.044  11.375
43854W        W16180   8.010   1.368   1.431
43855W        W16181   7.925  37.964   4.634
43856W        W16182  17.474  21.186   0.596
43857W        W16183  30.176   0.971   2.264
43858W        W16184  31.014  31.958  12.475
43859W        W16185  35.126   6.471  11.544
43860W        W16186  26.326  10.742   0.721
43861W        W16187  42.413  20.944   2.210
43862W        W16188  14.694   6.011  14.362
43863W        W16189  26.382  10.886  14.440
43864W        W16190  22.742  27.091  10.026
43865W        W16191  29.052  23.113  10.695
43866W        W16192  29.928  42.854  14.819
43867W        W16193  16.114  15.271   0.436
43868W        W16194  33.888  43.954   3.173
43869W        W16195  31.019   3.652  11.109
43870W        W16196  33.398   4.219   3.697
43871W        W16197  31.262  25.516   2.240
43872W        W16198  18.211  30.421  11.953
43873W        W16199  14.988  35.810   2.417
43874W        W16200  28.735  25.511   1.706
43875W        W16201  43.900   5.689   0.323
43876W        W16202  16.565  35.953  11.605
43877W        W16203  22.303  13.650  14.431
43878W        W16204  44.627   2.387  12.008
43879W        W16205  44.254   0.395   2.222
43880W        W16206   1.426  25.140  13.541
43881W        W16207   9.886  43.562  13.846
43882W        W16208  20.322  31.849   3.630
43883W        W16209  32.012  17.775   2.422
43884W        W16210  33.034  34.978   5.676
43885W        W16211  27.181  33.655   4.144
43886W        W16212  10.073   0.687  12.131
43887W        W16213  38.267  38.224   4.300
43888W        W16214  38.412  25.737   3.670
43889W        W16215  28.138  41.899  14.492
43890W        W16216  40.842  41.025  14.945
43891W        W16217  20.128  25.508  14.794
43892W        W16218  25.007   3.961  11.165
43893W        W16219  37.661   7.639   3.922
43894W        W16220  10.408  17.288   4.598
43895W        W16221  13.092  12.734  14.773
43896W        W16222  23.262   8.840  11.958
43897W        W16223  39.240   0.827   3.434
43898W        W16224  39.896  36.869  11.630
43899W        W16225  34.783  19.009  11.097
43900W        W16226   1.939  44.249  10.746
43901W        W16227  40.091  37.910  14.485
43902W        W16228  38.943  34.794  14.071
43903W        W16229  35.104  10.215   3.649
43904W        W16230  16.197  27.984  13.135
43905W        W16231  31.673  10.813   1.407
43906W        W16232  30.970   9.468   2.703
43907W        W16233   3.676  33.133  13.868
43908W        W16234   9.930  14.323  10.533
43909W        W16235  18.588  25.456   0.451
43910W        W16236  31.432  11.267   1.504
43911W        W16237  27.050  41.536   3.362
43912W        W16238  12.899   8.074  13.609
43913W        W16239  43.306  11.124   0.365
43914W        W16240  11.317   7.179   0.688
43915W        W16241  34.351  42.309  12.992
43916W        W16242   4.513  13.157   4.167
43917W        W16243  30.905  37.000  11.543
43918W        W16244  23.184   2.520  12.862
43919W        W16245  11.995   3.749   1.259
43920W        W16246  11.829  10.117   1.245
43921W        W16247  36.457  33.714   2.362
43922W        W16248  21.024  23.069  10.569
43923W        W16249   0.897   8.229  13.387
43924W        W16250  17.645   0.839   0.779
43925W        W16251   4.355  11.339  13.916
43926W        W16252  17.271  11.281   3.490
43927W        W16253  32.858  10.599  12.386
43928W        W16254   7.161  44.856   3.243
43929W        W16255  29.238  25.130   5.040
43930W        W16256  12.110   3.992  13.085
43931W        W16257   2.234  39.826  10.683
43932W        W16258  37.329   0.216  11.786
43933W        W16259   0.013   0.077  14.496
43934W        W16260  10.916   0.883  10.211
43935W        W16261  34.175  22.151   2.830
43936W        W16262  44.562   0.364  10.945
43937W        W16263   1.146  38.075  11.111
43938W        W16264   2.489  10.634  11.107
43939W        W16265  41.799  35.020   0.977
43940W        W16266   1.821  24.675  10.530
43941W        W16267  38.380   3.757   0.493
43942W        W16268   0.139  37.320   2.377
43943W        W16269  18.224  18.288   4.209
43944W        W16270   4.344  20.254  10.693
43945W        W16271  32.885  42.060   0.286
43946W        W16272   0.999  30.468  11.456
43947W        W16273  20.347  10.672  11.677
43948W        W16274  15.675  19.482   0.551
43949W        W16275  30.135   9.127   4.649
43950W        W16276  22.011  43.882   4.569
43951W        W16277  21.128  41.565  13.873
43952W        W16278  44.847  23.245  13.834
43953W        W16279  25.622  42.061  12.495
43954W        W16280  24.958  15.081  12.532
43955W        W16281  18.688  39.437   3.115
43956W        W16282  43.768  34.442  13.120
43957W        W16283  36.907   6.908  13.085
43958W        W16284   9.304  44.120  12.948
43959W        W16285  42.528  37.753  12.936
43960W        W16286   9.985  24.069  12.825
43961W        W16287  12.913   7.297   4.824
43962W        W16288   7.803  16.527  12.365
43963W        W16289  39.183  28.377  12.926
43964W        W16290  18.877  25.561   4.543
43965W        W16291  17.310  33.565   1.717
43966W        W16292  42.424  36.813   0.738
43967W        W16293  41.937  19.539  14.107
43968W        W16294   6.934   1.324   3.125
43969W        W16295  10.220  24.440  14.571
43970W        W16296  15.199  34.622  13.981
43971W        W16297  37.964  14.094  12.523
43972W        W16298  29.165  24.511  13.446
43973W        W16299  32.304   3.847  11.636
43974W        W16300   1.350  35.336   2.138
43975W        W16301  43.106  32.184  10.084
43976W        W16302  22.887  26.392   2.700
43977W        W16303  44.637  35.915   5.042
43978W        W16304  13.734   8.974  14.361
43979W        W16305  25.732  27.024   4.182
43980W        W16306   4.754  30.229   9.893
43981W        W16307   6.323  32.901  10.341
43982W        W16308   7.600  16.834  10.678
43983W        W16309   8.860  12.809  10.123
43984W        W16310   2.877  43.411   4.579
43985W        W16311  44.541  31.692   2.084
43986W        W16312   1.253  22.291   1.423
43987W        W16313  42.554  22.467   1.749
43988W        W16314  25.461  31.495  11.216
43989W        W16315  28.033  33.320   2.690
43990W        W16316  24.008   8.901  10.712
43991W        W16317  34.632  13.192   2.896
43992W        W16318  26.971   6.386   2.272
43993W        W16319  26.403  29.967   1.278
43994W        W16320  33.646  23.093  14.471
43995W        W16321  17.218  28.833   3.122
43996W        W16322  30.065  22.975   2.401
43997W        W16323  15.059  15.105   2.265
43998W        W16324  22.943  18.013   1.892
43999W        W16325  21.663  32.123   3.595
44000W        W16326  41.540   4.262   4.377
44001W        W16327  19.273  42.469   1.780
44002W        W16328  30.069  21.720  13.259
44003W        W16329  13.345  31.795  11.541
44004W        W16330  18.924  26.622  12.590
44005W        W16331  38.304  31.870   4.373
44006W        W16332   5.185  20.819  13.342
44007W        W16333   2.326  12.353   4.828
44008W        W16334  37.481  21.969   1.269
44009W        W16335  39.810   5.144   1.915
44010W        W16336  27.405  13.724  13.282
44011W        W16337   5.792  35.681   3.618
44012W        W16338   6.096  15.556  11.565
44013W        W16339  23.669   5.333   0.188
44014W        W16340  28.075  38.482   1.890
44015W        W16341  44.079  15.347   2.686
44016W        W16342   9.693  32.613   3.335
44017W        W16343  18.271  28.366  12.463
44018W        W16344   3.949  39.522   2.840
44019W        W16345  20.011   1.565  12.815
44020W        W16346  20.301   6.337  14.878
44021W        W16347   2.000  24.489  14.193
44022W        W16348  43.389  38.442  12.870
44023W        W16349   8.033  33.129  11.289
44024W        W16350  28.935  41.367  13.398
44025W        W16351  10.662  30.625   1.501
44026W        W16352  35.997  27.499   3.829
44027W        W16353  14.586  37.184  11.089
44028W        W16354   4.552   7.391   4.985
44029W        W16355   2.930   1.747   2.826
44030W        W16356  25.582  13.961  12.404
44031W        W16357   0.312  40.030  14.081
44032W        W16358   1.635  26.987   2.621
44033W        W16359  13.864  33.830   4.593
44034W        W16360  24.264   4.955  10.496
44035W        W16361   4.964  18.258  12.434
44036W        W16362  29.164  14.270   4.119
44037W        W16363   8.722  30.346   1.115
44038W        W16364  19.155   7.906  13.426
44039W        W16365   3.833  36.178   1.797
44040W        W16366  35.893  42.835   4.649
44041W        W16367  11.637  11.060  12.388
44042W        W16368  36.707  30.413  13.796
44043W        W16369  20.678  39.984   4.628
44044W        W16370  13.840  25.269   1.284
44045W        W16371  27.915  26.707   0.527
44046W        W16372  34.393  24.527  14.785
44047W        W16373  31.088  14.127  10.895
44048W        W16374  29.388   3.506   1.826
44049W        W16375   5.391  40.962   4.595
44050W        W16376  37.459  17.186   3.649
44051W        W16377  36.557  14.672  11.494
44052W        W16378   0.748  37.433  10.175
44053W        W16379  34.486  27.530  13.047
44054W        W16380  43.048  34.484  13.905
44055W        W16381  13.526  13.533  12.434
44056W        W16382  10.108  40.050   2.720
44057W        W16383  31.363  22.803  11.174
44058W        W16384  28.127   3.094   0.527
44059W        W16385  27.436   8.615   4.275
44060W        W16386  36.679  28.574  11.649
44061W        W16387  12.318  37.470  14.013
44062W        W16388  14.690  26.649   5.544
44063W        W16389  31.621  22.959   0.491
44064W        W16390  28.648  39.822  13.909
44065W        W16391  39.792  25.969   4.593
44066W        W16392  20.280   0.666  13.531
44067W        W16393  42.387   6.332   3.409
44068W        W16394  18.603  24.972  14.980
44069W        W16395  38.105  14.164   0.818
44070W        W16396  33.959  35.927  10.316
44071W        W16397  10.780  17.423   0.913
44072W        W16398  24.100  29.976  13.353
44073W        W16399   8.006  33.394   5.087
44074W        W16400  30.229  22.079   0.018
44075W        W16401  38.061  44.457  10.539
44076W        W16402   0.936  23.804   3.277
44077W        W16403   6.869  11.573   2.359
44078W        W16404  26.632   3.282   4.081
44079W        W16405  26.733  44.462  13.858
44080W        W16406  36.883  38.166  13.244
44081W        W16407   0.835  43.139  14.949
44082W        W16408   2.930  26.163   0.653
44083W        W16409  27.457  26.555   4.523
44084W        W16410  36.575   1.846  13.551
44085W        W16411  32.086  24.768  14.517
44086W        W16412  14.703   5.982   0.211
44087W        W16413  34.542   0.792   4.990
44088W        W16414  33.312   0.538  13.024
44089W        W16415  28.514  21.157  11.384
44090W        W16416  30.418  30.493   1.856
44091W        W16417  30.481  37.363  13.440
44092W        W16418  20.789  32.349  11.171
44093W        W16419   9.830  39.819  13.381
44094W        W16420  20.811  44.300  13.502
44095W        W16421  36.487  10.018  11.933
44096W        W16422  19.090  16.275  11.711
44097W        W16423  42.455   7.738  13.022
44098W        W16424  30.050   6.462   2.698
44099W        W16425  40.650  40.577  14.312
44100W        W16426   4.753  11.032  14.010
44101W        W16427   7.693  41.283   0.861
44102W        W16428  13.336  27.833  10.712
44103W        W16429  15.500  27.409   2.224
44104W        W16430  25.456  14.862  14.942
44105W        W16431  28.158  34.871   1.426
44106W        W16432  26.110   4.942   2.209
44107W        W16433   3.414  22.078   3.845
44108W        W16434  35.632  24.579  12.854
44109W        W16435   0.503  14.100  12.868
44110W        W16436   1.999   5.186  12.483
44111W        W16437  37.920  36.083  11.025
44112W        W16438   1.806  11.659   2.925
44113W        W16439  23.144  25.894  12.502
44114W        W16440  16.507  18.230  14.459
44115W        W16441   5.071  21.434  12.547
44116W        W16442   9.192   6.716  11.009
44117W        W16443  30.237  18.433  12.569
44118W        W16444  31.012   3.896   1.815
44119W        W16445  36.193  35.453  14.480
44120W        W16446  29.695  33.039  12.486
44121W        W16447   4.265  36.294  14.516
44122W        W16448  41.906   8.964   2.077
44123W        W16449  11.428  12.145   1.021
44124W        W16450  32.021  16.745   3.167
44125W        W16451  16.904   7.166   1.560
44126W        W16452   6.451  15.156   1.469
44127W        W16453  44.727  39.000  12.122
44128W        W16454  22.835   8.738   0.638
44129W        W16455  30.096  43.990  13.486
44130W        W16456  35.333  12.021   1.914
44131W        W16457   1.750  16.957   4.177
44132W        W16458  35.117  29.181   4.365
44133W        W16459  13.599  19.707  11.529
44134W        W16460  29.485  15.383   0.017
44135W        W16461  40.319   8.327   0.783
44136W        W16462  21.600  25.439   1.434
44137W        W16463  39.483  34.304  13.355
44138W        W16464  16.585  43.356   0.698
44139W        W16465  42.606  10.209   0.239
44140W        W16466   6.323  20.127   3.521
44141W        W16467  20.901  39.440   0.771
44142W        W16468  24.216  28.071  14.283
44143W        W16469  20.139   2.222  14.322
44144W        W16470  44.454  19.666  13.029
44145W        W16471  15.394   4.754   3.682
44146W        W16472  15.841   1.949  11.099
44147W        W16473  25.792   2.986  10.445
44148W        W16474  30.221  42.070  14.212
44149W        W16475  28.970  38.400  14.825
44150W        W16476  17.921  11.460  12.909
44151W        W16477  16.533   4.270   1.790
44152W        W16478  15.155   0.109   4.189
44153W        W16479   4.135  32.631  11.280
44154W        W16480   3.864  34.991   0.734
44155W        W16481  23.942  33.890  11.435
44156W        W16482  30.581  36.793  11.171
44157W        W16483  17.846  35.832   4.867
44158W        W16484  32.850   5.384   2.788
44159W        W16485  30.101  15.008  10.587
44160W        W16486   4.349  30.618  11.552
44161W        W16487  38.493  14.137  10.437
44162W        W16488  11.213  43.574  12.149
44163W        W16489  27.684  30.915  13.104
44164W        W16490  25.551  10.910   3.848
44165W        W16491  13.737  33.022  11.909
44166W        W16492  26.765   9.353  13.423
44167W        W16493   6.821  21.547   0.003
44168W        W16494  42.463   5.002   0.303
44169W        W16495   4.456   4.978   3.698
44170W        W16496  15.548  38.320   4.326
44171W        W16497  30.484  30.361  13.421
44172W        W16498   2.288  17.132  12.167
44173W        W16499  34.434  17.727   0.340
44174W        W16500  28.508   2.248  12.969
44175W        W16501   4.869  12.814   0.259
44176W        W16502  25.577  31.434   3.457
44177W        W16503  42.811  19.760   1.404
44178W        W16504   5.451  35.457  14.003
44179W        W16505  32.118  36.069   0.221
44180W        W16506   1.452  44.771   4.805
44181W        W16507  15.246  41.929   3.077
44182W        W16508  20.680   1.635   1.818
44183W        W16509  11.806  42.095  11.083
44184W        W16510  24.674   9.690  11.561
44185W        W16511  28.024   8.906  14.620
44186W        W16512   1.497   9.767  10.033
44187W        W16513  44.194   9.752  14.931
44188W        W16514  28.055  34.371   1.285
44189W        W16515  31.339  34.066  12.552
44190W        W16516   1.856  28.574  11.280
44191W        W16517  13.886  28.450  13.370
44192W        W16518   8.666  13.236   3.338
44193W        W16519  36.251  14.275   0.437
44194W        W16520  11.277  29.889   3.259
44195W        W16521  12.426  21.404  11.100
44196W        W16522  11.738  43.730  13.401
44197W        W16523  41.879  44.315  14.460
44198W        W16524   7.955  43.311   2.258
44199W        W16525  17.062  41.576  12.841
44200W        W16526  40.032  34.548   3.550
44201W        W16527  10.229  28.436  12.414
44202W        W16528  13.170  18.701   3.907
44203W        W16529  24.006   8.792   3.818
44204W        W16530   1.227  15.240   3.251
44205W        W16531  23.190   1.194  14.334
44206W        W16532  35.076   7.785  10.938
44207W        W16533  12.641   9.785  13.012
44208W        W16534  17.301  19.079  14.536
44209W        W16535   5.186  19.745   1.431
44210W        W16536  27.901   9.257  10.563
44211W        W16537   2.358  39.561   3.336
44212W        W16538  31.154  32.814   2.205
44213W        W16539  27.273  41.980  12.854
44214W        W16540   3.320   4.677  11.926
44215W        W16541   2.885  44.370   2.103
44216W        W16542   3.274  42.014   1.875
44217W        W16543  33.510  25.225   4.649
44218W        W16544  17.056   9.676  11.692
44219W        W16545  27.096  40.372   2.391
44220W        W16546  18.793  29.223   4.097
44221W        W16547   7.406  44.386  11.229
44222W        W16548  38.355  19.544  13.345
44223W        W16549  33.495  40.430  13.801
44224W        W16550   6.818  18.196  10.540
44225W        W16551  35.844  31.824   3.295
44226W        W16552   9.348   4.394  12.496
44227W        W16553   1.966  37.964   1.997
44228W        W16554  40.459  43.257  13.102
44229W        W16555  18.925   1.733  14.339
44230W        W16556   7.249   8.164   4.814
44231W        W16557  17.752  35.414   4.554
44232W        W16558  28.186  13.070   2.016
44233W        W16559  18.172  16.795   1.577
44234W        W16560  13.775  44.602  12.192
44235W        W16561  15.100   7.180  12.041
44236W        W16562  20.760  26.447   1.431
44237W        W16563  40.210  41.288  10.797
44238W        W16564  11.179   9.218   1.772
44239W        W16565  42.452  39.127  12.646
44240W        W16566   7.689  24.629  13.449
44241W        W16567  35.406  40.730   4.142
44242W        W16568  12.899   3.351  13.467
44243W        W16569  30.637   5.298  10.624
44244W        W16570  38.885   4.654  12.103
44245W        W16571  21.656  18.027  14.312
44246W        W16572   6.112  42.055   0.312
44247W        W16573  32.481  21.455   4.178
44248W        W16574  43.319  15.223   4.553
44249W        W16575  17.062  10.862   3.719
44250W        W16576   0.955  21.970  13.057
44251W        W16577  31.647  19.272   2.372
44252W        W16578  24.225  12.417   3.209
44253W        W16579  28.990  21.199   1.267
44254W        W16580  15.413  18.206  12.998
44255W        W16581   7.981   4.556   9.744
44256W        W16582  38.650  14.764  12.317
44257W        W16583  21.773  43.252  14.525
44258W        W16584  32.625  34.387  13.541
44259W        W16585  17.595  30.224  13.273
44260W        W16586  32.642  32.245   0.894
44261W        W16587  28.063  36.038  10.361
44262W        W16588  16.176  29.678   2.697
44263W        W16589  19.010  37.635   1.791
44264W        W16590   1.844   1.261  14.138
44265W        W16591  28.009   2.680   1.738
44266W        W16592  32.365  33.695   4.174
44267W        W16593  21.004  17.232  12.602
44268W        W16594   5.143  42.329  11.705
44269W        W16595  14.237   1.394  14.934
44270W        W16596  41.281  31.964  14.793
44271W        W16597  30.527  20.543  13.444
44272W        W16598  16.743  44.202  12.447
44273W        W16599  16.371  44.317   0.015
44274W        W16600  11.405  26.097   3.339
44275W        W16601   8.789  29.176  13.073
44276W        W16602  37.402  37.304   3.645
44277W        W16603   5.438  13.859   4.751
44278W        W16604  34.560   8.990  11.202
44279W        W16605   6.724  38.500   2.327
44280W        W16606   6.691  44.434   0.419
44281W        W16607   8.674  33.111   3.877
44282W        W16608  22.287  27.208   0.698
44283W        W16609   8.395  44.792   3.865
44284W        W16610  18.827  31.647   3.738
44285W        W16611  18.359  24.632  10.950
44286W        W16612  19.142  36.884   3.739
44287W        W16613  43.099  28.187  12.178
44288W        W16614  14.436   4.786   1.211
44289W        W16615   7.135   4.939   3.339
44290W        W16616  14.160  16.128   2.347
44291W        W16617  19.682  22.148   2.737
44292W        W16618  41.520  34.171   4.804
44293W        W16619  42.437  24.143   4.497
44294W        W16620   5.748   9.384   3.255
44295W        W16621  23.745  15.247   3.284
44296W        W16622  38.323  36.661   1.231
44297W        W16623  14.329  25.987   2.736
44298W        W16624  18.530  38.985   0.836
44299W        W16625  21.200   1.841  12.447
44300W        W16626   1.324  30.460  10.940
44301W        W16627  33.107  44.839  14.775
44302W        W16628  39.867  42.325  11.854
44303W        W16629  39.296  21.957  12.081
44304W        W16630  37.379  44.916   1.396
44305W        W16631  35.993   4.515   1.356
44306W        W16632   2.377  35.992   5.016
44307W        W16633   3.494  26.762   2.854
44308W        W16634  15.828   0.499  10.610
44309W        W16635  16.369  41.926   1.209
44310W        W16636  20.083  31.095  14.341
44311W        W16637   3.375  40.637  12.110
44312W        W16638  26.293  27.563  13.775
44313W        W16639  32.006  22.947  12.540
44314W        W16640  36.479   9.211  11.578
44315W        W16641  14.723  29.111  10.137
44316W        W16642  38.380  27.987   0.375
44317W        W16643  11.385  24.443   1.801
44318W        W16644  18.526  22.738   2.777
44319W        W16645  28.694   0.477   4.096
44320W        W16646  31.038   8.853  13.454
44321W        W16647  33.962  31.524   3.862
44322W        W16648  25.204  13.569   4.234
44323W        W16649  20.159  18.959  13.880
44324W        W16650  43.352  12.164   2.745
44325W        W16651   3.304  39.123   3.297
44326W        W16652  29.878  36.772   0.844
44327W        W16653   4.824  22.286  12.363
44328W        W16654   0.371  38.127  12.139
44329W        W16655  31.971  33.866   2.415
44330W        W16656  32.780  34.799  10.996
44331W        W16657  36.441  34.163  12.617
44332W        W16658   1.281  44.809   2.952
44333W        W16659  23.538  32.185  11.184
44334W        W16660  14.220  12.351  10.409
44335W        W16661  43.732   6.429   1.794
44336W        W16662  26.437  18.309   3.821
44337W        W16663  34.816  40.110  12.905
44338W        W16664  17.504   4.165   2.769
44339W        W16665  20.529  14.577  13.374
44340W        W16666  36.825  14.837   0.878
44341W        W16667   4.947  14.321   1.682
44342W        W16668  32.826  11.157   4.776
44343W        W16669  39.845  24.698  13.938
44344W        W16670  20.570   3.153  14.102
44345W        W16671  37.032  41.031   0.711
44346W        W16672  13.580  32.605   4.975
44347W        W16673  33.155  27.517   2.806
44348W        W16674  22.939   7.284  14.329
44349W        W16675  12.373  10.045  10.818
44350W        W16676  13.663   2.170   0.811
44351W        W16677  35.566  40.173  12.073
44352W        W16678  31.491   5.350  12.196
44353W        W16679  31.589  15.105  13.468
44354W        W16680   3.892  11.323  10.931
44355W        W16681  12.312  19.123  13.159
44356W        W16682  18.476  34.021  12.835
44357W        W16683  27.479  31.373   0.814
44358W        W16684  23.684  20.802   0.313
44359W        W16685  24.057  13.657  12.056
44360W        W16686   7.912  26.122   4.388
44361W        W16687  44.414   6.700   1.710
44362W        W16688  18.582  26.048  13.364
44363W        W16689   9.741  39.281  10.454
44364W        W16690  44.405  12.904   3.944
44365W        W16691  13.561  29.430  13.730
44366W        W16692  40.607  21.741   4.227
44367W        W16693   6.836   4.578  10.311
44368W        W16694  40.586  37.593  12.907
44369W        W16695  14.835   3.535  13.890
44370W        W16696  29.375  39.338   1.806
44371W        W16697   3.957  11.066   0.635
44372W        W16698  24.905   8.944  10.564
44373W        W16699   1.162  44.291   2.977
44374W        W16700   9.199  25.211   4.306
44375W        W16701  43.291   0.483   4.587
44376W        W16702   7.723  19.767   1.747
44377W        W16703   1.960  27.071   0.852
44378W        W16704  43.368  38.679  14.273
44379W        W16705   2.392  24.243  13.952
44380W        W16706  30.529  29.355  13.509
44381W        W16707  35.668  13.240   1.412
44382W        W16708  24.019  30.501  12.582
44383W        W16709   5.210   1.087   3.756
44384W        W16710  12.607  35.725  13.390
44385W        W16711  36.845  32.747  13.172
44386W        W16712  37.533   3.741   3.438
44387W        W16713   4.834   1.670  11.605
44388W        W16714   8.664  26.675  14.797
44389W        W16715  34.259   8.119  14.420
44390W        W16716  34.049  43.552   3.724
44391W        W16717  33.084  43.909  12.446
44392W        W16718  43.721  33.005   1.589
44393W        W16719   4.745  39.779   0.264
44394W        W16720  41.861   3.811  14.410
44395W        W16721   2.866  14.857  13.349
44396W        W16722  38.299  34.504   4.094
44397W        W16723  26.278  31.547   2.789
44398W        W16724  35.423  41.239   4.140
44399W        W16725  11.799  28.085  13.158
44400W        W16726   2.437  43.290  10.696
44401W        W16727  43.021  13.754  13.498
44402W        W16728   1.030  24.903   3.464
44403W        W16729  38.467   3.160  10.513
44404W        W16730  43.033  23.708  12.342
44405W        W16731  26.579  24.578   4.934
44406W        W16732  16.597   3.401  11.548
44407W        W16733   2.546  11.553  12.889
44408W        W16734   7.226   6.871   1.946
44409W        W16735   8.204  21.705   4.440
44410W        W16736  26.151  39.582   3.633
44411W        W16737  30.059  38.512  14.768
44412W        W16738  38.126   1.894   0.262
44413W        W16739   9.411  16.685   1.452
44414W        W16740  23.219  16.176   4.244
44415W        W16741  22.660   3.368  12.036
44416W        W16742  37.479  18.547   0.503
44417W        W16743  24.006  34.986  11.876
44418W        W16744  13.703  33.571  11.500
44419W        W16745  27.991  26.222   9.574
44420W        W16746  15.437  13.114  10.706
44421W        W16747  11.270  30.010  13.427
44422W        W16748  43.462   2.111  14.900
44423W        W16749  29.457  43.806  14.093
44424W        W16750  36.787  31.057   4.212
44425W        W16751  25.251   8.901   4.821
44426W        W16752  37.176   8.825  11.645
44427W        W16753  37.752  32.954  10.666
44428W        W16754  34.425  14.137  12.447
44429W        W16755  15.791  28.117  14.501
44430W        W16756   3.963  28.546  12.146
44431W        W16757  37.847  42.664   0.673
44432W        W16758  12.848  27.441   1.089
44433W        W16759  39.836  40.876   2.369
44434W        W16760  43.373   1.051   3.698
44435W        W16761   9.752  37.775  13.568
44436W        W16762  25.010  19.213   4.666
44437W        W16763   4.773  13.459   3.625
44438W        W16764  35.449   0.377   1.678
44439W        W16765  18.280  17.005  12.446
44440W        W16766  39.427  16.128   2.202
44441W        W16767  26.923  42.965  13.027
44442W        W16768  31.826  35.195   0.406
44443W        W16769   7.843  21.054   4.194
44444W        W16770  35.837   1.784  13.952
44445W        W16771  11.654  19.616   2.661
44446W        W16772   7.105  13.110  12.420
44447W        W16773  34.616   1.835   0.781
44448W        W16774  12.616  37.021   1.527
44449W        W16775   6.711  13.129   0.530
44450W        W16776  38.911  12.424  14.427
44451W        W16777  13.539   5.890  10.388
44452W        W16778  21.653   2.815  14.532
44453W        W16779  27.460  21.984   3.028
44454W        W16780  19.679  43.312   3.805
44455W        W16781  24.933  30.163   3.069
44456W        W16782  22.169  40.492  12.292
44457W        W16783   7.452  34.641  12.008
44458W        W16784   8.942  26.670   4.467
44459W        W16785  31.352  44.434  13.517
44460W        W16786  15.777  31.604   0.367
44461W        W16787  15.859  22.756  12.085
44462W        W16788  11.033  12.062   3.302
44463W        W16789  27.579   9.624   2.796
44464W        W16790  17.606   7.740   4.672
44465W        W16791  20.226  35.363   1.450
44466W        W16792  37.065  19.161  13.342
44467W        W16793  25.258  25.062  12.206
44468W        W16794  40.885  24.973   1.424
44469W        W16795  40.906  18.210  12.885
44470W        W16796  39.581  38.097  10.605
44471W        W16797  35.073  14.690  10.622
44472W        W16798  21.108  35.124   1.894
44473W        W16799  26.787  39.178  10.457
44474W        W16800  35.646   5.505   1.972
44475W        W16801  26.173  42.547  14.332
44476W        W16802   6.667   2.721   4.624
44477W        W16803  28.539  31.072  13.839
44478W        W16804  17.463  33.794  14.410
44479W        W16805   4.842   8.266   3.219
44480W        W16806  10.145   1.077   0.376
44481W        W16807  22.378  25.931  12.013
44482W        W16808  17.295  39.059  10.036
44483W        W16809  40.276  35.619   0.818
44484W        W16810  10.926   5.358  14.479
44485W        W16811   5.727  23.374  13.046
44486W        W16812  20.687   9.884   3.435
44487W        W16813  10.908  37.551   2.261
44488W        W16814   8.852  41.862  12.519
44489W        W16815  37.980  35.585  13.766
44490W        W16816   0.545  30.703   1.245
44491W        W16817   5.206  23.926  10.747
44492W        W16818  16.797   5.800  11.210
44493W        W16819  31.642   1.848   3.727
44494W        W16820   7.290  36.706   2.030
44495W        W16821  31.386  12.318  14.512
44496W        W16822   1.022  10.371   4.351
44497W        W16823  33.679  21.165   0.444
44498W        W16824  18.300  42.541  11.164
44499W        W16825  42.979  29.133  14.924
44500W        W16826   8.672  30.003  13.866
44501W        W16827   6.210  28.087   1.359
44502W        W16828   8.250  41.262   1.692
44503W        W16829  31.592   4.173  10.976
44504W        W16830   6.230  39.434   4.366
44505W        W16831   8.958  31.843   0.067
44506W        W16832  13.178   2.960   0.865
44507W        W16833  16.678  33.911   4.339
44508W        W16834  27.781  25.582   2.785
44509W        W16835  30.900  44.542  12.596
44510W        W16836  33.049  37.941   3.820
44511W        W16837  29.500  33.565   4.545
44512W        W16838  39.331  29.578  11.894
44513W        W16839   5.770  33.501   3.145
44514W        W16840  41.719   3.805  12.599
44515W        W16841  37.786   3.256   1.618
44516W        W16842  30.305  37.077   0.424
44517W        W16843  23.129  42.799   2.466
44518W        W16844   8.893  10.275  10.603
44519W        W16845  27.283   1.749  10.954
44520W        W16846  29.587   2.488   1.787
44521W        W16847   8.362  34.612   3.695
44522W        W16848  32.007  40.368   1.989
44523W        W16849   5.287  32.934  13.875
44524W        W16850  29.506   4.963   0.326
44525W        W16851  25.660  38.304   0.776
44526W        W16852  10.922  43.445   1.586
44527W        W16853  13.083  11.747   5.112
44528W        W16854  30.466  33.969   4.451
44529W        W16855  33.338  33.895  12.344
44530W        W16856  12.819   9.290  12.988
44531W        W16857   7.280  29.539   2.891
44532W        W16858  41.841  27.225   0.912
44533W        W16859  10.759  16.983  13.606
44534W        W16860  31.094  19.304  11.531
44535W        W16861  41.812  14.569  14.011
44536W        W16862   8.734  35.404   0.709
44537W        W16863  10.103  36.055   2.145
44538W        W16864  18.005  31.068   3.867
44539W        W16865  38.853  40.044   3.348
44540W        W16866   0.871   8.418   2.022
44541W        W16867  38.064  41.298  14.801
44542W        W16868  39.874  27.917   4.136
44543W        W16869  26.565   6.355   0.404
44544W        W16870   8.253  22.705  12.429
44545W        W16871   5.955   7.917   3.058
44546W        W16872  21.078   2.357   2.905
44547W        W16873   3.857  34.476   2.655
44548W        W16874  22.983  22.271   0.278
44549W        W16875  24.827  30.509  14.441
44550W        W16876  30.991  24.672  14.353
44551W        W16877  38.939  20.771  12.045
44552W        W16878  40.780  42.975  12.441
44553W        W16879  14.592   0.950  14.312
44554W        W16880  32.835   9.089   3.096
44555W        W16881  32.978  40.004  12.483
44556W        W16882  10.087  11.767   1.784
44557W        W16883  18.934   4.450  14.041
44558W        W16884  14.049  44.370  12.999
44559W        W16885  17.214   6.230  12.932
44560W        W16886   5.035  35.617  13.754
44561W        W16887  13.709  29.369  12.757
44562W        W16888  23.652   3.704  11.246
44563W        W16889  43.049   8.618   5.198
44564W        W16890   4.707   1.801  11.124
44565W        W16891  13.318  33.926   2.237
44566W        W16892  16.145  30.997  14.449
44567W        W16893  39.800   7.658   0.836
44568W        W16894  22.833  19.619  12.670
44569W        W16895  40.571  29.250  11.941
44570W        W16896  20.123  38.222   0.875
44571W        W16897  17.671   5.359   2.265
44572W        W16898   6.228  40.081  11.173
44573W        W16899   0.276  21.555  13.523
44574W        W16900   8.911   4.697   4.526
44575W        W16901  24.276  41.741  12.924
44576W        W16902   6.759  17.143  14.750
44577W        W16903  29.567  20.847   1.417
44578W        W16904  18.810  11.844   4.572
44579W        W16905  22.509  20.225   0.565
44580W        W16906  16.592  42.539  11.764
44581W        W16907  36.124  19.028   4.164
44582W        W16908  44.878  38.701   1.790
44583W        W16909  22.058  42.021   2.577
44584W        W16910  44.542  35.105  14.381
44585W        W16911  10.569   3.631  11.551
44586W        W16912   0.896  31.715  11.064
44587W        W16913   1.241  15.619  11.695
44588W        W16914  16.326  37.491   4.240
44589W        W16915  39.806  30.632   1.072
44590W        W16916  23.529  14.576  11.585
44591W        W16917  34.688  36.929  12.088
44592W        W16918  15.130  43.687  12.324
44593W        W16919  10.760  12.543  13.037
44594W        W16920  27.942  44.998  11.487
44595W        W16921  29.538  13.315   1.764
44596W        W16922  31.519  25.973  10.707
44597W        W16923  30.655  12.798  14.837
44598W        W16924   6.966  38.132  13.963
44599W        W16925  31.202  39.858   1.890
44600W        W16926   8.280   4.300   4.053
44601W        W16927  37.906  36.644  11.014
44602W        W16928  26.723  13.286   2.233
44603W        W16929   7.348  20.766   4.178
44604W        W16930  41.836  22.161  11.926
44605W        W16931  28.821  13.006  10.857
44606W        W16932  19.563  21.051   3.154
44607W        W16933  31.495   2.966  14.068
44608W        W16934  10.849   1.399  12.470
44609W        W16935  37.950  28.678  13.550
44610W        W16936  26.634   1.563   3.735
44611W        W16937  25.558  16.679   2.708
44612W        W16938  10.441  27.159  13.834
44613W        W16939  34.593   2.875  14.997
44614W        W16940  17.805  36.538   0.880
44615W        W16941  23.300  36.634  11.497
44616W        W16942   6.336   7.406  11.782
44617W        W16943  18.685  12.567   4.118
44618W        W16944  42.781  31.766   1.064
44619W        W16945   9.864  13.123   0.246
44620W        W16946   4.755  35.112  12.920
44621W        W16947  32.654  28.158   1.262
44622W        W16948  37.921  43.935  12.830
44623W        W16949  35.995  24.268   2.678
44624W        W16950  20.614   8.765   2.651
44625W        W16951  21.309  11.791   0.023
44626W        W16952  41.785  26.779   1.850
44627W        W16953  35.571  41.876   2.444
44628W        W16954  38.049  30.553   0.020
44629W        W16955  20.644  27.627  14.160
44630W        W16956  36.111  41.292  14.846
44631W        W16957  25.805   6.334   4.458
44632W        W16958   1.375  15.179   4.087
44633W        W16959  40.079  42.538   4.071
44634W        W16960   5.069  41.609  13.593
44635W        W16961   1.480  10.418  14.894
44636W        W16962  40.950   5.403  11.783
44637W        W16963  18.285  19.097   1.219
44638W        W16964  13.994   4.561  13.993
44639W        W16965  16.169   5.612  10.969
44640W        W16966  40.111  35.385   1.830
44641W        W16967  27.691  23.715  11.553
44642W        W16968  19.944  22.583   2.712
44643W        W16969  23.137  18.854   4.746
44644W        W16970  43.728  29.513   1.620
44645W        W16971  43.393  12.316   1.835
44646W        W16972   6.336   7.678   3.797
44647W        W16973  21.131  26.453  13.138
44648W        W16974  11.132  13.257   4.384
44649W        W16975  34.291   4.294   2.274
44650W        W16976  18.350  18.046  11.543
44651W        W16977  21.250  37.315  12.129
44652W        W16978  41.047  12.195  11.352
44653W        W16979  21.672  11.661   4.058
44654W        W16980  19.584  35.456   0.313
44655W        W16981  22.793  17.082   0.707
44656W        W16982  39.228  40.077   2.324
44657W        W16983  11.886  39.075  13.933
44658W        W16984   3.655  21.379   4.612
44659W        W16985  22.640  36.347  12.817
44660W        W16986  35.392  37.824  11.359
44661W        W16987   3.775   1.892  11.693
44662W        W16988  30.193  22.429  10.984
44663W        W16989  43.359   2.445  14.508
44664W        W16990  32.229  44.888  10.763
44665W        W16991   0.266   9.801   4.618
44666W        W16992  29.588  20.693   0.456
44667W        W16993  28.349  42.932  12.080
44668W        W16994   8.587   8.880  12.483
44669W        W16995  44.109  29.454  14.318
44670W        W16996  23.585  16.547  14.331
44671W        W16997  30.115  44.884  10.849
44672W        W16998  18.161  35.074   2.848
44673W        W16999  28.228  10.722  10.447
44674W        W17000  26.203  27.560   1.457
44675W        W17001  44.384  37.504  11.132
44676W        W17002  35.824  35.654  14.825
44677W        W17003  30.516   7.558  13.784
44678W        W17004  29.161  21.807  14.346
44679W        W17005  39.317  42.335  13.133
44680W        W17006  39.626  34.582   4.505
44681W        W17007  30.933  19.121  12.000
44682W        W17008  33.092  26.510   1.687
44683W        W17009  18.290   6.198  14.346
44684W        W17010  34.808  12.039   1.756
44685W        W17011  16.085  25.934  12.368
44686W        W17012  44.547   4.029   1.780
44687W        W17013   9.625   2.820  12.229
44688W        W17014   6.392  19.197   3.531
44689W        W17015  13.681  12.606  12.479
44690W        W17016  25.040   8.749   3.762
44691W        W17017  32.548  43.279   0.036
44692W        W17018  16.199  26.925  11.057
44693W        W17019  42.051  42.702   3.754
44694W        W17020   6.951  18.598  12.111
44695W        W17021  27.995  33.160  12.997
44696W        W17022   1.109  14.510  11.227
44697W        W17023   3.315   4.411   1.159
44698W        W17024  24.103  31.940   4.548
44699W        W17025  38.641  21.624  11.572
44700W        W17026  12.790   9.782  11.577
44701W        W17027   2.330  20.769   5.046
44702W        W17028  21.692  22.068  13.111
44703W        W17029  18.442  30.052  11.676
44704W        W17030  38.755   2.852   2.414
44705W        W17031   4.714  36.396  13.158
44706W        W17032  43.348  21.108   1.854
44707W        W17033   3.259   6.936   3.263
44708W        W17034  27.906  20.806   1.486
44709W        W17035  42.247  12.260   1.794
44710W        W17036  23.458  20.861   0.784
44711W        W17037  37.966  34.282   1.357
44712W        W17038  20.959  13.108  14.453
44713W        W17039   6.978  27.099   2.599
44714W        W17040  23.086   5.699   0.905
44715W        W17041  33.062  12.264   4.663
44716W        W17042   9.147  31.061  11.105
44717W        W17043   9.693   8.182   4.117
44718W        W17044  26.593  12.124  11.844
44719W        W17045  38.000  44.940   0.520
44720W        W17046   0.547  19.206   3.245
44721W        W17047  27.048  36.470   1.407
44722W        W17048  32.966  18.793  13.760
44723W        W17049  22.522  31.003  12.873
44724W        W17050  16.099  34.019   3.582
44725W        W17051   5.527  23.934  13.069
44726W        W17052  16.844  24.727   2.760
44727W        W17053  36.944  39.818   4.334
44728W        W17054  16.659  41.378  14.068
44729W        W17055  17.576  11.161   1.236
44730W        W17056  20.646  17.644  14.158
44731W        W17057   6.398  31.958  12.078
44732W        W17058  37.257  31.391  11.657
44733W        W17059  40.584  15.828  13.926
44734W        W17060  42.320  30.448   0.385
44735W        W17061  15.640   7.835   1.926
44736W        W17062   0.788   9.723  11.687
44737W        W17063  43.786   9.687  12.929
44738W        W17064  29.906  22.669   4.588
44739W        W17065  33.012  44.297  13.796
44740W        W17066   3.964   8.483   3.609
44741W        W17067  41.751  23.680   1.128
44742W        W17068  44.390  38.963   0.173
44743W        W17069  37.878   5.004   1.391
44744W        W17070  41.870  32.210   5.018
44745W        W17071   2.195  40.824   2.798
44746W        W17072  42.017   5.987  14.886
44747W        W17073  39.602  13.701   4.526
44748W        W17074   5.411  21.177   4.416
44749W        W17075   2.211  21.999   0.324
44750W        W17076   6.934  19.176  12.809
44751W        W17077   6.651   6.190   2.824
44752W        W17078   2.511   1.883  12.973
44753W        W17079  12.053   3.249   1.162
44754W        W17080   0.684   2.403  12.051
44755W        W17081  33.269  30.029  11.870
44756W        W17082  42.090  18.663   5.026
44757W        W17083  41.930  32.086   4.074
44758W        W17084  12.729   5.990  10.981
44759W        W17085   3.712   2.506   1.737
44760W        W17086  20.045  23.918   1.789
44761W        W17087   0.842  29.267  13.179
44762W        W17088  33.869   5.700  14.399
44763W        W17089  17.571  21.597  12.782
44764W        W17090   1.736   2.357   9.757
44765W        W17091  30.669  18.205   0.038
44766W        W17092  39.438  42.965  12.332
44767W        W17093  19.030  35.946   4.196
44768W        W17094  44.745  39.771  11.427
44769W        W17095  19.284   8.425   4.146
44770W        W17096  14.335   9.886   1.326
44771W        W17097  39.502  30.391   5.053
44772W        W17098  40.625  15.534   3.645
44773W        W17099  38.338  25.039  14.907
44774W        W17100  26.559  22.098   0.370
44775W        W17101  26.451  44.871  11.689
44776W        W17102  31.077  35.603  14.995
44777W        W17103  40.985  22.559   4.068
44778W        W17104   5.699  21.024   0.378
44779W        W17105   8.400  31.966  10.828
44780W        W17106   5.175  22.134  14.799
44781W        W17107  27.716  26.638   4.087
44782W        W17108  39.270  29.451  12.382
44783W        W17109   9.157  41.860   2.132
44784W        W17110  13.238   5.029  10.302
44785W        W17111  20.690  13.761  12.295
44786W        W17112  23.982  21.694   3.865
44787W        W17113  28.935  38.560   4.695
44788W        W17114  20.528  30.175   2.693
44789W        W17115   7.220  32.984  13.386
44790W        W17116  32.725  16.791   2.816
44791W        W17117  42.884  33.991  11.684
44792W        W17118   9.645  43.543   1.738
44793W        W17119  40.385  13.219  10.914
44794W        W17120  13.565  34.594   0.884
44795W        W17121  41.462  16.585   1.396
44796W        W17122  21.881  21.288  14.409
44797W        W17123  30.468   1.336   4.529
44798W        W17124  20.626  17.675  11.610
44799W        W17125  24.227   7.639   2.259
44800W        W17126  32.408   8.217  14.960
44801W        W17127  27.879  13.083  13.428
44802W        W17128   4.567  36.484   1.453
44803W        W17129  32.181  24.090  11.590
44804W        W17130   5.499  22.587  14.913
44805W        W17131  30.924   1.192  11.586
44806W        W17132  17.793  18.488  11.038
44807W        W17133  29.612  19.853   2.836
44808W        W17134   7.828  19.133   3.890
44809W        W17135  20.301  26.352  12.661
44810W        W17136  12.022  19.814  13.519
44811W        W17137   2.019  26.421   1.922
44812W        W17138   1.426  40.485  14.805
44813W        W17139  12.405  39.050  13.928
44814W        W17140  40.339  43.812   2.757
44815W        W17141   5.345   4.824   4.826
44816W        W17142  30.886  18.082   1.952
44817W        W17143  40.413  34.803  12.170
44818W        W17144  38.396   1.635   1.334
44819W        W17145   7.660   7.834   4.734
44820W        W17146  32.715  17.588  14.379
44821W        W17147  28.444  43.814  11.968
44822W        W17148  13.428  35.949   2.774
44823W        W17149  31.548  17.438  12.691
44824W        W17150   6.648  25.755   4.185
44825W        W17151  14.202  11.427   4.095
44826W        W17152  24.473  44.573  12.370
44827W        W17153  18.071  24.255  10.640
44828W        W17154  22.753  39.501  12.862
44829W        W17155  10.875  13.722   2.086
44830W        W17156   0.182  43.815   2.208
44831W        W17157  39.327  23.793  13.942
44832W        W17158  20.990  19.163   2.400
44833W        W17159  11.670  22.012  10.765
44834W        W17160  38.375  33.674   0.284
44835W        W17161  22.985  44.964  13.522
44836W        W17162  28.963  29.602   3.326
44837W        W17163   8.450  30.035   0.794
44838W        W17164  10.703  24.105   4.089
44839W        W17165   2.382  22.745   3.179
44840W        W17166  38.334  42.864  14.525
44841W        W17167  13.931  21.720  12.819
44842W        W17168  33.179  13.211   4.795
44843W        W17169  37.386   1.433  14.712
44844W        W17170   7.910   7.762  13.610
44845W        W17171  25.917   8.827  10.514
44846W        W17172  23.455  11.215  12.699
44847W        W17173  32.397  10.259  10.552
44848W        W17174  22.498  19.623   1.706
44849W        W17175  25.562  10.621   2.231
44850W        W17176  11.835   0.786   1.235
44851W        W17177   0.733   5.790   1.488
44852W        W17178  24.502  32.602   4.108
44853W        W17179   9.746  35.109   0.653
44854W        W17180  10.259   3.443   1.943
44855W        W17181  12.367  26.676  11.817
44856W        W17182   6.831  18.338   3.156
44857W        W17183   3.256  37.806   3.648
44858W        W17184  36.943   1.505   3.665
44859W        W17185  26.685   0.065   1.206
44860W        W17186  30.516  19.340  12.909
44861W        W17187  35.647  37.982  14.414
44862W        W17188   7.834  35.398   0.414
44863W        W17189  27.555  30.721  14.744
44864W        W17190   4.523   8.048   1.431
44865W        W17191  11.741  21.779  12.028
44866W        W17192  29.606  44.455   4.220
44867W        W17193  34.584  20.072  13.870
44868W        W17194  43.008  31.438   0.016
44869W        W17195  22.656  39.322   3.811
44870W        W17196  22.743  38.129   0.667
44871W        W17197  35.009  32.460   0.323
44872W        W17198  37.007  19.990  13.207
44873W        W17199   4.190  17.911   3.429
44874W        W17200  28.623   8.688   0.933
44875W        W17201  25.410  12.156  11.025
44876W        W17202   9.381  23.658  13.409
44877W        W17203  38.916  44.830   1.709
44878W        W17204   6.200  30.454   2.699
44879W        W17205  29.846  10.466   2.662
44880W        W17206  13.403  13.680   2.628
44881W        W17207  27.477  24.933  14.930
44882W        W17208  17.026  33.678  13.486
44883W        W17209  11.853   9.916   3.777
44884W        W17210  14.304  29.716  12.446
44885W        W17211   5.292  30.129  11.514
44886W        W17212  32.922  11.411  12.780
44887W        W17213  15.807  11.356   3.148
44888W        W17214  33.054  16.789   2.364
44889W        W17215  41.566  26.527   3.335
44890W        W17216  20.516  17.622   0.506
44891W        W17217   4.496  24.486  14.929
44892W        W17218  37.350   4.403  14.057
44893W        W17219  15.637  15.608  11.700
44894W        W17220   0.909   7.958  14.870
44895W        W17221   8.162  31.179  14.668
44896W        W17222  14.289  26.161  12.876
44897W        W17223  41.662   1.367   3.196
44898W        W17224  30.213  29.662  12.017
44899W        W17225  20.701  36.479  11.576
44900W        W17226  33.562  36.499   4.167
44901W        W17227   2.192  11.042  14.978
44902W        W17228   9.348  23.490   4.172
44903W        W17229   1.857  25.166   0.633
44904W        W17230   9.238  30.133   3.639
44905W        W17231  17.628   9.243   2.196
44906W        W17232  43.039  25.346  11.907
44907W        W17233  12.673  34.902  11.896
44908W        W17234  27.981  38.262   0.990
44909W        W17235  20.520  39.771  11.131
44910W        W17236   8.354  18.732  14.470
44911W        W17237   4.506  23.121   9.927
44912W        W17238  25.154  26.396   4.737
44913W        W17239   3.495  25.660   2.367
44914W        W17240  12.814  25.833  13.822
44915W        W17241  23.619   3.743  10.746
44916W        W17242  30.215  21.203   3.742
44917W        W17243  10.190  15.581   0.824
44918W        W17244  23.174   7.794   1.337
44919W        W17245  17.152  10.761  12.812
44920W        W17246  38.116  37.322  14.116
44921W        W17247  35.909  25.979   3.379
44922W        W17248   2.502  29.240  10.486
44923W        W17249  29.031   9.793   4.043
44924W        W17250  22.228  30.956   1.384
44925W        W17251   2.067  28.311  14.063
44926W        W17252  38.455  35.117   0.479
44927W        W17253   0.681  14.726  11.015
44928W        W17254  20.152  17.250  12.618
44929W        W17255  36.384  37.910  11.537
44930W        W17256   9.663  12.467   2.201
44931W        W17257  35.111  34.936   2.414
44932W        W17258  24.081  17.758  10.221
44933W        W17259  25.286  43.666  13.023
44934W        W17260   2.876   1.507  12.024
44935W        W17261  34.658   3.277  12.522
44936W        W17262  29.873  15.093   3.596
44937W        W17263  40.638   9.118   3.497
44938W        W17264   3.279  33.417  10.504
44939W        W17265  22.310  12.810  13.975
44940W        W17266   8.911  32.633   3.829
44941W        W17267  22.443   3.636   4.454
44942W        W17268  42.337  24.501   1.819
44943W        W17269  28.556  16.440  11.478
44944W        W17270  40.738  33.287  10.672
44945W        W17271  30.766   2.674  12.603
44946W        W17272  14.568  19.249   2.305
44947W        W17273  21.793  16.122  10.928
44948W        W17274  13.563  24.521  13.048
44949W        W17275   4.238  29.541   4.513
44950W        W17276  27.537  10.442   4.630
44951W        W17277  11.353  36.864   0.767
44952W        W17278  41.302   9.688   2.464
44953W        W17279   2.467  17.872   1.338
44954W        W17280  42.958  21.651  11.717
44955W        W17281  37.369  37.839   2.000
44956W        W17282  23.109  19.299  14.295
44957W        W17283  19.722   6.924  10.869
44958W        W17284  28.726  34.879   1.792
44959W        W17285  30.778  13.048  13.724
44960W        W17286   3.962   7.227   4.154
44961W        W17287  27.978  21.565   0.696
44962W        W17288   1.459  34.564   0.279
44963W        W17289  41.922  37.412  11.156
44964W        W17290  26.213  17.658  12.539
44965W        W17291  34.031  40.529  11.572
44966W        W17292  25.678   4.490   0.304
44967W        W17293  27.022  15.287  13.998
44968W        W17294  31.938   2.873   2.239
44969W        W17295   8.158  17.702   0.829
44970W        W17296  28.194  23.218  14.964
44971W        W17297  20.110  32.884  11.603
44972W        W17298  20.861   1.454  12.374
44973W        W17299  15.178  18.521  13.402
44974W        W17300  36.519   6.744   3.613
44975W        W17301  34.429  14.781  11.660
44976W        W17302  14.525  33.043  12.936
44977W        W17303   8.685  24.065  13.997
44978W        W17304  38.394  36.158   1.334
44979W        W17305  14.476   1.930   2.168
44980W        W17306   5.389  20.604  11.187
44981W        W17307  15.255  16.254   1.729
44982W        W17308  42.155  14.193   4.765
44983W        W17309   2.948  15.156   0.423
44984W        W17310  39.929  20.868  12.970
44985W        W17311  19.951  22.416  13.991
44986W        W17312  43.222   9.553  11.575
44987W        W17313  41.041  10.129  10.583
44988W        W17314   7.211   5.933   3.930
44989W        W17315  33.002  28.531  12.902
44990W        W17316  44.940   8.966  12.934
44991W        W17317  35.060   5.408  13.854
44992W        W17318  31.191  26.357  10.779
44993W        W17319  30.873  19.198   2.853
44994W        W17320  14.370   1.656  12.156
44995W        W17321  28.095   5.721  12.505
44996W        W17322  32.360   2.372   1.831
44997W        W17323   1.552  23.102  11.435
44998W        W17324  14.357  18.677   3.200
44999W        W17325  38.755  38.364  12.034
45000W        W17326  44.909  18.243   0.698
45001W        W17327  25.100  28.280  14.279
45002W        W17328  22.433   7.159  14.284
45003W        W17329   8.193   7.003  12.584
45004W        W17330   2.406  28.543   2.497
45005W        W17331  25.049  30.697   3.244
45006W        W17332  42.064  23.714  11.946
45007W        W17333  38.674  16.232  14.007
45008W        W17334  37.824  42.245   4.233
45009W        W17335  11.709  23.774   0.011
45010W        W17336  36.661  27.157   1.655
45011W        W17337  21.115  34.226  12.293
45012W        W17338   6.257  28.549   4.399
45013W        W17339   1.365   1.333   0.394
45014W        W17340   5.776  43.449  12.186
45015W        W17341  31.906  30.221  11.592
45016W        W17342  44.262   9.677   4.828
45017W        W17343  39.493  33.055  12.888
45018W        W17344   9.142   9.838  10.660
45019W        W17345  37.599  10.206   4.310
45020W        W17346  41.784  21.632   0.678
45021W        W17347  44.483   0.119   0.351
45022W        W17348  28.128  35.577   1.787
45023W        W17349  33.208  27.215   3.288
45024W        W17350  28.396  11.694   2.708
45025W        W17351  16.543  15.430   3.139
45026W        W17352  31.143   5.247   2.156
45027W        W17353  31.445  39.505  12.579
45028W        W17354  19.442  15.042  13.254
45029W        W17355  37.805  43.228  13.109
45030W        W17356  35.406  28.482  14.126
45031W        W17357  26.191   2.006  13.140
45032W        W17358  30.185  25.298   2.771
45033W        W17359   0.332  10.436   4.677
45034W        W17360   6.798  40.520  11.396
45035W        W17361  44.896  33.012  11.021
45036W        W17362  18.592  28.865  10.668
45037W        W17363  10.313  22.157  10.052
45038W        W17364   8.828  32.736  10.528
45039W        W17365  43.417  11.214   1.411
45040W        W17366  30.626  30.524   2.466
45041W        W17367   1.955  37.034   1.926
45042W        W17368  14.806  38.154  11.218
45043W        W17369  17.585  19.091  12.987
45044W        W17370  29.538  25.902   3.780
45045W        W17371  39.062  34.905  12.608
45046W        W17372  40.914  36.694   3.386
45047W        W17373  29.056   3.413  13.016
45048W        W17374   6.813  43.318  14.826
45049W        W17375  31.418  44.018   0.009
45050W        W17376  23.657   5.613  11.486
45051W        W17377  13.958  19.268   1.665
45052W        W17378  16.679   5.160  14.288
45053W        W17379  16.100   8.778   3.329
45054W        W17380  40.909  17.742  13.168
45055W        W17381   9.706  44.702   1.237
45056W        W17382   7.773  44.343  12.027
45057W        W17383  35.652  36.045   0.926
45058W        W17384  26.432  16.450  14.343
45059W        W17385  30.830  28.748   3.246
45060W        W17386  24.340  13.988   9.948
45061W        W17387  29.331  43.943   2.519
45062W        W17388  12.076  16.887  12.317
45063W        W17389  25.480  39.758   4.176
45064W        W17390  21.515  11.639  11.062
45065W        W17391  30.377  20.548   1.808
45066W        W17392  17.365  38.392   2.434
45067W        W17393  39.744  40.043   2.300
45068W        W17394  44.755   0.331   2.221
45069W        W17395  44.829  11.251   2.688
45070W        W17396  34.338  43.258   3.391
45071W        W17397   9.906   0.254  13.351
45072W        W17398  32.091   6.412   1.449
45073W        W17399  27.508  34.054   2.864
45074W        W17400  20.516  41.915   4.220
45075W        W17401  18.034  29.486  13.093
45076W        W17402  16.083  21.483  13.276
45077W        W17403  41.422  43.289  13.912
45078W        W17404  44.893  31.410  14.200
45079W        W17405  41.871  37.358   2.625
45080W        W17406  20.675  24.438   4.188
45081W        W17407  32.366  43.852   3.697
45082W        W17408  44.965  14.346  14.799
45083W        W17409  26.642  11.550  10.196
45084W        W17410  29.999  34.848  14.827
45085W        W17411  18.089  23.411   0.262
45086W        W17412   6.476  24.958  14.424
45087W        W17413  10.480  26.583   4.586
45088W        W17414  44.445   5.786  13.479
45089W        W17415  44.929  15.116   2.134
45090W        W17416  21.533  34.827   4.238
45091W        W17417  27.948  30.640   2.877
45092W        W17418  36.448  40.289  11.124
45093W        W17419   2.294  30.993   3.335
45094W        W17420  37.981  44.259  13.252
45095W        W17421  15.765  14.645  10.376
45096W        W17422  26.234  42.917   4.658
45097W        W17423   0.590  42.910   1.291
45098W        W17424  43.470  44.973  14.578
45099W        W17425   9.635  34.047  14.074
45100W        W17426  36.543  33.355  11.599
45101W        W17427  26.027  41.838  14.958
45102W        W17428  12.219  19.275   3.793
45103W        W17429  18.607  37.103  10.851
45104W        W17430  41.061  39.081   4.203
45105W        W17431  39.603  39.975   0.935
45106W        W17432   9.121  31.543   1.264
45107W        W17433  18.292  20.690   4.651
45108W        W17434  35.209  34.526  13.390
45109W        W17435   8.116  18.266  14.487
45110W        W17436  44.912  18.826   3.203
45111W        W17437   8.724  16.130   3.177
45112W        W17438  15.642  22.728   3.716
45113W        W17439  27.537  40.507   2.643
45114W        W17440  44.324  35.063  13.317
45115W        W17441   0.917  21.605   4.767
45116W        W17442  25.004   3.907   1.799
45117W        W17443  10.770  29.584   1.345
45118W        W17444   3.327  13.303  14.492
45119W        W17445  39.094  14.721   3.176
45120W        W17446  29.892  36.884   1.740
45121W        W17447  42.382   2.737   3.273
45122W        W17448  11.863  23.570   4.618
45123W        W17449  38.066  30.183   0.956
45124W        W17450  17.328  10.775  13.360
45125W        W17451  11.243  22.200   2.670
45126W        W17452  39.931  26.042   1.104
45127W        W17453  27.801   9.148   2.701
45128W        W17454  15.580  10.469   0.401
45129W        W17455  19.153  30.659   3.061
45130W        W17456   9.272  11.697  14.869
45131W        W17457  10.291  39.837  11.147
45132W        W17458   8.757  14.049  11.032
45133W        W17459   8.163  19.425  13.414
45134W        W17460   2.169  35.947   1.329
45135W        W17461  13.079   6.402  12.451
45136W        W17462  34.017  19.066  11.718
45137W        W17463  40.776  19.562  14.474
45138W        W17464  37.828   3.210  12.470
45139W        W17465  39.281  16.639   3.795
45140W        W17466  21.633  42.949   2.134
45141W        W17467  16.831  15.846   3.148
45142W        W17468   1.410   5.166  10.555
45143W        W17469  24.330  43.155   4.352
45144W        W17470  36.459  21.521  14.454
45145W        W17471  17.199   4.514  14.268
45146W        W17472   8.635  27.206  11.868
45147W        W17473  18.825  15.198  11.079
45148W        W17474  25.715   2.243  11.521
45149W        W17475   3.245  11.251  12.542
45150W        W17476  23.315  27.688   3.178
45151W        W17477  29.193  41.727   3.739
45152W        W17478  35.046  26.511   3.184
45153W        W17479  29.084  16.787   0.436
45154W        W17480  10.776  25.078  14.274
45155W        W17481  35.301   5.913   4.094
45156W        W17482   9.581  17.295  13.464
45157W        W17483  38.021  26.943   4.055
45158W        W17484  20.568  37.370  12.458
45159W        W17485   4.160  11.878   5.574
45160W        W17486   8.241  36.181  14.618
45161W        W17487  40.281  23.677  10.299
45162W        W17488   8.317   4.864  12.571
45163W        W17489  29.193  34.312   4.108
45164W        W17490  23.136   5.402  10.704
45165W        W17491   5.314   9.072   4.460
45166W        W17492  31.729  41.536   1.902
45167W        W17493  43.342  34.900   2.083
45168W        W17494  30.335  11.073   0.497
45169W        W17495  38.598  33.606  11.700
45170W        W17496  35.202  33.150   3.840
45171W        W17497  13.291  35.477   1.621
45172W        W17498  39.807  16.344   0.692
45173W        W17499  24.639  26.925   2.746
45174W        W17500   3.637   0.304  11.987
45175W        W17501  23.035  18.035   0.816
45176W        W17502  23.608  30.576   1.430
45177W        W17503  38.490  23.262  13.068
45178W        W17504  21.176  38.112  12.493
45179W        W17505  26.424  17.662  11.561
45180W        W17506   5.191  16.385   0.898
45181W        W17507  21.949  27.736   3.596
45182W        W17508  16.868  10.251   2.670
45183W        W17509  25.507  41.487   1.169
45184W        W17510  23.047   8.668   4.198
45185W        W17511  30.664  42.945   0.805
45186W        W17512  22.730  35.582  13.551
45187W        W17513  39.950  19.309   0.815
45188W        W17514   0.743  26.198   2.388
45189W        W17515  18.673  32.907   1.514
45190W        W17516  15.299  42.075   2.090
45191W        W17517  35.364  36.831  13.806
45192W        W17518  16.617   3.193  13.420
45193W        W17519   6.232  18.677  12.325
45194W        W17520  12.223  17.827  14.437
45195W        W17521  33.672  40.940  12.930
45196W        W17522  16.146  41.380   2.938
45197W        W17523  36.318   4.495   2.844
45198W        W17524  24.347  11.946  11.549
45199W        W17525  13.214  27.084  11.383
45200W        W17526   2.306  38.498   0.361
45201W        W17527  15.258  24.737   3.632
45202W        W17528  26.221  43.086  14.606
45203W        W17529  22.575  27.060  14.577
45204W        W17530  38.793  23.595   4.146
45205W        W17531  15.801   3.827  11.544
45206W        W17532  21.794  12.614   0.919
45207W        W17533   5.739  32.423  10.725
45208W        W17534  16.100  44.427   4.605
45209W        W17535  28.016   1.406   5.080
45210W        W17536  30.850  23.674  10.440
45211W        W17537  23.090  24.584  10.790
45212W        W17538  23.488   9.358  11.989
45213W        W17539  44.394  15.200  12.119
45214W        W17540  18.288  42.343  12.693
45215W        W17541  19.650  19.773  12.535
45216W        W17542  15.316  22.712   4.577
45217W        W17543  19.221  41.894  12.335
45218W        W17544  11.433  37.609  12.037
45219W        W17545  40.332  34.067  12.843
45220W        W17546  36.450  36.414  13.607
45221W        W17547   3.862  25.736   4.213
45222W        W17548  35.074  14.323   5.153
45223W        W17549  12.793  40.988   2.656
45224W        W17550  18.020  22.968   3.922
45225W        W17551  21.687  27.956  14.457
45226W        W17552  26.608  40.954  12.572
45227W        W17553  43.896   4.279   3.778
45228W        W17554  23.997  37.108   4.226
45229W        W17555  41.000   8.797  13.935
45230W        W17556  15.762   6.272  13.976
45231W        W17557  28.887  39.438  13.528
45232W        W17558  33.378  15.246   2.696
45233W        W17559  39.361   8.441   0.876
45234W        W17560  16.192   3.895   4.576
45235W        W17561  10.590  40.410  14.808
45236W        W17562  37.337   5.467   1.940
45237W        W17563   8.648   4.347  13.867
45238W        W17564   0.469  30.854  11.097
45239W        W17565  12.057  43.063   0.735
45240W        W17566  41.909  41.284  11.288
45241W        W17567   5.401  21.731   0.200
45242W        W17568  26.975  35.033   1.326
45243W        W17569   9.251  11.850  12.907
45244W        W17570  11.351  17.529  14.035
45245W        W17571  19.002  38.239   2.714
45246W        W17572  24.281  30.099  14.735
45247W        W17573   1.304  24.699   1.366
45248W        W17574  23.190   3.132   1.770
45249W        W17575  25.556   5.800  10.652
45250W        W17576   7.190   1.244   4.306
45251W        W17577   7.483   6.906  14.863
45252W        W17578  12.071  27.413  13.040
45253W        W17579  25.746  33.636  10.270
45254W        W17580  27.534  20.192  14.543
45255W        W17581   7.618   5.634   4.187
45256W        W17582  32.388  31.020  11.516
45257W        W17583  42.018  14.803   0.774
45258W        W17584  36.970  19.809   2.852
45259W        W17585  44.899   0.671  14.119
45260W        W17586   1.046  10.281  11.546
45261W        W17587  21.063  30.428   1.498
45262W        W17588  24.213  27.125   3.994
45263W        W17589  15.172   5.761  12.914
45264W        W17590  13.099  31.240   4.254
45265W        W17591   3.199  30.767   2.669
45266W        W17592  33.461  42.782   3.490
45267W        W17593  41.703   2.275  13.450
45268W        W17594   8.912  33.559   4.097
45269W        W17595  35.472   6.755   2.581
45270W        W17596  34.079  26.027   0.889
45271W        W17597  19.297   8.642  10.785
45272W        W17598   4.107  18.785   4.110
45273W        W17599  17.487  43.928  14.746
45274W        W17600   9.341  26.394   1.303
45275W        W17601  38.527  36.085  13.397
45276W        W17602  29.634  21.693   2.395
45277W        W17603  25.226   9.681   0.228
45278W        W17604  25.012  22.529   1.300
45279W        W17605  44.904  43.843  12.545
45280W        W17606   1.802   4.109   3.878
45281W        W17607  36.275  33.386  12.604
45282W        W17608   8.680  33.378  14.045
45283W        W17609   1.276  22.576  10.524
45284W        W17610  29.327  10.131   0.261
45285W        W17611   8.182  16.781  13.479
45286W        W17612   4.370   4.988  13.932
45287W        W17613   4.697  17.944   4.163
45288W        W17614  13.048   6.868  12.980
45289W        W17615  41.392  42.830  10.952
45290W        W17616  40.281  25.201   1.788
45291W        W17617   6.448  30.568  14.970
45292W        W17618  31.655   4.691   3.224
45293W        W17619  22.063  35.312  14.543
45294W        W17620  40.595   6.822   0.562
45295W        W17621  34.125  21.173   1.344
45296W        W17622   7.260  43.301  11.104
45297W        W17623  31.009   2.878   0.968
45298W        W17624  40.865   9.146   4.875
45299W        W17625  18.226  38.371   0.750
45300W        W17626   3.389  29.610  13.423
45301W        W17627  13.274   2.263  13.400
45302W        W17628  18.450  27.490   1.458
45303W        W17629  35.951   2.173  11.402
45304W        W17630   4.018  37.723   0.227
45305W        W17631  18.314  33.117  13.382
45306W        W17632  16.971  35.630  13.975
45307W        W17633  39.100   7.444   1.695
45308W        W17634   1.997  41.476  10.718
45309W        W17635   4.344  16.868   3.721
45310W        W17636   4.748  15.226   4.329
45311W        W17637  13.779  22.545  12.557
45312W        W17638  28.964   8.921   1.282
45313W        W17639  38.334  15.121  12.985
45314W        W17640  13.770  20.262   1.871
45315W        W17641   1.355   3.798   0.335
45316W        W17642  24.583  13.353  10.674
45317W        W17643   3.927  28.140   3.062
45318W        W17644   6.130  20.139  13.927
45319W        W17645  30.075  13.299   1.226
45320W        W17646  31.078  23.126   4.548
45321W        W17647  14.352  22.551  10.628
45322W        W17648  28.681  19.470  12.509
45323W        W17649  21.804  10.915  11.828
45324W        W17650  18.216  28.746  14.326
45325W        W17651  13.101   7.379  11.156
45326W        W17652  29.726   6.193   1.205
45327W        W17653   3.774   8.361  11.624
45328W        W17654  17.336   5.024   4.071
45329W        W17655   8.733  11.558  12.576
45330W        W17656   4.264   2.427   2.463
45331W        W17657  27.576  32.544  11.884
45332W        W17658  18.069   6.798  13.861
45333W        W17659  29.200  26.655   0.019
45334W        W17660  14.778  33.995   5.158
45335W        W17661  40.418  15.817   3.260
45336W        W17662  17.755  25.354  12.551
45337W        W17663  26.006  20.967   1.826
45338W        W17664  22.688  28.437  12.560
45339W        W17665  31.813  39.548  14.300
45340W        W17666  16.204  23.170  10.843
45341W        W17667   8.311   1.851  13.979
45342W        W17668  25.109  15.009  11.225
45343W        W17669  42.491   5.131   0.807
45344W        W17670  11.088  44.342  13.055
45345W        W17671  25.236  24.054  13.517
45346W        W17672  13.748  28.929  12.451
45347W        W17673   8.512  27.063  13.855
45348W        W17674  13.583   5.415   1.775
45349W        W17675   5.725  14.475  13.174
45350W        W17676  43.292   2.314   4.990
45351W        W17677  44.216   3.663   1.711
45352W        W17678   0.334  20.938  11.212
45353W        W17679  17.227  12.329  12.099
45354W        W17680  23.018  19.313   4.996
45355W        W17681  34.110  39.098  14.858
45356W        W17682  35.490   9.364  13.224
45357W        W17683   1.949  39.408  10.628
45358W        W17684  41.908  12.413  14.522
45359W        W17685  27.133  33.500  14.070
45360W        W17686   4.189   2.233   0.376
45361W        W17687  26.049  30.270  11.628
45362W        W17688   0.908   7.470  10.708
45363W        W17689  41.534   1.795   4.707
45364W        W17690  43.110  41.442   2.369
45365W        W17691   4.939  28.921   0.029
45366W        W17692  11.534  23.835  10.171
45367W        W17693  29.493  30.764  10.026
45368W        W17694  19.716  44.801   1.910
45369W        W17695  10.187  30.109   1.785
45370W        W17696  24.082  23.789  11.148
45371W        W17697  30.628   2.875   0.228
45372W        W17698   1.999  23.111  11.643
45373W        W17699   1.228  26.990  13.006
45374W        W17700  16.673  38.333   1.802
45375W        W17701  15.304  25.193   4.637
45376W        W17702  41.384  15.080   4.182
45377W        W17703   1.974  43.974  12.628
45378W        W17704  10.868  30.980   2.257
45379W        W17705   3.313  36.234   4.873
45380W        W17706  13.401   1.606   0.386
45381W        W17707  39.453  23.466   3.344
45382W        W17708  41.845  27.220  13.524
45383W        W17709  37.126  33.941   1.415
45384W        W17710  36.543  40.898  12.380
45385W        W17711  26.523   9.866   4.431
45386W        W17712  28.068  38.302  13.537
45387W        W17713  42.812  30.569   0.258
45388W        W17714  15.956   7.771  14.744
45389W        W17715  41.722  42.447  11.067
45390W        W17716  31.248  34.322  14.500
45391W        W17717  10.087  44.435  13.985
45392W        W17718  30.453  25.087  11.320
45393W        W17719  38.261  39.468  10.373
45394W        W17720  33.463  21.227   2.426
45395W        W17721  34.966  41.409   2.906
45396W        W17722  23.060  33.775   4.901
45397W        W17723  44.439  30.355   3.582
45398W        W17724  14.752   1.821   3.848
45399W        W17725  36.038  23.262  12.487
45400W        W17726  12.027   6.788   0.475
45401W        W17727   9.540  43.943  10.707
45402W        W17728  34.006  11.136  12.525
45403W        W17729  22.956  32.936  13.815
45404W        W17730  24.999  38.344   0.336
45405W        W17731  18.350  28.111   3.356
45406W        W17732   8.157  36.563   1.876
45407W        W17733  17.271  35.660   3.679
45408W        W17734  37.127  18.752   0.894
45409W        W17735   2.686  34.663   3.258
45410W        W17736  27.775  30.978  12.606
45411W        W17737   6.710  22.746  11.434
45412W        W17738  32.740  30.674   0.715
45413W        W17739  33.368  11.680   3.043
45414W        W17740  25.923  36.987   2.161
45415W        W17741  18.112   5.698  11.584
45416W        W17742  16.038  44.714  12.125
45417W        W17743   9.880  37.937  14.926
45418W        W17744  15.223  26.820   1.511
45419W        W17745  44.229  25.061  12.525
45420W        W17746  39.132  33.406  13.940
45421W        W17747   9.688  33.908   3.649
45422W        W17748  44.929   3.318  12.462
45423W        W17749  10.035  25.717  11.169
45424W        W17750  19.018  36.908  11.626
45425W        W17751  36.854  37.446   4.628
45426W        W17752  24.688  17.789  14.830
45427W        W17753  18.083  17.223   3.383
45428W        W17754   6.400  35.424  11.227
45429W        W17755   2.531   3.910  12.945
45430W        W17756  39.993  15.496  14.121
45431W        W17757  14.753  20.589  11.867
45432W        W17758  28.402  28.834   5.081
45433W        W17759  40.847  34.479  11.416
45434W        W17760  12.881  44.069   3.078
45435W        W17761   8.442   8.013  10.543
45436W        W17762  34.344  25.436  13.513
45437W        W17763  39.411  18.810  11.093
45438W        W17764  41.843  43.783   0.333
45439W        W17765  41.971  21.710   1.163
45440W        W17766   2.447  36.844  12.480
45441W        W17767  42.921  40.300   1.704
45442W        W17768  31.641  37.527  13.959
45443W        W17769   0.444  39.139   2.359
45444W        W17770  37.078  19.283   2.643
45445W        W17771  26.581   4.962  12.533
45446W        W17772  33.147  12.227   1.427
45447W        W17773  16.158  27.607  10.495
45448W        W17774  13.807  40.804  10.551
45449W        W17775  19.579  16.536   2.927
45450W        W17776  17.664  33.531   3.076
45451W        W17777  22.968  17.510  13.528
45452W        W17778   3.697  11.366   2.762
45453W        W17779  37.764  12.867  14.495
45454W        W17780  27.970  24.929  11.579
45455W        W17781  16.393  39.914   4.651
45456W        W17782   2.965   8.146   2.457
45457W        W17783  41.882  43.559  13.940
45458W        W17784  41.455  22.603  14.154
45459W        W17785  17.863   0.519   4.264
45460W        W17786  36.352  42.415  12.484
45461W        W17787  13.541  33.819   3.084
45462W        W17788  31.087   1.471   1.382
45463W        W17789   5.385  39.506  13.951
45464W        W17790  43.445  38.505   1.031
45465W        W17791  44.626  31.882  14.455
45466W        W17792  36.976   3.997  14.929
45467W        W17793  18.698  11.317   4.659
45468W        W17794   0.336  39.044  14.987
45469W        W17795  10.213  39.040   4.515
45470W        W17796  36.364  38.405  12.661
45471W        W17797  33.952  35.933   1.009
45472W        W17798  10.277  12.106   2.162
45473W        W17799  41.905   9.743   0.884
45474W        W17800   7.089   5.012  12.642
45475W        W17801  27.608  17.055  10.590
45476W        W17802   6.485  44.746   4.370
45477W        W17803  22.773   7.163  13.439
45478W        W17804  22.253   4.893  11.612
45479W        W17805  16.850  11.898   0.688
45480W        W17806  19.998  36.843  11.691
45481W        W17807  10.025  34.267   0.803
45482W        W17808   3.314  43.312   1.307
45483W        W17809   6.189  26.232  12.958
45484W        W17810  22.225   4.233   1.917
45485W        W17811  19.017  30.669  11.546
45486W        W17812  32.933  12.716   1.393
45487W        W17813   6.594  24.119  11.570
45488W        W17814  36.380  38.289  11.181
45489W        W17815  28.263  40.880  10.500
45490W        W17816  21.701  32.458  12.609
45491W        W17817  41.850  27.618   1.280
45492W        W17818  28.165  42.734  13.224
45493W        W17819   9.759  18.560  14.763
45494W        W17820  30.086  11.050  11.931
45495W        W17821  22.826  19.843  13.903
45496W        W17822  14.161  11.165   0.383
45497W        W17823  29.769  30.418   3.626
45498W        W17824  29.109  13.258   0.824
45499W        W17825  16.332   5.163  11.255
45500W        W17826   6.672   1.771   3.217
45501W        W17827  37.097  26.398   1.355
45502W        W17828   9.846  30.579  10.645
45503W        W17829   4.681  29.935   1.338
45504W        W17830  28.232  37.761   2.778
45505W        W17831  13.216  24.971  11.357
45506W        W17832  15.869   4.877   1.376
45507W        W17833  18.170  16.521  13.303
45508W        W17834  13.216   5.050  12.426
45509W        W17835  29.624  25.154   3.122
45510W        W17836  32.847  19.554   1.750
45511W        W17837  31.174  36.543   3.330
45512W        W17838  27.136  30.713   0.323
45513W        W17839  21.190  44.345  10.708
45514W        W17840  34.840  39.397   4.698
45515W        W17841  30.555  30.166  13.913
45516W        W17842   6.911  16.076   4.890
45517W        W17843  15.735  16.148  12.575
45518W        W17844  13.607  41.790  13.371
45519W        W17845  27.113  17.750   3.076
45520W        W17846  11.805  26.592  14.982
45521W        W17847  30.811  20.638  12.943
45522W        W17848  31.182  14.153   0.966
45523W        W17849  44.075  33.083   2.604
45524W        W17850  38.829  12.076   1.712
45525W        W17851  32.533   1.951   5.238
45526W        W17852  44.824  25.295  10.736
45527W        W17853  42.817  10.900  13.311
45528W        W17854  43.371   8.798  10.841
45529W        W17855  41.053  39.427  14.062
45530W        W17856  28.369   8.788   3.290
45531W        W17857  15.576  37.173   0.886
45532W        W17858  41.444  12.559   1.240
45533W        W17859  14.403   5.988   3.570
45534W        W17860  10.964  19.137  12.215
45535W        W17861  13.640  19.896  13.037
45536W        W17862  31.890  28.349   0.011
45537W        W17863  24.789   4.662  12.413
45538W        W17864   5.482  40.887   4.088
45539W        W17865  14.662  39.094   3.294
45540W        W17866  28.148  39.822   1.985
45541W        W17867   6.841  26.883   1.837
45542W        W17868  44.474  31.999   1.240
45543W        W17869  37.462  39.112   1.498
45544W        W17870  35.117  24.739  12.976
45545W        W17871  41.468  38.097   0.257
45546W        W17872  42.033   4.131   3.683
45547W        W17873  28.133   3.259   0.035
45548W        W17874  41.380  26.154  14.377
45549W        W17875  36.615  26.909   2.095
45550W        W17876  43.467   4.142  14.934
45551W        W17877  20.458  13.268  14.394
45552W        W17878  41.431  35.011   1.444
45553W        W17879  29.965  24.654   1.360
45554W        W17880  25.867  13.858   4.944
45555W        W17881  34.701   0.400  11.031
45556W        W17882   0.738  39.311   3.164
45557W        W17883  32.645  22.285  13.808
45558W        W17884  41.175   7.942  11.501
45559W        W17885   2.425  27.708  13.180
45560W        W17886  38.794  30.230  13.274
45561W        W17887  40.429   9.795  11.097
45562W        W17888  36.942  26.786  12.517
45563W        W17889   6.950   9.689   4.522
45564W        W17890  21.939  16.675   0.812
45565W        W17891  23.595  40.450  10.039
45566W        W17892  41.137   1.434  13.564
45567W        W17893  41.482  11.155   2.294
45568W        W17894  33.440  15.126  14.812
45569W        W17895  41.472  32.043  12.861
45570W        W17896  25.870  24.936  11.036
45571W        W17897  31.910   2.443  13.495
45572W        W17898  22.278  24.711   4.167
45573W        W17899  15.301  35.934   2.026
45574W        W17900   6.195  43.953   3.073
45575W        W17901   9.041  40.737  14.049
45576W        W17902  34.636   5.334  11.841
45577W        W17903   3.477  23.301  13.328
45578W        W17904   8.928  19.987  13.794
45579W        W17905   2.229  28.640  14.427
45580W        W17906  10.755   3.738  12.994
45581W        W17907  19.759  33.014   1.240
45582W        W17908  21.935  27.870  14.001
45583W        W17909  34.510  26.554  13.081
45584W        W17910  32.155  30.057   2.606
45585W        W17911   2.721  29.407  12.936
45586W        W17912  28.409  28.057  11.939
45587W        W17913  43.184   2.859   4.369
45588W        W17914  37.489  37.621  14.832
45589W        W17915  20.680  34.826  12.454
45590W        W17916  43.550  19.510   1.914
45591W        W17917  25.531  26.704  11.596
45592W        W17918   9.650  20.227  12.464
45593W        W17919  41.044  17.291  13.363
45594W        W17920  11.112   4.857  14.325
45595W        W17921  27.606  30.061   0.979
45596W        W17922   3.406  18.024   3.322
45597W        W17923  16.318  28.169   3.952
45598W        W17924   3.192  30.999  13.512
45599W        W17925  11.365  39.914  13.839
45600W        W17926  35.987  12.802   4.546
45601W        W17927  30.529  40.360  10.937
45602W        W17928  10.151  29.086   3.203
45603W        W17929  17.490  16.310  13.460
45604W        W17930  16.744  30.664  14.814
45605W        W17931  18.747   0.231   1.745
45606W        W17932   7.314  10.883  11.895
45607W        W17933   4.472  26.431  12.108
45608W        W17934  21.154  26.928   2.756
45609W        W17935  34.431   5.340   1.365
45610W        W17936  29.043   4.219   2.900
45611W        W17937  32.027  12.191   0.207
45612W        W17938   0.303   4.856   2.773
45613W        W17939   6.355  27.467  14.431
45614W        W17940  34.897  32.714   2.358
45615W        W17941  44.376  24.576  12.395
45616W        W17942  21.093   4.110   3.842
45617W        W17943   4.619  35.912  13.329
45618W        W17944  15.341  39.213  13.366
45619W        W17945  37.373  39.778  13.324
45620W        W17946   3.498  31.448  13.974
45621W        W17947   2.560  19.357   1.233
45622W        W17948  10.587  13.535  12.869
45623W        W17949  41.458   1.275  14.836
45624W        W17950  39.597  36.800   3.604
45625W        W17951  20.935  39.883   0.507
45626W        W17952  38.941   9.491  11.084
45627W        W17953  41.887  18.723   2.796
45628W        W17954  16.191  30.634  10.625
45629W        W17955   5.173  11.818  12.035
45630W        W17956  24.111  20.297   4.223
45631W        W17957   3.806  38.440  13.024
45632W        W17958  28.564  17.704   4.840
45633W        W17959  42.074  12.714   3.242
45634W        W17960  27.614  18.604   0.831
45635W        W17961   5.353  21.091  13.827
45636W        W17962  17.779  43.056  12.606
45637W        W17963   8.284  37.163  14.467
45638W        W17964  36.165   3.758   1.799
45639W        W17965  12.747  23.767   2.224
45640W        W17966  25.258  40.408  14.350
45641W        W17967  10.211  21.959  11.554
45642W        W17968   9.207  36.935   3.462
45643W        W17969  17.934  12.765  12.958
45644W        W17970   5.636  37.519   5.009
45645W        W17971  42.925  18.090  12.424
45646W        W17972   3.464   4.879   1.290
45647W        W17973  21.622  41.507  11.682
45648W        W17974  14.710   2.233  14.959
45649W        W17975  21.205  14.127  11.602
45650W        W17976   5.216  39.909  10.847
45651W        W17977   2.044   3.248  10.610
45652W        W17978  30.507   6.285   3.415
45653W        W17979   2.797   8.238  14.489
45654W        W17980  42.710  41.138   0.446
45655W        W17981  17.571   7.813  12.836
45656W        W17982  12.143   3.195  12.509
45657W        W17983   1.257  24.029   2.727
45658W        W17984  28.298  11.385   0.468
45659W        W17985   1.565  16.210  14.262
45660W        W17986  28.430   5.720  12.076
45661W        W17987   0.515  27.722   2.897
45662W        W17988  42.331  37.672   3.335
45663W        W17989   6.537  11.622   4.426
45664W        W17990  28.701  27.243   1.768
45665W        W17991  26.187   0.946  11.194
45666W        W17992  17.799   7.276  14.141
45667W        W17993  11.683  12.187  14.858
45668W        W17994  23.609  36.389   1.319
45669W        W17995   1.258   1.783   4.751
45670W        W17996  29.986  33.900  12.061
45671W        W17997   0.213  30.134   3.553
45672W        W17998  21.259  42.988  12.000
45673W        W17999  10.259  14.201  11.957
45674W        W18000  15.608   9.766   1.920
45675W        W18001  38.852  25.688  11.978
45676W        W18002  38.308  34.018  13.912
45677W        W18003  40.006  33.147   2.705
45678W        W18004  43.176  44.751  13.752
45679W        W18005   9.544  36.690  11.161
45680W        W18006   3.587  31.449  10.930
45681W        W18007  34.576  40.840  10.884
45682W        W18008  22.120  18.641  11.548
45683W        W18009  16.321  40.694  13.511
45684W        W18010  27.413   1.728   4.289
45685W        W18011  37.609  20.488   4.070
45686W        W18012  11.602   9.997   1.693
45687W        W18013  40.421  28.050  14.052
45688W        W18014  10.270  40.014  10.669
45689W        W18015  11.790   8.906  13.540
45690W        W18016  13.785   1.009   2.418
45691W        W18017   3.397   1.107  13.814
45692W        W18018  43.945  16.389  11.182
45693W        W18019  10.069   7.780  12.892
45694W        W18020   4.620  34.111  12.005
45695W        W18021  27.672  37.942   1.782
45696W        W18022  36.993   3.797   2.834
45697W        W18023   9.979   9.248  11.480
45698W        W18024  23.948  28.110  14.724
45699W        W18025   6.347  42.286   4.196
45700W        W18026  28.872   8.769  13.532
45701W        W18027  15.217  25.134   2.182
45702W        W18028  21.571  13.355  10.806
45703W        W18029   2.594  29.192  11.620
45704W        W18030   3.553   9.298   3.706
45705W        W18031  25.095  29.617   3.204
45706W        W18032  14.600  36.969   2.834
45707W        W18033  39.267  15.672  13.054
45708W        W18034   9.972   2.092  12.587
45709W        W18035  20.825   8.034  14.438
45710W        W18036  22.106  15.293   1.343
45711W        W18037  34.015  12.221   3.458
45712W        W18038  28.573   9.057  11.592
45713W        W18039  21.665  21.126   4.033
45714W        W18040  21.599  27.984  14.998
45715W        W18041  33.546  34.566   4.349
45716W        W18042  25.478  39.647  12.611
45717W        W18043  36.395  34.535  10.216
45718W        W18044  33.981  26.816   1.769
45719W        W18045  13.834  35.349  12.881
45720W        W18046  36.561   4.911  11.615
45721W        W18047  39.033  25.972  12.908
45722W        W18048  17.678  29.525  11.615
45723W        W18049   9.823  17.740   4.376
45724W        W18050   9.863  42.302  12.478
45725W        W18051   0.733  35.109  14.982
45726W        W18052  37.467  11.284   1.484
45727W        W18053  13.935  17.688   0.406
45728W        W18054  26.851  42.389  10.641
45729W        W18055  27.115  38.303   0.684
45730W        W18056  40.391  35.040   0.763
45731W        W18057  38.348   3.260   4.646
45732W        W18058  18.602  32.640  10.584
45733W        W18059  24.023  27.985   1.819
45734W        W18060  33.442  39.744  12.389
45735W        W18061  23.538  18.119  13.806
45736W        W18062  29.364  39.377   0.762
45737W        W18063  24.588   5.433   0.416
45738W        W18064  41.912  34.447  11.875
45739W        W18065  11.229  35.844  10.073
45740W        W18066   5.180  28.702  10.673
45741W        W18067   2.245   1.829  10.234
45742W        W18068  24.695  19.270   3.900
45743W        W18069  31.952  28.470  11.253
45744W        W18070   7.199  28.355  13.502
45745W        W18071   1.550  34.008   1.964
45746W        W18072  41.331   9.798  12.473
45747W        W18073   4.447  31.488  12.435
45748W        W18074  19.561  38.926   2.762
45749W        W18075  19.287   0.834   3.903
45750W        W18076  19.602  11.221   1.444
45751W        W18077  36.633  26.088   4.463
45752W        W18078   6.344  32.535  13.523
45753W        W18079  10.919  15.769   0.073
45754W        W18080  26.128  19.141   3.299
45755W        W18081  15.020  33.929   1.418
45756W        W18082  23.572  30.937  12.006
45757W        W18083  31.420  29.554  12.443
45758W        W18084  37.293  28.413   2.849
45759W        W18085   9.799  14.620   0.231
45760W        W18086  24.482   4.386   3.599
45761W        W18087  35.058   2.114   3.276
45762W        W18088   2.368   6.908  12.469
45763W        W18089  13.647   2.553   2.324
45764W        W18090  40.527   5.805   2.348
45765W        W18091  19.523  22.709  11.103
45766W        W18092  18.700  39.698  13.821
45767W        W18093  42.741   6.408  13.464
45768W        W18094   2.911  14.649   0.727
45769W        W18095  39.961  29.049   0.264
45770W        W18096   6.017  43.793   0.901
45771W        W18097  29.716  39.835  12.934
45772W        W18098  18.743  27.367  13.954
45773W        W18099  25.902  34.555  14.276
45774W        W18100  13.127  24.079  11.109
45775W        W18101  14.779  38.619  11.600
45776W        W18102  42.843   5.214   3.650
45777W        W18103  12.663  37.158  14.959
45778W        W18104  16.671   7.420  12.041
45779W        W18105   5.878  14.086   1.811
45780W        W18106  42.247  17.674  14.147
45781W        W18107  44.320   5.654   3.272
45782W        W18108   4.278  30.827  11.078
45783W        W18109  10.331   4.878   1.406
45784W        W18110   9.803  24.628   2.692
45785W        W18111  31.420  21.074  13.486
45786W        W18112  27.479  28.678  11.035
45787W        W18113   1.320  28.890  13.862
45788W        W18114  28.154  44.844   0.929
45789W        W18115  32.966   2.811   4.063
45790W        W18116  37.801  29.539   0.731
45791W        W18117  15.854  37.463   2.194
45792W        W18118  41.222  34.517  11.877
45793W        W18119  40.107   8.713   1.957
45794W        W18120  29.221   7.173   3.276
45795W        W18121  31.719  22.652   3.110
45796W        W18122  19.165  31.924   2.868
45797W        W18123   4.190  30.621   4.049
45798W        W18124   6.234  37.575   1.916
45799W        W18125   1.074  41.641  13.830
45800W        W18126   0.490  40.214   2.603
45801W        W18127  41.497  37.383  12.598
45802W        W18128  17.879  15.495   1.574
45803W        W18129  42.735  27.190   2.365
45804W        W18130  40.577  12.720  11.098
45805W        W18131   6.837  25.598  11.879
45806W        W18132  29.504  34.072   1.949
45807W        W18133  24.723  13.587   3.191
45808W        W18134  41.832   4.488  14.744
45809W        W18135   6.993  39.942  14.280
45810W        W18136  12.205  44.755  14.884
45811W        W18137  25.643   1.356   2.739
45812W        W18138  29.139  17.645  13.382
45813W        W18139  35.085  30.075  14.895
45814W        W18140  43.348  32.265  14.510
45815W        W18141   1.467  30.650   3.312
45816W        W18142  14.819  20.085  12.032
45817W        W18143  40.484  34.444   1.841
45818W        W18144  31.584   6.278   1.407
45819W        W18145   1.009  27.750   2.250
45820W        W18146   8.933  39.527   3.271
45821W        W18147  13.151  26.579   3.343
45822W        W18148   8.133   9.744   1.327
45823W        W18149  14.283  10.639   4.576
45824W        W18150  35.930  36.904  10.659
45825W        W18151  26.902  17.830   0.756
45826W        W18152  38.107  42.325   0.336
45827W        W18153  44.904  13.880  14.509
45828W        W18154  24.140  29.138   0.397
45829W        W18155  35.355  21.226   0.820
45830W        W18156   5.993   0.339   4.722
45831W        W18157  38.345   5.126   0.481
45832W        W18158  10.600   8.900  12.537
45833W        W18159  25.747  27.148   1.774
45834W        W18160  25.608  38.007   3.343
45835W        W18161  32.464  12.662   1.653
45836W        W18162  16.034  41.106   0.401
45837W        W18163  23.426  44.243   0.704
45838W        W18164   9.295  25.266  10.908
45839W        W18165   1.416  30.168  12.545
45840W        W18166  28.370  21.639   2.753
45841W        W18167  18.031  40.516   2.969
45842W        W18168  13.033  19.910   3.292
45843W        W18169  14.065   4.940  11.046
45844W        W18170  41.487  42.972   0.299
45845W        W18171  12.918  18.144  13.453
45846W        W18172   8.235  29.150   4.348
45847W        W18173  37.306   0.546  14.730
45848W        W18174   4.753  36.341   4.213
45849W        W18175  42.779  37.336  14.773
45850W        W18176  28.579   1.989   3.780
45851W        W18177  17.767  36.891   3.207
45852W        W18178  23.765  37.370  10.368
45853W        W18179  30.482  34.341   2.220
45854W        W18180  40.104  12.823   1.016
45855W        W18181   1.379  29.122   2.257
45856W        W18182   2.717  23.137   1.972
45857W        W18183   3.941  41.326  11.613
45858W        W18184  16.144  27.027   0.867
45859W        W18185  33.157  36.385  10.490
45860W        W18186  41.122   4.540  11.007
45861W        W18187  36.424  10.943  11.545
45862W        W18188  27.447  10.350  14.319
45863W        W18189  19.217  37.899  10.692
45864W        W18190   5.451  21.263   0.882
45865W        W18191  31.907  28.552   0.494
45866W        W18192  33.418  40.414   2.704
45867W        W18193   4.929  29.267  12.566
45868W        W18194  22.373  10.202  10.119
45869W        W18195  22.464  19.778  13.140
45870W        W18196  38.129  33.991   0.946
45871W        W18197  21.562  18.309  11.429
45872W        W18198  19.529   4.587  14.464
45873W        W18199  21.431  35.094  11.933
45874W        W18200   8.559  34.849   4.856
45875W        W18201  11.568  30.109   2.822
45876W        W18202   1.792  34.867  12.847
45877W        W18203  10.175   2.495  13.866
45878W        W18204  44.388   8.677  13.332
45879W        W18205  15.651  16.277   3.599
45880W        W18206  17.867  34.380  11.674
45881W        W18207  14.615   5.150   3.380
45882W        W18208  16.316  34.890  13.930
45883W        W18209  41.850  10.424   2.888
45884W        W18210   7.170  35.416   4.166
45885W        W18211  25.154   3.384  13.142
45886W        W18212  10.145  32.835   0.806
45887W        W18213  36.026  12.875   1.783
45888W        W18214  21.410   2.832   2.786
45889W        W18215  34.085  33.092   5.539
45890W        W18216  33.067  10.016   2.118
45891W        W18217   8.414  33.928  13.318
45892W        W18218  12.187  38.573   4.353
45893W        W18219  43.123   7.435  12.484
45894W        W18220  10.660  44.072   4.467
45895W        W18221  33.357  40.003  10.984
45896W        W18222  23.187  15.697   1.481
45897W        W18223  12.345  19.692   2.293
45898W        W18224  37.991  18.314   1.232
45899W        W18225  28.792  25.650   2.684
45900W        W18226  34.917  35.470   5.696
45901W        W18227  10.097  11.764   5.123
45902W        W18228   2.921  28.136  14.822
45903W        W18229   3.945   9.988   1.511
45904W        W18230  35.013  12.538  13.845
45905W        W18231  21.937  36.787   1.781
45906W        W18232  27.459   9.457   1.282
45907W        W18233   5.805   1.516   4.250
45908W        W18234   8.150   1.717  10.201
45909W        W18235  31.168  39.265   3.891
45910W        W18236  12.116   6.404   3.216
45911W        W18237  36.242  12.895   0.235
45912W        W18238  13.877  11.344   1.415
45913W        W18239  34.155  29.674  13.366
45914W        W18240  27.985  18.987  11.949
45915W        W18241  40.847   5.367   1.785
45916W        W18242  32.263  44.022  10.486
45917W        W18243  18.896   1.570   0.762
45918W        W18244  14.434   1.369   2.798
45919W        W18245  33.961  33.818   0.537
45920W        W18246  11.416  24.628   3.600
45921W        W18247  12.058  28.483  14.817
45922W        W18248   7.228   5.939  14.832
45923W        W18249  42.840   5.648   3.389
45924W        W18250  37.965   2.932  10.606
45925W        W18251  39.618  33.496   0.501
45926W        W18252   2.371  35.767   4.147
45927W        W18253  32.304  18.521  10.426
45928W        W18254   9.267   3.653   3.661
45929W        W18255  26.129  39.285  14.703
45930W        W18256  38.760  10.101   1.396
45931W        W18257  32.671  10.766   2.705
45932W        W18258  15.655   0.355   4.881
45933W        W18259   7.119  25.443  12.283
45934W        W18260  40.825  43.966  13.374
45935W        W18261   5.770   7.751  13.460
45936W        W18262   8.407   4.727   4.565
45937W        W18263  26.525  22.819  13.592
45938W        W18264  12.296  27.039   5.309
45939W        W18265  32.470  39.017   0.283
45940W        W18266  14.932   8.142  10.819
45941W        W18267  20.042  28.441  11.000
45942W        W18268  20.948  15.364   2.881
45943W        W18269  39.946  42.441   1.676
45944W        W18270  39.725   2.442  11.457
45945W        W18271  21.127  31.932   2.844
45946W        W18272   0.726  23.119  13.587
45947W        W18273  16.616   1.845  13.210
45948W        W18274  11.252  13.733   4.140
45949W        W18275  36.960  12.754   3.165
45950W        W18276  23.137  14.786  13.899
45951W        W18277   8.353   2.519   0.840
45952W        W18278  44.082  32.750  14.376
45953W        W18279  36.795  29.898  11.546
45954W        W18280  32.007  29.203   0.847
45955W        W18281  15.088  19.707  10.694
45956W        W18282  22.130   2.951  14.755
45957W        W18283  30.839  27.907  13.319
45958W        W18284  41.783  23.158  12.798
45959W        W18285  39.444  14.264  10.908
45960W        W18286  41.785   7.441   4.772
45961W        W18287  43.366  25.985   1.910
45962W        W18288  17.515  17.068  12.376
45963W        W18289   2.954  39.016   3.672
45964W        W18290  12.115  35.360  10.484
45965W        W18291  36.673   2.030  10.735
45966W        W18292  13.378  33.111   1.303
45967W        W18293  44.793  37.609   4.599
45968W        W18294  39.822  12.376   1.790
45969W        W18295   6.184  44.845   2.237
45970W        W18296   3.629  13.367   0.386
45971W        W18297  34.949  43.159  11.626
45972W        W18298  43.157  41.985  13.865
45973W        W18299  11.737   0.953   2.778
45974W        W18300  12.880  38.610   3.408
45975W        W18301  34.819  12.404  14.737
45976W        W18302  27.703  17.270  13.886
45977W        W18303  35.319  39.939  12.893
45978W        W18304   9.988  27.457   4.411
45979W        W18305  31.676  11.992  12.390
45980W        W18306  26.088  14.132   3.205
45981W        W18307  25.678   0.850   2.723
45982W        W18308   3.871  37.365   3.077
45983W        W18309  18.524   3.205  11.917
45984W        W18310  21.028  20.744   4.292
45985W        W18311   5.371  36.318  13.364
45986W        W18312  30.603  36.587  12.056
45987W        W18313  43.439  20.655  13.287
45988W        W18314  35.623  40.500  10.787
45989W        W18315  16.299  21.088   1.913
45990W        W18316   4.404  12.232   5.910
45991W        W18317  14.041   2.980   1.146
45992W        W18318  30.063  18.809  12.280
45993W        W18319  14.792   8.893   5.006
45994W        W18320   5.174  42.443  14.085
45995W        W18321  37.823  23.950   2.825
45996W        W18322  40.246  40.571   1.441
45997W        W18323  20.785   5.840  12.497
45998W        W18324  24.818  43.547   1.748
45999W        W18325  29.041   3.248  14.086
46000W        W18326  32.864  20.316  12.806
46001W        W18327   9.153  11.245  12.058
46002W        W18328  31.527   3.680   3.060
46003W        W18329  10.302   5.464   3.241
46004W        W18330  37.611  34.522  13.010
46005W        W18331  27.097  30.104   2.427
46006W        W18332   9.656  32.055  10.467
46007W        W18333  39.153   9.304  14.401
46008W        W18334  30.065  28.184   0.282
46009W        W18335   4.444  24.724  14.465
46010W        W18336  23.628  24.494  14.036
46011W        W18337   0.193  18.875  11.043
46012W        W18338  21.666  19.429  12.955
46013W        W18339   0.486   9.919  13.407
46014W        W18340  29.540   5.336   0.666
46015W        W18341  20.268   8.738  14.313
46016W        W18342  39.506   1.296  14.650
46017W        W18343  38.022  10.533  10.681
46018W        W18344   3.379  19.208   3.781
46019W        W18345  39.317   4.318  13.059
46020W        W18346  27.090  38.513   4.881
46021W        W18347  26.015  27.265  13.302
46022W        W18348  27.074   8.221  11.011
46023W        W18349   1.772  23.880  13.555
46024W        W18350  35.279  27.911  10.302
46025W        W18351  17.149  25.932   0.410
46026W        W18352  23.980  37.000   1.736
46027W        W18353  33.717  25.255   4.161
46028W        W18354  17.809  35.178  12.144
46029W        W18355   2.435  40.517  11.717
46030W        W18356  27.851  38.991   0.367
46031W        W18357  24.768   0.979   1.679
46032W        W18358  32.129   3.688  14.438
46033W        W18359  42.877  13.697   0.767
46034W        W18360  20.318   1.307   3.384
46035W        W18361  20.311  23.209  11.061
46036W        W18362  19.040  44.414  13.979
46037W        W18363  22.237  27.228   4.392
46038W        W18364  10.209   3.241   5.160
46039W        W18365  19.606  44.441   3.707
46040W        W18366  33.377  38.601  14.411
46041W        W18367  31.741  44.352   0.307
46042W        W18368  25.623  22.112   1.850
46043W        W18369  36.656  42.295   3.336
46044W        W18370  17.076   9.088   2.730
46045W        W18371  36.474  37.103   4.193
46046W        W18372  33.345   8.470   3.933
46047W        W18373   8.350  37.322  12.522
46048W        W18374   8.478  10.620  13.586
46049W        W18375  12.401  24.949   1.851
46050W        W18376  23.940   1.438   0.829
46051W        W18377  11.863  33.846   0.798
46052W        W18378  42.897   0.926   3.462
46053W        W18379  12.229  13.077   2.034
46054W        W18380  16.841  18.009  10.948
46055W        W18381  40.552   3.408   4.175
46056W        W18382  26.212  27.896   2.674
46057W        W18383  24.745  44.922   4.765
46058W        W18384   3.361  33.090   1.768
46059W        W18385  15.390  28.255   1.937
46060W        W18386  13.044  30.462  12.104
46061W        W18387  28.577   3.408   1.456
46062W        W18388  28.407  39.339   3.140
46063W        W18389   8.647  32.911   2.955
46064W        W18390  24.001  28.145   9.969
46065W        W18391  14.433  34.869  10.699
46066W        W18392   2.287  28.272   3.517
46067W        W18393   4.757   9.807   3.239
46068W        W18394   4.814  33.530  14.007
46069W        W18395   3.381  19.726  12.985
46070W        W18396   5.943  24.447   0.030
46071W        W18397  30.564   3.366   1.224
46072W        W18398   6.252  27.717   0.408
46073W        W18399  33.441  30.581  12.577
46074W        W18400  38.002   4.855   2.788
46075W        W18401  25.553  15.225  10.389
46076W        W18402   2.048  42.021   2.297
46077W        W18403  15.320  20.253   3.609
46078W        W18404  43.648  13.937  11.162
46079W        W18405  42.503  25.441  14.381
46080W        W18406   0.035   0.657   0.962
46081W        W18407  13.500  10.365   4.544
46082W        W18408  40.545  31.734   4.313
46083W        W18409  11.959  34.507  13.855
46084W        W18410  25.272  21.851  11.942
46085W        W18411  29.029  19.819   0.678
46086W        W18412   7.635  36.958  13.730
46087W        W18413   4.972  34.126  11.541
46088W        W18414  19.748   0.870   3.657
46089W        W18415  16.659  22.963   0.399
46090W        W18416   1.147  27.453  14.415
46091W        W18417  35.581  33.984   0.783
46092W        W18418   6.518  13.503  13.909
46093W        W18419  23.969  17.417   4.743
46094W        W18420  16.898  18.200   5.017
46095W        W18421   1.995   2.465  11.269
46096W        W18422  22.971  19.225  11.547
46097W        W18423  31.927  29.699  11.525
46098W        W18424  24.337   6.753  12.807
46099W        W18425  22.129  34.737  12.584
46100W        W18426  40.583  13.629  11.660
46101W        W18427  23.740   0.370   1.310
46102W        W18428  28.607  19.015  14.884
46103W        W18429  29.449  12.352   3.097
46104W        W18430  19.482  11.180   4.856
46105W        W18431   7.378  20.502  13.604
46106W        W18432  11.684  30.697   3.151
46107W        W18433  25.128  26.568  10.727
46108W        W18434   8.951  17.963   2.264
46109W        W18435  23.519   8.759  10.654
46110W        W18436  42.920   2.562   4.054
46111W        W18437  10.304  14.258   1.764
46112W        W18438   3.335  43.930   3.636
46113W        W18439  15.675  38.064  14.987
46114W        W18440  26.586  39.314  14.445
46115W        W18441  11.189  10.308  13.195
46116W        W18442   2.500  24.123   2.799
46117W        W18443  34.147  27.649  14.328
46118W        W18444  16.376  37.917   1.935
46119W        W18445  43.887  36.876   4.665
46120W        W18446  43.262  17.135   2.388
46121W        W18447   0.360   2.377  10.791
46122W        W18448  25.651  33.157   4.376
46123W        W18449  44.656   2.812  12.358
46124W        W18450  18.060  43.790  13.325
46125W        W18451   9.334  38.234   2.721
46126W        W18452  22.035  10.055  11.847
46127W        W18453  11.892  38.620  11.483
46128W        W18454  29.632  24.355   3.669
46129W        W18455   1.498  31.998   2.800
46130W        W18456  13.882  11.883  11.100
46131W        W18457  16.577  28.515  12.598
46132W        W18458   7.352  16.081   0.777
46133W        W18459   0.775  10.294   5.092
46134W        W18460  39.946  35.108   2.236
46135W        W18461   3.381  33.546  11.015
46136W        W18462  37.072  12.213   4.960
46137W        W18463  11.889  42.507  14.860
46138W        W18464  29.210  35.553   0.875
46139W        W18465  38.232  34.328  14.492
46140W        W18466   3.620  19.056   1.931
46141W        W18467  11.178   2.154   2.800
46142W        W18468  29.088  39.786   2.904
46143W        W18469   1.344   6.658  14.721
46144W        W18470  29.178  11.259   0.917
46145W        W18471   0.010  20.720   3.271
46146W        W18472  23.169  33.116  11.535
46147W        W18473  42.017  29.170  13.134
46148W        W18474  10.243  14.860  12.965
46149W        W18475  27.552  10.792  11.659
46150W        W18476   6.709  26.477  12.609
46151W        W18477  18.457  29.539   2.315
46152W        W18478  35.018  20.781  14.895
46153W        W18479   9.781  27.119   4.745
46154W        W18480  20.802  21.307   0.560
46155W        W18481  24.979   0.560   2.899
46156W        W18482  35.051  20.066  14.157
46157W        W18483  11.489   0.548  12.204
46158W        W18484  30.671   2.859   3.707
46159W        W18485  14.057  24.059   1.338
46160W        W18486  27.687  33.949  10.607
46161W        W18487   4.007   4.201   3.437
46162W        W18488  42.885  43.480  11.145
46163W        W18489  40.909  36.745   4.611
46164W        W18490  15.383  37.847  10.657
46165W        W18491  16.902  27.606  13.662
46166W        W18492  37.441  12.349   3.742
46167W        W18493  14.610  24.314  10.054
46168W        W18494  32.514   8.624   0.784
46169W        W18495  19.168  18.131   0.695
46170W        W18496  44.943   8.866   4.693
46171W        W18497  44.656  13.269  13.347
46172W        W18498   5.863   8.486  14.476
46173W        W18499  21.634  28.933   2.318
46174W        W18500  21.086  32.338   5.062
46175W        W18501   9.767   0.235  12.009
46176W        W18502  23.021  28.969  14.948
46177W        W18503  10.505  34.785  11.497
46178W        W18504  22.800  24.270  12.887
46179W        W18505  42.957  33.439   1.935
46180W        W18506  18.171  29.708  14.466
46181W        W18507  32.432   7.813  14.597
46182W        W18508  27.172  26.448  14.817
46183W        W18509  25.671  18.930  11.036
46184W        W18510   5.201  35.864  14.282
46185W        W18511  29.546  10.751   3.303
46186W        W18512  32.941  44.048   1.655
46187W        W18513  12.282  42.879   3.249
46188W        W18514  10.709  42.709  11.931
46189W        W18515  39.998  13.162  14.608
46190W        W18516  31.577  37.124   2.112
46191W        W18517  23.067  37.799   1.888
46192W        W18518  37.619   6.839   1.209
46193W        W18519  16.316  14.843   2.259
46194W        W18520  24.509  12.347   2.754
46195W        W18521   2.949  13.260  11.231
46196W        W18522  21.244  23.539  10.669
46197W        W18523   2.363   1.028   4.012
46198W        W18524  42.968  40.782  13.938
46199W        W18525  12.469  22.182   2.352
46200W        W18526  21.205   0.496   4.447
46201W        W18527  32.667  25.671  11.453
46202W        W18528  44.568  25.288   4.136
46203W        W18529  35.790   0.754  13.414
46204W        W18530   9.712  13.348   2.687
46205W        W18531  15.733   2.164  13.218
46206W        W18532  13.226  23.719   4.326
46207W        W18533  24.544  29.540   3.934
46208W        W18534  34.711  36.080  13.676
46209W        W18535   4.768  33.877  13.270
46210W        W18536  38.034  32.574   2.330
46211W        W18537   4.853  40.122  11.202
46212W        W18538  43.918   8.998  12.052
46213W        W18539  16.698  42.965   2.869
46214W        W18540  11.377   9.391  12.864
46215W        W18541  19.810  23.880  13.398
46216W        W18542  31.140   5.040  12.426
46217W        W18543   3.861  18.262   3.216
46218W        W18544   7.668   9.882  12.524
46219W        W18545  12.075  25.897   2.825
46220W        W18546  41.713  10.249   5.011
46221W        W18547  23.089  17.370   4.972
46222W        W18548  43.265  43.731   4.180
46223W        W18549  40.958  32.962   0.045
46224W        W18550  17.938  21.572  14.000
46225W        W18551   3.736  40.520   3.328
46226W        W18552  12.384  27.607  12.348
46227W        W18553  36.964  40.161   4.730
46228W        W18554  16.051  37.868  11.763
46229W        W18555  19.895  20.574   3.743
46230W        W18556  31.298  33.600  12.002
46231W        W18557   9.838  33.167  14.423
46232W        W18558  23.069  29.621   3.285
46233W        W18559  19.845  31.014   5.085
46234W        W18560  38.071  22.070   3.756
46235W        W18561  44.036  12.216  12.328
46236W        W18562   3.271  29.699   2.233
46237W        W18563   7.734  18.642  11.414
46238W        W18564   0.279  43.336  10.726
46239W        W18565  25.298  33.026  12.480
46240W        W18566  11.373  31.990   0.543
46241W        W18567   9.402  21.629  14.869
46242W        W18568  16.983   5.911  14.256
46243W        W18569  17.797  37.497   0.974
46244W        W18570   4.996   9.949   2.811
46245W        W18571   1.520  40.522   4.438
46246W        W18572  29.967  30.953  13.848
46247W        W18573  28.123  11.168  13.020
46248W        W18574  35.527   8.624   4.578
46249W        W18575   4.243   2.884  11.168
46250W        W18576   9.758   6.384   3.146
46251W        W18577   9.868  41.853  13.349
46252W        W18578  41.941   7.199   4.305
46253W        W18579  31.474  10.810   4.618
46254W        W18580  13.848   1.118  13.395
46255W        W18581   2.505   7.825  12.615
46256W        W18582  18.333  25.616  14.286
46257W        W18583  25.690  35.312   5.064
46258W        W18584   3.037  30.649   1.396
46259W        W18585  15.705  23.694  11.795
46260W        W18586  16.583   8.085  10.668
46261W        W18587  29.512  37.823   1.794
46262W        W18588  38.280  34.093   2.246
46263W        W18589  29.945   6.118  11.726
46264W        W18590  20.230   5.434  14.373
46265W        W18591  44.347  27.713  12.611
46266W        W18592  15.854  24.261  12.887
46267W        W18593  29.395   9.848   3.100
46268W        W18594  17.770  16.246   4.882
46269W        W18595  36.940  11.709   4.877
46270W        W18596  33.439  28.671  10.296
46271W        W18597  17.710  38.320  12.445
46272W        W18598  39.438  20.969   3.729
46273W        W18599   8.642  26.756  12.165
46274W        W18600  27.880  32.626  13.876
46275W        W18601   2.905  31.669   3.128
46276W        W18602  27.083  21.110  10.212
46277W        W18603  44.663   7.928   1.405
46278W        W18604  33.434  18.832  14.491
46279W        W18605  26.696  19.772   2.274
46280W        W18606  23.939  42.999  14.230
46281W        W18607  41.371  29.931  10.763
46282W        W18608  17.209  31.618  10.746
46283W        W18609  21.607  18.580   4.085
46284W        W18610  17.792   0.753   3.195
46285W        W18611   2.772  31.863  12.414
46286W        W18612  18.525  13.282   0.540
46287W        W18613  32.576  12.818  11.607
46288W        W18614  21.494  15.332   0.046
46289W        W18615  25.105  39.397   2.053
46290W        W18616  36.015  26.980  12.072
46291W        W18617  35.550  19.293   3.185
46292W        W18618  13.400  32.514  13.877
46293W        W18619   2.961  30.496  14.159
46294W        W18620  29.411  30.788   5.040
46295W        W18621   0.827  42.394   3.160
46296W        W18622  24.903  28.089   1.904
46297W        W18623  23.101   7.456  11.637
46298W        W18624   1.776   9.641   0.026
46299W        W18625  43.863  29.067  11.150
46300W        W18626  34.823  17.567   3.253
46301W        W18627  11.592  28.046   4.571
46302W        W18628  25.638  27.493   3.438
46303W        W18629  20.094  10.062   2.193
46304W        W18630  29.152  29.446  14.910
46305W        W18631  24.695  34.015   2.846
46306W        W18632  25.946  11.686  11.558
46307W        W18633  40.434  40.202   2.878
46308W        W18634   5.817  30.371  14.406
46309W        W18635   9.370  37.673  11.356
46310W        W18636  24.927  21.644  12.394
46311W        W18637   4.908   2.748  12.505
46312W        W18638  41.813  28.593   2.331
46313W        W18639   6.627  19.660   4.206
46314W        W18640  27.707  44.742  14.770
46315W        W18641   3.609  27.934  12.427
46316W        W18642  13.776  10.881   0.583
46317W        W18643  27.608  41.847  10.553
46318W        W18644   4.459  32.568   1.087
46319W        W18645   8.770   9.658  14.495
46320W        W18646  20.147  20.532   0.956
46321W        W18647  32.881   5.892   0.732
46322W        W18648   0.935   6.376  13.776
46323W        W18649   9.812  21.150  11.649
46324W        W18650  29.599  29.606   3.633
46325W        W18651  15.184  40.787  12.989
46326W        W18652  35.005   5.459   4.246
46327W        W18653  40.479  32.046   1.935
46328W        W18654  10.214  24.771  10.906
46329W        W18655  41.289  21.822   3.956
46330W        W18656  31.601  41.793  12.655
46331W        W18657   6.175  21.710  11.128
46332W        W18658  29.245   0.427  13.941
46333W        W18659  20.019  31.336   2.868
46334W        W18660  27.023  40.630   1.957
46335W        W18661  20.116  34.997   3.424
46336W        W18662  15.335  28.124  10.615
46337W        W18663  27.397  44.378  12.861
46338W        W18664   7.200  28.671   4.148
46339W        W18665  39.442  14.548   2.392
46340W        W18666   7.649   0.872   1.900
46341W        W18667  38.392   3.227  13.818
46342W        W18668  27.020  30.577   2.577
46343W        W18669  13.328  31.662   0.323
46344W        W18670  40.424   3.934   1.176
46345W        W18671   8.137  29.755   0.490
46346W        W18672  25.762  24.774   2.451
46347W        W18673  37.785   6.474   2.416
46348W        W18674  25.201  43.889   1.455
46349W        W18675  43.485  20.222   2.377
46350W        W18676   8.608  44.778   0.028
46351W        W18677  22.569  38.769   2.134
46352W        W18678  41.838  20.579  13.118
46353W        W18679  28.933   2.813  13.792
46354W        W18680  44.530  41.335   4.583
46355W        W18681  23.990   9.802   0.337
46356W        W18682   6.856  12.070   1.238
46357W        W18683  24.359  11.845   3.565
46358W        W18684   9.856  42.556   3.185
46359W        W18685   6.193  31.671   4.639
46360W        W18686  30.229  41.368  14.851
46361W        W18687  34.825  21.751   4.315
46362W        W18688  37.325  41.650   4.611
46363W        W18689  10.979  25.912  11.982
46364W        W18690  31.448   0.269  11.147
46365W        W18691  36.556   4.279   4.650
46366W        W18692   0.264  39.947  12.039
46367W        W18693   4.731  27.667  11.733
46368W        W18694   8.856  43.189  11.334
46369W        W18695  26.540  22.111  10.576
46370W        W18696  35.796  44.965   3.710
46371W        W18697  19.773   9.804   2.507
46372W        W18698  22.999  14.357   3.247
46373W        W18699  16.227  31.045   4.666
46374W        W18700  44.456  16.472   5.224
46375W        W18701  34.805   2.452  14.760
46376W        W18702  27.824  11.154  12.575
46377W        W18703  13.555   7.783   3.126
46378W        W18704  19.086  32.588   3.713
46379W        W18705   7.077  27.620  13.442
46380W        W18706  43.559  26.087   0.075
46381W        W18707   5.659  39.497  11.404
46382W        W18708   3.568  19.222   1.147
46383W        W18709  24.264   0.800  11.672
46384W        W18710  44.035  10.307   2.844
46385W        W18711   2.320  41.114   4.244
46386W        W18712  17.560   8.220  14.115
46387W        W18713  34.547  29.919   1.690
46388W        W18714  33.419  22.584   0.922
46389W        W18715  10.776  17.175  10.629
46390W        W18716  25.590   6.706   1.470
46391W        W18717  23.033  25.007  10.422
46392W        W18718  33.115  29.566  14.605
46393W        W18719  33.577  11.293   2.307
46394W        W18720  28.751  26.654   2.736
46395W        W18721  38.955   7.175   2.119
46396W        W18722   1.342  35.621   3.242
46397W        W18723  41.486   2.090   2.352
46398W        W18724   4.872  27.930   2.513
46399W        W18725   5.330   9.401   3.585
46400W        W18726  16.670  19.657  14.417
46401W        W18727  41.264  11.355   1.770
46402W        W18728  11.566  13.110   4.638
46403W        W18729   4.171  28.174   0.280
46404W        W18730   6.752  26.528   0.508
46405W        W18731  26.591  13.523   4.665
46406W        W18732  14.235  10.680   0.817
46407W        W18733   7.235   9.876   2.943
46408W        W18734  36.428  10.205   4.802
46409W        W18735  37.361  41.966   4.171
46410W        W18736  32.455   8.334   2.475
46411W        W18737  22.637  38.973   0.358
46412W        W18738  32.943  44.806   3.138
46413W        W18739  28.838  42.405  11.488
46414W        W18740  42.078  18.473  10.934
46415W        W18741  37.925  25.314  10.327
46416W        W18742  37.254  22.527   0.433
46417W        W18743  11.676  38.895   2.139
46418W        W18744  20.548  22.056  13.402
46419W        W18745   2.896  24.442   5.064
46420W        W18746  12.667  15.812  13.842
46421W        W18747  23.510   0.763   0.392
46422W        W18748  33.368  12.478   0.628
46423W        W18749  37.090  29.977   0.841
46424W        W18750  10.099   7.599  11.574
46425W        W18751  25.869  31.605   0.070
46426W        W18752  26.228   8.377   2.687
46427W        W18753   9.310  24.945  12.280
46428W        W18754  31.095  31.021   0.377
46429W        W18755  11.594  32.019   3.244
46430W        W18756  37.861   5.635  14.754
46431W        W18757  23.017  32.601  11.612
46432W        W18758  11.851   4.871  11.670
46433W        W18759  39.345  12.885   4.673
46434W        W18760  29.275   9.349   2.926
46435W        W18761  36.908  42.986  13.372
46436W        W18762   1.924  13.649  14.932
46437W        W18763  44.783  26.996   2.915
46438W        W18764   9.209  14.161   0.889
46439W        W18765  12.816  12.322   1.198
46440W        W18766  23.160   2.251   2.209
46441W        W18767   4.189  39.229   0.059
46442W        W18768  36.665  39.267  11.015
46443W        W18769   2.808   2.204   2.581
46444W        W18770  44.270  44.987  13.939
46445W        W18771  32.631  14.345  11.514
46446W        W18772  15.080  38.559   0.876
46447W        W18773  25.625  31.332  14.289
46448W        W18774  14.561  11.767   4.825
46449W        W18775  16.153  43.036   0.544
46450W        W18776  30.967  27.102   2.447
46451W        W18777  21.477  25.253  11.610
46452W        W18778  15.202  32.672   3.297
46453W        W18779  35.536  16.193  10.962
46454W        W18780   1.759  29.092  13.055
46455W        W18781  11.001  39.805  13.491
46456W        W18782  18.577  34.016  13.819
46457W        W18783  23.519  42.587  11.981
46458W        W18784   5.744  26.609   0.486
46459W        W18785  39.018   1.542  13.037
46460W        W18786  38.987  19.936   2.354
46461W        W18787  19.471  30.821  11.703
46462W        W18788  20.644  17.352   2.388
46463W        W18789  14.349  12.354   2.376
46464W        W18790   6.778  34.383  13.777
46465W        W18791  20.932  25.999  13.290
46466W        W18792   6.324   6.369  14.932
46467W        W18793   1.968  31.619   2.919
46468W        W18794   0.327  44.568  13.010
46469W        W18795   3.909  15.688   2.924
46470W        W18796  42.212   8.746  13.583
46471W        W18797   1.099  34.513   2.530
46472W        W18798  26.572  26.459   4.835
46473W        W18799  14.709   6.940   4.756
46474W        W18800  16.227  32.068   1.044
46475W        W18801  16.839   4.380   0.913
46476W        W18802  27.608  26.675  13.339
46477W        W18803  37.871  13.471   4.247
46478W        W18804  11.269  18.335   2.829
46479W        W18805  22.048   5.997  13.313
46480W        W18806  19.777   2.808  11.552
46481W        W18807  42.960  13.809  11.054
46482W        W18808   9.102  43.878   1.420
46483W        W18809  23.676  35.289  13.933
46484W        W18810  25.848  26.221   4.987
46485W        W18811  11.009   8.978   0.918
46486W        W18812  18.060  28.151   0.390
46487W        W18813  36.441  21.354   2.625
46488W        W18814  34.203  18.772  13.427
46489W        W18815  11.169  30.033  12.845
46490W        W18816  14.271  14.892   4.188
46491W        W18817   8.706   8.379  13.011
46492W        W18818  44.276  42.275  13.800
46493W        W18819  30.082  27.065   1.953
46494W        W18820  16.249  31.415   0.311
46495W        W18821  29.630  15.558   2.560
46496W        W18822  10.740  27.565  14.527
46497W        W18823  10.636   2.257  13.925
46498W        W18824  17.139  24.203   2.160
46499W        W18825   3.157  10.670   4.444
46500W        W18826  44.939   7.897  12.316
46501W        W18827  26.455  33.910   4.638
46502W        W18828  40.897  14.619   0.806
46503W        W18829  35.554  27.629  11.429
46504W        W18830  30.940  35.335  12.052
46505W        W18831  20.817  23.206   3.339
46506W        W18832  31.188  39.347  12.174
46507W        W18833   3.383  44.918   4.645
46508W        W18834   4.730   7.759  12.390
46509W        W18835  13.090  38.411   0.141
46510W        W18836  34.852  41.917   0.781
46511W        W18837   3.932   9.332   2.368
46512W        W18838  30.939  18.612   2.732
46513W        W18839  34.748  23.442   1.846
46514W        W18840  19.333  31.969  14.821
46515W        W18841  42.698  19.292  14.601
46516W        W18842  23.335  39.472   4.611
46517W        W18843  18.774  38.333  13.287
46518W        W18844  11.438  10.443   1.507
46519W        W18845   7.857  43.445  14.292
46520W        W18846  33.390  16.343   1.164
46521W        W18847   3.013  15.332  10.545
46522W        W18848  10.101  37.424   1.910
46523W        W18849  43.963  21.182  13.324
46524W        W18850  39.314  16.134  10.562
46525W        W18851  31.505  42.280   3.219
46526W        W18852   4.820  40.074  13.380
46527W        W18853   1.795  15.383  12.127
46528W        W18854  13.820   7.125   4.793
46529W        W18855  28.908  20.174   3.364
46530W        W18856   4.269   8.173   0.283
46531W        W18857  43.979  44.926   0.348
46532W        W18858   6.200  28.785   0.448
46533W        W18859  25.567  37.810  14.799
46534W        W18860  36.500  44.552   4.727
46535W        W18861   4.842   2.190  11.643
46536W        W18862  31.790   8.804  13.636
46537W        W18863   6.241  36.982  14.281
46538W        W18864  37.132  14.573  10.646
46539W        W18865  43.582  33.475  13.870
46540W        W18866   5.458  23.723   3.010
46541W        W18867  11.840   0.822  13.333
46542W        W18868  41.020  43.740  14.173
46543W        W18869  16.162  18.256  12.521
46544W        W18870  24.556  12.378   1.811
46545W        W18871  20.157  11.532   2.421
46546W        W18872  42.119  19.559   3.947
46547W        W18873   0.303  10.915  12.978
46548W        W18874  38.152  27.415   2.267
46549W        W18875  39.999   9.749   1.459
46550W        W18876   6.175  34.938  11.958
46551W        W18877  13.744   0.018   0.838
46552W        W18878  28.248   4.760   0.833
46553W        W18879  18.051  26.558   4.601
46554W        W18880  13.076  19.742  13.831
46555W        W18881  23.699  36.308  11.430
46556W        W18882  34.337  42.086  13.867
46557W        W18883  20.713  37.113  12.949
46558W        W18884  43.477   5.128  13.970
46559W        W18885  38.949  21.533   1.268
46560W        W18886  37.482   8.917  14.953
46561W        W18887  21.991   8.801  11.519
46562W        W18888  34.564  15.332  13.847
46563W        W18889  27.371  21.029  13.546
46564W        W18890  25.762  23.535   2.778
46565W        W18891  17.825  10.750  11.587
46566W        W18892  18.784   4.917  11.220
46567W        W18893  20.006  19.756  14.895
46568W        W18894  15.880   8.795  12.952
46569W        W18895  19.572   1.630   0.777
46570W        W18896  40.426  18.347   3.285
46571W        W18897  39.996   1.483   3.536
46572W        W18898  28.826   1.882   4.277
46573W        W18899   8.955  34.924  11.574
46574W        W18900   0.868  34.154   1.531
46575W        W18901  18.739  21.972   0.970
46576W        W18902   1.764  25.877  13.925
46577W        W18903   3.201  14.269  14.020
46578W        W18904  25.188  12.776   2.785
46579W        W18905  21.272  16.329   2.301
46580W        W18906   4.395   3.927  11.262
46581W        W18907  44.644  13.827  11.000
46582W        W18908  29.097  30.871   0.908
46583W        W18909  41.442  32.419   0.564
46584W        W18910  14.509  36.543   1.483
46585W        W18911  13.020  28.649  14.596
46586W        W18912  26.918  30.619   4.502
46587W        W18913  41.939  36.315   1.817
46588W        W18914  18.320  42.893  10.755
46589W        W18915   7.631  15.669  10.749
46590W        W18916  11.681   4.798   5.326
46591W        W18917  23.721  38.805   3.325
46592W        W18918  34.633  14.754   0.244
46593W        W18919  19.185  38.006   3.128
46594W        W18920  19.676  23.897  12.027
46595W        W18921  12.817  15.342  11.255
46596W        W18922   8.252   5.207  10.749
46597W        W18923  35.313  22.928  11.560
46598W        W18924  34.284  33.571   4.567
46599W        W18925  19.509  38.311  10.812
46600W        W18926  34.369   8.590   0.776
46601W        W18927  20.769  41.339   1.306
46602W        W18928  11.232  17.214  11.611
46603W        W18929  10.112  38.771   1.603
46604W        W18930  31.349  38.317  11.056
46605W        W18931  29.482  34.438  13.089
46606W        W18932  27.350  16.642  13.423
46607W        W18933  19.267  31.053  12.424
46608W        W18934   7.959  21.523  13.828
46609W        W18935  22.691  17.628   3.354
46610W        W18936  29.544  14.646   4.088
46611W        W18937   2.620  19.590   4.776
46612W        W18938   0.509  21.653   3.878
46613W        W18939   0.737  16.677   4.450
46614W        W18940  29.929  37.563  12.891
46615W        W18941   9.091  36.242  13.952
46616W        W18942  25.229   0.357   3.331
46617W        W18943   1.737  33.667   1.164
46618W        W18944  14.497  20.659  14.597
46619W        W18945  35.937  39.397   0.062
46620W        W18946  38.062  15.166   0.252
46621W        W18947   1.969  17.224  10.853
46622W        W18948  38.551  40.486  10.635
46623W        W18949  17.800   3.774  10.577
46624W        W18950  28.701  11.167  13.387
46625W        W18951  30.930  40.342   0.966
46626W        W18952  37.795  19.431  14.868
46627W        W18953   1.528   6.389  11.986
46628W        W18954  26.595  24.058   5.042
46629W        W18955   2.398  34.876   0.514
46630W        W18956  34.433  42.585   1.667
46631W        W18957   1.186   4.257   0.511
46632W        W18958  40.282  33.252  13.487
46633W        W18959   7.948  23.772  14.501
46634W        W18960  41.332  33.394   3.350
46635W        W18961  42.527   0.898  13.816
46636W        W18962   2.992  13.769  14.052
46637W        W18963  28.721  12.467   3.787
46638W        W18964  44.826  19.737  13.964
46639W        W18965  39.797   5.355   0.513
46640W        W18966   8.291   0.046   4.277
46641W        W18967  25.558  32.672   4.109
46642W        W18968   2.810  32.358  13.508
46643W        W18969   6.611  22.986  12.508
46644W        W18970  26.242   5.762   3.311
46645W        W18971  41.888   7.808   0.943
46646W        W18972  35.050  16.011  14.529
46647W        W18973  43.719  36.507   4.360
46648W        W18974  19.180  37.429   2.261
46649W        W18975  27.938  21.031   2.235
46650W        W18976  25.554   3.996   0.385
46651W        W18977  31.935  37.927   3.361
46652W        W18978  37.996   6.327  14.253
46653W        W18979  37.480  33.882  11.766
46654W        W18980  12.506  27.038  12.656
46655W        W18981  20.000  11.347   2.875
46656W        W18982  18.000  26.626   5.118
46657W        W18983  37.294  30.483   4.087
46658W        W18984  20.752  35.406   4.633
46659W        W18985  20.640  22.271   1.399
46660W        W18986  25.632  33.928  12.076
46661W        W18987  34.139  42.893   4.592
46662W        W18988  17.325  33.653   4.039
46663W        W18989   3.908   6.169   1.713
46664W        W18990   1.313  21.737  10.235
46665W        W18991  29.944  30.589   1.652
46666W        W18992  21.381  36.518   5.221
46667W        W18993  41.788  28.856  13.486
46668W        W18994  26.395  36.018   2.416
46669W        W18995   1.867   6.224   1.063
46670W        W18996  33.947  43.982  14.943
46671W        W18997  19.491  15.990  14.823
46672W        W18998   4.313  12.909  14.017
46673W        W18999  34.946  15.322  10.656
46674W        W19000   3.481   4.364  10.200
46675W        W19001  38.348   7.943  12.841
46676W        W19002  29.867   9.145   3.751
46677W        W19003  26.298   8.434   4.013
46678W        W19004  26.154  43.215   0.427
46679W        W19005  40.085   7.828   3.168
46680W        W19006  17.154  35.919   4.120
46681W        W19007  40.449  10.731  11.404
46682W        W19008   9.822  33.086  13.226
46683W        W19009  22.974  19.077   2.799
46684W        W19010  34.178  21.633  13.272
46685W        W19011   2.458  24.134   5.726
46686W        W19012  29.033  32.082   3.823
46687W        W19013   8.962  27.683  12.370
46688W        W19014  30.977  13.868  12.105
46689W        W19015  39.299  25.774  11.008
46690W        W19016   7.332  16.631  14.510
46691W        W19017  33.303  26.713   4.126
46692W        W19018  17.339  18.128   0.791
46693W        W19019  32.163  21.620   1.306
46694W        W19020  42.326  17.241   4.576
46695W        W19021   1.991  21.243   2.353
46696W        W19022  32.629  22.702  11.584
46697W        W19023  21.080  24.521   1.299
46698W        W19024  17.088   2.196  14.801
46699W        W19025  31.973  16.804  10.333
46700W        W19026  12.256  34.151  14.980
46701W        W19027   3.439  40.422   2.874
46702W        W19028  12.146  35.200   0.932
46703W        W19029  28.567   2.553  14.414
46704W        W19030  43.050  13.315   1.102
46705W        W19031  42.945   1.648   4.175
46706W        W19032   5.547   1.824  12.011
46707W        W19033  36.801  16.239  14.869
46708W        W19034  27.114  17.271  12.332
46709W        W19035   7.283  31.066   3.790
46710W        W19036  38.359  18.385  10.568
46711W        W19037  37.402  36.041   3.426
46712W        W19038  18.379  25.142  13.088
46713W        W19039  42.815  17.673  14.020
46714W        W19040  34.420  33.414   3.520
46715W        W19041  24.203   9.650  14.748
46716W        W19042  32.642  34.483   4.983
46717W        W19043  17.302  25.038  12.759
46718W        W19044  42.517  40.475  14.036
46719W        W19045  27.192  10.822   0.502
46720W        W19046  10.769  41.903  11.852
46721W        W19047   0.388   8.080  14.931
46722W        W19048  44.504  15.079  14.360
46723W        W19049   8.556  11.112   3.696
46724W        W19050  16.649  15.167  13.805
46725W        W19051   9.620  44.977  12.529
46726W        W19052  38.457  41.099  12.510
46727W        W19053   9.914  29.085   4.441
46728W        W19054  33.378  33.120   2.760
46729W        W19055  30.497  23.099  14.997
46730W        W19056  24.818  42.927  13.036
46731W        W19057  38.932  26.419   3.252
46732W        W19058   5.349  23.053  11.043
46733W        W19059  39.872   3.200  11.282
46734W        W19060  40.796  37.878  11.676
46735W        W19061  25.879  16.385  13.495
46736W        W19062  44.187  30.564  10.335
46737W        W19063  29.728  32.125   0.446
46738W        W19064  30.743  14.851   3.071
46739W        W19065  39.269   2.037  13.195
46740W        W19066   8.234  33.582  11.654
46741W        W19067  28.431   6.459   0.200
46742W        W19068  27.536  12.230   2.953
46743W        W19069  29.173  40.533   2.215
46744W        W19070  31.320   3.648   5.141
46745W        W19071  44.200  43.953   2.365
46746W        W19072   8.217   8.604  12.962
46747W        W19073   1.472  10.136   1.465
46748W        W19074  10.589  12.425   4.087
46749W        W19075  41.830  11.703   3.831
46750W        W19076  27.823  34.267   4.109
46751W        W19077  44.235  23.074  12.577
46752W        W19078   7.410  33.988  12.361
46753W        W19079   9.086  37.390   4.704
46754W        W19080  43.506  39.591  12.563
46755W        W19081  21.844  14.551  11.882
46756W        W19082  41.974   7.884  13.546
46757W        W19083   3.388  27.909   1.824
46758W        W19084  15.679  20.408   4.622
46759W        W19085  28.219  13.758  12.917
46760W        W19086   5.151  38.868   1.064
46761W        W19087  38.103  37.526   4.929
46762W        W19088   9.091  19.405  13.375
46763W        W19089  17.614  23.276   2.702
46764W        W19090  41.603  31.934   3.676
46765W        W19091  21.800  33.731   0.581
46766W        W19092  34.572  26.076  13.407
46767W        W19093  12.813  17.579   4.185
46768W        W19094  29.834  42.665   4.168
46769W        W19095  14.553  44.233   3.788
46770W        W19096  16.271  36.279  12.943
46771W        W19097   6.405  33.156   3.188
46772W        W19098  35.035   8.708  11.980
46773W        W19099  18.512   9.243  14.427
46774W        W19100  42.020  12.320   2.406
46775W        W19101  29.840  10.431  13.592
46776W        W19102  22.719  32.213   3.663
46777W        W19103   5.210   5.781  13.409
46778W        W19104  39.958  21.770   0.239
46779W        W19105  19.237   7.336  12.603
46780W        W19106   9.938  15.156   3.652
46781W        W19107  36.375  33.211   2.441
46782W        W19108   8.509  40.849  11.619
46783W        W19109  21.720   5.126   2.178
46784W        W19110  31.568  20.600  10.664
46785W        W19111  17.382  31.655   1.700
46786W        W19112  10.217  28.942   1.179
46787W        W19113   3.325  29.679   1.397
46788W        W19114  15.678  15.334  13.016
46789W        W19115  38.807  26.380  11.506
46790W        W19116  23.255  43.209   1.527
46791W        W19117  40.235  20.236   4.706
46792W        W19118  15.479  40.620  13.362
46793W        W19119   6.020  36.278  11.194
46794W        W19120  36.141  36.238  12.101
46795W        W19121  32.796  28.628  14.872
46796W        W19122  28.999  41.002   3.126
46797W        W19123  38.719   2.439  11.552
46798W        W19124  20.188   3.270   1.150
46799W        W19125  37.104   9.309   3.972
46800W        W19126  39.215  24.676   3.125
46801W        W19127  14.304  36.882  11.994
46802W        W19128  11.856  22.275  12.003
46803W        W19129  11.591  23.775  12.005
46804W        W19130   8.597  43.480   3.217
46805W        W19131   1.984  11.619   2.351
46806W        W19132   7.616  27.790  14.645
46807W        W19133  11.704  35.081   3.659
46808W        W19134   6.829  42.574  12.636
46809W        W19135  39.072  40.922   1.864
46810W        W19136   5.213  25.383   3.039
46811W        W19137  41.462  32.519  12.073
46812W        W19138  13.299  24.708  12.258
46813W        W19139  39.970   9.955  13.340
46814W        W19140  30.407   4.947  14.266
46815W        W19141  39.277  30.631   3.755
46816W        W19142  20.622  11.211  11.096
46817W        W19143  21.729   5.469   0.029
46818W        W19144   8.140   5.665  12.213
46819W        W19145   1.743  21.532   0.746
46820W        W19146  16.699  25.508   3.130
46821W        W19147  21.773  28.820  10.878
46822W        W19148  40.860  12.277  12.366
46823W        W19149  15.078  31.603  11.088
46824W        W19150  33.533   7.662  12.401
46825W        W19151  41.990   7.874   1.454
46826W        W19152  14.838  24.807   3.299
46827W        W19153  20.984  13.701   0.719
46828W        W19154  30.880  19.807  13.808
46829W        W19155  24.177   2.029  10.556
46830W        W19156  18.622   7.912   0.629
46831W        W19157   1.976  16.266  12.605
46832W        W19158  18.664  18.529  13.085
46833W        W19159  36.074  43.432  14.793
46834W        W19160  38.820  14.118   2.619
46835W        W19161  20.748  24.238  14.049
46836W        W19162  32.563  42.276  13.543
46837W        W19163   2.768  42.044   0.914
46838W        W19164  19.820  39.802   4.225
46839W        W19165   6.105   1.035  13.012
46840W        W19166  11.157  36.911   3.904
46841W        W19167  33.597   9.761  10.793
46842W        W19168  29.176  35.603  14.597
46843W        W19169  32.349  18.331   2.846
46844W        W19170  11.234  12.072  13.932
46845W        W19171  41.070  17.472   3.695
46846W        W19172  17.683  35.219   0.833
46847W        W19173  31.442  37.364  14.466
46848W        W19174   7.237  19.609  13.538
46849W        W19175  29.849   0.464  10.166
46850W        W19176  36.484  26.714  11.759
46851W        W19177   3.630  24.265  12.521
46852W        W19178  37.306  44.687   3.266
46853W        W19179  30.930  13.731  11.182
46854W        W19180   8.840  16.830  11.583
46855W        W19181  12.562  41.807  12.522
46856W        W19182   7.278   5.961  14.307
46857W        W19183  22.765  38.404  14.859
46858W        W19184  29.027  32.443   1.369
46859W        W19185  21.545   0.295   1.700
46860W        W19186  30.895   7.509   0.477
46861W        W19187  38.422  16.671   4.380
46862W        W19188  12.775  34.989  13.868
46863W        W19189  30.999  36.858   4.145
46864W        W19190  32.259  44.200  11.083
46865W        W19191  14.060  39.552  13.139
46866W        W19192  13.635  19.022  13.846
46867W        W19193   8.893  23.103  10.692
46868W        W19194  38.892  10.361   0.269
46869W        W19195  38.033   7.220  11.427
46870W        W19196  21.160   5.491  14.534
46871W        W19197  14.052  33.500  14.600
46872W        W19198  32.685  20.249  11.694
46873W        W19199  15.566   2.528   4.192
46874W        W19200  28.678  13.570   2.810
46875W        W19201  35.928  35.502  12.659
46876W        W19202  38.125  18.328   2.685
46877W        W19203  25.520  22.133  10.676
46878W        W19204  38.482  19.689  10.438
46879W        W19205   3.379  39.043  12.576
46880W        W19206   1.829  36.882  12.923
46881W        W19207  22.291  40.842   4.163
46882W        W19208  37.175  43.957   3.864
46883W        W19209  11.858  44.742   0.645
46884W        W19210  42.071  19.029  13.997
46885W        W19211  44.493  15.726  12.362
46886W        W19212  19.764   4.861   0.004
46887W        W19213  19.835  10.348  12.160
46888W        W19214   4.882   3.797  11.510
46889W        W19215  18.349  29.952  14.908
46890W        W19216  10.219   5.204  12.377
46891W        W19217  21.564  10.854  12.284
46892W        W19218   4.352  33.792  10.745
46893W        W19219  35.115  12.235   0.126
46894W        W19220   0.364  35.577   0.395
46895W        W19221  35.274  39.835   1.673
46896W        W19222  28.177  17.823   3.270
46897W        W19223  32.849  27.048  11.852
46898W        W19224  24.475   5.727   2.232
46899W        W19225  36.473  43.862   0.254
46900W        W19226   1.972  18.317   1.860
46901W        W19227  24.677  42.560  13.363
46902W        W19228  41.099  30.845  11.583
46903W        W19229  44.720   7.503   4.954
46904W        W19230  14.254  16.171  11.227
46905W        W19231  29.867   4.139   0.489
46906W        W19232  11.784  20.090   0.394
46907W        W19233  14.172  31.732  12.067
46908W        W19234  11.699  30.509  12.557
46909W        W19235  12.695  18.602   1.689
46910W        W19236   1.864   9.785   3.660
46911W        W19237  38.636  37.839  11.320
46912W        W19238  14.699  37.330  12.440
46913W        W19239  14.852   8.330   0.073
46914W        W19240  21.703  20.111   1.359
46915W        W19241  43.426   8.320  10.604
46916W        W19242  30.973  32.933   2.684
46917W        W19243  33.178  11.836  12.588
46918W        W19244  26.959   5.302  12.466
46919W        W19245  17.690  37.128   4.419
46920W        W19246  30.392  11.131  11.036
46921W        W19247   3.747  17.155   3.361
46922W        W19248  36.889  27.234  14.009
46923W        W19249  24.131  22.228   2.947
46924W        W19250  19.210  31.055   4.629
46925W        W19251  32.624  29.480   3.848
46926W        W19252  41.543  44.268  14.864
46927W        W19253   1.761  40.306   2.339
46928W        W19254  17.285  10.867  12.321
46929W        W19255  33.099  14.785   3.362
46930W        W19256  13.549   5.486  13.843
46931W        W19257  11.814  12.159   4.671
46932W        W19258  41.514  14.891  14.936
46933W        W19259  32.567  16.561  12.520
46934W        W19260  16.055  17.525   1.600
46935W        W19261   9.154  34.481  13.508
46936W        W19262   9.173   6.521   0.360
46937W        W19263  16.605  28.621  14.497
46938W        W19264  32.423  21.270   2.702
46939W        W19265  29.952  29.500   0.223
46940W        W19266  21.522  29.208   1.721
46941W        W19267   5.691  10.966   0.615
46942W        W19268  25.027  25.066   2.692
46943W        W19269   4.116   5.673   1.675
46944W        W19270  44.943  42.302   4.539
46945W        W19271  24.457  37.041  10.670
46946W        W19272  11.834  11.272  14.973
46947W        W19273   2.813   0.342  11.654
46948W        W19274  16.323  34.564  13.351
46949W        W19275  25.428  25.962   4.855
46950W        W19276   0.447  26.963  10.875
46951W        W19277  18.743  39.327  12.726
46952W        W19278   9.685  11.059   3.450
46953W        W19279   0.767  37.429  12.590
46954W        W19280  22.472  37.438  14.384
46955W        W19281   3.175  30.142   0.393
46956W        W19282  40.741  27.900   1.344
46957W        W19283  37.606  13.922   3.809
46958W        W19284  13.748  16.785   1.959
46959W        W19285   3.871  17.310   1.475
46960W        W19286  10.647  10.384   4.194
46961W        W19287   8.149  32.428   2.252
46962W        W19288  37.052  43.319  12.996
46963W        W19289   9.350  29.923   4.101
46964W        W19290  37.488  10.019   2.767
46965W        W19291  39.614  39.105  12.610
46966W        W19292   0.352   1.914  14.826
46967W        W19293  37.894  20.564   1.177
46968W        W19294  20.524   7.114  11.505
46969W        W19295  31.350  42.922   0.047
46970W        W19296  39.989  38.027   1.850
46971W        W19297   4.936   0.561  10.534
46972W        W19298  31.386  13.418   3.651
46973W        W19299  37.749  14.037   2.518
46974W        W19300  12.206  30.155   0.411
46975W        W19301  40.559   2.297  12.064
46976W        W19302  25.180  40.526   0.747
46977W        W19303  19.447  30.413  14.336
46978W        W19304  37.748  23.467  10.174
46979W        W19305  16.827  20.260  12.988
46980W        W19306  24.995  13.923   0.308
46981W        W19307  24.115  15.861   1.372
46982W        W19308   7.256  17.453  12.421
46983W        W19309  25.194  10.130   3.793
46984W        W19310  43.688  17.906   3.216
46985W        W19311   4.340  27.007   2.933
46986W        W19312  20.539   1.275  12.904
46987W        W19313  12.863  40.770   3.688
46988W        W19314  15.587  37.519  12.825
46989W        W19315  37.218  25.458   0.375
46990W        W19316  23.318  19.649  12.417
46991W        W19317  23.770  43.745  11.198
46992W        W19318  20.111   3.288   0.636
46993W        W19319  22.072   7.961  12.526
46994W        W19320   8.724  12.201  14.021
46995W        W19321   5.553  30.556   0.222
46996W        W19322  43.939  31.065   2.954
46997W        W19323  16.547  33.645  12.006
46998W        W19324  27.040  11.168   4.631
46999W        W19325  10.400   3.957  13.762
47000W        W19326  38.397   9.592  13.528
47001W        W19327  37.159  13.172   2.879
47002W        W19328   1.691  10.592   4.679
47003W        W19329  40.779   1.127  12.015
47004W        W19330  42.318  38.878  14.923
47005W        W19331  33.327  23.461   1.839
47006W        W19332  20.292  28.145  14.940
47007W        W19333  44.038  35.113  14.349
47008W        W19334  28.935  39.628   1.713
47009W        W19335  29.110  12.693   2.395
47010W        W19336  16.157   6.222   0.899
47011W        W19337  15.697   2.775   2.791
47012W        W19338  39.434  32.749  14.471
47013W        W19339  37.140  36.541   1.923
47014W        W19340   8.795  19.065   0.846
47015W        W19341  13.538  16.561   3.281
47016W        W19342  40.913  21.193  11.874
47017W        W19343  36.877  34.575   2.207
47018W        W19344   4.741  19.019  12.961
47019W        W19345  10.956  24.736   5.184
47020W        W19346  26.234  20.108   2.177
47021W        W19347  41.301  15.858   0.857
47022W        W19348  26.857   8.124  14.741
47023W        W19349  38.721  11.322  10.866
47024W        W19350   4.667  14.368  12.558
47025W        W19351  41.940  24.830  10.509
47026W        W19352  36.575  30.191   0.362
47027W        W19353   9.551  30.942  14.757
47028W        W19354  37.450  21.503   0.290
47029W        W19355  31.517  24.379  11.242
47030W        W19356  31.591  19.624   1.978
47031W        W19357   9.368  37.297  14.116
47032W        W19358  40.528  38.315   0.837
47033W        W19359   0.805  14.795   2.139
47034W        W19360  16.194  33.810   4.148
47035W        W19361  14.269  43.897  12.282
47036W        W19362  21.704   0.704   1.938
47037W        W19363  35.923  37.955   2.639
47038W        W19364  34.420  38.609   4.481
47039W        W19365  21.658   0.189   0.433
47040W        W19366  36.848  10.564  12.075
47041W        W19367  19.068   5.343  14.480
47042W        W19368  35.519  44.766   1.335
47043W        W19369   1.533  15.368   3.647
47044W        W19370   4.621  20.143  11.601
47045W        W19371  10.656  17.730  10.739
47046W        W19372  29.484  16.860   2.074
47047W        W19373  25.792   4.472  11.451
47048W        W19374   3.919  18.968  12.926
47049W        W19375   5.508   8.700  13.574
47050W        W19376   3.915  23.628  11.043
47051W        W19377  27.176  34.373  14.050
47052W        W19378  42.458  26.560   0.769
47053W        W19379  43.016  35.453  11.232
47054W        W19380  28.680  25.691  14.040
47055W        W19381  41.305  19.617  11.101
47056W        W19382  33.871  17.380   2.969
47057W        W19383  36.468  29.418   1.818
47058W        W19384  30.490  13.812   0.720
47059W        W19385   7.462  27.172   1.270
47060W        W19386  13.820  38.565   2.305
47061W        W19387   8.987  24.123  14.416
47062W        W19388  36.377   5.680  13.781
47063W        W19389  24.488  22.585   1.146
47064W        W19390  19.332   7.128  13.952
47065W        W19391  25.036  22.304   2.190
47066W        W19392   5.787  42.034   2.217
47067W        W19393  23.729  39.394  12.485
47068W        W19394  44.990  40.751  12.643
47069W        W19395   2.105  13.914   1.767
47070W        W19396  32.594  35.321  11.552
47071W        W19397  14.771   2.752   0.940
47072W        W19398  18.638  42.850   1.571
47073W        W19399  13.889  41.998  11.163
47074W        W19400  41.526  18.197   0.276
47075W        W19401  32.189   5.419   3.629
47076W        W19402  14.091  28.660  14.427
47077W        W19403  18.963  37.381  12.234
47078W        W19404   7.883   3.006  13.132
47079W        W19405  42.304  19.287   3.559
47080W        W19406  18.902  21.527  14.266
47081W        W19407   5.075  29.731  10.528
47082W        W19408  42.860   3.741  11.434
47083W        W19409  31.359  19.660  12.857
47084W        W19410  28.086  11.919   3.555
47085W        W19411  18.106  32.052  14.184
47086W        W19412  18.095  35.321  11.161
47087W        W19413  27.615   4.711   3.487
47088W        W19414   9.144   5.209   0.060
47089W        W19415  25.750  35.033  12.501
47090W        W19416   8.174  13.254  11.146
47091W        W19417   3.540  34.084  12.480
47092W        W19418  44.327   8.937  11.653
47093W        W19419  44.729  31.979   3.137
47094W        W19420  29.533  14.147   2.873
47095W        W19421   6.152  43.244   1.873
47096W        W19422   1.049   6.729  13.304
47097W        W19423  28.190   4.471   1.293
47098W        W19424  42.777  40.411   3.974
47099W        W19425  33.520  25.512  13.897
47100W        W19426  39.390  12.517   5.061
47101W        W19427  12.117   1.294   0.814
47102W        W19428  15.134   2.977   3.654
47103W        W19429  12.664   8.799  10.551
47104W        W19430  41.527  42.252  11.505
47105W        W19431   1.433  17.833   4.223
47106W        W19432  42.372  35.449   0.342
47107W        W19433  20.395  40.111  13.366
47108W        W19434  23.753  37.044   2.345
47109W        W19435  19.996  39.152  11.202
47110W        W19436  22.240   4.221   3.234
47111W        W19437  21.964  37.779  11.500
47112W        W19438  32.283  12.684  13.899
47113W        W19439  41.876  38.552   2.131
47114W        W19440  39.966  28.097  14.337
47115W        W19441  36.089   2.311  11.863
47116W        W19442  24.125  24.064   4.628
47117W        W19443   7.882  19.220  13.883
47118W        W19444  22.141  41.505   2.639
47119W        W19445  22.068   0.972  12.090
47120W        W19446  34.422  34.038  10.142
47121W        W19447  19.632  17.831   0.203
47122W        W19448   9.277  39.516   0.714
47123W        W19449  32.493   0.059  11.158
47124W        W19450  17.678  40.346   1.645
47125W        W19451  36.066  43.473   0.307
47126W        W19452  32.540   0.344   4.694
47127W        W19453  33.551  43.103   2.607
47128W        W19454  29.638  14.154   3.881
47129W        W19455  14.297  15.793   3.684
47130W        W19456   5.326  16.321   4.090
47131W        W19457  15.162  36.400  10.826
47132W        W19458  44.831  18.576   2.730
47133W        W19459  44.231  11.347  12.385
47134W        W19460   4.176  25.961   1.750
47135W        W19461  18.058  19.269   4.603
47136W        W19462   9.176  43.983  14.868
47137W        W19463  42.383  42.607   0.280
47138W        W19464  22.734  32.942   1.927
47139W        W19465  30.932  20.389  12.495
47140W        W19466  13.596   6.871   0.862
47141W        W19467  44.309   5.256  11.103
47142W        W19468  19.531  13.384  14.598
47143W        W19469  33.093  14.597  10.655
47144W        W19470  24.307   2.817   0.694
47145W        W19471  40.391  40.183  14.553
47146W        W19472  26.740   7.194  13.876
47147W        W19473  10.118  15.715  10.703
47148W        W19474  22.487  13.743  11.468
47149W        W19475  26.083  40.935  12.482
47150W        W19476  13.363   7.763   0.378
47151W        W19477   4.804  19.389   4.172
47152W        W19478  38.928  36.058   1.857
47153W        W19479   8.301  17.061   4.589
47154W        W19480  18.867  38.135   1.608
47155W        W19481   9.801  32.841  12.003
47156W        W19482  23.181   3.459  14.832
47157W        W19483   9.639  15.298  14.338
47158W        W19484  22.921  37.519  11.995
47159W        W19485  42.247  14.010   5.399
47160W        W19486  34.936  27.042  11.363
47161W        W19487  31.637  31.108  13.874
47162W        W19488   8.873  17.175  14.013
47163W        W19489  16.605  19.668   0.428
47164W        W19490   6.191  28.198  13.264
47165W        W19491  43.380  18.610   1.799
47166W        W19492  16.303  23.799  13.471
47167W        W19493  15.638  39.292  10.632
47168W        W19494  27.739   9.916  10.765
47169W        W19495  34.647  32.248  11.415
47170W        W19496  19.145  27.666   2.627
47171W        W19497  42.366   9.679  12.921
47172W        W19498  31.150  42.025   1.443
47173W        W19499   6.425  39.971   3.176
47174W        W19500  26.736  38.350  14.469
47175W        W19501  24.630  17.675   2.213
47176W        W19502  12.532  20.194  14.991
47177W        W19503  28.985  36.390   2.353
47178W        W19504  35.868  39.228   1.591
47179W        W19505  14.308  13.145   1.843
47180W        W19506  37.165  36.092   0.740
47181W        W19507  10.175  14.705  13.903
47182W        W19508  11.108  39.788  12.372
47183W        W19509   8.074  30.635   3.173
47184W        W19510   3.851  36.381   4.329
47185W        W19511  27.846  20.250   4.174
47186W        W19512  37.112  30.892   3.855
47187W        W19513  34.398  43.702   0.156
47188W        W19514  20.543  26.552   3.638
47189W        W19515  38.486   2.726   0.518
47190W        W19516  23.307   4.848  14.268
47191W        W19517  12.640  30.172  12.816
47192W        W19518  29.407  39.341  13.963
47193W        W19519  16.545  44.425  11.145
47194W        W19520  14.327  34.929  14.883
47195W        W19521   4.638  29.999   2.238
47196W        W19522  13.133  34.678   1.205
47197W        W19523  35.471  32.873  14.953
47198W        W19524  29.533  13.943  14.895
47199W        W19525  34.978  20.801   2.567
47200W        W19526  28.351  38.168  12.568
47201W        W19527  33.858   9.380   3.852
47202W        W19528  36.977  29.073   0.756
47203W        W19529  30.192  43.056   3.130
47204W        W19530  43.093  26.247  11.689
47205W        W19531   7.901   8.633   0.383
47206W        W19532  19.347   3.446   3.332
47207W        W19533   7.310  13.377   1.350
47208W        W19534  12.915  35.950   2.866
47209W        W19535  43.264   3.414  14.425
47210W        W19536   0.797  25.327  12.807
47211W        W19537  44.007  40.313   2.867
47212W        W19538   7.367  36.367  11.089
47213W        W19539  40.240  11.057   4.370
47214W        W19540  20.509  20.564   2.877
47215W        W19541  35.072  30.151  12.442
47216W        W19542  37.466  38.822   1.922
47217W        W19543  20.323  16.437  11.241
47218W        W19544  10.195  28.760  14.376
47219W        W19545   2.595   4.533  10.145
47220W        W19546  25.108   5.634  12.360
47221W        W19547   2.494   8.506   3.773
47222W        W19548  21.441  11.320   3.652
47223W        W19549  29.369  31.668  11.966
47224W        W19550  37.408  27.913  13.920
47225W        W19551  38.450   5.655   0.427
47226W        W19552  10.669   2.667  14.835
47227W        W19553  33.137   7.983   3.226
47228W        W19554  23.024   6.184  11.042
47229W        W19555  17.366   4.463   1.213
47230W        W19556  28.154   6.901  11.242
47231W        W19557  36.877  35.497   2.158
47232W        W19558   3.935  27.705   0.300
47233W        W19559  14.828  41.240   0.748
47234W        W19560  34.998  25.933   0.965
47235W        W19561   4.389   9.785   1.316
47236W        W19562  18.673  29.881  10.577
47237W        W19563  10.572  41.861  14.849
47238W        W19564  24.812   8.902   1.792
47239W        W19565  26.158  15.845   2.845
47240W        W19566  13.091  14.566   2.903
47241W        W19567  30.996   3.374  12.445
47242W        W19568  15.155  15.190   0.245
47243W        W19569   3.800  18.504   2.751
47244W        W19570  29.650  18.520   1.882
47245W        W19571  32.194  24.257  14.483
47246W        W19572  25.649  30.031   0.787
47247W        W19573  30.542   7.736   0.170
47248W        W19574  14.381  14.165   4.733
47249W        W19575  29.005   6.825  11.675
47250W        W19576   5.426  12.232   2.351
47251W        W19577   0.253  15.360  13.861
47252W        W19578   6.364   1.411  14.904
47253W        W19579  10.418  25.960   3.238
47254W        W19580  24.693  44.364  14.481
47255W        W19581  41.067  29.130  11.068
47256W        W19582  11.492  34.443   1.995
47257W        W19583  28.078  19.152  13.234
47258W        W19584  15.789  38.807  11.547
47259W        W19585  28.435  22.235   0.263
47260W        W19586  17.240  33.866  11.105
47261W        W19587  16.063   0.340   0.710
47262W        W19588  10.626  21.210   3.701
47263W        W19589   4.950  44.243  11.599
47264W        W19590  32.210  19.110  11.989
47265W        W19591  33.711  16.447   2.950
47266W        W19592  28.955   7.814  13.537
47267W        W19593  12.730  21.526   2.860
47268W        W19594  35.401  43.051   3.721
47269W        W19595  41.307  10.347  13.388
47270W        W19596  38.600  17.826  14.215
47271W        W19597  43.909   4.853  14.079
47272W        W19598  29.548  43.471   2.450
47273W        W19599  37.459   3.062  10.553
47274W        W19600  11.113  27.393   3.674
47275W        W19601  44.270   4.053  14.538
47276W        W19602  37.831  33.485  10.679
47277W        W19603  11.830   9.171   2.729
47278W        W19604  15.082  42.084  10.661
47279W        W19605  18.473  40.243   4.377
47280W        W19606   7.625   3.248   0.567
47281W        W19607  24.068  20.226   0.918
47282W        W19608   7.729  39.800   3.788
47283W        W19609  44.948  36.908  14.726
47284W        W19610   8.267   1.824  12.919
47285W        W19611  24.469   2.938   1.168
47286W        W19612  40.767   6.560  12.484
47287W        W19613  25.069  36.602   2.316
47288W        W19614  35.886  43.626   4.093
47289W        W19615  42.750  10.790  14.503
47290W        W19616  36.772  43.062   4.631
47291W        W19617  12.851   2.811  12.016
47292W        W19618  30.127  26.760   3.858
47293W        W19619   3.801   2.830   4.057
47294W        W19620  34.084   1.455  12.542
47295W        W19621   7.823  44.926  14.044
47296W        W19622  19.163   3.197  14.629
47297W        W19623  26.952   3.625  11.014
47298W        W19624  12.919  33.750   5.001
47299W        W19625  30.600  41.297  10.941
47300W        W19626  28.284  43.607  11.505
47301W        W19627  32.090  15.107  11.721
47302W        W19628  20.160   6.428   2.953
47303W        W19629  43.450  43.513   1.987
47304W        W19630  33.481  41.037   3.088
47305W        W19631  35.831  14.268   3.268
47306W        W19632  19.061  29.116   0.804
47307W        W19633  16.575   8.363   4.875
47308W        W19634  24.942  18.491  12.474
47309W        W19635  17.311  30.712  14.619
47310W        W19636  34.814  18.054   1.774
47311W        W19637  38.998   4.226   4.276
47312W        W19638  39.432   0.338   2.157
47313W        W19639  40.328  39.626  14.523
47314W        W19640  24.528  40.557   0.385
47315W        W19641   6.677  42.410  11.409
47316W        W19642  44.442  39.071   2.175
47317W        W19643  37.036  32.326  14.639
47318W        W19644  17.735  12.748  11.086
47319W        W19645  18.391  30.562  10.236
47320W        W19646  10.229  27.964  13.343
47321W        W19647  27.824   3.305   3.264
47322W        W19648  20.066  37.663   5.042
47323W        W19649   4.296  31.073  13.394
47324W        W19650  19.805   5.281   2.296
47325W        W19651  36.295   7.215  12.367
47326W        W19652  30.193   7.747   2.221
47327W        W19653  14.525  22.149   4.211
47328W        W19654   4.224   9.292  13.692
47329W        W19655   1.379  20.106  14.323
47330W        W19656  23.459  36.583   0.348
47331W        W19657  18.642  15.514   0.919
47332W        W19658  43.720  14.598   3.954
47333W        W19659  44.646   4.209  12.770
47334W        W19660   8.931  36.324   1.609
47335W        W19661  34.980   1.291   1.169
47336W        W19662  29.958  35.834  13.111
47337W        W19663   0.755   2.287  11.101
47338W        W19664  29.937  34.350  14.847
47339W        W19665  42.859   4.806   4.421
47340W        W19666  40.117  16.581  13.086
47341W        W19667  18.067  35.864  11.167
47342W        W19668   0.243  24.222   1.194
47343W        W19669  17.172   5.258   3.440
47344W        W19670  24.474  22.210  12.989
47345W        W19671  24.644  25.621   0.003
47346W        W19672  33.973  27.673   4.400
47347W        W19673  13.085  22.258   3.113
47348W        W19674  26.710  33.496   1.826
47349W        W19675  23.311  28.419   2.888
47350W        W19676   8.863  31.557   1.988
47351W        W19677   1.246   2.260  13.403
47352W        W19678  37.309   9.379   0.675
47353W        W19679  17.794  44.446   4.054
47354W        W19680   6.391  14.237   2.769
47355W        W19681   0.225   7.712  11.669
47356W        W19682  28.522  44.408  13.342
47357W        W19683  29.340  27.926  14.956
47358W        W19684  12.082  36.011  13.302
47359W        W19685   5.312  23.999   4.267
47360W        W19686  17.060  21.733  11.385
47361W        W19687   3.293   5.855  14.928
47362W        W19688  35.254   5.206   3.693
47363W        W19689  13.217  22.971  13.140
47364W        W19690   8.376  28.686   4.152
47365W        W19691  44.786  11.219  13.463
47366W        W19692  31.530  30.168   1.760
47367W        W19693   5.341  33.158  12.407
47368W        W19694  26.587  23.968  10.772
47369W        W19695  23.156  31.069   0.673
47370W        W19696  40.291  16.617   2.850
47371W        W19697  17.333   1.690   3.763
47372W        W19698  40.430  33.633   0.687
47373W        W19699  33.625  13.810  12.947
47374W        W19700  24.085   0.904   2.904
47375W        W19701  40.710  36.042  13.073
47376W        W19702  26.318  24.983   0.251
47377W        W19703   9.736  30.517   1.751
47378W        W19704  12.296  24.946   9.914
47379W        W19705   7.343   5.959   2.403
47380W        W19706  18.679   3.450  11.497
47381W        W19707  39.472  18.786   4.049
47382W        W19708  44.004  38.720  11.177
47383W        W19709   3.503  28.241   2.771
47384W        W19710  25.457   6.898  12.502
47385W        W19711  28.199  13.587   1.935
47386W        W19712  38.487  37.085  10.411
47387W        W19713  15.849  28.045  10.539
47388W        W19714  33.592   9.264  14.950
47389W        W19715  38.302  10.608  12.374
47390W        W19716   0.651  13.050   0.686
47391W        W19717   2.505  21.553  13.833
47392W        W19718   3.917  26.934  10.828
47393W        W19719  20.816   8.197   1.281
47394W        W19720  21.175  14.586   2.397
47395W        W19721  20.775  33.736  13.979
47396W        W19722  33.847   0.322  10.523
47397W        W19723  19.161  44.950   3.828
47398W        W19724  40.237  20.057  11.710
47399W        W19725  14.205  16.838   3.678
47400W        W19726  42.201  41.238   0.493
47401W        W19727  22.514  32.169  12.131
47402W        W19728  36.062   5.509   1.086
47403W        W19729  26.158  41.766   4.590
47404W        W19730  32.410  31.689  14.358
47405W        W19731  22.722  17.897   3.866
47406W        W19732  18.149  19.106   2.244
47407W        W19733   0.862  21.085   4.679
47408W        W19734  16.858  15.661  13.914
47409W        W19735  38.897  18.271   3.535
47410W        W19736  34.457  30.982  14.504
47411W        W19737  26.803  15.721  12.860
47412W        W19738  32.422  11.722  13.931
47413W        W19739  29.369  15.994   2.610
47414W        W19740   1.581  28.439  13.891
47415W        W19741  33.255  35.442  14.978
47416W        W19742  36.814  13.273  14.840
47417W        W19743  11.167  37.527  11.556
47418W        W19744   4.128  21.163   4.652
47419W        W19745  12.704  18.825  14.907
47420W        W19746   3.287   1.462   3.713
47421W        W19747  10.483  17.362  13.836
47422W        W19748  38.623  28.680   3.243
47423W        W19749  21.327  12.335   4.515
47424W        W19750  27.964  43.382   4.154
47425W        W19751  42.796   4.555  11.114
47426W        W19752  41.075  20.766   1.937
47427W        W19753  25.656  40.952   1.735
47428W        W19754   3.013  18.844   3.690
47429W        W19755   4.816   4.601   3.338
47430W        W19756  18.098  14.806   3.076
47431W        W19757  44.984  23.511   2.770
47432W        W19758  24.119  14.870   0.533
47433W        W19759   8.926  19.785  12.401
47434W        W19760  35.774   6.307  14.359
47435W        W19761  33.862  21.573   4.583
47436W        W19762   6.791  37.839  13.488
47437W        W19763   6.955  44.955   0.423
47438W        W19764  43.859  31.943   5.196
47439W        W19765  38.549   1.577  12.814
47440W        W19766   0.957  14.662   4.046
47441W        W19767  33.634  43.048  14.841
47442W        W19768  25.004  17.732  14.413
47443W        W19769  40.157  40.486  14.172
47444W        W19770  42.955  20.168  12.836
47445W        W19771   5.755  30.058  11.974
47446W        W19772  11.843  24.528   1.179
47447W        W19773  10.556  41.303  12.402
47448W        W19774  40.739  17.113   3.523
47449W        W19775   4.682  39.524   2.279
47450W        W19776  32.425   3.646   2.421
47451W        W19777   2.784  34.096   1.887
47452W        W19778   1.820  17.647  11.118
47453W        W19779  43.715  38.480   3.715
47454W        W19780  34.881   5.746   1.859
47455W        W19781  35.112  10.264  13.662
47456W        W19782   1.966  40.273   0.908
47457W        W19783  26.715  32.467  11.106
47458W        W19784  38.477  37.759   3.263
47459W        W19785  25.161  15.575   3.337
47460W        W19786  10.112  44.983  12.335
47461W        W19787   1.277  41.910   2.756
47462W        W19788  20.776  21.063  12.372
47463W        W19789  24.255  39.626  11.155
47464W        W19790  14.540   3.118  13.967
47465W        W19791   0.918  43.316   1.247
47466W        W19792  11.538   2.034  13.947
47467W        W19793   9.805  13.959  14.857
47468W        W19794  31.946   3.301   0.878
47469W        W19795  32.109  22.793   0.564
47470W        W19796  41.814  22.795   4.588
47471W        W19797  35.066   0.386   3.944
47472W        W19798  13.291  21.522  14.421
47473W        W19799  15.892   3.923   0.286
47474W        W19800  16.457  26.090  13.654
47475W        W19801  34.630   0.495   0.268
47476W        W19802  44.291   9.224  11.187
47477W        W19803   8.305  10.224   1.366
47478W        W19804  38.531  21.449   4.587
47479W        W19805   2.800  30.154   0.012
47480W        W19806   9.186  34.560  12.423
47481W        W19807  34.440  38.450   3.200
47482W        W19808  33.230  28.534   0.864
47483W        W19809  25.722  30.983   1.340
47484W        W19810   8.021  17.753  11.195
47485W        W19811  32.085  37.293  13.055
47486W        W19812  39.016   6.226   2.606
47487W        W19813  40.188  30.609  12.362
47488W        W19814  27.856  38.944  14.420
47489W        W19815  13.182  36.261   5.470
47490W        W19816   1.058  19.169  12.131
47491W        W19817  40.884   4.322   4.589
47492W        W19818  35.413  32.052  13.314
47493W        W19819  36.235  12.584  12.376
47494W        W19820  30.746  34.294  14.324
47495W        W19821  10.143   0.990   1.861
47496W        W19822  12.745   0.520  12.117
47497W        W19823  15.107  17.670  10.849
47498W        W19824  44.845  35.297   2.470
47499W        W19825   2.036  15.386   1.845
47500W        W19826  41.908  21.541  10.511
47501W        W19827   5.351  37.074   3.321
47502W        W19828  18.148  30.216   1.245
47503W        W19829   2.730   3.378   2.850
47504W        W19830  14.206   0.873  14.863
47505W        W19831   3.279  25.158  14.837
47506W        W19832  13.359  20.160  12.371
47507W        W19833  39.767  14.106  10.530
47508W        W19834  42.460   8.111   3.761
47509W        W19835  10.660  35.438   0.381
47510W        W19836  18.630  22.546  12.464
47511W        W19837  13.374  41.468   1.030
47512W        W19838  11.692   8.472   1.739
47513W        W19839   7.892   4.549  12.582
47514W        W19840  25.719  42.784  13.927
47515W        W19841  31.984  23.049   0.118
47516W        W19842  38.414  18.670  13.065
47517W        W19843  39.419  43.836   0.980
47518W        W19844  44.468  39.890   1.622
47519W        W19845  28.062   3.315  14.040
47520W        W19846  20.093  31.918   4.172
47521W        W19847  24.225  43.792   1.208
47522W        W19848  24.620  36.809  12.362
47523W        W19849   4.966   4.093   3.307
47524W        W19850  25.143  34.370   3.645
47525W        W19851   5.331  34.077   2.625
47526W        W19852  22.629  24.139   0.931
47527W        W19853   2.681  18.690  14.367
47528W        W19854  11.702  14.840  12.440
47529W        W19855   4.431  32.283  14.877
47530W        W19856  11.806  24.474   4.764
47531W        W19857  38.034  26.191  12.816
47532W        W19858  38.909  33.234   3.209
47533W        W19859  40.447   1.993  13.089
47534W        W19860  24.976   0.575  12.065
47535W        W19861  29.720  41.070  14.385
47536W        W19862  30.511  36.305   0.829
47537W        W19863   6.741   7.251  12.057
47538W        W19864  14.645  15.299   0.379
47539W        W19865   1.426   4.364  14.663
47540W        W19866  20.238   0.290  12.893
47541W        W19867  13.940  29.471   1.763
47542W        W19868  23.162  38.089   1.445
47543W        W19869   9.742  44.955  11.000
47544W        W19870  10.303  29.146   0.395
47545W        W19871  31.618  25.598   2.639
47546W        W19872  21.880  30.406   4.344
47547W        W19873   8.809  40.864   3.901
47548W        W19874   0.918   2.850   1.296
47549W        W19875  37.937   8.215   4.911
47550W        W19876  32.453  11.628  12.909
47551W        W19877   8.784  15.433  10.033
47552W        W19878  40.877  31.492  11.004
47553W        W19879  21.163  31.217  10.749
47554W        W19880  14.102   4.824   4.257
47555W        W19881  35.486  14.004  13.035
47556W        W19882   9.635  28.483   2.320
47557W        W19883  19.036  31.522  12.456
47558W        W19884  15.260  23.727   4.535
47559W        W19885   9.625  25.670   2.288
47560W        W19886  17.207  32.474  10.986
47561W        W19887  30.884   2.095  12.004
47562W        W19888  17.606   3.435   0.657
47563W        W19889  37.166  23.916   1.368
47564W        W19890  40.818  20.271  10.370
47565W        W19891   7.934  36.101   2.341
47566W        W19892   6.138  21.676  12.444
47567W        W19893  13.327  41.057   3.418
47568W        W19894  34.966  40.631  11.578
47569W        W19895  35.383   7.304  10.507
47570W        W19896   1.410  35.104  11.974
47571W        W19897   6.306  10.918   1.810
47572W        W19898  23.767  44.855  12.577
47573W        W19899   1.346  20.051   0.426
47574W        W19900  36.274  30.728  13.851
47575W        W19901  34.919  32.029  13.489
47576W        W19902  37.935  25.616   4.867
47577W        W19903  40.932  22.055   3.372
47578W        W19904  34.011  20.482  11.638
47579W        W19905  42.414   3.942  11.659
47580W        W19906   8.350  12.072   1.913
47581W        W19907  24.000  20.604  13.849
47582W        W19908   5.736  23.435  11.273
47583W        W19909   8.886  41.934  13.404
47584W        W19910  11.781  41.341   0.173
47585W        W19911   9.597   8.183   0.741
47586W        W19912  28.235  26.600   4.128
47587W        W19913  12.256  37.863   1.838
47588W        W19914  14.708  42.724   2.755
47589W        W19915  14.157  19.888  10.752
47590W        W19916   0.934  19.109   2.126
47591W        W19917  23.198  41.039   0.506
47592W        W19918  16.551  32.342  12.416
47593W        W19919  40.343  21.314   3.251
47594W        W19920  37.380  37.101  11.185
47595W        W19921  12.194   8.410  12.120
47596W        W19922  42.815  26.086  13.194
47597W        W19923  28.595  33.660  14.897
47598W        W19924   0.313   0.543   0.303
47599W        W19925  12.641  31.824  12.420
47600W        W19926  26.454  30.532   3.743
47601W        W19927  40.760   2.370   0.928
47602W        W19928  18.270  27.744  13.382
47603W        W19929  22.859  35.550   3.299
47604W        W19930   8.293   0.413  14.443
47605W        W19931  11.297  41.693   1.707
47606W        W19932  17.442  10.346  14.967
47607W        W19933  30.473  15.528  13.460
47608W        W19934  12.295  31.655   3.338
47609W        W19935  11.622  23.052   3.852
47610W        W19936  44.694  32.649  13.508
47611W        W19937  38.406  38.895  13.972
47612W        W19938   0.801  39.369   2.664
47613W        W19939  22.218  13.269  11.456
47614W        W19940  22.098   1.016   1.841
47615W        W19941  42.090  32.980   3.609
47616W        W19942   9.280  32.034  10.861
47617W        W19943   9.863  30.876   2.135
47618W        W19944  38.918  30.026   1.926
47619W        W19945  33.991  38.259  11.366
47620W        W19946   0.887  20.212  11.455
47621W        W19947  38.634  21.951   4.609
47622W        W19948  24.147  12.555  10.581
47623W        W19949   2.913   1.855   0.746
47624W        W19950  42.529  13.367   0.969
47625W        W19951  21.478  10.216  14.088
47626W        W19952  26.710  44.790  10.857
47627W        W19953  12.568  31.326  12.991
47628W        W19954  25.652  37.358  13.450
47629W        W19955  40.659  27.226   2.554
47630W        W19956  30.204  22.682   4.145
47631W        W19957  38.458  35.633   3.602
47632W        W19958   5.924   3.236   2.216
47633W        W19959  34.209  36.099  13.523
47634W        W19960  32.654  13.307   2.794
47635W        W19961  18.623  22.874  11.486
47636W        W19962  10.626   9.778   2.635
47637W        W19963  36.817  38.754  14.568
47638W        W19964  11.723  41.040  12.107
47639W        W19965  43.884  42.839   3.670
47640W        W19966  24.170  16.270  12.220
47641W        W19967  30.608  14.824   0.022
47642W        W19968  24.282  14.697   2.759
47643W        W19969  21.612  14.135  14.030
47644W        W19970  27.765   2.791   3.224
47645W        W19971  16.405  40.920  13.048
47646W        W19972   1.346  43.586   1.315
47647W        W19973  41.475  28.080   0.574
47648W        W19974  35.614  33.782  11.501
47649W        W19975  10.347  33.831   1.871
47650W        W19976  32.673   3.340   1.450
47651W        W19977  18.598  22.113   0.261
47652W        W19978  13.421   4.745   3.723
47653W        W19979  32.375  28.038   2.827
47654W        W19980  25.696  10.024   2.966
47655W        W19981  15.284  17.211  13.007
47656W        W19982  27.892  24.992  13.655
47657W        W19983  37.968  35.804   4.142
47658W        W19984  38.459  23.771  13.016
47659W        W19985   6.693  32.084   0.027
47660W        W19986  43.967  13.867   4.704
47661W        W19987   6.127  36.665   2.918
47662W        W19988  39.366  41.013  14.527
47663W        W19989  24.525  14.410  11.184
47664W        W19990  24.423  37.420   4.614
47665W        W19991  40.889  12.401   2.101
47666W        W19992  24.573  31.158   4.145
47667W        W19993  19.228   6.376  13.517
47668W        W19994  25.174  36.318  13.434
47669W        W19995  21.816  15.845   3.301
47670W        W19996  24.504  11.184   0.889
47671W        W19997  37.077  29.260   2.682
47672W        W19998   6.722  17.326   0.870
47673W        W19999  19.857  42.763   2.390
47674W        W20000  42.034   2.757   0.795
47675W        W20001  13.835  37.081  11.877
47676W        W20002  33.452  40.814  12.476
47677W        W20003   8.571   3.767   1.168
47678W        W20004  39.875   6.766  13.442
47679W        W20005   3.284   7.996  13.862
47680W        W20006   8.928  20.212  10.762
47681W        W20007  22.769  21.365   2.293
47682W        W20008  21.776  26.765  11.797
47683W        W20009  31.968  33.992  13.570
47684W        W20010  32.974  18.751   4.186
47685W        W20011  33.635  31.908  12.047
47686W        W20012  37.153  11.299   4.646
47687W        W20013  41.291  14.135  10.865
47688W        W20014   4.501  39.729   4.280
47689W        W20015  15.781  33.900   1.834
47690W        W20016  34.451  44.721  12.679
47691W        W20017  36.094  29.258  14.877
47692W        W20018  26.289  43.863   4.619
47693W        W20019  18.742  17.970   1.999
47694W        W20020  34.481  27.931  12.162
47695W        W20021  19.491  30.576  12.499
47696W        W20022  39.093  12.326   5.774
47697W        W20023  41.637  14.137   4.750
47698W        W20024  19.229  13.109   3.738
47699W        W20025  11.980   7.580   4.456
47700W        W20026  42.459   4.740   4.763
47701W        W20027  19.076  40.492  13.632
47702W        W20028   1.067   1.252   1.435
47703W        W20029  15.133  36.938  13.351
47704W        W20030   8.277  29.687  11.697
47705W        W20031  38.462  26.070  13.424
47706W        W20032  43.738  31.479   3.221
47707W        W20033  27.153  18.989   4.415
47708W        W20034  23.642  37.500  13.798
47709W        W20035  19.179   0.091   2.743
47710W        W20036  38.432   9.656  14.848
47711W        W20037  40.968  26.122   0.893
47712W        W20038   9.943   2.857  14.554
47713W        W20039  26.559  36.221  12.563
47714W        W20040   4.949  18.720  11.640
47715W        W20041  16.341  28.469   2.013
47716W        W20042   8.425  28.501  13.812
47717W        W20043  13.373  21.112  13.485
47718W        W20044  31.912  23.205  14.597
47719W        W20045   5.182   6.932   4.894
47720W        W20046   1.226  35.441  13.964
47721W        W20047   6.439  43.796  14.014
47722W        W20048  11.265  11.641   0.466
47723W        W20049  11.826  29.002  13.010
47724W        W20050  34.091  10.017  12.621
47725W        W20051  10.460  40.749   2.221
47726W        W20052  21.688  21.078  13.059
47727W        W20053  34.125  20.723  13.367
47728W        W20054  40.516   5.230  11.593
47729W        W20055  19.165  32.441   2.775
47730W        W20056   7.718  35.818  11.616
47731W        W20057  44.200  27.968   2.334
47732W        W20058  32.466  16.487   3.219
47733W        W20059  19.140  18.127   1.701
47734W        W20060   1.702  15.834  13.909
47735W        W20061  20.648  37.703   5.093
47736W        W20062   6.382   2.515  11.855
47737W        W20063  44.471   9.721  12.081
47738W        W20064   6.829  17.774  12.492
47739W        W20065  27.032  42.049   0.469
47740W        W20066  20.110  38.271   3.189
47741W        W20067  25.695  43.354  11.934
47742W        W20068  29.410   8.055   4.335
47743W        W20069  15.647  12.376   3.330
47744W        W20070  15.215  27.179   1.160
47745W        W20071  27.181  23.890   3.258
47746W        W20072  12.383  36.003   2.839
47747W        W20073  18.479  37.406   2.877
47748W        W20074  12.352   7.792  13.038
47749W        W20075  37.420  22.239   1.747
47750W        W20076  32.479  11.887  10.770
47751W        W20077  42.941  16.314  14.854
47752W        W20078   4.184  10.456   4.575
47753W        W20079  42.497   7.469   9.855
47754W        W20080  42.263  20.452  14.903
47755W        W20081  33.729  34.259  12.357
47756W        W20082  24.239  27.440   3.254
47757W        W20083   3.992  30.638   1.819
47758W        W20084  11.837  34.032  13.679
47759W        W20085  14.948  23.447   4.105
47760W        W20086  34.956  23.572   2.306
47761W        W20087  16.057  43.288   3.821
47762W        W20088  13.098  42.549   3.602
47763W        W20089  11.783  16.741   1.348
47764W        W20090  44.584  39.042   1.134
47765W        W20091  12.210   3.155  14.685
47766W        W20092  17.301   4.815  11.090
47767W        W20093  15.153  27.641   1.391
47768W        W20094  25.749   8.894  12.628
47769W        W20095  21.323  15.595   0.903
47770W        W20096  33.420  21.249  11.617
47771W        W20097  33.567   0.779   2.643
47772W        W20098   5.403   1.358   2.229
47773W        W20099  44.380   7.247   1.011
47774W        W20100  39.883   6.864  11.397
47775W        W20101   0.763  10.145   3.564
47776W        W20102  12.270  16.443   4.748
47777W        W20103  37.569  36.928   0.661
47778W        W20104  27.711  24.019   3.282
47779W        W20105  15.302  30.191   0.509
47780W        W20106  35.057  44.003   3.729
47781W        W20107   5.175  31.472  12.934
47782W        W20108   0.773  17.690  13.173
47783W        W20109  13.798  16.148   4.047
47784W        W20110  38.119  30.593  13.590
47785W        W20111   8.818   3.721  10.448
47786W        W20112  29.558  26.302   5.058
47787W        W20113  31.433  26.586  13.855
47788W        W20114  14.061   8.886  10.249
47789W        W20115  30.532  11.029  13.451
47790W        W20116  39.521  29.360  14.560
47791W        W20117  30.659   9.910  14.387
47792W        W20118  13.729  22.106  14.155
47793W        W20119  22.486  11.316   4.669
47794W        W20120  19.092  43.790   4.323
47795W        W20121   8.548  33.338   5.039
47796W        W20122  16.663  31.652   2.894
47797W        W20123  20.461  35.608   2.813
47798W        W20124  43.499  39.000   2.579
47799W        W20125  39.287   5.335  14.487
47800W        W20126  20.063  43.238   2.409
47801W        W20127   7.925  23.996  11.983
47802W        W20128  18.033  44.394  12.701
47803W        W20129  18.377  27.204   2.476
47804W        W20130  16.798  43.868  13.757
47805W        W20131  29.454  19.025   2.737
47806W        W20132   3.857  33.578   3.153
47807W        W20133   5.469  24.787  13.250
47808W        W20134  41.266  22.715   3.298
47809W        W20135   1.502  28.250  14.742
47810W        W20136  16.025  33.316   4.162
47811W        W20137  24.504   7.766  12.437
47812W        W20138  11.890  34.337   1.677
47813W        W20139  28.051  26.775  11.947
47814W        W20140   7.681  39.083   1.762
47815W        W20141   4.717  34.819   0.725
47816W        W20142  15.274  23.693  11.100
47817W        W20143  32.968  24.910   3.833
47818W        W20144  22.193  21.040  14.740
47819W        W20145   5.397   9.461   1.244
47820W        W20146  24.968   3.473   4.619
47821W        W20147  15.741  31.814  12.901
47822W        W20148  15.070  36.828  11.512
47823W        W20149  40.996   2.049  11.851
47824W        W20150  40.013  41.831  10.734
47825W        W20151   6.533  43.446   3.680
47826W        W20152  14.536  20.189   2.351
47827W        W20153  41.997  24.621   3.395
47828W        W20154   6.282  31.242  13.831
47829W        W20155  40.769  30.179   4.589
47830W        W20156   8.140  21.011   3.663
47831W        W20157  28.625  33.904  12.995
47832W        W20158  29.677  42.345   1.663
47833W        W20159  33.386   0.612   4.129
47834W        W20160  12.176  37.293   1.707
47835W        W20161  29.553  26.531  10.860
47836W        W20162  28.024  18.544  14.898
47837W        W20163  13.110  23.570  11.121
47838W        W20164  31.514  29.081   0.797
47839W        W20165  29.212  16.826   1.337
47840W        W20166  30.352  30.958  14.231
47841W        W20167  39.262  42.635   5.006
47842W        W20168  33.167  38.260  12.541
47843W        W20169  22.715  18.091  12.835
47844W        W20170  25.054  35.377   3.912
47845W        W20171   9.709  10.648   1.659
47846W        W20172  30.621   1.267   0.252
47847W        W20173  28.281  23.818   2.838
47848W        W20174  40.120   8.443   0.322
47849W        W20175   3.213  22.279   4.860
47850W        W20176  30.720  38.946   2.369
47851W        W20177  43.004  18.692   2.372
47852W        W20178  38.920  31.437  11.928
47853W        W20179  24.640  10.413   1.909
47854W        W20180   1.706  34.924  11.518
47855W        W20181  27.183  27.586  13.041
47856W        W20182  15.612  19.577  10.715
47857W        W20183  39.048  10.162  13.838
47858W        W20184  10.755  19.625  13.043
47859W        W20185  27.384  33.072   3.064
47860W        W20186  10.863  32.536   1.399
47861W        W20187  40.485  37.933   1.224
47862W        W20188  34.631  20.418   0.016
47863W        W20189   6.232  13.814  11.165
47864W        W20190  33.616   9.293  12.879
47865W        W20191  18.104  13.291   2.674
47866W        W20192  40.967  18.278   4.741
47867W        W20193  10.255   7.451   3.056
47868W        W20194  43.408  17.051   2.881
47869W        W20195  14.653   4.535   1.894
47870W        W20196  28.581  33.392   1.670
47871W        W20197  27.247  35.166  10.984
47872W        W20198  12.491  11.284  13.315
47873W        W20199  12.302   9.158  13.115
47874W        W20200  29.470   5.857  12.931
47875W        W20201  34.895  30.655  10.628
47876W        W20202  16.077  10.075  10.066
47877W        W20203   5.318  23.597   1.971
47878W        W20204  13.731  42.819   2.889
47879W        W20205  33.512  31.689  13.471
47880W        W20206  12.159   5.850   3.703
47881W        W20207  24.647  10.378  14.189
47882W        W20208  33.477  33.052   4.068
47883W        W20209  33.278  18.493   2.738
47884W        W20210  21.001  37.275  11.653
47885W        W20211  14.761   0.144   2.892
47886W        W20212  37.032  38.505  13.744
47887W        W20213   0.913  42.740  13.704
47888W        W20214  14.697   6.586   2.348
47889W        W20215  13.753  39.758  10.566
47890W        W20216  37.409  39.076  10.516
47891W        W20217  13.205  23.507  12.595
47892W        W20218  29.013   2.433  12.873
47893W        W20219   9.252   5.469   1.286
47894W        W20220  29.541  27.572   4.878
47895W        W20221  31.170  44.977   3.690
47896W        W20222  38.461  33.151   0.450
47897W        W20223  17.538  27.745  12.988
47898W        W20224   9.756  22.174   1.475
47899W        W20225  40.050  38.054   0.412
47900W        W20226   9.561  36.463   4.876
47901W        W20227  18.188  32.901   4.656
47902W        W20228   1.014   2.125  10.262
47903W        W20229  23.552  43.805  10.719
47904W        W20230   9.378   6.160  14.160
47905W        W20231  18.054  18.605   2.431
47906W        W20232  31.429   6.862  11.138
47907W        W20233  22.449  25.701   4.160
47908W        W20234   6.442   1.839  13.523
47909W        W20235  23.088  20.080   1.383
47910W        W20236   9.731  23.746   0.664
47911W        W20237  37.417  26.518  13.328
47912W        W20238  42.506   8.698  11.444
47913W        W20239  42.736  43.813   1.276
47914W        W20240   7.360  16.551  14.012
47915W        W20241   1.474  19.943   3.220
47916W        W20242   6.303  31.681  10.434
47917W        W20243  36.042  11.414  11.110
47918W        W20244   0.709  35.385  13.823
47919W        W20245  14.572  21.113   4.167
47920W        W20246  40.845  37.852  10.600
47921W        W20247  39.683  11.383  13.924
47922W        W20248  16.518  33.393   0.343
47923W        W20249   6.688  13.570  11.153
47924W        W20250  44.976  36.913   3.623
47925W        W20251   2.007  10.867   1.362
47926W        W20252  15.339  40.628   2.591
47927W        W20253   8.380  27.021   0.977
47928W        W20254  27.553  16.302   4.578
47929W        W20255  26.482  42.585  13.913
47930W        W20256  41.895  27.090   2.917
47931W        W20257  15.276  19.532   0.906
47932W        W20258  27.000  14.673  11.063
47933W        W20259   0.540  30.466   2.808
47934W        W20260  15.833  44.786   3.723
47935W        W20261   2.415  23.654  14.541
47936W        W20262   2.522  43.586   4.207
47937W        W20263   5.800  11.447   0.480
47938W        W20264  20.763   8.925   4.583
47939W        W20265  26.898  43.397   3.433
47940W        W20266  32.971  25.644  13.164
47941W        W20267  30.552  21.804   3.228
47942W        W20268  34.218  30.717   1.219
47943W        W20269   4.976   0.332   2.202
47944W        W20270  42.947  36.612   2.095
47945W        W20271  33.987  22.758   1.797
47946W        W20272  23.654  20.308   3.220
47947W        W20273  37.934  33.535  10.124
47948W        W20274  23.139  41.540  10.778
47949W        W20275  21.306  39.761   0.886
47950W        W20276   2.226  29.176  14.319
47951W        W20277   4.472  22.056  12.074
47952W        W20278  21.122  15.145  14.725
47953W        W20279  21.276  39.867  13.624
47954W        W20280  36.612  12.043   3.296
47955W        W20281   3.649  35.970  12.092
47956W        W20282  27.196   4.968   2.697
47957W        W20283   4.712  11.387   4.636
47958W        W20284   6.866  32.597   0.878
47959W        W20285  37.134  40.530  14.318
47960W        W20286  33.943  40.657   3.678
47961W        W20287  16.602  16.582   2.783
47962W        W20288  15.331   7.800  13.477
47963W        W20289   2.386   7.624  13.551
47964W        W20290   2.983  43.956   1.804
47965W        W20291  28.507  21.530  13.102
47966W        W20292  33.174  27.062   0.283
47967W        W20293  21.618  13.564   2.749
47968W        W20294   1.842  24.744  12.882
47969W        W20295   2.907  41.564   2.736
47970W        W20296  12.120  41.231   1.139
47971W        W20297  14.280  25.916  14.424
47972W        W20298  41.450  20.291  11.971
47973W        W20299  17.989   6.305   4.061
47974W        W20300   7.371  40.352   0.876
47975W        W20301  16.057  34.390   2.324
47976W        W20302  30.949  43.992  11.985
47977W        W20303  20.609  31.816   1.604
47978W        W20304  19.134  20.760  10.918
47979W        W20305  33.059  20.030   3.821
47980W        W20306   0.935   5.384  14.721
47981W        W20307  34.912  11.009  10.623
47982W        W20308  20.161  36.882  14.279
47983W        W20309  32.561  21.359  14.890
47984W        W20310  25.134  11.565  14.691
47985W        W20311  29.131   8.779   0.801
47986W        W20312  19.599  40.034   4.636
47987W        W20313  41.926  18.707  12.303
47988W        W20314   6.729   3.170   0.881
47989W        W20315  40.265   0.438  11.594
47990W        W20316  32.031  29.318   1.749
47991W        W20317   3.266  42.301   2.905
47992W        W20318  28.266   3.943   3.737
47993W        W20319   1.207   5.346   3.886
47994W        W20320  30.104  16.196  12.429
47995W        W20321  39.705  15.715  11.176
47996W        W20322  19.157  34.121  10.606
47997W        W20323  20.070  26.263   4.260
47998W        W20324  18.982   2.418  13.428
47999W        W20325  18.251  18.821  13.258
48000W        W20326  39.466  37.324  12.846
48001W        W20327  11.710  37.432  14.795
48002W        W20328  19.843  34.115  12.238
48003W        W20329  38.783  40.907   3.573
48004W        W20330  38.780  37.785   2.337
48005W        W20331  35.539  27.530   2.180
48006W        W20332  40.451   9.195  13.435
48007W        W20333  14.845  15.646  12.451
48008W        W20334  25.105   4.428   1.947
48009W        W20335  14.256  26.006   4.121
48010W        W20336  26.747  33.499   0.326
48011W        W20337  36.302  31.150   4.068
48012W        W20338  26.183  25.432   0.023
48013W        W20339  43.690  10.989  13.348
48014W        W20340  38.461  19.207   0.818
48015W        W20341  35.979   6.825   1.810
48016W        W20342  25.949  20.009  13.056
48017W        W20343  13.831  33.880   2.087
48018W        W20344  10.584  37.780  14.480
48019W        W20345   1.352  42.749   3.561
48020W        W20346  19.637  23.977   2.676
48021W        W20347   7.228  39.855  10.680
48022W        W20348  28.089   2.454  11.681
48023W        W20349  29.488  38.566  12.591
48024W        W20350  39.808   0.459  14.951
48025W        W20351  17.447  42.026  13.632
48026W        W20352  40.783  32.441   3.745
48027W        W20353  14.603  10.294  13.247
48028W        W20354  28.902  25.205   2.407
48029W        W20355  42.898  29.659   3.683
48030W        W20356   8.109  40.092  13.884
48031W        W20357  14.079  30.274  11.773
48032W        W20358   4.225  21.751   2.082
48033W        W20359  30.912  13.977   2.775
48034W        W20360  19.969  24.450  12.873
48035W        W20361  20.150  14.489   5.035
48036W        W20362   1.340  26.587  13.339
48037W        W20363  35.849   0.242   1.973
48038W        W20364  23.655   3.621   1.394
48039W        W20365  13.149  15.418   3.740
48040W        W20366  41.989  43.229   3.717
48041W        W20367  36.074   7.315   2.772
48042W        W20368  10.463   9.339  12.315
48043W        W20369   5.849  16.667  12.344
48044W        W20370   7.693  28.584   4.775
48045W        W20371  18.623  33.849   0.963
48046W        W20372  30.989  33.563   3.417
48047W        W20373  14.805   0.486  12.379
48048W        W20374  32.887  12.515  10.700
48049W        W20375   5.233  27.116  10.642
48050W        W20376   4.290   7.337   4.562
48051W        W20377  22.567  22.289  12.016
48052W        W20378  31.077  27.648  10.589
48053W        W20379  32.665   7.334  14.335
48054W        W20380  42.020   1.479  14.085
48055W        W20381  16.976  41.833   3.183
48056W        W20382  14.868  21.130  10.690
48057W        W20383  39.089   2.043   3.036
48058W        W20384   7.861   9.745   3.187
48059W        W20385  35.080  30.183  10.593
48060W        W20386  40.413  30.365  11.457
48061W        W20387  29.951  18.203  12.098
48062W        W20388  29.093   1.741  12.651
48063W        W20389  38.759  34.412  14.359
48064W        W20390  14.715  38.394  12.475
48065W        W20391  33.446  26.219  11.184
48066W        W20392   9.123   8.586   4.968
48067W        W20393  44.468   8.244  10.545
48068W        W20394  27.635   7.348   4.769
48069W        W20395  26.147   4.814   4.167
48070W        W20396  25.698   9.172  11.201
48071W        W20397  10.084  31.618  14.325
48072W        W20398  31.022  17.616   3.677
48073W        W20399  28.428  14.820   4.094
48074W        W20400  31.029  30.841  11.775
48075W        W20401  21.072  25.652  12.905
48076W        W20402  12.652  27.129   4.551
48077W        W20403  14.614  39.072  14.923
48078W        W20404  34.875  14.676  13.376
48079W        W20405  15.601  17.730  11.026
48080W        W20406  17.289  33.806   2.745
48081W        W20407  10.263   9.145   1.783
48082W        W20408  40.418  11.115   0.497
48083W        W20409   3.207  10.333  10.687
48084W        W20410  10.191  20.303  14.831
48085W        W20411  17.412  33.788   9.811
48086W        W20412   7.383  23.716   0.477
48087W        W20413   6.194  38.534   2.335
48088W        W20414  32.274  40.495   0.257
48089W        W20415   9.967   4.964  13.027
48090W        W20416  32.041  19.175  14.850
48091W        W20417   0.251  26.441  11.006
48092W        W20418  25.835  39.225   4.998
48093W        W20419   8.393   2.914   3.328
48094W        W20420  35.828  14.776   3.112
48095W        W20421   0.316  32.404   0.895
48096W        W20422  28.673  11.179  12.509
48097W        W20423  17.814   2.084  14.335
48098W        W20424  37.351  12.969   2.422
48099W        W20425  39.968  44.196  11.630
48100W        W20426   2.307  15.432   0.882
48101W        W20427  19.740   7.264   3.333
48102W        W20428  35.326   8.916   1.983
48103W        W20429  38.957  24.688  13.474
48104W        W20430   0.470   8.697  11.492
48105W        W20431  20.793  15.563  12.618
48106W        W20432  32.490  41.229  14.479
48107W        W20433  30.458   3.978  14.411
48108W        W20434   8.664  38.767   1.789
48109W        W20435  38.098  24.884  14.407
48110W        W20436  41.047  24.627  12.473
48111W        W20437  43.293  26.012  14.614
48112W        W20438  12.233  42.860   2.229
48113W        W20439  35.153   9.733  14.316
48114W        W20440  11.656  30.492   4.604
48115W        W20441  18.048  13.315  12.050
48116W        W20442  13.156  24.913  14.003
48117W        W20443  22.007   2.239  13.358
48118W        W20444  15.334  31.749  10.650
48119W        W20445   5.917  41.826  13.079
48120W        W20446  34.289  40.041  14.778
48121W        W20447  18.439  10.565  11.109
48122W        W20448   2.981  26.691   2.820
48123W        W20449  26.189  22.322  12.325
48124W        W20450   9.769  14.822  10.670
48125W        W20451  24.723  19.120  13.254
48126W        W20452  24.495  38.435  11.923
48127W        W20453  10.156   8.327  13.090
48128W        W20454   1.677   3.144   3.803
48129W        W20455  19.742  30.497  12.953
48130W        W20456  22.089   2.443  14.517
48131W        W20457  15.830   1.375  12.511
48132W        W20458  30.479  11.098   1.230
48133W        W20459  31.613  40.825   1.236
48134W        W20460  16.388  31.822   4.175
48135W        W20461  31.239  27.885  14.199
48136W        W20462  23.427  12.757  11.086
48137W        W20463  31.558  12.387   4.767
48138W        W20464  18.051  30.202  14.444
48139W        W20465  34.291  18.664  14.814
48140W        W20466  39.162  17.853  14.837
48141W        W20467  26.489   5.401  12.828
48142W        W20468  44.894  31.459  12.450
48143W        W20469  16.176  30.015   0.531
48144W        W20470   1.744  27.845   2.320
48145W        W20471  26.874  41.343  14.458
48146W        W20472  25.736  16.012   2.229
48147W        W20473  22.105  26.822   3.424
48148W        W20474  16.416  27.410  13.734
48149W        W20475  25.731  22.238  12.616
48150W        W20476  40.302  22.623   2.599
48151W        W20477  32.609  25.152   1.478
48152W        W20478  38.889   6.483   4.815
48153W        W20479  37.006  37.461  12.076
48154W        W20480  39.556  19.659   3.684
48155W        W20481  38.335  28.456  10.646
48156W        W20482  11.418  44.891   3.815
48157W        W20483  21.468  22.206   3.674
48158W        W20484  12.833  23.566   5.111
48159W        W20485  42.417  29.710   4.060
48160W        W20486   2.914   7.801  14.715
48161W        W20487  17.651   0.280   3.479
48162W        W20488  44.073  13.716  12.074
48163W        W20489  14.124  44.021  11.152
48164W        W20490  24.532  30.625   3.881
48165W        W20491   4.267  31.009   0.345
48166W        W20492  17.818  22.324   3.842
48167W        W20493  25.113  32.700  12.074
48168W        W20494   8.731  37.331  11.885
48169W        W20495  20.704  11.859  10.770
48170W        W20496  44.106  42.709   2.682
48171W        W20497  28.988   7.432  13.921
48172W        W20498   4.345  27.984   2.791
48173W        W20499  15.715   3.266  12.274
48174W        W20500   4.646  33.988  11.150
48175W        W20501  41.957  18.046  11.587
48176W        W20502   6.847   9.962  14.629
48177W        W20503  10.355   0.490   4.764
48178W        W20504   6.746  31.405  12.654
48179W        W20505  21.571  38.349   2.651
48180W        W20506   0.580   0.972   0.355
48181W        W20507  10.653  42.761   2.809
48182W        W20508  24.527  44.951  14.381
48183W        W20509  25.918   0.482   3.831
48184W        W20510  29.583   6.178   4.645
48185W        W20511  39.751   1.903   1.365
48186W        W20512   1.889   2.774  10.447
48187W        W20513  20.514  32.927  12.408
48188W        W20514   2.089   5.085   4.184
48189W        W20515   7.869   7.704  13.109
48190W        W20516  14.864  38.842  10.646
48191W        W20517  28.004  15.889  13.691
48192W        W20518  26.489  32.686   4.180
48193W        W20519  16.171  24.475   2.084
48194W        W20520   4.182  38.810  13.001
48195W        W20521  13.143   7.351  10.182
48196W        W20522  42.509  38.605   1.252
48197W        W20523   7.991  18.172   2.388
48198W        W20524  28.511   5.966   0.270
48199W        W20525  12.853  38.542  12.361
48200W        W20526  20.510  21.210   3.173
48201W        W20527  38.364   8.345   3.338
48202W        W20528  19.520  20.023   4.496
48203W        W20529  36.486  22.093   1.694
48204W        W20530  31.723  40.582   2.429
48205W        W20531   0.673  13.626  14.049
48206W        W20532  37.523   0.882   1.490
48207W        W20533   9.671  40.846   0.862
48208W        W20534  20.744  39.395  14.582
48209W        W20535  17.498  40.921  14.353
48210W        W20536   1.078  13.808   3.173
48211W        W20537  31.656  18.413   0.570
48212W        W20538   0.226  26.166   1.668
48213W        W20539  11.856  16.230  10.656
48214W        W20540  41.430   0.000   4.694
48215W        W20541  35.417  22.980   3.433
48216W        W20542   1.667  24.695  13.378
48217W        W20543  10.271  42.579  12.355
48218W        W20544   1.107  27.605  11.870
48219W        W20545  28.952   0.586  12.678
48220W        W20546  27.305   1.327   2.013
48221W        W20547  31.075  12.718   5.216
48222W        W20548  12.087  38.516   0.028
48223W        W20549  32.592  34.187  14.375
48224W        W20550   7.188   1.229  10.622
48225W        W20551  21.949  10.086  10.433
48226W        W20552  36.359  42.716   0.833
48227W        W20553  10.800  11.072  12.745
48228W        W20554   8.000  21.715   3.971
48229W        W20555  16.231  37.556  11.055
48230W        W20556  15.185  20.492  14.882
48231W        W20557  38.927   4.865   2.622
48232W        W20558  25.705  12.706   2.793
48233W        W20559   5.676  25.697   0.213
48234W        W20560   5.316  32.869   4.344
48235W        W20561   8.233   0.597   4.921
48236W        W20562  12.824  21.773  14.441
48237W        W20563   0.304  33.705  12.827
48238W        W20564  23.365  13.111   3.864
48239W        W20565  36.960  30.160   1.408
48240W        W20566  22.026   6.435   2.657
48241W        W20567  27.183  22.542  14.978
48242W        W20568  27.481  13.126  11.175
48243W        W20569  36.487  21.115   3.086
48244W        W20570  38.543  12.850  14.067
48245W        W20571  24.443  39.553   0.600
48246W        W20572  28.227  25.971   0.673
48247W        W20573  12.712  31.675  14.932
48248W        W20574  30.118  39.971   4.586
48249W        W20575  24.058   0.519  12.081
48250W        W20576  35.373  36.656  12.454
48251W        W20577  39.515  39.535  13.229
48252W        W20578  21.931  36.943  13.976
48253W        W20579  42.856  37.949  14.360
48254W        W20580  21.112  15.743   3.629
48255W        W20581   6.833  18.301   1.748
48256W        W20582   3.904  18.087  14.924
48257W        W20583   9.124  36.075   2.123
48258W        W20584   2.893  30.619   3.378
48259W        W20585  30.457  25.578  11.124
48260W        W20586  23.319  15.317  11.107
48261W        W20587  32.617  14.584  13.561
48262W        W20588  28.902   2.966   4.281
48263W        W20589  38.936  43.796  11.099
48264W        W20590  38.570  12.321  13.030
48265W        W20591   9.882  10.881   0.340
48266W        W20592   8.724   3.409  11.173
48267W        W20593   4.109  22.266   4.334
48268W        W20594  17.325  26.658   3.732
48269W        W20595  28.502  38.835   1.942
48270W        W20596  28.995  29.973  13.223
48271W        W20597  20.114  11.337  12.915
48272W        W20598  15.805  15.276   2.903
48273W        W20599  42.365  43.301  13.329
48274W        W20600   4.232   7.277   3.643
48275W        W20601  33.607  35.287   0.342
48276W        W20602  42.453  41.538   2.919
48277W        W20603  41.472  14.370  14.920
48278W        W20604  13.344   2.424  10.661
48279W        W20605  24.789  33.855   1.903
48280W        W20606   1.009  11.093  12.019
48281W        W20607  33.384  35.816   4.691
48282W        W20608  43.484  44.556   2.786
48283W        W20609   7.937  39.533   3.385
48284W        W20610  38.789  12.751   0.401
48285W        W20611  18.924  29.829  13.417
48286W        W20612  24.084  39.089  10.594
48287W        W20613  23.104   3.661   2.803
48288W        W20614  13.510  20.693  14.375
48289W        W20615  25.209  35.080  11.507
48290W        W20616  20.282  19.910   9.563
48291W        W20617   9.580   0.727  11.956
48292W        W20618  15.175  16.317  11.184
48293W        W20619  21.020  18.635   3.118
48294W        W20620  13.661  43.826   0.537
48295W        W20621  41.931   3.986   4.666
48296W        W20622  39.957  21.657   1.343
48297W        W20623  25.820  39.961  12.845
48298W        W20624  42.116  28.027  10.796
48299W        W20625  11.808   7.397  13.823
48300W        W20626  14.779  41.066   1.511
48301W        W20627   0.164  28.660   3.501
48302W        W20628  28.618   3.538   3.713
48303W        W20629  43.815  13.461  11.130
48304W        W20630  43.123   0.278   2.899
48305W        W20631   3.401  17.012  14.842
48306W        W20632   7.329  16.243  11.159
48307W        W20633  40.426  11.120  14.851
48308W        W20634  39.926  12.536  10.684
48309W        W20635  29.223   0.818  11.927
48310W        W20636  36.130  40.064  13.323
48311W        W20637  31.587  23.024  10.770
48312W        W20638  12.806  28.250   2.488
48313W        W20639   2.663  25.380   3.603
48314W        W20640  40.432  35.967   2.401
48315W        W20641   2.510  27.549  12.384
48316W        W20642  44.482  35.913   3.219
48317W        W20643  31.509   0.487   4.682
48318W        W20644  27.088   0.961  11.637
48319W        W20645  35.807   3.314  10.770
48320W        W20646  28.041  24.174  14.770
48321W        W20647   9.815  18.236   2.159
48322W        W20648  34.439   3.165   2.843
48323W        W20649   5.309   9.284  10.659
48324W        W20650  25.576  32.156  10.590
48325W        W20651   3.276  17.210   4.702
48326W        W20652   8.845  35.031   3.137
48327W        W20653  20.051  28.936  10.774
48328W        W20654   1.635   0.353  14.308
48329W        W20655   1.226   3.863   2.771
48330W        W20656  33.677  38.901   3.260
48331W        W20657  43.561  27.441   3.672
48332W        W20658  21.364  26.138   0.816
48333W        W20659  25.218   5.379  10.704
48334W        W20660   8.249   4.166   1.391
48335W        W20661  44.399  34.529  14.042
48336W        W20662  14.903   7.304  14.092
48337W        W20663  42.879  18.138  13.296
48338W        W20664  30.630  30.461  12.009
48339W        W20665  44.820   6.323   2.771
48340W        W20666  29.952  32.872   0.901
48341W        W20667  20.832   9.309   1.373
48342W        W20668  12.251   5.950  10.765
48343W        W20669  22.454   8.404   4.721
48344W        W20670   7.295   0.667  12.988
48345W        W20671   5.952  39.220  14.997
48346W        W20672  30.191  31.439   3.324
48347W        W20673   1.342   1.696  11.171
48348W        W20674   9.737  11.556   3.377
48349W        W20675  40.434  26.127   1.014
48350W        W20676  42.946  32.405   1.701
48351W        W20677   8.474  25.618   1.219
48352W        W20678  40.457  36.579   4.295
48353W        W20679  28.887  26.662   0.483
48354W        W20680  11.379  44.395   4.031
48355W        W20681   0.485  41.396  11.582
48356W        W20682  16.302  14.828  14.713
48357W        W20683   8.423  15.853  14.700
48358W        W20684  27.130  41.507  12.663
48359W        W20685  30.098   4.653   3.159
48360W        W20686  38.022   8.646  10.650
48361W        W20687   1.803  34.062   1.506
48362W        W20688   1.484  31.554  11.615
48363W        W20689  16.149  16.253   3.755
48364W        W20690  35.045  31.074  13.341
48365W        W20691   3.470  15.631  14.017
48366W        W20692  14.342   8.332  14.603
48367W        W20693  41.557  28.607  13.050
48368W        W20694   4.348  13.572   3.890
48369W        W20695  32.383   1.286   3.644
48370W        W20696  44.374  12.367  10.609
48371W        W20697   3.971   5.455   0.345
48372W        W20698  44.202   0.493  12.529
48373W        W20699  21.463  32.568   1.819
48374W        W20700  27.421  26.412   3.679
48375W        W20701  19.009  18.460  13.842
48376W        W20702  20.426  23.428  10.296
48377W        W20703  39.862  22.084  13.986
48378W        W20704  44.440   2.576   3.180
48379W        W20705  43.047  38.039   1.659
48380W        W20706   8.659   9.229  11.663
48381W        W20707  21.024  38.596  12.416
48382W        W20708  35.615   1.469  13.587
48383W        W20709  14.788  24.977   1.460
48384W        W20710  30.702  39.365  12.066
48385W        W20711  14.679  37.422   3.529
48386W        W20712  44.446  36.620  11.928
48387W        W20713  24.451  12.961  10.976
48388W        W20714  26.283  14.029   0.522
48389W        W20715   6.323  40.059   2.160
48390W        W20716  24.941  19.456   2.789
48391W        W20717  10.575  30.914   3.732
48392W        W20718   6.146  16.224   0.506
48393W        W20719  12.810  21.015   2.844
48394W        W20720  16.019  41.767  10.641
48395W        W20721  28.654  30.870  14.299
48396W        W20722  29.396   8.357  12.978
48397W        W20723  13.362  18.162  10.733
48398W        W20724  32.043  26.054  10.693
48399W        W20725   1.316   7.809  10.959
48400W        W20726  21.083  20.600   0.001
48401W        W20727  35.501  28.158  12.930
48402W        W20728  10.116  24.177   0.894
48403W        W20729  21.324  23.176   4.618
48404W        W20730   9.409   6.941   3.866
48405W        W20731  21.586  15.214   4.058
48406W        W20732  16.903  15.867   2.264
48407W        W20733  44.284  40.663   2.330
48408W        W20734  31.439  42.902  12.423
48409W        W20735  25.052  29.016   3.907
48410W        W20736   0.683   9.123   4.983
48411W        W20737  26.107   4.316   4.378
48412W        W20738  39.803   9.264   4.103
48413W        W20739  27.848  23.540  10.367
48414W        W20740  36.612  25.543  12.979
48415W        W20741  15.757   1.477   1.151
48416W        W20742  43.841  27.744   0.320
48417W        W20743  10.730   6.774  14.507
48418W        W20744  20.241  28.092   2.196
48419W        W20745  40.976  16.898   1.303
48420W        W20746   1.918   8.339  11.494
48421W        W20747  27.526  32.666  13.413
48422W        W20748   0.500   8.716  14.133
48423W        W20749   2.954  10.182   0.849
48424W        W20750  19.362  38.357   4.294
48425W        W20751  27.747   1.252   1.742
48426W        W20752  33.944  25.257   0.402
48427W        W20753  26.383  31.595   1.859
48428W        W20754  19.550  43.263  11.257
48429W        W20755  42.079  17.215   1.278
48430W        W20756  11.881  25.734   4.514
48431W        W20757  42.908   0.928   3.968
48432W        W20758  20.134  19.689  12.327
48433W        W20759  24.228   4.804   3.832
48434W        W20760  27.268  40.882   2.340
48435W        W20761   9.603  28.526   0.834
48436W        W20762  32.382   4.291  13.010
48437W        W20763  23.529   0.467  12.064
48438W        W20764  23.525   7.160  11.650
48439W        W20765  41.481  41.911  13.990
48440W        W20766   9.316  21.014  12.594
48441W        W20767  13.224  27.674   3.385
48442W        W20768  13.368  28.243   0.875
48443W        W20769   7.813   2.756   4.144
48444W        W20770  44.163  24.264  12.012
48445W        W20771  26.181  41.036   0.955
48446W        W20772  27.526  29.213  10.967
48447W        W20773  20.013   8.162   3.311
48448W        W20774  19.616  40.533   4.723
48449W        W20775  17.995   2.490   0.723
48450W        W20776  37.643  18.675   1.001
48451W        W20777  23.105  42.896   4.622
48452W        W20778  11.633   0.768   2.273
48453W        W20779  23.689  38.761  10.677
48454W        W20780  42.353  17.723  13.643
48455W        W20781   6.769  20.633   0.970
48456W        W20782  29.366  44.411   3.364
48457W        W20783  40.880  28.473   0.782
48458W        W20784   3.465  36.923  10.626
48459W        W20785  17.682   0.339   0.955
48460W        W20786   5.468   1.094   0.565
48461W        W20787   6.349  21.520  12.879
48462W        W20788  22.511  40.430  14.497
48463W        W20789  20.111  10.070   3.183
48464W        W20790  26.004   2.155  14.411
48465W        W20791  33.395   2.913   3.150
48466W        W20792  13.580  36.054   9.992
48467W        W20793  26.651   1.537   1.481
48468W        W20794  44.948   7.700  13.438
48469W        W20795  13.378  15.310  13.381
48470W        W20796  18.519   6.770   0.188
48471W        W20797  13.557  38.312   0.382
48472W        W20798   7.881  33.021  12.836
48473W        W20799  12.640   5.666   2.810
48474W        W20800  43.749  37.455   3.819
48475W        W20801  20.076  43.896   0.259
48476W        W20802  23.597  34.371  11.200
48477W        W20803  25.580   3.474   0.192
48478W        W20804  37.618   1.367  11.552
48479W        W20805  13.475  15.364  14.743
48480W        W20806  19.457  40.742  14.553
48481W        W20807  39.104  28.048   2.815
48482W        W20808  24.212  44.770  14.003
48483W        W20809  26.438   4.332   1.658
48484W        W20810  24.521  23.431  11.154
48485W        W20811   3.784   7.011   4.581
48486W        W20812  11.096  18.575   2.390
48487W        W20813   8.426  17.845  14.355
48488W        W20814  21.375  30.984   5.104
48489W        W20815  16.308   7.218   0.367
48490W        W20816  26.718  28.470  11.522
48491W        W20817  31.560   3.294  10.518
48492W        W20818  34.107   0.294   4.708
48493W        W20819  31.098  17.299   4.561
48494W        W20820  22.764  34.836  13.019
48495W        W20821   7.762  41.033  11.182
48496W        W20822  23.916  33.127  10.741
48497W        W20823  40.423   0.200  11.125
48498W        W20824  32.170   6.394  12.223
48499W        W20825  30.371  35.988   4.077
48500W        W20826  23.566  17.719  12.070
48501W        W20827  23.849  29.241   3.195
48502W        W20828  44.245  22.674  10.738
48503W        W20829  36.956  24.596  14.878
48504W        W20830  28.233  26.575   2.722
48505W        W20831   4.912  31.881   1.910
48506W        W20832   0.778  39.821  14.238
48507W        W20833  28.985  19.177  13.473
48508W        W20834  41.916  17.536  13.281
48509W        W20835  10.248  35.037  11.875
48510W        W20836  34.725   1.716   3.276
48511W        W20837   7.033   0.717   0.900
48512W        W20838  15.226  17.743   3.165
48513W        W20839   0.248  33.895  11.523
48514W        W20840  10.774  35.555   3.718
48515W        W20841  12.773  38.412  13.365
48516W        W20842  41.381  35.537   4.149
48517W        W20843   1.541   2.002   0.413
48518W        W20844  14.269  44.791  12.771
48519W        W20845  34.097  24.006  11.731
48520W        W20846  16.650  30.599  13.020
48521W        W20847  27.074  41.992   4.316
48522W        W20848  32.126   5.940   3.276
48523W        W20849   6.382  26.955  14.415
48524W        W20850  25.221  35.626   3.336
48525W        W20851  19.084  10.949   4.537
48526W        W20852   0.943  22.607  13.536
48527W        W20853  40.028   8.868   3.844
48528W        W20854  33.741  38.243  14.308
48529W        W20855  34.946   9.674   1.121
48530W        W20856  12.104  24.128  14.422
48531W        W20857  24.195  29.567  11.233
48532W        W20858   8.274  35.117   1.402
48533W        W20859  28.466   0.415  12.490
48534W        W20860  44.376  15.281  12.635
48535W        W20861   3.981  27.980  12.852
48536W        W20862  20.157  18.635   4.556
48537W        W20863  28.067  33.992   3.732
48538W        W20864  35.415   0.665  12.025
48539W        W20865  26.015  40.367   2.245
48540W        W20866  43.798  18.548   2.764
48541W        W20867  35.520   6.690   1.209
48542W        W20868  21.173  15.841  13.517
48543W        W20869  29.456  10.135   2.664
48544W        W20870  41.827  33.673  13.883
48545W        W20871   1.419   0.827   0.369
48546W        W20872  15.625   1.709  10.689
48547W        W20873  34.687  33.348  10.627
48548W        W20874   9.881  29.102   5.009
48549W        W20875   5.806  18.861  13.547
48550W        W20876  17.821   1.825  13.053
48551W        W20877  41.979  36.857  13.410
48552W        W20878  43.649  22.571  13.030
48553W        W20879   2.634  12.229   0.981
48554W        W20880  29.083  25.558  12.997
48555W        W20881  27.586  31.536   0.325
48556W        W20882  33.596  43.636   4.465
48557W        W20883   2.520  25.112  10.899
48558W        W20884  40.552  20.649  11.335
48559W        W20885  23.913  36.426   0.861
48560W        W20886  25.776   2.677  12.422
48561W        W20887  31.901  10.054   4.722
48562W        W20888  42.746  14.532   0.325
48563W        W20889  43.299  23.212  12.315
48564W        W20890  14.060  27.107  11.959
48565W        W20891  44.336  21.587  13.278
48566W        W20892  10.633  22.267   1.349
48567W        W20893  12.344  22.517  12.871
48568W        W20894   5.927  27.611  14.171
48569W        W20895   8.153  28.434  11.028
48570W        W20896  33.353  20.763  13.861
48571W        W20897  30.784   7.749   1.298
48572W        W20898   9.239  18.110   1.443
48573W        W20899  20.614  21.582  12.286
48574W        W20900   8.621  35.325  10.465
48575W        W20901  33.179  19.063   3.379
48576W        W20902  15.021  41.541   1.156
48577W        W20903  26.990   6.317  12.517
48578W        W20904  28.652  41.854  10.719
48579W        W20905  31.723  40.864  12.957
48580W        W20906   3.800  24.036  14.864
48581W        W20907  16.260  14.847  11.554
48582W        W20908  28.600  38.439  14.441
48583W        W20909  44.217  31.744   1.672
48584W        W20910  21.655  34.728  12.901
48585W        W20911  13.784  10.225  14.165
48586W        W20912  19.695  31.212   4.501
48587W        W20913  35.441  15.836   0.746
48588W        W20914   9.759  30.654   2.623
48589W        W20915  27.591  37.933   4.582
48590W        W20916  17.334  12.628   1.816
48591W        W20917   8.785  13.043  11.637
48592W        W20918   0.999  22.015  10.560
48593W        W20919  26.148   2.552  11.256
48594W        W20920  29.941  22.203   0.423
48595W        W20921   3.538  42.448  12.035
48596W        W20922  44.828  44.538  12.016
48597W        W20923   2.418  23.220   2.863
48598W        W20924  19.248  21.777  13.513
48599W        W20925  25.139  42.555   1.829
48600W        W20926  30.383  42.918   1.598
48601W        W20927  39.394  14.703   4.073
48602W        W20928   3.955  28.494  14.933
48603W        W20929  14.622  28.944   0.719
48604W        W20930  10.076   8.192   3.696
48605W        W20931  10.132  44.722  11.184
48606W        W20932  14.608   5.505   3.748
48607W        W20933  23.749  34.072  13.358
48608W        W20934  19.766  28.051  12.134
48609W        W20935  35.336   2.794  11.437
48610W        W20936  27.750  29.672  10.972
48611W        W20937  41.428  42.984   1.228
48612W        W20938  25.407  42.810   2.814
48613W        W20939  39.564  19.530  11.990
48614W        W20940  33.512  14.718   2.667
48615W        W20941  20.356  28.119   1.297
48616W        W20942  37.620  15.268   4.079
48617W        W20943  20.044   9.680   4.042
48618W        W20944  24.426  29.368  13.851
48619W        W20945  30.054  17.819  13.615
48620W        W20946  23.260  17.296   0.783
48621W        W20947  18.105   3.367  11.603
48622W        W20948  35.566   5.882  10.820
48623W        W20949  41.452  35.479  14.743
48624W        W20950  32.683  13.240   4.663
48625W        W20951  22.041  23.792   0.191
48626W        W20952  19.199  22.216   3.807
48627W        W20953  10.003  35.050  12.426
48628W        W20954  11.593  19.787  11.531
48629W        W20955  30.021   4.241  14.520
48630W        W20956  17.138  21.598  14.440
48631W        W20957  11.286  17.685  11.818
48632W        W20958  41.969  37.248  11.622
48633W        W20959  36.506  43.514  13.971
48634W        W20960  44.463   2.950  13.732
48635W        W20961   1.593  27.862  11.851
48636W        W20962  16.697  15.420   2.123
48637W        W20963  12.573  28.626   3.717
48638W        W20964   7.804  27.986   1.645
48639W        W20965  35.001  23.924  14.260
48640W        W20966   8.263  39.910   1.939
48641W        W20967  21.640   5.425   0.892
48642W        W20968   2.385   2.430   3.364
48643W        W20969  31.188  14.827   2.196
48644W        W20970   9.698   8.870   0.298
48645W        W20971  41.310  24.150   3.336
48646W        W20972  25.102  27.151  13.164
48647W        W20973  44.620  16.093  10.154
48648W        W20974  19.861  22.448   0.980
48649W        W20975  27.218  32.945   1.834
48650W        W20976  27.508  33.962  14.042
48651W        W20977   7.695   9.786   2.704
48652W        W20978  39.425  30.290   1.875
48653W        W20979  36.949  22.245  12.482
48654W        W20980  14.251  13.344   0.461
48655W        W20981  26.946  28.910  11.369
48656W        W20982  18.236   9.840   1.703
48657W        W20983  44.294  37.983  14.240
48658W        W20984  19.502  35.390  13.463
48659W        W20985  15.801  19.185   0.965
48660W        W20986  25.947  36.036   4.246
48661W        W20987  39.461  28.961   0.498
48662W        W20988   0.271  14.569  12.953
48663W        W20989  43.690  32.492  12.334
48664W        W20990  22.054  36.501  12.976
48665W        W20991  13.224   4.591  12.165
48666W        W20992  32.160   4.597   0.296
48667W        W20993  10.123  44.384  10.525
48668W        W20994  40.406  38.360   4.150
48669W        W20995  22.657  34.458   0.890
48670W        W20996   3.673  38.909  12.157
48671W        W20997   5.370   0.858  10.597
48672W        W20998   1.846  32.129  13.943
48673W        W20999  14.921  18.884   2.269
48674W        W21000  35.332  40.434   3.678
48675W        W21001  18.262  10.865  13.790
48676W        W21002   8.881   6.655  11.458
48677W        W21003  28.161  16.742  11.215
48678W        W21004  30.550  13.436   4.865
48679W        W21005  39.815  30.660   0.108
48680W        W21006  18.200  22.647  10.571
48681W        W21007  12.630  23.036   2.570
48682W        W21008  28.645  12.238  12.363
48683W        W21009  15.266  12.059  12.064
48684W        W21010  20.620  29.155  13.629
48685W        W21011  37.619   6.174   0.508
48686W        W21012  21.554  26.614   3.257
48687W        W21013   1.508  24.299  11.103
48688W        W21014  16.860  25.911  14.817
48689W        W21015  37.847  11.353   3.091
48690W        W21016  18.078  10.072   1.249
48691W        W21017  10.920  38.275   3.222
48692W        W21018  34.390  18.649   1.659
48693W        W21019  11.522  42.035   0.804
48694W        W21020  15.660  39.615  14.423
48695W        W21021  41.134  10.587  10.295
48696W        W21022  27.960  12.147   4.799
48697W        W21023  23.490   1.994   3.186
48698W        W21024  42.005  44.996  10.626
48699W        W21025  40.490  17.384   1.967
48700W        W21026  21.729  23.602   4.108
48701W        W21027  42.323  27.225  13.292
48702W        W21028  16.692  29.467   3.675
48703W        W21029  32.116  36.544  11.888
48704W        W21030   6.792   5.844  11.642
48705W        W21031  16.171   6.872  14.061
48706W        W21032  44.185  26.995   2.285
48707W        W21033   3.351  18.772   2.457
48708W        W21034  20.595  40.545   0.692
48709W        W21035  40.828  36.110  12.107
48710W        W21036  12.794  33.853   4.057
48711W        W21037   6.421  15.107   3.939
48712W        W21038  18.071  15.835   3.842
48713W        W21039   4.657  34.942  14.822
48714W        W21040   8.270  28.916  10.938
48715W        W21041  17.485  37.482   4.759
48716W        W21042  28.726  12.414  14.728
48717W        W21043  23.607   9.822   0.766
48718W        W21044   7.747   5.711  12.561
48719W        W21045   9.574  18.135  12.092
48720W        W21046  27.181  11.459   2.031
48721W        W21047  36.377  19.848  12.968
48722W        W21048   6.771  24.019  12.038
48723W        W21049  38.355  17.009   3.179
48724W        W21050  34.555  25.765  13.849
48725W        W21051   4.672  37.726  11.881
48726W        W21052   0.882   7.182   0.438
48727W        W21053  42.732   1.893   4.960
48728W        W21054  13.166  10.235  13.409
48729W        W21055  41.048  23.902   3.719
48730W        W21056  22.341  33.512  11.013
48731W        W21057  37.485  21.469  12.526
48732W        W21058  34.620  22.687   4.124
48733W        W21059   1.922  10.392   4.264
48734W        W21060   5.849   2.312  14.595
48735W        W21061  15.404  28.523  11.195
48736W        W21062  17.793   1.628  13.554
48737W        W21063  40.299  43.789  10.766
48738W        W21064   4.769  20.589   1.457
48739W        W21065  29.930  34.174   1.261
48740W        W21066   9.101   4.937   0.962
48741W        W21067  35.688  41.167   0.913
48742W        W21068  11.243   2.653   3.710
48743W        W21069   0.867   2.788  11.046
48744W        W21070  23.644  19.475   0.260
48745W        W21071  16.553  44.375  12.918
48746W        W21072  16.488  43.852   2.220
48747W        W21073  33.113  25.525   0.767
48748W        W21074  39.287  13.496   1.932
48749W        W21075  25.575  28.086  11.709
48750W        W21076  43.881  43.016   5.139
48751W        W21077  33.450  34.088   4.092
48752W        W21078  37.452  25.612   2.712
48753W        W21079  26.530   5.370  11.217
48754W        W21080  10.688   5.486  12.383
48755W        W21081  31.509   4.717  13.947
48756W        W21082  34.081  38.543  14.967
48757W        W21083  18.576  10.920   1.865
48758W        W21084  43.006  29.194   2.803
48759W        W21085   1.289  20.757   4.772
48760W        W21086  19.645  15.131   1.418
48761W        W21087  32.838  10.864  13.473
48762W        W21088   9.906  15.708  12.056
48763W        W21089   7.503  42.474   1.293
48764W        W21090  32.032  31.426  13.807
48765W        W21091  33.717  31.345  13.147
48766W        W21092  23.715  14.393  13.446
48767W        W21093  33.822  10.358   0.385
48768W        W21094  28.358  26.667  14.073
48769W        W21095  41.485  17.213   4.003
48770W        W21096  44.470  33.857  14.907
48771W        W21097  37.807  24.557  10.734
48772W        W21098  39.375  10.348   2.930
48773W        W21099  13.945  35.727  10.170
48774W        W21100  23.431  26.840  10.751
48775W        W21101   5.889  10.435   3.144
48776W        W21102  32.424  32.556  14.508
48777W        W21103   1.396  19.344   4.240
48778W        W21104  38.418   4.526  14.780
48779W        W21105   4.391  11.773   9.841
48780W        W21106  40.399  23.634   0.421
48781W        W21107  35.765  23.647  10.738
48782W        W21108  41.979   9.406   4.116
48783W        W21109   1.618  29.855   1.785
48784W        W21110  23.659  38.465   2.863
48785W        W21111  33.594  39.196   1.867
48786W        W21112  44.188   2.479  13.480
48787W        W21113  30.462  26.647   4.838
48788W        W21114  20.678  41.315  12.318
48789W        W21115   8.590  15.799  10.380
48790W        W21116   6.646  42.689   1.782
48791W        W21117  21.832  19.770  10.565
48792W        W21118  28.675  26.533  12.603
48793W        W21119   9.889  21.640  14.693
48794W        W21120  41.124  37.550  12.936
48795W        W21121  41.336  26.609   4.435
48796W        W21122   8.200  10.877  13.174
48797W        W21123  29.674  13.167  12.917
48798W        W21124   9.616  13.491  11.097
48799W        W21125  16.155  40.053   2.733
48800W        W21126  35.341  14.794   3.262
48801W        W21127  15.569   5.555  14.215
48802W        W21128  27.405   9.908   4.584
48803W        W21129  12.069  40.329   0.899
48804W        W21130  25.836   4.421   0.820
48805W        W21131  19.827  24.279  14.363
48806W        W21132  43.685   0.403  12.610
48807W        W21133  36.327   3.353  10.660
48808W        W21134  10.698  15.508   0.911
48809W        W21135  35.010   2.533  11.087
48810W        W21136  10.782  11.540  12.953
48811W        W21137   1.994  13.649  14.420
48812W        W21138   5.400   3.275   2.214
48813W        W21139  32.957  13.289   3.200
48814W        W21140  43.429  39.465   2.371
48815W        W21141  23.412  37.630  10.697
48816W        W21142  38.225  10.710   1.481
48817W        W21143  41.329  11.802  10.664
48818W        W21144  26.198   1.257   2.956
48819W        W21145  12.146  18.810  13.572
48820W        W21146  24.148  26.583   1.327
48821W        W21147  33.487  36.596  13.859
48822W        W21148  40.336  12.292   3.770
48823W        W21149  35.366  23.509   1.710
48824W        W21150  23.558  44.264  10.454
48825W        W21151  10.610  32.470  14.142
48826W        W21152  41.887  30.920  14.355
48827W        W21153  27.351  36.021   1.331
48828W        W21154  37.479  22.196   2.639
48829W        W21155   1.205  17.615  12.431
48830W        W21156  18.045  39.348  14.875
48831W        W21157  15.800  26.984   2.214
48832W        W21158  32.893  26.240  12.351
48833W        W21159  14.727  19.732   2.188
48834W        W21160  22.120   2.152   4.556
48835W        W21161  17.635   6.702   0.474
48836W        W21162  28.437  14.627  11.459
48837W        W21163  32.806  15.086  12.819
48838W        W21164   1.444  15.815  12.116
48839W        W21165  34.522   1.803   2.819
48840W        W21166  26.106  35.586   2.411
48841W        W21167   6.478  25.923  13.263
48842W        W21168  19.539  38.598  13.943
48843W        W21169  23.030   2.250  13.273
48844W        W21170  11.840   4.088  11.004
48845W        W21171  35.359  11.136   1.780
48846W        W21172  36.672  22.702  13.352
48847W        W21173  37.648  19.786   1.157
48848W        W21174  44.746  33.426  14.872
48849W        W21175   6.660  14.119   2.334
48850W        W21176   0.955   6.243   3.372
48851W        W21177  18.076  19.613   1.192
48852W        W21178  15.758   8.322  13.580
48853W        W21179  38.647  14.247  12.533
48854W        W21180  25.522  22.588   2.065
48855W        W21181  10.063   9.970   0.849
48856W        W21182  44.908  29.588   1.204
48857W        W21183   1.205  36.355   3.743
48858W        W21184  30.906  14.576  10.599
48859W        W21185  38.097  16.059   2.231
48860W        W21186  34.197  33.529  10.642
48861W        W21187  33.591  23.623   2.712
48862W        W21188  15.783   4.764   0.485
48863W        W21189   9.133  37.421  14.984
48864W        W21190  44.561  37.791   1.769
48865W        W21191  30.985  32.432  13.400
48866W        W21192  24.659  42.020  14.823
48867W        W21193  26.519  20.316  12.298
48868W        W21194  39.561  44.428   4.251
48869W        W21195  39.301  29.980   2.839
48870W        W21196  10.680  10.183  11.216
48871W        W21197  19.699  14.829  10.911
48872W        W21198  25.417  11.178  11.590
48873W        W21199  27.398  22.637   2.788
48874W        W21200  16.770  17.328  13.052
48875W        W21201   6.807  17.038   4.390
48876W        W21202  13.756   6.273   0.735
48877W        W21203  13.298  17.337   4.205
48878W        W21204  30.151  32.434   1.791
48879W        W21205  27.942   6.684   4.263
48880W        W21206  31.116  20.546   1.303
48881W        W21207  24.224   5.281   2.638
48882W        W21208   6.211  34.975  11.048
48883W        W21209   5.030  30.494   0.213
48884W        W21210  40.341  41.979   4.113
48885W        W21211   6.861  17.522   3.494
48886W        W21212  13.283  21.453  11.298
48887W        W21213  20.285  19.294  13.045
48888W        W21214  42.464  43.124   0.297
48889W        W21215  42.460  10.840   4.549
48890W        W21216  27.126  31.223  13.073
48891W        W21217  11.485   0.749   3.208
48892W        W21218   4.134  22.899  13.820
48893W        W21219  28.532  25.465   9.676
48894W        W21220  17.637  30.990  11.525
48895W        W21221   2.465  21.492   3.731
48896W        W21222  28.665  32.416  10.966
48897W        W21223   7.616   2.326  12.591
48898W        W21224  12.185  42.035   1.011
48899W        W21225  21.653  38.851   2.540
48900W        W21226  29.815  13.476  14.958
48901W        W21227  29.446  12.579  11.253
48902W        W21228  22.760  36.118  13.323
48903W        W21229   5.676  21.628  11.098
48904W        W21230  21.078  34.048   5.153
48905W        W21231  38.352  13.380  10.945
48906W        W21232  37.845  13.176  12.954
48907W        W21233  25.295  28.532   4.072
48908W        W21234   1.345  42.356   2.239
48909W        W21235   3.481  24.462  14.865
48910W        W21236  11.096   1.099   0.869
48911W        W21237  31.398  11.101  14.037
48912W        W21238  26.914   1.817   4.147
48913W        W21239  13.644  11.858   0.049
48914W        W21240  39.394  40.967   1.462
48915W        W21241  16.476  15.493  11.498
48916W        W21242  19.048  44.274  14.929
48917W        W21243  23.203  17.193  11.853
48918W        W21244  39.085  30.131   2.396
48919W        W21245  26.018  38.889   1.050
48920W        W21246  21.999  28.899  13.871
48921W        W21247   5.150  21.339  12.033
48922W        W21248   3.884  17.281   0.520
48923W        W21249  33.367  38.190   3.482
48924W        W21250  19.376  20.317   1.281
48925W        W21251   1.373  34.882  13.999
48926W        W21252  17.800   6.284   1.120
48927W        W21253   8.238  35.579   4.836
48928W        W21254  27.975  41.325  13.317
48929W        W21255   1.554  31.985   1.299
48930W        W21256   2.809  20.582   5.148
48931W        W21257  25.231  23.571   1.826
48932W        W21258  23.950  28.017  13.849
48933W        W21259  33.871  32.421  11.891
48934W        W21260  34.869  25.490  13.517
48935W        W21261  10.585  33.919  11.480
48936W        W21262  34.036   8.196   2.296
48937W        W21263  44.729  14.084   4.619
48938W        W21264   3.809   3.280  12.891
48939W        W21265  34.945  39.393  12.564
48940W        W21266  40.015  17.713  14.783
48941W        W21267  33.831  30.914  14.514
48942W        W21268  41.484  21.614   1.901
48943W        W21269  27.708   0.245  13.906
48944W        W21270  15.298   3.193   1.210
48945W        W21271  35.862   2.325   1.021
48946W        W21272  24.724  20.615   0.241
48947W        W21273  39.586   0.668  11.556
48948W        W21274   6.931  25.636   0.954
48949W        W21275  11.219   6.791  13.472
48950W        W21276  23.054  31.077   3.110
48951W        W21277   0.334  28.869   4.117
48952W        W21278   3.737  44.464   1.614
48953W        W21279  38.317   4.252   3.089
48954W        W21280  41.267  31.401   1.762
48955W        W21281  11.244  28.751   0.262
48956W        W21282  27.580   7.970  12.531
48957W        W21283  24.273  13.895   1.722
48958W        W21284   3.340  16.195  10.965
48959W        W21285   3.033  42.869   4.123
48960W        W21286  18.122  44.564   1.902
48961W        W21287  30.446   6.734  13.225
48962W        W21288  38.878  11.977  14.715
48963W        W21289  20.302  27.121  12.080
48964W        W21290  24.889   8.759   0.286
48965W        W21291  12.648  18.267   4.943
48966W        W21292   3.782   0.550  12.427
48967W        W21293  16.796  27.674   4.135
48968W        W21294  23.493   7.426   3.426
48969W        W21295  27.588   5.270   4.668
48970W        W21296  35.155  43.336   0.290
48971W        W21297  14.718   8.192  14.046
48972W        W21298  22.624  11.568  14.350
48973W        W21299   3.501  15.809  12.569
48974W        W21300   9.444  11.391  13.033
48975W        W21301  15.577  36.445   2.227
48976W        W21302   1.794   8.714   3.365
48977W        W21303  21.278   9.498   1.586
48978W        W21304  23.620  43.038   2.384
48979W        W21305  30.504  22.229   2.271
48980W        W21306  16.686  20.660  13.305
48981W        W21307  42.742   7.497   2.914
48982W        W21308  44.977   7.253  11.602
48983W        W21309  42.844  39.912   0.231
48984W        W21310   3.268  33.366   1.349
48985W        W21311   2.258   9.703   9.542
48986W        W21312  23.133  36.434   3.443
48987W        W21313  12.029   7.939   0.817
48988W        W21314  20.715  40.480  11.957
48989W        W21315  36.893  42.924  14.674
48990W        W21316   5.991  17.264  13.406
48991W        W21317  37.302  39.334  14.950
48992W        W21318  31.611  20.790   3.139
48993W        W21319   4.669  38.556  11.408
48994W        W21320  21.840  13.109  11.754
48995W        W21321  15.424  20.149  12.646
48996W        W21322   8.747  38.839   0.912
48997W        W21323  28.635   2.455   1.677
48998W        W21324   3.685  29.750   2.739
48999W        W21325  25.047   2.562   3.801
49000W        W21326  32.894  14.079  14.133
49001W        W21327  22.521  31.903  14.813
49002W        W21328  20.743  11.826   4.568
49003W        W21329  33.411  36.038   2.805
49004W        W21330  21.782  30.339   2.462
49005W        W21331  30.849  38.442  12.995
49006W        W21332  29.246   2.368  14.038
49007W        W21333  11.673  35.864   2.298
49008W        W21334  15.259   6.002   3.212
49009W        W21335  25.495  19.136  14.218
49010W        W21336  42.718  33.582   0.886
49011W        W21337  35.119  24.202   3.843
49012W        W21338   3.213  23.056   2.225
49013W        W21339  29.501   6.962   2.144
49014W        W21340  31.954  11.932  14.034
49015W        W21341   0.815  28.284  12.887
49016W        W21342  12.965  28.612   4.912
49017W        W21343  44.909  17.308  13.852
49018W        W21344  21.713  42.096  13.458
49019W        W21345  36.909  13.406   0.887
49020W        W21346  14.121  26.445  11.351
49021W        W21347  14.504  25.463   9.747
49022W        W21348   1.985  11.147  12.105
49023W        W21349   2.929  32.999   4.460
49024W        W21350   3.899  11.746  11.644
49025W        W21351  39.801   1.886   4.240
49026W        W21352  18.513  27.572  14.885
49027W        W21353   4.026  36.512   2.815
49028W        W21354  25.494  27.953   3.234
49029W        W21355  36.919  31.092  10.378
49030W        W21356  36.802  39.450  12.749
49031W        W21357  39.855  30.758   2.972
49032W        W21358  26.720   6.948  11.129
49033W        W21359  14.185   5.992  11.086
49034W        W21360  12.175  13.117   2.827
49035W        W21361   0.054   3.934   1.813
49036W        W21362  10.073  37.905  11.616
49037W        W21363   1.421  12.860  13.462
49038W        W21364  38.355   4.426   4.079
49039W        W21365  25.101  28.480  13.308
49040W        W21366  32.263   3.451  12.745
49041W        W21367  38.546  38.015  10.450
49042W        W21368  22.957  25.660  13.968
49043W        W21369  26.148  43.957   2.473
49044W        W21370  11.547  29.611  11.287
49045W        W21371  22.024  13.406  12.351
49046W        W21372   7.720  10.199  13.360
49047W        W21373   7.125  28.124   0.272
49048W        W21374  30.294  17.609   0.330
49049W        W21375  11.922  14.331  10.679
49050W        W21376   9.739  10.331   1.206
49051W        W21377  30.925   5.650  13.308
49052W        W21378   2.970  42.744  12.535
49053W        W21379   7.682  35.825  13.379
49054W        W21380  43.214  41.356   0.450
49055W        W21381  27.921  13.645  14.602
49056W        W21382  12.887  17.302  13.260
49057W        W21383  18.821  14.827  14.724
49058W        W21384  29.220  22.069  13.433
49059W        W21385  15.422  41.129  13.877
49060W        W21386   8.301  10.809  10.279
49061W        W21387  12.696  21.215  12.864
49062W        W21388  39.066  27.152   0.798
49063W        W21389  30.681  21.109  12.708
49064W        W21390  42.763   6.467   0.979
49065W        W21391  20.055  32.368  10.788
49066W        W21392  21.011  32.861   2.512
49067W        W21393  20.785  42.861  13.942
49068W        W21394  32.090  23.070  10.729
49069W        W21395  28.628   9.702  14.925
49070W        W21396  21.401   9.011  12.789
49071W        W21397  41.900  27.601  14.949
49072W        W21398  12.781  37.314   2.778
49073W        W21399  30.885  44.012  10.146
49074W        W21400  41.419  22.788   4.261
49075W        W21401  12.293   1.587  12.434
49076W        W21402  43.598   2.583   4.598
49077W        W21403  33.277  25.901   3.351
49078W        W21404   8.260  10.041   2.275
49079W        W21405  33.374  35.455   0.794
49080W        W21406  33.131  22.661   2.294
49081W        W21407  31.950  31.857   3.461
49082W        W21408  14.300   8.743  11.749
49083W        W21409  35.610  17.191  12.004
49084W        W21410  26.169  12.195  10.534
49085W        W21411  12.791  16.277   0.022
49086W        W21412  30.158  17.586  10.367
49087W        W21413  39.003  19.374   4.634
49088W        W21414  38.631  37.992   2.812
49089W        W21415  25.084  13.136  13.519
49090W        W21416   5.660  16.180   0.290
49091W        W21417  24.245   0.894  12.569
49092W        W21418   2.808  32.568   3.653
49093W        W21419  11.246   5.284  11.712
49094W        W21420  34.923  23.270   0.028
49095W        W21421  17.153   5.490  14.008
49096W        W21422  35.162   6.434   0.928
49097W        W21423  19.690  11.063  14.493
49098W        W21424  43.520  16.149   0.741
49099W        W21425   7.680   5.889   4.680
49100W        W21426  29.582  13.183   0.351
49101W        W21427  18.499  38.406   4.504
49102W        W21428  38.918   4.432   0.829
49103W        W21429   5.723  15.110   1.774
49104W        W21430  13.320  26.050   0.395
49105W        W21431  25.649  31.867  14.346
49106W        W21432  40.323  14.821  13.035
49107W        W21433  35.084  17.070   4.662
49108W        W21434  18.964  16.183   4.121
49109W        W21435  11.233  37.098  10.687
49110W        W21436  38.797  16.884   3.709
49111W        W21437  41.270  30.368  12.553
49112W        W21438  35.123  35.286   2.805
49113W        W21439  22.045   6.260   1.814
49114W        W21440  12.597   4.751   2.689
49115W        W21441  22.085  28.053  11.546
49116W        W21442  30.909  15.991   2.818
49117W        W21443  13.291  21.785  13.936
49118W        W21444  22.591  44.822   1.794
49119W        W21445  19.241  28.609   0.846
49120W        W21446  16.135  43.584   0.519
49121W        W21447  16.726  40.541  13.150
49122W        W21448   8.874  28.669   0.257
49123W        W21449  40.916  44.186   4.819
49124W        W21450   1.668  26.646   3.235
49125W        W21451  18.646  26.469  13.987
49126W        W21452  19.928   0.452   1.836
49127W        W21453  18.294   4.207  11.554
49128W        W21454  42.432  29.910  13.886
49129W        W21455   5.347  43.768   3.257
49130W        W21456  20.200  39.058   2.697
49131W        W21457  32.315   7.638  10.322
49132W        W21458  33.068  13.671  14.411
49133W        W21459   1.603  44.371  12.448
49134W        W21460   7.403   4.942   3.802
49135W        W21461  16.866  17.254   1.443
49136W        W21462   3.758  27.116  10.373
49137W        W21463  36.065   8.827   2.632
49138W        W21464  22.003   9.388   0.930
49139W        W21465  14.812  31.837   0.582
49140W        W21466  12.934  20.292  12.020
49141W        W21467  25.116  36.131  14.606
49142W        W21468  42.713  12.643  14.034
49143W        W21469  24.011  26.287  10.043
49144W        W21470  19.623   1.249  11.989
49145W        W21471  31.879  30.441  14.469
49146W        W21472   4.335  42.778  13.176
49147W        W21473  44.935  40.352   3.637
49148W        W21474  13.680  28.967   3.268
49149W        W21475   3.797  27.516   3.665
49150W        W21476  28.057  27.464   3.396
49151W        W21477   4.996  24.905  13.036
49152W        W21478   5.171  39.365  14.815
49153W        W21479  20.095  19.471   5.143
49154W        W21480  42.718  40.443   2.701
49155W        W21481  26.015  28.704   2.219
49156W        W21482  40.556   6.791  11.910
49157W        W21483  10.834  35.921   0.245
49158W        W21484  36.880  20.288   0.630
49159W        W21485  21.291  31.613  11.635
49160W        W21486  11.755  39.913   0.034
49161W        W21487  25.893  39.792   0.899
49162W        W21488  12.229  20.784   4.429
49163W        W21489  25.872  17.093  10.212
49164W        W21490  23.772   1.974  10.903
49165W        W21491  17.828  29.693   3.701
49166W        W21492  14.381   3.913   3.859
49167W        W21493  35.932  29.922   0.382
49168W        W21494  28.379  38.444  11.055
49169W        W21495  19.196  37.570  14.072
49170W        W21496   5.640  37.073  13.783
49171W        W21497  31.453   1.040  14.934
49172W        W21498  44.247   3.872  13.517
49173W        W21499  41.342  27.640   0.296
49174W        W21500  19.917  42.254  14.321
49175W        W21501  43.022  32.085  13.392
49176W        W21502  16.637  17.774  11.799
49177W        W21503  14.772   9.844  11.499
49178W        W21504  17.565  43.272   3.655
49179W        W21505  25.965  42.761   1.111
49180W        W21506  28.027  33.028   2.259
49181W        W21507  41.995   9.931  10.445
49182W        W21508  41.085   3.855   4.710
49183W        W21509  11.834  36.921  11.479
49184W        W21510  16.709  28.646  10.749
49185W        W21511  44.361  44.275  11.972
49186W        W21512   3.711  22.282   4.697
49187W        W21513   7.783  10.576  13.017
49188W        W21514   2.943  30.562  13.640
49189W        W21515  32.340  42.836  14.755
49190W        W21516   7.111  20.540   3.748
49191W        W21517   7.857  26.672   2.207
49192W        W21518  44.302  14.320   3.258
49193W        W21519  16.494   4.447  11.146
49194W        W21520  35.416  25.260   4.275
49195W        W21521   8.210   0.951   1.145
49196W        W21522   0.339   1.969  11.990
49197W        W21523  15.213  19.630   2.412
49198W        W21524  33.117  24.205   2.391
49199W        W21525   9.273  30.355  10.642
49200W        W21526  26.672  38.078   4.453
49201W        W21527  22.214  20.357  12.826
49202W        W21528  17.319   9.782   2.232
49203W        W21529  37.966  14.098  14.526
49204W        W21530  41.051  34.348   3.023
49205W        W21531   4.471  27.121  12.456
49206W        W21532  33.070  43.535  14.467
49207W        W21533  38.210   8.204   1.919
49208W        W21534  44.971   7.414  14.707
49209W        W21535   6.733  37.479   1.761
49210W        W21536  38.156  31.563   2.948
49211W        W21537  13.235   2.468   4.169
49212W        W21538  29.551  27.151   2.150
49213W        W21539  33.360  40.351   4.647
49214W        W21540  11.373  19.072   3.830
49215W        W21541  23.719  33.177   3.258
49216W        W21542  39.861   3.891   4.259
49217W        W21543  13.588  36.474  12.482
49218W        W21544  17.246  43.671   0.113
49219W        W21545   1.766  20.055  11.066
49220W        W21546  18.538  26.209   1.171
49221W        W21547  12.486  35.864  11.159
49222W        W21548   1.006   8.843  11.314
49223W        W21549   8.390  12.186  11.276
49224W        W21550  27.628  44.347   4.943
49225W        W21551  40.801  12.428  13.316
49226W        W21552  42.533  10.842   0.018
49227W        W21553   9.135  30.127  13.703
49228W        W21554   6.643  10.847   1.010
49229W        W21555  10.307  40.774  13.969
49230W        W21556  33.901  26.954   3.406
49231W        W21557  27.322   3.326   3.416
49232W        W21558  22.562  13.336  14.862
49233W        W21559  17.489  21.013  14.338
49234W        W21560   8.656   0.451  12.993
49235W        W21561   5.447  30.649  14.662
49236W        W21562  25.280   1.823   0.739
49237W        W21563  31.551   0.740   0.396
49238W        W21564  42.852  40.969   2.179
49239W        W21565  11.260  30.416   3.270
49240W        W21566  16.734  22.005  14.912
49241W        W21567  35.976  39.129  13.663
49242W        W21568  28.382  15.558   3.123
49243W        W21569  36.838  13.134  10.548
49244W        W21570  26.413  15.736  13.821
49245W        W21571  38.030  10.225  12.840
49246W        W21572  31.505  26.090   2.764
49247W        W21573   9.623  33.514   1.421
49248W        W21574  40.496  20.096  12.139
49249W        W21575  17.435  31.068   2.677
49250W        W21576   5.107   9.277  13.533
49251W        W21577  24.390  40.729   2.421
49252W        W21578  24.427  42.959  14.387
49253W        W21579  28.400  18.175   4.579
49254W        W21580  36.037  43.490  14.268
49255W        W21581  33.402   4.650   2.895
49256W        W21582  17.628  15.550   2.568
49257W        W21583  37.794   6.999   2.253
49258W        W21584  28.021  17.173  11.543
49259W        W21585   2.010  27.411   2.222
49260W        W21586  11.094  38.302   1.863
49261W        W21587  38.164  18.748  11.405
49262W        W21588  30.255  43.229   0.655
49263W        W21589  22.021  21.207   2.491
49264W        W21590   2.995  44.364  12.882
49265W        W21591  28.871  21.609  10.670
49266W        W21592  26.286  28.495  12.520
49267W        W21593  37.074  16.359   3.160
49268W        W21594  18.829  14.591   0.803
49269W        W21595  28.217  38.085  12.064
49270W        W21596   3.274   7.147   3.731
49271W        W21597  35.282  33.119  11.958
49272W        W21598  43.796  15.269   3.277
49273W        W21599  15.268  38.062   3.588
49274W        W21600  23.529  42.771   4.261
49275W        W21601  37.953  27.553   0.583
49276W        W21602  12.879   9.782  14.485
49277W        W21603  23.067  12.666  13.477
49278W        W21604  34.908  14.554   0.683
49279W        W21605  34.916  14.310  12.392
49280W        W21606  40.849   9.947   2.399
49281W        W21607  25.420  19.499   0.761
49282W        W21608   4.055   4.336  13.452
49283W        W21609  26.023  11.852  14.431
49284W        W21610   6.836  16.787  14.381
49285W        W21611  17.186  17.810   4.815
49286W        W21612   0.243  21.014  11.979
49287W        W21613  44.525  26.603  12.176
49288W        W21614  26.268  33.204   1.842
49289W        W21615  10.759  40.420  11.580
49290W        W21616  27.544  24.045  11.943
49291W        W21617  27.995  16.752  14.925
49292W        W21618  15.690   1.503   3.190
49293W        W21619  25.649   9.402   0.314
49294W        W21620  19.213  41.916   1.957
49295W        W21621  29.156  18.298  10.356
49296W        W21622  33.439  39.016   3.729
49297W        W21623  34.259   2.609   4.228
49298W        W21624  39.698  43.316   0.099
49299W        W21625  43.859  26.776   2.665
49300W        W21626   4.322  37.514   4.938
49301W        W21627  41.065  22.453   2.153
49302W        W21628   9.162  16.010  11.117
49303W        W21629  30.033  12.266  13.096
49304W        W21630  26.396  21.193   2.087
49305W        W21631   4.620  22.298  13.356
49306W        W21632  44.383  23.828   1.870
49307W        W21633  17.293   1.424  12.413
49308W        W21634  14.428  38.447  14.593
49309W        W21635  33.019   6.694   0.384
49310W        W21636  21.841  16.262   2.305
49311W        W21637  42.399  25.732  12.549
49312W        W21638  33.726  28.157  11.550
49313W        W21639   2.239  29.229  12.854
49314W        W21640   4.445  33.603   1.947
49315W        W21641  35.002  40.050   1.290
49316W        W21642  32.122  29.997   0.399
49317W        W21643   1.753  17.876   1.662
49318W        W21644  22.798   9.420  13.090
49319W        W21645  29.394   5.634   1.885
49320W        W21646   0.507   0.836   0.852
49321W        W21647   3.220  22.216   4.339
49322W        W21648  27.749  34.979   1.852
49323W        W21649   7.233   3.054  14.826
49324W        W21650  25.127  35.132   3.440
49325W        W21651  33.425  23.571  13.093
49326W        W21652  32.501  30.760  11.940
49327W        W21653  16.201  19.712   4.077
49328W        W21654  10.921  27.530   0.018
49329W        W21655  17.531  19.805  11.559
49330W        W21656  43.246  31.601  11.974
49331W        W21657  10.187  19.057   4.146
49332W        W21658  21.688  10.820   3.683
49333W        W21659  15.075  12.155   2.693
49334W        W21660   5.231  30.135  12.832
49335W        W21661  32.611  39.035  14.791
49336W        W21662  18.684  19.245   0.865
49337W        W21663  43.978  39.885  13.036
49338W        W21664   6.958  22.060  12.603
49339W        W21665  17.745  17.199  13.714
49340W        W21666   8.928  28.580  13.887
49341W        W21667  23.586  40.363   4.218
49342W        W21668  11.084   1.313  11.221
49343W        W21669   7.361   4.449   1.670
49344W        W21670  38.041  34.345   4.521
49345W        W21671  17.103  39.214  10.910
49346W        W21672  43.714  24.152  13.592
49347W        W21673   3.199  41.414   1.328
49348W        W21674  40.941  28.021  12.466
49349W        W21675  29.391   8.722  13.510
49350W        W21676  21.522  39.284   5.324
49351W        W21677  19.784  42.110   4.773
49352W        W21678   4.008  12.688   4.144
49353W        W21679  22.723  30.070   4.523
49354W        W21680  27.470  38.888   3.603
49355W        W21681   8.247  31.007  11.165
49356W        W21682   6.828  23.201  13.807
49357W        W21683  26.574  31.091   4.189
49358W        W21684  15.944  14.529  11.864
49359W        W21685  17.804   7.619   0.321
49360W        W21686  10.164   3.514  13.873
49361W        W21687  10.292  25.637  10.721
49362W        W21688  37.506  35.443  14.939
49363W        W21689  23.322  20.520   1.523
49364W        W21690  19.626  43.173   2.143
49365W        W21691  11.622  15.190   2.081
49366W        W21692  35.220  33.623   0.611
49367W        W21693  39.005  22.083  11.595
49368W        W21694  24.177  28.654   2.457
49369W        W21695  40.966   2.297  13.006
49370W        W21696  23.546  30.868   2.195
49371W        W21697  21.782   3.332  14.539
49372W        W21698  14.658  40.916   3.819
49373W        W21699  12.682  12.603   4.440
49374W        W21700  26.821   0.129   3.698
49375W        W21701  42.478  16.861  14.464
49376W        W21702  24.982  32.983  13.841
49377W        W21703  28.335   6.185  14.779
49378W        W21704  25.918  19.158  12.105
49379W        W21705   7.751  39.877  12.103
49380W        W21706  38.817  41.833  12.071
49381W        W21707  39.973  12.116  13.162
49382W        W21708  14.790  25.896  12.561
49383W        W21709  19.475   4.378   4.687
49384W        W21710   2.880  24.307   1.443
49385W        W21711  44.752  14.662  13.018
49386W        W21712   0.473  14.163   0.633
49387W        W21713  28.342  31.391  11.923
49388W        W21714  38.013  35.530   0.176
49389W        W21715   7.342  29.458   1.736
49390W        W21716  32.388  36.673  13.113
49391W        W21717   2.988  28.179  12.043
49392W        W21718  13.219  34.948   4.274
49393W        W21719  18.951  14.799  13.277
49394W        W21720   9.694  42.030  13.815
49395W        W21721   3.876  20.255  12.513
49396W        W21722  24.212   9.630  10.844
49397W        W21723  40.542  27.063  13.972
49398W        W21724   1.455  11.371  10.241
49399W        W21725  25.211  42.588  12.304
49400W        W21726  11.402  31.544  12.444
49401W        W21727  25.054   1.794   1.734
49402W        W21728  19.780  40.328   3.020
49403W        W21729   7.425  10.046   0.780
49404W        W21730  14.837  23.722   2.316
49405W        W21731  22.372   7.948   2.679
49406W        W21732   2.549  17.883  13.838
49407W        W21733  44.604  31.425  12.910
49408W        W21734  37.166   2.211  10.659
49409W        W21735   9.026  33.144  14.412
49410W        W21736  21.186   1.328   3.793
49411W        W21737  11.236  36.507  10.639
49412W        W21738  33.686   1.967   2.982
49413W        W21739  14.853  13.250   1.226
49414W        W21740  39.506  18.554  14.290
49415W        W21741  14.294   2.778  14.806
49416W        W21742  13.291  33.003   4.830
49417W        W21743  22.690  26.567  14.493
49418W        W21744  26.907  36.672  13.269
49419W        W21745  18.696   1.741   4.646
49420W        W21746  13.628  41.562  11.097
49421W        W21747   8.256  34.100   3.711
49422W        W21748  29.213  18.201   2.873
49423W        W21749  14.835  37.189  13.806
49424W        W21750  17.305  27.567   4.251
49425W        W21751  34.625  32.626   9.970
49426W        W21752  10.688  10.145  12.048
49427W        W21753  15.825   2.959  11.569
49428W        W21754  26.726  20.069  14.943
49429W        W21755   5.895  20.217   4.150
49430W        W21756  39.299  23.645   3.803
49431W        W21757  38.331  44.031  10.620
49432W        W21758  10.696  33.591   0.707
49433W        W21759  32.656  27.533  11.488
49434W        W21760   4.473  36.178   2.802
49435W        W21761   3.199  20.551   2.406
49436W        W21762  20.577  40.542   1.969
49437W        W21763  30.439  16.738  10.985
49438W        W21764   5.031   6.956  14.756
49439W        W21765  14.383   6.806  13.369
49440W        W21766  44.332  15.149   0.909
49441W        W21767  18.578  23.236  10.324
49442W        W21768  10.279  19.824   0.955
49443W        W21769  31.277  17.046  12.482
49444W        W21770  24.970  26.111  11.197
49445W        W21771  30.509  36.291  11.107
49446W        W21772  28.008  29.933   1.756
49447W        W21773  44.863   6.461   3.882
49448W        W21774   7.535  26.858   3.237
49449W        W21775   2.098  38.794  12.470
49450W        W21776  23.237   3.179  11.261
49451W        W21777  39.979  21.652  12.268
49452W        W21778  26.513  44.548  11.278
49453W        W21779  37.912  18.743  12.364
49454W        W21780   8.648  20.495   1.856
49455W        W21781  24.035  10.793   2.380
49456W        W21782  40.318  15.161   1.308
49457W        W21783  29.943   8.298  13.870
49458W        W21784   7.201  29.504  14.717
49459W        W21785   8.515   2.523   1.702
49460W        W21786  12.142  16.545  14.678
49461W        W21787  30.671  37.050   2.091
49462W        W21788  30.071  43.976   4.938
49463W        W21789  25.093  23.794  11.134
49464W        W21790  26.943  39.626   1.899
49465W        W21791  25.568   9.968  11.823
49466W        W21792   9.769  39.374  14.873
49467W        W21793  21.955  34.625   5.000
49468W        W21794   7.849  24.456   3.238
49469W        W21795  41.809  25.865  12.976
49470W        W21796  27.716   7.367   2.992
49471W        W21797  14.227  13.600  13.908
49472W        W21798  19.109  44.805  12.330
49473W        W21799  29.678  37.204   4.520
49474W        W21800   7.766   8.876   1.767
49475W        W21801  23.244  29.636  14.382
49476W        W21802  39.787  34.613  14.465
49477W        W21803  39.856   8.398  11.378
49478W        W21804   2.007  13.112   3.704
49479W        W21805  24.795  39.533   3.578
49480W        W21806   7.561  40.381   3.973
49481W        W21807  35.616  43.306  14.527
49482W        W21808  31.004  39.986   2.349
49483W        W21809  17.484  41.023   1.283
49484W        W21810  37.820  29.392  12.211
49485W        W21811  43.061   9.218  12.002
49486W        W21812  33.162   7.823   1.725
49487W        W21813  16.764  35.009  12.001
49488W        W21814   4.969  26.199  12.637
49489W        W21815  17.056  20.688   2.625
49490W        W21816  42.923   5.948  13.200
49491W        W21817  17.185  26.137   3.645
49492W        W21818  11.813  28.303   1.549
49493W        W21819  33.597  22.190  12.862
49494W        W21820  24.720  35.485   3.321
49495W        W21821  38.501  41.245  13.031
49496W        W21822  24.093  27.422   1.912
49497W        W21823   6.991   2.187  11.056
49498W        W21824  40.940  38.223   1.154
49499W        W21825  10.251  19.665  12.919
49500W        W21826  25.928  16.611   3.266
49501W        W21827  43.079  33.717  10.686
49502W        W21828  36.587  21.781   4.109
49503W        W21829  20.259   6.411  12.138
49504W        W21830   0.854  41.781  10.990
49505W        W21831   1.959  33.925   2.822
49506W        W21832  24.619  29.260   0.633
49507W        W21833  13.503  36.859  13.782
49508W        W21834   7.592  35.498   3.270
49509W        W21835  39.873   9.400  12.247
49510W        W21836  24.385  21.224  13.608
49511W        W21837  42.731  20.967  11.097
49512W        W21838   0.811  17.075   1.537
49513W        W21839  20.836  37.313   3.763
49514W        W21840  32.436   7.671   1.066
49515W        W21841  18.261  34.646  14.261
49516W        W21842  12.063  35.620   0.566
49517W        W21843  36.923  36.802   0.376
49518W        W21844  30.088  25.951  13.278
49519W        W21845  14.701  39.428  12.541
49520W        W21846  12.137  32.461  10.678
49521W        W21847   0.858  10.419  14.272
49522W        W21848  20.652  14.304  10.635
49523W        W21849  16.010  17.775  12.589
49524W        W21850  17.145  23.768  14.472
49525W        W21851  21.559  29.411   2.183
49526W        W21852  17.092   7.800  11.479
49527W        W21853  25.191   3.473  11.113
49528W        W21854   1.506  27.241  12.594
49529W        W21855  12.590  25.308  13.901
49530W        W21856  38.880  38.980  13.778
49531W        W21857  39.539  17.130   0.208
49532W        W21858  15.325  18.899  14.241
49533W        W21859  41.440   2.390   2.759
49534W        W21860  21.131  10.750   0.947
49535W        W21861  37.334  10.132   1.350
49536W        W21862  30.786  36.538  13.840
49537W        W21863  33.625  36.320   0.293
49538W        W21864  20.211  26.709   1.925
49539W        W21865  40.892  42.907   2.119
49540W        W21866  14.467  16.998  10.011
49541W        W21867  16.791  23.016  11.643
49542W        W21868   8.727  26.819  13.430
49543W        W21869  31.714  40.971   3.623
49544W        W21870  23.476  30.509   4.758
49545W        W21871  28.883  25.205   4.660
49546W        W21872  29.457  37.252  10.395
49547W        W21873  36.532  24.099  10.706
49548W        W21874  31.627  10.369   1.812
49549W        W21875  32.847  21.685   3.309
49550W        W21876  28.081   4.317  12.443
49551W        W21877  35.685  25.224   2.880
49552W        W21878  39.876  14.044  11.352
49553W        W21879  15.756   5.741  13.765
49554W        W21880  16.328  26.646   4.574
49555W        W21881  30.502  26.039  12.269
49556W        W21882  17.733  40.908   0.804
49557W        W21883   9.112  42.781   4.615
49558W        W21884  36.835  38.241  11.447
49559W        W21885  15.108  31.141   2.190
49560W        W21886  33.419  32.723  11.904
49561W        W21887  15.619  21.032   0.415
49562W        W21888  33.573  34.431  11.456
49563W        W21889  16.250  39.776   4.155
49564W        W21890  19.015  31.933   0.240
49565W        W21891  26.573  26.819   0.309
49566W        W21892  16.306  39.587   0.407
49567W        W21893   8.033  42.494  14.682
49568W        W21894  18.501   8.723   0.440
49569W        W21895  23.586  20.698   4.791
49570W        W21896  21.328  37.915   2.795
49571W        W21897  32.536  31.232   3.689
49572W        W21898  37.505   5.792   4.054
49573W        W21899  24.149  14.279  10.483
49574W        W21900  41.279  44.525   4.663
49575W        W21901  38.875  22.145   2.411
49576W        W21902  33.113  21.369  13.193
49577W        W21903   9.820   9.554   4.576
49578W        W21904  14.174  19.090   5.157
49579W        W21905  20.700  14.780  10.874
49580W        W21906   7.297  42.044   1.868
49581W        W21907   0.767  16.675   3.936
49582W        W21908  34.781  14.875   4.316
49583W        W21909  34.947   5.944  13.742
49584W        W21910  21.474  19.613   0.208
49585W        W21911  17.350  33.128   4.121
49586W        W21912  20.992   7.873   2.885
49587W        W21913  12.606  41.749   1.256
49588W        W21914  13.679  40.916   4.287
49589W        W21915  44.387   6.464   4.950
49590W        W21916   0.778  39.362   4.559
49591W        W21917   9.671  21.663  13.321
49592W        W21918  22.960   7.175   3.717
49593W        W21919   0.877   5.893  14.955
49594W        W21920   3.682   5.240   3.323
49595W        W21921  26.662  16.961   0.799
49596W        W21922  18.750  21.592   4.303
49597W        W21923  32.098  25.140   1.242
49598W        W21924  41.426  34.982   2.450
49599W        W21925  20.805  29.896   3.686
49600W        W21926  26.781  40.351   5.053
49601W        W21927  17.147  16.536  11.136
49602W        W21928  25.540   6.341   0.195
49603W        W21929  37.274  38.855   3.682
49604W        W21930  25.547  10.591  12.824
49605W        W21931  43.373   9.740  13.266
49606W        W21932   2.220  26.577   2.385
49607W        W21933   5.824  29.034  14.226
49608W        W21934   2.212   3.887   1.218
49609W        W21935  22.238  21.519  12.109
49610W        W21936  17.178  10.390  10.641
49611W        W21937  41.303  35.179   2.909
49612W        W21938   8.313  44.790  14.273
49613W        W21939  35.351   1.571  14.931
49614W        W21940  38.383  22.082   4.166
49615W        W21941   8.236  41.547   0.207
49616W        W21942  22.444  10.389   2.838
49617W        W21943  12.616  28.678  14.260
49618W        W21944  44.195  38.324   5.091
49619W        W21945   6.456  40.788   3.318
49620W        W21946  28.061  32.478   1.006
49621W        W21947  32.170  15.302   1.165
49622W        W21948  27.608  21.532  13.580
49623W        W21949  42.946  24.752   2.295
49624W        W21950  15.558  27.978  12.179
49625W        W21951   9.538   8.597   4.569
49626W        W21952  43.480  27.868  12.325
49627W        W21953  24.655  22.705   2.135
49628W        W21954  11.304  37.372  13.300
49629W        W21955  42.111  32.981   1.817
49630W        W21956  40.782  23.733   0.779
49631W        W21957  37.859   2.298   0.862
49632W        W21958  31.194  26.179   3.892
49633W        W21959   9.230  21.243  10.036
49634W        W21960  25.950  23.275  11.516
49635W        W21961   9.690  10.616   4.256
49636W        W21962  22.574  30.654  13.964
49637W        W21963  30.348  10.585  11.780
49638W        W21964  14.354  42.778  13.667
49639W        W21965  29.305   6.778  12.112
49640W        W21966   8.719  17.150   2.371
49641W        W21967  41.778  10.781   1.359
49642W        W21968  28.916   6.141   1.489
49643W        W21969  26.174  20.068  13.532
49644W        W21970  37.400   2.371  11.610
49645W        W21971  42.516  43.889   0.804
49646W        W21972   1.495  13.196   3.831
49647W        W21973  15.576  16.090  10.935
49648W        W21974  11.740  19.471  13.770
49649W        W21975  25.086  10.179  12.542
49650W        W21976  36.846   1.382   4.693
49651W        W21977  38.937   9.298   0.875
49652W        W21978  42.486   7.842  14.605
49653W        W21979  41.718  34.848  11.625
49654W        W21980  38.497   7.293   4.894
49655W        W21981  11.744   5.337  12.473
49656W        W21982  37.625  31.227  13.927
49657W        W21983  32.853  14.587  11.126
49658W        W21984   7.275  26.522   0.535
49659W        W21985   2.999   6.758   2.862
49660W        W21986  38.026  33.544   4.981
49661W        W21987  21.588  13.612  11.836
49662W        W21988  11.323  15.352  13.458
49663W        W21989  17.822   0.545  12.472
49664W        W21990  29.203  32.558   3.144
49665W        W21991  28.563  25.169  10.097
49666W        W21992  12.746  24.233   1.312
49667W        W21993  11.693  35.110   2.697
49668W        W21994   2.252  14.310  13.307
49669W        W21995  19.568   3.567  12.001
49670W        W21996  14.301  10.197   0.500
49671W        W21997  34.240   4.436  13.329
49672W        W21998  26.007  34.088   1.971
49673W        W21999  20.139  18.970   1.723
49674W        W22000  15.188  16.079   3.679
49675W        W22001   2.202  39.829   0.721
49676W        W22002  14.901   9.102   4.214
49677W        W22003  17.831   4.864  13.293
49678W        W22004   2.718   7.177   2.345
49679W        W22005  37.798  38.016  11.100
49680W        W22006  44.407  32.964   3.818
49681W        W22007  18.682  16.159   2.138
49682W        W22008  43.639  31.615  13.821
49683W        W22009  28.558  20.143   3.751
49684W        W22010  11.850   1.102  14.710
49685W        W22011  22.912   6.380  13.749
49686W        W22012  22.673  11.187   3.288
49687W        W22013  25.713   8.761  14.255
49688W        W22014  38.547  10.955   4.197
49689W        W22015  20.609  25.021  10.927
49690W        W22016  10.395  25.348   0.008
49691W        W22017  29.415  24.586   1.385
49692W        W22018   7.312  30.570  13.342
49693W        W22019  36.134  20.040  12.128
49694W        W22020   9.569   3.468   4.042
49695W        W22021  15.901  27.523  13.773
49696W        W22022   9.922  30.101  11.602
49697W        W22023  44.900  26.242  13.854
49698W        W22024  29.662  22.479   0.882
49699W        W22025  43.849  17.995   0.710
49700W        W22026  25.681   7.784   2.351
49701W        W22027   5.268  31.624  11.542
49702W        W22028  32.573  35.325   4.648
49703W        W22029  26.113  14.481  13.442
49704W        W22030  35.909  42.819  12.620
49705W        W22031   9.142   4.781  11.081
49706W        W22032   8.113  24.951   0.420
49707W        W22033  10.740  35.121  13.403
49708W        W22034  16.052  28.010   2.933
49709W        W22035  38.009  12.502   5.442
49710W        W22036   3.322  12.043   5.029
49711W        W22037  16.655  32.364   1.292
49712W        W22038   5.521  17.228  12.489
49713W        W22039  42.455  18.672  11.208
49714W        W22040  20.514  26.832   3.194
49715W        W22041  25.141  18.703   4.615
49716W        W22042  28.160  17.638   4.531
49717W        W22043  42.515   3.871   3.755
49718W        W22044  43.427  22.722   1.844
49719W        W22045  27.671  20.637  13.348
49720W        W22046  43.752   4.211  11.537
49721W        W22047  12.644   4.732  14.476
49722W        W22048  26.573   3.388  11.473
49723W        W22049  23.970  14.831   1.434
49724W        W22050  12.207   5.677  14.435
49725W        W22051  11.827  41.466  13.349
49726W        W22052  10.778  42.953   0.837
49727W        W22053  32.330  10.967  13.516
49728W        W22054  23.569   4.434   3.892
49729W        W22055  15.493  40.329   1.782
49730W        W22056  42.356  44.581  13.036
49731W        W22057  27.470   8.971  10.686
49732W        W22058  32.527  15.059   2.648
49733W        W22059  11.473  14.443   0.438
49734W        W22060  44.870  44.823   2.312
49735W        W22061  22.642  12.773   4.939
49736W        W22062  11.015  31.438  13.276
49737W        W22063  13.164   9.692   0.956
49738W        W22064  29.032  44.393   0.532
49739W        W22065  44.458  34.564  11.593
49740W        W22066  35.747  19.502   0.754
49741W        W22067  42.819   2.115  11.609
49742W        W22068  27.793  36.771   0.011
49743W        W22069  19.307  20.534   4.556
49744W        W22070  28.407  28.792   0.127
49745W        W22071  21.203  13.378   0.270
49746W        W22072   9.350   0.379   4.589
49747W        W22073  22.866   7.786   0.259
49748W        W22074  29.279  34.585   4.614
49749W        W22075  16.163   0.867   1.349
49750W        W22076  26.492  30.577  11.602
49751W        W22077  28.119  43.031   0.489
49752W        W22078  43.521   1.208  13.918
49753W        W22079  43.193  20.094   2.795
49754W        W22080   2.906  12.657  11.503
49755W        W22081  12.653  32.199  14.974
49756W        W22082  17.672  30.651   0.854
49757W        W22083  19.664   5.859  10.047
49758W        W22084  42.994  41.957  12.464
49759W        W22085   2.483   2.650  12.301
49760W        W22086  18.002  18.736   3.457
49761W        W22087  29.993  27.577   4.574
49762W        W22088  16.616  12.670  14.623
49763W        W22089   8.889  14.532  11.089
49764W        W22090   3.775  11.673   4.191
49765W        W22091  38.826  17.242   3.285
49766W        W22092  28.903  13.151   4.557
49767W        W22093  40.559   8.390   2.782
49768W        W22094  27.025  40.572  10.688
49769W        W22095  37.024  20.767  12.935
49770W        W22096  40.537  27.115   3.635
49771W        W22097  41.274   8.279   3.819
49772W        W22098   1.323  12.835  13.974
49773W        W22099  34.134  21.252   3.656
49774W        W22100  26.510  37.649  10.507
49775W        W22101  40.779   0.305   5.050
49776W        W22102   5.222  27.708  10.720
49777W        W22103   8.741   6.448   4.096
49778W        W22104  31.446  41.776  12.166
49779W        W22105  14.632  34.688   1.932
49780W        W22106  29.681  17.720   3.332
49781W        W22107  35.575  34.942  12.063
49782W        W22108   4.749  35.455   4.460
49783W        W22109  11.816  15.568  11.065
49784W        W22110  41.408  36.580  13.119
49785W        W22111   1.247   8.121   0.337
49786W        W22112   8.130   6.759  13.024
49787W        W22113   4.168   0.768  12.775
49788W        W22114  44.199  24.726   2.327
49789W        W22115  21.924  10.836   3.178
49790W        W22116  29.909  43.013   3.560
49791W        W22117   2.887   4.271   4.417
49792W        W22118  13.702  35.091   0.865
49793W        W22119   0.211  39.518  14.785
49794W        W22120  32.700  33.018  12.012
49795W        W22121   8.384  10.358  10.525
49796W        W22122  13.170  21.484   3.588
49797W        W22123  37.401  14.913   2.882
49798W        W22124  14.000  30.279  10.647
49799W        W22125  12.861  25.176  11.661
49800W        W22126  24.015  34.957  12.384
49801W        W22127  34.509  26.441   1.477
49802W        W22128  40.865  22.034  14.427
49803W        W22129  29.204  17.207  14.906
49804W        W22130  18.244   9.143   1.517
49805W        W22131  11.349  36.582   4.255
49806W        W22132  14.625  24.590   1.173
49807W        W22133  11.872   9.866  13.587
49808W        W22134   1.578   4.035   5.588
49809W        W22135  15.652  12.232   2.817
49810W        W22136  22.203   5.324   0.379
49811W        W22137  24.604  33.611  13.995
49812W        W22138  10.447  19.180   2.350
49813W        W22139  43.941  18.087   3.650
49814W        W22140   2.063  44.492  10.256
49815W        W22141  37.474  39.835  14.981
49816W        W22142  22.979  25.230   2.161
49817W        W22143  27.570   2.258  12.900
49818W        W22144   0.017  37.830   0.294
49819W        W22145  43.356  12.929  12.590
49820W        W22146   0.375  19.653   3.435
49821W        W22147  13.393  39.800   1.311
49822W        W22148   9.217  18.955  11.685
49823W        W22149  16.097  25.727   0.464
49824W        W22150  32.961  14.572  13.960
49825W        W22151  42.736   8.112  10.689
49826W        W22152  21.619  23.611   0.517
49827W        W22153   5.834  24.859  13.990
49828W        W22154  22.258  33.907  12.947
49829W        W22155  32.967  33.433   2.328
49830W        W22156  19.529   7.704   0.512
49831W        W22157  42.373  35.632  13.825
49832W        W22158  32.404   0.550  10.995
49833W        W22159  24.511  44.869   2.597
49834W        W22160  28.031   3.787   3.288
49835W        W22161  19.102   1.333  12.853
49836W        W22162  17.795  18.182   1.483
49837W        W22163  38.037  13.061  10.642
49838W        W22164  27.579  25.157   4.195
49839W        W22165  31.600  13.722  13.799
49840W        W22166  21.339   5.930   3.180
49841W        W22167  36.777  17.181  13.327
49842W        W22168   7.914  13.440   0.881
49843W        W22169  21.098  37.188   0.541
49844W        W22170   8.120   2.441   4.445
49845W        W22171  26.985  13.734   2.159
49846W        W22172  15.619  31.802  14.875
49847W        W22173  31.387  29.568   3.172
49848W        W22174  22.574  17.499  14.395
49849W        W22175   1.806  30.684  14.770
49850W        W22176   8.257  39.495   0.673
49851W        W22177   2.673  41.032  12.659
49852W        W22178  28.619  25.186  11.377
49853W        W22179  32.885   6.447  13.094
49854W        W22180  22.746  30.800   1.796
49855W        W22181  21.768  19.601   4.804
49856W        W22182  43.362  37.717   2.838
49857W        W22183  11.976   6.673  12.091
49858W        W22184  43.844   0.969   1.289
49859W        W22185   6.567  41.322   1.568
49860W        W22186   9.554  16.359  11.026
49861W        W22187  40.366  39.069  13.009
49862W        W22188  24.104  38.055   2.858
49863W        W22189  44.834  34.170   3.345
49864W        W22190  20.783  37.272  11.148
49865W        W22191  36.593  30.926  10.756
49866W        W22192  36.326  33.896   3.683
49867W        W22193  18.634  29.143   4.610
49868W        W22194  43.998  18.993   0.811
49869W        W22195   4.171  28.374  11.715
49870W        W22196  21.215  18.271   1.297
49871W        W22197   8.809  15.592   1.644
49872W        W22198  39.690  35.978  11.161
49873W        W22199  30.094  36.384   4.336
49874W        W22200  16.277  27.008   3.149
49875W        W22201  40.760  25.899   1.331
49876W        W22202  11.900  38.918   1.185
49877W        W22203  42.946  38.373   3.199
49878W        W22204  33.749   7.703  11.081
49879W        W22205  39.748   1.511  11.065
49880W        W22206  30.001  34.356   0.762
49881W        W22207  17.182  19.169  12.172
49882W        W22208  10.403  10.764  11.110
49883W        W22209  37.322  12.215  13.500
49884W        W22210  34.781  21.752   2.265
49885W        W22211   8.794  40.235   4.681
49886W        W22212   5.002  41.593   4.153
49887W        W22213  33.936  44.813   4.587
49888W        W22214   4.234   7.201  11.175
49889W        W22215  20.946   8.657  10.888
49890W        W22216  32.121  40.453   4.371
49891W        W22217  37.120  36.881   2.385
49892W        W22218  11.361  33.886   4.156
49893W        W22219  25.983  35.634  10.655
49894W        W22220  36.533  14.675  13.749
49895W        W22221  18.824   6.765   1.177
49896W        W22222   6.897  37.397   3.188
49897W        W22223  18.806  25.668  10.937
49898W        W22224  11.616  25.666  14.288
49899W        W22225   4.214  16.969   3.226
49900W        W22226  44.351  19.810   5.027
49901W        W22227   8.497  39.617  13.360
49902W        W22228  20.810  40.544  10.476
49903W        W22229  16.672   4.231  13.488
49904W        W22230   9.919  40.813   1.328
49905W        W22231  24.876  29.649  11.147
49906W        W22232  24.493  23.103  14.950
49907W        W22233  30.394   3.680  14.835
49908W        W22234  30.497  17.285   1.195
49909W        W22235  20.134   1.700   0.782
49910W        W22236  43.194   8.801  13.986
49911W        W22237  17.543  43.910   3.183
49912W        W22238   5.338  25.700   1.599
49913W        W22239  18.525  31.089   0.308
49914W        W22240  25.653  28.477   1.890
49915W        W22241  35.802  29.970   3.323
49916W        W22242  21.295  38.326  12.011
49917W        W22243  39.350  33.835  11.158
49918W        W22244  33.340  42.027  12.982
49919W        W22245  22.680   4.270  12.517
49920W        W22246  27.611  28.464  12.336
49921W        W22247   6.410  38.960   3.656
49922W        W22248  31.397  36.951  11.417
49923W        W22249  26.454  33.142   1.344
49924W        W22250  39.057   6.474  10.531
49925W        W22251  39.145  36.343   2.271
49926W        W22252   4.403  28.244  12.997
49927W        W22253  13.221   6.830   2.625
49928W        W22254  15.181   2.845   4.477
49929W        W22255   9.661   2.971   1.763
49930W        W22256  11.932  32.619   3.004
49931W        W22257   9.587  10.104   0.743
49932W        W22258  39.552  31.664   2.381
49933W        W22259  15.094  30.180  14.550
49934W        W22260   6.818  24.771   0.883
49935W        W22261  33.413  28.551   1.395
49936W        W22262  20.228  23.245   4.661
49937W        W22263  12.035  17.143  13.360
49938W        W22264  33.168  20.572   1.893
49939W        W22265  31.622  12.094   4.311
49940W        W22266  26.674  44.603  14.924
49941W        W22267  14.041  34.547  13.407
49942W        W22268  26.365  29.444  10.417
49943W        W22269  19.950  22.540   4.632
49944W        W22270  13.778  38.326   1.372
49945W        W22271  41.826   9.500   4.589
49946W        W22272  22.647  12.817   1.187
49947W        W22273   2.279  42.794   0.254
49948W        W22274  18.300  10.326  12.326
49949W        W22275   0.915  14.342   0.924
49950W        W22276  33.400   0.796  13.452
49951W        W22277  35.403  16.182  13.804
49952W        W22278  24.592  34.626   3.627
49953W        W22279  31.747   5.457   0.314
49954W        W22280  11.389  29.014  14.315
49955W        W22281  10.596  30.453  12.451
49956W        W22282  41.003  35.677   1.535
49957W        W22283  31.033  24.735   4.426
49958W        W22284  30.982  30.653   2.841
49959W        W22285  37.428  17.751  14.439
49960W        W22286   4.018   3.892   2.433
49961W        W22287  41.248  37.502   1.570
49962W        W22288  14.769  17.560   3.310
49963W        W22289  34.376  16.084   1.903
49964W        W22290  22.657  26.409  13.097
49965W        W22291  18.809   7.694  10.990
49966W        W22292  23.858  27.550   4.157
49967W        W22293   4.986   1.028   5.163
49968W        W22294  19.652  30.950  14.091
49969W        W22295  10.696  41.698   3.739
49970W        W22296  44.890  32.939  10.519
49971W        W22297  25.194  26.013   2.757
49972W        W22298  26.652  21.701  13.948
49973W        W22299  17.688  16.061   3.555
49974W        W22300  12.929  31.647  14.354
49975W        W22301  34.507  16.603   1.888
49976W        W22302  37.164  32.960   0.937
49977W        W22303   2.248   6.303   3.726
49978W        W22304  25.073  42.097  12.440
49979W        W22305  33.412  19.558  14.952
49980W        W22306  22.622  16.060   4.753
49981W        W22307  19.322  17.386  10.654
49982W        W22308  17.033  11.627  13.328
49983W        W22309  29.247  37.335  13.919
49984W        W22310   1.659  26.054  12.072
49985W        W22311  28.261   2.878   3.173
49986W        W22312  36.330  30.044  13.011
49987W        W22313  28.695  24.673  13.330
49988W        W22314   3.224   9.308   0.185
49989W        W22315  33.843  31.430  11.922
49990W        W22316  30.648   1.113  12.016
49991W        W22317  10.100  26.513  11.090
49992W        W22318   9.787  30.740  13.438
49993W        W22319  38.537  25.762   2.818
49994W        W22320  16.592   9.369   0.466
49995W        W22321  36.050  34.174  10.103
49996W        W22322  17.335  39.380   1.381
49997W        W22323  23.232  29.983  11.553
49998W        W22324  39.237  12.251  11.217
49999W        W22325  33.424  40.575   2.229
50000W        W22326   3.909   9.752   9.789
50001W        W22327  34.367  42.215  12.111
50002W        W22328  40.551  37.657  13.966
50003W        W22329  36.261   2.136   0.219
50004W        W22330  21.716  43.799  13.449
50005W        W22331  44.783   0.169  14.060
50006W        W22332  14.155  16.990   0.854
50007W        W22333  32.613  29.231  12.020
50008W        W22334  34.875  18.617   4.482
50009W        W22335  40.381   2.977  13.360
50010W        W22336  42.884   6.216   1.422
50011W        W22337  41.779  17.119  13.820
50012W        W22338  23.241  23.022  12.927
50013W        W22339  36.018  40.510  13.573
50014W        W22340  41.809   7.965   3.132
50015W        W22341  25.861  29.734  14.954
50016W        W22342   6.735  15.672  10.967
50017W        W22343  39.838  34.873   3.156
50018W        W22344  37.540  12.064  11.325
50019W        W22345  40.703   8.437  11.439
50020W        W22346  41.502  34.594  13.716
50021W        W22347  21.204  23.671  13.337
50022W        W22348  11.358  24.199   3.289
50023W        W22349  12.763  30.099  13.314
50024W        W22350  11.335  29.635   2.823
50025W        W22351  30.567  12.112  11.807
50026W        W22352   4.946  10.381  12.072
50027W        W22353  18.206  35.118  11.833
50028W        W22354  15.854   6.857  12.210
50029W        W22355  23.673  39.309  10.890
50030W        W22356  36.068   9.434   1.819
50031W        W22357  40.995  26.293  13.959
50032W        W22358  21.098  20.570  12.073
50033W        W22359  10.609  27.920  10.728
50034W        W22360  40.153  43.090   0.854
50035W        W22361  17.528  24.577   2.214
50036W        W22362   9.171  12.717  14.778
50037W        W22363  11.759  19.079   2.693
50038W        W22364  17.611  23.877  13.565
50039W        W22365  30.796  33.476  11.994
50040W        W22366  21.643   8.232  10.743
50041W        W22367   7.803   0.690  13.124
50042W        W22368  30.239  13.194  13.819
50043W        W22369  24.969  37.316  12.947
50044W        W22370  34.505  33.391   5.470
50045W        W22371  25.264  12.887  13.942
50046W        W22372  42.742  16.710  12.560
50047W        W22373  20.610   9.145  14.418
50048W        W22374   1.071  34.006   4.576
50049W        W22375   6.190   2.450  12.316
50050W        W22376  43.486   0.272   4.131
50051W        W22377  25.922  29.446   0.378
50052W        W22378  24.508   7.408   1.432
50053W        W22379  27.318  20.032  11.142
50054W        W22380  29.033  42.315  13.258
50055W        W22381  19.659  16.358   1.661
50056W        W22382  21.843  11.259  11.119
50057W        W22383  29.077  42.581   0.286
50058W        W22384  37.445  43.957  11.474
50059W        W22385  16.502  14.339  13.132
50060W        W22386  20.820   6.430  10.686
50061W        W22387  12.261  17.718   3.123
50062W        W22388  31.082  10.316  13.843
50063W        W22389  18.247  41.021  10.982
50064W        W22390  37.966   6.848   3.955
50065W        W22391  34.530  14.381  11.996
50066W        W22392  21.145  40.131  10.468
50067W        W22393   8.730  12.052   4.032
50068W        W22394   1.809  11.391  13.550
50069W        W22395   0.574  42.599   0.884
50070W        W22396  24.608  24.441   4.127
50071W        W22397   6.696  27.977  10.679
50072W        W22398  39.578  27.444  14.547
50073W        W22399  23.610  11.290  10.771
50074W        W22400  17.285  40.955   2.693
50075W        W22401  12.152   8.129   4.171
50076W        W22402  20.215  41.703  10.118
50077W        W22403  16.079  28.611  14.465
50078W        W22404  25.628  10.780  10.530
50079W        W22405  18.063  20.119   0.910
50080W        W22406  39.951  42.883   3.184
50081W        W22407   8.530  25.584   4.209
50082W        W22408  35.243  16.008   3.729
50083W        W22409   9.344  20.507  14.335
50084W        W22410  26.939   0.478   4.053
50085W        W22411   4.918  11.721  13.439
50086W        W22412   2.876   9.286   4.307
50087W        W22413  15.294   9.118   0.358
50088W        W22414  23.032   2.611  14.181
50089W        W22415  19.687  15.047  11.379
50090W        W22416  11.804  18.623   0.225
50091W        W22417  16.362  29.582   0.277
50092W        W22418   4.187  38.350  12.680
50093W        W22419  11.110  34.566   2.315
50094W        W22420  26.565  37.570   2.207
50095W        W22421  44.449  13.191   0.911
50096W        W22422  24.987  40.972  11.043
50097W        W22423  21.760  30.061  10.677
50098W        W22424   0.960  24.161  13.959
50099W        W22425  14.893  23.077   2.806
50100W        W22426  22.570  26.093  11.165
50101W        W22427   2.355   8.130  13.432
50102W        W22428   4.263   1.453   1.570
50103W        W22429   5.380  10.002   2.064
50104W        W22430  43.399  17.497  11.538
50105W        W22431  33.179  12.684  11.101
50106W        W22432  13.321  37.305  11.624
50107W        W22433  24.099  26.200  11.072
50108W        W22434  29.519  19.294   2.287
50109W        W22435  32.823  19.821  11.138
50110W        W22436  13.769  41.331  14.486
50111W        W22437  44.754  39.368  14.953
50112W        W22438  31.517  39.577  11.581
50113W        W22439   1.800  23.598  11.563
50114W        W22440  34.372  30.053   2.157
50115W        W22441  21.474  22.604  12.758
50116W        W22442  15.933  13.052  10.874
50117W        W22443  14.157  13.531  14.964
50118W        W22444  15.269  22.194  14.481
50119W        W22445  36.350  34.485   2.197
50120W        W22446  16.177  34.464  10.706
50121W        W22447  24.186  32.929   4.341
50122W        W22448  43.937  41.366   1.861
50123W        W22449  36.514  40.795   2.142
50124W        W22450  10.231   7.960   2.869
50125W        W22451  41.844   8.442   4.426
50126W        W22452  42.932  39.511  14.918
50127W        W22453   3.024   2.953   1.185
50128W        W22454  26.219  33.968  12.506
50129W        W22455  19.593  23.722  14.767
50130W        W22456  16.382  37.962  12.152
50131W        W22457  42.235  39.197  14.265
50132W        W22458  27.344  30.919  13.486
50133W        W22459  23.950  38.849  14.752
50134W        W22460  42.478  24.140   2.735
50135W        W22461  40.446  12.001  11.947
50136W        W22462  23.037   0.620   3.646
50137W        W22463  40.603  28.477   4.290
50138W        W22464  20.408  38.372   2.698
50139W        W22465  33.929  11.597  13.683
50140W        W22466  11.360   7.026   2.653
50141W        W22467  34.585  35.552   4.878
50142W        W22468  35.886  31.322   3.442
50143W        W22469  40.273  33.028   4.451
50144W        W22470  43.040  30.833   1.449
50145W        W22471  39.521  30.989   2.640
50146W        W22472   9.802  28.980  12.047
50147W        W22473  32.226  36.988  11.628
50148W        W22474   5.358  30.657  11.558
50149W        W22475  15.591  44.302   0.359
50150W        W22476  39.827  23.008  11.452
50151W        W22477  27.100  31.919  14.333
50152W        W22478  12.759  39.559  11.393
50153W        W22479  39.346   4.786   4.064
50154W        W22480  41.939  30.650  10.862
50155W        W22481   4.204  12.132  11.439
50156W        W22482  43.464   4.231   4.721
50157W        W22483   9.292  32.048   1.223
50158W        W22484  12.204   2.293  14.476
50159W        W22485  15.458   1.245  10.892
50160W        W22486   9.754  14.091   0.378
50161W        W22487  12.877  37.571  13.306
50162W        W22488  31.758  18.364  12.506
50163W        W22489  41.236  28.787   1.461
50164W        W22490  43.625  42.744   0.979
50165W        W22491  12.370  26.555  12.808
50166W        W22492   8.749   8.115  11.574
50167W        W22493  36.316  20.736   2.676
50168W        W22494  14.998  22.943   4.187
50169W        W22495  30.129  15.636   0.404
50170W        W22496  14.641  29.777   2.778
50171W        W22497  31.056  44.928  12.879
50172W        W22498  40.742  29.634  14.837
50173W        W22499   7.213  40.515   4.863
50174W        W22500  31.337   4.876   0.907
50175W        W22501  43.537  24.132  14.538
50176W        W22502  12.470   6.146   2.792
50177W        W22503  14.609  31.403   0.827
50178W        W22504  44.542  31.422  11.576
50179W        W22505  26.204   5.279  14.523
50180W        W22506   8.838   2.758   0.386
50181W        W22507  22.509  22.114  14.259
50182W        W22508   7.287   7.742   0.938
50183W        W22509   4.305  33.180  12.138
50184W        W22510   1.933  36.401   3.306
50185W        W22511   4.771  17.503   2.644
50186W        W22512   3.766  27.949  10.657
50187W        W22513  24.390   6.446   5.152
50188W        W22514  16.260  33.096   0.034
50189W        W22515  23.566  18.909  14.921
50190W        W22516   0.848  31.085   1.409
50191W        W22517   1.951  19.670   3.524
50192W        W22518   3.274  31.656   4.804
50193W        W22519  26.745  38.301  11.935
50194W        W22520  33.797  23.372  10.897
50195W        W22521  22.706  21.779  12.927
50196W        W22522  23.479  25.482   2.214
50197W        W22523  33.478  26.154   3.768
50198W        W22524  32.493  30.919   2.208
50199W        W22525  29.593  27.492   0.862
50200W        W22526  30.187  31.191   0.137
50201W        W22527  15.548  32.825   0.775
50202W        W22528  16.687   8.606  10.545
50203W        W22529  23.990   3.161  11.678
50204W        W22530  11.817  25.797  10.538
50205W        W22531  18.695  21.518   0.715
50206W        W22532  39.545  30.598   4.583
50207W        W22533   4.563  10.688  11.896
50208W        W22534  22.631  24.661   4.980
50209W        W22535  22.795   7.498  11.221
50210W        W22536   6.745  33.023   1.299
50211W        W22537   1.514   2.338  12.351
50212W        W22538  21.665  41.229   2.792
50213W        W22539   9.725  11.869  14.056
50214W        W22540  35.376  44.257   1.173
50215W        W22541  29.534  18.831   4.496
50216W        W22542  17.804  22.978   2.296
50217W        W22543  21.519  21.131   3.180
50218W        W22544  21.583  29.716   1.750
50219W        W22545  26.044  11.733   4.054
50220W        W22546  23.988   7.748  13.915
50221W        W22547  42.019  29.395   0.369
50222W        W22548  28.519  40.245  13.527
50223W        W22549   8.575  37.033   1.203
50224W        W22550  27.627  17.522  12.070
50225W        W22551  18.361   0.571   4.315
50226W        W22552  21.035  11.141  10.722
50227W        W22553  17.743  14.777  13.032
50228W        W22554   7.104  21.923  14.717
50229W        W22555  16.332   7.281   0.945
50230W        W22556  11.133   2.540   4.810
50231W        W22557   4.187  17.316   0.946
50232W        W22558  30.482   9.873  13.455
50233W        W22559  41.102  36.979  12.486
50234W        W22560   3.447  24.463   4.313
50235W        W22561  35.958  41.541   1.161
50236W        W22562   6.288   0.471  14.333
50237W        W22563  39.014  44.155  12.082
50238W        W22564  14.523  20.835   0.980
50239W        W22565  37.933  21.199  13.394
50240W        W22566  37.890  26.550  12.454
50241W        W22567  18.778   8.760   5.024
50242W        W22568   3.241   3.520   0.373
50243W        W22569  26.856  38.914   0.460
50244W        W22570  39.278  13.390   4.815
50245W        W22571   1.718  38.422  12.479
50246W        W22572  12.181  29.211  13.927
50247W        W22573   0.799  13.804   0.909
50248W        W22574  19.165  32.489  11.195
50249W        W22575  20.685  33.418   3.218
50250W        W22576  27.531   4.264  13.371
50251W        W22577   3.161  41.737  11.588
50252W        W22578   5.398  21.189  11.149
50253W        W22579  37.901   5.957  11.169
50254W        W22580  39.796   2.372   1.884
50255W        W22581  15.637  27.824   4.093
50256W        W22582  22.271   9.661   4.364
50257W        W22583  39.311  31.596   0.856
50258W        W22584  26.181  34.602   1.654
50259W        W22585  43.795   5.420   1.729
50260W        W22586  11.245  42.446   3.638
50261W        W22587  16.089  32.802   4.270
50262W        W22588  40.072  16.001  13.943
50263W        W22589  10.349   9.405   1.324
50264W        W22590   6.842  41.757   1.868
50265W        W22591   4.938  42.037  13.889
50266W        W22592  29.945  25.711  11.080
50267W        W22593  38.487  23.721   1.258
50268W        W22594  16.198   8.156  12.400
50269W        W22595  43.397   0.689  10.780
50270W        W22596  21.945  26.530  14.427
50271W        W22597  29.016   6.696   3.256
50272W        W22598  42.793   9.963  14.599
50273W        W22599  11.283   7.379  14.418
50274W        W22600  34.600  36.483  10.005
50275W        W22601  22.778   6.768   3.250
50276W        W22602  24.561  29.141  12.850
50277W        W22603  14.097  34.457  14.905
50278W        W22604  21.769   5.972  14.079
50279W        W22605  19.527  13.655  11.520
50280W        W22606   7.511  18.111   1.146
50281W        W22607  25.142  28.528   2.132
50282W        W22608  26.714  28.112  10.210
50283W        W22609  44.893   3.441  14.971
50284W        W22610  27.160  26.498   4.977
50285W        W22611  32.480  29.740  11.988
50286W        W22612  35.451  19.514  11.187
50287W        W22613  40.890   7.681  11.156
50288W        W22614   4.437  24.830   0.305
50289W        W22615  12.034  31.582   1.723
50290W        W22616  26.647   8.203  13.343
50291W        W22617  20.230  30.597   2.263
50292W        W22618  24.098  17.238  14.404
50293W        W22619  14.219   3.203   4.648
50294W        W22620  33.423  22.165  13.337
50295W        W22621  14.868  26.379  10.043
50296W        W22622  42.966  21.582  12.860
50297W        W22623   4.885  32.445   3.751
50298W        W22624  12.583  21.497   1.900
50299W        W22625  28.524  11.661   0.079
50300W        W22626   5.309  22.670  11.841
50301W        W22627  12.560  22.959  13.895
50302W        W22628  43.828  25.171  10.706
50303W        W22629  42.521   3.454   0.449
50304W        W22630  31.496  35.571   0.306
50305W        W22631   7.358  35.847  11.048
50306W        W22632  13.896   8.100  11.787
50307W        W22633  44.058  33.673  14.082
50308W        W22634  19.563   2.867   4.687
50309W        W22635  19.493   2.998  11.086
50310W        W22636  12.018  24.787  10.707
50311W        W22637   3.934  17.580  13.837
50312W        W22638  41.089   1.357  14.087
50313W        W22639   4.268  15.529   1.365
50314W        W22640   8.271  21.123   0.062
50315W        W22641  44.218  10.320   2.352
50316W        W22642  37.315  34.404   9.934
50317W        W22643  20.157  12.717   0.826
50318W        W22644   0.387   1.766  13.295
50319W        W22645  39.201  31.370  12.429
50320W        W22646   0.868  23.648  14.064
50321W        W22647  31.002  36.255   3.737
50322W        W22648  23.745  29.571  11.018
50323W        W22649  44.875  36.059   0.747
50324W        W22650  24.660  27.513  10.693
50325W        W22651  13.886  27.143  14.329
50326W        W22652  22.657  19.310   4.208
50327W        W22653  39.203  41.182   3.750
50328W        W22654  23.496  32.898   3.660
50329W        W22655  21.645  12.681  11.508
50330W        W22656  28.558  24.987   1.130
50331W        W22657  28.525  32.422   1.239
50332W        W22658   3.279  21.013   4.621
50333W        W22659   2.856   7.338  13.437
50334W        W22660  42.295  44.366   4.577
50335W        W22661  17.150  38.562  12.812
50336W        W22662  28.021  17.554   5.019
50337W        W22663  35.901  23.594   4.581
50338W        W22664   1.963  31.839   1.590
50339W        W22665  39.920  37.681   0.740
50340W        W22666  30.021  32.137   3.330
50341W        W22667  32.173   2.815   2.708
50342W        W22668   7.021  21.620   3.139
50343W        W22669  25.131  33.086   3.232
50344W        W22670   4.569  24.433  11.140
50345W        W22671  11.301  24.005  14.764
50346W        W22672  43.271   8.147   2.389
50347W        W22673   6.195  23.295  12.609
50348W        W22674  44.361  35.898  11.198
50349W        W22675  10.249  42.510   1.974
50350W        W22676  21.685  43.427   1.930
50351W        W22677  39.824  26.508   1.635
50352W        W22678  29.014  28.209   5.068
50353W        W22679  20.647  39.980  12.122
50354W        W22680  29.912  10.119   5.059
50355W        W22681   0.758  37.247  13.596
50356W        W22682  24.597   4.108  12.560
50357W        W22683   4.622  31.305   2.886
50358W        W22684  15.856  43.641  11.442
50359W        W22685  39.333   7.898   4.600
50360W        W22686  27.048  10.760  11.873
50361W        W22687   5.946  19.566  11.431
50362W        W22688  42.382  16.651  13.405
50363W        W22689  13.007   2.713   4.577
50364W        W22690  44.487  33.471  12.007
50365W        W22691  13.603  16.732  12.464
50366W        W22692  29.178  12.305   3.570
50367W        W22693   7.876  16.036   1.884
50368W        W22694  21.474   3.770  12.554
50369W        W22695  43.540  26.197  11.424
50370W        W22696  40.015   6.460   3.671
50371W        W22697   5.654   2.475  12.890
50372W        W22698  32.125  20.184   2.482
50373W        W22699  28.228  27.842  14.903
50374W        W22700  11.787  20.261  12.362
50375W        W22701  27.198  28.565  10.597
50376W        W22702  33.076  33.115   0.022
50377W        W22703  42.496  20.100  12.604
50378W        W22704  40.087   5.455   0.009
50379W        W22705  35.451   7.169   2.258
50380W        W22706  27.903  39.771  14.478
50381W        W22707  39.117   5.281   2.385
50382W        W22708   3.383  41.152  12.778
50383W        W22709  33.634  18.975  10.797
50384W        W22710  20.312  15.320   3.621
50385W        W22711  24.040  42.520   3.599
50386W        W22712  40.322  16.543  11.847
50387W        W22713  40.295   6.559   3.262
50388W        W22714   9.664  43.017   3.266
50389W        W22715   3.787  27.661   3.169
50390W        W22716  44.882  24.755  11.599
50391W        W22717  13.142  28.155   0.391
50392W        W22718  41.290  31.457  10.683
50393W        W22719  36.326  43.752  11.970
50394W        W22720  16.162  24.291   5.080
50395W        W22721  13.718  16.190  10.604
50396W        W22722  36.251  44.432   5.167
50397W        W22723   1.917   0.746   3.873
50398W        W22724  22.694  34.112   4.688
50399W        W22725  16.471  34.988   1.629
50400W        W22726   3.778  22.568  10.226
50401W        W22727  15.663  24.163   0.823
50402W        W22728  32.446  25.546  13.513
50403W        W22729  42.998  27.994  11.163
50404W        W22730  36.933   3.860  13.484
50405W        W22731  13.659  29.930   1.813
50406W        W22732  20.715  39.728   3.102
50407W        W22733  38.472  18.733  10.976
50408W        W22734   4.068  37.686  10.357
50409W        W22735   6.362   7.030  11.446
50410W        W22736  32.070   5.448   3.124
50411W        W22737  13.549  23.290   4.372
50412W        W22738  31.035  15.954  14.545
50413W        W22739  39.514   4.743   3.108
50414W        W22740  27.402   3.933  13.795
50415W        W22741  30.301  31.602  12.924
50416W        W22742  39.112  37.109   3.645
50417W        W22743  36.571  19.034   3.343
50418W        W22744  24.272   6.246   3.617
50419W        W22745  10.170  16.772  11.371
50420W        W22746  31.070  28.410   2.883
50421W        W22747  11.769   5.808  14.756
50422W        W22748   9.815  16.354   0.829
50423W        W22749   4.167   4.226   4.162
50424W        W22750  34.972   8.188  14.978
50425W        W22751  13.296  34.478  12.060
50426W        W22752  32.484  10.320   3.622
50427W        W22753  44.221  44.802  14.882
50428W        W22754   0.072  42.944  11.395
50429W        W22755  42.695  34.394   3.852
50430W        W22756   6.292  23.694  11.476
50431W        W22757  18.295  37.886   2.305
50432W        W22758  19.553   7.788  14.440
50433W        W22759  14.508  19.017   1.808
50434W        W22760  37.806  14.717  11.082
50435W        W22761  10.141  38.539   0.569
50436W        W22762  14.663  33.003   1.651
50437W        W22763   6.119  44.040   2.563
50438W        W22764  29.471   6.633   1.107
50439W        W22765   4.715   0.457   1.773
50440W        W22766   7.889  13.205  14.970
50441W        W22767   9.401   8.482   1.857
50442W        W22768  18.736   2.784  12.854
50443W        W22769  22.204  12.630  14.832
50444W        W22770   2.903  15.014   1.746
50445W        W22771  11.422  19.130  10.450
50446W        W22772  20.982  21.457  14.391
50447W        W22773  15.078   4.790   4.100
50448W        W22774  21.156   3.552   0.906
50449W        W22775  36.066  12.907  10.206
50450W        W22776   0.907  31.111  13.882
50451W        W22777  30.129  44.497  13.517
50452W        W22778  10.428  13.128  12.591
50453W        W22779  12.125  35.149   1.828
50454W        W22780  34.344   6.645  14.322
50455W        W22781   4.903  18.085  11.107
50456W        W22782  23.806  32.702   4.585
50457W        W22783   5.425  37.530  10.686
50458W        W22784  34.998  15.126  13.627
50459W        W22785  11.692   9.609  12.150
50460W        W22786  16.828  33.640   3.914
50461W        W22787  40.450  19.276   2.339
50462W        W22788  25.398   8.787  10.535
50463W        W22789  32.960  12.310  12.889
50464W        W22790  37.775  34.605  10.841
50465W        W22791  24.684  22.862   3.166
50466W        W22792  40.533  24.800  11.279
50467W        W22793  10.256  15.713   1.853
50468W        W22794  29.127  42.860   2.855
50469W        W22795  19.653  33.203  11.953
50470W        W22796  20.612  29.894   0.906
50471W        W22797  17.521  33.647  13.123
50472W        W22798  17.320  16.872   2.397
50473W        W22799  16.802  35.310  10.836
50474W        W22800  23.320  33.821  12.034
50475W        W22801  15.626  39.231   1.388
50476W        W22802  23.281  12.733  11.569
50477W        W22803  12.800  18.274   2.979
50478W        W22804   5.893  24.935  11.157
50479W        W22805  44.173  29.598  12.344
50480W        W22806  25.699  15.258   0.248
50481W        W22807  29.988  44.034  11.683
50482W        W22808  22.620  15.298   2.976
50483W        W22809   0.294   4.983   3.661
50484W        W22810  43.265  34.927  11.256
50485W        W22811  24.776  18.222   5.165
50486W        W22812  18.763   3.714  13.780
50487W        W22813  32.272  10.049   5.080
50488W        W22814  42.959  41.397   2.899
50489W        W22815  20.292  23.033  12.002
50490W        W22816  32.169  39.184   2.449
50491W        W22817  10.422  11.200  12.410
50492W        W22818   6.445   8.877  13.517
50493W        W22819  39.338  36.196  11.870
50494W        W22820   5.292   1.335  14.305
50495W        W22821  15.292  11.270   1.469
50496W        W22822  33.356  19.807   4.244
50497W        W22823  37.103  11.607   0.356
50498W        W22824   8.827   0.243  12.501
50499W        W22825  28.319  31.495  14.027
50500W        W22826  28.981  23.594  11.643
50501W        W22827  30.885  37.546  14.897
50502W        W22828   0.455   7.841  14.211
50503W        W22829  27.092  12.537  12.946
50504W        W22830   1.326  17.927   0.215
50505W        W22831  33.991  25.369  12.552
50506W        W22832  14.078  12.132   1.002
50507W        W22833  37.830   5.728   3.167
50508W        W22834   3.907   4.949   1.541
50509W        W22835  17.455  37.975  14.733
50510W        W22836  34.396  43.516   0.657
50511W        W22837   6.065  30.582   0.345
50512W        W22838  11.300  15.533  11.136
50513W        W22839  42.929  37.616  13.235
50514W        W22840  14.129   0.151  14.437
50515W        W22841  43.983  44.273   3.629
50516W        W22842  39.376  38.192   1.450
50517W        W22843  23.984  23.486   0.859
50518W        W22844  10.609   2.708   2.152
50519W        W22845  38.510   6.899  11.471
50520W        W22846  15.660  40.437  14.074
50521W        W22847   7.348  14.881  14.540
50522W        W22848  14.124  15.873  10.363
50523W        W22849   8.530   4.215  10.558
50524W        W22850  37.975   2.419  13.073
50525W        W22851  44.775  23.713  11.520
50526W        W22852  10.313   8.487  13.593
50527W        W22853  12.894  28.436  12.387
50528W        W22854  19.049  16.598  12.876
50529W        W22855   3.307  26.231   3.658
50530W        W22856   6.291  22.079  10.389
50531W        W22857  11.705  41.804  14.562
50532W        W22858  16.057  44.902   3.262
50533W        W22859  40.156  21.208   4.830
50534W        W22860  36.449  34.252   9.654
50535W        W22861  39.091  38.032  13.898
50536W        W22862  44.769  25.568   2.672
50537W        W22863  42.567  34.333  11.461
50538W        W22864  10.896   0.832  13.003
50539W        W22865  27.275  32.144   0.874
50540W        W22866  17.201   1.259  11.906
50541W        W22867  18.150  31.355  14.872
50542W        W22868   0.965   8.671   4.648
50543W        W22869  24.708  34.293  12.901
50544W        W22870  17.843  15.985  11.159
50545W        W22871  24.900  16.697  14.172
50546W        W22872  10.757  39.457   2.878
50547W        W22873  30.027  33.118  10.653
50548W        W22874  28.526  12.751   3.316
50549W        W22875   3.169  24.468  10.450
50550W        W22876  11.183  32.854  14.868
50551W        W22877  13.405  10.403  11.014
50552W        W22878   8.410  10.734  14.492
50553W        W22879  33.084  14.121  11.412
50554W        W22880  24.979   6.433  14.086
50555W        W22881  18.164  14.232   2.000
50556W        W22882  14.939  14.038   3.749
50557W        W22883  35.179   5.294   1.878
50558W        W22884  16.531  27.691  14.540
50559W        W22885  23.448  41.773   1.799
50560W        W22886  31.125  22.208  13.246
50561W        W22887  22.968  40.249  14.351
50562W        W22888  44.610  34.688  13.055
50563W        W22889   2.035  15.051   0.024
50564W        W22890  13.516  27.113  11.806
50565W        W22891  27.089  26.199   9.689
50566W        W22892  16.120  19.574   0.199
50567W        W22893   0.664  38.384   0.475
50568W        W22894   2.871  34.893   2.839
50569W        W22895  43.238  25.634  13.932
50570W        W22896  29.170  16.135   1.781
50571W        W22897   2.805  10.320   4.312
50572W        W22898   9.356  17.586   1.491
50573W        W22899  32.217  15.510   4.629
50574W        W22900  39.499  41.488  14.714
50575W        W22901  29.230  31.485  10.581
50576W        W22902  28.030  27.420   1.777
50577W        W22903  19.448  20.249  12.344
50578W        W22904  12.063  27.510  14.851
50579W        W22905  13.905   3.455   0.270
50580W        W22906  25.534  20.078   4.577
50581W        W22907  20.133  37.459   1.035
50582W        W22908  30.887  38.863   3.717
50583W        W22909  35.417  18.050   0.320
50584W        W22910  15.304  29.051  14.319
50585W        W22911  32.355  37.407   2.186
50586W        W22912  36.560  30.787  13.427
50587W        W22913  18.551  23.822  11.195
50588W        W22914  29.877  16.294   3.625
50589W        W22915  35.583  29.396  14.526
50590W        W22916  22.103  17.235   3.653
50591W        W22917  16.420  20.114  14.470
50592W        W22918  39.906  43.530   4.034
50593W        W22919  26.063   3.174   2.859
50594W        W22920  34.340   5.465  14.446
50595W        W22921  27.653  40.145   4.033
50596W        W22922  13.662  40.023  12.364
50597W        W22923  25.604  33.271   3.223
50598W        W22924  41.017  39.712   3.559
50599W        W22925  10.448  33.056   2.221
50600W        W22926   7.602  38.479   0.021
50601W        W22927  11.222  42.575   4.134
50602W        W22928  24.430  13.432  11.179
50603W        W22929  30.169   3.789   2.337
50604W        W22930  22.118  24.105  11.561
50605W        W22931  39.862  35.516   3.806
50606W        W22932   3.134  31.424  13.114
50607W        W22933  35.882  11.434   4.013
50608W        W22934  21.255  38.405  14.921
50609W        W22935  11.513  30.639   1.091
50610W        W22936  23.960  15.655   1.850
50611W        W22937  33.971   3.895   1.197
50612W        W22938   3.994  28.955  13.310
50613W        W22939   9.296   2.706  11.626
50614W        W22940  32.411  40.772  10.567
50615W        W22941  22.093   0.393  12.376
50616W        W22942   5.400   0.922  13.547
50617W        W22943  36.355   2.211   1.176
50618W        W22944  36.710   0.505   1.429
50619W        W22945  37.521   9.298  13.985
50620W        W22946   1.488  34.670   2.864
50621W        W22947   2.685  15.281  12.554
50622W        W22948  31.400  35.798  13.826
50623W        W22949   3.841  38.061   3.790
50624W        W22950  19.760  35.312  10.959
50625W        W22951  12.348  30.947   0.792
50626W        W22952  44.608   8.556  12.893
50627W        W22953   6.795  16.811   0.478
50628W        W22954  20.597  35.138   2.627
50629W        W22955  18.722   9.726  13.450
50630W        W22956  34.641  43.106   4.689
50631W        W22957  44.004  38.360   4.144
50632W        W22958  39.701   9.299   1.364
50633W        W22959  19.547  42.431  13.965
50634W        W22960   7.473  31.845  10.315
50635W        W22961  22.636   0.392  13.059
50636W        W22962  11.221  33.243   2.050
50637W        W22963  13.837  13.086  12.978
50638W        W22964  28.266  38.359   1.410
50639W        W22965  24.227   5.737   3.417
50640W        W22966  25.207  12.409  12.954
50641W        W22967  13.190  42.535   0.283
50642W        W22968   2.419  12.759   3.243
50643W        W22969   5.469  17.589  13.005
50644W        W22970  37.101  16.167  14.316
50645W        W22971  44.782  25.268  11.719
50646W        W22972   7.183   5.351   1.335
50647W        W22973  33.372  17.652   3.172
50648W        W22974   3.668   8.479   4.583
50649W        W22975  29.860  21.752   4.952
50650W        W22976  28.429   4.302   2.408
50651W        W22977  37.821  26.655  12.970
50652W        W22978  13.813  43.226   1.624
50653W        W22979  27.034  34.089  12.343
50654W        W22980   2.846   9.194   1.027
50655W        W22981  22.124  13.859  12.962
50656W        W22982  42.917  15.979   0.240
50657W        W22983  17.116  27.377   3.200
50658W        W22984  19.548  23.541   3.293
50659W        W22985   9.649  16.009   5.059
50660W        W22986  19.000  17.684  11.446
50661W        W22987  40.775  34.834  13.898
50662W        W22988  44.857  32.610  12.593
50663W        W22989   0.303   9.042   4.157
50664W        W22990  21.551  33.474  12.612
50665W        W22991  31.091   4.397  13.819
50666W        W22992  32.530   2.930   3.775
50667W        W22993  30.616  23.719  14.309
50668W        W22994  43.031   4.920  13.824
50669W        W22995   9.450  33.631  14.354
50670W        W22996  26.446  40.522  12.376
50671W        W22997  38.892   7.152   0.791
50672W        W22998  19.131  33.867   0.318
50673W        W22999  37.912  36.299   3.263
50674W        W23000  44.326  34.665   0.144
50675W        W23001  39.222   3.392   1.265
50676W        W23002  12.551  20.605  12.401
50677W        W23003  16.811  10.596   4.363
50678W        W23004  35.830  28.221  14.865
50679W        W23005  18.000  30.098   4.678
50680W        W23006  29.578  43.696  11.639
50681W        W23007  16.476   9.355  13.344
50682W        W23008  15.179  31.475  14.936
50683W        W23009  40.643  19.265  11.605
50684W        W23010  42.892  38.415  13.583
50685W        W23011  23.696   4.947   3.844
50686W        W23012  17.186  27.087  14.321
50687W        W23013  44.546   8.758  13.831
50688W        W23014  36.709   5.991  14.037
50689W        W23015  30.026  25.945   9.695
50690W        W23016  36.710  36.471  14.580
50691W        W23017   6.447  18.001  11.685
50692W        W23018  16.998  13.967  10.936
50693W        W23019  12.569  33.461   4.689
50694W        W23020   2.953   9.852  14.525
50695W        W23021  43.251   6.898   3.234
50696W        W23022  12.202  37.183   0.241
50697W        W23023   7.960   3.005   0.242
50698W        W23024   0.508   6.089  14.023
50699W        W23025   3.502  34.544  11.559
50700W        W23026  11.536  17.047  14.005
50701W        W23027  38.710  40.174   4.198
50702W        W23028   6.860   8.393   2.859
50703W        W23029   7.374   1.879  12.516
50704W        W23030  44.217  33.204   0.681
50705W        W23031   5.956  26.380   1.717
50706W        W23032  36.567  24.995  10.032
50707W        W23033  34.438  37.406   1.263
50708W        W23034  17.248  16.107   0.952
50709W        W23035  36.097  12.214   5.126
50710W        W23036   6.569  16.256  13.945
50711W        W23037  18.653   3.327  14.507
50712W        W23038  31.947  21.570   3.770
50713W        W23039  30.972   9.815   4.028
50714W        W23040  39.445  33.766  10.201
50715W        W23041  34.431   8.915   1.408
50716W        W23042  16.827  18.778   0.209
50717W        W23043  15.804   7.014   2.269
50718W        W23044  18.500  43.849  13.555
50719W        W23045  10.145  23.028   1.288
50720W        W23046  25.693   3.852  10.880
50721W        W23047  21.525   8.841  13.887
50722W        W23048  38.980  10.867   0.281
50723W        W23049  11.087  37.898   3.918
50724W        W23050   4.103  42.014   0.335
50725W        W23051  33.806  28.073   4.113
50726W        W23052  24.002  40.887  14.520
50727W        W23053  23.373  35.630   3.310
50728W        W23054   6.718  13.794   2.759
50729W        W23055  26.412  41.880  12.009
50730W        W23056  36.372  10.292  14.418
50731W        W23057  14.669   3.779  10.750
50732W        W23058  42.365  39.937  13.929
50733W        W23059   4.021  39.590   0.426
50734W        W23060   4.016   2.318  11.165
50735W        W23061  17.661  37.964   4.782
50736W        W23062  14.735  43.226   4.715
50737W        W23063  14.230   0.925   3.213
50738W        W23064  13.830   1.347   1.139
50739W        W23065  19.096  26.253   3.880
50740W        W23066  13.072  15.174   1.238
50741W        W23067  31.870  39.952  14.832
50742W        W23068  35.586  40.061   1.331
50743W        W23069  10.304  38.692  12.145
50744W        W23070  27.083  24.536  14.973
50745W        W23071  32.509  14.083   0.949
50746W        W23072  28.473  11.777   4.371
50747W        W23073  34.945  37.302   3.783
50748W        W23074  16.651  18.409  12.423
50749W        W23075  41.457   2.753   1.755
50750W        W23076  17.109  13.748  14.343
50751W        W23077  23.673   6.488   3.807
50752W        W23078   2.439  27.517  10.699
50753W        W23079  21.356  11.990   4.899
50754W        W23080  13.377   3.123  13.469
50755W        W23081   3.722  12.668  14.992
50756W        W23082  23.551  10.137   3.274
50757W        W23083  10.639   6.627   0.545
50758W        W23084  12.320  35.357  13.946
50759W        W23085  44.732  20.641  13.390
50760W        W23086  20.581  35.392  13.492
50761W        W23087  21.281  17.848   4.744
50762W        W23088  36.588  35.396  10.726
50763W        W23089   1.986  40.556  14.943
50764W        W23090  40.486  40.570   3.362
50765W        W23091   1.352   5.881  12.668
50766W        W23092  26.592  36.296   1.618
50767W        W23093  44.823  26.035   2.940
50768W        W23094  24.428  22.061  11.138
50769W        W23095  28.713  41.152  11.200
50770W        W23096  10.716   1.906   2.854
50771W        W23097  26.538  18.111   2.596
50772W        W23098   0.746  15.558  13.926
50773W        W23099  36.889  14.622   2.867
50774W        W23100  41.762  15.822  14.795
50775W        W23101   2.467  14.182  11.571
50776W        W23102  17.121  37.288   5.085
50777W        W23103  16.318  34.493   1.421
50778W        W23104   4.864   0.425   3.107
50779W        W23105   0.786  10.654   4.699
50780W        W23106   9.864  20.662  13.592
50781W        W23107  15.705   8.629  14.682
50782W        W23108  26.666  21.037   1.173
50783W        W23109   8.217  30.554  10.722
50784W        W23110  32.611  37.628   4.132
50785W        W23111  31.348  16.265   2.665
50786W        W23112  17.778  26.267   3.807
50787W        W23113  10.965  25.786  10.152
50788W        W23114  18.999  30.333  13.397
50789W        W23115   4.434  24.238   1.689
50790W        W23116  39.634   4.243   3.229
50791W        W23117  37.057  12.623  10.549
50792W        W23118  24.068  40.629   4.690
50793W        W23119  30.034  39.513  11.455
50794W        W23120  10.768   1.225   2.265
50795W        W23121  23.101  15.374  12.419
50796W        W23122  22.755  23.159  12.032
50797W        W23123   5.662  43.862   3.729
50798W        W23124  20.157  11.177   1.240
50799W        W23125  36.729  16.295  13.412
50800W        W23126  18.155  17.143   4.364
50801W        W23127  39.503  32.516   3.570
50802W        W23128  39.528  26.452   0.761
50803W        W23129  42.528  24.933   0.784
50804W        W23130   6.391  35.394  14.402
50805W        W23131  19.930   5.311   4.051
50806W        W23132  19.385  40.368   2.671
50807W        W23133   1.437  22.745   1.167
50808W        W23134   5.926   6.562  13.466
50809W        W23135  11.977  14.366   0.453
50810W        W23136   6.836   7.433   3.299
50811W        W23137  40.560  20.107  13.974
50812W        W23138   4.761  39.885  14.744
50813W        W23139  25.662  20.440   2.318
50814W        W23140   7.777  30.177   3.781
50815W        W23141  41.604  13.777  10.648
50816W        W23142  21.199  18.785   1.335
50817W        W23143  27.025  12.948   3.258
50818W        W23144  38.575  14.572   1.889
50819W        W23145   3.955  11.625  13.841
50820W        W23146  20.059  13.321   2.636
50821W        W23147  41.803  34.182  13.880
50822W        W23148  30.146  44.723   0.695
50823W        W23149   9.908  17.445  13.085
50824W        W23150  30.997   7.667  13.598
50825W        W23151  12.845  37.586  12.375
50826W        W23152  31.134   2.870   4.374
50827W        W23153   0.232  28.200   3.253
50828W        W23154  22.572  28.630  13.041
50829W        W23155  30.597  34.761  12.554
50830W        W23156  22.909   2.974   4.597
50831W        W23157  24.140  25.489  12.611
50832W        W23158  18.657  21.769  12.094
50833W        W23159   5.888  16.822   2.333
50834W        W23160   5.433  34.163   4.738
50835W        W23161  29.771  31.675  10.105
50836W        W23162  29.423   6.102   1.643
50837W        W23163  15.624  19.675   2.819
50838W        W23164  31.432  18.769   2.625
50839W        W23165  11.017  15.504   4.627
50840W        W23166   6.336  22.941  12.969
50841W        W23167   6.456  13.333   3.205
50842W        W23168  11.769  31.153   4.387
50843W        W23169  31.846  16.576   4.060
50844W        W23170  27.722  32.890   1.868
50845W        W23171   4.638  13.977   3.637
50846W        W23172  40.387  27.722   0.381
50847W        W23173   6.721   4.674  11.636
50848W        W23174  43.546  41.321   3.676
50849W        W23175  12.366  30.097   4.021
50850W        W23176  39.875  21.276   0.411
50851W        W23177  21.865  28.979   3.283
50852W        W23178   7.784  19.713  14.378
50853W        W23179   1.573  33.970   4.712
50854W        W23180  37.304   2.414   3.731
50855W        W23181  15.827   7.776  12.164
50856W        W23182   5.106  38.463  13.891
50857W        W23183   0.994  41.987   2.308
50858W        W23184  35.651  25.675  10.739
50859W        W23185  16.366  19.298   1.831
50860W        W23186  19.053  29.543   0.504
50861W        W23187  34.035  29.215  13.040
50862W        W23188  16.337  13.350  10.734
50863W        W23189   3.655  37.453   2.138
50864W        W23190  42.416  25.465   4.550
50865W        W23191   1.774  18.660   4.111
50866W        W23192  34.465  10.917   1.275
50867W        W23193   8.814  40.494  14.451
50868W        W23194   0.761  32.199   3.192
50869W        W23195  11.529  12.161   3.261
50870W        W23196  20.160  26.370  13.544
50871W        W23197  43.345   9.130   4.124
50872W        W23198   8.553  44.696   1.753
50873W        W23199  44.930  41.350  14.374
50874W        W23200   0.365   0.877   1.399
50875W        W23201  21.209  43.187   1.944
50876W        W23202  28.959  13.589  13.304
50877W        W23203  34.623  42.124   4.875
50878W        W23204   4.828  36.797   3.246
50879W        W23205  33.929   9.524  11.183
50880W        W23206  39.277  37.698   0.789
50881W        W23207  30.913  24.583  10.453
50882W        W23208  40.277   1.440   0.777
50883W        W23209   9.289   1.006   0.315
50884W        W23210   5.958  35.061   4.231
50885W        W23211  18.648  20.604   0.367
50886W        W23212  32.570  44.379  10.709
50887W        W23213  26.189  25.024  11.435
50888W        W23214  43.974   4.376  11.972
50889W        W23215  43.493   7.252   1.835
50890W        W23216  10.329  33.487   3.131
50891W        W23217  34.487  12.143  13.264
50892W        W23218  33.173  38.817  11.091
50893W        W23219   5.674  37.828   2.279
50894W        W23220  23.014  43.903   4.719
50895W        W23221  10.100  43.748   1.391
50896W        W23222  22.380   4.194  12.079
50897W        W23223  15.249   5.287  13.850
50898W        W23224  33.537   8.447  11.917
50899W        W23225  34.312  37.520  11.897
50900W        W23226  40.097  26.068  10.791
50901W        W23227  41.455  29.221  12.807
50902W        W23228  25.577  34.013  13.581
50903W        W23229  24.902  44.955   0.824
50904W        W23230  27.495  41.352  10.668
50905W        W23231  43.932  31.952   2.402
50906W        W23232   4.205  40.001   2.641
50907W        W23233   9.767  21.232  12.505
50908W        W23234  16.929  12.155  13.546
50909W        W23235   4.945  26.604   4.508
50910W        W23236  29.385  43.602   2.932
50911W        W23237  19.032  31.562   4.621
50912W        W23238   3.346   2.770   0.798
50913W        W23239  39.393  39.845   4.564
50914W        W23240  11.203  21.589   2.070
50915W        W23241  41.803  11.737  11.715
50916W        W23242  23.875  40.800   2.238
50917W        W23243   5.902  16.660  12.853
50918W        W23244   9.393  43.559  13.001
50919W        W23245   4.463   9.994  12.962
50920W        W23246  29.103  32.533  10.678
50921W        W23247  11.575  38.570  12.880
50922W        W23248  26.015  36.973  12.920
50923W        W23249   0.366  26.001  13.766
50924W        W23250  33.345  15.707  14.466
50925W        W23251  12.732  14.368   4.095
50926W        W23252   1.346  44.696   1.941
50927W        W23253  31.766   9.988   3.194
50928W        W23254   0.763  18.228   2.262
50929W        W23255   6.846  39.423   1.939
50930W        W23256  16.309  38.495   1.315
50931W        W23257  37.616  32.437   4.124
50932W        W23258  27.537  44.981   2.236
50933W        W23259  15.860  18.237   0.825
50934W        W23260  32.547  24.683   2.809
50935W        W23261  23.456  28.518   2.341
50936W        W23262   7.781  34.808   4.025
50937W        W23263  23.102  21.460   3.410
50938W        W23264  20.550   9.183   0.374
50939W        W23265  26.188  13.213  10.656
50940W        W23266  38.278  32.042  14.500
50941W        W23267   2.195  38.430   4.283
50942W        W23268  42.578  36.450  12.189
50943W        W23269  12.172  43.400   4.489
50944W        W23270  20.678  19.513   1.752
50945W        W23271  18.053  36.394   1.365
50946W        W23272   6.366  28.364   3.007
50947W        W23273   7.137   2.187  13.977
50948W        W23274  20.455  27.019   0.422
50949W        W23275  21.697  14.521  12.363
50950W        W23276  12.703  29.879   3.629
50951W        W23277   4.666  41.959   1.739
50952W        W23278   4.183   7.969  13.796
50953W        W23279  31.909  43.510   2.363
50954W        W23280  10.800  35.015   2.164
50955W        W23281  29.659  44.517   0.771
50956W        W23282   8.507  43.839  10.666
50957W        W23283   7.324  32.872   3.130
50958W        W23284  10.549  39.396   0.305
50959W        W23285  16.565  19.490   4.840
50960W        W23286  25.669  32.079  11.473
50961W        W23287  20.004  28.639  13.735
50962W        W23288  10.565  22.740   1.129
50963W        W23289  38.290  27.157   3.087
50964W        W23290   1.435   4.726   0.514
50965W        W23291  30.008  38.753   0.244
50966W        W23292  37.882  44.525   0.851
50967W        W23293  34.861  39.505   0.120
50968W        W23294  35.554   4.502  14.713
50969W        W23295  14.030  22.506  14.329
50970W        W23296  18.658  40.823   0.319
50971W        W23297  18.029   6.642   0.818
50972W        W23298  20.325  22.507  10.488
50973W        W23299  34.563  36.901   3.694
50974W        W23300  26.201  25.186   3.274
50975W        W23301  10.021   8.289  12.122
50976W        W23302  14.346   0.992  13.513
50977W        W23303  10.613  18.578   2.212
50978W        W23304   8.282  43.705  13.550
50979W        W23305  27.984  31.207   0.371
50980W        W23306  36.125  36.523  11.215
50981W        W23307  36.667  30.436  12.946
50982W        W23308  41.572   6.806  12.844
50983W        W23309  10.587   6.418  12.099
50984W        W23310  25.571  12.246   0.068
50985W        W23311   6.176  35.504   4.430
50986W        W23312  26.520  43.694   3.701
50987W        W23313  40.806  35.975   4.009
50988W        W23314   3.862  36.463   4.860
50989W        W23315   6.230   3.407  12.336
50990W        W23316  10.648   8.599   0.025
50991W        W23317  40.343  30.273  13.519
50992W        W23318  44.022  14.886   1.882
50993W        W23319  14.589  32.466  14.932
50994W        W23320  37.600  29.355   2.627
50995W        W23321  31.431  28.677  12.108
50996W        W23322  12.795  11.922   3.801
50997W        W23323  22.314  29.850   5.102
50998W        W23324  11.657  20.008  10.623
50999W        W23325  30.593  31.572   1.848
51000W        W23326   3.762  20.451  14.768
51001W        W23327  25.005  20.679   0.990
51002W        W23328  11.186   1.190   3.833
51003W        W23329  44.152  36.584  13.216
51004W        W23330   0.713  20.180  14.034
51005W        W23331   1.331  18.776   0.991
51006W        W23332  15.927  36.382   5.012
51007W        W23333  34.129  32.156  10.188
51008W        W23334   9.332  28.061  13.889
51009W        W23335  41.964  21.773  12.334
51010W        W23336  26.871  29.531  14.422
51011W        W23337  27.229  17.252  14.950
51012W        W23338  39.861  19.527   4.603
51013W        W23339   0.946  32.502  11.837
51014W        W23340  24.710  23.826  10.808
51015W        W23341  22.393  20.026  13.609
51016W        W23342  16.699   5.410   3.249
51017W        W23343  10.745  36.146  11.572
51018W        W23344  32.151  20.599  10.681
51019W        W23345  44.235   2.310   2.770
51020W        W23346  20.556  35.161   3.645
51021W        W23347  15.676  41.812  12.352
51022W        W23348  18.105  10.410  12.821
51023W        W23349  32.389   4.248   1.448
51024W        W23350  11.996  15.682   0.875
51025W        W23351  42.756  38.424  11.211
51026W        W23352  27.089   1.743   1.227
51027W        W23353  42.376  28.812   2.307
51028W        W23354  24.216  21.080   2.393
51029W        W23355  23.041   6.451  11.459
51030W        W23356  24.088  30.464  13.511
51031W        W23357  41.255  41.431   1.306
51032W        W23358  22.642   5.335   4.699
51033W        W23359  31.911   5.053  14.030
51034W        W23360   0.785   4.748   2.667
51035W        W23361  36.777  23.196   4.156
51036W        W23362  16.006   5.245   0.512
51037W        W23363   8.948  24.263  12.954
51038W        W23364  14.568  39.476  13.074
51039W        W23365  37.564  28.535  11.903
51040W        W23366  43.809   6.764  13.969
51041W        W23367  27.099  29.489   1.884
51042W        W23368  15.200   6.790  12.874
51043W        W23369  39.953  19.372  13.064
51044W        W23370  24.146  28.948  13.473
51045W        W23371   4.294  13.430  12.449
51046W        W23372  18.457  14.812  11.904
51047W        W23373  27.514   0.003   0.207
51048W        W23374  23.154  31.703   2.260
51049W        W23375  10.239  25.214  14.174
51050W        W23376  15.271  14.785  14.665
51051W        W23377   9.844  31.380   2.246
51052W        W23378  40.434   9.789   4.730
51053W        W23379   7.240   3.904   1.045
51054W        W23380  10.378  13.236   3.093
51055W        W23381  15.602   6.161  13.509
51056W        W23382  32.627  27.513  10.491
51057W        W23383   4.923  39.067   2.089
51058W        W23384  35.825  30.164  12.936
51059W        W23385  10.460  11.222   0.699
51060W        W23386   2.776  33.675  12.895
51061W        W23387  39.578  44.728   3.831
51062W        W23388   2.491  18.370   1.491
51063W        W23389  25.170   1.600   4.639
51064W        W23390  30.678   1.978   9.956
51065W        W23391  24.455  17.197   2.291
51066W        W23392  14.832  20.995  12.670
51067W        W23393  30.458  43.003   2.131
51068W        W23394  26.988  21.963  14.749
51069W        W23395  28.634  35.084   1.250
51070W        W23396  11.789  28.140   3.762
51071W        W23397  11.159  28.988  11.523
51072W        W23398  36.374  22.915   3.013
51073W        W23399  12.381  36.375  11.110
51074W        W23400  40.238  43.458  14.807
51075W        W23401  26.556  25.529   3.394
51076W        W23402  16.644  11.327  12.403
51077W        W23403  40.586   9.402  12.995
51078W        W23404   4.244  24.177   1.199
51079W        W23405  23.257  32.354  14.390
51080W        W23406   0.401  14.458   1.381
51081W        W23407  33.899  35.336  13.685
51082W        W23408  22.076  29.183  12.078
51083W        W23409   8.692  10.749  10.641
51084W        W23410  42.278  39.896   4.685
51085W        W23411   6.658  29.421  10.584
51086W        W23412  30.120  27.424   5.563
51087W        W23413  16.599   2.691  13.410
51088W        W23414   4.337  26.156  12.982
51089W        W23415  21.257   7.687  13.364
51090W        W23416  44.851  12.261  10.899
51091W        W23417  25.810   2.652   4.144
51092W        W23418  42.927  26.894  14.079
51093W        W23419   6.187  33.115  14.960
51094W        W23420  26.219  24.565  11.684
51095W        W23421  21.309  38.527  11.105
51096W        W23422  43.785  14.261   3.358
51097W        W23423  10.662  10.463  10.782
51098W        W23424   0.347  22.362  10.155
51099W        W23425  33.406  21.561   0.241
51100W        W23426   9.968   1.931   0.893
51101W        W23427  23.612   6.488  12.402
51102W        W23428  10.368  26.750   2.764
51103W        W23429  17.717  15.546   3.602
51104W        W23430  27.171   6.941  14.881
51105W        W23431  25.568  35.273   1.711
51106W        W23432   9.348  36.031   5.194
51107W        W23433   8.112   5.342  12.648
51108W        W23434   5.849  18.164  13.998
51109W        W23435   1.456  35.662   1.308
51110W        W23436  34.061  27.761  11.596
51111W        W23437  14.510  30.359   4.312
51112W        W23438  36.585  35.940  13.029
51113W        W23439  27.195  42.517   0.933
51114W        W23440  33.154  43.637   1.888
51115W        W23441  24.848  22.111  13.363
51116W        W23442  41.825   0.413  12.827
51117W        W23443  26.945  20.084   4.138
51118W        W23444  21.181   5.923   3.674
51119W        W23445  38.822  33.506  14.331
51120W        W23446   0.180  18.633   0.310
51121W        W23447  16.117   4.156  13.893
51122W        W23448  35.936   5.061   1.311
51123W        W23449  22.330  15.765   0.968
51124W        W23450  37.082   8.955   0.935
51125W        W23451   8.172   5.407   4.176
51126W        W23452  11.646  41.364  14.205
51127W        W23453  42.622   9.597   4.205
51128W        W23454   1.950  25.825   1.244
51129W        W23455  41.105  44.435   2.926
51130W        W23456   9.911   5.757  10.727
51131W        W23457   2.486  13.655   0.856
51132W        W23458   8.939  38.860   4.732
51133W        W23459  42.845  42.028   0.770
51134W        W23460  29.758  23.215  12.008
51135W        W23461  32.683  42.771  12.532
51136W        W23462  18.720  39.413  14.314
51137W        W23463  27.630  37.806  11.616
51138W        W23464  12.385  21.663   2.347
51139W        W23465  39.994  14.736   1.903
51140W        W23466  44.888  32.918  14.890
51141W        W23467   1.496  40.523   1.673
51142W        W23468  41.259  26.911  10.386
51143W        W23469  33.115  28.610   3.857
51144W        W23470   7.157   6.409   4.153
51145W        W23471  21.257  31.420   0.147
51146W        W23472  22.834  34.492  14.840
51147W        W23473   8.832  43.521   3.672
51148W        W23474  27.833   0.270   0.705
51149W        W23475  24.220  41.821  14.631
51150W        W23476  14.691  35.085   2.817
51151W        W23477  28.426   2.720  12.010
51152W        W23478  10.595  38.414   2.830
51153W        W23479  24.030  33.942   1.193
51154W        W23480  42.827  18.184  10.935
51155W        W23481  29.161  38.887   0.748
51156W        W23482  33.688   3.386  12.370
51157W        W23483   6.169  33.183   2.706
51158W        W23484  36.161   9.786  14.402
51159W        W23485  26.229   9.000  13.487
51160W        W23486  17.913   8.712   4.343
51161W        W23487  26.019  26.539  12.412
51162W        W23488   6.319  30.184   0.551
51163W        W23489   6.877  23.287   0.966
51164W        W23490   5.148  10.119   4.485
51165W        W23491  33.284  29.554  13.684
51166W        W23492  35.666  27.148  13.362
51167W        W23493  15.676  41.470  13.104
51168W        W23494  44.548  16.613  14.311
51169W        W23495  43.950  32.491  14.834
51170W        W23496  23.065  23.581  12.071
51171W        W23497  31.441   7.897  14.325
51172W        W23498  23.792  36.900  11.481
51173W        W23499  17.570  17.029  11.877
51174W        W23500  44.451  19.388   3.850
51175W        W23501  26.547   3.305  10.978
51176W        W23502  39.929  31.925   2.137
51177W        W23503  43.893  30.127   3.371
51178W        W23504  31.281  12.864  13.781
51179W        W23505  16.315  43.406   1.959
51180W        W23506  42.502  22.644  14.767
51181W        W23507   8.715  12.833  13.048
51182W        W23508  41.875   5.267  14.272
51183W        W23509  40.769   2.893   2.412
51184W        W23510  27.961  43.007  12.859
51185W        W23511  22.082  26.699  14.914
51186W        W23512  28.686  14.916   1.672
51187W        W23513   4.303   2.342   1.965
51188W        W23514  43.603   6.483   4.132
51189W        W23515  42.042  37.948  12.831
51190W        W23516  17.699  13.095  11.456
51191W        W23517   9.707  40.800   4.788
51192W        W23518  26.556  34.680   4.663
51193W        W23519  37.282  43.261   0.833
51194W        W23520  39.972  44.979   4.369
51195W        W23521  43.947  39.417   0.209
51196W        W23522  37.577  30.186  11.226
51197W        W23523  44.810  20.924   2.357
51198W        W23524   1.414  41.033   4.380
51199W        W23525  40.770  25.412  11.048
51200W        W23526  43.392   5.587   3.594
51201W        W23527  38.373  42.389   3.336
51202W        W23528  35.427  29.192  11.882
51203W        W23529  37.897  17.170   3.355
51204W        W23530  41.504   7.250  13.100
51205W        W23531  30.967   1.520   3.543
51206W        W23532  25.353  22.776   3.706
51207W        W23533  38.510  26.022   1.011
51208W        W23534  25.827  24.268   0.755
51209W        W23535  34.460  10.848   3.960
51210W        W23536  12.795   8.569   1.134
51211W        W23537  44.657  16.702   2.420
51212W        W23538  12.127  22.250  13.279
51213W        W23539   7.597  15.256   0.451
51214W        W23540  24.074   6.778   3.624
51215W        W23541  12.369  32.010  10.442
51216W        W23542  21.094  22.643  11.158
51217W        W23543  10.912  33.916  12.729
51218W        W23544  44.738   7.904  11.845
51219W        W23545  17.478   9.251  14.423
51220W        W23546   4.204   5.819  10.539
51221W        W23547   3.416  22.198   1.909
51222W        W23548  26.784  14.178   2.298
51223W        W23549  11.332  32.863   2.414
51224W        W23550  22.205  28.736  11.145
51225W        W23551  36.158   4.286   1.802
51226W        W23552  37.771  29.648  13.028
51227W        W23553  24.181   0.264   2.390
51228W        W23554  14.276  43.240  10.605
51229W        W23555   0.126  11.002   4.196
51230W        W23556  21.278   6.903   3.826
51231W        W23557  25.450  25.505  12.058
51232W        W23558  23.140  43.939  12.962
51233W        W23559  31.602  37.842   0.722
51234W        W23560  22.520   3.812  14.397
51235W        W23561   9.728  23.665   2.869
51236W        W23562   6.935  42.821   0.698
51237W        W23563  11.902  31.513  12.477
51238W        W23564   8.981  32.167   3.335
51239W        W23565  25.021   0.963  11.179
51240W        W23566   6.373  21.196  14.104
51241W        W23567  36.583   7.768   4.656
51242W        W23568   8.637  41.927   0.173
51243W        W23569  28.040  11.173   0.864
51244W        W23570  26.449  14.625  10.771
51245W        W23571  27.479  11.540  14.038
51246W        W23572  22.977  15.363   9.599
51247W        W23573  31.161  22.298   3.857
51248W        W23574   3.875  24.744   4.176
51249W        W23575  25.118   9.718  14.710
51250W        W23576  33.671  23.171  11.367
51251W        W23577  30.040  13.136   1.719
51252W        W23578   9.254  30.937   0.941
51253W        W23579  29.418  41.796  14.969
51254W        W23580  15.294  23.893  11.564
51255W        W23581  42.548   1.808   0.220
51256W        W23582  43.557  25.993   3.695
51257W        W23583  43.822  34.548   1.083
51258W        W23584  31.864  15.199   4.385
51259W        W23585   5.433  21.306   1.797
51260W        W23586   6.289  30.679  10.503
51261W        W23587  25.971  33.807  14.437
51262W        W23588  23.776  34.543  10.740
51263W        W23589  41.327   3.241  14.401
51264W        W23590   8.221  21.660  10.696
51265W        W23591  42.718   2.011  13.420
51266W        W23592   5.135  41.893  11.236
51267W        W23593  19.812  26.760   1.306
51268W        W23594  27.557   8.697   0.940
51269W        W23595   8.663  28.946  12.581
51270W        W23596  34.120  25.517   0.811
51271W        W23597  30.738  15.204  11.253
51272W        W23598  17.485  25.834  11.682
51273W        W23599  36.899  39.233   3.594
51274W        W23600  28.454   3.739   2.406
51275W        W23601  19.781   1.012  14.905
51276W        W23602  37.846  32.123  13.802
51277W        W23603  38.106  25.080  13.461
51278W        W23604   8.782   0.739  13.464
51279W        W23605  28.736   4.811   0.913
51280W        W23606  28.552  25.601  12.147
51281W        W23607   8.230  34.510   0.410
51282W        W23608  19.162   3.819  13.393
51283W        W23609  12.830  29.071   0.761
51284W        W23610  33.517   9.179  13.530
51285W        W23611   0.006  41.576  11.541
51286W        W23612  41.620  42.838  13.708
51287W        W23613  10.882   7.223   2.665
51288W        W23614  41.415  34.044   4.309
51289W        W23615  38.938  38.906  11.382
51290W        W23616  15.171  34.827   2.806
51291W        W23617  20.264  33.053   1.877
51292W        W23618  20.681  36.589  12.955
51293W        W23619   1.224   2.889  10.647
51294W        W23620   1.282  16.757  13.003
51295W        W23621  22.955  12.203   3.688
51296W        W23622  14.110  14.412   4.306
51297W        W23623  42.016  29.467   2.802
51298W        W23624  21.743  25.569  12.561
51299W        W23625  26.544  28.093  14.527
51300W        W23626  21.694  32.346   4.521
51301W        W23627  15.071  14.056   4.250
51302W        W23628   4.247  44.723   4.215
51303W        W23629  40.656   2.331  13.444
51304W        W23630  14.622  17.374  12.341
51305W        W23631  33.432  43.535  13.807
51306W        W23632  18.927  20.638   1.978
51307W        W23633  40.905   4.867  13.058
51308W        W23634  16.588   9.855   1.893
51309W        W23635  26.077  34.133   1.463
51310W        W23636  26.105   6.138  14.770
51311W        W23637   5.484   5.382   3.651
51312W        W23638  30.307  28.902  11.391
51313W        W23639   4.238  21.746   0.655
51314W        W23640  23.180  36.625  12.045
51315W        W23641  31.638  38.025   2.113
51316W        W23642   1.944   4.328  14.684
51317W        W23643  43.175  37.520  10.767
51318W        W23644   5.319  32.167   3.804
51319W        W23645  29.967  31.974  14.522
51320W        W23646  37.507  44.763   0.411
51321W        W23647  20.645  15.580  13.524
51322W        W23648  33.913  25.241  10.847
51323W        W23649  26.396   6.524   1.429
51324W        W23650  28.257   8.816   0.557
51325W        W23651  25.610  28.405   2.401
51326W        W23652  39.999  29.959   0.749
51327W        W23653  23.067  23.968   0.748
51328W        W23654  38.881   7.950  14.086
51329W        W23655  33.568  44.064  12.945
51330W        W23656  30.401  17.015   0.286
51331W        W23657  22.552   5.313  11.581
51332W        W23658  12.638  18.277   4.416
51333W        W23659  34.614  39.268   2.779
51334W        W23660  31.970  33.408   2.156
51335W        W23661  32.175  31.610  11.033
51336W        W23662  14.716  28.105   4.585
51337W        W23663  17.164  43.064   4.602
51338W        W23664  24.371  25.547  11.711
51339W        W23665   9.882  26.743  11.837
51340W        W23666   8.392  41.878   4.084
51341W        W23667  33.561   9.868  13.636
51342W        W23668  13.040  21.263   0.756
51343W        W23669  16.124   3.957   1.652
51344W        W23670  30.846   5.287   4.167
51345W        W23671  39.159   0.315   4.779
51346W        W23672  23.154  26.731   2.382
51347W        W23673  14.737  35.592  13.804
51348W        W23674  33.987  13.342   0.048
51349W        W23675   7.810  17.288   1.397
51350W        W23676  34.225  43.487   1.468
51351W        W23677   7.036  11.077   2.353
51352W        W23678  37.882  26.691  11.603
51353W        W23679  24.949  34.873  12.304
51354W        W23680   7.412  17.687  14.396
51355W        W23681   0.316  14.124   1.806
51356W        W23682  15.239   8.887   0.891
51357W        W23683   5.335  39.016   2.395
51358W        W23684  20.074   3.264   2.617
51359W        W23685  16.151  44.036   1.351
51360W        W23686   3.175   8.826   0.413
51361W        W23687  13.204  31.134   1.421
51362W        W23688  35.164   3.855  11.165
51363W        W23689  10.733  28.153  10.288
51364W        W23690  24.195  41.414   2.745
51365W        W23691  39.480  28.232  10.724
51366W        W23692  10.719  11.926  14.002
51367W        W23693  18.762  12.872  14.034
51368W        W23694  22.255  29.418   0.174
51369W        W23695  10.399  38.605  14.603
51370W        W23696  29.748   8.858   5.158
51371W        W23697  39.526  41.714  11.495
51372W        W23698  14.632  40.992  13.610
51373W        W23699   3.500  23.459   2.330
51374W        W23700   1.386  37.111   4.031
51375W        W23701   2.817  27.016  10.733
51376W        W23702  24.002  10.722  12.950
51377W        W23703  33.613  40.230  11.447
51378W        W23704  41.908  28.666  14.850
51379W        W23705  13.481  27.632   1.016
51380W        W23706  29.206  35.052  13.516
51381W        W23707  35.819  23.207   0.225
51382W        W23708  35.970  22.967  14.325
51383W        W23709  31.500  13.151   4.396
51384W        W23710  25.086   4.210  12.462
51385W        W23711  29.356  20.501   1.770
51386W        W23712   3.732   4.166   0.885
51387W        W23713  44.259  26.141  14.449
51388W        W23714  34.136  22.518   2.250
51389W        W23715  25.072  25.710   4.572
51390W        W23716   7.595  23.250  14.413
51391W        W23717  36.516  37.502   1.260
51392W        W23718  15.117  44.562   1.597
51393W        W23719  15.222  38.002   4.564
51394W        W23720  36.467  31.217   4.619
51395W        W23721   4.163  28.605  14.464
51396W        W23722  10.269  35.992   4.381
51397W        W23723  12.046  31.071  12.987
51398W        W23724  31.003   7.673  14.983
51399W        W23725  11.131   3.174   2.822
51400W        W23726  13.694  22.974  10.969
51401W        W23727  37.058   6.215  14.771
51402W        W23728   6.231  43.020   3.631
51403W        W23729  19.184   0.286  13.999
51404W        W23730  38.597  43.080   3.524
51405W        W23731   3.033  25.098   1.759
51406W        W23732   1.380  31.787  10.333
51407W        W23733  15.725  15.599  12.586
51408W        W23734  19.203  39.569  12.628
51409W        W23735  13.982   4.780  11.517
51410W        W23736  19.742  44.223  13.444
51411W        W23737  44.948  39.294   0.843
51412W        W23738  24.668  22.467  11.415
51413W        W23739   8.710  16.624  12.034
51414W        W23740  34.115  34.041  13.016
51415W        W23741  31.127  25.745   3.527
51416W        W23742  42.182  37.841  11.134
51417W        W23743  43.172  21.194  11.489
51418W        W23744  25.969   3.772  13.549
51419W        W23745  42.645  21.302  11.510
51420W        W23746  22.710  17.790   2.377
51421W        W23747  18.659  10.477  10.649
51422W        W23748  43.263  14.974  11.876
51423W        W23749  11.965   8.243   1.352
51424W        W23750  26.059  16.670   0.577
51425W        W23751  41.917  43.009  11.183
51426W        W23752  38.946   5.689  12.060
51427W        W23753  29.191  23.732   0.981
51428W        W23754  38.308   5.453   3.597
51429W        W23755  44.763  28.988   2.379
51430W        W23756  13.623   9.469  14.510
51431W        W23757  34.926   8.195  14.016
51432W        W23758  18.700  18.488  11.119
51433W        W23759  27.492  41.809   3.231
51434W        W23760  25.099   9.391   4.927
51435W        W23761  23.824   3.177   0.383
51436W        W23762  36.550  21.024   0.237
51437W        W23763   2.854  11.139   0.466
51438W        W23764  21.088  13.412  12.113
51439W        W23765  19.547  13.284   0.464
51440W        W23766  33.873   9.723   1.643
51441W        W23767  26.145   4.059   1.068
51442W        W23768  30.544  44.920  12.640
51443W        W23769  29.875  29.478   4.103
51444W        W23770  11.235  12.283  13.095
51445W        W23771  18.355   4.426   0.729
51446W        W23772   1.849  15.140  14.538
51447W        W23773  33.586  28.547   4.142
51448W        W23774  34.830  21.290   2.494
51449W        W23775  24.068  26.395  13.285
51450W        W23776  36.838  14.612  12.871
51451W        W23777   9.798  24.551  12.842
51452W        W23778  29.009   2.227   3.068
51453W        W23779  43.515  33.553   4.174
51454W        W23780  20.295  14.754  14.297
51455W        W23781  25.165  30.620  12.824
51456W        W23782  37.876  28.160   2.280
51457W        W23783  15.040  31.950  13.382
51458W        W23784  41.069  20.561  13.274
51459W        W23785  35.491  41.925  10.648
51460W        W23786  15.757  42.727  11.566
51461W        W23787   7.272  17.033   4.631
51462W        W23788  11.885  37.566   1.330
51463W        W23789  18.546  36.469  13.915
51464W        W23790  44.273  32.830  11.730
51465W        W23791   5.859  25.854  13.860
51466W        W23792  41.001  37.477  12.437
51467W        W23793  43.539   2.930  10.815
51468W        W23794   5.716  11.261   3.737
51469W        W23795  27.595   6.799   3.899
51470W        W23796   6.875  41.117   4.142
51471W        W23797  43.075   4.275   2.644
51472W        W23798  33.907  14.191  12.639
51473W        W23799   1.795  21.570  13.415
51474W        W23800  19.553   0.955  12.977
51475W        W23801  11.154  28.107  12.988
51476W        W23802   3.482   9.301   3.178
51477W        W23803   8.636   4.906  11.101
51478W        W23804  13.446  32.554   2.046
51479W        W23805  32.821  16.364   2.490
51480W        W23806  24.467   1.334  14.901
51481W        W23807  15.726  23.488   0.203
51482W        W23808   4.651   8.550   1.385
51483W        W23809  17.346   0.253   3.072
51484W        W23810  14.695  26.825  10.236
51485W        W23811  42.218  16.801   4.800
51486W        W23812  28.561  28.170  12.872
51487W        W23813  33.572  13.038   2.909
51488W        W23814  28.701   9.773   4.793
51489W        W23815  33.931   3.140   4.809
51490W        W23816  18.236  29.589   1.839
51491W        W23817   3.985  33.965  12.775
51492W        W23818   6.473   4.451   1.817
51493W        W23819   1.972  37.979  12.340
51494W        W23820  21.513  16.506   2.697
51495W        W23821  24.533   7.847  14.304
51496W        W23822  35.114  24.460  14.304
51497W        W23823  33.373  41.939   3.228
51498W        W23824   3.498  26.691  10.585
51499W        W23825  37.603  22.195  13.541
51500W        W23826   0.919  16.238   3.685
51501W        W23827  43.879  23.921  11.588
51502W        W23828  16.970   1.870  13.967
51503W        W23829  25.604  41.495   9.980
51504W        W23830  25.615  11.815  14.786
51505W        W23831  40.443   0.671  12.030
51506W        W23832  26.980  17.600   4.074
51507W        W23833  32.525  29.677  11.153
51508W        W23834  44.515  32.882   2.851
51509W        W23835  41.754  14.182  13.553
51510W        W23836   8.476  35.596   1.204
51511W        W23837   5.679  20.848  13.479
51512W        W23838   6.483  25.275  13.340
51513W        W23839  17.753   1.570  12.570
51514W        W23840  32.989  28.071  10.820
51515W        W23841  12.557  39.469   3.918
51516W        W23842  16.186  18.254   4.578
51517W        W23843  25.053  34.112   3.187
51518W        W23844   7.409  15.849   3.326
51519W        W23845  24.372  40.308   3.739
51520W        W23846  40.731  19.280  12.512
51521W        W23847  23.085   6.931  11.574
51522W        W23848  42.584  15.654  11.100
51523W        W23849  32.487  14.597   0.926
51524W        W23850  19.869   1.615  14.059
51525W        W23851  42.507  38.621  12.498
51526W        W23852   8.738   3.330  13.473
51527W        W23853  44.330   1.743   2.780
51528W        W23854  10.843  44.987  14.485
51529W        W23855   3.254  35.948   1.190
51530W        W23856   0.333  38.669   4.158
51531W        W23857  22.054  11.075  12.248
51532W        W23858  21.601  24.481  13.375
51533W        W23859   9.689   7.864   0.359
51534W        W23860  19.334  21.187   1.407
51535W        W23861  37.303  21.207  12.984
51536W        W23862   9.064   4.102   3.827
51537W        W23863  24.195  22.501   0.726
51538W        W23864  15.241  10.963  11.018
51539W        W23865  19.116  19.502   1.340
51540W        W23866  31.697  12.712  14.709
51541W        W23867  40.859  18.182   1.022
51542W        W23868   4.318  31.083   4.635
51543W        W23869   8.308   0.348   2.482
51544W        W23870   7.539   5.171   2.300
51545W        W23871  26.964  37.327  11.907
51546W        W23872  33.833  30.574  13.410
51547W        W23873  27.754  31.215  10.781
51548W        W23874   2.338  42.113  14.452
51549W        W23875  23.614  35.003  10.558
51550W        W23876  32.032  28.681  14.073
51551W        W23877  34.788  43.112  13.409
51552W        W23878  44.968  12.638   2.164
51553W        W23879  15.076  16.238   2.750
51554W        W23880   8.137  35.587   1.637
51555W        W23881  18.302  35.420  12.963
51556W        W23882  11.794  16.219   4.727
51557W        W23883  21.515  40.398   4.952
51558W        W23884  11.820  17.642   0.177
51559W        W23885   4.320  31.132   3.764
51560W        W23886  29.581  22.152   2.717
51561W        W23887  32.467  33.483  11.429
51562W        W23888  42.791  44.081   0.251
51563W        W23889  11.410  15.439   1.634
51564W        W23890  18.144  20.213  13.372
51565W        W23891  19.052  43.671   3.355
51566W        W23892  18.643   8.950  13.036
51567W        W23893  33.659  22.755   1.381
51568W        W23894   0.984   3.845   4.084
51569W        W23895  12.716   0.002   2.602
51570W        W23896  14.819  42.919   3.322
51571W        W23897  36.587  23.412  14.861
51572W        W23898  36.025  34.506  10.576
51573W        W23899  29.864  44.450   3.740
51574W        W23900  16.448  30.129   2.691
51575W        W23901  29.917  28.625   3.725
51576W        W23902   7.137  19.515   2.845
51577W        W23903  13.226   1.585   3.642
51578W        W23904  44.372   1.446   4.684
51579W        W23905  39.225   0.944   1.932
51580W        W23906  11.644  10.264  14.064
51581W        W23907   8.112  39.951  13.380
51582W        W23908   1.223   2.799  12.577
51583W        W23909  20.929  40.288   3.375
51584W        W23910  25.145  40.064   1.685
51585W        W23911  22.932  26.911   2.848
51586W        W23912  33.062   2.612   2.873
51587W        W23913  22.767  13.042   0.307
51588W        W23914  10.852  35.957   2.623
51589W        W23915   6.439   1.134  11.678
51590W        W23916  19.716  16.883   0.798
51591W        W23917  28.212  32.542  11.238
51592W        W23918  26.671   4.055  10.571
51593W        W23919  29.114  19.997  12.066
51594W        W23920  39.594  40.012  14.897
51595W        W23921  33.388  25.497   0.281
51596W        W23922  32.380  21.079  10.645
51597W        W23923  17.222   4.498  11.561
51598W        W23924  40.755  41.309   3.299
51599W        W23925  29.773  28.641   0.265
51600W        W23926   6.314   7.437  12.319
51601W        W23927   4.623  31.165  14.526
51602W        W23928  13.959  17.557   1.664
51603W        W23929  12.786  28.678  12.830
51604W        W23930   1.770   6.852   2.309
51605W        W23931   7.347  11.301  13.559
51606W        W23932  24.551   5.489  11.473
51607W        W23933  42.962  20.574   0.165
51608W        W23934   3.685  10.601  12.028
51609W        W23935  21.698  22.471   1.401
51610W        W23936  13.941  43.096   5.107
51611W        W23937  26.495  34.691   3.230
51612W        W23938  43.892  42.403   3.942
51613W        W23939  13.844  22.848   1.883
51614W        W23940  15.749  41.251  11.446
51615W        W23941  30.034  11.822   2.877
51616W        W23942  16.260  41.133   1.775
51617W        W23943  13.649  10.842  11.107
51618W        W23944   5.679  13.595   1.861
51619W        W23945  34.533  14.628  12.496
51620W        W23946  34.512  31.543  11.216
51621W        W23947  44.456   8.193   0.584
51622W        W23948  22.094  17.234  13.687
51623W        W23949  28.640  36.586   0.372
51624W        W23950   5.168  34.808   3.345
51625W        W23951   4.402   9.739   9.644
51626W        W23952   8.415  18.316  14.064
51627W        W23953  13.742   6.919   1.801
51628W        W23954   8.765   7.740   2.829
51629W        W23955   7.462  12.426  11.147
51630W        W23956  41.070  20.107  12.351
51631W        W23957   4.180  15.837   1.808
51632W        W23958  38.283  39.076  13.492
51633W        W23959  14.102   0.996   3.723
51634W        W23960  22.227  19.451   3.907
51635W        W23961   5.331  32.145   2.099
51636W        W23962  12.168  24.399   5.122
51637W        W23963  12.764  37.139  13.054
51638W        W23964  24.827  44.659   2.222
51639W        W23965  43.393  11.864   0.675
51640W        W23966   9.441  37.098  12.042
51641W        W23967  43.173  37.951   4.200
51642W        W23968  34.769  24.415   4.156
51643W        W23969  19.071  16.296   3.236
51644W        W23970  30.924  18.641   1.224
51645W        W23971  18.709   8.671  12.609
51646W        W23972  30.868   0.300  12.523
51647W        W23973  12.290  18.442   0.302
51648W        W23974  19.600  15.732  13.973
51649W        W23975   4.860  22.155  10.214
51650W        W23976  29.049  17.737   0.476
51651W        W23977  40.768  22.110   2.888
51652W        W23978  22.487  20.615  14.849
51653W        W23979  23.054   0.970   4.036
51654W        W23980  20.209  25.494  11.287
51655W        W23981  33.982   4.219  10.874
51656W        W23982  36.957  40.865   3.066
51657W        W23983  17.444  42.997   4.161
51658W        W23984  19.801  40.850   3.269
51659W        W23985  36.444  35.253  11.544
51660W        W23986  26.991   7.719   0.451
51661W        W23987  16.247   1.450   4.262
51662W        W23988  24.067   1.044  12.099
51663W        W23989  25.493  43.217   0.781
51664W        W23990  38.421  20.553   4.476
51665W        W23991  34.565  27.597   4.443
51666W        W23992  31.403  23.564  12.680
51667W        W23993   9.558   0.575  10.703
51668W        W23994   4.857  21.292  13.793
51669W        W23995  43.291   8.534  14.441
51670W        W23996  30.756  24.199  14.316
51671W        W23997  20.547  15.678   4.747
51672W        W23998  16.334  26.264   3.669
51673W        W23999  12.849  43.238  12.491
51674W        W24000   0.941  11.696   2.713
51675W        W24001  28.395  23.984   4.101
51676W        W24002   2.274  13.202   1.017
51677W        W24003  40.470  36.467  12.877
51678W        W24004   2.644  15.604   4.597
51679W        W24005  30.764   5.024   2.479
51680W        W24006  17.232  41.408   2.354
51681W        W24007  37.708  38.878   3.362
51682W        W24008  39.930  10.892  12.533
51683W        W24009  11.151   7.727   3.354
51684W        W24010   3.821   6.124  13.044
51685W        W24011  20.558  21.525   3.881
51686W        W24012  42.867   0.942  11.855
51687W        W24013  19.107  28.335  12.622
51688W        W24014   4.190   9.145  10.402
51689W        W24015   1.521  35.975  11.579
51690W        W24016  24.262   3.356  11.061
51691W        W24017  21.312  35.432  10.642
51692W        W24018  18.133   8.223   1.807
51693W        W24019  25.231   8.458   1.902
51694W        W24020   9.246   1.173   2.999
51695W        W24021   3.792  25.195  13.507
51696W        W24022  41.052   3.229  13.046
51697W        W24023  20.101  29.132  13.458
51698W        W24024  42.442   6.689  13.107
51699W        W24025   3.871  41.390  14.047
51700W        W24026  23.884  11.105  11.923
51701W        W24027  40.156  27.434  12.867
51702W        W24028  18.576  21.979   4.679
51703W        W24029   6.810  34.887  10.423
51704W        W24030  35.264  43.467  11.881
51705W        W24031  31.665  23.436   3.676
51706W        W24032  15.241  21.019  14.855
51707W        W24033   5.908   7.954   0.839
51708W        W24034   6.566  35.385   3.014
51709W        W24035  21.803  30.904   4.262
51710W        W24036   4.879  30.427   1.960
51711W        W24037  35.441  19.179   4.685
51712W        W24038  13.134   9.159   0.388
51713W        W24039  38.964   7.029   4.412
51714W        W24040  18.118  23.441   4.139
51715W        W24041   3.044  33.424   4.155
51716W        W24042  20.604  35.497  10.860
51717W        W24043  23.707  34.768  13.884
51718W        W24044  12.222   8.807   2.861
51719W        W24045  33.779  12.890  13.782
51720W        W24046  16.805   6.756   1.908
51721W        W24047  29.288  35.314   1.353
51722W        W24048  32.669   8.272  11.506
51723W        W24049  35.100  26.882   3.546
51724W        W24050  42.446  13.135   3.503
51725W        W24051  11.093  27.767   1.806
51726W        W24052  35.633   2.849   1.797
51727W        W24053  12.420  41.554   1.811
51728W        W24054  20.468  13.672   0.653
51729W        W24055  22.591  26.669  10.300
51730W        W24056  26.853  28.126   5.418
51731W        W24057  39.655   5.811  12.548
51732W        W24058   7.218  27.638   0.482
51733W        W24059  35.371  10.721   5.475
51734W        W24060  32.682  19.577  12.511
51735W        W24061  28.971  11.429   3.313
51736W        W24062  36.078   4.238  11.976
51737W        W24063  12.260  32.019   1.850
51738W        W24064  23.544   0.355  14.473
51739W        W24065  22.896   7.208   4.262
51740W        W24066   2.418  38.077   3.997
51741W        W24067  16.050   1.297   2.898
51742W        W24068  26.276  44.957  11.080
51743W        W24069   0.920  25.711   3.827
51744W        W24070  23.595  40.321   0.079
51745W        W24071  42.968  15.783   1.511
51746W        W24072   0.779  14.577  12.807
51747W        W24073  11.704  30.058  12.857
51748W        W24074   1.437  33.112   0.352
51749W        W24075  21.536  30.945   0.018
51750W        W24076  12.344  44.066   1.667
51751W        W24077  11.714  36.668  14.526
51752W        W24078  13.658  11.558  11.610
51753W        W24079  32.870   6.836  14.484
51754W        W24080  40.443  26.183  11.711
51755W        W24081   2.885   6.203   2.035
51756W        W24082  10.925  42.806  11.149
51757W        W24083  34.364  19.291  14.446
51758W        W24084  40.422   3.705  14.858
51759W        W24085  25.454  26.976  14.611
51760W        W24086   1.225  11.213   5.120
51761W        W24087   1.729  38.406  13.425
51762W        W24088  22.477  43.668  12.945
51763W        W24089   3.026  22.731  12.884
51764W        W24090   0.423  19.786   0.962
51765W        W24091  31.053  11.420  14.927
51766W        W24092  27.984  44.705   2.399
51767W        W24093   5.820  21.823   4.254
51768W        W24094   8.723   6.837   3.116
51769W        W24095   9.562  25.224   0.142
51770W        W24096  24.052   3.537   3.694
51771W        W24097  19.064  18.441   3.631
51772W        W24098  39.901   4.369   0.880
51773W        W24099  42.460   8.219  12.834
51774W        W24100  20.059  42.723  14.478
51775W        W24101  24.651  38.871   2.801
51776W        W24102  20.189  14.023   1.472
51777W        W24103   8.716  26.986  10.324
51778W        W24104  33.099  40.979  13.506
51779W        W24105   7.576  16.063  12.403
51780W        W24106  44.512  19.173   1.545
51781W        W24107  12.838   3.824  13.673
51782W        W24108  33.513  22.220  10.883
51783W        W24109   5.428  12.604   4.625
51784W        W24110  33.493  22.258  11.426
51785W        W24111   8.701  15.888   3.644
51786W        W24112   3.092  20.755  14.040
51787W        W24113  26.898   5.416   2.663
51788W        W24114  27.089  28.692   0.435
51789W        W24115  37.959   6.831   1.745
51790W        W24116  29.110  24.726  13.963
51791W        W24117  17.354   8.627  14.733
51792W        W24118  22.578  44.711   0.340
51793W        W24119   2.865  36.712   3.077
51794W        W24120  25.246  26.134  12.061
51795W        W24121  40.878  27.996  11.407
51796W        W24122  10.267  28.968  13.320
51797W        W24123  44.844  29.548   4.638
51798W        W24124  43.809   1.882  11.721
51799W        W24125   0.038  32.549  11.268
51800W        W24126  18.107  40.986   3.762
51801W        W24127  18.612   9.070  11.669
51802W        W24128  14.600  30.167   3.129
51803W        W24129  20.796  40.996  13.528
51804W        W24130   5.627   9.816   4.102
51805W        W24131  10.594  14.042  12.888
51806W        W24132  11.701  32.912   0.012
51807W        W24133   8.737  11.602  14.897
51808W        W24134  11.288  30.559  11.643
51809W        W24135  14.145  33.078   3.283
51810W        W24136  40.273  23.807   3.460
51811W        W24137  17.046  38.613   3.343
51812W        W24138   8.378  23.135  10.639
51813W        W24139  27.968  44.889   2.894
51814W        W24140  13.180  41.092   0.726
51815W        W24141   0.466  36.526   1.341
51816W        W24142  43.739  18.596  14.298
51817W        W24143  11.594   3.444   2.297
51818W        W24144   5.458  21.673  14.684
51819W        W24145  25.013  12.307   4.692
51820W        W24146  41.899  41.830   2.594
51821W        W24147  15.566  14.284  12.118
51822W        W24148  44.347   9.393   3.827
51823W        W24149  23.318  32.846   3.159
51824W        W24150   8.889  24.146  12.098
51825W        W24151  30.668  21.672   1.414
51826W        W24152  15.546  12.839  12.948
51827W        W24153   6.804   7.823   3.633
51828W        W24154  11.331  33.189   2.831
51829W        W24155  44.106  21.163   4.166
51830W        W24156   7.603  43.864   3.108
51831W        W24157  37.546  39.083  11.055
51832W        W24158  43.323  28.534  14.337
51833W        W24159  34.129  42.340   4.464
51834W        W24160  25.093  39.718  12.277
51835W        W24161  10.243  29.849   1.328
51836W        W24162  37.844  36.777   4.165
51837W        W24163  17.200   1.058   4.589
51838W        W24164  17.169  20.755  14.724
51839W        W24165   9.836  27.176  13.436
51840W        W24166  32.530  20.732   0.959
51841W        W24167  13.620  36.760   2.763
51842W        W24168  16.983  40.215   5.062
51843W        W24169  27.664  38.806  13.822
51844W        W24170  19.261  26.983  14.675
51845W        W24171  35.071  31.893   1.731
51846W        W24172  38.855  17.400   3.769
51847W        W24173  25.567  18.214  13.860
51848W        W24174  31.005  30.438  12.690
51849W        W24175  17.581   3.236   3.757
51850W        W24176  16.268  17.557   3.087
51851W        W24177  23.735  15.885   0.866
51852W        W24178  30.140  36.561  14.361
51853W        W24179  39.011   6.860   0.374
51854W        W24180  44.330  36.538   2.632
51855W        W24181  29.234  19.174  10.590
51856W        W24182  22.001  16.183  10.272
51857W        W24183  44.901  12.127  14.517
51858W        W24184  37.479  29.641   4.451
51859W        W24185   4.316  26.658  13.404
51860W        W24186   5.630  13.792   3.371
51861W        W24187   5.941  13.797  12.439
51862W        W24188   5.680  23.696   4.040
51863W        W24189  17.365   8.310  11.986
51864W        W24190  37.829  43.833   4.366
51865W        W24191  24.713   9.745   0.057
51866W        W24192   4.453  18.212  12.431
51867W        W24193  30.899  10.469  11.069
51868W        W24194  16.521  30.445  12.547
51869W        W24195  25.056  20.513   2.832
51870W        W24196  31.443  19.217  11.966
51871W        W24197  15.196  38.619  12.532
51872W        W24198   7.963  31.573   0.109
51873W        W24199  38.491  25.250   1.376
51874W        W24200  35.897  24.212  13.783
51875W        W24201  33.458   3.709  13.321
51876W        W24202  39.446  24.980  12.416
51877W        W24203   5.667   6.709   4.874
51878W        W24204  23.626   9.099  12.894
51879W        W24205  25.619  20.706  10.047
51880W        W24206  10.814  10.559   4.644
51881W        W24207  22.987  16.600  11.667
51882W        W24208  28.722  23.628   1.896
51883W        W24209   7.183  24.117   4.662
51884W        W24210  36.315   4.852   2.278
51885W        W24211   8.729  15.228   4.126
51886W        W24212  17.662  29.503   1.017
51887W        W24213  41.280   7.172   1.360
51888W        W24214   0.405  29.054  12.415
51889W        W24215   6.786   8.265   3.888
51890W        W24216   7.168  10.394  11.034
51891W        W24217   9.699  17.317  12.524
51892W        W24218  22.323  22.502   2.309
51893W        W24219  35.627  18.842  13.951
51894W        W24220  33.680  24.999   3.298
51895W        W24221  23.741   5.054  14.453
51896W        W24222  38.852   7.369   1.257
51897W        W24223  11.724   6.911  12.516
51898W        W24224  27.719   0.676  10.895
51899W        W24225  38.739  42.419  10.819
51900W        W24226  36.352  28.607  14.426
51901W        W24227  27.378  28.569  14.666
51902W        W24228  24.947  31.662   1.941
51903W        W24229  43.304  26.510  14.883
51904W        W24230   3.536   3.011   1.215
51905W        W24231  13.697   8.346   4.393
51906W        W24232   5.171  44.288   3.280
51907W        W24233  29.062  34.300   0.165
51908W        W24234  11.390  39.044   0.378
51909W        W24235   8.254   8.327   3.167
51910W        W24236   2.671  40.731   2.552
51911W        W24237   4.499  44.847   4.642
51912W        W24238   1.021  35.814  11.499
51913W        W24239  11.587  40.380  13.928
51914W        W24240  27.679  32.924   4.036
51915W        W24241  22.912  22.672  11.996
51916W        W24242  32.918  34.174   0.525
51917W        W24243   0.041  25.193   0.744
51918W        W24244  37.547   6.757   3.663
51919W        W24245  44.242  14.000  13.031
51920W        W24246  35.044  43.477   1.822
51921W        W24247  39.312  36.636   1.251
51922W        W24248  20.232   0.414   0.418
51923W        W24249  21.342  20.614   0.443
51924W        W24250  39.202  41.315  10.751
51925W        W24251  17.650  26.595   4.215
51926W        W24252  28.406  12.190  13.373
51927W        W24253  37.904  15.807   2.658
51928W        W24254  27.641  32.601   3.143
51929W        W24255  32.587  18.939   3.107
51930W        W24256  28.549  24.711  12.036
51931W        W24257  31.564  23.601  14.237
51932W        W24258  43.298  37.921   2.357
51933W        W24259  43.949  27.631  13.395
51934W        W24260   8.909  31.086   3.212
51935W        W24261  24.051  39.592  10.688
51936W        W24262  39.895  10.662   4.462
51937W        W24263  21.284   1.304  13.391
51938W        W24264  25.625  19.247   0.290
51939W        W24265  33.411  44.345  12.508
51940W        W24266   8.748  18.588   0.683
51941W        W24267  10.707  13.018   4.679
51942W        W24268  35.028  19.181   3.147
51943W        W24269   7.327  32.466  14.525
51944W        W24270  16.191  26.124  11.891
51945W        W24271  40.825  19.694  12.173
51946W        W24272  13.566   3.096  12.424
51947W        W24273   6.623  40.030   1.178
51948W        W24274  36.974  34.586   4.574
51949W        W24275  27.153   5.807   2.413
51950W        W24276  26.120   3.781   1.528
51951W        W24277  37.804  35.603  11.188
51952W        W24278  40.302  28.975  14.365
51953W        W24279  30.190  43.968   2.342
51954W        W24280  22.077  34.591   2.629
51955W        W24281  17.414   1.742  11.977
51956W        W24282  19.772  20.690   2.356
51957W        W24283  17.661  23.357  13.564
51958W        W24284  23.542  17.142   4.819
51959W        W24285   3.849   2.786  11.529
51960W        W24286  38.489  38.929  12.039
51961W        W24287   1.369  25.531  13.912
51962W        W24288   7.992  20.180   1.001
51963W        W24289   0.068  11.849  11.139
51964W        W24290  40.501  22.455  10.842
51965W        W24291   2.649   5.989   0.980
51966W        W24292  27.027  18.665  14.799
51967W        W24293  15.593   9.812   3.883
51968W        W24294  17.165  15.260  11.229
51969W        W24295  27.369   7.392   0.549
51970W        W24296  36.637  37.577   4.084
51971W        W24297   2.682  15.588  10.195
51972W        W24298   3.086   4.885  12.359
51973W        W24299  30.151  17.979   2.391
51974W        W24300   9.129  35.335  14.113
51975W        W24301  19.707  12.520   1.740
51976W        W24302  24.174  12.006   1.855
51977W        W24303  35.312  34.409   0.916
51978W        W24304  18.079  14.794  14.436
51979W        W24305  10.339  36.031  12.902
51980W        W24306  19.064  19.399   3.612
51981W        W24307  12.640  31.728  11.191
51982W        W24308  39.818  38.989   4.527
51983W        W24309  24.166  33.920   4.104
51984W        W24310  25.523  25.976  14.459
51985W        W24311  27.041  12.681   3.694
51986W        W24312  15.970   8.234  11.955
51987W        W24313  38.688   7.715   2.193
51988W        W24314   6.983  29.891  13.452
51989W        W24315  20.655  26.170   4.235
51990W        W24316  13.559   2.220  14.872
51991W        W24317   8.398  30.905   4.088
51992W        W24318  34.703  17.646   4.131
51993W        W24319  17.144  34.488   4.363
51994W        W24320  36.057  38.679   3.399
51995W        W24321  10.808  43.981   3.104
51996W        W24322  36.424  35.319  13.977
51997W        W24323  38.134  28.182   4.732
51998W        W24324  37.326   1.428  14.200
51999W        W24325  43.447  32.524   1.990
52000W        W24326  44.360  28.181  11.525
52001W        W24327  40.542  24.129  13.557
52002W        W24328   7.726  17.616  11.613
52003W        W24329   8.769  36.071  12.899
52004W        W24330  11.261   3.132  11.384
52005W        W24331  21.859   8.080   0.263
52006W        W24332  31.972  36.463  14.904
52007W        W24333   6.537  24.473  10.730
52008W        W24334   8.633  10.319  14.309
52009W        W24335   5.704  20.309   0.878
52010W        W24336  42.970  21.102   2.842
52011W        W24337  10.187  16.371  14.947
52012W        W24338  13.748   5.880   0.358
52013W        W24339  10.184  33.642   1.426
52014W        W24340  26.909  18.885  11.538
52015W        W24341  37.540  44.409  11.691
52016W        W24342   0.388  33.055  10.712
52017W        W24343  37.788  29.474   4.075
52018W        W24344  39.417   1.781  11.965
52019W        W24345   3.560  36.360   0.194
52020W        W24346  38.946   6.151  11.829
52021W        W24347  34.027   7.661  12.104
52022W        W24348  36.181  23.040   1.224
52023W        W24349   5.285  10.154  12.870
52024W        W24350   3.029  35.063   4.458
52025W        W24351  34.649  24.032   0.675
52026W        W24352  30.381   4.771   2.110
52027W        W24353  34.192  28.688   1.845
52028W        W24354  29.666  25.392   3.937
52029W        W24355  28.174  41.719  12.994
52030W        W24356   7.305   3.709  11.114
52031W        W24357  22.839   3.931   2.012
52032W        W24358   6.563  10.730  14.019
52033W        W24359   1.735  36.105   2.412
52034W        W24360  21.109  39.821   3.404
52035W        W24361  29.330  36.343  10.441
52036W        W24362  17.303  10.649   2.397
52037W        W24363   4.188  21.725  14.418
52038W        W24364  28.924   4.477  11.285
52039W        W24365  16.777  11.104   4.560
52040W        W24366  31.195  16.230   3.206
52041W        W24367  15.814  43.805  11.932
52042W        W24368  34.419  18.103   4.178
52043W        W24369  30.599   1.877   3.711
52044W        W24370  25.578  17.449  10.985
52045W        W24371  23.007  32.827  11.145
52046W        W24372  19.556   9.315   4.464
52047W        W24373  23.498  15.615  14.759
52048W        W24374  36.884  35.565   0.747
52049W        W24375  41.670  43.386  10.889
52050W        W24376  28.237   0.820  10.881
52051W        W24377  12.149  38.093  12.221
52052W        W24378  31.941  31.033  10.640
52053W        W24379  44.938  39.736   1.774
52054W        W24380  11.756   2.697   4.295
52055W        W24381  27.166  14.691  13.448
52056W        W24382  44.299  25.148  11.587
52057W        W24383  12.132   1.352   1.746
52058W        W24384  33.192  27.559   3.680
52059W        W24385  38.058  26.468  13.930
52060W        W24386  36.603   6.956   4.065
52061W        W24387  30.073  10.540   2.198
52062W        W24388  33.428  36.520   1.700
52063W        W24389   7.115  12.825  11.085
52064W        W24390   1.194  27.928   4.258
52065W        W24391  35.909  20.685   4.912
52066W        W24392  37.921  29.650   1.681
52067W        W24393   7.831  36.124  11.198
52068W        W24394   2.736  27.766   4.062
52069W        W24395  15.864   1.969   0.880
52070W        W24396  28.227  20.158   0.928
52071W        W24397   5.279  32.652   0.789
52072W        W24398  36.041  35.457   5.052
52073W        W24399  24.325  33.553   1.044
52074W        W24400  12.748  11.071  11.548
52075W        W24401   4.318  14.167  14.562
52076W        W24402   2.570  44.229   0.255
52077W        W24403  39.056  35.525  10.768
52078W        W24404  34.978  22.074  11.961
52079W        W24405   9.233   2.512   2.340
52080W        W24406   5.839  10.832  14.759
52081W        W24407  39.624  37.476  11.064
52082W        W24408  36.009  26.445   2.208
52083W        W24409  37.382   1.298   3.834
52084W        W24410  44.543  43.614  14.468
52085W        W24411  21.050  38.977   1.649
52086W        W24412   4.768  17.738  12.406
52087W        W24413  32.646  16.463  13.892
52088W        W24414  15.605   7.372  13.382
52089W        W24415  44.388  18.106  11.120
52090W        W24416   7.964  22.250   1.976
52091W        W24417  36.952  34.025  14.407
52092W        W24418  41.439  31.115  11.283
52093W        W24419   3.351  27.249   3.624
52094W        W24420   1.093   1.473  10.753
52095W        W24421  29.564  22.153   1.709
52096W        W24422  19.715   8.803   4.533
52097W        W24423  33.939  19.553   2.137
52098W        W24424  25.747  15.295   4.652
52099W        W24425  43.245  11.244   3.673
52100W        W24426   4.949  39.949   2.116
52101W        W24427  38.429  29.028  10.558
52102W        W24428  16.759   0.758   1.003
52103W        W24429  13.681   8.197  14.040
52104W        W24430  44.999  20.978   1.189
52105W        W24431  42.236   4.720  14.941
52106W        W24432  42.798   6.922   4.177
52107W        W24433  18.662  20.571  11.055
52108W        W24434  12.311  15.482   4.847
52109W        W24435   3.184  11.093  10.224
52110W        W24436  11.144  42.729  14.802
52111W        W24437  26.719  29.042  12.075
52112W        W24438   7.908  40.817   4.738
52113W        W24439   0.914  22.755   3.446
52114W        W24440  25.931   8.370   1.281
52115W        W24441  10.356  26.781   3.644
52116W        W24442   4.991   1.104  12.683
52117W        W24443  23.363  17.349   2.700
52118W        W24444  27.884  26.527  12.393
52119W        W24445  24.161  35.967   0.762
52120W        W24446  30.920  41.339   3.716
52121W        W24447  21.139  30.067   4.603
52122W        W24448   3.905  24.134   1.592
52123W        W24449  22.511   0.888  12.970
52124W        W24450  27.197  31.978   1.747
52125W        W24451  24.178  26.530  10.693
52126W        W24452  10.300  44.570   3.221
52127W        W24453  16.889   6.776  11.032
52128W        W24454  10.610   1.756  10.751
52129W        W24455  25.946   8.992  14.676
52130W        W24456   3.047  27.458   2.325
52131W        W24457  27.748   4.881   0.824
52132W        W24458  11.209  40.038  14.334
52133W        W24459  28.701   1.931  13.325
52134W        W24460   8.861  24.633  11.363
52135W        W24461  33.983   1.692   2.661
52136W        W24462  21.705  16.645   0.315
52137W        W24463  30.478   4.309   2.816
52138W        W24464  34.469  15.083  14.833
52139W        W24465  31.418   1.166   2.701
52140W        W24466  11.204  35.426  14.423
52141W        W24467  22.549  33.066  12.951
52142W        W24468  39.941  42.390   3.004
52143W        W24469  42.527  43.609  10.826
52144W        W24470  30.040  39.491   4.387
52145W        W24471  16.247  30.626   2.206
52146W        W24472  35.618  34.429   3.749
52147W        W24473  34.423  25.844  11.030
52148W        W24474  26.985  41.517   0.976
52149W        W24475  34.503  31.814  11.655
52150W        W24476  42.265  30.721   2.385
52151W        W24477  22.597  21.981   2.099
52152W        W24478  20.536   3.801  13.659
52153W        W24479  26.213  33.422   0.280
52154W        W24480  40.428  20.310   2.291
52155W        W24481  12.095  10.244   2.090
52156W        W24482  21.609  27.409  12.503
52157W        W24483  16.750  41.914   0.280
52158W        W24484  32.996  28.620   2.348
52159W        W24485  41.981   3.190  13.825
52160W        W24486  13.061   3.467   3.255
52161W        W24487   5.839  38.591  11.528
52162W        W24488  27.406  39.868  12.031
52163W        W24489   1.278   1.176  11.147
52164W        W24490  17.211  16.275  12.081
52165W        W24491  36.465  22.469   2.652
52166W        W24492  32.899   7.091   4.284
52167W        W24493  15.354  22.464  14.910
52168W        W24494  33.616  29.014   1.398
52169W        W24495  31.493  34.896  11.409
52170W        W24496  26.746  13.593   2.731
52171W        W24497  21.465   9.430  11.138
52172W        W24498  20.670  26.468  13.413
52173W        W24499  16.823  28.103  14.494
52174W        W24500  28.439   5.678  14.805
52175W        W24501   2.545  31.558   0.438
52176W        W24502  13.901  32.576  11.525
52177W        W24503  28.664  28.454   3.240
52178W        W24504  12.379  23.419  11.625
52179W        W24505  14.722   5.249   1.200
52180W        W24506   6.166  43.027  13.041
52181W        W24507  36.554  17.790   4.167
52182W        W24508  33.856  32.821   0.499
52183W        W24509  34.434  44.386  11.402
52184W        W24510  22.576  40.392  11.975
52185W        W24511  40.939  32.339   0.666
52186W        W24512  44.307   0.285   4.619
52187W        W24513  11.632  27.096  12.412
52188W        W24514  44.398   5.475  13.924
52189W        W24515  29.036  24.487   3.119
52190W        W24516   4.878  23.836  13.492
52191W        W24517  37.991  25.805   0.768
52192W        W24518  26.148  29.870   4.163
52193W        W24519  36.825  26.696  14.411
52194W        W24520  38.648  41.671  14.945
52195W        W24521  31.121   3.336   1.223
52196W        W24522   9.298   6.770  14.878
52197W        W24523  40.986  44.797   2.460
52198W        W24524  37.218   9.120   2.262
52199W        W24525  39.464  38.169   4.159
52200W        W24526   4.631  22.448   2.770
52201W        W24527  40.522  13.721  10.767
52202W        W24528  25.166  17.272  13.433
52203W        W24529   5.966  11.419   3.287
52204W        W24530   2.965   6.921  10.724
52205W        W24531   7.739   7.588   3.264
52206W        W24532  43.292   3.971   0.408
52207W        W24533  33.369  17.664  10.626
52208W        W24534   3.421  18.343  14.046
52209W        W24535  27.237  11.133  13.080
52210W        W24536  24.097   8.447   2.686
52211W        W24537  15.119   0.629  13.496
52212W        W24538   6.273  44.969   0.014
52213W        W24539  22.584  27.888  11.555
52214W        W24540  22.971  25.084  10.922
52215W        W24541  34.578  34.657   1.993
52216W        W24542  44.245   1.324   1.751
52217W        W24543  23.221  13.545   2.243
52218W        W24544  21.463  19.151   1.124
52219W        W24545  41.590  16.716  12.824
52220W        W24546  17.024  15.364  11.696
52221W        W24547  12.747  36.816   2.822
52222W        W24548   1.772  30.173  10.681
52223W        W24549  10.706  42.330  11.589
52224W        W24550   4.803   1.361   3.991
52225W        W24551  32.548   4.704  14.448
52226W        W24552  10.323   1.438   1.630
52227W        W24553  40.784  29.640  13.934
52228W        W24554  43.923   2.837   3.946
52229W        W24555  37.848  34.865   4.493
52230W        W24556   3.346   5.405  13.063
52231W        W24557  29.045   4.385  14.795
52232W        W24558  32.206  14.132   4.606
52233W        W24559   5.461   2.691  13.339
52234W        W24560   7.808  26.471   1.328
52235W        W24561  19.966  17.062   1.231
52236W        W24562  28.033  11.259  10.688
52237W        W24563  25.715  18.809   3.080
52238W        W24564  33.908  41.371   0.156
52239W        W24565  18.863  41.789   3.149
52240W        W24566   7.178   5.330  14.179
52241W        W24567  42.433   6.159  13.122
52242W        W24568   4.957   4.314  13.458
52243W        W24569   7.627  26.671   5.026
52244W        W24570  44.532  10.810   4.111
52245W        W24571  37.133  26.248   0.810
52246W        W24572   0.247  17.814   3.155
52247W        W24573  42.764  22.463   4.350
52248W        W24574  17.258  35.606  13.451
52249W        W24575   0.631   1.250   1.139
52250W        W24576  28.001   0.055   0.066
52251W        W24577   6.240   4.678  11.440
52252W        W24578  13.134   6.409   0.027
52253W        W24579  37.424   4.835   4.078
52254W        W24580  30.379  39.475   1.850
52255W        W24581  42.730  37.956  12.493
52256W        W24582  17.137  18.567   3.385
52257W        W24583  41.331  25.447   4.119
52258W        W24584  27.260  20.660  11.575
52259W        W24585  15.250   1.000  13.822
52260W        W24586  20.091  10.807  12.073
52261W        W24587  43.959  14.288  14.370
52262W        W24588   2.815  12.385   3.284
52263W        W24589  19.178  40.806   0.016
52264W        W24590  35.140  32.527   2.790
52265W        W24591  40.309  33.339  10.213
52266W        W24592  24.591  18.998  14.352
52267W        W24593  10.387  34.983   0.753
52268W        W24594   0.452  18.617  14.373
52269W        W24595   9.374  22.760  11.973
52270W        W24596  25.203  29.992  10.391
52271W        W24597  37.962  39.581  11.638
52272W        W24598  19.265  43.132  12.787
52273W        W24599   7.117  40.426  12.006
52274W        W24600  22.732  31.438   2.383
52275W        W24601  37.253  16.790   2.897
52276W        W24602  31.428  10.851  12.654
52277W        W24603  36.796  31.710  13.339
52278W        W24604   1.668   5.573  12.332
52279W        W24605  18.701  43.727   0.330
52280W        W24606   3.545  36.802   3.581
52281W        W24607   0.533   1.711  11.550
52282W        W24608  30.216  23.142  12.790
52283W        W24609  16.837  20.454   1.472
52284W        W24610   5.726  13.144  11.194
52285W        W24611  18.484   2.376  11.503
52286W        W24612  13.638   4.283   3.652
52287W        W24613  43.482  13.614  14.377
52288W        W24614  13.354  37.926   2.748
52289W        W24615  27.981  26.572  13.722
52290W        W24616  29.480  27.150  12.870
52291W        W24617  38.850  44.026  14.025
52292W        W24618  24.276  30.943   4.518
52293W        W24619   3.495   2.916  10.270
52294W        W24620  33.069  35.146   5.199
52295W        W24621  41.297  28.251   1.447
52296W        W24622  15.092  28.191  12.431
52297W        W24623   7.155  39.335  10.585
52298W        W24624   0.143  40.267   4.524
52299W        W24625  35.553  44.723   3.327
52300W        W24626   2.182  37.035   2.933
52301W        W24627  35.108   9.145  12.929
52302W        W24628  12.880  16.750  11.119
52303W        W24629  26.595   9.239  11.712
52304W        W24630  39.919  30.359  14.670
52305W        W24631  12.164   2.682  12.452
52306W        W24632  11.884  29.179  14.413
52307W        W24633  32.660  33.516   3.787
52308W        W24634   3.338  35.889   1.699
52309W        W24635  37.779  25.120  12.554
52310W        W24636  34.547  14.013   4.091
52311W        W24637  10.381  43.107  13.503
52312W        W24638  41.710   2.479   4.599
52313W        W24639   0.397  22.988  11.436
52314W        W24640  10.183  26.285   3.582
52315W        W24641  11.287  37.787   1.836
52316W        W24642  18.528  18.209  10.684
52317W        W24643  27.888  34.108   0.707
52318W        W24644   1.654   7.438   1.467
52319W        W24645  44.561  30.451  12.472
52320W        W24646   0.499  10.632   4.229
52321W        W24647  31.046   7.121   2.728
52322W        W24648  22.166   0.711   4.190
52323W        W24649   2.804   4.705   5.104
52324W        W24650  22.462  28.650   4.799
52325W        W24651  26.019  19.482   4.664
52326W        W24652  11.774  20.167   1.866
52327W        W24653   8.912   6.103  13.463
52328W        W24654   7.349  25.016   3.169
52329W        W24655  28.497  24.184  11.664
52330W        W24656   7.987  22.714   3.290
52331W        W24657   0.832  18.496   3.364
52332W        W24658  20.264  39.562   2.885
52333W        W24659   2.953   8.930  11.446
52334W        W24660  39.444  18.102  11.665
52335W        W24661   4.498  22.342   0.434
52336W        W24662   6.688   9.339  13.454
52337W        W24663   9.918   8.982  11.047
52338W        W24664  36.019  13.585  12.456
52339W        W24665  34.978  30.544  12.073
52340W        W24666   0.286  31.643   1.638
52341W        W24667  22.705  24.765   1.913
52342W        W24668  39.127  11.669   1.738
52343W        W24669  29.894   6.333   1.679
52344W        W24670  21.221  37.442  10.226
52345W        W24671  34.024  35.679   5.542
52346W        W24672  18.318  34.841   2.395
52347W        W24673   3.174  16.662   3.294
52348W        W24674   7.832  43.249   1.457
52349W        W24675  13.349   6.781   3.122
52350W        W24676  21.419  37.257   3.691
52351W        W24677  23.174  37.146  12.245
52352W        W24678  16.040   2.171   0.156
52353W        W24679  42.477  17.928  11.680
52354W        W24680  14.253  24.986   4.236
52355W        W24681  19.785  31.505   4.035
52356W        W24682  34.884  42.939   3.853
52357W        W24683  26.455  30.597  13.398
52358W        W24684   0.009  20.518   4.101
52359W        W24685  44.331  31.196   3.271
52360W        W24686  26.268  23.271   0.803
52361W        W24687  37.791  14.597   0.823
52362W        W24688  25.644  44.315   3.140
52363W        W24689  26.640  17.586  12.209
52364W        W24690   9.618  20.981   3.616
52365W        W24691  20.554  16.191   2.655
52366W        W24692   2.337  17.064   1.689
52367W        W24693  14.874  16.651  12.898
52368W        W24694  37.257  20.603  12.504
52369W        W24695   7.754  33.453  13.985
52370W        W24696  15.765  43.976   4.568
52371W        W24697  40.959  40.547  13.566
52372W        W24698  11.837   8.146  11.852
52373W        W24699  30.681  21.700   2.316
52374W        W24700  16.220  14.298  11.478
52375W        W24701   1.298  14.876  14.839
52376W        W24702  17.602  33.488  10.781
52377W        W24703   8.165   8.935  10.696
52378W        W24704  40.917  33.540   1.976
52379W        W24705  42.474  34.550   1.040
52380W        W24706  41.697  10.689   3.867
52381W        W24707   3.619   6.274  12.597
52382W        W24708  39.253  37.999   2.224
52383W        W24709   7.437  18.044  11.637
52384W        W24710  26.883  14.721  11.585
52385W        W24711  25.482  31.722   0.922
52386W        W24712   2.588  21.130   2.843
52387W        W24713  20.092  14.496  14.934
52388W        W24714   3.234  39.727   4.817
52389W        W24715  35.844  19.322  14.405
52390W        W24716  29.032  25.538  13.538
52391W        W24717  39.384  34.108   1.428
52392W        W24718  21.597  32.386  14.358
52393W        W24719  26.765  42.548   2.705
52394W        W24720  17.546  21.347   3.781
52395W        W24721  40.060  43.614  13.078
52396W        W24722  19.662  30.755   0.319
52397W        W24723  37.013  33.630  10.512
52398W        W24724  25.013  40.694   1.230
52399W        W24725  14.710  12.482   0.483
52400W        W24726  15.617  35.070  12.859
52401W        W24727  42.709  31.050  14.825
52402W        W24728   5.392   3.895   4.339
52403W        W24729  41.326  25.006   1.116
52404W        W24730  42.818   4.158  14.259
52405W        W24731   3.614   5.749   4.629
52406W        W24732   8.240  20.737   4.107
52407W        W24733  29.438  18.193  10.770
52408W        W24734   3.568  29.163   0.470
52409W        W24735   0.864  28.742  13.156
52410W        W24736   2.689  29.166   4.191
52411W        W24737   7.870  32.414   2.689
52412W        W24738  38.306  32.998   2.403
52413W        W24739  32.964  44.881   4.060
52414W        W24740  33.225  29.025   1.055
52415W        W24741  30.111  15.746  12.136
52416W        W24742  20.929  19.315  11.672
52417W        W24743   1.984  16.858  11.218
52418W        W24744  30.173   6.474  12.884
52419W        W24745  36.003   4.897   4.350
52420W        W24746  20.670  38.940  12.533
52421W        W24747  39.087  13.177   1.219
52422W        W24748  21.583   3.102   1.388
52423W        W24749   5.351   0.543   1.316
52424W        W24750  34.345  23.790  12.564
52425W        W24751  40.536  37.770   2.689
52426W        W24752  40.019  30.052  11.426
52427W        W24753  41.031  21.840   2.160
52428W        W24754  34.268  28.580  14.434
52429W        W24755  14.660  11.145   2.105
52430W        W24756  29.451   1.727  11.596
52431W        W24757   9.118  28.506   2.168
52432W        W24758  41.558  29.735   2.779
52433W        W24759  27.482  33.974   1.045
52434W        W24760  22.693  20.759   3.398
52435W        W24761  37.978  12.950  14.970
52436W        W24762   4.213  11.749   2.033
52437W        W24763  43.297  42.768   1.860
52438W        W24764  16.862   1.030  11.564
52439W        W24765  17.788  44.662  13.498
52440W        W24766  24.491  27.683  12.514
52441W        W24767  35.802  11.161  14.390
52442W        W24768   9.936  25.631  10.325
52443W        W24769   3.890  42.511  12.426
52444W        W24770  27.792  32.091  10.587
52445W        W24771  39.392  23.401  14.943
52446W        W24772  20.089  34.154  11.040
52447W        W24773  23.984  38.351   3.283
52448W        W24774  20.354  11.313  12.071
52449W        W24775  34.569  24.479   1.296
52450W        W24776  40.774  23.751  11.066
52451W        W24777   4.933  21.167   0.006
52452W        W24778  20.154  20.806  12.401
52453W        W24779  15.793  16.114   4.094
52454W        W24780   3.636  14.400  12.498
52455W        W24781  27.954  37.913  13.969
52456W        W24782   0.142  38.333  14.365
52457W        W24783  31.353  14.158  13.580
52458W        W24784  42.162  24.666   1.308
52459W        W24785  42.523  13.762  11.345
52460W        W24786  11.684  22.919   2.281
52461W        W24787  44.684   2.753  10.669
52462W        W24788  42.815   3.286  14.225
52463W        W24789   7.952  28.555  12.260
52464W        W24790  21.448  33.454   1.739
52465W        W24791  17.242  30.904   3.187
52466W        W24792   8.252   5.757  11.262
52467W        W24793  26.015   2.645   2.838
52468W        W24794  33.855  42.781  11.439
52469W        W24795   9.192  38.588   1.630
52470W        W24796  12.135  23.173   2.677
52471W        W24797  22.284  38.151   1.482
52472W        W24798  38.854  21.087   1.530
52473W        W24799  40.512   8.773   3.143
52474W        W24800   3.984  29.877  11.105
52475W        W24801  15.740  12.204   1.872
52476W        W24802  42.290  41.966   0.781
52477W        W24803  13.127  36.970   1.643
52478W        W24804  37.950  35.128  14.036
52479W        W24805   7.874  19.091   1.370
52480W        W24806  27.023  11.663  12.372
52481W        W24807  17.097  23.171   4.659
52482W        W24808  36.619  36.428   5.238
52483W        W24809  40.443  22.961  10.894
52484W        W24810  43.973  32.950   2.081
52485W        W24811  17.581   7.920  11.401
52486W        W24812  38.686  13.312  13.235
52487W        W24813  19.158  27.700  13.860
52488W        W24814  23.743   5.953  11.113
52489W        W24815  34.315   1.973   2.375
52490W        W24816   4.195  27.038   0.179
52491W        W24817   0.015   2.525  12.590
52492W        W24818  29.393  14.298  10.797
52493W        W24819  36.106  24.044  10.996
52494W        W24820  12.915  39.758  14.412
52495W        W24821  35.833  15.091   3.718
52496W        W24822  20.664  18.058   1.401
52497W        W24823  23.062  23.743   1.219
52498W        W24824  23.232   0.728  12.474
52499W        W24825  39.312   9.187   4.366
52500W        W24826   7.942   9.347   1.065
52501W        W24827  13.017   4.264   0.300
52502W        W24828  35.284  10.835  14.920
52503W        W24829  20.617  33.227  12.905
52504W        W24830  26.780  39.980  11.636
52505W        W24831  27.486  20.510   1.323
52506W        W24832  32.202  26.582  10.819
52507W        W24833  34.522  30.395   4.422
52508W        W24834  12.861  38.846   4.558
52509W        W24835  23.508  42.567  12.895
52510W        W24836  19.977   4.980  14.392
52511W        W24837   5.147  19.984   2.898
52512W        W24838  17.187  16.736  13.057
52513W        W24839  37.137  25.567  12.894
52514W        W24840  33.177  11.740   4.623
52515W        W24841  43.296  26.184  12.605
52516W        W24842   9.623   4.932   4.148
52517W        W24843   0.741   3.327  10.065
52518W        W24844  12.380  31.654   0.390
52519W        W24845  18.519  42.919  13.535
52520W        W24846  29.966  43.477  12.887
52521W        W24847   1.388  33.367   3.196
52522W        W24848  28.070  16.296   2.810
52523W        W24849  22.610   2.932  14.455
52524W        W24850  26.521   6.159   2.445
52525W        W24851  36.570  30.449  11.572
52526W        W24852  43.388  36.950   4.446
52527W        W24853  38.599  11.954   4.156
52528W        W24854  34.388  24.663   3.831
52529W        W24855   2.236   1.168  14.867
52530W        W24856  25.425  21.120  12.028
52531W        W24857  26.750  30.583   3.325
52532W        W24858  13.818  18.302   3.946
52533W        W24859  23.160  33.999   4.461
52534W        W24860  39.407   8.697   2.615
52535W        W24861  30.431  16.648  14.270
52536W        W24862  20.456   5.785  11.202
52537W        W24863  29.071  40.905   1.134
52538W        W24864  30.219  31.013   0.920
52539W        W24865  19.871  31.087  14.981
52540W        W24866  26.838  18.648   3.692
52541W        W24867  13.825   6.880   3.288
52542W        W24868   5.298  28.479   4.457
52543W        W24869  43.528  12.129  11.597
52544W        W24870  14.142  23.151   1.182
52545W        W24871  21.071  13.791  13.866
52546W        W24872   9.043  16.706  10.670
52547W        W24873  23.703  15.362  11.990
52548W        W24874   9.959  14.077  13.365
52549W        W24875  25.246  17.298   4.689
52550W        W24876  39.401  18.630   0.206
52551W        W24877   9.212  40.369   2.897
52552W        W24878   4.338   7.857   0.708
52553W        W24879  44.026  24.421   0.493
52554W        W24880  19.298   7.620   2.649
52555W        W24881   0.369  28.035  10.497
52556W        W24882  33.480  10.432   1.477
52557W        W24883  30.098  25.547   0.971
52558W        W24884  26.731  41.242  11.322
52559W        W24885   5.255  30.647   2.336
52560W        W24886  36.375  21.202   0.866
52561W        W24887   8.714   0.760  10.702
52562W        W24888  39.803  15.069  13.032
52563W        W24889  43.099  17.779   1.882
52564W        W24890  14.993  13.297  14.904
52565W        W24891  16.719  36.469  14.918
52566W        W24892  20.682  37.322  13.431
52567W        W24893   3.348  35.543  14.783
52568W        W24894  22.556  14.251   1.616
52569W        W24895  37.316  42.161   4.668
52570W        W24896  28.104  24.955  14.144
52571W        W24897  35.259  15.860   2.044
52572W        W24898  13.936  37.866  13.088
52573W        W24899  34.117  23.017   1.321
52574W        W24900  30.151  36.489  11.491
52575W        W24901   2.672   8.324   1.582
52576W        W24902  21.113  23.963   3.979
52577W        W24903  15.231   3.851   1.721
52578W        W24904   3.409  20.561   3.370
52579W        W24905   2.815   0.862   0.476
52580W        W24906   3.782  10.178  14.553
52581W        W24907  41.027  25.732   4.895
52582W        W24908  10.125  12.294   4.247
52583W        W24909   8.984  10.390   1.943
52584W        W24910   2.348   3.675  10.579
52585W        W24911  38.422   5.383   4.576
52586W        W24912   9.466  21.243   2.243
52587W        W24913   7.763  42.931  11.197
52588W        W24914  11.298   4.244  14.528
52589W        W24915  44.124  22.072  12.956
52590W        W24916  38.563   3.576  12.901
52591W        W24917  33.206  20.625   4.775
52592W        W24918  43.388  30.569   3.412
52593W        W24919   6.727  36.952   1.327
52594W        W24920   4.469  28.877   0.759
52595W        W24921  35.056  32.899   9.998
52596W        W24922   8.872  22.652   5.042
52597W        W24923  36.836  36.570   4.186
52598W        W24924  12.126  35.914   1.444
52599W        W24925  39.591  31.493   1.283
52600W        W24926  38.859   4.933  12.944
52601W        W24927  28.923  15.638   2.275
52602W        W24928  15.103  30.653  13.824
52603W        W24929  44.186  18.655  12.250
52604W        W24930  40.289  14.293   3.056
52605W        W24931  30.785  40.132  11.629
52606W        W24932  21.014  17.103  13.098
52607W        W24933  26.120  24.073  11.964
52608W        W24934  31.970  41.302   4.685
52609W        W24935  30.932   3.803  14.804
52610W        W24936  23.256  21.014   3.674
52611W        W24937  32.378  37.784   3.684
52612W        W24938   8.815  22.023   1.047
52613W        W24939  14.554   6.479  11.133
52614W        W24940  25.303  44.707  14.817
52615W        W24941  35.161  27.707   3.744
52616W        W24942  12.228  37.561  14.851
52617W        W24943  43.202  19.336  13.348
52618W        W24944  23.210  40.551  11.127
52619W        W24945  11.721  17.747  13.271
52620W        W24946  25.144  10.707   0.289
52621W        W24947  33.578  16.265   4.552
52622W        W24948   1.898  26.893  12.490
52623W        W24949  13.347  41.368  12.565
52624W        W24950  35.536  21.107   4.972
52625W        W24951  27.033  15.782  14.789
52626W        W24952  11.730  20.688   3.257
52627W        W24953  33.493  33.953  14.228
52628W        W24954  18.407  34.789  11.063
52629W        W24955  25.721  10.551   1.739
52630W        W24956  42.909   6.182   2.323
52631W        W24957  43.898  27.531  12.407
52632W        W24958  31.393  24.415   0.426
52633W        W24959   6.896  35.053  13.073
52634W        W24960  14.272  43.203  11.463
52635W        W24961  22.091  34.349   0.371
52636W        W24962   5.287  43.627   4.957
52637W        W24963   5.928  23.915  11.197
52638W        W24964  10.535  38.533  12.626
52639W        W24965  40.054  14.614  11.401
52640W        W24966  29.950  26.748  11.179
52641W        W24967  22.592  43.699  13.795
52642W        W24968  19.485  19.653   2.878
52643W        W24969  21.145   9.590   3.480
52644W        W24970  38.367  29.421  13.863
52645W        W24971  29.226  28.212   1.888
52646W        W24972  42.765  11.592   2.825
52647W        W24973  37.863  18.772  11.830
52648W        W24974  36.187  27.472  11.184
52649W        W24975  19.065  39.544  12.138
52650W        W24976  16.054  11.164   2.270
52651W        W24977  21.185   2.304   3.392
52652W        W24978  11.747  22.290   1.045
52653W        W24979  11.544  20.766  14.713
52654W        W24980   1.372  26.058  11.151
52655W        W24981  11.619  34.845  14.826
52656W        W24982   6.172  29.621   1.282
52657W        W24983   7.849  20.812   0.006
52658W        W24984  26.480  25.132   3.709
52659W        W24985  13.685  15.253   3.160
52660W        W24986  31.922  11.874  11.975
52661W        W24987   4.504   1.767  12.000
52662W        W24988  18.026  20.787  12.963
52663W        W24989  42.339  28.280   4.289
52664W        W24990  31.454  43.938  11.614
52665W        W24991  28.484  21.999   1.271
52666W        W24992   4.414  19.224  11.551
52667W        W24993  38.234  28.001  10.942
52668W        W24994  39.034  37.602  14.821
52669W        W24995  10.334  14.099   4.557
52670W        W24996  42.506  19.346   1.297
52671W        W24997  14.231  39.152  13.443
52672W        W24998  17.708   4.003   2.332
52673W        W24999  14.722  16.693  13.460
52674W        W25000   2.505  32.015  14.917
52675W        W25001   0.458  23.773  11.083
52676W        W25002  41.959  32.679  12.162
52677W        W25003  34.444  29.372   4.618
52678W        W25004  42.748   0.915  12.849
52679W        W25005   6.292  18.139  10.662
52680W        W25006  35.904   9.449  14.780
52681W        W25007  18.767   8.322   2.789
52682W        W25008   6.662  40.940  11.121
52683W        W25009   3.050   5.893   0.565
52684W        W25010  12.470  27.827  10.292
52685W        W25011  30.025  25.087   0.277
52686W        W25012  36.027  31.587  12.021
52687W        W25013  39.693  37.113  10.645
52688W        W25014  33.835   8.653  11.540
52689W        W25015   3.850  15.237  13.353
52690W        W25016   9.824  29.581  11.644
52691W        W25017  26.241   7.896  11.893
52692W        W25018  11.891   7.922  14.509
52693W        W25019  35.678   4.014  14.841
52694W        W25020  12.236   5.240  12.662
52695W        W25021  25.995  23.189   0.338
52696W        W25022  42.019  39.921   1.340
52697W        W25023  17.605  37.907   1.263
52698W        W25024  19.728   7.913   2.834
52699W        W25025  20.493  20.631  11.488
52700W        W25026  17.622  42.457  13.399
52701W        W25027  25.673  41.938   1.336
52702W        W25028   3.634  33.651  13.873
52703W        W25029  14.767  42.964  13.404
52704W        W25030  38.020  15.805   9.911
52705W        W25031  43.699  43.955   2.367
52706W        W25032  30.624  37.589   2.657
52707W        W25033  17.776  29.487  12.153
52708W        W25034   2.941  31.603   1.717
52709W        W25035  41.396  11.122  12.704
52710W        W25036  16.019  11.724   4.254
52711W        W25037  23.429   1.974  11.323
52712W        W25038   6.021  21.114  14.945
52713W        W25039  42.375  44.287   3.203
52714W        W25040  25.019   6.857   4.025
52715W        W25041  16.079  33.088   1.439
52716W        W25042  42.882  26.396  14.000
52717W        W25043  35.967  43.982  10.476
52718W        W25044  27.628  23.406  11.133
52719W        W25045  26.539  40.504  10.893
52720W        W25046   9.964  24.857  13.211
52721W        W25047  22.085  33.386  13.866
52722W        W25048  29.152   6.304  12.841
52723W        W25049   1.168  13.310  13.443
52724W        W25050  30.535  43.335   3.439
52725W        W25051  14.185  19.258   3.676
52726W        W25052   4.711  29.890  14.816
52727W        W25053  37.785  22.733  14.348
52728W        W25054   7.796  33.364   3.660
52729W        W25055  29.704  12.797   3.791
52730W        W25056  26.007  30.382   4.075
52731W        W25057  29.033  38.792  10.909
52732W        W25058  31.344  22.627  13.937
52733W        W25059  37.448  44.488   2.364
52734W        W25060  33.810  11.242   1.745
52735W        W25061  31.039  27.943   4.435
52736W        W25062  20.405   5.454   1.658
52737W        W25063  36.863   9.321   2.577
52738W        W25064  36.010   9.828  12.055
52739W        W25065  19.583  32.406   3.419
52740W        W25066  12.567  28.688   0.994
52741W        W25067   7.445  40.489   2.953
52742W        W25068  25.937  38.376   1.228
52743W        W25069  16.656  41.778   3.610
52744W        W25070  13.020  32.337  12.571
52745W        W25071  36.950   4.690  12.907
52746W        W25072  25.591  23.545   1.049
52747W        W25073  18.730   6.916   4.725
52748W        W25074   8.251  38.317   2.491
52749W        W25075  21.690  13.034   2.726
52750W        W25076  23.305  17.186  13.254
52751W        W25077  33.771  35.494  14.863
52752W        W25078  38.956   8.078   3.139
52753W        W25079  32.343   5.289   4.114
52754W        W25080  43.430  37.096   0.875
52755W        W25081  44.575  10.284   2.750
52756W        W25082  27.388  13.288   4.550
52757W        W25083   7.572   0.836   4.979
52758W        W25084  25.002   2.323   3.331
52759W        W25085  38.465   9.176   4.359
52760W        W25086  38.925  31.071   1.849
52761W        W25087   6.653  33.320  13.405
52762W        W25088  38.566  28.047   3.738
52763W        W25089  25.543  43.874  11.885
52764W        W25090  12.835   7.373  13.002
52765W        W25091  41.053  18.679   0.960
52766W        W25092  38.434   9.751   4.647
52767W        W25093  11.399  43.867   0.847
52768W        W25094  42.779   0.552   2.656
52769W        W25095  23.063  25.737  12.997
52770W        W25096  34.403  41.267   0.333
52771W        W25097  39.861   1.240   0.536
52772W        W25098  33.626  34.219   5.269
52773W        W25099   9.821   3.489   2.768
52774W        W25100  31.442   4.197  10.391
52775W        W25101   9.775  27.963  13.046
52776W        W25102  19.687  25.445   4.163
52777W        W25103  38.995  25.075   0.317
52778W        W25104  38.509   9.675  10.737
52779W        W25105  17.240  31.852  11.590
52780W        W25106  36.794   0.951  13.267
52781W        W25107  20.859  30.521  14.582
52782W        W25108  18.587   0.289   0.255
52783W        W25109  27.970   4.686   3.141
52784W        W25110   4.799  16.120   2.604
52785W        W25111  12.573  10.753  12.002
52786W        W25112   1.346   9.361  14.996
52787W        W25113  32.641   9.351  12.089
52788W        W25114  17.790   4.441   0.383
52789W        W25115  34.924  44.142  11.234
52790W        W25116  39.907  14.063   3.322
52791W        W25117   5.668   1.954  12.903
52792W        W25118  17.211  14.226   1.634
52793W        W25119   2.955  11.570   4.598
52794W        W25120  17.709  41.748  13.978
52795W        W25121  24.558  32.601  12.519
52796W        W25122  30.449  18.160  12.025
52797W        W25123   2.390  26.275  11.114
52798W        W25124  12.396  18.646  11.608
52799W        W25125  15.260  42.538   4.640
52800W        W25126  16.052  15.809  11.470
52801W        W25127   6.885  11.438  13.356
52802W        W25128   5.097  15.070  13.113
52803W        W25129  26.414  21.212   0.222
52804W        W25130  25.268  33.482   3.593
52805W        W25131  23.964  26.429   2.890
52806W        W25132   6.877   5.869   0.493
52807W        W25133   2.885  20.764   1.796
52808W        W25134  17.644  40.682  12.603
52809W        W25135  34.663  25.191   1.675
52810W        W25136  37.786  27.545   3.577
52811W        W25137  14.265  10.408  11.983
52812W        W25138  42.528  33.690  11.506
52813W        W25139  21.118  25.588   3.670
52814W        W25140  37.622   3.917   4.314
52815W        W25141  36.829  13.051  11.943
52816W        W25142  36.468  40.764  13.273
52817W        W25143  26.396   9.008   5.114
52818W        W25144  34.152  43.246  12.990
52819W        W25145  14.665  27.942  12.269
52820W        W25146   7.804  29.643   3.341
52821W        W25147  38.753  34.869   0.054
52822W        W25148  13.018  10.272   4.813
52823W        W25149  44.850  19.206   0.709
52824W        W25150  18.279  15.145   1.551
52825W        W25151  11.379   4.856  11.429
52826W        W25152  12.561  12.863   3.444
52827W        W25153  33.062   2.763  12.772
52828W        W25154  19.268  11.785  14.762
52829W        W25155  27.213  38.789  13.046
52830W        W25156   8.712  19.161   3.707
52831W        W25157  22.587  44.914  11.253
52832W        W25158  19.285   1.839  14.812
52833W        W25159   2.545   3.157  12.347
52834W        W25160  26.927  40.786  12.059
52835W        W25161  23.607  28.633   0.951
52836W        W25162   3.460  18.047  11.255
52837W        W25163  27.203  40.638  13.409
52838W        W25164  17.742  12.440   0.973
52839W        W25165  34.623   8.321  13.118
52840W        W25166  18.954  15.579  14.787
52841W        W25167  29.940  36.435  11.022
52842W        W25168  17.262   4.907   5.065
52843W        W25169  10.453  42.048   0.697
52844W        W25170  26.899  13.834   0.224
52845W        W25171   8.536  22.812  12.880
52846W        W25172  42.735  18.066   2.140
52847W        W25173  18.477  37.552  10.652
52848W        W25174  33.201  29.418  10.602
52849W        W25175  25.148   5.702   2.932
52850W        W25176  35.402  31.540   0.008
52851W        W25177  16.932  20.616  12.058
52852W        W25178  35.599  37.048   4.473
52853W        W25179  20.262  28.390   4.943
52854W        W25180   9.183   9.790   1.381
52855W        W25181  11.512  12.408  11.618
52856W        W25182   1.577  22.217   1.817
52857W        W25183   5.921  13.260  13.127
52858W        W25184  36.625   4.888  14.385
52859W        W25185  14.285  16.712  11.202
52860W        W25186  10.080  24.010   4.096
52861W        W25187  33.989  18.217   2.341
52862W        W25188  24.989  44.301  14.952
52863W        W25189  34.134  36.529  14.336
52864W        W25190  28.628   3.776   1.025
52865W        W25191   0.785  34.609   0.010
52866W        W25192   4.131  39.719  12.340
52867W        W25193  20.132  34.156   4.225
52868W        W25194  14.081  20.951   4.110
52869W        W25195   0.674  26.644  11.211
52870W        W25196  22.068   7.406   3.607
52871W        W25197  42.939   4.984  12.932
52872W        W25198  39.343  34.123   1.932
52873W        W25199  15.225  13.648   0.234
52874W        W25200  15.716  13.790  12.991
52875W        W25201  33.637  27.546  14.865
52876W        W25202  33.617  19.666   4.723
52877W        W25203  44.253  18.882  13.493
52878W        W25204  38.882   3.701   4.044
52879W        W25205   5.857  14.097   2.762
52880W        W25206  39.936  30.428  14.128
52881W        W25207   8.983  19.550   4.489
52882W        W25208  16.206  33.181  10.802
52883W        W25209  10.319   9.770   2.229
52884W        W25210   1.342  13.546  10.905
52885W        W25211  25.963  44.857  10.680
52886W        W25212   3.372  14.591   4.183
52887W        W25213  23.060   3.456   3.600
52888W        W25214  17.297  18.220   3.055
52889W        W25215  28.601  22.960  14.745
52890W        W25216  27.167  21.556  11.915
52891W        W25217  20.688   6.190  14.532
52892W        W25218  21.746  29.078   2.789
52893W        W25219  44.207  15.602  10.857
52894W        W25220  30.722  29.257  12.004
52895W        W25221   3.128  14.407  12.592
52896W        W25222  26.069  32.039   1.053
52897W        W25223  29.093  27.984   0.883
52898W        W25224  11.180  40.789   0.687
52899W        W25225   3.276   6.479   2.210
52900W        W25226   6.599  32.156   0.880
52901W        W25227  37.580  41.522  10.420
52902W        W25228  38.509  38.515  14.309
52903W        W25229  24.500  26.674   1.743
52904W        W25230  22.582   2.525   4.568
52905W        W25231   9.166  10.706   4.272
52906W        W25232  35.811  12.362   9.829
52907W        W25233  19.692  16.556   2.425
52908W        W25234  28.104  14.709   2.349
52909W        W25235  37.127   3.887   4.675
52910W        W25236   7.750   9.317   3.765
52911W        W25237  28.038   0.922   1.328
52912W        W25238  32.054  27.715  13.761
52913W        W25239   1.015  38.926   4.693
52914W        W25240  24.078  44.800   1.286
52915W        W25241  14.310  20.035   1.904
52916W        W25242   7.130  34.179  14.087
52917W        W25243  29.447   0.367  12.555
52918W        W25244  13.066   1.373   1.837
52919W        W25245  42.369  32.057  11.640
52920W        W25246  37.873  26.456   3.694
52921W        W25247   4.660  10.204  14.555
52922W        W25248   8.229  30.311  12.004
52923W        W25249  22.536  21.823  13.823
52924W        W25250   2.666   6.966   1.799
52925W        W25251  44.677  34.421   3.771
52926W        W25252  28.749  30.009  12.780
52927W        W25253  37.064  35.040   2.360
52928W        W25254  25.566  37.012   1.325
52929W        W25255  35.021  28.658   0.899
52930W        W25256  20.217  40.251  11.978
52931W        W25257  11.891  28.371   3.318
52932W        W25258  33.969   7.680  14.356
52933W        W25259  43.045  18.638  10.713
52934W        W25260   0.463  44.997   4.148
52935W        W25261   0.593  14.759   4.498
52936W        W25262   0.655  31.602  13.842
52937W        W25263  43.110  28.001   1.455
52938W        W25264  17.958   6.217  12.477
52939W        W25265  42.760   2.119   4.215
52940W        W25266  38.102  18.209  13.945
52941W        W25267  18.371  11.599   3.470
52942W        W25268  40.112  37.400  13.767
52943W        W25269  11.204   5.529   1.439
52944W        W25270   7.145  42.361   4.620
52945W        W25271   9.344   3.864  10.605
52946W        W25272   0.026  16.544  13.441
52947W        W25273   8.075  41.246   1.205
52948W        W25274  10.086  29.664  14.369
52949W        W25275   2.960  21.997  14.597
52950W        W25276  39.098  28.402   4.126
52951W        W25277   1.016   6.525   2.123
52952W        W25278  29.583  21.753   4.134
52953W        W25279  27.587  33.014   0.030
52954W        W25280  10.478  22.800   3.335
52955W        W25281   5.050  27.409  13.205
52956W        W25282  10.818  31.850   2.848
52957W        W25283  33.942  28.570   1.401
52958W        W25284  15.595  44.428  11.999
52959W        W25285  27.676  36.485  12.065
52960W        W25286  44.774  31.160   3.534
52961W        W25287  43.418  28.171  11.418
52962W        W25288  13.990  18.202   4.734
52963W        W25289  32.074  41.823  12.829
52964W        W25290  35.921  31.890   0.366
52965W        W25291   8.886   2.937   2.463
52966W        W25292   2.785   9.819   4.497
52967W        W25293   3.501  15.364   4.658
52968W        W25294  12.039  28.657   3.757
52969W        W25295   6.669  37.974   2.272
52970W        W25296  30.539  31.482  14.242
52971W        W25297  17.773   2.320   4.762
52972W        W25298  17.287  44.023   2.719
52973W        W25299  35.657  11.406   1.466
52974W        W25300  42.782  13.341  10.894
52975W        W25301   1.193   1.812   3.690
52976W        W25302   5.817  20.858  11.065
52977W        W25303  26.763  14.794  12.563
52978W        W25304  43.516   4.276  10.371
52979W        W25305  41.784  11.320   1.462
52980W        W25306  33.243  37.028  13.546
52981W        W25307   8.254  17.855   1.725
52982W        W25308  25.500  21.745   3.596
52983W        W25309  38.127  37.783  14.416
52984W        W25310   2.444  12.005  13.937
52985W        W25311  11.870  21.310  12.162
52986W        W25312  14.410  21.282   1.275
52987W        W25313  36.119   2.164   1.967
52988W        W25314  44.017  20.541   0.713
52989W        W25315   7.803  11.584   1.253
52990W        W25316  20.444  13.518   9.993
52991W        W25317  21.019  26.045  14.319
52992W        W25318  37.242  32.946   3.972
52993W        W25319  38.488   7.281  11.131
52994W        W25320  34.920   7.755  13.279
52995W        W25321  27.227  25.063  14.272
52996W        W25322  27.993  28.130   3.732
52997W        W25323  32.674  10.661   4.585
52998W        W25324  37.425  31.393   0.741
52999W        W25325  13.807  43.338   4.204
53000W        W25326  10.110  33.833  12.776
53001W        W25327  33.474  20.726   0.684
53002W        W25328  32.648  10.637  11.051
53003W        W25329   8.753  30.521  11.626
53004W        W25330  41.336  11.675   2.733
53005W        W25331  44.935  13.624  12.571
53006W        W25332  10.399   8.238   4.636
53007W        W25333  25.391   3.041  14.847
53008W        W25334  18.149  18.476  14.616
53009W        W25335  12.321  17.314   4.238
53010W        W25336   3.191  25.161  12.832
53011W        W25337  10.678  15.238  12.438
53012W        W25338  16.260  24.767   0.351
53013W        W25339  33.182  12.163  13.327
53014W        W25340  18.615  40.068   2.640
53015W        W25341  16.024  28.005   4.361
53016W        W25342   6.911  43.971   0.519
53017W        W25343   9.312  31.671   1.752
53018W        W25344  13.807  37.116  10.062
53019W        W25345  13.220  20.330  10.932
53020W        W25346  33.991  20.921  13.839
53021W        W25347   9.391  16.180   1.763
53022W        W25348  22.300  37.501   4.086
53023W        W25349  20.887  10.617   3.155
53024W        W25350  42.264  29.927   1.748
53025W        W25351  29.566  21.245   3.218
53026W        W25352  32.154  12.769  11.876
53027W        W25353  11.077  17.923  10.988
53028W        W25354   3.809  33.505  12.964
53029W        W25355   3.509  25.129  10.973
53030W        W25356  33.492  23.739   4.042
53031W        W25357  32.060  44.246   1.878
53032W        W25358  28.847  33.792  13.849
53033W        W25359   6.320  26.440  13.523
53034W        W25360  16.168  16.570   1.714
53035W        W25361  15.792  15.833  12.143
53036W        W25362  32.861  33.948   2.360
53037W        W25363  34.564  11.424   2.874
53038W        W25364  18.063  32.422  13.505
53039W        W25365   0.686  36.801  10.958
53040W        W25366  16.319  31.908   3.366
53041W        W25367  18.868  30.363   3.395
53042W        W25368  24.247  30.972   3.615
53043W        W25369   1.496   5.319  14.748
53044W        W25370  18.296  27.965   4.185
53045W        W25371   3.649  25.011   0.776
53046W        W25372  42.765   8.185  13.267
53047W        W25373  18.475  24.696   2.192
53048W        W25374  42.842  12.137   0.969
53049W        W25375  34.534  41.964   3.352
53050W        W25376  34.071  17.738   3.738
53051W        W25377  36.988  15.811  14.666
53052W        W25378   3.724  40.003   0.229
53053W        W25379  40.848  28.967  12.366
53054W        W25380  23.050   7.120  12.492
53055W        W25381  24.989  36.907  11.987
53056W        W25382  27.033  36.863   0.470
53057W        W25383  16.375  23.438   2.284
53058W        W25384  23.337  39.489  14.974
53059W        W25385  39.790  36.773   0.449
53060W        W25386  40.277  19.248   3.843
53061W        W25387  20.467  22.617   2.730
53062W        W25388  40.367   9.898  13.905
53063W        W25389  31.265  12.291  12.399
53064W        W25390  12.180  33.620   0.244
53065W        W25391   5.882   0.525  14.006
53066W        W25392  19.330  41.370  13.443
53067W        W25393  28.716  25.384   0.531
53068W        W25394   0.671   7.863   3.988
53069W        W25395  22.782  30.983   1.288
53070W        W25396  23.007  30.452  13.499
53071W        W25397  20.238  31.033  12.624
53072W        W25398  38.562  21.887   3.701
53073W        W25399  11.390  18.698   0.535
53074W        W25400  40.463  14.664   4.871
53075W        W25401   8.713  14.169   3.669
53076W        W25402  36.343  42.902   3.952
53077W        W25403  39.092  18.990  13.634
53078W        W25404  32.049   7.283   0.361
53079W        W25405   4.781  11.787  12.945
53080W        W25406  44.070  44.512   3.177
53081W        W25407  42.870  37.637   2.201
53082W        W25408  43.343  38.062   1.230
53083W        W25409   9.765  44.853   2.438
53084W        W25410   9.679  44.544   4.814
53085W        W25411  14.256  32.805   4.530
53086W        W25412  23.060  20.497  12.030
53087W        W25413  17.094  12.835  13.914
53088W        W25414  24.550  29.254   3.105
53089W        W25415  23.217  35.214  11.118
53090W        W25416  29.729  39.032  12.667
53091W        W25417   8.153  43.343   0.280
53092W        W25418  25.160  19.764   4.387
53093W        W25419  28.152  29.901  14.791
53094W        W25420  28.536   4.857   1.385
53095W        W25421  19.809  40.901   1.916
53096W        W25422  11.322  25.332   5.647
53097W        W25423   2.415  25.942   1.440
53098W        W25424  33.129   1.026  12.987
53099W        W25425  33.518   3.536   4.945
53100W        W25426  38.520  31.072  10.340
53101W        W25427  18.829  19.718   2.200
53102W        W25428  28.246  33.504  11.222
53103W        W25429  34.054   8.379   4.077
53104W        W25430  18.257   0.993   2.984
53105W        W25431  12.780  33.640  14.372
53106W        W25432  16.262   8.787  11.983
53107W        W25433  32.489  21.770   2.925
53108W        W25434  40.595  14.330   1.300
53109W        W25435   1.304  33.551   4.551
53110W        W25436  13.583  19.770  14.926
53111W        W25437  30.548  14.511  13.775
53112W        W25438  32.677  42.037   2.411
53113W        W25439   2.184   4.186   0.779
53114W        W25440  11.588  24.316   0.770
53115W        W25441  19.557  32.134   2.609
53116W        W25442  10.581  17.024  14.416
53117W        W25443  36.299  16.646  11.750
53118W        W25444   7.922  41.531  12.438
53119W        W25445   7.467  28.219  10.685
53120W        W25446   5.837  40.367  11.883
53121W        W25447  19.558   8.849   0.470
53122W        W25448  37.524  41.975   3.156
53123W        W25449   3.505   9.931   2.788
53124W        W25450   3.981  37.923   0.852
53125W        W25451  33.061  25.188  14.956
53126W        W25452   8.250  36.496   2.410
53127W        W25453  24.597  37.033   0.007
53128W        W25454   3.837  37.053  11.933
53129W        W25455   5.443   6.260   0.062
53130W        W25456  40.948  21.703  11.967
53131W        W25457   3.525  31.597  10.438
53132W        W25458  29.486  16.532   1.649
53133W        W25459  11.627  17.035   3.306
53134W        W25460  37.666   3.769   4.813
53135W        W25461  25.853  36.158   3.243
53136W        W25462  30.599  28.205   4.555
53137W        W25463   2.915  35.384   2.764
53138W        W25464  25.121   2.292   2.453
53139W        W25465  18.262   0.503   2.828
53140W        W25466  41.259  17.665   3.237
53141W        W25467  25.916   9.882   0.886
53142W        W25468  37.600  28.164   4.625
53143W        W25469  39.618  11.606   4.050
53144W        W25470  40.806  19.764  11.145
53145W        W25471  13.340   9.651   3.087
53146W        W25472  26.687   4.925   3.893
53147W        W25473  20.698  13.291   0.957
53148W        W25474  26.450   0.035   1.705
53149W        W25475  36.596  30.406  10.709
53150W        W25476  41.838   9.663  12.517
53151W        W25477  12.572  21.020  14.456
53152W        W25478  44.689  28.545   4.932
53153W        W25479  35.129  29.924  11.543
53154W        W25480  25.175   9.203   0.452
53155W        W25481  14.356  14.852  13.159
53156W        W25482   5.652  43.963   2.369
53157W        W25483   3.195  38.098  14.272
53158W        W25484  25.378  40.952  11.995
53159W        W25485  40.005  11.292   0.895
53160W        W25486  32.147  37.833  14.267
53161W        W25487  20.346  22.194   4.630
53162W        W25488  18.320  16.441  12.409
53163W        W25489  43.155  26.718   0.888
53164W        W25490  18.090   8.695  13.020
53165W        W25491  34.840   1.896  12.082
53166W        W25492  14.699  27.083   5.239
53167W        W25493  41.278  13.529   0.345
53168W        W25494  23.066  28.995   0.488
53169W        W25495  38.292   6.697  12.363
53170W        W25496  25.568  32.531  12.295
53171W        W25497   8.368  31.755   1.296
53172W        W25498   8.097  11.758  11.176
53173W        W25499  35.459  24.624   0.254
53174W        W25500  12.797  33.591   0.335
53175W        W25501  30.270  32.489   4.576
53176W        W25502  37.639   2.937  12.889
53177W        W25503   8.242  21.552  14.285
53178W        W25504  10.848   8.341  10.716
53179W        W25505  23.302  41.941   4.203
53180W        W25506  44.303  29.007  10.566
53181W        W25507   1.350   1.713  11.721
53182W        W25508  26.584  36.923  13.629
53183W        W25509  22.474  39.771   2.226
53184W        W25510  32.883  34.905   4.783
53185W        W25511  30.896   9.678   0.552
53186W        W25512   4.410  32.289   2.521
53187W        W25513  40.482  40.785  13.809
53188W        W25514  36.545  43.000  13.004
53189W        W25515  31.267   2.512   0.207
53190W        W25516  28.076   3.175   1.856
53191W        W25517  43.261  31.832  14.792
53192W        W25518  14.587  13.890  14.150
53193W        W25519  42.459  42.285  13.415
53194W        W25520  20.241  13.338  11.233
53195W        W25521   6.358  26.416   2.411
53196W        W25522  34.574   8.781   2.840
53197W        W25523  28.059  40.487   2.224
53198W        W25524   1.355  30.658   0.049
53199W        W25525   4.881   0.852  13.513
53200W        W25526  15.643  33.406  11.775
53201W        W25527  37.381  26.460   1.910
53202W        W25528   0.354   0.459  14.279
53203W        W25529  29.359  34.273  11.473
53204W        W25530   3.775  40.025  10.831
53205W        W25531  26.080   1.478  12.054
53206W        W25532  29.880  27.211  12.010
53207W        W25533  42.321  34.532   4.188
53208W        W25534  34.129   7.300   4.588
53209W        W25535  12.056  31.181   3.335
53210W        W25536   1.850  10.584  14.060
53211W        W25537   3.511  38.445   4.692
53212W        W25538  25.736  33.091  13.567
53213W        W25539  24.119  14.205  13.190
53214W        W25540  44.013  15.306  11.294
53215W        W25541   6.449  16.170  10.858
53216W        W25542   6.471   2.280  11.019
53217W        W25543  38.542  40.526  11.583
53218W        W25544  41.933  37.539  13.863
53219W        W25545  22.720  26.585  11.279
53220W        W25546  30.622  42.850   4.510
53221W        W25547  34.440  12.736   2.727
53222W        W25548  10.918  43.268  13.044
53223W        W25549  30.917  24.715   3.232
53224W        W25550  43.905  14.762   1.400
53225W        W25551  10.548   1.380   0.475
53226W        W25552  31.000  20.690   4.829
53227W        W25553  30.582   6.240   4.380
53228W        W25554  34.398  20.662   0.400
53229W        W25555  11.691  38.621   2.720
53230W        W25556  32.524  12.334   0.841
53231W        W25557  31.985  37.370  12.462
53232W        W25558  16.697   2.916  14.788
53233W        W25559  11.278  11.100  13.875
53234W        W25560  11.207  37.007  11.541
53235W        W25561  37.617  16.338  11.528
53236W        W25562  40.981  11.782  11.043
53237W        W25563  42.052  43.004  10.285
53238W        W25564  37.026   2.961  14.155
53239W        W25565  16.982  31.091  11.999
53240W        W25566  23.557  27.734  12.537
53241W        W25567  14.879   6.410  13.042
53242W        W25568   9.868  28.412   4.265
53243W        W25569  27.930  24.586   0.565
53244W        W25570   7.348  39.821   2.000
53245W        W25571  11.855   0.943   0.202
53246W        W25572  18.866  19.335  13.545
53247W        W25573  30.555  28.961  14.878
53248W        W25574   2.528  41.374  11.507
53249W        W25575   7.644   0.978  10.752
53250W        W25576   5.886  36.404   1.902
53251W        W25577  23.006  41.009   2.843
53252W        W25578  41.211   1.844  13.869
53253W        W25579  34.477  26.665  10.626
53254W        W25580   0.983  43.632   0.439
53255W        W25581  34.222  11.363  12.062
53256W        W25582  19.609  35.014  14.983
53257W        W25583  20.544  10.224  12.850
53258W        W25584  16.603  26.079   0.223
53259W        W25585  31.144  30.878  14.764
53260W        W25586   4.300  34.018  14.506
53261W        W25587  11.148  25.516  12.987
53262W        W25588  17.231   2.687   2.195
53263W        W25589  25.203  31.211   1.348
53264W        W25590   6.631  18.685  10.674
53265W        W25591   4.376   2.219  14.385
53266W        W25592  12.843   0.068  11.161
53267W        W25593  31.050  18.584   1.824
53268W        W25594  19.139  44.513   0.368
53269W        W25595  44.570  24.305   3.828
53270W        W25596  16.225  25.183  13.686
53271W        W25597  29.372  41.828  12.666
53272W        W25598   4.741  18.107   1.771
53273W        W25599  29.109  36.967   3.665
53274W        W25600  39.630  43.233  11.444
53275W        W25601  29.569  22.142  14.432
53276W        W25602   4.736  30.061   0.319
53277W        W25603   1.348  30.828  14.003
53278W        W25604  38.383  16.824  10.921
53279W        W25605  19.956  31.894  13.887
53280W        W25606  34.900  36.843  12.549
53281W        W25607  32.574   0.846   3.368
53282W        W25608   6.266  19.298  13.617
53283W        W25609  20.462   4.117   1.681
53284W        W25610  41.944  37.848   0.249
53285W        W25611   6.057  18.968  14.401
53286W        W25612  19.355  33.578  13.964
53287W        W25613  22.934  15.276  13.911
53288W        W25614  29.603   2.880   3.697
53289W        W25615  44.413  18.463  10.755
53290W        W25616   0.719  28.208  12.340
53291W        W25617  14.287  43.932  12.811
53292W        W25618  27.847   9.613  13.494
53293W        W25619  25.074   0.431  14.991
53294W        W25620   4.066  41.927   2.271
53295W        W25621  15.731  30.917   3.730
53296W        W25622  10.611  30.702  13.292
53297W        W25623  16.997  36.930   0.751
53298W        W25624   5.040  18.704   1.282
53299W        W25625  19.372  13.315   4.173
53300W        W25626   3.474  38.484   1.110
53301W        W25627  14.859  33.519   4.935
53302W        W25628  34.851   7.505   2.255
53303W        W25629  22.801   4.878   2.238
53304W        W25630  43.392  22.701   0.869
53305W        W25631  18.716  30.598  12.854
53306W        W25632  21.005  15.272  14.250
53307W        W25633   5.812  33.968   3.433
53308W        W25634   4.645  14.103  11.630
53309W        W25635  40.438  14.242   4.086
53310W        W25636  26.495  13.638  10.693
53311W        W25637  19.022   1.107  11.399
53312W        W25638  39.648  19.325   2.731
53313W        W25639   5.282  31.615   0.035
53314W        W25640   8.555  30.533  13.896
53315W        W25641  37.343  18.085   0.299
53316W        W25642  22.335  20.817   2.340
53317W        W25643  37.360  21.731  13.567
53318W        W25644  25.059  39.292   1.233
53319W        W25645  35.632  32.148   0.812
53320W        W25646  18.154  34.551   4.588
53321W        W25647  44.902  32.332   4.774
53322W        W25648   6.909  41.859   4.745
53323W        W25649  26.079  15.156  13.013
53324W        W25650  20.203   4.436  10.391
53325W        W25651  28.779   9.375   2.669
53326W        W25652   5.701  27.516  10.791
53327W        W25653  14.176  22.548   2.423
53328W        W25654  17.585  36.054   2.378
53329W        W25655  38.000  24.156   2.053
53330W        W25656   0.179  14.841  12.132
53331W        W25657  13.844  43.505  10.707
53332W        W25658  23.991  43.876   3.717
53333W        W25659  37.379  40.896  11.239
53334W        W25660   0.739   6.322  13.298
53335W        W25661  44.791  11.808  12.701
53336W        W25662  14.366  21.276   4.892
53337W        W25663   1.683  15.490  13.046
53338W        W25664  31.388  20.272  11.617
53339W        W25665   4.009   8.720  10.737
53340W        W25666  12.803  25.699  11.508
53341W        W25667  11.826  27.485  13.508
53342W        W25668   7.306  26.678  10.527
53343W        W25669  37.906  11.176  12.907
53344W        W25670  10.828  29.524   2.690
53345W        W25671  11.791  22.135   4.434
53346W        W25672  23.584   0.211  11.609
53347W        W25673  31.132  35.608  13.418
53348W        W25674  25.518  29.188   0.858
53349W        W25675   1.492  23.299   0.268
53350W        W25676  24.734   1.352  12.874
53351W        W25677  21.984   3.384   0.549
53352W        W25678   5.868  18.679  11.282
53353W        W25679   5.381  14.149  14.327
53354W        W25680  37.527  39.860   3.845
53355W        W25681  31.935  26.709  13.827
53356W        W25682   8.355  40.759  14.530
53357W        W25683  16.226  21.109   2.422
53358W        W25684  27.466  28.957  12.938
53359W        W25685  11.671  18.528  11.032
53360W        W25686  37.601   4.039  11.396
53361W        W25687   7.850  20.465   1.429
53362W        W25688  39.551  10.161  14.522
53363W        W25689  22.998  44.891  10.912
53364W        W25690  30.593  28.314   3.141
53365W        W25691  29.437  32.623   0.155
53366W        W25692  27.275  13.090   1.505
53367W        W25693  15.163   9.204   2.764
53368W        W25694  18.263  21.116   4.077
53369W        W25695  32.488  31.969  13.404
53370W        W25696  16.692  13.468   4.505
53371W        W25697   4.329  38.315  13.176
53372W        W25698  18.540  12.851  14.945
53373W        W25699  26.082  25.575   0.525
53374W        W25700  44.553  44.813   1.851
53375W        W25701   6.815  35.595   3.803
53376W        W25702  40.005   5.257  11.558
53377W        W25703  22.245  36.013  12.935
53378W        W25704  21.076  10.641  10.632
53379W        W25705  28.526  16.786  13.453
53380W        W25706   8.854  38.988   4.213
53381W        W25707  32.000  27.200  13.964
53382W        W25708  37.825  32.949  11.457
53383W        W25709  32.875  16.649  12.947
53384W        W25710  13.193  34.042   2.742
53385W        W25711   1.914  35.859   3.238
53386W        W25712  30.076  25.648  11.973
53387W        W25713  13.201   2.050  14.013
53388W        W25714  22.564  17.399   3.819
53389W        W25715  23.742   5.868   0.213
53390W        W25716   2.148   9.625   4.613
53391W        W25717  35.028  34.627   1.772
53392W        W25718  19.721  18.272   3.810
53393W        W25719  26.228  35.126   4.168
53394W        W25720  26.374  38.226  11.083
53395W        W25721  28.786  31.040  10.644
53396W        W25722  27.454  26.967   0.440
53397W        W25723  13.607  17.209  13.881
53398W        W25724  13.754  21.009  13.845
53399W        W25725  43.779  42.891  14.578
53400W        W25726  18.671  18.548   4.328
53401W        W25727   0.003  13.425  11.033
53402W        W25728  25.629   1.227  11.862
53403W        W25729  11.959  14.688   2.766
53404W        W25730  35.759   0.306  14.531
53405W        W25731   6.500  29.585  14.431
53406W        W25732   3.234  33.388   3.681
53407W        W25733  17.433   7.408  11.544
53408W        W25734   8.770   9.305  14.133
53409W        W25735  38.627  20.531   0.690
53410W        W25736   4.338   9.433   4.602
53411W        W25737   8.653  21.734   3.239
53412W        W25738  24.735  18.269   9.785
53413W        W25739  30.617  40.784   4.724
53414W        W25740   0.925   4.647   2.169
53415W        W25741  38.350  16.184   3.605
53416W        W25742  12.489  33.999   0.417
53417W        W25743   8.680  32.434   4.255
53418W        W25744  15.280   3.948   4.627
53419W        W25745  17.345  36.457  12.445
53420W        W25746   6.262   2.383   0.400
53421W        W25747   0.608   1.246   1.684
53422W        W25748  17.003  40.230  10.188
53423W        W25749   9.283  44.604   2.663
53424W        W25750   9.599  19.261  13.442
53425W        W25751  15.151  31.024  13.251
53426W        W25752  33.983   2.551  14.728
53427W        W25753  35.742  15.145   1.481
53428W        W25754  14.319   9.770   0.200
53429W        W25755  42.461  18.093   0.014
53430W        W25756  21.652  31.984   0.707
53431W        W25757  20.715  30.054  10.973
53432W        W25758  23.522   2.204   1.778
53433W        W25759  27.075   4.900  10.751
53434W        W25760  16.080  37.884   0.261
53435W        W25761  16.588  13.648  11.088
53436W        W25762  38.136   5.213   0.970
53437W        W25763   2.850  33.463  14.586
53438W        W25764  25.456  12.850   2.327
53439W        W25765  38.361   6.843   3.596
53440W        W25766  11.681  35.470  10.179
53441W        W25767  18.547  40.780   4.265
53442W        W25768  43.490   8.565   4.920
53443W        W25769  22.475  18.559   4.697
53444W        W25770  15.685   4.335   3.844
53445W        W25771  32.497  34.168  10.697
53446W        W25772  20.725  41.460   4.054
53447W        W25773   6.388  33.750   0.282
53448W        W25774   0.531  13.611   4.582
53449W        W25775   8.250  44.803  13.211
53450W        W25776  18.096   2.258  14.774
53451W        W25777  41.888  20.724   1.048
53452W        W25778  11.221  36.840  12.432
53453W        W25779  22.638  37.630   0.459
53454W        W25780  19.722  11.228   2.420
53455W        W25781   2.237   4.790   2.808
53456W        W25782   4.180  37.448   0.839
53457W        W25783  16.579  41.607  11.626
53458W        W25784  22.723  25.733   3.715
53459W        W25785  25.153  23.516  13.454
53460W        W25786  24.172  11.255   0.394
53461W        W25787  33.806  15.036  11.902
53462W        W25788  16.548  38.449   4.605
53463W        W25789  19.262  34.397   0.359
53464W        W25790  35.334  36.337  13.947
53465W        W25791  10.036  22.937  11.403
53466W        W25792  17.923  13.051  12.512
53467W        W25793  36.848  16.354  13.920
53468W        W25794   8.274   4.104   1.961
53469W        W25795  17.642  31.182   1.759
53470W        W25796   0.703  13.691  13.171
53471W        W25797   2.259  29.845  12.159
53472W        W25798   8.335  33.660   4.691
53473W        W25799   3.557  21.404  11.054
53474W        W25800  16.665  33.108  14.213
53475W        W25801  26.964  32.052  13.352
53476W        W25802  39.084  23.477   2.834
53477W        W25803  35.853  33.319   9.688
53478W        W25804  37.874  41.736  11.126
53479W        W25805  37.975  17.246  12.007
53480W        W25806  23.975  39.068  14.287
53481W        W25807  29.881  28.510   4.229
53482W        W25808   5.359  12.366  13.868
53483W        W25809  36.366   6.965   2.115
53484W        W25810   2.230   3.962  14.892
53485W        W25811  38.767   2.385   4.074
53486W        W25812  40.054  10.105  12.828
53487W        W25813   7.559  19.062   4.653
53488W        W25814  28.556  26.214   4.806
53489W        W25815  23.066  29.006  11.444
53490W        W25816  22.634  17.242   4.602
53491W        W25817  18.399  22.734  11.039
53492W        W25818  16.960   7.271  10.853
53493W        W25819  15.025  30.041   2.537
53494W        W25820   9.744  11.677  11.662
53495W        W25821  31.556  16.767   1.753
53496W        W25822   6.190  24.069   1.704
53497W        W25823  36.570   4.474  13.224
53498W        W25824   0.214  16.011   4.150
53499W        W25825  14.202  14.793   1.717
53500W        W25826  29.872  15.437   3.997
53501W        W25827  40.425  44.484  14.684
53502W        W25828   3.266  35.052  14.537
53503W        W25829  10.915  19.608   1.732
53504W        W25830   5.876  11.578  10.710
53505W        W25831  25.830  32.437   2.780
53506W        W25832  38.004   0.029  14.996
53507W        W25833  42.102  21.384  11.465
53508W        W25834  26.999  43.322  13.417
53509W        W25835  21.836  34.145  13.793
53510W        W25836   2.932   8.692  14.252
53511W        W25837  14.512  35.370  12.149
53512W        W25838  11.333  35.922   3.764
53513W        W25839  13.624   5.329  11.622
53514W        W25840   3.800   7.591  12.609
53515W        W25841  33.960  25.533   3.242
53516W        W25842  18.859  16.136  10.923
53517W        W25843  39.856  41.391   1.769
53518W        W25844  18.733  42.558  10.700
53519W        W25845  25.052  21.966   0.599
53520W        W25846  35.368  39.276  10.784
53521W        W25847   6.492  12.360  12.991
53522W        W25848  43.320  27.230   3.191
53523W        W25849  17.161  41.931   3.645
53524W        W25850  41.217   2.529   3.748
53525W        W25851  35.402   8.831  12.486
53526W        W25852  24.625  23.753   2.123
53527W        W25853   2.150   2.791  14.971
53528W        W25854  20.742  20.680   3.312
53529W        W25855   9.239  42.817  10.625
53530W        W25856  42.985  14.598   1.753
53531W        W25857  22.619  37.838   2.147
53532W        W25858  28.411   7.029  12.475
53533W        W25859  13.231  15.160   4.245
53534W        W25860  24.578  42.830   0.419
53535W        W25861  26.544   3.359   0.672
53536W        W25862  33.753   2.482   4.218
53537W        W25863  17.286  27.571  14.027
53538W        W25864   1.364  39.028  13.411
53539W        W25865  12.295  23.840  12.545
53540W        W25866   4.269  27.017  14.226
53541W        W25867   6.599  13.924   4.270
53542W        W25868   1.367  11.713   9.801
53543W        W25869   3.984  20.046   1.930
53544W        W25870  41.992   8.264   4.878
53545W        W25871   1.199  11.342  11.617
53546W        W25872  33.094  33.468  13.806
53547W        W25873  41.932  17.847   0.053
53548W        W25874  37.025  26.079  12.986
53549W        W25875  32.458  35.940   0.996
53550W        W25876  20.222  28.665  14.825
53551W        W25877   9.853  27.436   2.471
53552W        W25878  18.156  21.935  11.998
53553W        W25879   8.586   5.005   4.167
53554W        W25880  37.710  34.287  14.436
53555W        W25881  20.857  22.209   4.519
53556W        W25882  26.091   9.879   0.031
53557W        W25883   7.340  34.779   2.389
53558W        W25884  26.122  35.055   3.290
53559W        W25885  28.181  30.065   2.255
53560W        W25886  41.096  36.323   2.213
53561W        W25887  33.037  36.963  13.056
53562W        W25888   4.578  25.175  10.901
53563W        W25889  38.109  15.260   1.249
53564W        W25890  13.654   0.904  10.459
53565W        W25891  11.491  43.904  12.445
53566W        W25892  31.378  25.950  11.700
53567W        W25893  43.449  41.626  13.002
53568W        W25894  19.258   4.789  14.941
53569W        W25895  17.611  19.605  13.766
53570W        W25896  44.424  26.423  10.708
53571W        W25897  26.265  44.720  12.326
53572W        W25898   5.415  10.786   2.479
53573W        W25899  43.227   1.364   3.276
53574W        W25900  10.592  10.176   9.964
53575W        W25901  35.305  20.169   1.503
53576W        W25902  30.381  29.109  13.082
53577W        W25903  27.158  22.075   4.590
53578W        W25904  28.585  42.325  12.457
53579W        W25905   4.055   2.103   9.952
53580W        W25906  39.412  44.166  13.058
53581W        W25907  42.924  28.667   0.661
53582W        W25908  24.582  23.607  12.906
53583W        W25909   6.289  29.484   4.835
53584W        W25910  29.860   7.317   4.075
53585W        W25911  28.614   3.322  14.841
53586W        W25912  30.204  36.558   0.481
53587W        W25913  10.084  10.074   3.687
53588W        W25914   2.253  16.140  14.430
53589W        W25915   1.676   9.606  14.011
53590W        W25916   7.169  16.192   0.307
53591W        W25917  38.166  11.068  12.119
53592W        W25918  44.056   2.219  13.920
53593W        W25919   8.287  29.089   1.117
53594W        W25920  18.121  18.309   4.730
53595W        W25921  44.784   8.847   1.727
53596W        W25922  20.111  42.862   5.457
53597W        W25923   4.428   2.355  13.897
53598W        W25924  38.581  16.291  11.620
53599W        W25925  35.476   3.087  14.986
53600W        W25926   3.206  37.232   2.275
53601W        W25927  42.028  34.590   3.299
53602W        W25928   3.173   4.722  10.419
53603W        W25929   2.072  20.451  14.483
53604W        W25930   7.776   4.682   2.199
53605W        W25931   5.717  38.864  11.066
53606W        W25932   1.739  27.655   4.958
53607W        W25933   7.408  33.117   2.162
53608W        W25934  29.999  25.929  11.538
53609W        W25935  17.055   5.440  14.530
53610W        W25936  12.215   0.587  14.442
53611W        W25937  23.680  24.039  11.379
53612W        W25938  43.895   0.270   3.636
53613W        W25939  11.698  28.494  13.467
53614W        W25940  40.778  33.129  13.524
53615W        W25941  28.339   3.732   0.078
53616W        W25942  28.655  13.280   4.136
53617W        W25943  19.107  34.338  13.035
53618W        W25944  33.533   0.063  13.946
53619W        W25945  28.190   4.817  11.658
53620W        W25946  33.698   5.433  10.831
53621W        W25947  18.788  13.065   0.936
53622W        W25948  38.019   9.198   0.630
53623W        W25949  22.226   8.177   3.361
53624W        W25950  36.765  36.634   3.664
53625W        W25951  36.048   7.757   3.681
53626W        W25952   3.223  23.158  13.747
53627W        W25953  31.031  43.904  10.633
53628W        W25954   1.683  15.832   3.816
53629W        W25955   0.456  19.489  10.611
53630W        W25956  23.267  12.772  12.530
53631W        W25957  36.449  33.119  14.737
53632W        W25958   6.339  21.691  14.257
53633W        W25959  31.881  24.286  12.001
53634W        W25960  36.962  31.623  12.007
53635W        W25961  22.516  43.872  11.691
53636W        W25962  28.593   4.155  14.944
53637W        W25963  12.018  33.319   1.089
53638W        W25964   2.229  38.375   1.726
53639W        W25965  44.432  34.095  14.390
53640W        W25966  36.239   5.742   4.452
53641W        W25967  36.660  17.522   4.603
53642W        W25968  13.709  32.990   2.114
53643W        W25969   7.355   8.596   1.611
53644W        W25970   0.744  19.880  12.545
53645W        W25971  38.941   0.768  13.501
53646W        W25972   0.045  14.845   0.022
53647W        W25973  36.078  14.092   2.842
53648W        W25974  11.335  39.988   0.334
53649W        W25975   9.738   3.875   3.704
53650W        W25976  15.759  26.104  12.916
53651W        W25977  20.114   3.019  12.955
53652W        W25978   2.465  11.212   3.710
53653W        W25979  27.210  28.499  13.086
53654W        W25980   6.640  39.440  14.991
53655W        W25981  40.090  22.100   4.837
53656W        W25982  27.011  24.476  11.523
53657W        W25983  22.215   6.949  11.565
53658W        W25984   2.695  31.519  14.063
53659W        W25985   7.390   6.851   0.941
53660W        W25986  29.194   8.471   4.590
53661W        W25987  15.864  18.648  12.053
53662W        W25988  10.926  36.359   2.058
53663W        W25989   4.048  44.082   1.397
53664W        W25990  37.339   3.909  12.318
53665W        W25991  30.457  16.815  14.771
53666W        W25992  18.461   2.505   0.951
53667W        W25993  10.307   4.538   4.153
53668W        W25994  25.111  27.181  12.031
53669W        W25995   2.242  27.921   2.204
53670W        W25996  36.087  17.484  12.935
53671W        W25997   1.882   4.999  10.791
53672W        W25998  25.419  18.263  14.357
53673W        W25999  40.547  36.055  11.423
53674W        W26000  26.705  32.450   4.811
53675W        W26001   7.771  41.263   4.524
53676W        W26002  41.431  37.516  11.071
53677W        W26003  43.291  10.101  14.401
53678W        W26004  32.558  10.160  14.837
53679W        W26005   8.219  10.287   0.177
53680W        W26006  37.636  20.038   3.790
53681W        W26007  30.893  24.067  12.040
53682W        W26008   6.498  38.012   1.758
53683W        W26009   2.969  14.397   3.314
53684W        W26010  35.387  17.051   3.669
53685W        W26011  22.946  21.580  14.748
53686W        W26012  23.603  29.720  12.583
53687W        W26013  12.167  33.948   4.578
53688W        W26014  21.166  33.724  13.392
53689W        W26015  30.361  25.135  11.871
53690W        W26016  41.119  21.611  13.284
53691W        W26017  18.107  43.818  10.547
53692W        W26018   7.844  36.670   0.820
53693W        W26019  18.451  13.104   3.446
53694W        W26020  27.873   9.710   3.205
53695W        W26021   3.276   8.575  11.204
53696W        W26022   8.684  15.593   2.162
53697W        W26023  22.004  39.024  14.675
53698W        W26024  29.086  17.493  11.953
53699W        W26025  43.980  14.235  11.430
53700W        W26026  32.695  17.757   4.219
53701W        W26027  34.474  29.896   4.544
53702W        W26028  19.519   2.258   1.418
53703W        W26029  20.218   3.339   1.667
53704W        W26030  14.265   7.165   0.505
53705W        W26031   1.783  37.792  13.800
53706W        W26032  23.250   8.633   0.932
53707W        W26033  36.281   5.398   2.764
53708W        W26034  15.602  30.510  13.888
53709W        W26035  42.355  22.570   2.650
53710W        W26036  11.647  21.195   3.486
53711W        W26037  27.576  23.086  10.451
53712W        W26038  26.409  17.718   1.745
53713W        W26039  27.958  36.241   2.773
53714W        W26040  23.982  12.801  11.851
53715W        W26041  34.586  31.189   0.802
53716W        W26042   4.266   9.717  13.363
53717W        W26043  11.282   4.993   4.707
53718W        W26044  21.442  24.520   0.433
53719W        W26045   6.721   0.478  10.451
53720W        W26046  16.836  16.583   3.650
53721W        W26047   9.031   3.833   2.340
53722W        W26048  25.722  42.594  11.388
53723W        W26049  31.914  21.221   3.393
53724W        W26050  39.841  37.991   4.473
53725W        W26051  13.736   0.399   1.347
53726W        W26052  14.025   6.642   4.220
53727W        W26053  11.181  21.320   0.371
53728W        W26054  35.594  25.702   4.561
53729W        W26055  31.408  35.706  12.184
53730W        W26056  44.762   5.952   2.377
53731W        W26057  28.557  13.175   0.219
53732W        W26058  22.946  20.624   4.456
53733W        W26059  40.344  26.752   3.271
53734W        W26060  34.199  17.168   1.955
53735W        W26061   7.359  10.388   4.246
53736W        W26062  44.264  37.576   3.787
53737W        W26063   9.837  35.991   0.386
53738W        W26064  18.669  36.424   0.396
53739W        W26065   5.256  31.785   1.129
53740W        W26066  25.663  26.554  10.707
53741W        W26067  11.604  16.011   0.730
53742W        W26068  42.866  20.803  11.610
53743W        W26069  28.858  20.457  12.114
53744W        W26070  15.845  13.043  12.580
53745W        W26071   4.595   5.688   2.008
53746W        W26072   7.931   4.850   3.669
53747W        W26073   3.471   8.846  11.608
53748W        W26074  28.119  29.876  13.345
53749W        W26075  27.532  30.207   3.140
53750W        W26076  26.625  39.389  11.846
53751W        W26077  26.157  32.477  14.724
53752W        W26078  43.272  36.467   0.818
53753W        W26079  19.376  15.288  11.026
53754W        W26080  13.145  17.526  13.903
53755W        W26081   2.423  33.220   0.827
53756W        W26082  24.751  34.388  11.482
53757W        W26083  16.801  10.040  10.688
53758W        W26084   8.490  15.396  14.954
53759W        W26085   7.748  37.549   1.029
53760W        W26086  36.097  19.808   1.725
53761W        W26087   3.859  41.108   0.381
53762W        W26088  32.422   1.217   4.691
53763W        W26089  19.249  14.717  10.646
53764W        W26090  42.919   2.822  13.008
53765W        W26091  16.824  11.870  11.535
53766W        W26092  36.592   2.454   1.888
53767W        W26093  29.964  28.458   2.585
53768W        W26094   5.786  18.272   3.332
53769W        W26095  20.611  37.822  13.512
53770W        W26096  29.441  23.760  11.918
53771W        W26097  17.323  24.945   2.699
53772W        W26098   4.806  30.367   3.624
53773W        W26099   1.642  15.536   4.616
53774W        W26100   4.435  28.422  14.037
53775W        W26101   1.259   8.560  13.588
53776W        W26102  11.866  27.435   4.211
53777W        W26103  16.200  23.468  13.044
53778W        W26104  15.199  24.117   2.185
53779W        W26105  18.319  11.666  12.333
53780W        W26106   3.424   0.026   1.710
53781W        W26107   0.912   6.262  14.406
53782W        W26108  10.547  22.475   4.937
53783W        W26109  32.695   9.721  13.980
53784W        W26110  40.368   6.373  10.188
53785W        W26111   4.462  42.026   1.244
53786W        W26112  35.581  36.838   2.283
53787W        W26113   0.463   1.614   5.472
53788W        W26114   9.264  15.363   0.462
53789W        W26115   9.446  21.029   0.919
53790W        W26116  35.588  12.786  11.604
53791W        W26117  39.069  27.190   2.225
53792W        W26118  29.948   2.945   1.774
53793W        W26119  33.860  20.514   3.677
53794W        W26120  29.908   4.391   0.017
53795W        W26121  22.617  25.263   0.450
53796W        W26122  19.510  32.049  10.684
53797W        W26123  34.119  23.267   5.034
53798W        W26124   4.009  33.157   2.809
53799W        W26125  14.329  37.534  14.023
53800W        W26126  11.626  32.551   4.460
53801W        W26127  28.968  17.775   1.860
53802W        W26128  21.965  10.807   2.214
53803W        W26129  24.312  23.470  12.496
53804W        W26130  39.068  13.410   0.232
53805W        W26131  32.033  41.454   0.854
53806W        W26132  20.187  14.943  11.655
53807W        W26133  41.491   9.623  14.091
53808W        W26134  40.411  22.799   3.339
53809W        W26135  42.020  32.651   1.421
53810W        W26136   4.560  34.285   0.733
53811W        W26137  28.918  28.968   5.590
53812W        W26138  13.818  38.669  13.334
53813W        W26139  33.578  18.191  13.567
53814W        W26140   6.313  43.430  11.472
53815W        W26141   2.675  43.962   2.342
53816W        W26142  29.078  10.131   2.281
53817W        W26143   1.896   2.935   1.867
53818W        W26144  39.599   7.761  12.464
53819W        W26145  10.868  26.911  11.385
53820W        W26146  14.640  26.541  10.670
53821W        W26147  28.978  23.493   0.546
53822W        W26148  41.211  34.898  12.525
53823W        W26149  42.284  23.596   0.294
53824W        W26150  14.377  43.299  13.576
53825W        W26151  31.429  33.592   1.249
53826W        W26152  13.338  33.074   4.329
53827W        W26153  41.542  31.454   1.180
53828W        W26154   2.448   1.047  11.178
53829W        W26155  30.682  32.860  14.593
53830W        W26156  41.827  19.203   3.734
53831W        W26157  34.202  40.875   0.733
53832W        W26158  34.806  13.575   0.879
53833W        W26159   7.413   5.451   1.792
53834W        W26160  16.473  40.968   1.302
53835W        W26161  19.171  11.238  12.981
53836W        W26162  13.459  37.222   5.495
53837W        W26163   3.443  28.421  13.024
53838W        W26164  21.012   4.545  12.820
53839W        W26165  42.471  22.703  12.415
53840W        W26166  28.077  23.147   1.931
53841W        W26167  10.003  36.394   4.599
53842W        W26168  21.976  36.557  11.150
53843W        W26169  44.800  33.808   4.732
53844W        W26170  42.604  43.024  10.680
53845W        W26171   6.234  37.097   0.521
53846W        W26172  38.612  34.092  13.503
53847W        W26173  30.117   1.314   3.294
53848W        W26174   1.909   3.743  11.394
53849W        W26175  13.393   8.558  13.760
53850W        W26176  32.499  11.721   3.776
53851W        W26177   9.638  18.728   2.193
53852W        W26178  39.792  22.782  12.001
53853W        W26179   0.405  17.799   3.737
53854W        W26180  10.934  15.277  14.890
53855W        W26181   6.098  33.399  13.384
53856W        W26182  14.163   7.897   1.272
53857W        W26183   2.528  38.029   3.166
53858W        W26184  43.538  38.124  12.061
53859W        W26185  41.397  13.076  14.388
53860W        W26186   1.551  18.062  13.961
53861W        W26187  37.836   3.944  12.174
53862W        W26188  14.065  10.209  13.242
53863W        W26189   4.253   8.169  10.739
53864W        W26190  10.870  11.782   1.325
53865W        W26191   4.353   6.836   3.397
53866W        W26192  44.229  13.625   1.369
53867W        W26193  33.192  26.084   1.978
53868W        W26194   5.851  25.170  12.571
53869W        W26195  38.797   0.743  14.656
53870W        W26196   6.661   5.406   1.393
53871W        W26197  11.460  39.445  11.588
53872W        W26198   5.946   9.024   4.518
53873W        W26199  25.579   4.960  11.444
53874W        W26200   3.219  22.705  14.022
53875W        W26201  42.230   2.868   1.277
53876W        W26202   6.638  22.759  10.885
53877W        W26203  33.940  41.151   3.954
53878W        W26204  20.186  34.891  12.512
53879W        W26205  14.313  40.417   1.062
53880W        W26206   6.207  11.572   0.200
53881W        W26207   6.452  34.992   2.626
53882W        W26208  36.426  27.523   0.911
53883W        W26209  17.294  24.179  10.207
53884W        W26210  24.169  12.807   0.466
53885W        W26211  31.355   1.289  14.030
53886W        W26212  34.917  21.070  12.833
53887W        W26213  15.807  37.347  11.297
53888W        W26214   3.772  43.287  11.041
53889W        W26215  42.061   3.469   1.301
53890W        W26216   5.392  32.688  14.801
53891W        W26217  11.250  37.334   0.026
53892W        W26218   1.286   2.715  14.424
53893W        W26219  38.051  23.203  10.648
53894W        W26220  34.414   5.841  13.593
53895W        W26221  11.864   0.844   4.124
53896W        W26222  15.723  14.814  13.879
53897W        W26223  30.913  40.910   0.955
53898W        W26224   8.787  29.960   3.396
53899W        W26225   0.867   1.950  11.875
53900W        W26226   2.728  36.051  11.986
53901W        W26227   1.343  41.496  14.313
53902W        W26228   3.024  35.822  10.665
53903W        W26229   7.313  24.383  11.118
53904W        W26230  30.209  18.056   4.085
53905W        W26231   1.401  40.038  13.058
53906W        W26232   9.823  33.879   1.762
53907W        W26233  30.965   6.585  12.421
53908W        W26234  27.302  31.795  13.863
53909W        W26235  16.478   1.421  14.442
53910W        W26236  20.996  11.297  11.495
53911W        W26237   3.229   9.380   0.702
53912W        W26238  22.335   4.622  10.838
53913W        W26239  14.744  17.203   4.082
53914W        W26240  25.184  37.893  11.877
53915W        W26241   1.480  44.548   3.337
53916W        W26242   7.407   2.337   1.740
53917W        W26243  32.908  28.615  13.798
53918W        W26244  33.337  40.504  12.895
53919W        W26245  28.451  23.607   2.392
53920W        W26246   9.647   1.513   0.883
53921W        W26247   7.507  36.124  12.090
53922W        W26248  12.901  22.568   1.800
53923W        W26249  30.953  29.538  14.327
53924W        W26250  25.077  33.541   2.274
53925W        W26251  29.019  28.156   1.391
53926W        W26252  36.588  38.966   0.433
53927W        W26253   2.923  25.230   4.782
53928W        W26254  14.155  26.654   0.387
53929W        W26255  11.669  32.049  14.945
53930W        W26256  23.520  21.075   4.152
53931W        W26257  19.996  17.568   0.482
53932W        W26258  15.066   5.740  11.487
53933W        W26259  40.072  28.419  13.945
53934W        W26260   9.889  39.800   4.667
53935W        W26261  37.144  38.558  11.167
53936W        W26262  34.102  39.360   2.850
53937W        W26263  39.489   8.249   2.321
53938W        W26264  15.627  39.965  11.083
53939W        W26265   6.001  40.960  14.357
53940W        W26266  43.798  34.957  11.103
53941W        W26267   2.961   0.461  14.931
53942W        W26268  43.510  23.239  11.820
53943W        W26269   8.381  25.656  10.596
53944W        W26270  37.185  24.712   0.326
53945W        W26271  29.355   3.453   0.909
53946W        W26272  29.410  24.206  13.036
53947W        W26273  27.824  24.218   4.909
53948W        W26274  26.899  10.178  11.203
53949W        W26275  30.658  27.624  12.917
53950W        W26276  32.584  19.783   4.638
53951W        W26277  37.853   4.838  12.007
53952W        W26278  26.245   5.317  10.775
53953W        W26279  32.531   6.189   1.242
53954W        W26280  18.110   7.356   3.280
53955W        W26281  39.078  16.728   3.305
53956W        W26282   2.239   3.462   0.307
53957W        W26283  17.046  43.276   1.426
53958W        W26284   0.048  13.315   1.880
53959W        W26285   7.300  14.075  13.029
53960W        W26286  35.425  13.318  13.779
53961W        W26287  42.484  37.436   3.792
53962W        W26288  44.351  19.566   0.209
53963W        W26289  11.745  12.137   2.785
53964W        W26290   1.330   2.772   0.304
53965W        W26291   1.677  35.990   0.956
53966W        W26292  30.851  25.217  10.975
53967W        W26293  33.916  25.663   1.275
53968W        W26294  31.606  24.203  10.781
53969W        W26295  10.836   2.984  14.421
53970W        W26296  39.319   9.716   4.141
53971W        W26297  43.939  26.169  13.489
53972W        W26298   5.327   0.536  11.595
53973W        W26299  12.383  32.051   3.669
53974W        W26300  24.702  22.614  12.786
53975W        W26301  21.532  42.875  11.066
53976W        W26302  13.155  29.595  14.500
53977W        W26303  13.585  33.455   2.338
53978W        W26304  25.216  24.621   3.732
53979W        W26305  34.540   0.514   2.623
53980W        W26306  37.314   8.501  14.302
53981W        W26307  29.102  30.955  12.996
53982W        W26308  18.461  19.779  11.654
53983W        W26309   5.666  21.746   1.985
53984W        W26310  20.013  18.766   3.085
53985W        W26311  40.489  35.838  12.381
53986W        W26312  10.737  26.120   1.843
53987W        W26313  34.145   2.174   2.827
53988W        W26314  11.797   7.420  14.366
53989W        W26315  37.987  22.545   1.243
53990W        W26316   1.495  41.532   4.265
53991W        W26317  28.934  23.955   2.543
53992W        W26318  10.332  41.325  10.719
53993W        W26319  31.397  30.157   0.827
53994W        W26320  13.898  42.481   4.791
53995W        W26321  24.041   3.745   4.270
53996W        W26322  41.298  11.043   0.444
53997W        W26323  39.269  13.916  10.591
53998W        W26324  43.827  16.182   1.524
53999W        W26325  44.384   8.455  11.510
54000W        W26326  15.131   2.198   4.229
54001W        W26327  15.255  34.363   4.637
54002W        W26328  33.756  43.472  12.058
54003W        W26329  42.855   9.577   4.709
54004W        W26330  36.816  19.743  12.671
54005W        W26331  31.534   5.656  13.736
54006W        W26332  29.846  25.018  10.609
54007W        W26333  41.875   8.891   3.287
54008W        W26334  16.690  10.237  12.639
54009W        W26335   5.285  14.683  14.369
54010W        W26336  28.203   4.731   5.107
54011W        W26337   0.945  16.228  14.910
54012W        W26338  12.889  23.495   2.661
54013W        W26339  19.132  43.127  13.699
54014W        W26340  43.891   1.342  11.152
54015W        W26341  19.734   4.933   3.376
54016W        W26342   9.799  19.249   1.195
54017W        W26343  41.870  24.261   1.858
54018W        W26344  31.131  31.447  12.591
54019W        W26345  25.282   3.340  12.632
54020W        W26346   6.828   8.605  14.827
54021W        W26347   1.968  15.158   1.377
54022W        W26348  18.549  37.777  11.664
54023W        W26349  34.067  38.511  10.586
54024W        W26350  31.657  44.531  13.929
54025W        W26351  24.062  21.732   4.397
54026W        W26352  16.572   3.915   0.809
54027W        W26353  17.646  25.650   0.700
54028W        W26354  22.282  26.628   0.436
54029W        W26355  43.329  19.588  11.054
54030W        W26356   5.516  34.917   2.552
54031W        W26357  22.747   2.945   2.661
54032W        W26358  36.607  35.858   4.659
54033W        W26359  14.262  13.900  12.900
54034W        W26360  37.350  37.933  13.131
54035W        W26361   8.851  22.032   1.549
54036W        W26362  37.342  37.388   2.293
54037W        W26363  29.972   6.261  12.470
54038W        W26364  11.447  37.558   2.274
54039W        W26365  12.294  25.581  10.567
54040W        W26366  20.811  41.239  11.036
54041W        W26367   6.350  29.665   2.405
54042W        W26368  25.385  41.958  12.044
54043W        W26369  37.538  20.708  12.115
54044W        W26370  39.375  24.309  14.002
54045W        W26371  24.674  38.162   1.674
54046W        W26372  33.391   9.589  14.503
54047W        W26373  20.731  43.518   0.674
54048W        W26374  40.176   8.267  13.458
54049W        W26375  26.792   6.771  14.538
54050W        W26376  25.470  30.209  12.384
54051W        W26377  22.587  30.601   4.611
54052W        W26378  40.959  10.623   4.716
54053W        W26379  17.272  28.887  13.531
54054W        W26380  35.593  31.968   2.189
54055W        W26381   6.655   7.097  12.527
54056W        W26382  36.625  38.871  11.998
54057W        W26383  40.970  30.586  14.504
54058W        W26384  13.207   1.248   3.259
54059W        W26385  16.775  41.820  12.078
54060W        W26386  33.607  11.731   1.693
54061W        W26387  24.696  27.104   0.280
54062W        W26388  35.605  17.673  13.098
54063W        W26389  10.860   8.797   2.766
54064W        W26390  20.777  38.796   1.239
54065W        W26391   0.230   6.448   0.293
54066W        W26392  41.988   4.504   4.606
54067W        W26393  27.882  10.650  12.561
54068W        W26394   1.761  22.582  14.879
54069W        W26395   6.422  13.648   0.171
54070W        W26396  44.086  28.132  10.992
54071W        W26397  16.605  25.403  11.529
54072W        W26398  11.810   0.432   0.280
54073W        W26399  34.288  34.634   0.653
54074W        W26400   1.858  12.752   2.844
54075W        W26401  36.486   0.349   4.335
54076W        W26402  37.939   0.839  12.561
54077W        W26403   9.308   7.224  12.860
54078W        W26404  34.478  18.307   4.675
54079W        W26405  14.772  16.476   1.925
54080W        W26406   7.411  33.486   1.754
54081W        W26407  16.825   1.250  12.522
54082W        W26408  41.597  12.168  13.425
54083W        W26409  16.943  25.641   3.555
54084W        W26410  39.143   7.792   1.302
54085W        W26411  32.417  14.738   1.773
54086W        W26412  29.998  28.559  14.272
54087W        W26413  10.866   6.434   3.806
54088W        W26414  15.720   5.220   0.075
54089W        W26415   8.197  16.053  11.607
54090W        W26416  17.200  32.134  14.061
54091W        W26417  21.135   8.413  10.354
54092W        W26418  33.797   4.538  13.678
54093W        W26419  13.424   2.938   4.354
54094W        W26420  38.456  15.584  12.822
54095W        W26421  20.599  29.685   2.733
54096W        W26422  38.340   9.161  14.641
54097W        W26423  18.284  16.944  10.690
54098W        W26424  36.153  17.480   4.065
54099W        W26425   6.814  29.598  13.891
54100W        W26426  44.909  29.020   4.826
54101W        W26427  27.946  44.394   1.293
54102W        W26428  16.806  10.205   4.713
54103W        W26429   2.392  23.436  13.023
54104W        W26430  24.941  25.992   2.293
54105W        W26431  29.934  28.022  14.107
54106W        W26432  41.387  12.298   0.786
54107W        W26433  14.309  19.742  10.273
54108W        W26434  30.358  17.917  11.586
54109W        W26435  35.624  12.502   1.834
54110W        W26436  10.143  34.988   0.306
54111W        W26437  38.798  41.856   5.018
54112W        W26438  21.906  42.673   4.149
54113W        W26439   7.528  39.051  14.416
54114W        W26440  10.669  20.473   3.288
54115W        W26441  28.932  39.078   1.711
54116W        W26442  42.852  19.628   4.873
54117W        W26443   1.257  10.770  10.515
54118W        W26444  36.030  18.262  13.531
54119W        W26445  23.595  37.848   1.243
54120W        W26446  20.452  15.090  13.446
54121W        W26447  17.270   5.942  10.328
54122W        W26448  15.268   8.086  14.310
54123W        W26449   4.730  20.240   3.678
54124W        W26450  24.992   0.328  12.519
54125W        W26451  14.299   2.282  11.499
54126W        W26452   1.986  35.306   0.041
54127W        W26453  19.603  44.322  11.416
54128W        W26454  12.650   9.305   1.930
54129W        W26455  36.246  10.488   4.328
54130W        W26456  23.716  30.431   1.954
54131W        W26457  32.189  24.073  13.990
54132W        W26458  24.844  40.314   5.144
54133W        W26459  27.768  28.761   3.313
54134W        W26460  28.015  43.151  12.383
54135W        W26461  34.958  31.826  11.394
54136W        W26462  12.323  31.583   2.207
54137W        W26463  33.844  18.163  13.110
54138W        W26464   8.100  13.559   2.306
54139W        W26465   1.775  17.132  12.004
54140W        W26466  26.942  23.430   4.518
54141W        W26467   4.171  11.201  12.473
54142W        W26468  28.168  41.746   1.452
54143W        W26469  35.527  10.680  14.458
54144W        W26470   6.741  29.610  14.896
54145W        W26471  10.936  13.291  12.553
54146W        W26472   9.343  37.900  14.956
54147W        W26473  34.513  15.863  13.782
54148W        W26474  24.085  31.354  13.984
54149W        W26475  15.620  28.441   2.379
54150W        W26476   9.174  20.840   2.291
54151W        W26477  11.994  10.178  14.534
54152W        W26478  13.675  43.773  11.112
54153W        W26479   7.824  10.879   4.582
54154W        W26480  42.240  28.324   2.325
54155W        W26481  26.079  32.764  11.060
54156W        W26482  16.350  37.448   2.185
54157W        W26483  27.622  37.676  13.022
54158W        W26484  35.091  41.932  12.615
54159W        W26485   4.529  11.654   2.431
54160W        W26486  15.592  32.084  14.404
54161W        W26487  31.853   4.802  13.570
54162W        W26488  18.587  32.474   1.859
54163W        W26489  35.943  28.468  12.856
54164W        W26490   9.261  36.559   1.934
54165W        W26491  17.642  11.266  11.608
54166W        W26492  11.879  23.569  11.613
54167W        W26493  15.217  42.307  12.805
54168W        W26494   7.323  16.058  12.832
54169W        W26495   5.715   4.855   0.544
54170W        W26496  27.484   5.210   4.149
54171W        W26497  16.167   8.922   4.484
54172W        W26498  20.048  39.294   4.897
54173W        W26499  35.393  37.839  13.980
54174W        W26500  33.371  19.545   1.826
54175W        W26501  11.658  31.940  12.686
54176W        W26502   6.377   4.858   4.613
54177W        W26503  22.183  35.420  14.031
54178W        W26504  21.178  38.296   1.251
54179W        W26505  20.846  17.036  14.863
54180W        W26506   5.452  10.375  14.827
54181W        W26507  22.993  12.843  12.978
54182W        W26508   6.769  43.556   4.155
54183W        W26509  25.994  41.327  14.962
54184W        W26510  30.989  20.761   3.838
54185W        W26511   6.693  41.389  14.895
54186W        W26512  17.173  29.767   2.610
54187W        W26513  29.687  17.986   2.838
54188W        W26514  18.557   1.480  10.647
54189W        W26515  42.358  21.646   2.966
54190W        W26516   1.013  36.025   3.342
54191W        W26517  28.589  42.259  14.873
54192W        W26518  38.059  23.187   1.983
54193W        W26519  32.068  28.867  10.961
54194W        W26520  13.458   0.752  12.557
54195W        W26521   0.056  14.864   0.900
54196W        W26522  28.962   5.384   3.340
54197W        W26523   4.793  14.790   0.341
54198W        W26524   8.873  26.327  13.362
54199W        W26525  27.818  41.206   0.436
54200W        W26526   2.091   0.362  13.318
54201W        W26527   4.804  25.314   2.159
54202W        W26528   2.913  16.118  11.255
54203W        W26529  19.659  26.517   0.227
54204W        W26530  13.031   9.562  11.949
54205W        W26531  16.353  31.566  11.517
54206W        W26532  15.252  21.068  12.413
54207W        W26533   1.582   8.983   5.173
54208W        W26534  21.515  21.727   0.915
54209W        W26535   7.973  24.213   1.805
54210W        W26536   6.104  25.819  11.176
54211W        W26537  31.837  43.897  12.025
54212W        W26538  31.837  27.711   4.825
54213W        W26539   3.722  24.275  13.402
54214W        W26540  38.326  30.953   0.520
54215W        W26541  18.765  17.239   0.357
54216W        W26542  30.662  23.093  11.569
54217W        W26543  25.906  15.786  13.890
54218W        W26544  36.586   4.418  12.124
54219W        W26545  29.603  17.625   4.079
54220W        W26546  43.688  33.037  14.130
54221W        W26547  40.532  23.013   2.862
54222W        W26548  30.880  13.188   2.221
54223W        W26549  17.793  44.882   1.672
54224W        W26550  13.370  18.216   0.863
54225W        W26551   7.196   7.155  11.821
54226W        W26552  44.222  34.151  11.336
54227W        W26553  44.923  24.653   2.823
54228W        W26554  17.283  16.804   3.829
54229W        W26555   7.152  14.738   2.713
54230W        W26556  15.519  30.889   0.722
54231W        W26557  24.374  36.751   4.205
54232W        W26558   8.676  21.270  14.320
54233W        W26559  23.512  11.701   0.477
54234W        W26560  44.747   2.775   3.555
54235W        W26561  36.004  29.924  10.958
54236W        W26562   0.938  10.451   5.559
54237W        W26563   9.874  18.205   4.616
54238W        W26564  42.430   6.718  11.673
54239W        W26565  42.753   3.848  10.925
54240W        W26566   6.096  29.976  14.574
54241W        W26567  18.564  16.643   2.849
54242W        W26568   4.366  37.521   4.402
54243W        W26569  29.692   3.926   1.785
54244W        W26570  42.662  21.908  10.992
54245W        W26571  44.423  33.590   3.184
54246W        W26572  15.176  44.938  12.887
54247W        W26573  36.780   2.306  12.433
54248W        W26574  19.948  18.646   2.079
54249W        W26575  17.803   7.320   2.882
54250W        W26576  26.764  26.389   2.370
54251W        W26577   0.523   5.336  10.926
54252W        W26578   8.210  12.965   3.332
54253W        W26579  33.429  36.111  12.978
54254W        W26580  40.378  13.851  14.060
54255W        W26581  12.867  20.169  14.049
54256W        W26582  23.501  27.954   1.766
54257W        W26583  22.632   1.555   2.665
54258W        W26584  19.432   6.292  12.559
54259W        W26585  41.297  33.977   2.230
54260W        W26586  14.554  44.373  12.837
54261W        W26587  41.379  23.183   4.670
54262W        W26588  27.634   1.421   1.266
54263W        W26589   1.741  19.603  12.433
54264W        W26590  36.537  17.565  14.332
54265W        W26591  38.432  21.779   1.320
54266W        W26592  24.521   2.911  14.769
54267W        W26593  28.109  35.175   4.205
54268W        W26594  44.347  39.974  11.162
54269W        W26595  12.841  15.320  10.747
54270W        W26596  17.282  14.830   2.151
54271W        W26597   6.009  26.039  13.401
54272W        W26598  28.562  10.918   0.487
54273W        W26599  30.626   0.705  13.107
54274W        W26600  16.735  33.398  12.413
54275W        W26601  18.308  33.910  11.155
54276W        W26602  28.678  21.297  12.385
54277W        W26603  17.714  21.460  10.575
54278W        W26604  19.336  12.106  11.600
54279W        W26605  42.803  18.270   3.071
54280W        W26606  21.168  26.693   0.048
54281W        W26607  24.743  21.946  11.525
54282W        W26608   1.156   0.398  12.400
54283W        W26609   9.832   1.965  12.116
54284W        W26610  43.068  33.542  12.363
54285W        W26611  35.287  40.485   1.356
54286W        W26612  17.186  21.612   0.415
54287W        W26613  20.761   9.946   1.014
54288W        W26614  12.297  13.525  11.440
54289W        W26615  16.566  18.578  13.755
54290W        W26616   8.059  20.707  12.959
54291W        W26617  30.840  12.450  11.490
54292W        W26618  35.369  33.187   5.496
54293W        W26619  13.684  32.524   3.867
54294W        W26620  21.537  22.009   0.489
54295W        W26621  34.345  37.103   4.599
54296W        W26622  12.892  34.145  14.416
54297W        W26623   0.784   6.678   3.102
54298W        W26624   5.395  26.032   2.308
54299W        W26625  25.450   7.358  10.803
54300W        W26626  11.606  15.799  11.497
54301W        W26627  21.070  36.638   0.310
54302W        W26628  31.179  19.712   3.917
54303W        W26629  27.478   0.688  13.806
54304W        W26630  37.276   2.732   2.372
54305W        W26631  17.017  28.666   4.017
54306W        W26632  29.993  30.318  11.638
54307W        W26633   0.925  15.677   3.274
54308W        W26634  41.112  28.272  13.054
54309W        W26635  25.725  10.876   4.851
54310W        W26636  34.944  11.137   4.605
54311W        W26637  31.215  29.962  14.527
54312W        W26638  25.457  43.231  10.632
54313W        W26639  43.945  38.316   3.264
54314W        W26640  17.682  10.182   4.717
54315W        W26641  41.969  15.293   2.690
54316W        W26642   6.818  37.628  13.952
54317W        W26643  34.897  35.593   4.043
54318W        W26644  14.545  23.953  12.376
54319W        W26645   8.872  26.954  12.933
54320W        W26646  17.714   2.887   2.452
54321W        W26647  10.881  17.426  11.086
54322W        W26648  43.749  41.061  14.512
54323W        W26649  30.221   0.897   0.937
54324W        W26650  36.308  30.005  11.617
54325W        W26651  20.130  28.583   1.379
54326W        W26652  41.002   9.676  11.078
54327W        W26653  37.025  17.129  10.667
54328W        W26654  40.528  35.459   2.171
54329W        W26655  42.242  17.603   3.391
54330W        W26656  17.771  39.646   3.830
54331W        W26657   4.033  39.023  14.315
54332W        W26658  37.580   6.417   2.895
54333W        W26659  36.149  13.095  12.421
54334W        W26660  25.752  27.646  14.206
54335W        W26661  26.692  26.256  13.845
54336W        W26662  18.422  37.339   3.807
54337W        W26663   6.600  13.195  12.542
54338W        W26664  27.137  20.931   3.897
54339W        W26665   2.128  17.765  14.807
54340W        W26666  16.522  13.252   3.527
54341W        W26667  21.970   7.820  10.552
54342W        W26668  28.122   0.723   0.856
54343W        W26669  28.945  42.321  13.767
54344W        W26670  30.893  33.050   1.831
54345W        W26671  44.263  15.772   1.712
54346W        W26672  34.615  21.222   1.206
54347W        W26673  24.127  42.039   3.731
54348W        W26674  31.681  15.373  11.537
54349W        W26675  37.123   5.795   2.615
54350W        W26676  14.125  15.499   2.389
54351W        W26677  19.661   7.623  12.624
54352W        W26678  35.454  23.770   4.773
54353W        W26679  23.243   3.263   4.304
54354W        W26680  33.243  32.647  14.829
54355W        W26681  14.683  43.244  14.881
54356W        W26682  42.736  11.244  14.750
54357W        W26683   5.839  24.485   2.783
54358W        W26684  37.538   2.264  13.945
54359W        W26685  12.585  38.190   1.495
54360W        W26686   9.625  10.715  12.528
54361W        W26687   3.701  18.116  11.708
54362W        W26688  42.943  37.508  11.252
54363W        W26689  28.683  16.248  14.777
54364W        W26690   9.992  26.209  12.051
54365W        W26691   9.674   4.452   2.679
54366W        W26692  14.158   4.557   0.688
54367W        W26693   2.345   7.734   1.034
54368W        W26694  41.977  42.102  13.214
54369W        W26695  16.084  41.817  13.060
54370W        W26696  21.530  32.079   4.092
54371W        W26697  40.961   8.404  14.506
54372W        W26698  29.486  24.676   3.301
54373W        W26699  23.474   5.565   3.700
54374W        W26700   3.403   4.028   3.675
54375W        W26701  44.046   1.012   4.752
54376W        W26702  29.598   9.097  12.593
54377W        W26703  21.158  21.978   4.907
54378W        W26704  19.631  42.304   3.917
54379W        W26705  37.544  23.973   0.256
54380W        W26706  39.885  25.129   2.812
54381W        W26707  33.693  33.438   2.490
54382W        W26708  10.862  36.605  14.559
54383W        W26709  15.605  29.525   4.572
54384W        W26710  39.384   9.341  13.082
54385W        W26711  21.045  23.606   3.107
54386W        W26712  16.774  16.570  12.369
54387W        W26713  33.862   5.946   0.946
54388W        W26714  28.813  34.408   4.449
54389W        W26715  25.995  44.954  11.953
54390W        W26716  27.512   4.341  11.015
54391W        W26717  27.619  30.679  14.236
54392W        W26718  10.162   4.208  14.340
54393W        W26719  22.587  26.600  12.623
54394W        W26720  40.948   0.642  11.938
54395W        W26721  14.397  16.338  14.386
54396W        W26722  44.243  35.601  14.594
54397W        W26723  43.804  10.885  14.435
54398W        W26724  13.371   7.863  11.038
54399W        W26725  16.279  13.379   0.311
54400W        W26726  37.141  44.138  14.455
54401W        W26727  21.629  40.586   3.922
54402W        W26728  43.780  39.821  13.959
54403W        W26729  44.037  43.099   1.408
54404W        W26730  18.357  12.171  13.470
54405W        W26731  26.688  25.084   4.173
54406W        W26732   5.255  36.074   4.999
54407W        W26733  33.069  20.213  10.539
54408W        W26734  28.951   3.386  12.091
54409W        W26735  21.701  44.535  14.819
54410W        W26736   9.332  22.208   1.769
54411W        W26737   0.961  44.145  14.865
54412W        W26738  26.495  28.538  14.848
54413W        W26739   9.963  40.514   1.806
54414W        W26740  12.641  34.871  11.377
54415W        W26741  35.896  34.560   3.323
54416W        W26742  43.441  39.756  14.484
54417W        W26743  19.510   5.504  14.920
54418W        W26744   1.606  44.648  10.686
54419W        W26745  29.661  34.426   4.283
54420W        W26746   9.786  37.310  14.459
54421W        W26747  18.032  21.677   1.483
54422W        W26748  29.882   8.618   0.979
54423W        W26749   5.900  34.501  11.718
54424W        W26750  27.069  19.463  13.379
54425W        W26751  18.487   5.795  13.102
54426W        W26752  22.188   7.294  14.720
54427W        W26753  22.687  17.117  12.401
54428W        W26754  41.627   5.814  11.185
54429W        W26755  10.241  44.906  14.691
54430W        W26756  33.525  13.116  14.955
54431W        W26757  13.234  38.138   4.059
54432W        W26758  23.168  40.033   0.072
54433W        W26759  10.385  13.527  14.854
54434W        W26760   5.352  17.141   1.822
54435W        W26761  30.426  40.822   3.154
54436W        W26762  23.734  25.958   2.765
54437W        W26763  31.871  34.576   1.134
54438W        W26764  35.834  17.222  13.323
54439W        W26765  13.611   9.460   1.796
54440W        W26766   5.162  25.855  12.277
54441W        W26767  39.327   9.254   3.858
54442W        W26768  14.077  24.105  14.947
54443W        W26769  11.289   9.991   1.263
54444W        W26770   6.048   1.345   1.407
54445W        W26771   3.435   0.399  11.477
54446W        W26772   8.127  38.912  11.523
54447W        W26773  29.961  42.271  12.648
54448W        W26774  27.994  28.673   2.387
54449W        W26775   7.307  18.753   2.399
54450W        W26776  31.893   7.915   5.034
54451W        W26777   1.040   6.180   1.299
54452W        W26778  44.736  13.221  11.509
54453W        W26779  14.840   8.917   0.572
54454W        W26780  32.649  26.326  14.096
54455W        W26781  43.956  33.158  11.528
54456W        W26782  13.095   1.385   1.270
54457W        W26783   5.430  28.124  12.131
54458W        W26784  12.107  43.398   3.160
54459W        W26785  36.602  26.042   2.175
54460W        W26786  14.851  19.550  12.024
54461W        W26787  22.983  31.576   3.282
54462W        W26788  34.464  36.949  14.046
54463W        W26789   3.822  41.350   2.608
54464W        W26790   5.841  30.163   4.716
54465W        W26791  41.083  21.140  14.484
54466W        W26792   4.765  12.308   4.519
54467W        W26793  30.064  21.038  11.996
54468W        W26794  37.266  33.473   2.894
54469W        W26795  39.624  35.539  12.132
54470W        W26796  14.739  39.565   2.374
54471W        W26797  44.368  35.026  11.204
54472W        W26798   1.459  19.154   4.732
54473W        W26799   0.839  34.371   0.457
54474W        W26800  37.447  22.062   4.236
54475W        W26801  23.992  31.129  13.184
54476W        W26802  14.687  30.169   5.008
54477W        W26803  19.638  43.088  14.387
54478W        W26804  13.653   6.644   4.696
54479W        W26805  30.112  20.045  14.860
54480W        W26806  40.021  12.853   1.766
54481W        W26807  44.984  34.597   4.182
54482W        W26808  43.500   0.738  11.721
54483W        W26809  12.184   8.707  11.457
54484W        W26810  25.403  32.517   1.559
54485W        W26811   0.803  42.443   1.355
54486W        W26812  16.329   9.755   0.249
54487W        W26813  31.696  17.182  14.273
54488W        W26814  19.681  19.736   3.867
54489W        W26815  41.089   8.436   2.815
54490W        W26816  16.561  21.280   4.709
54491W        W26817  19.343  33.353   1.218
54492W        W26818  13.318   9.181  12.151
54493W        W26819   2.759  25.464  13.541
54494W        W26820  29.256  29.506   2.617
54495W        W26821  24.547  12.672   3.540
54496W        W26822  41.752  26.621   2.767
54497W        W26823  44.050   9.457  11.897
54498W        W26824  28.527   1.056   1.543
54499W        W26825  27.078  11.859   2.360
54500W        W26826  36.447  33.263  11.085
54501W        W26827  14.041  31.397  13.896
54502W        W26828  29.480  25.920   9.678
54503W        W26829   1.823  41.583   3.568
54504W        W26830  32.147   7.154   1.855
54505W        W26831  24.880  36.902   4.146
54506W        W26832   5.849  13.227   3.752
54507W        W26833  25.340   1.759  11.570
54508W        W26834  17.122   2.405   3.246
54509W        W26835  29.277  10.854   4.147
54510W        W26836   0.386  27.911  13.204
54511W        W26837  40.053   0.229  10.758
54512W        W26838  36.088  41.947  12.574
54513W        W26839  33.662  26.755  11.187
54514W        W26840  16.104  30.704  12.393
54515W        W26841   0.378  29.466  11.520
54516W        W26842  23.267   6.223  13.372
54517W        W26843  27.493  13.620   3.625
54518W        W26844   4.440  32.993  13.427
54519W        W26845  43.327  18.154  11.079
54520W        W26846   7.913   6.603   3.430
54521W        W26847   7.444   7.404  12.922
54522W        W26848  21.675   7.702  10.975
54523W        W26849  10.726   7.761  13.676
54524W        W26850  23.573  38.003   0.731
54525W        W26851  21.528  30.688   1.446
54526W        W26852   7.518   8.444  11.175
54527W        W26853  23.971  42.309   0.401
54528W        W26854  26.406  31.196  13.355
54529W        W26855  32.574  13.711  13.935
54530W        W26856  42.440  40.381   1.900
54531W        W26857  29.154  20.226   0.978
54532W        W26858  16.152  34.701   1.910
54533W        W26859  14.578  34.110  11.395
54534W        W26860  17.930  33.318   0.431
54535W        W26861  42.857  16.248  13.982
54536W        W26862  26.517  25.549  12.158
54537W        W26863  35.440   7.604  12.129
54538W        W26864   6.156   2.923   1.870
54539W        W26865   6.378  14.057   0.513
54540W        W26866   5.859  26.013  10.572
54541W        W26867  40.101  37.308  11.465
54542W        W26868  39.413   5.322  12.623
54543W        W26869  38.880  43.962   2.653
54544W        W26870  39.910  44.947   1.641
54545W        W26871  11.239  36.585  12.894
54546W        W26872  30.427   1.784  11.329
54547W        W26873  35.341  13.783   0.954
54548W        W26874   0.241  44.323   0.396
54549W        W26875  37.058  15.236   1.191
54550W        W26876   2.486  26.964   1.208
54551W        W26877   3.795  44.470   0.258
54552W        W26878  42.295  24.730   3.835
54553W        W26879  17.350  10.364   1.689
54554W        W26880   3.352  24.047   5.087
54555W        W26881  36.415  32.065   2.788
54556W        W26882  44.428  24.022   2.361
54557W        W26883  27.976   0.859   4.922
54558W        W26884  42.789  16.254   1.699
54559W        W26885  11.903  19.948  11.072
54560W        W26886   4.859  21.347  11.109
54561W        W26887   9.824  10.392  13.976
54562W        W26888  30.545  39.230   1.419
54563W        W26889  25.669  13.086  10.645
54564W        W26890  38.080  40.522  13.455
54565W        W26891  17.100  21.016   2.236
54566W        W26892  25.539  36.318   4.147
54567W        W26893   5.684  42.324  14.962
54568W        W26894   1.445   8.400   4.464
54569W        W26895  42.311  12.662  14.360
54570W        W26896   2.200  24.130   0.941
54571W        W26897  15.839   2.491   0.883
54572W        W26898   5.455  42.585   1.239
54573W        W26899  22.959   2.294  12.447
54574W        W26900   7.299   8.134   2.657
54575W        W26901  13.056  36.058   9.873
54576W        W26902  20.299   5.244   2.163
54577W        W26903  19.699  18.544  12.589
54578W        W26904  26.008  44.010   3.812
54579W        W26905   4.480  12.696  13.572
54580W        W26906  29.511  34.102   4.666
54581W        W26907   7.674  42.732   3.708
54582W        W26908  32.840  39.243  11.045
54583W        W26909  12.656  11.578   0.236
54584W        W26910   8.304  26.283  11.198
54585W        W26911  15.302  43.827   2.734
54586W        W26912  24.728  26.629  14.388
54587W        W26913  28.566  40.949   2.796
54588W        W26914   6.534  43.835  13.131
54589W        W26915  32.550  25.272  10.655
54590W        W26916   1.115   2.000   2.233
54591W        W26917  35.862  32.882   1.288
54592W        W26918  39.422  42.785  11.295
54593W        W26919  34.798  13.443  14.904
54594W        W26920  11.352  15.732   1.163
54595W        W26921  31.570  43.214   1.039
54596W        W26922  10.099  11.342   1.388
54597W        W26923  24.993  43.297   4.839
54598W        W26924  12.154  29.629  14.375
54599W        W26925  23.702  40.121   1.089
54600W        W26926  43.315   2.701   1.463
54601W        W26927  26.377  28.969  13.020
54602W        W26928  23.280  13.231  12.258
54603W        W26929   0.544   9.649   2.314
54604W        W26930   7.271   8.779  12.976
54605W        W26931  13.588  29.430  14.232
54606W        W26932  40.814  38.423  12.824
54607W        W26933  38.063  27.485   1.090
54608W        W26934  14.319  22.084   0.021
54609W        W26935  19.109  34.685  11.014
54610W        W26936  19.904   1.208   0.805
54611W        W26937  16.675  40.619   0.960
54612W        W26938  10.098   1.839   2.362
54613W        W26939  25.539  41.796  13.829
54614W        W26940  22.519  34.227   3.851
54615W        W26941  27.404  35.333  14.270
54616W        W26942  11.805  21.949  12.938
54617W        W26943  33.969  41.312   0.681
54618W        W26944  32.716  22.591  10.803
54619W        W26945  42.452  21.478   4.999
54620W        W26946   1.200   9.890   4.717
54621W        W26947  22.973  14.715  13.356
54622W        W26948   7.378  11.890  12.006
54623W        W26949  39.965  21.792   0.760
54624W        W26950  19.089  43.369   0.068
54625W        W26951  33.432  12.007   4.240
54626W        W26952  39.104  28.238  11.094
54627W        W26953   4.240  27.380   1.884
54628W        W26954  38.036  20.855  13.007
54629W        W26955  43.267  35.650   1.474
54630W        W26956  35.052  44.364   0.753
54631W        W26957  28.319  44.010  13.622
54632W        W26958  30.624  35.790  11.103
54633W        W26959   7.830  37.429  14.518
54634W        W26960  16.819   7.228  14.045
54635W        W26961   0.389  14.346  13.736
54636W        W26962   8.686  25.867  14.123
54637W        W26963  37.634  41.063   1.268
54638W        W26964  37.068  37.014   0.836
54639W        W26965  29.296  41.951  13.976
54640W        W26966  29.053  28.059  13.025
54641W        W26967  19.541  27.571  11.922
54642W        W26968  33.789   0.805  14.339
54643W        W26969  19.558   6.829   2.252
54644W        W26970  40.562  19.062  13.000
54645W        W26971  44.859  21.629  14.499
54646W        W26972  43.792  18.828  11.953
54647W        W26973   5.298  38.290  13.432
54648W        W26974  27.228   3.174   4.654
54649W        W26975  35.937  11.508   5.283
54650W        W26976  17.987  38.356   4.492
54651W        W26977   9.831  44.202   1.373
54652W        W26978  17.112   1.906  12.384
54653W        W26979  15.027   2.246  14.335
54654W        W26980  42.527  18.537  10.684
54655W        W26981  27.630  30.287   1.759
54656W        W26982  42.532  22.826   0.257
54657W        W26983   4.391  23.808   2.004
54658W        W26984   5.340  33.120   1.009
54659W        W26985  28.660  39.765  11.609
54660W        W26986  34.051  11.439   0.493
54661W        W26987  23.324  37.825   4.157
54662W        W26988   1.868  22.015   3.285
54663W        W26989  18.722  39.845   2.182
54664W        W26990  40.527  43.542  13.499
54665W        W26991  37.092   1.922  13.441
54666W        W26992  41.351  38.803  14.944
54667W        W26993   5.096  15.021   1.330
54668W        W26994  37.062  15.107  14.274
54669W        W26995  18.898  15.098  11.917
54670W        W26996  18.815  26.128  11.646
54671W        W26997  13.812  17.617  13.322
54672W        W26998  25.480  13.789   3.766
54673W        W26999  32.523  30.491  13.747
54674W        W27000  11.266   4.421  14.025
54675W        W27001  11.070  32.598   0.755
54676W        W27002   7.864  10.940  11.130
54677W        W27003  30.267  11.662  12.913
54678W        W27004   4.427  10.952  13.132
54679W        W27005  29.153  22.529   2.238
54680W        W27006  16.717  38.101   0.862
54681W        W27007  13.689  14.630  14.865
54682W        W27008  35.215  20.210   2.085
54683W        W27009  36.032  38.321   3.776
54684W        W27010   8.885   1.266   2.661
54685W        W27011  13.622  32.486  11.956
54686W        W27012  30.908   5.220   2.944
54687W        W27013  41.118  33.543  12.785
54688W        W27014  17.677  37.950   0.739
54689W        W27015  14.825   3.008   0.449
54690W        W27016  10.922   0.319  12.514
54691W        W27017   3.819  23.829   0.333
54692W        W27018  26.684   3.354   1.672
54693W        W27019  38.595  26.999   1.566
54694W        W27020  35.604   5.168   0.866
54695W        W27021  14.078  41.193   1.355
54696W        W27022  18.984  16.054  14.947
54697W        W27023  40.908  30.111  10.901
54698W        W27024  42.050  23.630   4.925
54699W        W27025  21.223  22.723  14.852
54700W        W27026   1.388  15.848  10.616
54701W        W27027  20.245  22.837   3.790
54702W        W27028  19.694  24.570   0.880
54703W        W27029  42.012  39.030   1.910
54704W        W27030  20.072  17.358  14.998
54705W        W27031  30.949  32.100   4.289
54706W        W27032  24.008   5.813   1.946
54707W        W27033  36.920  34.564  14.416
54708W        W27034   7.282   3.183  11.160
54709W        W27035  18.264  25.220   1.435
54710W        W27036  34.178  38.597   1.050
54711W        W27037  40.523  43.859   4.555
54712W        W27038  17.879  13.325   4.142
54713W        W27039  18.195  18.763   4.423
54714W        W27040  34.550   5.654  11.450
54715W        W27041  27.491  44.814  10.724
54716W        W27042  22.091  29.975  13.862
54717W        W27043   3.769  42.364   2.767
54718W        W27044  33.672  26.616  13.319
54719W        W27045  21.169  39.634  12.232
54720W        W27046   7.926  39.932   0.358
54721W        W27047   0.487  33.506  12.393
54722W        W27048  40.912  44.366   3.392
54723W        W27049  30.653   9.166  11.142
54724W        W27050   9.662  34.472   1.385
54725W        W27051  38.752  44.790   3.194
54726W        W27052   4.368  33.396   3.222
54727W        W27053  36.842  32.017  11.138
54728W        W27054  33.599  35.512   2.953
54729W        W27055  15.355  17.831   4.056
54730W        W27056   1.146  33.489   3.680
54731W        W27057  19.222  38.146  14.014
54732W        W27058   8.266   0.917  13.969
54733W        W27059  33.022   4.595   1.683
54734W        W27060  43.010   7.857  12.228
54735W        W27061  29.345  30.389   0.924
54736W        W27062   2.536  18.388  12.529
54737W        W27063  25.260   1.381   2.382
54738W        W27064  27.008  29.242  12.505
54739W        W27065   6.410  37.357  13.400
54740W        W27066  31.139   0.945   1.259
54741W        W27067  43.226  38.290   4.604
54742W        W27068  32.632  21.514  13.377
54743W        W27069  44.262  13.241  14.188
54744W        W27070  32.529  37.814   4.909
54745W        W27071   2.743   6.241   3.541
54746W        W27072   3.631  29.630   1.842
54747W        W27073  40.949  26.944   3.361
54748W        W27074  25.486   9.221  14.857
54749W        W27075  14.150  34.379  11.509
54750W        W27076   1.385  42.317  14.362
54751W        W27077   3.383   0.794  11.123
54752W        W27078  19.264   7.238  14.848
54753W        W27079  24.742   1.913   3.573
54754W        W27080  17.787  11.070  13.360
54755W        W27081  23.461  36.875   4.161
54756W        W27082  25.724  37.585   4.716
54757W        W27083  16.669   8.019   3.342
54758W        W27084  28.724   8.989  12.085
54759W        W27085   1.343  33.179  10.369
54760W        W27086  17.682  21.700   4.854
54761W        W27087  34.857  25.481   2.579
54762W        W27088  43.550  16.118  12.563
54763W        W27089  11.088  27.069  13.003
54764W        W27090  44.942  16.239   2.337
54765W        W27091  19.002  11.739  10.984
54766W        W27092   6.812  17.149  10.716
54767W        W27093  37.366   8.778   9.794
54768W        W27094  27.248  41.878  10.933
54769W        W27095  31.899  18.242  11.546
54770W        W27096  29.836   4.859  13.396
54771W        W27097  18.307  15.092  11.063
54772W        W27098   5.022   2.337   3.717
54773W        W27099   2.191  35.600  11.910
54774W        W27100   0.292  34.606   4.626
54775W        W27101  16.229  38.781   0.862
54776W        W27102  18.103  39.043   0.285
54777W        W27103   0.514  29.141   1.622
54778W        W27104  41.375  14.073   4.062
54779W        W27105   0.285   4.609   0.237
54780W        W27106   3.808  35.848   3.066
54781W        W27107  44.946  11.607   3.481
54782W        W27108  34.422  38.872  10.706
54783W        W27109  25.286  14.644   1.937
54784W        W27110  20.536  18.526  11.132
54785W        W27111  43.145  39.436   1.357
54786W        W27112  44.399  28.690   2.724
54787W        W27113  43.384  38.566  12.370
54788W        W27114  24.671  21.196  12.317
54789W        W27115  41.542   1.922   0.908
54790W        W27116   7.727  36.468   2.731
54791W        W27117  19.598  39.303  12.805
54792W        W27118  32.933  19.632  14.740
54793W        W27119  19.007  37.336   2.791
54794W        W27120  24.959   8.716   2.282
54795W        W27121  36.603  36.852   2.415
54796W        W27122  24.799  38.959   2.177
54797W        W27123  22.135  34.575   0.975
54798W        W27124  34.864   8.662  11.493
54799W        W27125  36.520  28.385  13.511
54800W        W27126  43.966  11.399   0.381
54801W        W27127  42.328  32.396   1.901
54802W        W27128  35.425  18.108  10.967
54803W        W27129  28.081  11.410   1.344
54804W        W27130  30.236  29.708   1.967
54805W        W27131  28.179  28.863   4.243
54806W        W27132  44.377  41.256   0.968
54807W        W27133  16.779  16.175  11.153
54808W        W27134  44.202  37.951   2.649
54809W        W27135  25.162  16.405   0.932
54810W        W27136  17.094   1.667   4.616
54811W        W27137  32.547   6.201   4.134
54812W        W27138  22.609  34.060  11.449
54813W        W27139   9.913  43.101  11.204
54814W        W27140  38.539  30.819   4.132
54815W        W27141  38.793  43.754  13.575
54816W        W27142  23.986  24.049  14.822
54817W        W27143  20.073  22.043  10.509
54818W        W27144  18.784  42.300   0.872
54819W        W27145  44.422  15.196  11.599
54820W        W27146  35.156  33.895  10.686
54821W        W27147  41.960  31.492   3.903
54822W        W27148  32.675  34.500   4.455
54823W        W27149  32.933  32.128  12.519
54824W        W27150  11.812  32.163   2.770
54825W        W27151   1.429  36.503  11.588
54826W        W27152  34.472  16.317  14.011
54827W        W27153  44.189  36.877  10.114
54828W        W27154  28.491  27.974   2.285
54829W        W27155   5.678  12.788   3.201
54830W        W27156   4.673  41.375   9.841
54831W        W27157   2.101  44.465   0.357
54832W        W27158  26.580  35.777   1.597
54833W        W27159   5.782  24.403  13.066
54834W        W27160  10.045  32.451  12.725
54835W        W27161  41.447   8.771   2.190
54836W        W27162  32.854  32.575  12.851
54837W        W27163  10.849  30.003   4.534
54838W        W27164  35.296   6.156  11.157
54839W        W27165  30.145  40.048  13.796
54840W        W27166   7.818  22.216   1.499
54841W        W27167  11.868   6.086   5.006
54842W        W27168  33.551   4.922  11.515
54843W        W27169  21.153  14.417   4.689
54844W        W27170   6.813  40.446   0.946
54845W        W27171  40.952  37.920   2.986
54846W        W27172   8.374  39.743  14.551
54847W        W27173   9.012  10.416   5.101
54848W        W27174  29.018  25.120   1.920
54849W        W27175  29.181  24.095   3.411
54850W        W27176  44.057  16.908  11.977
54851W        W27177  19.605  22.211   1.438
54852W        W27178  17.163  29.066   3.604
54853W        W27179  16.594  42.534  11.257
54854W        W27180  27.912  19.309  13.745
54855W        W27181   1.700  30.525  14.278
54856W        W27182  16.114   4.157  10.467
54857W        W27183   3.786  12.404   0.413
54858W        W27184  34.586   4.671   2.417
54859W        W27185  44.133   7.162   4.144
54860W        W27186  41.427  33.450   1.944
54861W        W27187  21.049  36.835  11.408
54862W        W27188  29.950  16.684  12.534
54863W        W27189  44.429  19.620   3.399
54864W        W27190  17.775  43.451   3.204
54865W        W27191  19.856  44.243   4.903
54866W        W27192  10.247  39.654  12.832
54867W        W27193  22.260  34.614   4.079
54868W        W27194  18.539  16.335  14.975
54869W        W27195  10.957   1.298  14.322
54870W        W27196  43.276   7.928   1.779
54871W        W27197  23.707  18.461   3.641
54872W        W27198  11.162  36.399   0.857
54873W        W27199  40.280  37.813  11.690
54874W        W27200  25.998  36.830  12.277
54875W        W27201  42.573   4.847  14.139
54876W        W27202  21.735   9.223   0.228
54877W        W27203   0.317  37.283  12.338
54878W        W27204   4.238  32.692  13.034
54879W        W27205  43.668  16.873   2.128
54880W        W27206  30.920  32.448   2.897
54881W        W27207  27.345  37.328  12.771
54882W        W27208   5.288  12.174   4.347
54883W        W27209  29.001  30.353  12.445
54884W        W27210  25.625   1.702   4.456
54885W        W27211  41.436  35.509   1.282
54886W        W27212   9.700  33.325  10.744
54887W        W27213  34.287  32.806  12.006
54888W        W27214  21.204  24.014   1.280
54889W        W27215  30.799   8.659   1.338
54890W        W27216  26.198  25.087  12.473
54891W        W27217  44.755  40.577   1.122
54892W        W27218  14.785   2.781  10.805
54893W        W27219  19.649  20.740   0.307
54894W        W27220  16.164   0.001  11.705
54895W        W27221  12.828  19.792   0.226
54896W        W27222  32.122  28.367  14.524
54897W        W27223   8.272  22.198   4.594
54898W        W27224   6.420  44.965  14.511
54899W        W27225   8.409  15.400   0.667
54900W        W27226  17.111   7.668  13.088
54901W        W27227  14.704  38.175  11.849
54902W        W27228  35.852   7.818  14.128
54903W        W27229  25.558  43.567  12.560
54904W        W27230  19.104  22.947   1.698
54905W        W27231  10.311   7.331   3.537
54906W        W27232  20.454   3.037  11.997
54907W        W27233  29.117  29.513  10.558
54908W        W27234  23.625  33.208   2.271
54909W        W27235  23.740  36.876   4.593
54910W        W27236   9.194  21.984  14.171
54911W        W27237  23.357  34.618   1.250
54912W        W27238  41.456   2.323  13.911
54913W        W27239  44.004  44.977  12.598
54914W        W27240  27.365  19.653  12.908
54915W        W27241  15.347  30.806  11.448
54916W        W27242  28.690  37.521  10.998
54917W        W27243  42.053  17.042  13.362
54918W        W27244  26.731   2.728   3.999
54919W        W27245  33.383  19.856   0.392
54920W        W27246   7.108  35.478  12.412
54921W        W27247  38.297  10.155  14.448
54922W        W27248   5.659  15.041   2.720
54923W        W27249  31.731  29.683   4.198
54924W        W27250   3.248  14.509  13.516
54925W        W27251  36.330  12.652  13.600
54926W        W27252  10.340  27.664   4.966
54927W        W27253  14.841  40.062  13.996
54928W        W27254  15.582  13.508  13.460
54929W        W27255   5.333  28.193  12.893
54930W        W27256  42.992  25.112   3.714
54931W        W27257  25.550  24.715  14.010
54932W        W27258  12.349   9.684   2.130
54933W        W27259   1.971  37.472   2.212
54934W        W27260  36.460  36.308  11.623
54935W        W27261  36.068  15.699   1.537
54936W        W27262  24.325  39.842   4.236
54937W        W27263   9.343  38.017  13.350
54938W        W27264  44.384  42.792  12.147
54939W        W27265  38.966  14.791  10.420
54940W        W27266  32.962   8.380   0.840
54941W        W27267  14.153  41.686   1.193
54942W        W27268  12.248  17.021   4.639
54943W        W27269  38.781  44.336   0.372
54944W        W27270  28.229  36.482   1.302
54945W        W27271   1.448  26.383  10.759
54946W        W27272  39.862   4.735   4.323
54947W        W27273  23.081   5.946   2.761
54948W        W27274  27.883  38.804   5.069
54949W        W27275  23.735  41.785   3.472
54950W        W27276  40.510  22.269  11.604
54951W        W27277   1.456  22.100  13.025
54952W        W27278  26.205  22.724  14.056
54953W        W27279  36.089  29.053   3.369
54954W        W27280  36.835  21.013   3.564
54955W        W27281  26.473  35.200   2.348
54956W        W27282  10.677  14.798   3.985
54957W        W27283  14.879  13.316  14.056
54958W        W27284   8.128   3.933  14.438
54959W        W27285  11.639  23.546   0.476
54960W        W27286  26.900  26.518   0.822
54961W        W27287   7.952  35.753  14.735
54962W        W27288  26.896  37.342   4.546
54963W        W27289  24.541  31.614  11.571
54964W        W27290   9.641  18.179   3.185
54965W        W27291  34.118   9.809  10.787
54966W        W27292  42.569  19.728   0.496
54967W        W27293  23.568  17.986   3.585
54968W        W27294  38.735  26.656  13.043
54969W        W27295  33.139  34.474   4.646
54970W        W27296  16.052   9.742   0.694
54971W        W27297  42.526  15.841  13.934
54972W        W27298   9.605   7.410   1.227
54973W        W27299  40.449   0.492  14.292
54974W        W27300  11.512  41.489  12.923
54975W        W27301  25.483  34.991   3.795
54976W        W27302   0.467   3.941   3.814
54977W        W27303  13.397  31.587  10.684
54978W        W27304  33.975  17.106   1.479
54979W        W27305  43.243  34.099   1.814
54980W        W27306  35.962  15.509   2.451
54981W        W27307  25.613   7.004  14.568
54982W        W27308  27.656  38.423   3.736
54983W        W27309   1.456  21.962   2.255
54984W        W27310  37.831   2.774   2.853
54985W        W27311  29.934  24.002  11.520
54986W        W27312  20.818   2.187   5.136
54987W        W27313  35.515  21.204   3.900
54988W        W27314  18.922   7.357   4.919
54989W        W27315  44.149  14.293   3.761
54990W        W27316   7.853   3.898  13.988
54991W        W27317   2.252  19.255  14.863
54992W        W27318  44.923  33.943  14.064
54993W        W27319   3.794  21.486  13.156
54994W        W27320  14.573  32.429  13.027
54995W        W27321  29.845  22.099  11.687
54996W        W27322  14.787  29.488   0.440
54997W        W27323  10.818  17.791   1.267
54998W        W27324  37.366  14.566   5.038
54999W        W27325  17.265   7.931  10.239
55000W        W27326  10.275  10.643   0.080
55001W        W27327  36.562  40.055  10.680
55002W        W27328   9.206   0.079   3.740
55003W        W27329  27.178  38.318   1.237
55004W        W27330   9.071  21.234  11.713
55005W        W27331  27.636  42.579   2.773
55006W        W27332  24.279  21.084   4.562
55007W        W27333  26.624  28.529   3.349
55008W        W27334  42.155  15.303   1.126
55009W        W27335  11.828  24.519   3.897
55010W        W27336  36.355   5.870  14.997
55011W        W27337  16.302  10.665   1.479
55012W        W27338  20.796  26.959   1.416
55013W        W27339  25.547  19.149  10.302
55014W        W27340  37.078  14.420  14.903
55015W        W27341   9.123  40.252  13.952
55016W        W27342  21.144  30.104   0.753
55017W        W27343  12.876  11.077   2.280
55018W        W27344   2.680  40.385   3.392
55019W        W27345  25.488  41.506   3.174
55020W        W27346   6.199  41.319   0.679
55021W        W27347  30.493  38.642  14.494
55022W        W27348  32.063  25.232   2.464
55023W        W27349  38.537  17.956   4.872
55024W        W27350  33.898  30.669   0.424
55025W        W27351   5.941  10.270  14.884
55026W        W27352  30.969  15.578  14.189
55027W        W27353   3.663   5.883   1.347
55028W        W27354  34.887  17.742  10.680
55029W        W27355  13.591  32.804  12.397
55030W        W27356  27.037  18.780  13.361
55031W        W27357  24.526   0.529   4.105
55032W        W27358  18.336  17.695  14.004
55033W        W27359  22.465  26.730   2.782
55034W        W27360  38.881  11.144  13.829
55035W        W27361  15.669  41.931  13.377
55036W        W27362   3.605   6.605   1.823
55037W        W27363  23.793   4.030  12.963
55038W        W27364  25.313  18.868  10.685
55039W        W27365  32.587  24.093  12.627
55040W        W27366  12.821  29.124  14.740
55041W        W27367   1.188   0.981  13.957
55042W        W27368   4.247  33.571  11.184
55043W        W27369  23.808  15.151  10.550
55044W        W27370  36.392  20.579   4.591
55045W        W27371  24.747  32.617   0.018
55046W        W27372   6.787  44.393   4.625
55047W        W27373  40.971   7.781  12.002
55048W        W27374   7.753  15.590  11.242
55049W        W27375  39.847  18.092   1.233
55050W        W27376  39.608  16.575  12.963
55051W        W27377  10.903  21.697  14.650
55052W        W27378  14.639  27.446  14.221
55053W        W27379  39.085  28.994  13.019
55054W        W27380  39.320  39.523  10.517
55055W        W27381  35.758  43.298   1.003
55056W        W27382   3.730  41.893  13.445
55057W        W27383  43.527  44.246  14.979
55058W        W27384  11.260  34.804   9.742
55059W        W27385  15.761  21.453   4.490
55060W        W27386  23.040  15.046  14.363
55061W        W27387  13.654  38.652  11.953
55062W        W27388  31.079   2.995  13.766
55063W        W27389  44.582   0.924   0.966
55064W        W27390  28.936  36.537  14.405
55065W        W27391  31.808  30.575   3.434
55066W        W27392  38.526  39.846  13.000
55067W        W27393   7.394  32.509   0.912
55068W        W27394  13.156   3.482  13.957
55069W        W27395   6.584   9.783   1.289
55070W        W27396  22.150  16.067  11.578
55071W        W27397  23.450  35.836  10.709
55072W        W27398  12.007  10.391   4.652
55073W        W27399   3.135  19.263   2.045
55074W        W27400  33.092  26.754   0.734
55075W        W27401  40.098  18.977   2.645
55076W        W27402   4.136  17.773   1.777
55077W        W27403   2.245  12.514   5.613
55078W        W27404  33.867  23.592  10.446
55079W        W27405  42.454  28.043   0.321
55080W        W27406  35.372  38.387   3.171
55081W        W27407  19.021  12.927  11.213
55082W        W27408  11.379  38.513  13.359
55083W        W27409   3.390  37.982   1.968
55084W        W27410  44.134  13.891  11.004
55085W        W27411  37.393  34.877  11.589
55086W        W27412  43.678  18.561  12.384
55087W        W27413  25.899   0.468  13.747
55088W        W27414  24.701   4.143   3.183
55089W        W27415   5.799   0.259   3.752
55090W        W27416   1.772   4.638  11.146
55091W        W27417   6.713  22.340  11.143
55092W        W27418   7.353  18.974  11.530
55093W        W27419   9.130  28.378   3.682
55094W        W27420  44.796  27.924   3.280
55095W        W27421  10.020  24.265   3.634
55096W        W27422  11.586  21.413   1.770
55097W        W27423  16.502   8.928   0.184
55098W        W27424  10.882  42.803  12.406
55099W        W27425  40.136  24.921   3.232
55100W        W27426   1.148  29.367   0.566
55101W        W27427  36.059  29.691  12.325
55102W        W27428  32.428  15.983  13.976
55103W        W27429   8.481  18.757  11.023
55104W        W27430   1.478   6.757  10.738
55105W        W27431  41.097  33.098   1.725
55106W        W27432   2.324   2.351   4.368
55107W        W27433   9.940  28.246  11.571
55108W        W27434  39.855   4.435  13.996
55109W        W27435  44.477  16.549  11.056
55110W        W27436  19.198  28.820  12.739
55111W        W27437   7.987  44.843   0.239
55112W        W27438   8.268  28.826  11.945
55113W        W27439  18.776  43.869  13.140
55114W        W27440  28.186  32.080   0.670
55115W        W27441  28.018  25.112  14.857
55116W        W27442  35.516  38.901   1.295
55117W        W27443  18.388   2.015  14.406
55118W        W27444   9.465  16.218  13.463
55119W        W27445  27.367   9.964   1.158
55120W        W27446  14.069  43.248   2.117
55121W        W27447  11.283  29.626  11.715
55122W        W27448  36.076   1.876   2.903
55123W        W27449  10.312  40.107  11.603
55124W        W27450  34.581  41.186  11.292
55125W        W27451  15.666   2.181  10.474
55126W        W27452  32.014  32.540  12.306
55127W        W27453  42.084  43.944   1.882
55128W        W27454  39.752  19.655   1.749
55129W        W27455  16.245   0.479  14.341
55130W        W27456  39.427  35.989  12.358
55131W        W27457   3.190  13.738  13.139
55132W        W27458  44.778  44.193   4.133
55133W        W27459  31.451  34.663   2.924
55134W        W27460  10.883  10.580  12.825
55135W        W27461  23.722  44.516  12.973
55136W        W27462  33.456  14.646  13.802
55137W        W27463  20.237  36.052  14.252
55138W        W27464   3.462   4.305   1.649
55139W        W27465  24.520  42.989  14.914
55140W        W27466  38.876  37.346   3.248
55141W        W27467  32.455   3.607   4.684
55142W        W27468   3.778   9.823   2.375
55143W        W27469  11.569  23.286   1.909
55144W        W27470  26.795   6.172   1.369
55145W        W27471  23.238  14.369  10.666
55146W        W27472  34.951  33.348   5.206
55147W        W27473  36.061   5.858   2.750
55148W        W27474  26.349  25.428   1.974
55149W        W27475  44.535  42.804   3.272
55150W        W27476  14.304  42.958  11.021
55151W        W27477  31.733  22.653   0.925
55152W        W27478  12.519   7.803   3.261
55153W        W27479   8.860  14.132  12.442
55154W        W27480  27.379   4.985  14.030
55155W        W27481   8.391  26.662   3.740
55156W        W27482  43.703  13.406  11.893
55157W        W27483  13.552  21.561  12.499
55158W        W27484  39.692  11.192   4.688
55159W        W27485   8.676   7.618  11.535
55160W        W27486  19.048   4.734   2.631
55161W        W27487   6.359  27.304  11.206
55162W        W27488   4.249   8.550  11.546
55163W        W27489  31.624  32.935   2.801
55164W        W27490  30.935  40.029  10.492
55165W        W27491  42.011   1.367  13.077
55166W        W27492  33.014  32.836   4.223
55167W        W27493   2.526  43.234   1.905
55168W        W27494   0.338  30.361  13.875
55169W        W27495  20.948  38.850  14.879
55170W        W27496  35.438  29.892  11.112
55171W        W27497  29.546  17.717  10.935
55172W        W27498  13.651  12.233  14.229
55173W        W27499  17.067  18.544  11.552
55174W        W27500  36.770  26.235   3.237
55175W        W27501  14.089  30.860  13.959
55176W        W27502  15.532  39.267   2.380
55177W        W27503  26.712  17.440  13.418
55178W        W27504  32.114  32.529   3.772
55179W        W27505  35.893   8.639  11.169
55180W        W27506   9.704  23.224  12.260
55181W        W27507  31.068  25.735  12.385
55182W        W27508   2.284  27.554   2.775
55183W        W27509  38.356   0.951   1.935
55184W        W27510  21.726  35.904   1.807
55185W        W27511   6.264  21.741   0.712
55186W        W27512  35.896   6.313   2.597
55187W        W27513  16.228  43.934  11.633
55188W        W27514  16.174  17.539   2.106
55189W        W27515   8.741  35.356  13.347
55190W        W27516   3.320  38.928   4.599
55191W        W27517  31.958   3.286  14.130
55192W        W27518  37.629  13.220  13.440
55193W        W27519   2.253  42.812   1.848
55194W        W27520   6.348  35.693  10.117
55195W        W27521  30.594  36.831  13.463
55196W        W27522   4.743  32.860   2.344
55197W        W27523  33.337  44.298  13.388
55198W        W27524  33.818  17.623  11.520
55199W        W27525  39.603  14.309  13.404
55200W        W27526   3.264   9.994   2.307
55201W        W27527   9.713  17.992   0.632
55202W        W27528  27.129  22.206   2.684
55203W        W27529  14.877  40.446   3.719
55204W        W27530  34.814  32.013  10.949
55205W        W27531  23.102  23.504  13.073
55206W        W27532  24.055   5.209   1.586
55207W        W27533  43.516  12.391  13.839
55208W        W27534  33.142  14.210   4.650
55209W        W27535  35.113  20.191   0.096
55210W        W27536  16.525  15.003  13.334
55211W        W27537  40.086   2.643  11.976
55212W        W27538  37.793   3.876  13.535
55213W        W27539   8.790   3.335  10.034
55214W        W27540  34.484   7.914   2.379
55215W        W27541  39.055  21.416   0.744
55216W        W27542  27.473   9.962  13.450
55217W        W27543  31.920  10.326   0.529
55218W        W27544  31.497  20.109  13.528
55219W        W27545  36.403  25.697   1.169
55220W        W27546  41.598   5.385  13.814
55221W        W27547  14.158  10.411   2.343
55222W        W27548  27.134  18.186   3.380
55223W        W27549  32.893  15.402   2.785
55224W        W27550   1.664  41.408   2.154
55225W        W27551  33.426  30.182   3.772
55226W        W27552  16.734  14.782  14.966
55227W        W27553  15.796  30.415   3.131
55228W        W27554  44.984  28.227  13.145
55229W        W27555  23.943  24.695   0.400
55230W        W27556  28.185   8.202   4.413
55231W        W27557  10.794  20.442   0.462
55232W        W27558   0.007  40.955  10.687
55233W        W27559  41.567   5.659  14.960
55234W        W27560  12.030   9.641  10.945
55235W        W27561  12.341   0.267   3.042
55236W        W27562  31.155  19.347   3.286
55237W        W27563  38.564   6.178   1.672
55238W        W27564  37.952  38.271   0.255
55239W        W27565   7.650  24.311   2.753
55240W        W27566  31.532   4.844   1.409
55241W        W27567  26.144  16.975   1.432
55242W        W27568  39.503  31.494   2.870
55243W        W27569  18.115  28.178  12.012
55244W        W27570  44.084  43.378  14.452
55245W        W27571  12.733  25.488  13.436
55246W        W27572   3.761  17.157   4.881
55247W        W27573  37.934  32.534  12.369
55248W        W27574   2.050  23.634   9.780
55249W        W27575  38.916  17.145   2.135
55250W        W27576  32.858  15.417   1.864
55251W        W27577  14.350  34.252   2.886
55252W        W27578  29.407  21.561   1.083
55253W        W27579  36.301  26.514  13.587
55254W        W27580  36.970  19.194   1.786
55255W        W27581  11.714  30.554   5.182
55256W        W27582  17.648  28.702   3.453
55257W        W27583  22.883  39.478   0.435
55258W        W27584   1.915  32.274   2.329
55259W        W27585   2.438   4.739   4.338
55260W        W27586  42.012   8.357  11.131
55261W        W27587   3.384  37.297   3.669
55262W        W27588  35.191  31.917   5.033
55263W        W27589   8.747  25.903   1.574
55264W        W27590   5.740  19.561   0.165
55265W        W27591  38.312  27.588   3.630
55266W        W27592  36.446   2.198   3.194
55267W        W27593  15.738  39.020  11.079
55268W        W27594  28.917  43.768   4.420
55269W        W27595   9.337  34.902  13.265
55270W        W27596  19.532  30.103   4.106
55271W        W27597   1.025   8.900  14.981
55272W        W27598   0.407   3.740  12.914
55273W        W27599  44.378  21.688   1.385
55274W        W27600  17.599  17.707  10.546
55275W        W27601  43.420  24.473  10.573
55276W        W27602  15.636  42.486   4.138
55277W        W27603  21.083  16.374  14.123
55278W        W27604   0.842  42.108  11.878
55279W        W27605  24.747  31.107   4.710
55280W        W27606  22.992  43.369  12.543
55281W        W27607  41.105  33.146   0.510
55282W        W27608  34.149  34.899  11.251
55283W        W27609  36.885   3.476  10.626
55284W        W27610   8.763   9.129  14.623
55285W        W27611   5.421   5.430   1.832
55286W        W27612  28.594  14.464   2.574
55287W        W27613  35.915  39.475  14.514
55288W        W27614   0.004  20.088   2.660
55289W        W27615   7.633   4.048   1.391
55290W        W27616   2.756  26.658  12.393
55291W        W27617   4.897   0.400  13.847
55292W        W27618   1.470  25.860  10.697
55293W        W27619  18.131   8.725  11.528
55294W        W27620  11.017  16.644   2.218
55295W        W27621  40.578  20.668  13.347
55296W        W27622  39.060  15.303   1.878
55297W        W27623  11.017  13.774   3.643
55298W        W27624  33.177  29.936  10.615
55299W        W27625  20.623  12.336   3.289
55300W        W27626  38.362  13.790  12.562
55301W        W27627  22.607  24.286  11.533
55302W        W27628   9.750  34.317   4.739
55303W        W27629  38.809  16.689   1.896
55304W        W27630  28.073  24.501  13.904
55305W        W27631   3.154   9.136   2.449
55306W        W27632  32.736  10.637   0.050
55307W        W27633   3.696  39.190   4.256
55308W        W27634  41.570  30.039   2.326
55309W        W27635  16.770  14.708   0.855
55310W        W27636  12.810  34.864  14.944
55311W        W27637  30.070  16.281   4.088
55312W        W27638   2.372   7.111  13.496
55313W        W27639  16.857   9.318   0.902
55314W        W27640  24.682  11.432   3.597
55315W        W27641  21.690  40.183   3.110
55316W        W27642  22.733   0.763  11.599
55317W        W27643  43.409   1.883   3.254
55318W        W27644  43.297  13.258   1.900
55319W        W27645  30.441   0.439  13.498
55320W        W27646  32.436  33.692  12.732
55321W        W27647   9.490   3.553   3.214
55322W        W27648   3.094   7.657   2.298
55323W        W27649  35.954  26.049  12.061
55324W        W27650  40.570  19.687   3.587
55325W        W27651   1.532   0.974   4.167
55326W        W27652   7.922  38.086  12.745
55327W        W27653  25.695   0.242  13.317
55328W        W27654  13.818   7.457   0.348
55329W        W27655   6.752  42.016  11.079
55330W        W27656  11.706   3.466  12.389
55331W        W27657  28.052   8.339   2.337
55332W        W27658   6.441  12.525  14.417
55333W        W27659  26.896   9.798  14.557
55334W        W27660  19.181  12.342  13.032
55335W        W27661   5.260  21.446   1.326
55336W        W27662  27.494  32.829   0.513
55337W        W27663   4.690  16.213  14.807
55338W        W27664  41.990  28.424   2.812
55339W        W27665  39.316  43.121  14.792
55340W        W27666  13.784  12.851  11.125
55341W        W27667  18.313   0.510   1.635
55342W        W27668   1.805   4.976  14.070
55343W        W27669   2.918  39.002   4.922
55344W        W27670  17.211  19.648  12.319
55345W        W27671  43.572  44.812  14.090
55346W        W27672   6.195  37.794  13.533
55347W        W27673   8.405   2.705  14.315
55348W        W27674  16.558  17.839   0.447
55349W        W27675  29.975  42.369  11.616
55350W        W27676  31.640   2.512   0.993
55351W        W27677   0.813  11.535   5.224
55352W        W27678   0.568   7.423   4.326
55353W        W27679  30.644  11.384   0.763
55354W        W27680   9.976  12.308   0.346
55355W        W27681  15.309  33.306   0.807
55356W        W27682   8.377  44.200  13.485
55357W        W27683  34.259  11.622  14.806
55358W        W27684  13.221   2.456   0.736
55359W        W27685  19.024  27.156  10.807
55360W        W27686  10.949  40.097  14.994
55361W        W27687   7.140   6.373   2.704
55362W        W27688  30.489  14.640  13.270
55363W        W27689   9.352   0.391  12.434
55364W        W27690  28.986  21.610  13.328
55365W        W27691  19.610   8.425   2.665
55366W        W27692   1.689  31.665  14.836
55367W        W27693  23.555  23.288   2.411
55368W        W27694  18.741  32.553   2.387
55369W        W27695   8.136   0.080  10.906
55370W        W27696   8.721  42.355   4.786
55371W        W27697  13.783   2.857  12.028
55372W        W27698  17.576  29.639  11.124
55373W        W27699  41.046  24.605  13.342
55374W        W27700   3.887  25.092   4.652
55375W        W27701  30.656  32.582   4.940
55376W        W27702  20.612  39.548  10.657
55377W        W27703  14.793  28.946  14.240
55378W        W27704  24.477   1.009  11.235
55379W        W27705   7.735  43.447  11.026
55380W        W27706   6.945  36.532  12.624
55381W        W27707  26.161  19.057  11.123
55382W        W27708   3.184  19.586  12.456
55383W        W27709  23.088  30.957   4.089
55384W        W27710  12.174  37.322  11.433
55385W        W27711  44.025   0.759  14.918
55386W        W27712  30.987  21.250   1.484
55387W        W27713  12.312   8.088   2.285
55388W        W27714  28.458   7.554  12.348
55389W        W27715  39.060  20.387   0.946
55390W        W27716  44.033  23.990  14.089
55391W        W27717  25.510  11.039   1.931
55392W        W27718   1.592   6.227   4.871
55393W        W27719  28.691   6.275  11.927
55394W        W27720   8.703  38.359   4.673
55395W        W27721  33.889   4.386   1.377
55396W        W27722  21.838  30.701  11.217
55397W        W27723  14.553  25.134  11.018
55398W        W27724  14.282   6.045   1.042
55399W        W27725   3.047  22.166   0.118
55400W        W27726  32.071   4.275  10.767
55401W        W27727  29.513   2.291  11.581
55402W        W27728  20.265  23.755   1.214
55403W        W27729   4.950   3.927   0.231
55404W        W27730  30.389  29.883  12.506
55405W        W27731  41.230   2.850   2.637
55406W        W27732  27.238  39.972   1.341
55407W        W27733  23.450   3.535  14.340
55408W        W27734   8.149  42.039   2.315
55409W        W27735  41.926  26.277  12.077
55410W        W27736   5.384  37.543  11.192
55411W        W27737  34.377  10.805  12.391
55412W        W27738   0.896   1.454  11.960
55413W        W27739  39.971  42.074   1.281
55414W        W27740  14.299  26.718   4.557
55415W        W27741   1.738  42.348  13.368
55416W        W27742  20.248   4.888  13.862
55417W        W27743  36.090  32.111   3.658
55418W        W27744  30.984   9.550  11.204
55419W        W27745  13.361   5.419  11.066
55420W        W27746   3.451   8.655  12.080
55421W        W27747   3.808  17.331   4.379
55422W        W27748   7.673  34.494   0.408
55423W        W27749  19.573  29.682  14.391
55424W        W27750   3.448   3.507   3.705
55425W        W27751  40.542   6.716   3.713
55426W        W27752  40.782  15.371   1.247
55427W        W27753   0.563  28.677  12.087
55428W        W27754  34.159  24.228  14.046
55429W        W27755  20.993  23.446  13.780
55430W        W27756  44.269  24.189  10.619
55431W        W27757  19.495  44.067  10.752
55432W        W27758  13.299  19.148   0.723
55433W        W27759  44.889  27.201  12.878
55434W        W27760   7.103  21.649   3.671
55435W        W27761  34.069   1.373  11.631
55436W        W27762  10.747   2.784  13.948
55437W        W27763   9.334  16.123   0.866
55438W        W27764   5.440  24.488   4.147
55439W        W27765  16.622  20.789   2.367
55440W        W27766  22.972  33.638  12.403
55441W        W27767  22.150  43.048   2.679
55442W        W27768   8.685  17.686   0.766
55443W        W27769   1.068   1.790   0.396
55444W        W27770  36.100   3.106  11.142
55445W        W27771  33.030  12.084  14.213
55446W        W27772  34.929  42.732  12.497
55447W        W27773  12.764   7.980  14.359
55448W        W27774  40.159  18.218  13.542
55449W        W27775  21.742   8.695  13.024
55450W        W27776   7.716  19.146  11.120
55451W        W27777  40.039  40.264  11.687
55452W        W27778   4.125  21.194  10.607
55453W        W27779   0.323  15.869  13.842
55454W        W27780   7.118  14.671   0.894
55455W        W27781  39.030  20.687  13.097
55456W        W27782  31.417  35.484   1.262
55457W        W27783  44.021   8.642   3.927
55458W        W27784  15.157  17.734  11.360
55459W        W27785  10.701   7.034  12.507
55460W        W27786  13.522  22.230   3.373
55461W        W27787  40.763   0.315  13.915
55462W        W27788  27.636   5.927   0.374
55463W        W27789  30.616  20.322   1.338
55464W        W27790  13.267  34.135  14.028
55465W        W27791  29.072   3.055   0.607
55466W        W27792   9.230  11.193   2.202
55467W        W27793  13.531   0.290   4.385
55468W        W27794  13.779  38.152  14.863
55469W        W27795  39.223  20.174   2.740
55470W        W27796  14.904  36.491   3.149
55471W        W27797  23.684  21.503   2.163
55472W        W27798   1.683  34.860   1.475
55473W        W27799   4.304  32.010   1.323
55474W        W27800  34.049  36.557  12.052
55475W        W27801   7.093  19.236   4.571
55476W        W27802   9.096  14.501   3.719
55477W        W27803  41.521  25.461   1.477
55478W        W27804  38.904  39.720   4.380
55479W        W27805  11.717   3.855  14.544
55480W        W27806  10.741  26.554  13.876
55481W        W27807  20.110   3.523   4.097
55482W        W27808  30.507  34.009   0.012
55483W        W27809  32.468   2.626  11.150
55484W        W27810  34.536  39.772   0.446
55485W        W27811  39.241  31.844   1.824
55486W        W27812  11.096   4.357   0.580
55487W        W27813  42.396  13.598  12.392
55488W        W27814  11.401  10.131  10.567
55489W        W27815  42.013   8.333   1.730
55490W        W27816  38.450  43.333   4.205
55491W        W27817  25.223   9.339  11.934
55492W        W27818  36.220  42.883   2.747
55493W        W27819   6.727  27.116   3.571
55494W        W27820  16.111  25.486   2.290
55495W        W27821  21.682   9.224   1.737
55496W        W27822  37.622  37.341  13.950
55497W        W27823  25.179   1.065  13.305
55498W        W27824  17.574  29.407   2.740
55499W        W27825   1.241  36.454  12.067
55500W        W27826   1.040  16.137  12.452
55501W        W27827  30.462   7.321  11.541
55502W        W27828  23.495   1.058  11.137
55503W        W27829  31.496  29.633   0.899
55504W        W27830  13.549  39.272  14.570
55505W        W27831  30.956  30.586  13.468
55506W        W27832  40.547  44.717  12.825
55507W        W27833   7.919  14.728   1.349
55508W        W27834   3.376  23.184   0.749
55509W        W27835  29.658  22.439   5.015
55510W        W27836  39.916   9.866  14.773
55511W        W27837  31.480   0.397  13.483
55512W        W27838  28.009  14.299  13.942
55513W        W27839   5.769  19.184   4.191
55514W        W27840  19.844  28.091   1.220
55515W        W27841  17.177   6.792   4.532
55516W        W27842   5.766  27.929  13.087
55517W        W27843   0.379  23.723  11.957
55518W        W27844  18.360  14.829   3.753
55519W        W27845  37.124  27.448  13.318
55520W        W27846  43.071  32.868   0.229
55521W        W27847   0.668  30.106   4.341
55522W        W27848  43.793  18.605   4.503
55523W        W27849  42.362  36.040  12.401
55524W        W27850  17.286  18.992   0.426
55525W        W27851  30.050  17.138  12.137
55526W        W27852  42.857  27.194  10.799
55527W        W27853  43.875  15.340   0.216
55528W        W27854  43.499   2.528   0.926
55529W        W27855   3.752  15.533  11.987
55530W        W27856   3.000  20.192  13.203
55531W        W27857  42.573  43.843  12.458
55532W        W27858  32.739  15.890  11.527
55533W        W27859  42.103  30.277   3.263
55534W        W27860  37.956  18.500  12.839
55535W        W27861   5.468  42.708  12.467
55536W        W27862  27.969  43.945   2.613
55537W        W27863  23.712   1.240   0.390
55538W        W27864  11.845  44.854   4.738
55539W        W27865   0.802  43.472   2.311
55540W        W27866   0.139  21.306  11.577
55541W        W27867  40.714  26.830  10.254
55542W        W27868   0.744   7.090   2.275
55543W        W27869  26.763   2.763   0.365
55544W        W27870  41.919  15.688  10.990
55545W        W27871  19.669   8.446   3.693
55546W        W27872  13.501  44.025  14.558
55547W        W27873   6.852  42.995  11.106
55548W        W27874  39.993  13.182   1.364
55549W        W27875  32.102   9.419  11.590
55550W        W27876  27.683  22.574   1.444
55551W        W27877  39.067  18.048   2.588
55552W        W27878  16.586  37.405  13.527
55553W        W27879  35.017   6.384   3.238
55554W        W27880  43.747  44.270  12.988
55555W        W27881  16.014   7.102   1.381
55556W        W27882  35.459  43.757   1.871
55557W        W27883   3.345  20.992   0.367
55558W        W27884   1.840  20.291  10.620
55559W        W27885  12.069  42.388  11.957
55560W        W27886  11.882   0.327   1.775
55561W        W27887   1.261   0.553   3.126
55562W        W27888  22.422   6.157   5.021
55563W        W27889   0.053  18.303  14.234
55564W        W27890  13.093  11.681  10.802
55565W        W27891  19.353  22.588   0.226
55566W        W27892  15.886  42.066  11.949
55567W        W27893  11.281  16.767   0.870
55568W        W27894  11.208  27.395   2.316
55569W        W27895  37.738  21.487   2.278
55570W        W27896  26.828  16.322   3.737
55571W        W27897  37.308  14.074   0.230
55572W        W27898   3.166  35.135  12.616
55573W        W27899   2.226  25.107   3.676
55574W        W27900  43.069  40.046   3.696
55575W        W27901   7.365  21.433   1.719
55576W        W27902  19.077  13.092  14.414
55577W        W27903  39.995  11.365   2.705
55578W        W27904  21.161  23.008   4.157
55579W        W27905  33.338  42.855   0.224
55580W        W27906  30.104  37.407  13.781
55581W        W27907  43.519   2.121   1.876
55582W        W27908  23.549  18.559   0.302
55583W        W27909  37.893  33.605   1.924
55584W        W27910  15.061  36.333   2.239
55585W        W27911  40.332   1.799   4.297
55586W        W27912  21.120  33.646   3.368
55587W        W27913   6.610  35.840   4.626
55588W        W27914  25.023  19.932  12.757
55589W        W27915  27.111  41.240   3.809
55590W        W27916  15.279  44.511   1.110
55591W        W27917  38.477  36.355  12.052
55592W        W27918   1.467  30.385   1.968
55593W        W27919  33.858   7.435   2.630
55594W        W27920  17.161  37.975  10.422
55595W        W27921  40.090  27.970   4.603
55596W        W27922  35.526  18.817  11.933
55597W        W27923   3.726  42.904   1.985
55598W        W27924  36.458   1.044   4.512
55599W        W27925  36.604  33.990   1.372
55600W        W27926   7.298   4.477   4.021
55601W        W27927  14.855  18.045   0.945
55602W        W27928  44.959  29.004  13.080
55603W        W27929  20.688   1.919  11.237
55604W        W27930  31.472   7.650  14.802
55605W        W27931  36.520  13.121  10.073
55606W        W27932  43.824  25.482  12.576
55607W        W27933  18.759  24.023   3.740
55608W        W27934   6.391  10.357   1.749
55609W        W27935  25.281   4.341   2.434
55610W        W27936  23.215  32.110  11.617
55611W        W27937   2.172  29.441   2.801
55612W        W27938   7.590  23.992   4.018
55613W        W27939  37.615   5.876   1.716
55614W        W27940   0.655  18.885   3.642
55615W        W27941   1.795   1.978  10.514
55616W        W27942  36.806   3.836   3.760
55617W        W27943   5.951  32.975  11.138
55618W        W27944  11.863  13.086  13.671
55619W        W27945   1.717   1.942  12.030
55620W        W27946   8.503  17.494   4.344
55621W        W27947  10.270   3.710   3.804
55622W        W27948  20.040   9.301  12.905
55623W        W27949  42.468   4.199  12.124
55624W        W27950  10.239   7.334   4.511
55625W        W27951   0.353   4.651   3.287
55626W        W27952  30.333  17.560   4.156
55627W        W27953   6.343  13.794  12.841
55628W        W27954  30.090   8.356  12.482
55629W        W27955  41.471  30.436  10.713
55630W        W27956   2.606  22.736   2.711
55631W        W27957  20.279  34.368  12.392
55632W        W27958  29.785  10.805  14.890
55633W        W27959  42.859  28.424   4.521
55634W        W27960  24.931  37.362   0.761
55635W        W27961   9.156   4.413  13.872
55636W        W27962  12.642  43.591   0.957
55637W        W27963  43.267  43.707  14.313
55638W        W27964  25.695  33.348  14.394
55639W        W27965   7.757  22.559  12.479
55640W        W27966  10.862  17.550  11.575
55641W        W27967  39.782  21.949  11.143
55642W        W27968   9.979  19.507   9.556
55643W        W27969  18.196  13.829  12.107
55644W        W27970  13.009   7.580   0.855
55645W        W27971  24.288   6.136   3.096
55646W        W27972  22.509  35.715  10.271
55647W        W27973  31.036  41.371  14.296
55648W        W27974  30.204  18.115  12.974
55649W        W27975  16.251   1.220   2.251
55650W        W27976  26.961  33.996   3.790
55651W        W27977  21.263  26.616   2.355
55652W        W27978  31.458   5.918   0.428
55653W        W27979  36.025  27.736  11.603
55654W        W27980  31.932  32.499   2.812
55655W        W27981  26.718  26.699  13.082
55656W        W27982  44.578   2.285   3.634
55657W        W27983  27.762  37.506  10.588
55658W        W27984  40.419  18.309  11.572
55659W        W27985  35.738   4.012   1.692
55660W        W27986  23.539  33.895  14.962
55661W        W27987  10.540  12.852  12.154
55662W        W27988   6.999  18.296  12.546
55663W        W27989   9.094  37.783   0.426
55664W        W27990  25.000  42.503   0.938
55665W        W27991  19.516  29.192  12.643
55666W        W27992  16.307  27.582   1.859
55667W        W27993  37.860  34.567  14.895
55668W        W27994  13.377  44.284   4.606
55669W        W27995  30.861  20.742   4.340
55670W        W27996  11.129  31.545   0.484
55671W        W27997   1.230  31.581   1.190
55672W        W27998  10.216  17.587  12.709
55673W        W27999  14.229  28.022   4.820
55674W        W28000  39.109  31.673   1.337
55675W        W28001  23.057  13.162   4.727
55676W        W28002  27.274   6.176   4.053
55677W        W28003  21.580  31.502  11.186
55678W        W28004   4.908  33.906   0.635
55679W        W28005  16.731   6.809   3.691
55680W        W28006  34.008  15.042   3.425
55681W        W28007   4.288  23.647   0.463
55682W        W28008  43.332  25.279  12.387
55683W        W28009  20.038  19.474  13.999
55684W        W28010  36.381   9.450  12.034
55685W        W28011  35.474  21.636  13.591
55686W        W28012  16.591  23.248  12.643
55687W        W28013  38.081  14.969   4.164
55688W        W28014  23.975  17.742  11.726
55689W        W28015  41.465  40.049   1.393
55690W        W28016   5.645   6.675   1.736
55691W        W28017   2.836   1.486  12.862
55692W        W28018   8.410  18.785  12.151
55693W        W28019   1.627  32.609   4.837
55694W        W28020  41.061   4.289  11.511
55695W        W28021  27.628   7.518   3.466
55696W        W28022   5.944   8.685   1.818
55697W        W28023  36.843  31.610  12.486
55698W        W28024  43.714  19.135  11.149
55699W        W28025  11.692  36.151  14.353
55700W        W28026  42.301  25.922  12.085
55701W        W28027  33.559   1.199  14.977
55702W        W28028  44.744   5.115   2.606
55703W        W28029  11.577  31.612  10.024
55704W        W28030  44.236  32.227   4.960
55705W        W28031  33.701  10.852   2.577
55706W        W28032  25.748  39.638   0.429
55707W        W28033  39.261  31.848   4.692
55708W        W28034   7.381   9.398   2.790
55709W        W28035   3.182  26.225  13.904
55710W        W28036  35.672  25.997  14.383
55711W        W28037   8.724   6.495  12.033
55712W        W28038  31.972   4.926  14.842
55713W        W28039  16.263   6.158   2.293
55714W        W28040  42.859  18.100   4.574
55715W        W28041   5.882  11.176  13.300
55716W        W28042  42.746  32.397  11.473
55717W        W28043   0.114  27.542  13.488
55718W        W28044  33.831  34.529   0.941
55719W        W28045  44.610  36.137   1.208
55720W        W28046  29.185  32.966   1.516
55721W        W28047  28.072  14.925   3.709
55722W        W28048  43.878  23.872   4.818
55723W        W28049   3.811  22.056  14.022
55724W        W28050  34.079  36.580   0.340
55725W        W28051  27.947  17.318   3.181
55726W        W28052  14.162  29.360  14.839
55727W        W28053  40.939  31.436   2.272
55728W        W28054  40.377  41.864  12.454
55729W        W28055  36.882  24.031  11.996
55730W        W28056  25.996  14.559  12.893
55731W        W28057   6.320  17.976   4.541
55732W        W28058  31.061   5.577  12.323
55733W        W28059  39.792  14.641  10.560
55734W        W28060  27.031   9.134  13.041
55735W        W28061  36.612  27.632  14.252
55736W        W28062  27.981   7.626  11.608
55737W        W28063   4.157  25.103  11.702
55738W        W28064  33.247   3.654   2.732
55739W        W28065  35.419  30.615  10.566
55740W        W28066   5.164  26.618  10.466
55741W        W28067   9.281  14.264  13.979
55742W        W28068  41.496   6.327  11.212
55743W        W28069   1.107  11.885   4.997
55744W        W28070   4.407  37.358   0.390
55745W        W28071  28.334  44.334  12.858
55746W        W28072  34.988  35.458   5.183
55747W        W28073   3.130  14.284   1.757
55748W        W28074  39.506  19.142   4.502
55749W        W28075  11.927  31.136   3.874
55750W        W28076  43.793  29.056  10.645
55751W        W28077  20.154  44.348   0.503
55752W        W28078  23.191  19.156   3.461
55753W        W28079  18.231  34.257   0.254
55754W        W28080  18.356  39.323  13.962
55755W        W28081  24.713  34.577  10.433
55756W        W28082  21.934   6.797   0.411
55757W        W28083   5.499  22.707   2.795
55758W        W28084  21.537  18.308   3.578
55759W        W28085  36.521  38.930   1.823
55760W        W28086  40.619  35.612  12.813
55761W        W28087  37.352  23.013  14.411
55762W        W28088  10.790  15.678   1.858
55763W        W28089  33.369  11.118  12.845
55764W        W28090  16.501   8.760  10.989
55765W        W28091  10.183  21.305  14.974
55766W        W28092  24.431  40.876  14.219
55767W        W28093  12.126  15.746  10.623
55768W        W28094  17.705  37.662   4.327
55769W        W28095  26.442  21.566  11.200
55770W        W28096  34.009  36.826   4.919
55771W        W28097   8.317  21.344   3.163
55772W        W28098  14.469  43.672   2.952
55773W        W28099   4.344  40.333   0.779
55774W        W28100   5.255  15.550   4.310
55775W        W28101  41.285  17.660   2.296
55776W        W28102  34.422  16.862   2.336
55777W        W28103  13.627  23.239  14.822
55778W        W28104   4.466  19.571   0.704
55779W        W28105  32.580   6.365   0.740
55780W        W28106  11.521  11.544  13.710
55781W        W28107  11.613   7.663   4.866
55782W        W28108  18.174  37.894  10.898
55783W        W28109  27.055  21.978   3.756
55784W        W28110  33.826  24.396  11.043
55785W        W28111  30.576   4.250  12.464
55786W        W28112  41.275  41.833  11.233
55787W        W28113  14.170   6.750  13.856
55788W        W28114  43.941  11.831  13.068
55789W        W28115  33.456   8.334  14.926
55790W        W28116   1.735  18.792   1.832
55791W        W28117  39.097  27.503   3.265
55792W        W28118  22.523  41.028  13.839
55793W        W28119  10.504  43.877  10.947
55794W        W28120  10.766   4.739  13.842
55795W        W28121  35.784  41.756  11.118
55796W        W28122  23.968   4.285   1.216
55797W        W28123  31.444   0.793   3.122
55798W        W28124  25.909  27.919   1.218
55799W        W28125  20.191   8.840  14.821
55800W        W28126   1.869  30.990   1.231
55801W        W28127   0.542  17.080  11.208
55802W        W28128  43.949   8.231  11.339
55803W        W28129  20.743   7.567   5.167
55804W        W28130  28.714  44.324   1.661
55805W        W28131  21.813  17.690   0.721
55806W        W28132  40.809  32.010   0.052
55807W        W28133  15.713   2.275   3.693
55808W        W28134  35.390  34.897   3.727
55809W        W28135  24.040  36.414   5.075
55810W        W28136  20.390  26.659   4.220
55811W        W28137  24.060  19.674   4.275
55812W        W28138  39.368  16.621  12.065
55813W        W28139  43.319  24.996  10.701
55814W        W28140   5.311  28.935  12.453
55815W        W28141   1.752  17.328   1.952
55816W        W28142  26.210  23.161  11.072
55817W        W28143  32.075  10.789   0.353
55818W        W28144   5.358  29.307   1.274
55819W        W28145  15.659  20.173  13.994
55820W        W28146  35.047  35.148   1.950
55821W        W28147  20.603  21.231   1.033
55822W        W28148  32.124  40.959   4.249
55823W        W28149  34.135   5.888  11.639
55824W        W28150  20.849  38.133  10.598
55825W        W28151  29.153   5.364   0.234
55826W        W28152   1.182  26.860  12.467
55827W        W28153   1.236  11.407   5.585
55828W        W28154  23.053  44.060   1.770
55829W        W28155  33.908  16.676  11.893
55830W        W28156  43.250  29.517   2.343
55831W        W28157  44.807   5.253   0.841
55832W        W28158  39.003  16.661  11.680
55833W        W28159  21.814  35.603   1.386
55834W        W28160  39.563   3.664  13.884
55835W        W28161  40.030  23.645  11.522
55836W        W28162  38.774  17.498  13.871
55837W        W28163  27.517  43.913  13.058
55838W        W28164  29.547   6.190  13.784
55839W        W28165  38.109  21.131   1.961
55840W        W28166  25.418  24.621  11.952
55841W        W28167  38.978  41.456   2.198
55842W        W28168  27.224   3.804   3.651
55843W        W28169  23.951  37.510  13.398
55844W        W28170   9.224   9.310  14.448
55845W        W28171  43.579   1.903   0.373
55846W        W28172  36.014  28.011  10.636
55847W        W28173  18.059  40.931   2.200
55848W        W28174  37.997  20.208   3.394
55849W        W28175  37.585  23.445   3.350
55850W        W28176  28.867   7.262  12.485
55851W        W28177  11.091  14.097  11.152
55852W        W28178   3.367  17.064   3.014
55853W        W28179  42.782  26.095  12.676
55854W        W28180   9.312   7.226  14.433
55855W        W28181  21.028  18.277   3.489
55856W        W28182  10.312   2.979   4.304
55857W        W28183   2.945  37.135  14.481
55858W        W28184   0.274  25.359  14.981
55859W        W28185   1.079  25.453  12.157
55860W        W28186  29.207  44.504   1.717
55861W        W28187  40.219   1.192  11.088
55862W        W28188  34.986  22.160  10.951
55863W        W28189  35.899  22.124   0.867
55864W        W28190  28.520  44.513   4.901
55865W        W28191  31.658  39.050   2.399
55866W        W28192  35.972  42.942  11.609
55867W        W28193  11.441  25.459  10.148
55868W        W28194  28.526  39.536   3.961
55869W        W28195  21.556  27.620   4.530
55870W        W28196  29.957   0.742  10.957
55871W        W28197  43.748   3.301  11.091
55872W        W28198   5.817  31.032   0.432
55873W        W28199  14.605  37.443   2.595
55874W        W28200   7.575  35.252  12.423
55875W        W28201   7.404   8.851  10.423
55876W        W28202   9.852  21.626  11.086
55877W        W28203  30.599   0.556  12.031
55878W        W28204  31.169  35.459   4.124
55879W        W28205  43.950  44.525  13.872
55880W        W28206  14.183  11.180   1.845
55881W        W28207  13.243  20.246  10.427
55882W        W28208   0.590   2.239  14.522
55883W        W28209  10.813  13.377   3.375
55884W        W28210  36.346   1.102  12.981
55885W        W28211  40.223  33.540   4.349
55886W        W28212  32.646  27.603   2.808
55887W        W28213  17.138  14.725   2.628
55888W        W28214  18.644  23.082  14.726
55889W        W28215  41.909  15.538  12.395
55890W        W28216  16.330  15.783   3.607
55891W        W28217  19.480  31.352   3.251
55892W        W28218   9.613  12.675  13.501
55893W        W28219  19.351  42.766   2.286
55894W        W28220  35.073  28.671  13.441
55895W        W28221   8.290   4.732  12.051
55896W        W28222  26.737  37.481  14.410
55897W        W28223  43.939  13.889   1.709
55898W        W28224  19.305  12.607   3.637
55899W        W28225   3.938  43.767   1.807
55900W        W28226  34.189   7.040  13.742
55901W        W28227  28.506  44.197  14.930
55902W        W28228  20.079  12.901  12.949
55903W        W28229  23.155   4.189   4.118
55904W        W28230   7.908  30.129  11.637
55905W        W28231  35.034  42.980   1.890
55906W        W28232  13.873   0.573   4.143
55907W        W28233  14.407  14.798   0.401
55908W        W28234  40.412  12.055   0.645
55909W        W28235  35.842  13.199   3.276
55910W        W28236  30.003  10.965   1.882
55911W        W28237   3.760  37.631   3.541
55912W        W28238  40.990  44.902  11.575
55913W        W28239  25.202  32.651   3.478
55914W        W28240  28.923  10.233   2.802
55915W        W28241  38.357  42.820   4.608
55916W        W28242  34.288  13.573   4.068
55917W        W28243  10.783  19.070   0.780
55918W        W28244  31.259  12.867  11.591
55919W        W28245  10.655  11.447   1.646
55920W        W28246   9.298  21.779  10.923
55921W        W28247  22.472  42.818   1.426
55922W        W28248  11.367   3.962  10.304
55923W        W28249  33.721  19.150  12.144
55924W        W28250   0.045  10.819  11.224
55925W        W28251  36.000  13.404   1.828
55926W        W28252  13.093   5.527  10.238
55927W        W28253  36.467  29.848  12.071
55928W        W28254  34.951  34.680  14.848
55929W        W28255  41.939  42.556  14.992
55930W        W28256   1.969  29.451  13.956
55931W        W28257  38.391  23.514   1.736
55932W        W28258  14.854  20.343   0.358
55933W        W28259  31.964   8.425  10.458
55934W        W28260  41.364  10.804  14.971
55935W        W28261  33.868  39.896  12.975
55936W        W28262  37.451  10.094  13.500
55937W        W28263  10.271   8.648   3.821
55938W        W28264  31.107  27.498   3.671
55939W        W28265  16.910  34.974   3.494
55940W        W28266  15.433  30.063   2.883
55941W        W28267  36.416  44.306   2.126
55942W        W28268   9.139   3.504  11.454
55943W        W28269  28.517  42.601  10.711
55944W        W28270  35.921  18.569   0.932
55945W        W28271  35.058  28.851  14.679
55946W        W28272  13.353  21.779   3.198
55947W        W28273  14.582  28.414   1.351
55948W        W28274  11.683  13.165   0.146
55949W        W28275  43.279   2.045  10.789
55950W        W28276   6.653  29.864   1.300
55951W        W28277  27.282  23.121  14.902
55952W        W28278  13.588  14.752  10.825
55953W        W28279  19.558  31.529  10.632
55954W        W28280  36.474   0.155  11.932
55955W        W28281  18.460  21.644   2.902
55956W        W28282  35.444  38.412  13.156
55957W        W28283  27.474  21.648   3.843
55958W        W28284  27.161   5.584   4.816
55959W        W28285  10.375  11.020  14.496
55960W        W28286  18.576  16.427  11.220
55961W        W28287  26.522  18.743   4.136
55962W        W28288  40.604   4.402   4.153
55963W        W28289  34.123   9.120   0.263
55964W        W28290  16.108   9.644   1.229
55965W        W28291   7.833  33.391   2.637
55966W        W28292  22.465  21.742  10.661
55967W        W28293  13.608  18.338  14.853
55968W        W28294  17.163  30.457  13.102
55969W        W28295  30.884  35.902   4.125
55970W        W28296  29.104  43.049   0.025
55971W        W28297  32.453  22.385  14.739
55972W        W28298  20.206  42.570  14.964
55973W        W28299  40.650  26.025  13.132
55974W        W28300   4.049  29.405   2.755
55975W        W28301  21.234  29.552   1.391
55976W        W28302  13.244  36.067   3.683
55977W        W28303  24.159  43.553   2.716
55978W        W28304  32.685   5.081   2.317
55979W        W28305   4.676   7.374  14.810
55980W        W28306  43.449  34.572   0.738
55981W        W28307  25.291  23.242  14.501
55982W        W28308  13.431  36.567   5.053
55983W        W28309  20.176  21.643  14.533
55984W        W28310  36.456  34.075   0.115
55985W        W28311   0.789  32.312   2.705
55986W        W28312   0.534  32.962   1.159
55987W        W28313  39.352  12.350  13.913
55988W        W28314  35.020  14.128   3.748
55989W        W28315  43.312  14.386  13.064
55990W        W28316  40.736  19.259   1.870
55991W        W28317  24.959   5.133   0.727
55992W        W28318   3.118  40.468  14.313
55993W        W28319  35.409  35.552  13.461
55994W        W28320   8.401  13.393  11.576
55995W        W28321  22.145   3.477   2.726
55996W        W28322   6.846  40.814   4.556
55997W        W28323  25.713  15.832   1.104
55998W        W28324  19.049  40.080  12.166
55999W        W28325  35.495  17.464   4.658
56000W        W28326   9.903   9.987  13.020
56001W        W28327  15.642   3.694  12.551
56002W        W28328  33.424  42.197  12.016
56003W        W28329  11.631   1.769  10.659
56004W        W28330  40.256  38.537   0.449
56005W        W28331  14.814  23.089  13.462
56006W        W28332  27.642  31.650   2.278
56007W        W28333  22.693   7.907  11.839
56008W        W28334  15.689  12.671   0.685
56009W        W28335  16.522  38.462   3.267
56010W        W28336  40.291  15.687   1.858
56011W        W28337   0.226  35.961  11.407
56012W        W28338   9.755  19.420   4.037
56013W        W28339  23.715   2.403  12.042
56014W        W28340  39.988  39.588   1.930
56015W        W28341  42.591  13.669  11.871
56016W        W28342  33.416  19.856   0.910
56017W        W28343   3.663   9.722   4.094
56018W        W28344  41.984  22.042  10.571
56019W        W28345  34.884  16.881  13.336
56020W        W28346   6.471   8.462  12.480
56021W        W28347   1.661  43.943  13.055
56022W        W28348   4.641  43.489  10.933
56023W        W28349  42.506  43.895   3.804
56024W        W28350   5.340  16.519   3.615
56025W        W28351  31.557   4.410  14.514
56026W        W28352  25.300   2.463  12.143
56027W        W28353  24.424   3.932  14.271
56028W        W28354   2.163   8.255   3.446
56029W        W28355  21.445  21.628  10.332
56030W        W28356  19.499  35.460   1.788
56031W        W28357  38.625  37.553   0.297
56032W        W28358   3.310  22.784   4.869
56033W        W28359  38.629  35.448  11.048
56034W        W28360  19.256  33.336  12.876
56035W        W28361  31.426  37.818   4.187
56036W        W28362  38.383  11.320  11.262
56037W        W28363  28.294  13.480  11.116
56038W        W28364  25.995  41.517   0.960
56039W        W28365  40.238  21.182   2.772
56040W        W28366  41.022  29.955  12.423
56041W        W28367  43.210   8.814  14.883
56042W        W28368  20.262   1.299   1.738
56043W        W28369  20.811  29.939  10.483
56044W        W28370  28.893   3.449   4.146
56045W        W28371  36.498   1.719   3.813
56046W        W28372  35.578  11.767  12.922
56047W        W28373  42.852  24.681  12.619
56048W        W28374   8.951  17.353  13.546
56049W        W28375  19.466  15.475  14.796
56050W        W28376  32.107  36.917  12.692
56051W        W28377   8.015  41.355   3.047
56052W        W28378   9.369  15.578  11.291
56053W        W28379   1.387   7.326   0.429
56054W        W28380   8.256   7.552  12.766
56055W        W28381  43.989  20.617   4.141
56056W        W28382  24.470  44.701  10.671
56057W        W28383  41.561   0.566   2.311
56058W        W28384  13.749   1.966   0.287
56059W        W28385  11.752   7.282   3.218
56060W        W28386   2.374  19.200   4.544
56061W        W28387   6.744  41.549  10.891
56062W        W28388  17.565  30.414  14.941
56063W        W28389  24.184   9.708  11.379
56064W        W28390  38.790  39.453  10.473
56065W        W28391  37.789  44.752   4.620
56066W        W28392  28.963  42.332  14.271
56067W        W28393  31.952  22.044  11.510
56068W        W28394  40.374  11.319  13.508
56069W        W28395   7.611  29.670   2.149
56070W        W28396  30.772  42.919  14.254
56071W        W28397  23.256  31.515  12.930
56072W        W28398  36.376   3.242   2.289
56073W        W28399   8.334  13.899  11.710
56074W        W28400  44.333  26.569   4.533
56075W        W28401  20.231  31.472   1.473
56076W        W28402  13.968  11.078  12.536
56077W        W28403  30.424  20.599   0.936
56078W        W28404  19.034  12.229  14.731
56079W        W28405  23.477  34.667   0.338
56080W        W28406  26.642   4.762   1.976
56081W        W28407  20.137   0.043   2.148
56082W        W28408   2.691  27.975  10.743
56083W        W28409  33.194  29.932   1.459
56084W        W28410  30.649   3.330   3.873
56085W        W28411  15.834  22.212   3.740
56086W        W28412  17.157  32.140  10.587
56087W        W28413  23.677  41.617  12.957
56088W        W28414  15.561   1.987  11.532
56089W        W28415   6.230  16.344  14.960
56090W        W28416  39.730  17.467  10.934
56091W        W28417  18.460   1.298   0.803
56092W        W28418  33.492  32.393   3.301
56093W        W28419  10.837  11.671  14.922
56094W        W28420  19.721  12.372   0.861
56095W        W28421  13.833   7.264  13.151
56096W        W28422  38.388   8.143  13.970
56097W        W28423  23.905  19.710  14.870
56098W        W28424  33.132  42.259   4.608
56099W        W28425  26.101  44.362   3.427
56100W        W28426  35.863   4.151  10.920
56101W        W28427  40.824   6.633  13.355
56102W        W28428  37.504  29.990  10.769
56103W        W28429  18.513  26.712   3.229
56104W        W28430  32.942   0.087   3.578
56105W        W28431   1.175  32.915  12.553
56106W        W28432  30.175  15.070  14.856
56107W        W28433  23.084  40.389   2.242
56108W        W28434   8.626  42.988  11.904
56109W        W28435  34.495  18.036   3.209
56110W        W28436  32.218  19.230   0.842
56111W        W28437  41.820  35.782   1.528
56112W        W28438  29.597  16.302  10.743
56113W        W28439  29.722  40.478   2.302
56114W        W28440  36.353  36.348   3.827
56115W        W28441  18.778  37.956   4.531
56116W        W28442   4.654  29.499  12.944
56117W        W28443  37.702  13.668   3.342
56118W        W28444  15.045  28.251   2.946
56119W        W28445  15.303   3.684  11.380
56120W        W28446  30.175  15.852   3.830
56121W        W28447  17.076  35.003  10.533
56122W        W28448   4.951  14.154  13.986
56123W        W28449  33.136  10.423   0.973
56124W        W28450  25.132  34.089   2.289
56125W        W28451   9.123  29.552   0.449
56126W        W28452  13.441   2.914  12.907
56127W        W28453   9.601  23.971   3.665
56128W        W28454  22.403  27.975  13.817
56129W        W28455  37.934   6.222   3.315
56130W        W28456   8.039  23.983   2.724
56131W        W28457  33.719  31.013  14.021
56132W        W28458  24.975  29.049  10.622
56133W        W28459  31.086  30.542   0.144
56134W        W28460  40.033  15.901   0.479
56135W        W28461  42.715  23.394  11.348
56136W        W28462  17.228  12.420   4.915
56137W        W28463   0.395  37.376   1.870
56138W        W28464  28.502   6.316   3.339
56139W        W28465  42.286  15.277   3.925
56140W        W28466   4.178  21.183  14.427
56141W        W28467  29.595  36.762   2.763
56142W        W28468   9.911  44.293   3.809
56143W        W28469  24.721  23.937   4.001
56144W        W28470  30.529  26.993   2.214
56145W        W28471   0.349  14.916   2.363
56146W        W28472  42.270   0.932  13.376
56147W        W28473  16.906  29.951  11.365
56148W        W28474   1.943  24.506   3.186
56149W        W28475   5.841   4.310   1.473
56150W        W28476  18.322  35.277  14.710
56151W        W28477  29.443  27.922  10.685
56152W        W28478   1.799  34.488   1.835
56153W        W28479   0.170  31.468   2.858
56154W        W28480  14.820  43.787   1.019
56155W        W28481  19.322  36.941  12.929
56156W        W28482   4.310   5.793   4.516
56157W        W28483  42.373  41.726   4.268
56158W        W28484   7.740  33.104  13.338
56159W        W28485  27.518  32.935   3.545
56160W        W28486  19.239  21.071   2.761
56161W        W28487  34.448  16.074   3.300
56162W        W28488  38.498   1.771  13.454
56163W        W28489  18.575  37.795   3.641
56164W        W28490  24.295  29.861  10.383
56165W        W28491   9.307  39.976  14.357
56166W        W28492  20.943   3.226  11.079
56167W        W28493  14.222  15.182  11.928
56168W        W28494   9.440  15.303   3.680
56169W        W28495  23.245  30.651   1.798
56170W        W28496  10.063  38.295   2.800
56171W        W28497  40.908  25.489   2.150
56172W        W28498   1.592  28.011  12.899
56173W        W28499   4.508  32.429   1.580
56174W        W28500   9.890  29.358   2.837
56175W        W28501  34.225   8.872   4.197
56176W        W28502  30.489  12.615  14.363
56177W        W28503   0.739  36.966   1.282
56178W        W28504  28.457  20.336  11.452
56179W        W28505  43.419  32.150  12.606
56180W        W28506  40.582   0.267   3.693
56181W        W28507  16.849  25.424   1.336
56182W        W28508   1.442  37.978  13.385
56183W        W28509  28.592  37.042  11.879
56184W        W28510   8.105   1.880  11.087
56185W        W28511   5.122  14.420  10.705
56186W        W28512  20.592  44.293   0.814
56187W        W28513   0.594  28.204   1.447
56188W        W28514  26.535  18.472  10.934
56189W        W28515  42.277  30.457  12.995
56190W        W28516  31.716  33.596   0.307
56191W        W28517   0.338  32.614  12.404
56192W        W28518  16.294  24.578  12.542
56193W        W28519  25.064  27.922   3.650
56194W        W28520   9.760   5.357  12.106
56195W        W28521  30.903  22.596   3.552
56196W        W28522   9.229  42.014   3.632
56197W        W28523  36.450   2.650   1.443
56198W        W28524  40.248  31.997  13.897
56199W        W28525  35.347  10.046   2.317
56200W        W28526   6.443  20.528  10.541
56201W        W28527  23.002  27.445  12.425
56202W        W28528  12.682  24.455   5.079
56203W        W28529  44.983  17.950   1.287
56204W        W28530  18.103  20.231   3.202
56205W        W28531  22.078   4.158  10.911
56206W        W28532   6.920  33.186   3.231
56207W        W28533  28.450   2.743  12.878
56208W        W28534   2.132  16.325   1.875
56209W        W28535  15.336  30.450   3.326
56210W        W28536   8.249  18.660   3.906
56211W        W28537  23.730  31.983  12.554
56212W        W28538  30.917   0.836   3.162
56213W        W28539  23.179  27.694  11.058
56214W        W28540  27.779  36.545   3.196
56215W        W28541  17.079  22.744   1.329
56216W        W28542  41.214  33.568  11.728
56217W        W28543  23.071  28.601  13.240
56218W        W28544  21.163  26.157   1.306
56219W        W28545  23.559  11.710   3.180
56220W        W28546  35.390   7.248   3.405
56221W        W28547  44.003  37.869   0.335
56222W        W28548  43.853  27.198  14.451
56223W        W28549  28.323   6.372   2.283
56224W        W28550  43.455   0.474  10.310
56225W        W28551  34.977  20.501   4.585
56226W        W28552  19.752  33.559   1.439
56227W        W28553  12.826   9.311   2.427
56228W        W28554  34.486  41.350  13.097
56229W        W28555  39.380   6.467   1.191
56230W        W28556   7.198  29.554   2.402
56231W        W28557   8.261  35.962  12.770
56232W        W28558  36.558  13.310   1.699
56233W        W28559  12.061  37.581  13.097
56234W        W28560  19.776  11.380   0.363
56235W        W28561  33.938  17.836  13.524
56236W        W28562  43.659  31.440   3.722
56237W        W28563  31.378   5.807  10.252
56238W        W28564   7.721  36.692  11.293
56239W        W28565  43.786  42.896   4.577
56240W        W28566  17.380  29.456  10.591
56241W        W28567  31.338  27.196   0.005
56242W        W28568  13.213  22.505  12.610
56243W        W28569  34.135  19.756   1.294
56244W        W28570  37.502   5.355  10.911
56245W        W28571  28.598  21.606   3.585
56246W        W28572  11.123  17.261   3.371
56247W        W28573  10.080   3.452   4.210
56248W        W28574   5.225  17.151   3.273
56249W        W28575  25.883  26.684   1.018
56250W        W28576  42.871  44.061   4.102
56251W        W28577  23.123  37.886   0.970
56252W        W28578   9.950   5.435   0.128
56253W        W28579  11.816  37.533   4.107
56254W        W28580  11.222  41.815  12.133
56255W        W28581  40.081  29.084   1.891
56256W        W28582  13.170  11.736   4.596
56257W        W28583  12.579  17.770   3.617
56258W        W28584  36.594  19.225   4.884
56259W        W28585   3.705   5.174   0.002
56260W        W28586   0.045  24.125   0.020
56261W        W28587  10.879  41.225   3.639
56262W        W28588  40.068  43.331  10.650
56263W        W28589  37.096  33.385   3.661
56264W        W28590  19.413  43.785  12.544
56265W        W28591  10.192  24.769   2.292
56266W        W28592   7.266   5.941   3.424
56267W        W28593  10.588   6.113   0.442
56268W        W28594  28.616   3.272   4.590
56269W        W28595  16.313  35.442  10.643
56270W        W28596  10.009   7.856   2.377
56271W        W28597  36.160  22.825  13.442
56272W        W28598  44.834  13.609   2.292
56273W        W28599  29.719  33.701   9.903
56274W        W28600  41.428  32.536   4.541
56275W        W28601  16.852  33.010   0.204
56276W        W28602  18.596  26.969  11.688
56277W        W28603  32.085   1.371   2.305
56278W        W28604  28.609   5.451   0.241
56279W        W28605  12.784  35.985   0.211
56280W        W28606  28.805  16.858  12.383
56281W        W28607  13.750  24.730   1.276
56282W        W28608  31.932   7.929  14.117
56283W        W28609  34.430   3.799  14.530
56284W        W28610  13.363  37.173  12.110
56285W        W28611  32.495  43.873   3.209
56286W        W28612  35.091  33.618   4.735
56287W        W28613  38.851   7.632  11.144
56288W        W28614  29.481  11.270   3.247
56289W        W28615   9.275  13.269   1.483
56290W        W28616  12.242  18.057  13.782
56291W        W28617  38.914   2.272  12.406
56292W        W28618  15.343  20.511  11.050
56293W        W28619  34.957   7.465   3.132
56294W        W28620  36.045  14.659   1.366
56295W        W28621  35.636  34.603  12.586
56296W        W28622  29.214  29.085   1.424
56297W        W28623  36.824   6.564  11.160
56298W        W28624   1.815  22.648  11.406
56299W        W28625  24.139  37.148   0.342
56300W        W28626  22.995  44.316  13.298
56301W        W28627  37.231  21.548   2.399
56302W        W28628  41.326  37.058  12.938
56303W        W28629  41.065   2.507  12.110
56304W        W28630  44.699  10.682  13.602
56305W        W28631  42.579  12.461  13.287
56306W        W28632  38.496  38.084   0.210
56307W        W28633   3.084  41.580  12.857
56308W        W28634  32.580  44.012  12.910
56309W        W28635  20.152  10.552   4.589
56310W        W28636  42.970  25.564   4.586
56311W        W28637  18.219   9.853  13.563
56312W        W28638  25.143  17.618   4.194
56313W        W28639  42.796  23.251  12.269
56314W        W28640  25.478  22.514   1.553
56315W        W28641   3.917  17.145  14.736
56316W        W28642  24.180  18.586  13.542
56317W        W28643  42.179   4.618   1.744
56318W        W28644  28.506  16.796   3.660
56319W        W28645  25.046  41.281   2.369
56320W        W28646   8.268  20.509  13.419
56321W        W28647  19.130  40.285   0.897
56322W        W28648  29.861  21.521  11.889
56323W        W28649  34.563  27.719  11.680
56324W        W28650  27.045  23.328   1.483
56325W        W28651  31.579  22.619  12.507
56326W        W28652  22.058   2.868   1.392
56327W        W28653  43.500   8.657   3.940
56328W        W28654  28.784  19.330  13.938
56329W        W28655  13.249  36.488  13.311
56330W        W28656  39.155  10.227  14.840
56331W        W28657   9.734  30.127   1.376
56332W        W28658  28.809  15.947  11.126
56333W        W28659  28.733  16.065   4.029
56334W        W28660  24.868   1.950  12.967
56335W        W28661  22.650  32.370   1.214
56336W        W28662  37.621  12.519   4.192
56337W        W28663  33.882  41.539  12.356
56338W        W28664  19.992  24.160  11.615
56339W        W28665  12.252  26.457   0.239
56340W        W28666  44.533   3.345  10.640
56341W        W28667  11.879  34.005  13.153
56342W        W28668  11.795   9.621   1.333
56343W        W28669   6.306   6.084  13.356
56344W        W28670  19.892  17.224   4.637
56345W        W28671   3.336   2.558   1.351
56346W        W28672   4.391  15.584  11.527
56347W        W28673  40.225   8.192   3.766
56348W        W28674  41.829   1.572   0.044
56349W        W28675  32.580  27.220   4.127
56350W        W28676  29.600   2.587   0.882
56351W        W28677  42.232  26.197   0.426
56352W        W28678  36.853  19.124  12.868
56353W        W28679  36.040  25.580   3.046
56354W        W28680  19.835  18.587  14.448
56355W        W28681   9.294  32.642  13.505
56356W        W28682  37.615  15.698   4.807
56357W        W28683  38.360  27.525   2.731
56358W        W28684  37.492  31.545  10.789
56359W        W28685  37.445  12.567  11.516
56360W        W28686   1.485  21.665   4.652
56361W        W28687   1.882  44.018   3.702
56362W        W28688   7.603  24.058  12.410
56363W        W28689  16.351  23.246   1.712
56364W        W28690   3.313  10.278  14.734
56365W        W28691  11.461  12.227  14.375
56366W        W28692  39.334   3.754   0.560
56367W        W28693  29.988   8.328   0.350
56368W        W28694  40.043  12.751  14.967
56369W        W28695  33.238   8.773   2.947
56370W        W28696  36.626  20.735  11.866
56371W        W28697   6.862   9.826  10.594
56372W        W28698  15.660  22.940  13.518
56373W        W28699  44.470   0.480  13.807
56374W        W28700   1.229   4.940   2.832
56375W        W28701   6.783   2.992  10.971
56376W        W28702  32.666  11.392  13.542
56377W        W28703  25.663   0.295  14.635
56378W        W28704  36.539  22.283  10.858
56379W        W28705  42.653  12.325  12.333
56380W        W28706  25.326   6.358   4.625
56381W        W28707  36.383  19.335  12.846
56382W        W28708  10.809  37.320  14.679
56383W        W28709  37.398  15.753  14.979
56384W        W28710  13.131  26.891  10.922
56385W        W28711  37.301  43.359  12.522
56386W        W28712  21.485  16.575  13.232
56387W        W28713  14.338   9.281  12.998
56388W        W28714   4.959  44.994   4.450
56389W        W28715  18.090  40.474   2.457
56390W        W28716   6.579  40.338   0.492
56391W        W28717   1.359  30.613   4.222
56392W        W28718  13.120  15.273   0.324
56393W        W28719  34.502  38.847   1.458
56394W        W28720   1.993   4.344   5.458
56395W        W28721  30.364  38.832   4.406
56396W        W28722  34.819  33.581   2.083
56397W        W28723  31.969  29.938   3.810
56398W        W28724   8.391  13.182   0.887
56399W        W28725  37.553   6.374  11.124
56400W        W28726  36.983  14.824   0.304
56401W        W28727   2.248  32.539   2.655
56402W        W28728  22.622   1.515  11.397
56403W        W28729  41.960  41.578  13.070
56404W        W28730  14.147  43.439  12.907
56405W        W28731  11.796   7.542  10.991
56406W        W28732   8.434  33.800  12.392
56407W        W28733  10.162  23.526  13.856
56408W        W28734  34.512  15.067   3.168
56409W        W28735  40.851  16.835  11.198
56410W        W28736   7.364  30.527   2.641
56411W        W28737  43.449  29.059  11.451
56412W        W28738  12.758  40.332  14.410
56413W        W28739  37.011  14.780  13.873
56414W        W28740  18.583  33.506  10.665
56415W        W28741  26.533  18.354   0.669
56416W        W28742   6.464   3.353  10.384
56417W        W28743  37.822  18.174  13.504
56418W        W28744  25.550   3.753   3.612
56419W        W28745  43.145  29.413   3.264
56420W        W28746   1.430  39.452   1.365
56421W        W28747   1.809  21.448  14.381
56422W        W28748  18.378  15.207  12.809
56423W        W28749  27.271  42.985   4.721
56424W        W28750  40.393   4.235  14.815
56425W        W28751   4.219   8.209  11.939
56426W        W28752  14.395  22.949   2.679
56427W        W28753  34.618  33.797   1.664
56428W        W28754   1.119  38.971  13.853
56429W        W28755  42.809  23.649  13.724
56430W        W28756   4.471   4.823   2.405
56431W        W28757  38.622  40.491  14.451
56432W        W28758  44.469  23.587   2.788
56433W        W28759  40.765  28.943   4.140
56434W        W28760   8.975   0.453   1.409
56435W        W28761  19.535   9.396   1.564
56436W        W28762  19.373  21.556  13.995
56437W        W28763  25.625   9.216   2.663
56438W        W28764   0.032  40.592  11.600
56439W        W28765  27.566  31.085  12.152
56440W        W28766   6.710  37.168   0.770
56441W        W28767  42.796  24.652   3.819
56442W        W28768  10.683  12.309  11.140
56443W        W28769  35.435  26.200   4.685
56444W        W28770  10.357   2.249   3.143
56445W        W28771  31.349   6.650   0.774
56446W        W28772  36.963  10.810  13.532
56447W        W28773  37.366  31.991  11.143
56448W        W28774  26.453  35.071  14.989
56449W        W28775  14.646  21.633   4.242
56450W        W28776  11.796  10.727  14.295
56451W        W28777  38.382   6.391   1.178
56452W        W28778  18.668  25.146  13.545
56453W        W28779  15.307  39.555   4.513
56454W        W28780   9.278  34.355   0.260
56455W        W28781  37.134  37.567  11.123
56456W        W28782  33.928  28.710   2.282
56457W        W28783  38.978  41.998   0.320
56458W        W28784  33.008  23.686   0.850
56459W        W28785  30.848  20.346   3.556
56460W        W28786  11.746  41.442   4.650
56461W        W28787  18.275   2.235  11.061
56462W        W28788  40.015  39.245   1.084
56463W        W28789  14.333  31.159   5.139
56464W        W28790  37.263  16.219   1.196
56465W        W28791  41.943  12.041   4.660
56466W        W28792  43.389  21.595  14.353
56467W        W28793  36.947  37.540   2.673
56468W        W28794   1.776  37.268  13.828
56469W        W28795  24.640  32.119  11.561
56470W        W28796   2.942  32.581   2.162
56471W        W28797  41.428  26.036  12.639
56472W        W28798  18.464  21.301  14.419
56473W        W28799  32.551   8.150  12.801
56474W        W28800   7.961  10.243   1.849
56475W        W28801   6.511   6.313  12.550
56476W        W28802  11.003  26.189  10.497
56477W        W28803  23.940   5.327   1.080
56478W        W28804  26.519  36.911  13.030
56479W        W28805  42.249   0.985  12.867
56480W        W28806  33.816  31.778   2.278
56481W        W28807  20.854  42.608   0.659
56482W        W28808  16.347   0.941   1.830
56483W        W28809  25.045  27.626   3.217
56484W        W28810   7.531  31.048  13.459
56485W        W28811  43.842  31.397  14.253
56486W        W28812  17.174  26.479  13.065
56487W        W28813  16.576   2.853  11.162
56488W        W28814  41.805  14.101   1.893
56489W        W28815  13.796  19.778   1.009
56490W        W28816  33.887   3.826  11.544
56491W        W28817  40.483  21.669   2.861
56492W        W28818   6.915  43.015   2.731
56493W        W28819  26.217  22.045  11.001
56494W        W28820   9.228  37.229  11.596
56495W        W28821   5.221   6.236  14.604
56496W        W28822  11.169   1.247   1.685
56497W        W28823  39.347  39.383   3.268
56498W        W28824   3.347  28.204   1.414
56499W        W28825  25.382   4.179   0.897
56500W        W28826  19.811  22.616   3.603
56501W        W28827  14.161  27.438  14.942
56502W        W28828  42.908  31.389  14.497
56503W        W28829  21.127  14.335  12.980
56504W        W28830   9.396   1.203   1.998
56505W        W28831  43.153  29.842  10.450
56506W        W28832  40.962  27.537  12.307
56507W        W28833  25.617  34.124  11.189
56508W        W28834  40.988  31.467  13.857
56509W        W28835  25.173  23.763  14.775
56510W        W28836  28.994  43.984   2.916
56511W        W28837  22.763   9.334   3.568
56512W        W28838   6.929  31.340  11.594
56513W        W28839  41.968  16.255  12.910
56514W        W28840   3.645   1.554  12.349
56515W        W28841  18.598  43.072  11.583
56516W        W28842   6.564  37.188   2.259
56517W        W28843   2.806  40.877  11.604
56518W        W28844  23.547  40.069  13.009
56519W        W28845  18.153  13.311   2.151
56520W        W28846  42.251   0.784   0.269
56521W        W28847  37.928  25.129   4.668
56522W        W28848  15.318  36.152   1.035
56523W        W28849  12.771  22.493  13.333
56524W        W28850   6.205  37.744  10.723
56525W        W28851  38.343  36.056   3.848
56526W        W28852  28.616   1.462  13.496
56527W        W28853  42.809  18.099   1.245
56528W        W28854  43.733  28.176  10.589
56529W        W28855  40.754  23.531   2.348
56530W        W28856  29.370   7.646   0.349
56531W        W28857   1.972   2.918   1.338
56532W        W28858  33.441  42.972   1.123
56533W        W28859  37.465   6.426  12.433
56534W        W28860  15.612   9.849   2.427
56535W        W28861  37.201  30.831  10.028
56536W        W28862  25.914  38.858  14.438
56537W        W28863   9.656  32.660  14.509
56538W        W28864   7.333  42.835  10.890
56539W        W28865  13.855  12.306  13.400
56540W        W28866  14.075  27.840  11.571
56541W        W28867  22.153  18.319  14.447
56542W        W28868  42.791  25.270   1.477
56543W        W28869   3.829  28.081  11.982
56544W        W28870  27.822  38.565   2.404
56545W        W28871  19.335   5.714   4.613
56546W        W28872   2.679  12.527  14.784
56547W        W28873  18.508  41.036   1.302
56548W        W28874  19.959  23.910  12.888
56549W        W28875   6.941  25.554  10.618
56550W        W28876   8.344  28.596  13.323
56551W        W28877   8.268  25.132   1.420
56552W        W28878  10.800   7.411   1.823
56553W        W28879  13.310   7.221  14.066
56554W        W28880   9.623  33.864  10.553
56555W        W28881   9.715  44.934  14.728
56556W        W28882  39.264  43.226  12.804
56557W        W28883  44.954  37.602  12.512
56558W        W28884  31.147  19.320  10.677
56559W        W28885  19.169   0.854  14.220
56560W        W28886  21.679  15.214  13.561
56561W        W28887  25.115  30.879  14.957
56562W        W28888   4.679  36.649  10.792
56563W        W28889  31.533  31.810   5.292
56564W        W28890  26.966  18.209   0.404
56565W        W28891  26.533  23.585  11.152
56566W        W28892  21.275  40.687  12.101
56567W        W28893  38.872  24.432  13.918
56568W        W28894  26.588  38.519   4.696
56569W        W28895  18.467  23.954  10.702
56570W        W28896  35.537  11.541  11.116
56571W        W28897  38.441  11.906   2.455
56572W        W28898  16.530  33.094   1.137
56573W        W28899  34.454  32.066  10.587
56574W        W28900  28.825  11.619   1.053
56575W        W28901   1.956  35.247  13.249
56576W        W28902  27.920  13.344   3.671
56577W        W28903   3.393   0.636   3.425
56578W        W28904  15.780  31.452  10.698
56579W        W28905  34.816  28.269  11.143
56580W        W28906  39.816  17.198   3.178
56581W        W28907  13.134  33.958  12.088
56582W        W28908  21.142  44.733  10.340
56583W        W28909   4.502   5.810   4.044
56584W        W28910  39.819   7.352  12.004
56585W        W28911  40.598  14.875  12.419
56586W        W28912  39.980  41.842   3.625
56587W        W28913   4.811  43.727   3.172
56588W        W28914   9.262  12.506   2.856
56589W        W28915  27.205  17.592  11.075
56590W        W28916   6.203  28.665  13.490
56591W        W28917   3.673   5.366   1.253
56592W        W28918   5.407  41.768   1.936
56593W        W28919   5.777  39.377  10.875
56594W        W28920  33.405   6.802  14.387
56595W        W28921   2.351  23.167  14.751
56596W        W28922  19.761   1.437   3.458
56597W        W28923   9.193  15.460  12.384
56598W        W28924   5.922   0.059  14.462
56599W        W28925  11.714  11.726   0.228
56600W        W28926  41.942  12.805   2.652
56601W        W28927  27.776  42.515  12.875
56602W        W28928  11.662  31.575  14.733
56603W        W28929  33.970  15.985   3.067
56604W        W28930   1.016  38.947   1.245
56605W        W28931   2.746   3.191  10.103
56606W        W28932  34.969  21.573  12.797
56607W        W28933  37.908   4.996   4.217
56608W        W28934  35.515  41.845  14.526
56609W        W28935  27.692  42.121  11.070
56610W        W28936  38.339  13.928   2.690
56611W        W28937   1.549  21.908  11.014
56612W        W28938  43.815   4.436   3.288
56613W        W28939  35.303  34.083  11.814
56614W        W28940  32.002  32.030  10.594
56615W        W28941  19.369   1.149   0.704
56616W        W28942  15.970  41.015   1.358
56617W        W28943  33.405  33.050  13.873
56618W        W28944  20.780  34.909   4.765
56619W        W28945  44.764  27.321  11.538
56620W        W28946  29.753  26.577   2.666
56621W        W28947  40.169  29.149  11.158
56622W        W28948  13.293  21.374   4.529
56623W        W28949  22.250  42.348   0.747
56624W        W28950  26.342  42.472  10.433
56625W        W28951  28.314  18.184   2.520
56626W        W28952  41.829  40.421   3.134
56627W        W28953  19.679  35.935   0.504
56628W        W28954  21.532   4.657   0.380
56629W        W28955  43.088  16.196   2.115
56630W        W28956  36.316  26.609  14.414
56631W        W28957  31.917   4.398  10.288
56632W        W28958  39.859  39.121  13.069
56633W        W28959  43.041  13.666  12.488
56634W        W28960  41.244  41.123   3.174
56635W        W28961  30.918  29.474   4.176
56636W        W28962  15.985  27.121  10.614
56637W        W28963   8.792  41.029  14.416
56638W        W28964   4.928  40.075   4.130
56639W        W28965  32.307  33.905   3.700
56640W        W28966  42.773  13.389   3.211
56641W        W28967  38.523  20.545   3.965
56642W        W28968  22.909   2.284   4.141
56643W        W28969  29.071  44.025   1.394
56644W        W28970   6.088  20.799  14.304
56645W        W28971  28.583  12.896  14.748
56646W        W28972   0.195  24.818  11.136
56647W        W28973   6.343  40.274   4.102
56648W        W28974  35.682  37.160  12.047
56649W        W28975   7.218  16.255   3.605
56650W        W28976  12.768  15.298  13.894
56651W        W28977  12.207   0.071  14.435
56652W        W28978  10.835   6.116  11.700
56653W        W28979  42.013  39.986  14.884
56654W        W28980   1.425  10.881  13.988
56655W        W28981   9.275  32.081  11.875
56656W        W28982  34.160  29.387   2.878
56657W        W28983  20.450  39.003  14.808
56658W        W28984   2.720  35.433  10.860
56659W        W28985  37.089   7.906   4.743
56660W        W28986   4.653  11.616  11.182
56661W        W28987  24.177  10.975  13.362
56662W        W28988  37.144  25.296   4.221
56663W        W28989  41.894  37.016  13.894
56664W        W28990   3.456  20.552   2.860
56665W        W28991  21.090  33.368   3.793
56666W        W28992  37.973  17.751  12.005
56667W        W28993   0.295  33.994  10.633
56668W        W28994  34.367  42.861   3.724
56669W        W28995  24.083  40.271  14.853
56670W        W28996  36.986  23.759   0.033
56671W        W28997  12.192  43.065   4.092
56672W        W28998   8.168  10.429   3.203
56673W        W28999  23.906  14.349  14.156
56674W        W29000   5.959  21.598   2.904
56675W        W29001  26.093  20.046   4.621
56676W        W29002   8.201  21.136  10.668
56677W        W29003   7.759  37.458   1.933
56678W        W29004  41.968  16.550   3.292
56679W        W29005   1.954  43.978   4.576
56680W        W29006  28.408  24.566  14.340
56681W        W29007  36.408  35.961  14.444
56682W        W29008  41.313  16.743  14.518
56683W        W29009  39.088  18.991  11.426
56684W        W29010  36.288   3.240   4.556
56685W        W29011  27.773  31.544  13.863
56686W        W29012   2.444  12.094  11.060
56687W        W29013   9.397  13.793   1.327
56688W        W29014  18.644  13.592  12.135
56689W        W29015   4.944   2.344  13.824
56690W        W29016  18.255  14.072  11.177
56691W        W29017   6.405  35.155   1.643
56692W        W29018  34.171   3.245  13.754
56693W        W29019  43.537  43.269   2.436
56694W        W29020  42.470  26.129   2.966
56695W        W29021  11.159  20.128  10.733
56696W        W29022   3.840  11.482   5.493
56697W        W29023  29.647  30.182  14.398
56698W        W29024   4.761   1.234   3.507
56699W        W29025  43.769  29.621   2.148
56700W        W29026   1.541  26.913  12.048
56701W        W29027  36.508  43.487  14.529
56702W        W29028  11.167  15.243  11.561
56703W        W29029  38.283   4.991  14.947
56704W        W29030  20.102   9.178  10.665
56705W        W29031  30.064   8.678   1.856
56706W        W29032  37.012  23.496   3.288
56707W        W29033  23.529  35.922   2.906
56708W        W29034  34.994   0.994  11.033
56709W        W29035   1.373   8.590  10.158
56710W        W29036  43.747  10.890   0.332
56711W        W29037  40.492  13.560  12.157
56712W        W29038   8.185   1.017   3.131
56713W        W29039  16.788  25.599   1.814
56714W        W29040  24.034  38.095  14.506
56715W        W29041  29.001  20.773  13.779
56716W        W29042  26.589  38.034  12.346
56717W        W29043  31.027  41.065  11.413
56718W        W29044  29.953  29.074  10.440
56719W        W29045  17.681  23.761   4.042
56720W        W29046   5.182  40.900  12.131
56721W        W29047  40.903  37.902   1.559
56722W        W29048  12.318   7.944  11.992
56723W        W29049  32.074  19.452  10.800
56724W        W29050  11.185  35.520  10.937
56725W        W29051   1.357  35.432  11.581
56726W        W29052  33.306  28.169   1.793
56727W        W29053  18.522  32.950  11.485
56728W        W29054  44.584   7.733  14.246
56729W        W29055  11.659  23.159   4.915
56730W        W29056   2.219  38.963  10.513
56731W        W29057  19.879   9.194   4.846
56732W        W29058  44.202  24.790  11.945
56733W        W29059  40.785  30.863   3.598
56734W        W29060  25.242   3.373   5.068
56735W        W29061  14.998  42.805  11.998
56736W        W29062   2.290   7.438  12.284
56737W        W29063  36.040  43.526  13.742
56738W        W29064  30.859  34.849   0.273
56739W        W29065  44.413   1.248  12.961
56740W        W29066  39.404  21.915  13.328
56741W        W29067  41.598  17.744  10.789
56742W        W29068  16.723  26.239  14.440
56743W        W29069  40.417  39.936  11.212
56744W        W29070  19.239  25.109  10.738
56745W        W29071  38.531   0.649  13.252
56746W        W29072   4.910  41.070   0.798
56747W        W29073   7.622  17.091   3.976
56748W        W29074  14.453   5.633  12.134
56749W        W29075  33.010  16.766  13.593
56750W        W29076  14.741  18.097   4.168
56751W        W29077   4.312  19.652   3.161
56752W        W29078  29.854  38.926  10.628
56753W        W29079  32.898  25.231   2.485
56754W        W29080  22.403  16.848  13.557
56755W        W29081   8.149   0.021   2.930
56756W        W29082  24.971  22.375   0.266
56757W        W29083   3.623  13.294  11.573
56758W        W29084   1.934  33.826  13.833
56759W        W29085   1.818   9.213   4.710
56760W        W29086   5.167  30.200  14.726
56761W        W29087  12.092   9.654  11.443
56762W        W29088  16.528  16.014  11.596
56763W        W29089  27.217  41.894  13.854
56764W        W29090  38.012  11.152  13.834
56765W        W29091   7.341  21.886   2.281
56766W        W29092   7.721   5.916  12.051
56767W        W29093   4.174  10.711   2.440
56768W        W29094  30.911   6.257  10.665
56769W        W29095  32.136  16.938  14.111
56770W        W29096  16.769  31.088   2.865
56771W        W29097  10.394  32.179  14.553
56772W        W29098   1.019  10.768  10.989
56773W        W29099  16.343  13.480  13.895
56774W        W29100  21.135  39.777  14.570
56775W        W29101   1.260  12.552   2.232
56776W        W29102  32.964  22.143  14.788
56777W        W29103   1.309  42.257   3.314
56778W        W29104  24.717  18.560   1.149
56779W        W29105  39.146  27.217   4.544
56780W        W29106   1.537   7.854   2.272
56781W        W29107   5.329  32.634  12.484
56782W        W29108  24.845  14.260   1.169
56783W        W29109  34.174   3.968   2.650
56784W        W29110  42.958   7.953  12.843
56785W        W29111  30.972  29.912   0.944
56786W        W29112  35.157  35.461  10.231
56787W        W29113   3.239  31.061  10.981
56788W        W29114  42.019  35.974  13.467
56789W        W29115  23.037   3.866  14.260
56790W        W29116  41.370  41.096   2.239
56791W        W29117  31.542  41.380  11.392
56792W        W29118  14.292  32.567  10.326
56793W        W29119  13.869   0.744   1.779
56794W        W29120  13.166  32.031  12.998
56795W        W29121  38.308  28.909  13.863
56796W        W29122   8.797   6.271  12.482
56797W        W29123  35.121   6.672  12.111
56798W        W29124  12.536  33.446   3.798
56799W        W29125   4.868  35.360   4.980
56800W        W29126  21.960   9.829  14.504
56801W        W29127  12.302   0.292   3.563
56802W        W29128  38.000  15.537  14.264
56803W        W29129  18.151   7.116  12.964
56804W        W29130  22.751  32.091  13.585
56805W        W29131   1.565  10.374   2.472
56806W        W29132   0.972  42.570  14.209
56807W        W29133  37.480   1.757   3.587
56808W        W29134  17.114  37.415  12.152
56809W        W29135  21.067   2.367   4.388
56810W        W29136  16.123  44.584   4.115
56811W        W29137  38.879  39.299   4.112
56812W        W29138  44.788  21.729   1.689
56813W        W29139  40.081  26.988  12.613
56814W        W29140  10.638  35.949   2.151
56815W        W29141  15.080  10.486   2.106
56816W        W29142  12.861   1.045  13.325
56817W        W29143  39.998   2.759  14.777
56818W        W29144  36.563  29.004  14.875
56819W        W29145  14.796  30.440  14.189
56820W        W29146  16.225   2.600   3.520
56821W        W29147  44.893  25.148   2.059
56822W        W29148  24.028  25.059  10.602
56823W        W29149  13.156   0.470   4.738
56824W        W29150  20.758  32.149   1.205
56825W        W29151  40.990  32.499   4.219
56826W        W29152  13.574  12.686   4.112
56827W        W29153  20.221  20.214  13.077
56828W        W29154  20.176  33.080  13.205
56829W        W29155  36.539   8.671  14.685
56830W        W29156  11.845   5.823  13.868
56831W        W29157  40.214   3.890  11.539
56832W        W29158   8.715   7.393  11.063
56833W        W29159  37.950  38.409  10.811
56834W        W29160   5.451  40.937   2.421
56835W        W29161   5.929  13.200  14.544
56836W        W29162  29.881  22.276   4.261
56837W        W29163   0.868  18.788  10.464
56838W        W29164  19.405   4.212  14.814
56839W        W29165  38.007   5.321  11.010
56840W        W29166  29.086   5.208  10.754
56841W        W29167  35.415  26.441   0.883
56842W        W29168   7.715  27.495   0.469
56843W        W29169  32.990  41.894   2.818
56844W        W29170  21.926  31.922   1.121
56845W        W29171  28.165  16.066   0.576
56846W        W29172  29.760  14.374  12.474
56847W        W29173  35.458  23.710  11.970
56848W        W29174  41.388  36.907   4.802
56849W        W29175  44.280  11.565  10.123
56850W        W29176  22.119  39.440  14.966
56851W        W29177   7.992  18.731  11.828
56852W        W29178  22.814  11.808  14.903
56853W        W29179   3.531  19.954   1.623
56854W        W29180   4.776   9.764  12.364
56855W        W29181  35.885  11.818   1.226
56856W        W29182  27.973  25.043  13.141
56857W        W29183  10.794  30.228  13.411
56858W        W29184  12.693  33.542   2.845
56859W        W29185   9.135   2.029  11.025
56860W        W29186   8.439  32.031  13.156
56861W        W29187  14.795   9.116   1.071
56862W        W29188  33.544  13.864  11.612
56863W        W29189  32.828  24.058   4.355
56864W        W29190  36.505  22.526  12.400
56865W        W29191  43.262   7.525  13.762
56866W        W29192  10.432  30.657  11.172
56867W        W29193  14.750  16.303   0.486
56868W        W29194  29.234  36.802   1.239
56869W        W29195  40.332   9.898   3.843
56870W        W29196  21.029  42.984  11.136
56871W        W29197  33.127  18.106  11.741
56872W        W29198  33.819  10.221  10.644
56873W        W29199   4.837  16.675   3.672
56874W        W29200   5.594  12.780   0.691
56875W        W29201  17.764  39.638   0.212
56876W        W29202  32.114  34.618   1.800
56877W        W29203   8.730  10.433  14.827
56878W        W29204  12.868  40.507  14.900
56879W        W29205  36.378  25.452  14.869
56880W        W29206  36.479   7.777  12.884
56881W        W29207  23.254   6.900   3.348
56882W        W29208  36.611  22.986  11.584
56883W        W29209  35.408  26.194   1.791
56884W        W29210   7.130  32.620  12.058
56885W        W29211  18.398  15.234   0.233
56886W        W29212  33.201  10.607  14.333
56887W        W29213  41.786  43.544   4.081
56888W        W29214  34.137   6.901   3.318
56889W        W29215  25.404  15.673  11.164
56890W        W29216  37.141  20.147   2.126
56891W        W29217  32.941  10.188  13.826
56892W        W29218  21.616  11.462   4.541
56893W        W29219  39.897  12.133   2.249
56894W        W29220   4.834  38.887   3.271
56895W        W29221  19.277  14.096   4.482
56896W        W29222   2.891  37.472  12.083
56897W        W29223  38.747   1.771   1.726
56898W        W29224   7.779  34.628  11.040
56899W        W29225  39.420  38.665   4.266
56900W        W29226  39.969  14.551   0.774
56901W        W29227  41.117   1.852   1.672
56902W        W29228   4.674  25.055  11.705
56903W        W29229  39.413   1.528  13.345
56904W        W29230  34.301  28.324  13.537
56905W        W29231  20.757  11.454  13.359
56906W        W29232   1.494   0.317  11.066
56907W        W29233  16.320  23.129   3.969
56908W        W29234  10.672   1.067   1.775
56909W        W29235  31.281  44.749  11.354
56910W        W29236  39.049  18.571  10.161
56911W        W29237  26.111  33.987  11.559
56912W        W29238  17.968  41.343  13.746
56913W        W29239  28.174  18.499   5.093
56914W        W29240  22.861  17.731  13.986
56915W        W29241  15.290  35.130  13.976
56916W        W29242  38.749   1.462  13.956
56917W        W29243  34.564  35.501  10.192
56918W        W29244  24.619  41.044   2.784
56919W        W29245  24.558  38.365  11.411
56920W        W29246  12.492  38.399   0.913
56921W        W29247   8.364  16.136  10.749
56922W        W29248  12.777  37.140  12.096
56923W        W29249  15.736  23.519  10.821
56924W        W29250  27.187  14.852   0.878
56925W        W29251   6.160  26.005   0.904
56926W        W29252  25.142  35.438   4.988
56927W        W29253  14.547  19.093  14.094
56928W        W29254   2.553   7.847   3.225
56929W        W29255   2.851  19.447   4.344
56930W        W29256  30.632  42.449   3.166
56931W        W29257  16.786  10.009  13.146
56932W        W29258  11.159  11.813  14.531
56933W        W29259  15.094  32.864   2.819
56934W        W29260  16.658   2.166   3.409
56935W        W29261  23.635  24.460   4.208
56936W        W29262  12.086  38.980  12.575
56937W        W29263   6.394  31.160  12.365
56938W        W29264  23.534  11.073  14.923
56939W        W29265  38.532  43.098   1.282
56940W        W29266  43.972  23.743   2.171
56941W        W29267   7.600  13.707  13.399
56942W        W29268  13.021  19.267  14.469
56943W        W29269  39.542  36.052   2.995
56944W        W29270  43.444  44.341  13.909
56945W        W29271  40.981  13.614   3.384
56946W        W29272   1.994   0.437   2.576
56947W        W29273   1.174   4.531   5.436
56948W        W29274  22.556  21.002  11.633
56949W        W29275  13.792  37.308   0.231
56950W        W29276  12.711   9.899  12.172
56951W        W29277  27.983  14.721   0.448
56952W        W29278   9.359  33.489   3.805
56953W        W29279  32.736  15.594  13.736
56954W        W29280  41.432  38.363   4.380
56955W        W29281   0.464   3.862   2.150
56956W        W29282  42.919  34.322  14.909
56957W        W29283  43.065  31.870  14.321
56958W        W29284  16.523  30.634   1.656
56959W        W29285   4.251  41.898  13.447
56960W        W29286  32.087  40.530   2.905
56961W        W29287  17.666  11.096  12.080
56962W        W29288  16.697   3.030  10.684
56963W        W29289  11.402  32.910   4.149
56964W        W29290   3.269  18.293   1.408
56965W        W29291   2.658   3.157  13.662
56966W        W29292  28.438  35.615   2.726
56967W        W29293  44.521   1.583  13.344
56968W        W29294  30.421  26.698   1.310
56969W        W29295  19.039  41.522  13.851
56970W        W29296   2.964  25.457  14.526
56971W        W29297  10.722  14.211  11.564
56972W        W29298   8.768  44.557  11.971
56973W        W29299  23.025  13.859   3.495
56974W        W29300   0.434  36.943   4.148
56975W        W29301  25.545  37.155   0.406
56976W        W29302  25.463  22.435   4.098
56977W        W29303  13.646  15.688   2.884
56978W        W29304  32.877   7.169   2.860
56979W        W29305  12.341  44.281   3.093
56980W        W29306  31.123  44.026   3.293
56981W        W29307   5.253   4.475  12.410
56982W        W29308  19.242  27.561   1.629
56983W        W29309  26.006  10.160  11.645
56984W        W29310  34.040   4.181   3.134
56985W        W29311  21.016  38.936   0.800
56986W        W29312  30.162  44.330   2.725
56987W        W29313   6.423  10.400   5.046
56988W        W29314  11.786  30.849  11.909
56989W        W29315  33.006  42.542   3.748
56990W        W29316  26.953   4.765   0.412
56991W        W29317  26.679  17.490  11.132
56992W        W29318  18.757  28.532   1.044
56993W        W29319  23.792  32.010   1.165
56994W        W29320  37.875  19.578  13.536
56995W        W29321  30.974   0.178  11.403
56996W        W29322  40.529   2.422   2.430
56997W        W29323  25.923  10.339   3.312
56998W        W29324  42.218  35.609   2.844
56999W        W29325  23.610   3.186  13.959
57000W        W29326  33.436   1.682   2.600
57001W        W29327  27.351  43.962   0.345
57002W        W29328  21.473  37.809   3.681
57003W        W29329  18.571  13.140   2.432
57004W        W29330  17.755   7.759  13.879
57005W        W29331  44.790  34.490  14.414
57006W        W29332  39.026  17.580   2.906
57007W        W29333  42.055  41.062  13.097
57008W        W29334  22.523  24.944  14.763
57009W        W29335   2.896   0.259   3.058
57010W        W29336   7.186  36.286  13.872
57011W        W29337  14.664  39.910  14.459
57012W        W29338   0.881  35.064   1.285
57013W        W29339  12.681  36.801  14.507
57014W        W29340  22.062  13.622  14.906
57015W        W29341  28.619   7.871  13.942
57016W        W29342   8.773   4.972  11.999
57017W        W29343  39.966  34.903  10.537
57018W        W29344  31.718  28.458  10.796
57019W        W29345  19.758  34.575  12.479
57020W        W29346  10.753   5.923   3.685
57021W        W29347   7.772  43.033  10.694
57022W        W29348  44.471  24.059  12.388
57023W        W29349  15.569  40.194  13.626
57024W        W29350  44.009  17.413  12.266
57025W        W29351   5.376  30.039  12.337
57026W        W29352  29.451   0.875   2.273
57027W        W29353  44.017  25.963  12.870
57028W        W29354  29.428   9.174  13.811
57029W        W29355  24.691   2.760   3.269
57030W        W29356  32.073  18.315   0.235
57031W        W29357  10.139  30.629   0.886
57032W        W29358   1.415  19.091   2.892
57033W        W29359  32.251  12.677  12.386
57034W        W29360   9.668  40.789  12.528
57035W        W29361  41.695  11.152   4.678
57036W        W29362  17.547  29.839  13.619
57037W        W29363  12.765  39.914  13.470
57038W        W29364  24.783  20.991   1.401
57039W        W29365  11.707   4.738   4.778
57040W        W29366   3.468  39.870   1.041
57041W        W29367  23.014  36.533  13.097
57042W        W29368   3.207  25.774  13.581
57043W        W29369   4.333  10.400  13.918
57044W        W29370  25.766  13.357   3.668
57045W        W29371  44.725  42.881   1.902
57046W        W29372  19.171  11.239   4.129
57047W        W29373   8.774  16.157   4.656
57048W        W29374  30.889  38.869   2.856
57049W        W29375  17.792  26.300   1.828
57050W        W29376  26.069   6.974  13.302
57051W        W29377  42.730  34.139   0.830
57052W        W29378  24.084  16.322  13.883
57053W        W29379  35.152  13.242   1.620
57054W        W29380  37.970  17.398   0.874
57055W        W29381  11.551   7.120  14.824
57056W        W29382  13.109   1.119  13.808
57057W        W29383  29.965  18.204   1.597
57058W        W29384   3.151   0.401  14.468
57059W        W29385  28.775   1.657   2.321
57060W        W29386  34.335  36.278   2.797
57061W        W29387  41.777  17.781   3.246
57062W        W29388  27.745  22.137  14.558
57063W        W29389  29.507  38.398  14.018
57064W        W29390  44.500  29.902   1.304
57065W        W29391  31.303   8.137  14.842
57066W        W29392  27.604  21.270  13.054
57067W        W29393   5.479  40.197  12.647
57068W        W29394  42.009  36.425  10.799
57069W        W29395  18.743   7.124  13.408
57070W        W29396   3.408  21.840   4.674
57071W        W29397  36.624  24.659   0.278
57072W        W29398  21.318  31.551  10.355
57073W        W29399  44.878   1.572   4.575
57074W        W29400  13.552  40.588   3.176
57075W        W29401  44.901   2.383   1.458
57076W        W29402  14.445  27.038  10.639
57077W        W29403  35.057  28.465   3.088
57078W        W29404   4.213  24.043   3.906
57079W        W29405  16.686  32.108   0.752
57080W        W29406   9.993  39.584  11.968
57081W        W29407  36.950  15.012  13.177
57082W        W29408  40.873  17.408   5.093
57083W        W29409   2.472  37.826   1.271
57084W        W29410  36.073  29.527  14.402
57085W        W29411  25.299   3.364   1.024
57086W        W29412  34.898  10.274   4.542
57087W        W29413  14.185  34.546  12.496
57088W        W29414  30.150  27.277   3.739
57089W        W29415  38.547  24.786  12.741
57090W        W29416  19.566  27.115  12.653
57091W        W29417  16.478   3.316  14.348
57092W        W29418  34.154  27.412  14.790
57093W        W29419  22.220  16.309   0.536
57094W        W29420  10.486  44.330   0.490
57095W        W29421  30.073  11.832  13.361
57096W        W29422  38.215  35.188  14.489
57097W        W29423  12.233   1.005   3.768
57098W        W29424  37.607  39.688  13.772
57099W        W29425   2.563  39.956   3.695
57100W        W29426  18.967  22.971  12.469
57101W        W29427  19.189   3.936  12.094
57102W        W29428  43.320  11.776   3.577
57103W        W29429  39.338   8.944   0.796
57104W        W29430   4.370  22.682   4.614
57105W        W29431  30.135  39.879   0.953
57106W        W29432  43.015  34.406  12.514
57107W        W29433  37.327  28.693   0.909
57108W        W29434  21.200   8.581  11.970
57109W        W29435   5.891  23.010   2.957
57110W        W29436  24.560  23.519  12.025
57111W        W29437   6.274  32.045  13.451
57112W        W29438  18.619  11.833  14.553
57113W        W29439  10.670  20.143  13.386
57114W        W29440   6.821   6.257   4.537
57115W        W29441  26.470   3.745   0.267
57116W        W29442   6.235  31.456  11.986
57117W        W29443  37.435  11.077  10.170
57118W        W29444   0.759  31.019   3.151
57119W        W29445  11.403  26.001  13.095
57120W        W29446  13.363  33.991   9.887
57121W        W29447  32.338  35.624  11.166
57122W        W29448  40.087  33.968   3.203
57123W        W29449   4.215  41.290  14.774
57124W        W29450  33.435  10.239  13.980
57125W        W29451   6.697   3.901  13.716
57126W        W29452  26.976  30.514   2.057
57127W        W29453  35.279   3.161   4.529
57128W        W29454  20.218  40.017  14.348
57129W        W29455  16.060  28.908  14.910
57130W        W29456  35.095  16.114   4.951
57131W        W29457  25.178  33.503   0.913
57132W        W29458  26.834  10.093   0.710
57133W        W29459  24.246  31.828  14.887
57134W        W29460  35.163   6.760   4.698
57135W        W29461  28.570  37.360  13.443
57136W        W29462  42.988  18.125  13.792
57137W        W29463   2.713  14.405  13.520
57138W        W29464  27.046  36.439   4.548
57139W        W29465  36.097  38.302   2.080
57140W        W29466  30.196  44.757   4.578
57141W        W29467  21.603  18.811  11.470
57142W        W29468  35.086   8.572   1.244
57143W        W29469  40.165  21.066   0.018
57144W        W29470  27.349  10.527   2.986
57145W        W29471   9.861  36.954   2.684
57146W        W29472  17.815  42.098   0.345
57147W        W29473  10.805   6.732   0.063
57148W        W29474  13.047  26.255  14.782
57149W        W29475  32.107  17.531   3.692
57150W        W29476   0.634  23.512   2.323
57151W        W29477  34.941  26.130  13.787
57152W        W29478  24.228  28.832   0.806
57153W        W29479  28.261  36.514  14.974
57154W        W29480  19.300   8.925   2.328
57155W        W29481  24.203  14.645  10.858
57156W        W29482  14.056  30.927   4.277
57157W        W29483  20.227  41.804  14.492
57158W        W29484   2.319  41.823  13.504
57159W        W29485  17.221  30.650   1.448
57160W        W29486   4.368  18.823   1.624
57161W        W29487  38.542  38.904   4.837
57162W        W29488  22.613  39.590  14.863
57163W        W29489  27.058  44.193  14.229
57164W        W29490  20.773   4.894  13.861
57165W        W29491   0.687  44.082  12.091
57166W        W29492   3.642  25.944  13.933
57167W        W29493  42.889  13.882   4.477
57168W        W29494  23.095  41.793  12.863
57169W        W29495   5.034   4.923  14.864
57170W        W29496  30.939  20.607   0.818
57171W        W29497   4.908  22.175  14.328
57172W        W29498  20.315  32.444  12.519
57173W        W29499  39.019  40.036   1.832
57174W        W29500  23.501  12.306  11.781
57175W        W29501  37.623   9.353  12.495
57176W        W29502  12.197  10.685  12.504
57177W        W29503  14.583  11.462   0.345
57178W        W29504   5.498  43.814   0.919
57179W        W29505  22.768   2.482   2.876
57180W        W29506  15.616   7.992   2.440
57181W        W29507  33.360  22.039  14.455
57182W        W29508  32.203  41.608   2.140
57183W        W29509   1.816  13.588  10.710
57184W        W29510  30.379  15.173   0.406
57185W        W29511  37.559  21.812  10.772
57186W        W29512  18.297  10.480   0.184
57187W        W29513  10.113  10.315   3.246
57188W        W29514  14.159   8.229   4.612
57189W        W29515  26.932  33.003   4.722
57190W        W29516  31.380   6.260   4.428
57191W        W29517  23.600  17.559  10.942
57192W        W29518  25.103   9.683  12.317
57193W        W29519   1.398  40.467  14.297
57194W        W29520  29.046   1.005  14.837
57195W        W29521   6.863  29.162   1.737
57196W        W29522  20.360  37.907   2.908
57197W        W29523  44.216   9.195   0.401
57198W        W29524  29.683   5.762   2.362
57199W        W29525  19.539   4.794   1.327
57200W        W29526  44.264  22.100  13.990
57201W        W29527  44.388   4.356  13.620
57202W        W29528  26.637  35.192   3.246
57203W        W29529  21.683  40.344  10.844
57204W        W29530  20.961  29.046   5.033
57205W        W29531   1.897  39.570   4.566
57206W        W29532  30.668  35.046  13.003
57207W        W29533  23.639  37.802  14.713
57208W        W29534  40.338  27.135  14.440
57209W        W29535  34.009  28.471   2.723
57210W        W29536   1.769  43.514  12.454
57211W        W29537  38.941  44.004   1.352
57212W        W29538  10.422  34.985   1.268
57213W        W29539  33.950  30.161   0.357
57214W        W29540  12.598  15.757   0.907
57215W        W29541   6.427  27.571   2.372
57216W        W29542  37.994   9.227   4.112
57217W        W29543  16.989  17.105  12.408
57218W        W29544  30.949  15.664  13.651
57219W        W29545  43.022  13.934  14.364
57220W        W29546  35.363  18.836   3.353
57221W        W29547  35.584  33.787  10.970
57222W        W29548  26.599  30.073   2.603
57223W        W29549  18.650   9.790   4.039
57224W        W29550  24.695  26.198   4.611
57225W        W29551   0.028  20.467   1.330
57226W        W29552  17.921  41.744  11.247
57227W        W29553   7.368  26.822  12.134
57228W        W29554  37.465  20.258  13.366
57229W        W29555  11.686  18.804  14.760
57230W        W29556  19.239  33.860   2.194
57231W        W29557  21.002  39.563   2.265
57232W        W29558   4.325   2.041   2.826
57233W        W29559   6.888  27.943   3.695
57234W        W29560  32.640  33.809  14.739
57235W        W29561  11.087  38.208   0.003
57236W        W29562   4.516  21.224   4.304
57237W        W29563  27.711  25.979   3.721
57238W        W29564  17.840   6.661  13.413
57239W        W29565  13.113  36.555   3.562
57240W        W29566  28.789  29.630   2.795
57241W        W29567  15.009  13.811  11.109
57242W        W29568  43.093   1.955   4.585
57243W        W29569  27.692  28.422  10.652
57244W        W29570  11.860   0.380   3.227
57245W        W29571  41.371  43.252   4.129
57246W        W29572  10.951  25.299  10.316
57247W        W29573  44.909  41.470  10.722
57248W        W29574  19.289  43.925  13.966
57249W        W29575  35.584  34.061   3.313
57250W        W29576  12.877  28.908   1.916
57251W        W29577  33.313   7.305  13.261
57252W        W29578  30.899  27.105  12.201
57253W        W29579  43.436  19.297  10.655
57254W        W29580  43.607  17.616   1.690
57255W        W29581   6.431  16.160   4.741
57256W        W29582  16.150  20.730  14.759
57257W        W29583  19.815  26.747  13.354
57258W        W29584  31.958  13.270  11.931
57259W        W29585  36.704   6.442  13.298
57260W        W29586  33.632  28.884  12.901
57261W        W29587  33.020  22.052   1.289
57262W        W29588   6.429  37.585   9.815
57263W        W29589  14.664  39.322   3.762
57264W        W29590  24.611   1.797  10.742
57265W        W29591  20.052   9.701  10.437
57266W        W29592  44.282   8.647  10.786
57267W        W29593   2.955  13.570   2.727
57268W        W29594   9.859  37.451   2.438
57269W        W29595  10.050   7.179  11.311
57270W        W29596   1.704   4.506  14.254
57271W        W29597  28.077  33.724  14.380
57272W        W29598  24.933  13.540  14.954
57273W        W29599  34.787   6.759   4.348
57274W        W29600  38.065  34.274  12.989
57275W        W29601   4.964  23.726   0.708
57276W        W29602  36.362   9.192   4.729
57277W        W29603  14.407  30.630  13.174
57278W        W29604  20.027  18.596   0.727
57279W        W29605  10.555   5.149  12.758
57280W        W29606  35.092   9.882  12.461
57281W        W29607   1.214  37.730  13.771
57282W        W29608  26.793  35.500  13.501
57283W        W29609  42.268  44.814   4.290
57284W        W29610  38.538   0.466  12.780
57285W        W29611   0.949   8.714   0.805
57286W        W29612  41.580   2.399  12.163
57287W        W29613   7.722   5.132   4.154
57288W        W29614   0.459  31.346   2.435
57289W        W29615  43.734  36.289   0.665
57290W        W29616  41.264  30.101   3.091
57291W        W29617  25.600  14.290   1.719
57292W        W29618   6.299  38.773  14.931
57293W        W29619  24.278  35.015   0.821
57294W        W29620   1.492  10.750  10.068
57295W        W29621   6.321  41.536  12.819
57296W        W29622  16.593  11.381  11.515
57297W        W29623  31.615  41.397  10.366
57298W        W29624  38.537  24.477  12.339
57299W        W29625   5.203  26.462  10.964
57300W        W29626  11.101  32.002  11.473
57301W        W29627  20.120  36.980   1.219
57302W        W29628  28.208  20.283  13.800
57303W        W29629  42.564   4.341   1.487
57304W        W29630  29.683  23.187  13.446
57305W        W29631   2.845  41.039   1.213
57306W        W29632   7.696   3.330  14.942
57307W        W29633  18.650  31.951  14.288
57308W        W29634  31.046  44.943  10.526
57309W        W29635  32.870  34.882   2.437
57310W        W29636  36.368  40.002   9.963
57311W        W29637  39.571  17.227   1.696
57312W        W29638   0.928  24.245   4.940
57313W        W29639  40.996  41.585  11.686
57314W        W29640   4.296  41.492  12.889
57315W        W29641   1.703   6.493   0.070
57316W        W29642  12.384  25.940  13.505
57317W        W29643  33.174  23.593   3.632
57318W        W29644   8.612  22.264   2.320
57319W        W29645  42.115  21.799  11.002
57320W        W29646  36.103  32.047   2.344
57321W        W29647   4.821  25.958   1.183
57322W        W29648  12.840   6.539   0.442
57323W        W29649  19.517  14.188  12.934
57324W        W29650  26.183  42.867  13.582
57325W        W29651  25.232  36.519  13.913
57326W        W29652   8.338  15.235   3.806
57327W        W29653  39.615  30.001  12.990
57328W        W29654  35.418  40.956   3.684
57329W        W29655  38.562  24.239   1.263
57330W        W29656   3.697  25.202   2.991
57331W        W29657   7.000  26.465   4.860
57332W        W29658  21.842  24.540   1.870
57333W        W29659  37.911  42.756  10.531
57334W        W29660  13.238  44.400   2.796
57335W        W29661  21.921   4.362  12.961
57336W        W29662  29.127  37.991   3.735
57337W        W29663  17.697   4.885   1.160
57338W        W29664   3.748   8.675   1.725
57339W        W29665  16.656  34.348  10.997
57340W        W29666  43.273  42.510   1.346
57341W        W29667  29.373  44.818  13.533
57342W        W29668  19.815  38.447  13.121
57343W        W29669  43.240  43.640   1.218
57344W        W29670  13.576  26.189   5.145
57345W        W29671  22.723  25.943  13.327
57346W        W29672  28.609  17.213  12.017
57347W        W29673  21.612  16.060   1.249
57348W        W29674  23.070   8.826   0.191
57349W        W29675  36.041  22.256  10.621
57350W        W29676  22.250  42.296   2.179
57351W        W29677  42.630  10.715  12.013
57352W        W29678   0.952  38.689   1.684
57353W        W29679  17.187   1.207  12.903
57354W        W29680  17.259  29.630   1.324
57355W        W29681  30.368  26.018  14.450
57356W        W29682   6.472  35.526  11.723
57357W        W29683  35.412  14.528   4.797
57358W        W29684   2.865  37.459  12.624
57359W        W29685   8.457  44.430  11.049
57360W        W29686  30.145  40.794  13.065
57361W        W29687  19.560   1.286   1.181
57362W        W29688   9.276   5.773  11.079
57363W        W29689  27.588   7.779  14.050
57364W        W29690  21.084  43.573  12.849
57365W        W29691   4.858  34.655  13.862
57366W        W29692  30.185  20.143   0.788
57367W        W29693  36.555  42.592   4.329
57368W        W29694   0.942   6.607   4.173
57369W        W29695   0.793   9.383   2.685
57370W        W29696  35.869  25.550  11.193
57371W        W29697   5.949   7.723   1.312
57372W        W29698  39.730   3.206   3.113
57373W        W29699   1.666   9.640   3.200
57374W        W29700  15.456   3.235   2.735
57375W        W29701   3.839  38.384   1.499
57376W        W29702   6.222  21.306   3.830
57377W        W29703  27.412  37.425   4.661
57378W        W29704  29.734  23.693   2.762
57379W        W29705   4.854   5.358   0.203
57380W        W29706   6.146  12.202   4.937
57381W        W29707   7.693  17.310  10.503
57382W        W29708   2.640  41.861   0.387
57383W        W29709  24.716  33.214   0.875
57384W        W29710   4.805   3.769  10.989
57385W        W29711   3.411  33.670  14.690
57386W        W29712  10.241  40.197   4.593
57387W        W29713   6.121  25.002   3.851
57388W        W29714  28.626   3.870  10.471
57389W        W29715  43.933  20.252   4.507
57390W        W29716  24.639  15.406   3.853
57391W        W29717   3.896  24.803   2.744
57392W        W29718  25.166  24.998  13.483
57393W        W29719  15.545  28.016   4.557
57394W        W29720  36.882   9.376  10.894
57395W        W29721  35.491  10.360  14.053
57396W        W29722  39.861  21.740   3.914
57397W        W29723  24.445  15.465  13.920
57398W        W29724  33.318  19.362  14.481
57399W        W29725  34.955   0.279   1.258
57400W        W29726  13.787  15.962  11.081
57401W        W29727  24.314   2.126   2.848
57402W        W29728  35.694  29.467  12.592
57403W        W29729  35.579  25.672  11.582
57404W        W29730  33.284  23.092   1.273
57405W        W29731   1.288  18.352  13.063
57406W        W29732  38.454  39.891  11.638
57407W        W29733  14.682  23.944   2.796
57408W        W29734  37.816  41.297  12.464
57409W        W29735  42.594  19.147  13.950
57410W        W29736  40.523  39.374  14.941
57411W        W29737  41.784   0.948   1.915
57412W        W29738   5.687   9.533   0.810
57413W        W29739  34.375  39.555  14.952
57414W        W29740   0.375  18.285   3.930
57415W        W29741  38.160  44.958   1.014
57416W        W29742  20.167  22.519  12.851
57417W        W29743  42.550  38.917   1.994
57418W        W29744  31.500  33.837  11.605
57419W        W29745  29.591  23.047  10.666
57420W        W29746  37.937  12.918   4.123
57421W        W29747   0.346  29.369   0.298
57422W        W29748  15.689  16.553  10.241
57423W        W29749  12.316  21.024   1.695
57424W        W29750  33.605  18.239   4.617
57425W        W29751  29.264  24.146  14.281
57426W        W29752   6.617  17.587  14.987
57427W        W29753   0.506   5.929   3.604
57428W        W29754   9.801  41.803  11.441
57429W        W29755  23.482  18.748   2.351
57430W        W29756  43.479   7.895  13.414
57431W        W29757   3.234   0.800   0.807
57432W        W29758  36.056  15.102   2.787
57433W        W29759  27.764  26.963   1.906
57434W        W29760   7.141  35.603  10.590
57435W        W29761  22.516  44.754  10.738
57436W        W29762  25.067  35.609  11.638
57437W        W29763   8.442  36.415  13.512
57438W        W29764  40.831  12.948  13.146
57439W        W29765  16.995  11.644   2.618
57440W        W29766  35.662   5.037   1.773
57441W        W29767  25.216  33.173  13.403
57442W        W29768   8.753   4.257   0.440
57443W        W29769  19.046   4.023  14.464
57444W        W29770   8.282   2.950   4.307
57445W        W29771  31.674   9.845  10.900
57446W        W29772  14.130  26.110  10.182
57447W        W29773  22.202  40.781   0.446
57448W        W29774   6.626  19.303   1.665
57449W        W29775   7.903  11.909   0.698
57450W        W29776  43.933  11.842  10.710
57451W        W29777  20.541  11.768   1.302
57452W        W29778  15.750  20.912   4.553
57453W        W29779  36.083  38.352   1.088
57454W        W29780  21.027  25.422  11.882
57455W        W29781  18.179   5.528  14.913
57456W        W29782  30.227  33.086  14.722
57457W        W29783  30.070  37.470   3.446
57458W        W29784  14.295  21.756   3.098
57459W        W29785   0.434   2.673   1.790
57460W        W29786  22.994  19.241  12.364
57461W        W29787  18.973  23.539  11.237
57462W        W29788  37.793  35.556  12.018
57463W        W29789   0.994  22.586   5.197
57464W        W29790  22.640  16.967   5.036
57465W        W29791  38.905  33.061   4.992
57466W        W29792  18.483   7.020   2.161
57467W        W29793   3.502  20.287   1.197
57468W        W29794   7.950  25.533  10.846
57469W        W29795  43.723  24.233  13.059
57470W        W29796  22.691  42.067   0.754
57471W        W29797  23.588  27.749   1.225
57472W        W29798   6.956  29.369  13.403
57473W        W29799  43.064  23.472  11.888
57474W        W29800  39.812   6.623   4.130
57475W        W29801   9.104  10.347   0.225
57476W        W29802   9.250  38.090   4.272
57477W        W29803  24.618  10.459  11.963
57478W        W29804  16.442  16.256  10.768
57479W        W29805  26.433   7.239  10.694
57480W        W29806  27.410   3.026   4.184
57481W        W29807  25.975  16.675  10.904
57482W        W29808  21.310  27.630  11.451
57483W        W29809   9.726  25.697   0.292
57484W        W29810   3.947  19.765  11.242
57485W        W29811  19.762  11.343  12.442
57486W        W29812  38.248   0.896  11.211
57487W        W29813  30.350  23.237   2.066
57488W        W29814  29.504  34.036   0.873
57489W        W29815  24.152  32.605  14.297
57490W        W29816  41.811  13.674   3.012
57491W        W29817  28.905  15.498  14.334
57492W        W29818  22.753  32.589  12.876
57493W        W29819  28.680  19.323  11.262
57494W        W29820  20.674  39.353  14.049
57495W        W29821  37.049  10.335  13.305
57496W        W29822  27.609  21.778   0.393
57497W        W29823  11.289  13.562   1.248
57498W        W29824  37.631  32.047   1.123
57499W        W29825  39.116  21.803   1.893
57500W        W29826  34.396  11.873  12.201
57501W        W29827  23.315  12.429  12.937
57502W        W29828   4.284  39.480   3.874
57503W        W29829  25.424  20.493   0.057
57504W        W29830  26.203  15.196   0.384
57505W        W29831  15.809  43.131  12.824
57506W        W29832  13.998  24.602  13.759
57507W        W29833  11.813  40.801   0.898
57508W        W29834  42.929  35.536  10.745
57509W        W29835   0.349  10.512   2.026
57510W        W29836  24.199  38.561   0.736
57511W        W29837  18.029   9.930  12.539
57512W        W29838  11.618  29.572  12.206
57513W        W29839  12.340   9.875   3.993
57514W        W29840  15.097  19.509   3.867
57515W        W29841   4.920  26.286   2.505
57516W        W29842  21.673   5.189   3.610
57517W        W29843   4.512   6.907   2.815
57518W        W29844  35.596   3.271  14.224
57519W        W29845   4.298   2.172  12.960
57520W        W29846  42.210  32.490  12.881
57521W        W29847   8.727   4.451  12.033
57522W        W29848  43.478  30.646  13.845
57523W        W29849  18.816  29.195   2.199
57524W        W29850  18.527  43.508  13.927
57525W        W29851  34.512  20.558   3.292
57526W        W29852  20.273  27.333  14.407
57527W        W29853   7.346  10.126   3.806
57528W        W29854   4.344   8.639   0.017
57529W        W29855   9.949   2.579   3.122
57530W        W29856  41.721  27.487   4.136
57531W        W29857  17.220  17.483  14.382
57532W        W29858  30.847   9.887   1.027
57533W        W29859  44.951  37.821  12.986
57534W        W29860  34.057  29.255   1.516
57535W        W29861  42.278  15.525  14.258
57536W        W29862   4.870  39.560   0.739
57537W        W29863  25.737  20.256   3.699
57538W        W29864  22.136   7.875  11.541
57539W        W29865  21.575  31.248   4.561
57540W        W29866  42.010  33.888  14.822
57541W        W29867  39.246  39.365  12.849
57542W        W29868  11.658  23.771  12.873
57543W        W29869  32.201  36.887  13.551
57544W        W29870  28.035  23.735  12.264
57545W        W29871  43.958  12.196   4.039
57546W        W29872  21.412   8.887   0.433
57547W        W29873  36.388   9.764  13.501
57548W        W29874  24.671   4.649  10.384
57549W        W29875  16.387   6.916  12.222
57550W        W29876  24.960  31.349   3.848
57551W        W29877   9.434  27.412   1.334
57552W        W29878  29.468   2.446   3.147
57553W        W29879  40.407  14.108  11.123
57554W        W29880  17.415  27.193   3.664
57555W        W29881  33.900  12.465   0.770
57556W        W29882  24.141  37.960  14.022
57557W        W29883   2.092   7.167   2.605
57558W        W29884  38.245  33.223   1.172
57559W        W29885   0.001  22.936   2.776
57560W        W29886   8.251  10.320   4.093
57561W        W29887  10.699  38.157   1.364
57562W        W29888  17.201   2.860  10.507
57563W        W29889  19.201   2.210   4.370
57564W        W29890  28.018   2.799   0.942
57565W        W29891  31.945  44.912   0.336
57566W        W29892  33.787   8.361   2.711
57567W        W29893  33.946  16.771  11.393
57568W        W29894   0.431  23.226   2.800
57569W        W29895  36.293  43.233  11.948
57570W        W29896  26.036  15.194   5.077
57571W        W29897  43.394  29.983  14.500
57572W        W29898  24.725   3.273  12.305
57573W        W29899   4.947   7.284   0.876
57574W        W29900  33.620  25.420  11.525
57575W        W29901  21.274  30.102   3.124
57576W        W29902  21.461  44.324  12.347
57577W        W29903   6.776  12.410   4.322
57578W        W29904   2.668   8.653   0.262
57579W        W29905  34.494  11.800   2.430
57580W        W29906   5.116   5.443  12.705
57581W        W29907  13.912  42.880   3.935
57582W        W29908  37.916  25.809  14.795
57583W        W29909  26.039  41.050  10.671
57584W        W29910  43.872  36.740  10.936
57585W        W29911  20.345  26.081   1.730
57586W        W29912  40.511  16.787   3.853
57587W        W29913  21.762  23.746  11.521
57588W        W29914  13.905  26.259  14.508
57589W        W29915  36.072   1.448   3.642
57590W        W29916  31.572   3.907  13.083
57591W        W29917   7.380  23.530  13.281
57592W        W29918  22.096  24.160  14.717
57593W        W29919   6.360  42.558  12.860
57594W        W29920  33.115  13.102   0.301
57595W        W29921  41.731  25.162  10.832
57596W        W29922  28.448  11.691  11.707
57597W        W29923   8.126   8.239  11.935
57598W        W29924   6.641  37.144  13.950
57599W        W29925  29.125   3.927   0.907
57600W        W29926  22.405  19.069   2.829
57601W        W29927   2.754  32.640  13.916
57602W        W29928  35.900  33.970   2.720
57603W        W29929  14.846   7.967  12.017
57604W        W29930   0.194  19.591   4.426
57605W        W29931  12.859  21.636  10.523
57606W        W29932  37.338  38.983  10.003
57607W        W29933   8.750  34.786   1.325
57608W        W29934  32.494   1.381  11.668
57609W        W29935   9.235  18.107  11.629
57610W        W29936   1.268  19.522   2.074
57611W        W29937  16.871  25.354  10.677
57612W        W29938  11.207   9.431  11.010
57613W        W29939  12.632  33.032  10.067
57614W        W29940  13.900   2.712  11.109
57615W        W29941  25.573  41.481   1.675
57616W        W29942  26.140   5.649  13.229
57617W        W29943  31.020  15.114   3.750
57618W        W29944  33.779   0.947  11.678
57619W        W29945  17.263  38.117   1.635
57620W        W29946  19.233   3.832  11.167
57621W        W29947   5.264   8.614   3.164
57622W        W29948   2.717  26.063  14.650
57623W        W29949  40.016  26.580  12.916
57624W        W29950  41.839   0.964  12.074
57625W        W29951  16.888   9.422   1.666
57626W        W29952   9.929   7.158   2.774
57627W        W29953  42.389  37.200  13.934
57628W        W29954  15.330  19.018  13.443
57629W        W29955  25.167   5.891   1.931
57630W        W29956   9.622   7.486  11.085
57631W        W29957  37.918  34.768  14.419
57632W        W29958  25.539  18.125  10.566
57633W        W29959  30.151  37.175  12.645
57634W        W29960  25.734  17.686   3.578
57635W        W29961   1.949  11.248  13.079
57636W        W29962   3.747   1.467   0.391
57637W        W29963  20.126  39.431   4.401
57638W        W29964  39.636  32.603   2.106
57639W        W29965   1.058  19.617   0.391
57640W        W29966  29.054  39.393  11.573
57641W        W29967  25.513  34.313   3.237
57642W        W29968  11.940   6.312   2.747
57643W        W29969  41.298  11.075   4.044
57644W        W29970  38.959   0.248   3.005
57645W        W29971   3.027  37.891  12.402
57646W        W29972  22.638  37.016  13.487
57647W        W29973  22.196  14.277  12.151
57648W        W29974  28.731  43.930   0.519
57649W        W29975  30.485  10.703  13.858
57650W        W29976  31.399  24.076  12.031
57651W        W29977  12.906  13.619  13.133
57652W        W29978   3.208   2.237   4.846
57653W        W29979   3.362  25.908   4.200
57654W        W29980  30.320  10.290  14.522
57655W        W29981  11.741  42.844  13.045
57656W        W29982  42.405  35.234  14.310
57657W        W29983   4.837   9.878   4.831
57658W        W29984  41.865  33.477   0.781
57659W        W29985  19.216  19.938   3.697
57660W        W29986   7.797  40.153   2.224
57661W        W29987   6.196  40.629   5.592
57662W        W29988  43.127  13.627  11.948
57663W        W29989  36.233  33.020   3.691
57664W        W29990  21.324   4.642  12.429
57665W        W29991  33.158  27.670  10.562
57666W        W29992  43.368   7.341  12.024
57667W        W29993   5.530  38.893  14.004
57668W        W29994  16.035   8.702  11.141
57669W        W29995  10.835  25.924   0.371
57670W        W29996  39.620  29.395   2.843
57671W        W29997  42.949   9.740  11.963
57672W        W29998  40.470  21.237  11.617
57673W        W29999  23.695  42.486  14.360
57674W        W30000  27.525  38.290  14.963
57675W        W30001  30.923   7.830   5.023
57676W        W30002   0.131  43.295   4.679
57677W        W30003  28.068  23.678  14.584
57678W        W30004   7.668  28.649  14.821
57679W        W30005  31.661  30.165   1.264
57680W        W30006  21.272  40.058  10.960
57681W        W30007  11.652   4.002   3.626
57682W        W30008  31.566  22.286   0.049
57683W        W30009   8.052  11.662   1.783
57684W        W30010  40.509   9.668   3.364
57685W        W30011  13.170   0.954  10.272
57686W        W30012  11.827  29.755  10.894
57687W        W30013  35.948   0.959   2.719
57688W        W30014  14.261  29.129  10.683
57689W        W30015  40.478  24.204   4.254
57690W        W30016   3.001  13.606   0.844
57691W        W30017  23.622   4.544  14.547
57692W        W30018  34.366  33.508   4.012
57693W        W30019  23.471  27.312  14.323
57694W        W30020   1.239  12.118  10.617
57695W        W30021   4.253  12.327   9.718
57696W        W30022  12.340  19.411   4.251
57697W        W30023  43.331  36.014  12.921
57698W        W30024  34.561   6.296  12.407
57699W        W30025   2.429   0.809  12.369
57700W        W30026   7.372  18.976  14.787
57701W        W30027   4.230  32.676  12.176
57702W        W30028  34.898  20.971   2.058
57703W        W30029  39.818  20.555   1.648
57704W        W30030  41.625  39.015   2.285
57705W        W30031   4.186  27.079   4.334
57706W        W30032  28.105  37.147  12.015
57707W        W30033  20.324  44.332   3.226
57708W        W30034  20.550  22.941   0.045
57709W        W30035  37.560   9.817   9.779
57710W        W30036   2.585   7.702   2.369
57711W        W30037  33.797  39.784   4.746
57712W        W30038  21.007   7.801  12.493
57713W        W30039  20.722  21.327  13.930
57714W        W30040  34.512  34.824  14.278
57715W        W30041  38.326  19.215   2.267
57716W        W30042  36.588  44.624  10.152
57717W        W30043  16.783  19.344   3.168
57718W        W30044  31.560   8.415   1.372
57719W        W30045  19.715  33.079   0.320
57720W        W30046  30.182  22.995  11.809
57721W        W30047  27.229   8.292   2.605
57722W        W30048  11.529  21.364   4.803
57723W        W30049   8.504   0.241  13.432
57724W        W30050  32.519  39.281   2.866
57725W        W30051  29.601  17.789   4.990
57726W        W30052  12.176  19.698   5.151
57727W        W30053  41.009  40.996   3.873
57728W        W30054   8.151   4.302  11.313
57729W        W30055   9.795  33.281   4.888
57730W        W30056  14.072  42.386   3.394
57731W        W30057  38.511  17.576  11.973
57732W        W30058   7.928  16.541   1.839
57733W        W30059  11.800   6.618  11.186
57734W        W30060  34.554   5.910   2.760
57735W        W30061  20.953   1.020  13.095
57736W        W30062  34.691  44.413  11.906
57737W        W30063   8.835  35.294  11.959
57738W        W30064  34.658  44.257  14.472
57739W        W30065  13.837  10.590  10.710
57740W        W30066   1.778  21.956  10.118
57741W        W30067  21.762  33.196  11.838
57742W        W30068   3.229   1.689   4.185
57743W        W30069   4.804  37.026  12.435
57744W        W30070  41.747   5.275   1.655
57745W        W30071   5.729   8.687  12.904
57746W        W30072  28.496  25.313   3.749
57747W        W30073  26.519  31.944  13.142
57748W        W30074  41.042  30.069  11.392
57749W        W30075  10.752  39.926  11.377
57750W        W30076  28.682  33.509   0.758
57751W        W30077  22.589   6.774   2.640
57752W        W30078  15.529  14.332  14.817
57753W        W30079  29.008  36.529  13.185
57754W        W30080  38.234  16.818  13.482
57755W        W30081  37.427  17.822  10.718
57756W        W30082  22.256  36.662  11.630
57757W        W30083  33.521  38.923   1.424
57758W        W30084   8.871  30.799   1.336
57759W        W30085   4.349  23.739   0.962
57760W        W30086  31.498  25.434   0.491
57761W        W30087  36.318  27.173   1.283
57762W        W30088  18.057  24.679  14.144
57763W        W30089   5.533   4.714   2.326
57764W        W30090  18.481   8.209   4.444
57765W        W30091   1.199  35.154  14.398
57766W        W30092   7.691  34.949   0.125
57767W        W30093  36.937  33.096   2.034
57768W        W30094  44.453  12.609   1.983
57769W        W30095  20.617  10.505  13.717
57770W        W30096  27.943  27.946   4.596
57771W        W30097   8.788  15.559   0.356
57772W        W30098  31.598   0.040  13.869
57773W        W30099  26.114   5.274  13.606
57774W        W30100  19.132  14.039  14.848
57775W        W30101  25.569  41.385  12.930
57776W        W30102  26.656  39.118   1.228
57777W        W30103  14.364  12.451   3.245
57778W        W30104  36.986  21.660  13.215
57779W        W30105  42.903   8.804   0.352
57780W        W30106  16.790  23.723  12.742
57781W        W30107  37.623  34.505   2.738
57782W        W30108  13.048  36.427  14.231
57783W        W30109  37.398   0.467  14.212
57784W        W30110  28.680  24.663  11.512
57785W        W30111  25.206  31.737   1.444
57786W        W30112   8.909  17.326   1.371
57787W        W30113  20.102  43.726  11.501
57788W        W30114  29.445  18.965  13.380
57789W        W30115  38.888   8.934  12.344
57790W        W30116  28.378  10.201   4.703
57791W        W30117   4.362  40.585  12.533
57792W        W30118  44.956  35.042   4.541
57793W        W30119  12.657  27.652   4.651
57794W        W30120   2.612   3.842   2.613
57795W        W30121  28.798  25.432   5.138
57796W        W30122  39.148   0.013   1.265
57797W        W30123  34.988   0.394  10.613
57798W        W30124  18.159  11.799   0.770
57799W        W30125  12.631  27.555  14.194
57800W        W30126  12.431   6.439  12.006
57801W        W30127  19.262   8.141  13.884
57802W        W30128  44.873   7.937  10.465
57803W        W30129   1.897  16.172   2.874
57804W        W30130  22.042  41.003   2.533
57805W        W30131  18.784  23.739   4.624
57806W        W30132  39.502  39.368   4.722
57807W        W30133  21.506   0.463   0.836
57808W        W30134  20.684  34.590   1.182
57809W        W30135   0.938  44.401   4.612
57810W        W30136   2.375   3.402  11.022
57811W        W30137  15.596   9.784  10.641
57812W        W30138   4.362  27.379  12.007
57813W        W30139   2.662  28.912  14.356
57814W        W30140   9.313  31.411   3.189
57815W        W30141   4.815   3.949   1.763
57816W        W30142  17.975  11.909  11.041
57817W        W30143  18.175  12.251  10.409
57818W        W30144  25.996  12.692  12.492
57819W        W30145   6.045  13.300   1.481
57820W        W30146  24.745  33.100  10.955
57821W        W30147  35.925   4.939  12.443
57822W        W30148   6.536  40.839  12.531
57823W        W30149  41.384  23.438   2.719
57824W        W30150  28.362   2.528   1.246
57825W        W30151  29.582  36.785  11.195
57826W        W30152  41.085   6.689   2.355
57827W        W30153  36.314  32.087   1.287
57828W        W30154   7.689  36.829   4.119
57829W        W30155   6.405  10.670  10.760
57830W        W30156   2.405  16.576  13.837
57831W        W30157  38.587  43.013  12.297
57832W        W30158   7.711  27.475  13.070
57833W        W30159  21.834  44.414  14.322
57834W        W30160  40.989  14.111   3.480
57835W        W30161  14.191  21.518   0.753
57836W        W30162  32.839  15.890   1.295
57837W        W30163  23.644   1.822  12.360
57838W        W30164  37.545  38.903  14.255
57839W        W30165  41.586  35.947  14.937
57840W        W30166  30.396  12.814   2.850
57841W        W30167   6.444  42.814   0.904
57842W        W30168  21.060  24.112   4.483
57843W        W30169  39.100  40.464  13.412
57844W        W30170  44.961  34.365  13.294
57845W        W30171  38.341  40.074  12.511
57846W        W30172   4.134   0.630  13.910
57847W        W30173  21.560  39.105  12.472
57848W        W30174  29.136   2.221   1.717
57849W        W30175  29.234  23.040  12.491
57850W        W30176  16.037  40.843  14.934
57851W        W30177   9.836  22.509   0.479
57852W        W30178  22.215   9.823  13.602
57853W        W30179   1.717  23.444  14.812
57854W        W30180  31.578  33.074   0.369
57855W        W30181  12.741  25.770  10.379
57856W        W30182  20.147  12.156  14.520
57857W        W30183  34.092  13.543  11.510
57858W        W30184  19.210  19.724   1.829
57859W        W30185  20.851  10.393  11.922
57860W        W30186  14.595  24.136   4.092
57861W        W30187  15.235   0.235   2.237
57862W        W30188  39.917  35.504   0.062
57863W        W30189  31.534  23.392   4.503
57864W        W30190  26.682  18.703  14.439
57865W        W30191  19.219  38.398   3.795
57866W        W30192  10.271  34.529   4.559
57867W        W30193  24.689  19.611   4.527
57868W        W30194  25.675  28.484   3.346
57869W        W30195  10.551   7.145  14.838
57870W        W30196  37.986   7.263  13.516
57871W        W30197   8.298  40.829   3.056
57872W        W30198  29.406  28.237  13.515
57873W        W30199  20.528  29.048  12.126
57874W        W30200  21.939  31.640   4.074
57875W        W30201  37.026  24.047   3.635
57876W        W30202  17.484  44.729  11.900
57877W        W30203  10.902  21.729   0.193
57878W        W30204  40.940  41.418   2.786
57879W        W30205  13.613  41.769  11.564
57880W        W30206   0.303   9.167  11.562
57881W        W30207  20.180  13.582  10.464
57882W        W30208  42.355  18.958  11.615
57883W        W30209   9.476  22.215  11.866
57884W        W30210   3.593  21.369   3.288
57885W        W30211  32.196  27.126   0.378
57886W        W30212  12.701  10.891  13.064
57887W        W30213  38.980  22.118   0.477
57888W        W30214  41.598  43.976  10.704
57889W        W30215  16.160  16.382  12.384
57890W        W30216  17.729  23.316  14.861
57891W        W30217  28.873   8.771  14.932
57892W        W30218   2.722  44.361  14.713
57893W        W30219  29.080  36.836   2.746
57894W        W30220   7.294  39.521  14.445
57895W        W30221  32.231  28.481  11.679
57896W        W30222  15.580   0.347  11.037
57897W        W30223  34.915  12.710  10.096
57898W        W30224  36.599  13.128   2.204
57899W        W30225   0.459  34.193  12.878
57900W        W30226  14.422  40.568  13.345
57901W        W30227  29.263  37.542  14.477
57902W        W30228  19.586  33.492  10.601
57903W        W30229  24.064  40.867   0.019
57904W        W30230  19.095  24.667  14.583
57905W        W30231  39.811   6.789   3.225
57906W        W30232  29.327  27.438  10.789
57907W        W30233  37.514   8.596  13.308
57908W        W30234  39.042  43.416  10.615
57909W        W30235   7.626   9.789   1.809
57910W        W30236  36.021  29.913  13.432
57911W        W30237  20.489  30.421   3.158
57912W        W30238  38.591  39.900  14.769
57913W        W30239  13.802  20.265  14.489
57914W        W30240   6.677   0.981  12.847
57915W        W30241  23.271  36.397   3.959
57916W        W30242  22.502  14.215  11.158
57917W        W30243  30.631  29.199   4.537
57918W        W30244  15.287  26.133  11.620
57919W        W30245   1.186  29.801  13.920
57920W        W30246  14.817   7.820  11.191
57921W        W30247  33.928   0.955  12.568
57922W        W30248   6.360   5.976  13.913
57923W        W30249  29.477  42.820   1.637
57924W        W30250   0.642  16.915   2.423
57925W        W30251  21.617  15.510   1.332
57926W        W30252  15.228   2.170  11.181
57927W        W30253  10.787  13.252   0.037
57928W        W30254   1.338   3.677  12.652
57929W        W30255  15.847   0.505  13.309
57930W        W30256   6.395  18.520   4.391
57931W        W30257  41.477  30.715  14.597
57932W        W30258   4.277   3.572   2.770
57933W        W30259  38.483  32.286  14.938
57934W        W30260  12.359   4.671  13.485
57935W        W30261  22.118  41.375   1.224
57936W        W30262  12.837  38.091  13.957
57937W        W30263  22.202  39.948  14.907
57938W        W30264   2.262  14.667  10.434
57939W        W30265  10.213  34.312  11.441
57940W        W30266   8.832  27.305  14.220
57941W        W30267   9.264  39.271  14.835
57942W        W30268  28.334  26.966  14.873
57943W        W30269  18.489  35.018   1.255
57944W        W30270  39.755  42.018   2.602
57945W        W30271   0.728  11.228  14.643
57946W        W30272  24.584  21.067   3.173
57947W        W30273  18.801  17.456  13.128
57948W        W30274  13.286  10.174   9.911
57949W        W30275  14.417  22.150   2.199
57950W        W30276   4.917  37.113   0.334
57951W        W30277  25.379  17.147  13.893
57952W        W30278  10.397  30.029   2.285
57953W        W30279  29.376  24.041   4.589
57954W        W30280   5.689  31.134  11.087
57955W        W30281  14.088  29.897  14.811
57956W        W30282  13.779  26.513  10.123
57957W        W30283  11.714  10.770  14.822
57958W        W30284   6.802  28.732  11.066
57959W        W30285  32.781  13.107   1.004
57960W        W30286  23.593  10.382   2.827
57961W        W30287  35.924  26.202   0.897
57962W        W30288   3.054   9.671   4.907
57963W        W30289  38.835   9.130   3.130
57964W        W30290  13.594  23.708   2.643
57965W        W30291   6.757  38.358   4.567
57966W        W30292  31.514  38.458   1.837
57967W        W30293  32.921  32.847  11.359
57968W        W30294  25.415   9.687   2.699
57969W        W30295   0.170  43.394  12.547
57970W        W30296   7.621  41.305  13.256
57971W        W30297  26.514  23.556   3.228
57972W        W30298  31.553  38.020  12.989
57973W        W30299  43.049  23.219  14.351
57974W        W30300   9.009   7.207   1.831
57975W        W30301   6.898  22.054   1.386
57976W        W30302  17.334  19.116  13.918
57977W        W30303  43.509  34.412   2.138
57978W        W30304  32.454  41.004   0.270
57979W        W30305   4.984  15.927   4.043
57980W        W30306  32.752  26.707   4.122
57981W        W30307  29.992  33.664  13.330
57982W        W30308  38.310   0.493   3.735
57983W        W30309  19.218  10.105   2.781
57984W        W30310  21.550   1.963   3.221
57985W        W30311  42.087  19.859   0.557
57986W        W30312   0.574  14.681  13.373
57987W        W30313  43.771  43.764   4.191
57988W        W30314  40.779  17.399  14.683
57989W        W30315  26.586  36.354  11.056
57990W        W30316  11.299  18.711  12.120
57991W        W30317   1.428   9.314   0.893
57992W        W30318  39.948  41.758  14.671
57993W        W30319  25.126  42.345  14.430
57994W        W30320  32.006  14.750   3.569
57995W        W30321  14.408  31.511  12.475
57996W        W30322   1.262  31.653  12.371
57997W        W30323  38.582  15.424   1.426
57998W        W30324   0.758  20.057   0.499
57999W        W30325  44.996  17.241   4.740
58000W        W30326  38.756  29.644   0.744
58001W        W30327  16.083  31.639  11.968
58002W        W30328  25.996  11.768  12.964
58003W        W30329   8.593  23.209  14.161
58004W        W30330  36.070  38.872   2.880
58005W        W30331  13.364   4.947  10.806
58006W        W30332   1.260  12.607   0.330
58007W        W30333  38.141  44.161   3.602
58008W        W30334   5.784  15.700  14.976
58009W        W30335  30.470  32.088  13.006
58010W        W30336  20.686   7.582   4.671
58011W        W30337  21.692  34.959  12.424
58012W        W30338   7.742  26.372   3.199
58013W        W30339  41.091   3.325  10.656
58014W        W30340  32.502  22.971   1.493
58015W        W30341  24.582   6.317   0.408
58016W        W30342  13.588  18.642   2.702
58017W        W30343  40.513   1.922   0.816
58018W        W30344  15.211  31.096   3.924
58019W        W30345   0.323   6.609   1.722
58020W        W30346  33.298  28.086   4.055
58021W        W30347  11.924  37.098   2.746
58022W        W30348  16.744   8.358   4.361
58023W        W30349  17.564   2.307  13.106
58024W        W30350  29.523  11.652  14.424
58025W        W30351   1.897   8.230   2.186
58026W        W30352   4.276  23.284   1.308
58027W        W30353   6.379  44.351  13.276
58028W        W30354  17.815  36.019  12.147
58029W        W30355  31.751   4.887  11.511
58030W        W30356   6.673  23.466   0.002
58031W        W30357  24.961   8.968  12.918
58032W        W30358  13.292  42.008   4.584
58033W        W30359  39.083   7.245  13.127
58034W        W30360  41.005   8.177   4.516
58035W        W30361  37.577  37.002   2.617
58036W        W30362  19.622  42.055  12.898
58037W        W30363   5.963  43.890  10.381
58038W        W30364  11.250  42.851   5.102
58039W        W30365  35.487  25.491  14.319
58040W        W30366  36.099  26.675   2.709
58041W        W30367  44.936  33.954  11.961
58042W        W30368  10.909  10.697   1.474
58043W        W30369  35.199  43.137   3.153
58044W        W30370  22.911   1.487  13.997
58045W        W30371   2.015  33.640  11.016
58046W        W30372   2.857  15.377  13.370
58047W        W30373   6.828  13.246  14.218
58048W        W30374  26.315  12.936   1.941
58049W        W30375  42.368   1.255   1.785
58050W        W30376   7.269  37.372  11.440
58051W        W30377  30.990  18.351   4.474
58052W        W30378  36.241  13.527  14.008
58053W        W30379  21.743   0.991  11.703
58054W        W30380  14.898  30.671   5.190
58055W        W30381  32.854  19.101  13.368
58056W        W30382  13.721   1.505   2.424
58057W        W30383   1.910   3.984  10.477
58058W        W30384   4.306  28.938  13.945
58059W        W30385   4.816  43.257   2.828
58060W        W30386  23.680  26.402  10.609
58061W        W30387  24.018  16.157  13.227
58062W        W30388   8.381  41.034   2.152
58063W        W30389   0.172  23.587   4.051
58064W        W30390  30.447  13.894  11.208
58065W        W30391   3.128   3.287  13.475
58066W        W30392  24.632   3.759   0.015
58067W        W30393  36.005  25.120   1.847
58068W        W30394  30.925  26.942   1.450
58069W        W30395  18.318  38.913   4.499
58070W        W30396   0.893  15.382  14.417
58071W        W30397  11.362  17.482  14.949
58072W        W30398   3.830  39.520  14.439
58073W        W30399  16.618  11.709  13.679
58074W        W30400  31.986   9.640   3.963
58075W        W30401  13.346  26.636  14.975
58076W        W30402  26.320   4.143   2.513
58077W        W30403  12.337   0.158  11.143
58078W        W30404   9.868  39.148   1.861
58079W        W30405  30.503  38.455   4.947
58080W        W30406  35.962  40.806  11.095
58081W        W30407  42.369  40.117  13.044
58082W        W30408  42.103  25.073   4.189
58083W        W30409   5.729  17.960  12.159
58084W        W30410  31.127  39.854   0.317
58085W        W30411   4.337   9.883   0.367
58086W        W30412  41.569  28.066  13.132
58087W        W30413  35.968  16.068  11.200
58088W        W30414  11.068  16.754  11.467
58089W        W30415  27.089  28.158   2.322
58090W        W30416  25.788   7.242  12.828
58091W        W30417   3.423  25.800  10.780
58092W        W30418  28.975   2.891  11.141
58093W        W30419   9.407  19.966   1.572
58094W        W30420   4.776  19.616  10.897
58095W        W30421   3.366  43.883  14.887
58096W        W30422  31.061  20.679   2.242
58097W        W30423  22.320  44.395   2.378
58098W        W30424  13.188  19.310   1.748
58099W        W30425  13.819   3.859  12.054
58100W        W30426  31.332  40.397   4.631
58101W        W30427  23.328  23.543  10.719
58102W        W30428  34.530  40.512  14.751
58103W        W30429  24.134  28.088   0.219
58104W        W30430  22.199  10.119   0.314
58105W        W30431  25.101   8.347  14.974
58106W        W30432  13.291  43.898  13.985
58107W        W30433   4.139  12.229  14.422
58108W        W30434  34.548  32.047  12.632
58109W        W30435  19.475  38.849  13.012
58110W        W30436  24.139  17.307  10.426
58111W        W30437  42.435  35.828  12.862
58112W        W30438  42.874  31.935   2.081
58113W        W30439   8.768  26.176   4.696
58114W        W30440  15.975  33.193   3.672
58115W        W30441  31.091  18.297   0.361
58116W        W30442  31.172   0.471   3.443
58117W        W30443  23.149  34.996   1.521
58118W        W30444  35.386  13.796  13.533
58119W        W30445  25.271  34.614   2.234
58120W        W30446  29.590  28.135   2.266
58121W        W30447  43.335  38.669   3.399
58122W        W30448  34.989   7.816  11.952
58123W        W30449  27.279  19.782   0.430
58124W        W30450  28.972  35.324   4.629
58125W        W30451   6.353   5.810   0.350
58126W        W30452  40.757  33.742  11.532
58127W        W30453  30.087  14.758   0.481
58128W        W30454  44.455  21.098   4.576
58129W        W30455  20.689  31.486  11.550
58130W        W30456  39.088  25.457  12.967
58131W        W30457   4.343  38.344   1.354
58132W        W30458   2.944  33.333  10.899
58133W        W30459  35.947   7.887   1.816
58134W        W30460  29.146  22.654  13.847
58135W        W30461   2.035  24.077   3.822
58136W        W30462   2.433  15.937   0.949
58137W        W30463  36.449  44.722   2.461
58138W        W30464  37.077   4.495   0.021
58139W        W30465  24.940  14.857   0.048
58140W        W30466  21.058  25.661   2.082
58141W        W30467  24.793  42.054   2.645
58142W        W30468   5.636  37.461  14.935
58143W        W30469  20.497  24.206  11.634
58144W        W30470  36.296  35.304  12.304
58145W        W30471  34.604  31.160  12.387
58146W        W30472   3.383  30.234  14.013
58147W        W30473   8.592  35.277  14.928
58148W        W30474  35.301  42.125  14.922
58149W        W30475   9.570  36.796   2.284
58150W        W30476  10.315  19.270   0.933
58151W        W30477  13.543  19.762   3.134
58152W        W30478  22.659   3.385  14.750
58153W        W30479  38.448  37.532  10.114
58154W        W30480  25.690  16.109   1.706
58155W        W30481  34.940  22.503   4.615
58156W        W30482  17.299  13.345  13.904
58157W        W30483  22.201  37.655   1.379
58158W        W30484   9.573  12.058  12.571
58159W        W30485  40.094   5.116  13.197
58160W        W30486  31.263  12.269   3.937
58161W        W30487   1.695  12.196  11.509
58162W        W30488  25.642  32.376  14.462
58163W        W30489   8.798  18.455   2.202
58164W        W30490  12.166   5.436  13.964
58165W        W30491   6.638  38.240   3.219
58166W        W30492  38.199  14.518  12.385
58167W        W30493  11.198  14.805  10.685
58168W        W30494  40.358   3.127  11.143
58169W        W30495  31.009  19.300  13.923
58170W        W30496  30.125   6.222  14.391
58171W        W30497  16.631  10.663   0.526
58172W        W30498  44.713  44.002  13.005
58173W        W30499  34.431  14.513   3.173
58174W        W30500  19.176   9.693   1.818
58175W        W30501  29.775  26.152   5.502
58176W        W30502  35.460  22.306  10.778
58177W        W30503  23.974  28.622   3.682
58178W        W30504  11.162   0.383  14.434
58179W        W30505  41.526  39.779   1.878
58180W        W30506  35.297  22.434  11.535
58181W        W30507  10.138  22.755   0.823
58182W        W30508  19.099  10.156  11.523
58183W        W30509   8.352  27.399   1.979
58184W        W30510  17.482  44.405   0.559
58185W        W30511  12.049  41.505  12.901
58186W        W30512  14.152   4.368   4.531
58187W        W30513   0.869  37.133  11.471
58188W        W30514  18.576  17.165  12.051
58189W        W30515   7.729  25.521  13.052
58190W        W30516  41.678  38.095   2.255
58191W        W30517  16.792  36.545   1.790
58192W        W30518   2.771  22.494  14.815
58193W        W30519   3.613   2.431  13.408
58194W        W30520  23.774  20.643   1.248
58195W        W30521  44.027  38.472   2.765
58196W        W30522   0.064  16.644   1.453
58197W        W30523  24.237   7.817   0.262
58198W        W30524  22.957  13.098   0.821
58199W        W30525   0.349  26.647   1.899
58200W        W30526  27.738  18.107  14.951
58201W        W30527   7.937  44.497  12.547
58202W        W30528  42.219  15.196  11.892
58203W        W30529  41.470  39.380   4.324
58204W        W30530   8.648   4.319  12.914
58205W        W30531  34.822   6.721   0.704
58206W        W30532   4.023  14.289   0.508
58207W        W30533  34.140  25.077   3.070
58208W        W30534  23.609  12.715   2.652
58209W        W30535  13.700   6.463   0.240
58210W        W30536  20.201  14.545   3.275
58211W        W30537  24.172  14.576  11.530
58212W        W30538  42.991   2.980   3.759
58213W        W30539   6.789  39.333  11.172
58214W        W30540  31.667  22.490  10.752
58215W        W30541  32.032  42.466   0.252
58216W        W30542  22.793  37.883   3.149
58217W        W30543  32.576  19.509   2.227
58218W        W30544  17.750  24.193   0.407
58219W        W30545  40.829  18.552  13.529
58220W        W30546  26.988  23.914  13.472
58221W        W30547   7.321  42.414   0.265
58222W        W30548  29.004   1.405   4.204
58223W        W30549  37.831  27.622  13.802
58224W        W30550  37.076  44.941   0.766
58225W        W30551  38.795   9.890   0.474
58226W        W30552  12.033  38.429  14.535
58227W        W30553  44.528   9.688  11.177
58228W        W30554  27.149  29.072  11.827
58229W        W30555  15.109   6.730  14.544
58230W        W30556   3.149  10.193   1.423
58231W        W30557  23.654  22.084   3.834
58232W        W30558  13.198  24.521   5.016
58233W        W30559  33.626  43.249  11.561
58234W        W30560  20.503  21.721   1.775
58235W        W30561  30.102  38.824  11.895
58236W        W30562  16.832  28.185   4.032
58237W        W30563  25.530  11.331   4.137
58238W        W30564  18.990  13.733   1.736
58239W        W30565  11.064  37.219   1.033
58240W        W30566   1.689  29.076  11.065
58241W        W30567  10.434  22.703  13.241
58242W        W30568  29.446  37.445  13.104
58243W        W30569  22.533  11.371   2.672
58244W        W30570   5.402  44.282   0.719
58245W        W30571  24.304   7.931   3.586
58246W        W30572   1.451  32.880   0.830
58247W        W30573  16.178  44.881   1.855
58248W        W30574  29.592  32.902   3.903
58249W        W30575  20.501  14.135   4.226
58250W        W30576  37.852  28.203   0.228
58251W        W30577   3.275  13.142  12.531
58252W        W30578  29.171  20.004  12.980
58253W        W30579  35.503  38.328   2.254
58254W        W30580  22.036  14.386  13.850
58255W        W30581   6.620   0.907  14.232
58256W        W30582  16.020   5.913  13.323
58257W        W30583  42.537   9.618  13.396
58258W        W30584  31.498  31.362   0.273
58259W        W30585  11.604   6.405   3.188
58260W        W30586   0.666  41.846  14.646
58261W        W30587  14.212  38.728   0.009
58262W        W30588   8.071  31.389   1.531
58263W        W30589   2.871  22.808   0.454
58264W        W30590  29.508  26.088   3.258
58265W        W30591   5.515  32.341   2.551
58266W        W30592  28.692  18.162   2.158
58267W        W30593  11.075  27.274  12.034
58268W        W30594  13.278  28.036   3.780
58269W        W30595  16.499  19.180   0.228
58270W        W30596   1.480  10.205   1.980
58271W        W30597   9.468  39.864  12.470
58272W        W30598  11.558  44.419   4.615
58273W        W30599  17.577  35.828  14.548
58274W        W30600  44.890  27.163  10.652
58275W        W30601  38.775  42.402  10.315
58276W        W30602  43.996  18.184  12.246
58277W        W30603  16.855  24.858   5.044
58278W        W30604  44.505  27.630   1.414
58279W        W30605   4.782  12.911  10.938
58280W        W30606  12.717  36.504   5.509
58281W        W30607   3.953   5.446   2.855
58282W        W30608   0.760  20.260  11.944
58283W        W30609  25.147  19.303   4.159
58284W        W30610  16.357   3.852  11.679
58285W        W30611  28.659  12.668   4.657
58286W        W30612   5.215   8.090  10.850
58287W        W30613  30.858  36.556  10.795
58288W        W30614  37.678  19.667   2.755
58289W        W30615  18.577  17.032   4.064
58290W        W30616  30.034  12.629   2.441
58291W        W30617  19.543  33.394   0.713
58292W        W30618  38.848  42.868   0.238
58293W        W30619  19.412  44.504   3.238
58294W        W30620  25.479   8.132   1.422
58295W        W30621  31.068   1.356  13.027
58296W        W30622  34.439   5.004  13.080
58297W        W30623  34.381   5.716   3.712
58298W        W30624  22.285  10.361   0.802
58299W        W30625  18.705  17.772   0.238
58300W        W30626   0.213   4.515   4.416
58301W        W30627  21.159  12.579   1.401
58302W        W30628  12.869   5.249   4.408
58303W        W30629  33.846  11.267  13.002
58304W        W30630  43.524  18.121   1.756
58305W        W30631  30.097  42.105  11.177
58306W        W30632   4.232  29.420  11.100
58307W        W30633   8.747  13.838   4.495
58308W        W30634   8.336  24.555   2.955
58309W        W30635  38.394   3.658  14.989
58310W        W30636   6.794  32.569  11.463
58311W        W30637  11.227  32.910  12.515
58312W        W30638  18.319  18.222   2.191
58313W        W30639  13.517   4.410   0.287
58314W        W30640  32.494  13.355  11.559
58315W        W30641  36.428  44.040   4.637
58316W        W30642  28.887  31.013   1.495
58317W        W30643  30.469  42.655  11.532
58318W        W30644  23.329  32.240   2.372
58319W        W30645  11.212  12.764  12.950
58320W        W30646  10.419  27.583   0.149
58321W        W30647  41.600  25.435   0.963
58322W        W30648  44.204  18.619   0.513
58323W        W30649   6.768  22.171  13.085
58324W        W30650  40.114  38.512   3.762
58325W        W30651  34.380  22.053  13.485
58326W        W30652  34.544   3.422   3.349
58327W        W30653  16.598   4.416  14.862
58328W        W30654  18.823   9.927  12.879
58329W        W30655  36.605   5.751   3.606
58330W        W30656  15.196  15.352  13.408
58331W        W30657  41.355  33.540   0.887
58332W        W30658  31.372  17.990  12.569
58333W        W30659  11.426  28.691  12.787
58334W        W30660   0.228  41.203  12.842
58335W        W30661  24.542  39.920   0.954
58336W        W30662  14.123   9.633   1.778
58337W        W30663  20.491   5.367   3.344
58338W        W30664   8.479  26.216  12.587
58339W        W30665  40.891   7.265  13.959
58340W        W30666  31.511  26.970   3.665
58341W        W30667  16.660  12.083   2.500
58342W        W30668   1.478   5.407  12.821
58343W        W30669  16.149  11.842  11.966
58344W        W30670   1.648  29.038   3.372
58345W        W30671  16.041  15.672   1.336
58346W        W30672  27.800  35.437  14.616
58347W        W30673   9.591  35.833   1.270
58348W        W30674  29.658  20.077   0.859
58349W        W30675  42.434  11.606  13.038
58350W        W30676  31.476  43.411  11.594
58351W        W30677  23.792  42.851  12.330
58352W        W30678  44.898  10.748   2.785
58353W        W30679  29.934   2.641   3.260
58354W        W30680   0.881  29.352  11.365
58355W        W30681  23.309  15.765   3.246
58356W        W30682  41.256  30.666  12.992
58357W        W30683  20.096   7.746   1.091
58358W        W30684  10.569   6.010  13.336
58359W        W30685  21.040  35.401   4.175
58360W        W30686   8.215  20.191   4.401
58361W        W30687  43.529  17.051   4.246
58362W        W30688   9.700  28.675  14.447
58363W        W30689  36.316  10.349   2.163
58364W        W30690   3.429  14.967   0.666
58365W        W30691  40.553  32.223   4.191
58366W        W30692   4.922   8.834  13.283
58367W        W30693  38.849  43.480  13.029
58368W        W30694   5.340  37.308  14.494
58369W        W30695   4.529  21.924   2.823
58370W        W30696  17.122  20.246   4.111
58371W        W30697  35.401   2.366   1.704
58372W        W30698  36.394  11.928   1.459
58373W        W30699  30.562  36.067  14.712
58374W        W30700  24.273   0.241   0.517
58375W        W30701  30.537  42.435  14.450
58376W        W30702  13.153  28.862  12.166
58377W        W30703  37.542   9.419  13.027
58378W        W30704  38.892   5.557   4.767
58379W        W30705  40.031  38.524  11.825
58380W        W30706  40.024  21.362  12.830
58381W        W30707   2.241  24.870  11.254
58382W        W30708  25.157   5.672   3.445
58383W        W30709   9.582   8.340  14.410
58384W        W30710  42.710  30.441   2.367
58385W        W30711  16.223  28.868  13.681
58386W        W30712  43.441  16.759   0.361
58387W        W30713  22.991   0.864  11.160
58388W        W30714  27.108   7.944  13.287
58389W        W30715   9.261   7.846  12.395
58390W        W30716  34.091   7.884   2.719
58391W        W30717   3.389  12.285   3.697
58392W        W30718   3.440  10.606  11.102
58393W        W30719  15.043  43.993  14.765
58394W        W30720   0.585  18.356  12.523
58395W        W30721   2.241   6.959   3.076
58396W        W30722  37.251  25.388  14.316
58397W        W30723  28.398   2.813   4.066
58398W        W30724  14.189  21.743  10.885
58399W        W30725   2.835  36.011   0.876
58400W        W30726  14.621  44.399   1.710
58401W        W30727   1.566  29.605  13.448
58402W        W30728  41.272  31.991   0.318
58403W        W30729   2.569   0.132  13.263
58404W        W30730  13.284  29.155  12.554
58405W        W30731  27.173  26.415   2.774
58406W        W30732  25.180  16.824   0.545
58407W        W30733  43.558  42.441  14.381
58408W        W30734  20.622  10.622   2.725
58409W        W30735  15.605   1.843  12.448
58410W        W30736  31.408  14.082  13.050
58411W        W30737  38.366  30.960  14.987
58412W        W30738  36.539  38.932   4.320
58413W        W30739  38.318  18.556  11.856
58414W        W30740  36.220  32.776   3.253
58415W        W30741  24.518  39.776  11.578
58416W        W30742  11.406  23.251   3.347
58417W        W30743  38.875  18.028   1.616
58418W        W30744  31.539   5.207  14.915
58419W        W30745  42.894   9.856  14.113
58420W        W30746  35.367  39.350   2.375
58421W        W30747  37.425  11.617  13.497
58422W        W30748  11.139  32.140   1.909
58423W        W30749  12.173  12.223  13.614
58424W        W30750  19.744  22.386  10.769
58425W        W30751  39.105  22.539   3.115
58426W        W30752  10.049   7.284  10.352
58427W        W30753   5.595   4.834  12.555
58428W        W30754  24.193  32.053  13.482
58429W        W30755  42.470   5.971  10.526
58430W        W30756  11.282  27.159  10.637
58431W        W30757  23.131  22.974   3.159
58432W        W30758  43.658   0.485   1.232
58433W        W30759  36.541  34.964   2.316
58434W        W30760  12.063  37.935  13.495
58435W        W30761  20.049  29.487  11.491
58436W        W30762   9.143   7.507   2.329
58437W        W30763  37.926  16.892  14.082
58438W        W30764   5.989  22.425   2.053
58439W        W30765  24.533  38.099  13.075
58440W        W30766  12.259  37.011   3.891
58441W        W30767   1.485  28.539   0.201
58442W        W30768  13.365  44.514   1.453
58443W        W30769   1.907  14.544   0.989
58444W        W30770   1.818  27.143   3.139
58445W        W30771  43.525  18.809  14.747
58446W        W30772  16.586  43.473  12.920
58447W        W30773  27.678  24.530   1.913
58448W        W30774  43.755  21.129  12.822
58449W        W30775   7.115   2.361  12.490
58450W        W30776  16.227  11.123  11.166
58451W        W30777  17.678  38.551  11.062
58452W        W30778  18.238   3.002   1.809
58453W        W30779  29.933  44.448   2.277
58454W        W30780  22.236  39.636   4.664
58455W        W30781  41.281  27.946   2.444
58456W        W30782   2.977  26.229   2.432
58457W        W30783  42.324  21.740  14.958
58458W        W30784  11.618  21.194  13.483
58459W        W30785  15.149  10.381   4.272
58460W        W30786  13.125  42.851  13.997
58461W        W30787  34.139  31.862  12.025
58462W        W30788   9.375  14.655  11.250
58463W        W30789  15.184  43.074   1.895
58464W        W30790  31.496   4.368   2.288
58465W        W30791  34.916  27.988   5.132
58466W        W30792  39.689   7.822  10.588
58467W        W30793  30.188  25.615   2.336
58468W        W30794  29.931  33.585   1.281
58469W        W30795  21.521  12.206  12.211
58470W        W30796   0.930   3.416   2.828
58471W        W30797  13.423  20.986  11.490
58472W        W30798  41.378  36.453   1.740
58473W        W30799  36.069  38.496   1.580
58474W        W30800  22.524  44.452  12.566
58475W        W30801  12.717   2.385  14.477
58476W        W30802  33.028  29.689  11.041
58477W        W30803  37.046  18.466   1.308
58478W        W30804  33.620  21.603   5.038
58479W        W30805  29.533  15.847  14.786
58480W        W30806  33.049   2.301  13.245
58481W        W30807  14.194  28.594  10.624
58482W        W30808  34.958   2.939   3.689
58483W        W30809  35.300  33.628  14.345
58484W        W30810  33.653  36.068   1.862
58485W        W30811  15.377  25.274   0.646
58486W        W30812  32.393   0.961   2.859
58487W        W30813   9.155  29.489  11.592
58488W        W30814  26.193   7.822   2.266
58489W        W30815  34.603   2.959   0.506
58490W        W30816  42.181  41.360   3.334
58491W        W30817   1.251  17.240   3.250
58492W        W30818   6.176  19.662  11.979
58493W        W30819  20.038  43.386  13.877
58494W        W30820  38.460  18.695   4.233
58495W        W30821   3.717   6.128   3.431
58496W        W30822  30.090   5.345  10.543
58497W        W30823   2.688  27.036  14.730
58498W        W30824  11.169  35.348   0.359
58499W        W30825  15.102  11.355   3.718
58500W        W30826  33.897  18.071   4.107
58501W        W30827  10.240  35.485   0.077
58502W        W30828  32.037  35.061   0.865
58503W        W30829  27.542  30.902   2.748
58504W        W30830  19.169   2.419   2.431
58505W        W30831  14.240   9.211  11.998
58506W        W30832  37.596  42.518   0.242
58507W        W30833  20.483  14.312  14.506
58508W        W30834  13.251  34.060   3.842
58509W        W30835   2.796  20.663  13.063
58510W        W30836  32.711  14.628  12.607
58511W        W30837  29.754  29.886  11.900
58512W        W30838  12.147  28.198  10.156
58513W        W30839  21.744   8.031   4.181
58514W        W30840  10.867  26.427   3.765
58515W        W30841  32.648  20.667  14.451
58516W        W30842  23.440  25.515  13.957
58517W        W30843  26.643  26.081  12.032
58518W        W30844  18.164  28.347  11.115
58519W        W30845  11.293  23.477   0.878
58520W        W30846  42.754  15.292  14.278
58521W        W30847  40.461  26.080   3.965
58522W        W30848  26.469  30.314   0.276
58523W        W30849  16.251  41.979   2.151
58524W        W30850  36.638  35.420   0.297
58525W        W30851  35.674  24.852  10.971
58526W        W30852  34.025  29.590  11.968
58527W        W30853   2.389  36.341   1.873
58528W        W30854  10.695  43.049  11.536
58529W        W30855  32.626  24.695   1.771
58530W        W30856  26.541   2.867   1.408
58531W        W30857  42.496   5.174  14.799
58532W        W30858  37.582  40.153   3.423
58533W        W30859  19.724   0.510  14.785
58534W        W30860   4.937  23.009   3.630
58535W        W30861  12.352  38.079  14.840
58536W        W30862   8.308  13.294  13.411
58537W        W30863   3.990  31.403  14.087
58538W        W30864  27.055  13.334   3.653
58539W        W30865  41.768  15.244   0.665
58540W        W30866  12.805  28.133  10.035
58541W        W30867  16.180  26.738   1.929
58542W        W30868  26.017   8.614   0.624
58543W        W30869   0.305  42.412   3.111
58544W        W30870   3.029  42.731   3.637
58545W        W30871   6.700  32.030  14.096
58546W        W30872  36.794  13.353  13.919
58547W        W30873   2.491   7.459   4.615
58548W        W30874  11.800  43.889  12.885
58549W        W30875  44.940  39.803  14.419
58550W        W30876  24.135  44.187  12.995
58551W        W30877   2.486   9.177   0.048
58552W        W30878  17.022   5.649  10.735
58553W        W30879  44.053  16.908  11.072
58554W        W30880  43.557   8.147   3.865
58555W        W30881  16.049   9.861   2.695
58556W        W30882  33.093  29.993   4.690
58557W        W30883  19.220  27.607  11.517
58558W        W30884   7.454  16.388  12.005
58559W        W30885  10.375  34.054  10.981
58560W        W30886  38.591   8.182   0.383
58561W        W30887  41.419   9.608   1.059
58562W        W30888  29.934  24.934  12.987
58563W        W30889  39.482   4.886  11.006
58564W        W30890   2.451  13.672   3.242
58565W        W30891  23.797  23.557  11.630
58566W        W30892  40.067   1.057  12.034
58567W        W30893  10.918  35.512   4.659
58568W        W30894  36.654  30.337   1.813
58569W        W30895  44.121  37.955  12.820
58570W        W30896  11.303  40.719  12.358
58571W        W30897  28.564  16.401   1.731
58572W        W30898   2.188  35.072  14.588
58573W        W30899  14.373  32.843  13.450
58574W        W30900   1.502  43.090   1.182
58575W        W30901  41.028   6.211   4.519
58576W        W30902  19.344  30.071   0.769
58577W        W30903  11.207  27.736  14.269
58578W        W30904  35.801  22.722  14.787
58579W        W30905  27.708   9.446   4.553
58580W        W30906  18.726  34.386   2.754
58581W        W30907  30.174  27.638  13.829
58582W        W30908  26.934  20.056  12.852
58583W        W30909  26.540   1.920   4.994
58584W        W30910  38.255  18.788   1.906
58585W        W30911  26.859  31.049  13.502
58586W        W30912  25.184  36.850  13.428
58587W        W30913  26.814  18.294  13.592
58588W        W30914  21.302  23.703   2.655
58589W        W30915   8.179  21.201   4.557
58590W        W30916  10.733  35.541  12.417
58591W        W30917  24.010  31.411   4.600
58592W        W30918  13.059  13.261  14.773
58593W        W30919  42.851  10.061   4.477
58594W        W30920   1.453  35.094  13.180
58595W        W30921  17.157  20.771  11.044
58596W        W30922  35.782   8.269  14.399
58597W        W30923  16.178  39.576   3.663
58598W        W30924  27.138   1.832   3.687
58599W        W30925  37.932   1.966   5.376
58600W        W30926   5.238   4.778  11.521
58601W        W30927  13.355  17.273   2.673
58602W        W30928  20.387  35.055  12.039
58603W        W30929   0.026  27.943  13.914
58604W        W30930  14.895  30.090  11.130
58605W        W30931   7.796  31.353   2.851
58606W        W30932   3.482  43.371  14.982
58607W        W30933  22.129   1.872  12.473
58608W        W30934  38.849  27.998   3.279
58609W        W30935   3.917  23.079  14.934
58610W        W30936   9.909   4.913  13.912
58611W        W30937  28.105  14.543  13.402
58612W        W30938  15.329  44.961  14.868
58613W        W30939  28.157  40.878  14.087
58614W        W30940  42.426  30.981   0.229
58615W        W30941  31.367  42.981   3.713
58616W        W30942  30.140  27.559  14.720
58617W        W30943  32.905  27.661   3.252
58618W        W30944  34.562  23.231  11.392
58619W        W30945  19.634  42.750  11.160
58620W        W30946  21.243   6.679  14.892
58621W        W30947  19.206   5.831  12.570
58622W        W30948  35.531  43.424   1.458
58623W        W30949  39.045  13.390   3.715
58624W        W30950  29.571  11.106  11.968
58625W        W30951   1.403  16.816   2.967
58626W        W30952  27.560   3.363  13.854
58627W        W30953  15.351  18.591   2.296
58628W        W30954  18.116  23.109  13.500
58629W        W30955  44.010  18.666  10.436
58630W        W30956  31.413  42.456  14.795
58631W        W30957  14.845  32.807  13.241
58632W        W30958  23.130   6.235   0.270
58633W        W30959  42.833  15.094  13.298
58634W        W30960  11.134  38.591   1.425
58635W        W30961  19.229  41.846   2.465
58636W        W30962  31.006  25.203  14.318
58637W        W30963   0.173   0.196  11.664
58638W        W30964  22.325   7.552  11.888
58639W        W30965  29.736  29.039   9.980
58640W        W30966  42.401  18.265  13.433
58641W        W30967  13.249  14.280   1.133
58642W        W30968   1.174  24.017  11.397
58643W        W30969   3.870  31.478   4.462
58644W        W30970   3.554  35.515   3.882
58645W        W30971  28.217  11.243  11.610
58646W        W30972   8.296  26.650  10.845
58647W        W30973  29.513  10.980   1.646
58648W        W30974  30.672  24.700  11.054
58649W        W30975  12.217  24.523  13.036
58650W        W30976   1.720  17.763   2.855
58651W        W30977  24.274  13.875   3.098
58652W        W30978  19.022   2.404   2.921
58653W        W30979   6.609  34.906  13.512
58654W        W30980  35.173  18.587  13.968
58655W        W30981  15.367   9.140  13.067
58656W        W30982  24.012   7.651   3.192
58657W        W30983  36.987  21.448  12.188
58658W        W30984  33.557  22.036  10.367
58659W        W30985   7.989   3.563  11.779
58660W        W30986  25.486   1.146  14.936
58661W        W30987  37.799  19.142   2.350
58662W        W30988  14.715  19.064   4.133
58663W        W30989  21.584  30.860   3.293
58664W        W30990   3.797  18.603  11.857
58665W        W30991  11.121  37.807   0.371
58666W        W30992  21.210  30.177   0.258
58667W        W30993  19.825  30.008   0.031
58668W        W30994  28.806  35.519  14.962
58669W        W30995   9.887  13.152  13.531
58670W        W30996  34.621   0.353  13.870
58671W        W30997  10.839  38.219  11.684
58672W        W30998  15.775   0.738   4.553
58673W        W30999  32.472  19.200   1.805
58674W        W31000  41.326  33.063  11.597
58675W        W31001  12.673  37.892   4.981
58676W        W31002  33.933  30.598  12.385
58677W        W31003  30.530   2.611  11.361
58678W        W31004  13.184  28.049  13.955
58679W        W31005   4.347  36.408  10.502
58680W        W31006  20.792  14.110  14.156
58681W        W31007  11.049  43.542   0.261
58682W        W31008  26.565  33.017   0.272
58683W        W31009   4.988  16.911   0.907
58684W        W31010  31.616   9.787   1.182
58685W        W31011  34.677   8.759  14.933
58686W        W31012  43.766  12.745  14.742
58687W        W31013   1.507  27.621  14.103
58688W        W31014  40.364   4.848   2.258
58689W        W31015  30.293  15.274  10.995
58690W        W31016  20.010  43.761   4.570
58691W        W31017  15.237  34.569   1.709
58692W        W31018  38.777   0.801   3.640
58693W        W31019   7.809   5.397   2.968
58694W        W31020  42.527  10.051   3.530
58695W        W31021  23.650  40.299  11.070
58696W        W31022  43.869  38.772  14.426
58697W        W31023  19.848  43.381   2.933
58698W        W31024  44.494   0.970  14.004
58699W        W31025  25.988  20.978  12.054
58700W        W31026  30.959  34.353   0.452
58701W        W31027  17.677   6.234   0.153
58702W        W31028   2.322   8.984  12.617
58703W        W31029  19.124  33.100   1.658
58704W        W31030  24.121  12.816   2.851
58705W        W31031   4.331  39.453   1.393
58706W        W31032  11.124  41.977   3.760
58707W        W31033   0.524  27.074   4.048
58708W        W31034  39.500  25.650   1.845
58709W        W31035  22.659  16.125   9.735
58710W        W31036  44.482  24.805   1.859
58711W        W31037  42.144  38.240   1.281
58712W        W31038  39.530  37.808   1.803
58713W        W31039  39.718  16.274  14.787
58714W        W31040  10.734  27.531   2.431
58715W        W31041  42.341  36.549   4.225
58716W        W31042   6.856  27.311   2.143
58717W        W31043  29.771  35.831  13.598
58718W        W31044  30.550  32.075   0.839
58719W        W31045  12.244   8.414   0.753
58720W        W31046   0.382  24.296  11.110
58721W        W31047  13.818  39.570   4.843
58722W        W31048  28.620  30.664  12.279
58723W        W31049   5.916   0.433   4.224
58724W        W31050   6.106  11.986   2.671
58725W        W31051  42.067  27.903  11.607
58726W        W31052  33.596  24.577   3.602
58727W        W31053  10.208  26.007  10.069
58728W        W31054  40.156  24.962  11.856
58729W        W31055   3.994  17.745  11.927
58730W        W31056  10.247   3.468   2.453
58731W        W31057  25.099   4.949  11.055
58732W        W31058  38.978  22.702   3.576
58733W        W31059  31.027  42.095  14.840
58734W        W31060  38.519   7.659  13.800
58735W        W31061   6.925  21.018  11.139
58736W        W31062  24.922  36.952  13.980
58737W        W31063   8.099  30.543  12.458
58738W        W31064  11.177  13.420  13.286
58739W        W31065  33.404  40.587   1.274
58740W        W31066  12.268  20.331   1.166
58741W        W31067  15.201  32.354   2.825
58742W        W31068  29.603  30.453   2.831
58743W        W31069  28.393  21.959  10.479
58744W        W31070   1.034  36.822  13.695
58745W        W31071  34.862  19.595   4.228
58746W        W31072  31.220  33.729  10.298
58747W        W31073  41.056  34.355   2.498
58748W        W31074   5.195   5.799   2.836
58749W        W31075  36.524   3.324  14.722
58750W        W31076  42.795  40.415   0.391
58751W        W31077  38.435   0.171   0.277
58752W        W31078  19.817  12.252  13.407
58753W        W31079   3.180   7.436  13.887
58754W        W31080  25.073  27.232   2.817
58755W        W31081  13.864  40.417  11.499
58756W        W31082  30.357  37.869  13.807
58757W        W31083  17.326  26.171  14.896
58758W        W31084  35.509  28.897  14.418
58759W        W31085   3.723  39.310  11.368
58760W        W31086  41.441  12.372  11.636
58761W        W31087  30.974  19.430   4.852
58762W        W31088  17.476  35.581  13.924
58763W        W31089  36.403   9.624  14.849
58764W        W31090  34.776   0.816   1.151
58765W        W31091   0.608  21.926   1.856
58766W        W31092  42.037  23.876  10.540
58767W        W31093  43.151  17.459   3.319
58768W        W31094   3.697   7.396  10.968
58769W        W31095   1.246  14.217  12.108
58770W        W31096  13.880  19.773   1.770
58771W        W31097   3.681  44.781   2.350
58772W        W31098  38.885  12.578   1.799
58773W        W31099  32.926  36.968   0.314
58774W        W31100   5.650  16.097  13.293
58775W        W31101  31.655   9.144  12.891
58776W        W31102  36.006  23.488  12.031
58777W        W31103  21.576  42.324  13.006
58778W        W31104  29.114  23.975  13.416
58779W        W31105  13.342   7.307  12.968
58780W        W31106   2.406  30.528   3.167
58781W        W31107  35.060  18.778  12.508
58782W        W31108  27.018  14.021   1.364
58783W        W31109  35.359  17.306   2.687
58784W        W31110   6.413   4.248  10.196
58785W        W31111  15.248  38.235   0.264
58786W        W31112   5.320  16.882   2.829
58787W        W31113   8.629  11.113  14.770
58788W        W31114  41.750  14.568   1.175
58789W        W31115  26.964   4.196   3.222
58790W        W31116  24.162  44.769   3.704
58791W        W31117   4.180   3.693   4.201
58792W        W31118  11.759  18.971  13.869
58793W        W31119  34.670  27.987  13.850
58794W        W31120  15.136  27.865   4.830
58795W        W31121  31.995  26.110  13.140
58796W        W31122  27.450   1.464  11.796
58797W        W31123  17.804  23.505   2.280
58798W        W31124  28.185  20.052   2.232
58799W        W31125   4.607  37.819  11.051
58800W        W31126  16.788  40.280  14.971
58801W        W31127   3.230  21.803  11.090
58802W        W31128  39.351  27.952   4.132
58803W        W31129  14.658  24.823   9.803
58804W        W31130  17.481  20.852   3.695
58805W        W31131   4.301   6.280   4.043
58806W        W31132   0.560  24.659  14.326
58807W        W31133  38.894  23.270  14.804
58808W        W31134  36.823  27.122   0.024
58809W        W31135   6.312  19.552  12.476
58810W        W31136  15.189  21.557   3.639
58811W        W31137   1.902  20.799  12.973
58812W        W31138   2.513  41.277   0.788
58813W        W31139  31.160  18.801  11.594
58814W        W31140  34.912   7.238  12.108
58815W        W31141  21.264  35.517   3.129
58816W        W31142  31.613   2.820  11.183
58817W        W31143  39.592   5.214   0.057
58818W        W31144  20.649   5.697  14.317
58819W        W31145  25.579  19.690  10.125
58820W        W31146  27.055  40.494   4.641
58821W        W31147  13.710  26.141  12.623
58822W        W31148  40.659   8.211  13.227
58823W        W31149  41.762  29.485  11.931
58824W        W31150  26.602  29.205  11.123
58825W        W31151  27.120   9.700  11.924
58826W        W31152   4.790   8.006  13.230
58827W        W31153  27.043  22.254   9.867
58828W        W31154   8.242  39.125  12.489
58829W        W31155  44.859  28.220  11.646
58830W        W31156  44.275  37.995  14.773
58831W        W31157  39.958  11.821   3.719
58832W        W31158  42.535  35.915   3.167
58833W        W31159  11.525  34.459  11.523
58834W        W31160  38.318   9.640   0.493
58835W        W31161  38.014  30.457  14.534
58836W        W31162  35.879  39.357  12.080
58837W        W31163   5.926   2.825   3.672
58838W        W31164   8.917  18.294   2.680
58839W        W31165  26.605  10.657  14.868
58840W        W31166  17.492   2.615  11.248
58841W        W31167  19.973  34.397  13.823
58842W        W31168  27.075  28.669   2.455
58843W        W31169  41.658  39.499  13.102
58844W        W31170   8.329  26.481   4.707
58845W        W31171  27.894  40.760   1.775
58846W        W31172  22.911  16.744  10.509
58847W        W31173  11.130  35.028   5.078
58848W        W31174  13.250  10.734   4.801
58849W        W31175  24.102   6.522  14.004
58850W        W31176  21.401  28.857  10.517
58851W        W31177   9.302  35.456   2.378
58852W        W31178  35.850  42.366  12.353
58853W        W31179  11.554   1.415   0.217
58854W        W31180  41.041   2.268   3.321
58855W        W31181   5.700  16.377   0.777
58856W        W31182   3.806  35.621   1.772
58857W        W31183  38.835  27.975   4.166
58858W        W31184  37.870  37.798  13.383
58859W        W31185  32.725   3.265  12.928
58860W        W31186  17.055  43.893  13.315
58861W        W31187  13.316  27.549  11.152
58862W        W31188  35.238  28.901   5.084
58863W        W31189  43.291   3.825   1.387
58864W        W31190  15.101   5.489  13.393
58865W        W31191   5.492  17.513  12.063
58866W        W31192  38.657  13.772  10.056
58867W        W31193  43.058  44.397   3.126
58868W        W31194  27.697  22.083   4.549
58869W        W31195  31.939  30.752  14.885
58870W        W31196  28.897  29.383  12.164
58871W        W31197  20.740  34.386   0.703
58872W        W31198  11.697   8.152   2.717
58873W        W31199  42.587  17.713  11.044
58874W        W31200  24.667  26.012   0.388
58875W        W31201  24.444  40.595  11.262
58876W        W31202  29.400   3.832   4.583
58877W        W31203  14.124  29.122   3.084
58878W        W31204  33.903  35.038   1.551
58879W        W31205  11.256  19.569   2.308
58880W        W31206  22.813  20.076  11.855
58881W        W31207  23.643  39.459   0.806
58882W        W31208  26.456  24.646   3.020
58883W        W31209  31.457  31.438  12.201
58884W        W31210  20.994   1.639   2.363
58885W        W31211  17.678  27.735   3.651
58886W        W31212  23.191   6.730   3.834
58887W        W31213   3.924   4.951   1.022
58888W        W31214   8.220  23.487   4.993
58889W        W31215   9.408  28.588  14.039
58890W        W31216  20.207  24.722   4.334
58891W        W31217  25.460  31.703  12.603
58892W        W31218  14.150  41.058   4.080
58893W        W31219  41.892  11.860  13.756
58894W        W31220  11.861  10.864   3.702
58895W        W31221  40.478  39.378   0.887
58896W        W31222  44.968   5.445  14.752
58897W        W31223  10.678  27.196  12.360
58898W        W31224  40.410  12.880  12.845
58899W        W31225   3.481  32.621  13.476
58900W        W31226  39.666  27.232   3.719
58901W        W31227  20.493  31.217   2.671
58902W        W31228  14.594   2.000  14.486
58903W        W31229  32.937   5.990   4.859
58904W        W31230  33.213  24.204   0.857
58905W        W31231  16.453   5.349   1.845
58906W        W31232  12.562  10.303  14.845
58907W        W31233  27.411  29.134   9.541
58908W        W31234  30.485   6.862   2.889
58909W        W31235  32.071  12.298   4.153
58910W        W31236  28.861  44.135   3.670
58911W        W31237  27.597   4.652   1.724
58912W        W31238  28.645  18.819  11.121
58913W        W31239  16.638   2.471   0.904
58914W        W31240  14.094   9.362   0.441
58915W        W31241  25.592  27.059  14.090
58916W        W31242  33.859  19.485   1.642
58917W        W31243  32.496  22.982   0.223
58918W        W31244  40.853  21.071   3.780
58919W        W31245  27.772   8.676   0.474
58920W        W31246  20.731  28.598   4.829
58921W        W31247   0.931  41.298   2.757
58922W        W31248  27.256   7.790   3.227
58923W        W31249  28.896  33.306   1.222
58924W        W31250   1.083  10.703   9.764
58925W        W31251  43.143  14.164   0.427
58926W        W31252  41.644  44.769  10.905
58927W        W31253  16.126  25.436   0.879
58928W        W31254  38.640  13.659   2.366
58929W        W31255  44.999  14.512   3.294
58930W        W31256  42.885  22.814  13.518
58931W        W31257  33.619  21.269  13.888
58932W        W31258  12.461  12.161   0.167
58933W        W31259  15.970   1.642   2.277
58934W        W31260  20.096   0.831   3.222
58935W        W31261  30.620   6.817   2.390
58936W        W31262  21.033  22.626  13.113
58937W        W31263  42.062   5.557   2.315
58938W        W31264  42.571  18.843   5.192
58939W        W31265  35.527  29.732   2.841
58940W        W31266  44.486  44.044  13.504
58941W        W31267  29.675   1.107  12.017
58942W        W31268  13.737  22.152   0.708
58943W        W31269  15.152  31.986  14.734
58944W        W31270  32.591  34.712  10.537
58945W        W31271  41.232  30.114   0.733
58946W        W31272  26.649  18.077  11.802
58947W        W31273   6.362  33.325   5.067
58948W        W31274  40.541  14.675   1.813
58949W        W31275  33.689  20.475   1.788
58950W        W31276  18.300  25.135  10.193
58951W        W31277  17.492  14.315  12.924
58952W        W31278  34.081   8.627  11.989
58953W        W31279  42.386   5.235  12.097
58954W        W31280   3.442  13.953  11.644
58955W        W31281  10.810  25.684  10.643
58956W        W31282  32.372  29.437   4.854
58957W        W31283  34.128   1.580   0.767
58958W        W31284   9.709   3.864   0.396
58959W        W31285   1.921   0.927   2.352
58960W        W31286  10.538  14.731  12.563
58961W        W31287  30.119  35.662  14.423
58962W        W31288  28.132  15.701  14.157
58963W        W31289  15.614  33.848  12.161
58964W        W31290  26.376  14.881   4.265
58965W        W31291  36.536   6.299   3.264
58966W        W31292  36.295  15.021  12.407
58967W        W31293  24.557  23.936  11.297
58968W        W31294  35.018   6.881   3.384
58969W        W31295  39.445   5.846   0.767
58970W        W31296   4.975  23.345  13.579
58971W        W31297   9.134  11.196  14.723
58972W        W31298  13.324   4.445   4.903
58973W        W31299  42.741  12.300  12.829
58974W        W31300  41.945  40.886   3.427
58975W        W31301   0.732   6.185   2.928
58976W        W31302  34.617  33.402  11.923
58977W        W31303  14.283  43.529  11.060
58978W        W31304  28.856   7.489   0.305
58979W        W31305  29.129  36.423  11.699
58980W        W31306  22.068  18.633   1.817
58981W        W31307  23.181  25.950  13.595
58982W        W31308  12.675  18.839  12.927
58983W        W31309  41.599  19.690   3.810
58984W        W31310  34.113   1.880  11.558
58985W        W31311   6.928  19.755  11.482
58986W        W31312  34.464  12.676   4.182
58987W        W31313  16.221   7.785   1.218
58988W        W31314  29.474  32.033  14.328
58989W        W31315  20.438  32.882  14.255
58990W        W31316  43.744  25.214   3.134
58991W        W31317  38.831  31.037  12.217
58992W        W31318  43.327  21.134   4.709
58993W        W31319  20.571  36.821  11.194
58994W        W31320  39.806  36.436  13.445
58995W        W31321  32.829   4.233   0.368
58996W        W31322  23.441  18.280  13.323
58997W        W31323  44.915  24.682   0.565
58998W        W31324  24.756  17.795   3.294
58999W        W31325   7.358  19.529   1.096
59000W        W31326  43.591  42.792   4.098
59001W        W31327  26.780  21.012   3.525
59002W        W31328  29.024   6.907   4.575
59003W        W31329  27.031  39.484  14.751
59004W        W31330  20.097  39.841   4.707
59005W        W31331   2.339  36.964  14.779
59006W        W31332   7.809   3.940  12.120
59007W        W31333  14.189  24.548  12.797
59008W        W31334  38.829   3.582   3.526
59009W        W31335  14.797   6.149   4.472
59010W        W31336  39.971  32.136   2.950
59011W        W31337  18.841  17.763  14.070
59012W        W31338  22.949  14.248   4.180
59013W        W31339   7.919  26.194  12.536
59014W        W31340  43.277  43.534  12.829
59015W        W31341  11.733   2.212   3.368
59016W        W31342  14.690  36.808   0.599
59017W        W31343  13.701  33.844  12.402
59018W        W31344  14.293  27.039  11.153
59019W        W31345  20.145  28.516   2.464
59020W        W31346  25.406  22.421  11.092
59021W        W31347   4.561  39.498   4.737
59022W        W31348  16.514  20.998  14.498
59023W        W31349  42.488   6.019   4.668
59024W        W31350  28.983  41.941  11.640
59025W        W31351  15.355  37.405  14.324
59026W        W31352   5.352  27.990   1.283
59027W        W31353  31.203  21.139   1.986
59028W        W31354   0.608   2.501   3.750
59029W        W31355  12.376  26.749   3.719
59030W        W31356  38.874  29.942   4.651
59031W        W31357   6.920  27.482  13.911
59032W        W31358  17.805  19.076  11.992
59033W        W31359  24.475  18.511  14.520
59034W        W31360  15.499  36.908  10.059
59035W        W31361  21.662  27.115   3.276
59036W        W31362  29.406  36.399  13.511
59037W        W31363   2.307   8.955   0.489
59038W        W31364   1.241   4.408   1.837
59039W        W31365  32.803  17.170   0.166
59040W        W31366  22.096   0.477   1.710
59041W        W31367  19.531   3.302  11.559
59042W        W31368   2.343  11.888  12.495
59043W        W31369   6.955  44.325   2.284
59044W        W31370  35.940  12.733   1.276
59045W        W31371  36.498  35.514   1.133
59046W        W31372  43.879  24.324   2.801
59047W        W31373  13.113  13.870  12.283
59048W        W31374  10.718   3.104  11.602
59049W        W31375   9.236   8.734   0.978
59050W        W31376  40.424  24.214  14.489
59051W        W31377  19.264  42.755   3.663
59052W        W31378  25.022   1.295  11.625
59053W        W31379   0.706  23.342  10.282
59054W        W31380  29.246  17.216   1.737
59055W        W31381   1.330  29.376  12.960
59056W        W31382  26.974  21.655   1.691
59057W        W31383  12.872  33.207   5.054
59058W        W31384  22.019  27.118  11.482
59059W        W31385   4.971  34.117   4.013
59060W        W31386  24.680   9.466  12.081
59061W        W31387  13.649   9.370   4.752
59062W        W31388   3.256  28.411   0.514
59063W        W31389   2.415  28.452  13.306
59064W        W31390  10.213   5.652  11.133
59065W        W31391  24.907  44.888   1.759
59066W        W31392  31.502  32.145   4.875
59067W        W31393   5.784  29.507  13.927
59068W        W31394  37.008  10.780   1.608
59069W        W31395   2.433  15.762  11.884
59070W        W31396  12.339   9.334   0.860
59071W        W31397  27.750  40.226  11.392
59072W        W31398  20.722  30.509  14.066
59073W        W31399  42.823  35.299   2.351
59074W        W31400  37.073   5.380  14.768
59075W        W31401  13.648   9.732  12.554
59076W        W31402  43.307  18.382   1.316
59077W        W31403  13.684  18.701  11.073
59078W        W31404  33.650  40.380   0.283
59079W        W31405  13.299  13.320   0.285
59080W        W31406  30.245   7.202  13.041
59081W        W31407   8.258  36.885  12.833
59082W        W31408  13.542  26.975   1.689
59083W        W31409  37.906  27.267  10.669
59084W        W31410  14.311  44.873  11.251
59085W        W31411  41.938  43.045   4.208
59086W        W31412  28.255  36.415   3.167
59087W        W31413  33.553  36.787   4.674
59088W        W31414   4.842  16.625  14.108
59089W        W31415  39.920  23.569   0.633
59090W        W31416  29.112  40.944  11.533
59091W        W31417  13.424   9.922   1.381
59092W        W31418  24.938  41.400  11.673
59093W        W31419  14.869  18.366   2.317
59094W        W31420  23.639   1.030   2.384
59095W        W31421  19.271  44.941   4.767
59096W        W31422  38.883  38.041   4.816
59097W        W31423  42.283  30.096  14.924
59098W        W31424  38.832  21.001   1.024
59099W        W31425  29.012  40.582  14.224
59100W        W31426  26.025  41.340   4.352
59101W        W31427  11.370   2.757   1.578
59102W        W31428  13.828  33.179  13.926
59103W        W31429   2.168  16.170   1.376
59104W        W31430  17.763  23.206  11.708
59105W        W31431   8.755   4.460   4.109
59106W        W31432  44.561  13.577   3.208
59107W        W31433  31.758  13.111  10.675
59108W        W31434  44.168  15.130   4.292
59109W        W31435  42.967  32.371  12.357
59110W        W31436  44.512  42.301   0.813
59111W        W31437  24.025  43.327   1.360
59112W        W31438  26.951  43.381   3.929
59113W        W31439  16.182   0.647  13.821
59114W        W31440   4.786  34.970   4.593
59115W        W31441  25.017   2.002  12.110
59116W        W31442  41.555   2.278   3.251
59117W        W31443   4.888   1.777   0.042
59118W        W31444  44.722  21.168  12.835
59119W        W31445  33.421  41.269  11.620
59120W        W31446  16.413  40.166  13.395
59121W        W31447  24.652  25.744  13.577
59122W        W31448  43.298  43.157   1.027
59123W        W31449   1.446  12.707   5.075
59124W        W31450  14.018  18.701  12.947
59125W        W31451  18.841  28.533   0.043
59126W        W31452  44.352  35.073   1.371
59127W        W31453  21.652  31.365  14.272
59128W        W31454  35.913  21.532  14.426
59129W        W31455  14.860   3.841   3.673
59130W        W31456  41.995  18.619  13.336
59131W        W31457  13.680  39.429  11.495
59132W        W31458  23.169  14.865   0.316
59133W        W31459   6.299  34.063   3.172
59134W        W31460  16.572  33.490  13.292
59135W        W31461  38.286   7.274   3.307
59136W        W31462  12.788  42.429  11.595
59137W        W31463  17.703   1.803   4.710
59138W        W31464  17.594   4.313   4.355
59139W        W31465  38.796  24.522   3.652
59140W        W31466   5.777  36.453  11.966
59141W        W31467  42.759  24.982  14.436
59142W        W31468  37.258  21.277   3.656
59143W        W31469  22.133   2.508  12.899
59144W        W31470   9.811  10.617   2.591
59145W        W31471  30.624  14.313  14.291
59146W        W31472  28.000  43.914  12.834
59147W        W31473  43.403   5.901  11.049
59148W        W31474  39.965   3.531   2.787
59149W        W31475   9.903   4.716   4.550
59150W        W31476  19.085   5.326  11.124
59151W        W31477  25.083  14.200  12.575
59152W        W31478  24.259  29.731  12.089
59153W        W31479  12.341  27.402  13.499
59154W        W31480  20.784  23.774  11.597
59155W        W31481  13.822  23.482  13.741
59156W        W31482  13.262  26.607  12.866
59157W        W31483   5.078  39.476   4.943
59158W        W31484   7.058  16.184  13.794
59159W        W31485   7.276  15.575  13.012
59160W        W31486   0.440  12.400   3.261
59161W        W31487  37.440  37.583  13.532
59162W        W31488  18.406   4.106   4.816
59163W        W31489   6.222  44.215  14.316
59164W        W31490  10.875  41.553   2.316
59165W        W31491  14.056  36.055  13.421
59166W        W31492  24.799  14.643  12.776
59167W        W31493  31.288  11.845   4.645
59168W        W31494  15.710  32.125   0.385
59169W        W31495  27.472  35.011   1.048
59170W        W31496  38.297  22.620  14.434
59171W        W31497  22.986   5.711  13.404
59172W        W31498  17.712  25.377   4.967
59173W        W31499   8.858  43.797   4.556
59174W        W31500  16.066   0.089   4.131
59175W        W31501  29.588  42.806   0.244
59176W        W31502  36.130  36.000   0.761
59177W        W31503  39.898  15.845  14.972
59178W        W31504  19.194  21.661  10.688
59179W        W31505  22.125  26.179  12.410
59180W        W31506  28.674  25.668  10.618
59181W        W31507  21.950   0.304  13.358
59182W        W31508  25.306  30.499   2.859
59183W        W31509   3.399  35.537   2.904
59184W        W31510   9.437  32.972  11.507
59185W        W31511   0.835  25.405   2.015
59186W        W31512  31.843  10.725  11.299
59187W        W31513   3.748  10.805   2.146
59188W        W31514  40.859  38.552   2.691
59189W        W31515  15.132   4.350   1.807
59190W        W31516  10.292   8.645   1.910
59191W        W31517  44.168  15.806  10.222
59192W        W31518  24.496   4.848   3.114
59193W        W31519   4.492   5.354   2.796
59194W        W31520  35.407  35.375   2.293
59195W        W31521  44.293  21.320  10.509
59196W        W31522  39.034  40.317   0.381
59197W        W31523   9.186  29.700  12.064
59198W        W31524  42.131  29.964   2.834
59199W        W31525  38.791  21.697   3.218
59200W        W31526   3.674  14.254   1.936
59201W        W31527  20.029  27.409   4.900
59202W        W31528  13.148   7.253   3.188
59203W        W31529  16.565  12.779   3.317
59204W        W31530  25.290  39.178   5.529
59205W        W31531  33.077  37.328  14.043
59206W        W31532  32.586  34.606  12.850
59207W        W31533  25.188  19.696  14.487
59208W        W31534   6.664   2.772   2.737
59209W        W31535  35.854  33.116  11.916
59210W        W31536  17.524   9.744  11.456
59211W        W31537  23.113  34.941  14.706
59212W        W31538  14.114  30.372   2.958
59213W        W31539  15.206  15.280  10.461
59214W        W31540  41.529   6.886  12.118
59215W        W31541  12.864   7.908   0.474
59216W        W31542   4.023  22.518   2.123
59217W        W31543  40.454  10.858  12.820
59218W        W31544  10.662  13.194   1.367
59219W        W31545  32.688  37.010  13.440
59220W        W31546  35.255  26.781  11.091
59221W        W31547   2.933   0.768   4.287
59222W        W31548   9.908  27.857   2.836
59223W        W31549  12.273   4.530  11.973
59224W        W31550  22.619  30.031   2.820
59225W        W31551  29.416  41.550  13.506
59226W        W31552   6.875  33.632  13.031
59227W        W31553  32.409  24.007  13.096
59228W        W31554   5.331   8.161   2.830
59229W        W31555  20.773  43.599   2.901
59230W        W31556  27.707  37.455  13.949
59231W        W31557   7.200   6.172  11.204
59232W        W31558  27.161   0.174   3.289
59233W        W31559  23.721  17.642   2.296
59234W        W31560  36.840   9.822   0.814
59235W        W31561  24.000  41.308   2.241
59236W        W31562   6.297  23.881  11.946
59237W        W31563  11.180   6.589   2.248
59238W        W31564  14.603  34.603  11.558
59239W        W31565  40.327   4.602   2.775
59240W        W31566  27.888  44.780   0.498
59241W        W31567  39.744  39.516   0.740
59242W        W31568  24.599  24.404   1.349
59243W        W31569  28.435  21.015   4.350
59244W        W31570   1.436  25.637   4.040
59245W        W31571  12.620  38.062  12.510
59246W        W31572   3.310  28.603   4.174
59247W        W31573  21.378  24.406  11.188
59248W        W31574  42.581  31.450   0.499
59249W        W31575  24.166  12.291   0.362
59250W        W31576  35.371  12.256  12.926
59251W        W31577   1.876  42.481  14.375
59252W        W31578   4.749  11.299   2.782
59253W        W31579  42.489  30.521   0.986
59254W        W31580  10.759   2.743   4.499
59255W        W31581  34.051  12.471  13.912
59256W        W31582  12.488   1.579  11.159
59257W        W31583  38.119  28.698  13.018
59258W        W31584  10.337  16.633   0.948
59259W        W31585  36.787  30.505   4.043
59260W        W31586  16.025  26.602   3.401
59261W        W31587  10.201  12.607  14.001
59262W        W31588  29.667  16.148  13.808
59263W        W31589  21.185   6.380  11.090
59264W        W31590   7.155  39.415  14.950
59265W        W31591  38.129  34.719  11.207
59266W        W31592  21.760   4.955   3.127
59267W        W31593  17.287  17.960  13.767
59268W        W31594  41.832  33.355  10.844
59269W        W31595  17.243   8.756  10.601
59270W        W31596   9.436   1.378  12.490
59271W        W31597   4.172  16.079   2.276
59272W        W31598  24.477   7.507  11.647
59273W        W31599  44.838   6.428  10.649
59274W        W31600  26.385  37.411  13.004
59275W        W31601   2.855  41.338  14.361
59276W        W31602   7.854   7.410  10.753
59277W        W31603   3.663  19.840  10.345
59278W        W31604  19.483  36.122   1.401
59279W        W31605  30.524  35.501   1.166
59280W        W31606   9.927  23.922  10.096
59281W        W31607  21.669  14.827   0.270
59282W        W31608  24.076  13.015  14.302
59283W        W31609  13.668  25.009   0.844
59284W        W31610  41.491  22.226  11.525
59285W        W31611  17.951  34.922  14.607
59286W        W31612  21.322  23.093  13.917
59287W        W31613   8.346  16.329  14.395
59288W        W31614   2.533   7.132   4.203
59289W        W31615  38.429  11.705   4.699
59290W        W31616  41.604   3.843   3.623
59291W        W31617  32.477  12.927   4.277
59292W        W31618  38.466   8.758  10.952
59293W        W31619   0.673   6.736   0.300
59294W        W31620  14.801   0.323   1.950
59295W        W31621   2.188  24.573   3.664
59296W        W31622  18.559   7.941   3.144
59297W        W31623  29.101  14.840  12.090
59298W        W31624   4.520   6.260  14.423
59299W        W31625  30.425  18.807   3.588
59300W        W31626  13.406   8.065  13.602
59301W        W31627  39.959  31.644  14.741
59302W        W31628  22.660  42.072  14.813
59303W        W31629   4.746   1.493   1.779
59304W        W31630  42.564   8.655   3.866
59305W        W31631  44.263   4.781  13.328
59306W        W31632   3.933  29.275  12.115
59307W        W31633  30.324  42.286   0.895
59308W        W31634  41.821  36.500   3.150
59309W        W31635   1.869  28.475   4.599
59310W        W31636  25.612  10.477  11.823
59311W        W31637  14.322  10.311  12.811
59312W        W31638  29.217   7.366  13.428
59313W        W31639  31.609  24.054  12.495
59314W        W31640  36.722  34.630   4.128
59315W        W31641  38.487  39.977   1.836
59316W        W31642  10.742  24.211   1.817
59317W        W31643  38.522  21.655  14.369
59318W        W31644  11.187  16.270   4.255
59319W        W31645  33.974  19.673  14.923
59320W        W31646  27.723  43.801   3.394
59321W        W31647   4.018   6.854  14.965
59322W        W31648  12.311  43.932  12.778
59323W        W31649  39.064  28.425  14.810
59324W        W31650  35.019  30.364   4.613
59325W        W31651  34.320  36.683   0.861
59326W        W31652  36.614  21.490  11.264
59327W        W31653   4.680  44.764   1.426
59328W        W31654  18.691  30.042  11.090
59329W        W31655   3.250  29.380  12.946
59330W        W31656  15.891  40.951  13.211
59331W        W31657  34.357   9.647   1.858
59332W        W31658  34.514   2.553   1.994
59333W        W31659  27.352  13.930  11.541
59334W        W31660   2.724  11.230  14.967
59335W        W31661  13.293  22.518   3.847
59336W        W31662   5.725  22.477  11.412
59337W        W31663   5.754  39.586   0.990
59338W        W31664  32.134  28.102  12.067
59339W        W31665  15.396  43.876  11.282
59340W        W31666  37.810  35.543   2.734
59341W        W31667  34.779  10.630   3.606
59342W        W31668  14.099  29.268   1.316
59343W        W31669  11.765  17.021   0.878
59344W        W31670   7.941  18.610  12.316
59345W        W31671  43.089   2.412  12.018
59346W        W31672  30.818  27.563  11.928
59347W        W31673  17.844  16.735  11.527
59348W        W31674  12.282   4.939   3.196
59349W        W31675  12.658   2.665   4.177
59350W        W31676  30.204  12.735   3.776
59351W        W31677   4.687  13.549   2.311
59352W        W31678   1.216  10.087  14.474
59353W        W31679  26.673  41.941   0.847
59354W        W31680  29.496  28.671   3.398
59355W        W31681  37.576  42.423   2.864
59356W        W31682  15.832  18.820   2.248
59357W        W31683  36.894  28.600   1.815
59358W        W31684   0.026  40.920  12.049
59359W        W31685  40.360  40.931   2.397
59360W        W31686  20.739  38.138  12.812
59361W        W31687  42.306   9.831  14.768
59362W        W31688  32.957  33.922  11.566
59363W        W31689  24.774  18.366   1.640
59364W        W31690  12.634  38.899  12.040
59365W        W31691   2.333   4.930  12.780
59366W        W31692   4.722  22.539   0.855
59367W        W31693  20.631   7.248  12.008
59368W        W31694   7.578  30.628  13.785
59369W        W31695  17.074  25.480   4.175
59370W        W31696  18.909  17.649  10.845
59371W        W31697  36.031  15.196   4.175
59372W        W31698  16.199  38.634  13.373
59373W        W31699  20.491  36.143   2.835
59374W        W31700  15.687  15.377   2.413
59375W        W31701  17.800   1.703   2.716
59376W        W31702   2.174  28.984  11.401
59377W        W31703  16.383   0.961   2.668
59378W        W31704  41.748  32.869  10.697
59379W        W31705  26.129  12.645   4.385
59380W        W31706   0.912  14.241   5.047
59381W        W31707  39.730   4.040  11.361
59382W        W31708  42.522  42.541   3.613
59383W        W31709  37.264  12.684   4.968
59384W        W31710  41.366  44.554   1.188
59385W        W31711   2.883  42.366   4.121
59386W        W31712  11.747   8.877   3.139
59387W        W31713  19.043   4.908   0.403
59388W        W31714  24.026  19.934  12.444
59389W        W31715  38.476  41.103   1.361
59390W        W31716  29.884  11.152  11.054
59391W        W31717   3.262   9.243   9.799
59392W        W31718  25.442  28.965  12.846
59393W        W31719  25.432  28.859   1.588
59394W        W31720  43.534  12.622  14.304
59395W        W31721  21.223  42.255   0.732
59396W        W31722  38.852  35.901   1.355
59397W        W31723  41.531   3.710   4.509
59398W        W31724  27.152   4.617   1.282
59399W        W31725  27.565  16.793  12.986
59400W        W31726  26.196   9.716   3.614
59401W        W31727   8.887   2.820   1.465
59402W        W31728  35.567  41.332  14.457
59403W        W31729   7.686  44.445   0.449
59404W        W31730  16.304  35.394   0.830
59405W        W31731  33.612  29.083  10.614
59406W        W31732  16.277  16.710  13.369
59407W        W31733  43.965  33.895  14.547
59408W        W31734  41.976  24.439   2.747
59409W        W31735  24.516  17.456  10.112
59410W        W31736  33.592   7.030   1.942
59411W        W31737  44.293  30.688  10.841
59412W        W31738   3.903  34.392  14.430
59413W        W31739  29.604  40.388   3.105
59414W        W31740  35.898  17.622  14.904
59415W        W31741  21.674  36.014   2.307
59416W        W31742   1.264  12.772   3.345
59417W        W31743  21.060  19.017   0.817
59418W        W31744  21.281  33.646  10.981
59419W        W31745  35.281  15.718  10.744
59420W        W31746  33.378  43.785  13.353
59421W        W31747  20.077  34.067   1.804
59422W        W31748   7.780  31.110  11.928
59423W        W31749  39.232   5.757  13.871
59424W        W31750  41.533  29.215   3.662
59425W        W31751  33.856  20.026   2.356
59426W        W31752  39.233  14.612  13.663
59427W        W31753  44.224  13.415  10.817
59428W        W31754  18.764  41.495   1.349
59429W        W31755  42.530  18.469   2.412
59430W        W31756   5.172   9.181   1.628
59431W        W31757  44.435  30.326   9.899
59432W        W31758  31.106  20.997   2.895
59433W        W31759   9.234  13.649  13.279
59434W        W31760   2.342   2.422   2.821
59435W        W31761   0.285  44.922  14.084
59436W        W31762  40.802   6.833   1.926
59437W        W31763  22.133   0.956   3.701
59438W        W31764  32.123  27.915  12.915
59439W        W31765  44.274  44.836   4.360
59440W        W31766  30.688  29.018   4.047
59441W        W31767  21.289   1.917  14.383
59442W        W31768  15.647  37.539  13.891
59443W        W31769  22.222  14.470   2.003
59444W        W31770   7.016  18.104   2.673
59445W        W31771  25.511   1.181   4.563
59446W        W31772  34.352  27.120   0.243
59447W        W31773  15.326  21.459  12.773
59448W        W31774  24.141  20.268  11.588
59449W        W31775  13.792  34.930   2.793
59450W        W31776  36.241   6.159   0.411
59451W        W31777  23.954  24.003   0.740
59452W        W31778  30.055   5.695   3.222
59453W        W31779   7.712  19.476  10.027
59454W        W31780  24.391  26.665   0.319
59455W        W31781  14.167   6.240   0.407
59456W        W31782  14.971  26.186  13.961
59457W        W31783  26.502  40.892   0.575
59458W        W31784  35.189  34.431  12.765
59459W        W31785  19.125   4.382   3.364
59460W        W31786  14.562  40.842  10.732
59461W        W31787   9.653  44.303  10.302
59462W        W31788  35.706  32.439  10.682
59463W        W31789  17.064  43.361   0.932
59464W        W31790  44.024  33.050  13.684
59465W        W31791   0.069  21.849   3.678
59466W        W31792  18.370  13.790  10.751
59467W        W31793   2.411  16.132   2.255
59468W        W31794  31.118  28.698  12.977
59469W        W31795  25.517  24.245  12.302
59470W        W31796  12.191  23.362   3.244
59471W        W31797  16.004  38.425   4.550
59472W        W31798   7.220   5.696  12.433
59473W        W31799  40.291  39.134   3.222
59474W        W31800  23.243  37.058   0.725
59475W        W31801  41.754  38.265  12.443
59476W        W31802  17.773   4.854  13.817
59477W        W31803  39.381  33.693  12.581
59478W        W31804  15.565  15.653   4.154
59479W        W31805   8.264   0.773  12.894
59480W        W31806  19.740  13.126   1.324
59481W        W31807  16.615  35.922   2.914
59482W        W31808  20.748   6.399  13.041
59483W        W31809  30.153   1.375  12.036
59484W        W31810   8.108  31.989  11.249
59485W        W31811   9.296  39.988  10.923
59486W        W31812   9.606  24.187   0.942
59487W        W31813  44.969  26.948   3.384
59488W        W31814  24.482  19.519   3.037
59489W        W31815  25.683   3.096   4.862
59490W        W31816  44.440  34.356   1.759
59491W        W31817  14.609   0.226  11.987
59492W        W31818   4.672  41.114  13.004
59493W        W31819  15.363  27.545   4.441
59494W        W31820  21.196  12.854   2.825
59495W        W31821  42.370  31.439   0.979
59496W        W31822  32.941  28.092   2.602
59497W        W31823   8.650   2.531  13.080
59498W        W31824  11.595  17.623  12.770
59499W        W31825  44.010   1.912  13.531
59500W        W31826   8.442   4.196   0.862
59501W        W31827  28.376  27.342  12.503
59502W        W31828   6.152  43.911  11.289
59503W        W31829  25.481  34.566  13.916
59504W        W31830  17.555   5.271  13.153
59505W        W31831   2.837   3.641  13.681
59506W        W31832   7.465  43.519   2.194
59507W        W31833   8.834  23.035  12.044
59508W        W31834  39.637  21.246  13.875
59509W        W31835  13.287  28.378   4.579
59510W        W31836  11.849  12.397   1.343
59511W        W31837  22.115  15.785   0.492
59512W        W31838  24.910  26.096  10.657
59513W        W31839   1.730  36.335   3.793
59514W        W31840  17.093  18.550  10.710
59515W        W31841   3.396  34.981  13.552
59516W        W31842  13.127  31.566   2.760
59517W        W31843  23.036  38.247  13.085
59518W        W31844  41.092  23.486  11.924
59519W        W31845  25.889  17.772  11.543
59520W        W31846  28.172  20.577  14.243
59521W        W31847   8.796  41.267  11.588
59522W        W31848  18.440   5.714  14.505
59523W        W31849  39.639  42.826   0.802
59524W        W31850  11.311   5.907  10.532
59525W        W31851   9.388  40.988  14.326
59526W        W31852  18.581  11.872  14.027
59527W        W31853  26.434  14.907  13.484
59528W        W31854  15.793  43.836  12.854
59529W        W31855  18.989  41.408   0.833
59530W        W31856   1.855  43.553   0.256
59531W        W31857  22.549  34.547  13.386
59532W        W31858  21.855  20.754   2.115
59533W        W31859  28.399  26.054  10.437
59534W        W31860  12.086  44.393   4.655
59535W        W31861  41.344  15.569   2.216
59536W        W31862  39.015   0.511  13.949
59537W        W31863   6.279  35.548  10.752
59538W        W31864   8.672  32.433  14.365
59539W        W31865  27.050  22.760   4.065
59540W        W31866  44.706   4.622  12.211
59541W        W31867  27.940  21.691  12.428
59542W        W31868  10.279   6.856  13.276
59543W        W31869  30.993  31.905   1.695
59544W        W31870   2.653   3.407   2.337
59545W        W31871  23.201   8.992   2.624
59546W        W31872  24.729   9.312   1.312
59547W        W31873   2.255   5.878   1.342
59548W        W31874  30.306  37.384  14.808
59549W        W31875  15.546  18.778   5.043
59550W        W31876  22.668   4.068   1.236
59551W        W31877  17.593  19.738   0.216
59552W        W31878  36.721  35.505  14.398
59553W        W31879  38.449  11.929  13.912
59554W        W31880  11.374   4.800   0.347
59555W        W31881  37.915   5.515   4.156
59556W        W31882   3.264   1.682   3.222
59557W        W31883  41.242  34.827  11.441
59558W        W31884  17.872  34.884   3.275
59559W        W31885  41.264  32.658  12.935
59560W        W31886  10.729   4.297  11.948
59561W        W31887  35.514  32.643  11.183
59562W        W31888   3.527  20.629  11.050
59563W        W31889  22.371   3.762   0.312
59564W        W31890  17.765  29.037  11.897
59565W        W31891  19.069  36.164   4.903
59566W        W31892  15.570  17.299  14.804
59567W        W31893  26.309  13.984  13.545
59568W        W31894  38.987  31.806  12.270
59569W        W31895  20.386  39.516  14.936
59570W        W31896  22.495  41.653  11.614
59571W        W31897  18.052  41.546   0.725
59572W        W31898  24.007   5.348   3.701
59573W        W31899   8.363  37.010  14.978
59574W        W31900  31.043   2.747   2.390
59575W        W31901   4.366  25.627   0.865
59576W        W31902   9.605  11.325   0.478
59577W        W31903  27.630  23.087  13.410
59578W        W31904  34.404  34.992  10.387
59579W        W31905   2.327  20.496   4.623
59580W        W31906  18.656  12.434   5.142
59581W        W31907  29.856   0.526   3.610
59582W        W31908  38.631  42.404   0.424
59583W        W31909   1.504  15.299   1.653
59584W        W31910  26.091   5.429   0.398
59585W        W31911  37.082   6.448   0.516
59586W        W31912  38.428  21.543   4.076
59587W        W31913   5.308  25.663  14.827
59588W        W31914  27.505  44.987   1.661
59589W        W31915   2.047   4.577   4.041
59590W        W31916  14.290   2.135  12.005
59591W        W31917  10.683  21.467   4.183
59592W        W31918  20.587   2.012  14.505
59593W        W31919  32.989  22.118   3.576
59594W        W31920   0.060  25.981  12.900
59595W        W31921   2.283   1.350   0.421
59596W        W31922   6.231  41.543   4.687
59597W        W31923  23.411  41.907   2.655
59598W        W31924  19.273  35.145   4.523
59599W        W31925  44.242  16.133   2.861
59600W        W31926  35.651  39.759   4.155
59601W        W31927  31.610  31.634   4.742
59602W        W31928  31.227  42.885  14.530
59603W        W31929  43.974  34.358  13.605
59604W        W31930  29.867  22.172   1.268
59605W        W31931  35.731  26.164  11.627
59606W        W31932  39.795  37.837  12.471
59607W        W31933  24.535  29.857   0.554
59608W        W31934  33.118  10.867  14.776
59609W        W31935   9.088  35.682  11.179
59610W        W31936  30.012  39.423  13.151
59611W        W31937  11.891  27.426   1.465
59612W        W31938  35.487  10.990   1.191
59613W        W31939  17.841  18.309   2.021
59614W        W31940  18.491  17.930  14.466
59615W        W31941  39.451  23.261  11.668
59616W        W31942   6.765  13.304  13.410
59617W        W31943   3.444  23.705  14.438
59618W        W31944  14.198  23.508  12.088
59619W        W31945  26.140  43.189   4.169
59620W        W31946  13.384  40.508  12.566
59621W        W31947  41.665   0.442   4.599
59622W        W31948  21.393  32.955  10.412
59623W        W31949   6.433  29.871   1.921
59624W        W31950  44.828  36.132  11.106
59625W        W31951  25.546  34.118   0.771
59626W        W31952  25.130  24.746  14.804
59627W        W31953  13.701   3.183  11.113
59628W        W31954  27.494  40.944   3.615
59629W        W31955  34.476  40.523   1.889
59630W        W31956  16.524  19.156  12.901
59631W        W31957  26.626  24.041   2.343
59632W        W31958  38.911   9.341  12.834
59633W        W31959   4.783  38.029   4.645
59634W        W31960  24.561  19.914   4.941
59635W        W31961  35.657  20.049   1.887
59636W        W31962  18.055  21.363  11.146
59637W        W31963   6.986   4.504  12.453
59638W        W31964  14.715  22.238  12.009
59639W        W31965  32.940  18.032   4.583
59640W        W31966   7.804  35.603  11.169
59641W        W31967  34.999  30.546  14.709
59642W        W31968  20.075   3.465   2.152
59643W        W31969  36.872  23.292   0.277
59644W        W31970  44.713  33.001  11.954
59645W        W31971   6.890   4.160   1.962
59646W        W31972  35.695  13.799  10.774
59647W        W31973  18.991   4.279   3.850
59648W        W31974  42.803  41.880  13.435
59649W        W31975  37.883  42.404   1.948
59650W        W31976   5.013  13.426  14.774
59651W        W31977  33.021   0.068  10.409
59652W        W31978  26.646  20.972  14.836
59653W        W31979  25.848  15.185   0.776
59654W        W31980   5.745  31.620   1.701
59655W        W31981  21.999  35.144  12.863
59656W        W31982   2.066  17.710   0.697
59657W        W31983  10.587  37.496  13.349
59658W        W31984  33.919   6.598   2.243
59659W        W31985  34.604  40.364  10.672
59660W        W31986  35.318  17.557  14.072
59661W        W31987  38.400  16.412  10.597
59662W        W31988  15.977  43.262   2.864
59663W        W31989  12.808  24.156  12.171
59664W        W31990  18.949  26.885  13.781
59665W        W31991  22.948   7.413  12.974
59666W        W31992  36.071  23.928   1.814
59667W        W31993   7.241  34.591   4.681
59668W        W31994   7.627  32.645   2.277
59669W        W31995  37.838   4.152  13.984
59670W        W31996  21.413  10.738   3.240
59671W        W31997  33.045  34.463  14.333
59672W        W31998  18.226  42.002   1.605
59673W        W31999  16.351  38.914   2.243
59674W        W32000  15.192  15.304  10.973
59675W        W32001  15.068   7.834  13.912
59676W        W32002   1.665   9.299   3.696
59677W        W32003  35.719  42.393  10.613
59678W        W32004  44.330  30.725  14.161
59679W        W32005  28.300  13.103  10.763
59680W        W32006  43.976  21.156  10.089
59681W        W32007  40.007  44.315   4.508
59682W        W32008   3.628  39.406  13.434
59683W        W32009  33.899   5.183  14.371
59684W        W32010   5.996  17.217   1.381
59685W        W32011   9.293  17.764  12.431
59686W        W32012  11.170  39.018   3.700
59687W        W32013  39.086  19.778   1.001
59688W        W32014  24.917  27.027   1.564
59689W        W32015   0.387  40.773  14.976
59690W        W32016  15.019  15.741   2.855
59691W        W32017  35.923  10.275   4.689
59692W        W32018  29.092  33.126  12.941
59693W        W32019  25.670   3.495  12.977
59694W        W32020   8.795  43.885  13.440
59695W        W32021   9.437  12.777   4.386
59696W        W32022  20.848  37.595   0.246
59697W        W32023  15.712  39.786   3.567
59698W        W32024  44.045  41.145   4.516
59699W        W32025  12.332  13.515   0.692
59700W        W32026  42.268  39.945  12.040
59701W        W32027  21.498  22.673   1.840
59702W        W32028  44.064  10.189   4.851
59703W        W32029  12.321  10.323   3.239
59704W        W32030   2.684  24.737   0.986
59705W        W32031  34.843  20.649   1.309
59706W        W32032  20.561  37.401  13.956
59707W        W32033  44.978  22.696  11.500
59708W        W32034  17.115  12.589  13.318
59709W        W32035  23.493  22.408   1.405
59710W        W32036  24.503  17.233   3.176
59711W        W32037  10.463  42.717   1.275
59712W        W32038  35.930   6.270  13.845
59713W        W32039  30.787  11.625  12.891
59714W        W32040  25.057  24.195   1.305
59715W        W32041  43.724  16.835  13.873
59716W        W32042  26.686   6.737  12.613
59717W        W32043  26.672  34.531   1.449
59718W        W32044  43.465  30.891  11.899
59719W        W32045  17.644  21.237  12.382
59720W        W32046  36.841  42.502  14.956
59721W        W32047   9.135  18.874   0.450
59722W        W32048  23.831  21.050  12.321
59723W        W32049  14.387  23.675  11.511
59724W        W32050  19.036  17.219  14.272
59725W        W32051  14.951  12.184  11.672
59726W        W32052  44.732  27.949   2.385
59727W        W32053  20.734  17.220   0.748
59728W        W32054  38.027  30.129   1.882
59729W        W32055  10.657   5.187  11.931
59730W        W32056  14.361   9.265   4.146
59731W        W32057   4.202   6.302  10.745
59732W        W32058  20.717   8.875  14.862
59733W        W32059  39.350   4.548   1.703
59734W        W32060  20.202  13.630  12.289
59735W        W32061   7.275  37.507  14.804
59736W        W32062   1.132  35.304   4.114
59737W        W32063  27.704  32.595   2.282
59738W        W32064  24.536  23.191   4.500
59739W        W32065  13.351  39.628  13.403
59740W        W32066  37.502  19.551   0.735
59741W        W32067   9.186  44.644   5.244
59742W        W32068   8.332   0.083   1.488
59743W        W32069  23.520   0.285   2.589
59744W        W32070   2.561  12.872  11.184
59745W        W32071  28.569  25.557   2.225
59746W        W32072  33.260  10.679  13.782
59747W        W32073  18.769  22.780  11.979
59748W        W32074  29.210  37.581   3.362
59749W        W32075  35.976  29.121   1.732
59750W        W32076  26.125  21.281  11.658
59751W        W32077   3.010  26.188   1.186
59752W        W32078   8.496   2.081   4.574
59753W        W32079  39.088  23.069  10.710
59754W        W32080  33.272  14.125  10.394
59755W        W32081  39.359  24.419  14.766
59756W        W32082  22.946  11.798  13.990
59757W        W32083   5.121  24.711   3.819
59758W        W32084  24.551  17.659  10.581
59759W        W32085  41.016  11.226   3.631
59760W        W32086  31.200   8.467   4.075
59761W        W32087   8.196  27.184   3.450
59762W        W32088  18.133  11.470   3.021
59763W        W32089   8.297  41.750  14.334
59764W        W32090  21.992  18.597  14.892
59765W        W32091  26.277  23.557   2.769
59766W        W32092  27.637   5.686  11.553
59767W        W32093  26.602   9.306   4.741
59768W        W32094  11.294  16.278  13.560
59769W        W32095   3.753   8.147   1.800
59770W        W32096  36.915  30.526   2.234
59771W        W32097  39.826   4.421   2.772
59772W        W32098  31.398  15.824  10.754
59773W        W32099  43.042   9.939   1.538
59774W        W32100   8.634  20.193  11.195
59775W        W32101  20.417   0.972  11.536
59776W        W32102  23.802  10.190   1.860
59777W        W32103  34.832  41.446   2.396
59778W        W32104  10.138  42.888   1.640
59779W        W32105   5.723   1.638  10.993
59780W        W32106  13.260   7.943   1.378
59781W        W32107   8.249  33.479  14.877
59782W        W32108  42.994   3.392   2.649
59783W        W32109   3.765  38.478  13.553
59784W        W32110   4.972  28.776  11.484
59785W        W32111  26.666  40.025   3.852
59786W        W32112   3.596  18.694   1.307
59787W        W32113  22.675  16.454   2.263
59788W        W32114   5.356  14.558  11.998
59789W        W32115   2.039   2.055   0.289
59790W        W32116  19.234  41.663  13.004
59791W        W32117   0.795   8.699  12.127
59792W        W32118  17.835  11.642   2.292
59793W        W32119  39.834  32.097   3.674
59794W        W32120   1.747  11.147   3.110
59795W        W32121   6.006   6.869  11.110
59796W        W32122  30.088  24.664   4.578
59797W        W32123   8.946  19.006  12.098
59798W        W32124  37.431  31.893   1.946
59799W        W32125  19.266  13.931   4.975
59800W        W32126  44.460  38.962   1.629
59801W        W32127  12.853  36.582   1.333
59802W        W32128  11.861  36.120  11.941
59803W        W32129  18.165   5.396   2.789
59804W        W32130  38.244  22.553   0.263
59805W        W32131  39.263  16.849  10.454
59806W        W32132  39.939  33.399  11.344
59807W        W32133  20.112  18.063   0.583
59808W        W32134   2.751  11.764   1.154
59809W        W32135   1.403  24.490  12.825
59810W        W32136  38.105   7.360  14.450
59811W        W32137  23.273  24.898  13.467
59812W        W32138  21.559  10.758  13.286
59813W        W32139  26.434  19.565   3.919
59814W        W32140  11.246  32.967  13.901
59815W        W32141  24.120  42.746   0.145
59816W        W32142  30.601   1.871  12.420
59817W        W32143   9.288  38.613  12.074
59818W        W32144  16.726  37.634   2.844
59819W        W32145   5.449  29.635   2.247
59820W        W32146  27.631  16.304  13.131
59821W        W32147  23.011  36.812   0.338
59822W        W32148  35.812  25.056  14.434
59823W        W32149  20.713  34.488  12.053
59824W        W32150  24.083  19.497  13.840
59825W        W32151  22.150  11.776   3.624
59826W        W32152  20.627  39.936   3.606
59827W        W32153  24.091  20.973   3.300
59828W        W32154  38.306   6.010  12.921
59829W        W32155  39.290  23.230   4.746
59830W        W32156  24.646  39.386   4.972
59831W        W32157  15.224  21.760   1.697
59832W        W32158  27.828  26.193   0.429
59833W        W32159  26.137  32.414  12.375
59834W        W32160  30.337  28.011  11.641
59835W        W32161  21.011   8.225   3.632
59836W        W32162  26.033  22.187   0.425
59837W        W32163  39.514  39.087  10.702
59838W        W32164  36.568  16.986   4.624
59839W        W32165  24.922  13.608  13.371
59840W        W32166  43.210  29.031   0.909
59841W        W32167  31.893  41.831   0.454
59842W        W32168  16.821  22.148  11.573
59843W        W32169  25.046  12.819   1.421
59844W        W32170  38.544  22.687  12.039
59845W        W32171  30.581  31.443  13.314
59846W        W32172  31.988  36.037  11.157
59847W        W32173  34.215   7.750  10.845
59848W        W32174  20.923  12.148  14.945
59849W        W32175  24.602  14.276   1.689
59850W        W32176  26.077   6.715   3.706
59851W        W32177  39.124  20.604   3.929
59852W        W32178  18.098  28.546   3.222
59853W        W32179   2.955  41.586   0.740
59854W        W32180  26.255  27.405   5.522
59855W        W32181   7.955  23.495  10.706
59856W        W32182  30.662  33.516   1.787
59857W        W32183  10.932  12.135   0.869
59858W        W32184  34.073  10.095   1.924
59859W        W32185  42.311   9.477  12.420
59860W        W32186  41.326  17.771  12.539
59861W        W32187  39.951  25.437   3.241
59862W        W32188   2.926  14.539  14.823
59863W        W32189   7.812  25.753   0.745
59864W        W32190  10.320  28.721  12.859
59865W        W32191  42.507  17.250  13.976
59866W        W32192   7.245  42.989   3.908
59867W        W32193   4.151  19.657  13.932
59868W        W32194  30.059   0.450   4.865
59869W        W32195  17.793   4.799  14.352
59870W        W32196  18.730  23.791   1.446
59871W        W32197  11.731  11.165  12.931
59872W        W32198  15.649  40.123  14.492
59873W        W32199  20.791  15.369   3.379
59874W        W32200   1.499  36.133   3.341
59875W        W32201  28.604  23.479  12.949
59876W        W32202  33.837  23.405   3.121
59877W        W32203   2.991  18.843  11.749
59878W        W32204  22.754  19.797   0.752
59879W        W32205  40.931   1.221   3.719
59880W        W32206  20.967   6.417   4.548
59881W        W32207   8.364  24.147   1.456
59882W        W32208  24.299  41.551  12.457
59883W        W32209  19.218  37.648  11.805
59884W        W32210  15.704   4.911  10.726
59885W        W32211   6.342  35.364  13.486
59886W        W32212  15.771  32.370   1.708
59887W        W32213  27.624  41.312   1.988
59888W        W32214  21.694  30.721  14.082
59889W        W32215   0.985  43.123   3.260
59890W        W32216  14.986   7.063   0.903
59891W        W32217  38.256  12.725  14.527
59892W        W32218  31.831   1.420   4.886
59893W        W32219  12.171  24.059  14.990
59894W        W32220  16.285   6.468   3.686
59895W        W32221  27.221  27.912   0.880
59896W        W32222  36.161  40.890  12.016
59897W        W32223   6.313  21.298   4.727
59898W        W32224  23.593  21.732  12.893
59899W        W32225  34.589  34.116  12.797
59900W        W32226  44.822   3.324   2.921
59901W        W32227  11.831  30.577   2.139
59902W        W32228   3.670  19.953  14.883
59903W        W32229  10.983  28.639  12.494
59904W        W32230  23.328  14.793  10.988
59905W        W32231  39.312  27.159  13.674
59906W        W32232  24.553  35.070  10.669
59907W        W32233  44.220  10.713  12.943
59908W        W32234  38.529  11.802   1.012
59909W        W32235   6.289  28.621  11.087
59910W        W32236  18.552  23.806   0.189
59911W        W32237  35.297  28.014   4.287
59912W        W32238  28.516   0.623  13.947
59913W        W32239  20.057  18.818  12.866
59914W        W32240  18.848   0.634  14.903
59915W        W32241   3.811   0.304   3.650
59916W        W32242   1.249  26.473  12.820
59917W        W32243  33.615   9.894  10.287
59918W        W32244  13.806  33.507  12.840
59919W        W32245  31.875  31.158   2.801
59920W        W32246  13.196  33.980  10.733
59921W        W32247   9.721  40.039  11.985
59922W        W32248   7.651  39.224  10.703
59923W        W32249   9.703  12.728   0.524
59924W        W32250  19.058  21.598   0.348
59925W        W32251   7.782  11.092  14.873
59926W        W32252   5.462  24.659  10.923
59927W        W32253  44.565   3.396  12.848
59928W        W32254  42.283  33.631  13.278
59929W        W32255  39.878  30.455  13.597
59930W        W32256  31.403  20.113   2.830
59931W        W32257  35.548  22.475   4.375
59932W        W32258  27.636  31.641   3.238
59933W        W32259  36.769  31.441  10.731
59934W        W32260  37.381  43.835   4.872
59935W        W32261  21.129  19.068  12.156
59936W        W32262  30.087  39.408   1.228
59937W        W32263   1.599   5.388  10.996
59938W        W32264  25.138  20.279  13.612
59939W        W32265   7.658  35.483  13.806
59940W        W32266  31.426  26.884  12.796
59941W        W32267  29.854  24.298  13.267
59942W        W32268  32.763   5.274  13.534
59943W        W32269  29.708  15.704   5.084
59944W        W32270  10.432   8.508  11.525
59945W        W32271  37.039  14.099  14.438
59946W        W32272  44.024  16.680  14.278
59947W        W32273  15.332  19.262   4.799
59948W        W32274  13.566  33.671  13.765
59949W        W32275   0.946  36.292  11.660
59950W        W32276   1.352   3.025   4.215
59951W        W32277   7.306   4.397   2.176
59952W        W32278  44.267  20.245   2.831
59953W        W32279   9.903   2.310  13.451
59954W        W32280  41.211  20.462  10.648
59955W        W32281   2.906  29.722  13.282
59956W        W32282  12.782   5.090   0.108
59957W        W32283  33.361  27.078   1.223
59958W        W32284  14.686   1.375   4.642
59959W        W32285  22.455  36.409  11.214
59960W        W32286  23.339  37.089  11.247
59961W        W32287   0.346  40.482  12.000
59962W        W32288  33.158  39.491  14.385
59963W        W32289  41.918  21.038  10.648
59964W        W32290  25.677   3.455  14.665
59965W        W32291   2.028  19.473  14.418
59966W        W32292   8.285  35.516  13.524
59967W        W32293  35.614   5.337  12.355
59968W        W32294  28.457  36.391  11.146
59969W        W32295  26.755  22.489   1.168
59970W        W32296  44.659  14.437   0.210
59971W        W32297  34.808  22.680   0.851
59972W        W32298  14.139  43.213   1.192
59973W        W32299  41.539   6.915  14.781
59974W        W32300   2.778   3.961  10.676
59975W        W32301  16.058  12.734  11.304
59976W        W32302  34.064  40.012  11.617
59977W        W32303  31.516   7.095  13.025
59978W        W32304  41.793  33.429   3.608
59979W        W32305  26.592  32.399  14.372
59980W        W32306  22.372  39.403   0.402
59981W        W32307  24.526  28.871  13.872
59982W        W32308  26.149   6.264   4.035
59983W        W32309  16.909  24.134   3.383
59984W        W32310   3.611  41.806  11.064
59985W        W32311  43.022  28.008   3.811
59986W        W32312  35.905  35.754   9.632
59987W        W32313  27.808  31.514   1.203
59988W        W32314  10.048  37.030   0.824
59989W        W32315  30.863  26.169   3.447
59990W        W32316  40.480  44.027   2.250
59991W        W32317  38.497  43.341   2.571
59992W        W32318  24.064  10.473  13.419
59993W        W32319  37.467  12.747   1.348
59994W        W32320  36.977  32.056   0.476
59995W        W32321   1.442  15.839   2.600
59996W        W32322  12.303   1.666   3.596
59997W        W32323  43.682   8.707   0.706
59998W        W32324  17.664  39.419   4.819
59999W        W32325  44.867  18.292   4.113
60000W        W32326  43.736  22.304   0.950
60001W        W32327   5.730  18.990  12.185
60002W        W32328  41.769  12.747  13.047
60003W        W32329  23.017   9.598  13.532
60004W        W32330  20.737  14.672   2.122
60005W        W32331  31.248  37.185  14.928
60006W        W32332  15.691  10.329   4.612
60007W        W32333  10.781  41.580   1.797
60008W        W32334   1.945  37.335  10.628
60009W        W32335  32.579  31.698  10.745
60010W        W32336  36.807   9.725  13.990
60011W        W32337  38.358   3.941  12.176
60012W        W32338  30.748   8.175  14.913
60013W        W32339  38.230   5.426  11.952
60014W        W32340   4.168  37.921  10.821
60015W        W32341  12.458  40.469   3.946
60016W        W32342  32.029  43.378  13.932
60017W        W32343  15.806  19.172  12.464
60018W        W32344  10.666  10.855   2.715
60019W        W32345  13.253  38.911  13.466
60020W        W32346  19.452  38.413   2.904
60021W        W32347  30.341  41.286   1.184
60022W        W32348   0.911  33.518  10.620
60023W        W32349   6.619  33.007   3.641
60024W        W32350  21.695   1.259   3.696
60025W        W32351   5.949  34.522  11.176
60026W        W32352  35.154   1.676  14.464
60027W        W32353   4.341  14.523  11.509
60028W        W32354  36.068  37.594  13.817
60029W        W32355  20.138   6.685  11.119
60030W        W32356  42.227   4.968  10.809
60031W        W32357   3.918  15.266  11.043
60032W        W32358  18.775  41.017  13.524
60033W        W32359   0.048  30.932   4.609
60034W        W32360   9.975  20.951  12.111
60035W        W32361  20.551  30.628  12.573
60036W        W32362   3.865  23.237   3.650
60037W        W32363  44.345  26.432  14.878
60038W        W32364  39.354  38.324  13.104
60039W        W32365  13.779  32.151  13.805
60040W        W32366  30.501  12.292  14.833
60041W        W32367  23.382  44.039   1.330
60042W        W32368   7.993  33.051  11.812
60043W        W32369  33.532  40.703  13.361
60044W        W32370  39.924  20.100  14.228
60045W        W32371  27.886   4.826  11.195
60046W        W32372   6.485  26.490   1.897
60047W        W32373  32.930  11.350  14.779
60048W        W32374  11.100   3.410   4.098
60049W        W32375  39.587  22.534   2.129
60050W        W32376   4.994  39.303   3.642
60051W        W32377  37.063  40.037   3.288
60052W        W32378  35.619  13.779   3.295
60053W        W32379  32.264   6.775   0.922
60054W        W32380  27.464   7.945  10.725
60055W        W32381   5.874  33.007  14.297
60056W        W32382  19.665  14.784   0.566
60057W        W32383  42.410  33.846   4.655
60058W        W32384  19.614  43.455   4.698
60059W        W32385   9.886  27.668   1.367
60060W        W32386   7.600  38.388   3.856
60061W        W32387  19.039  31.860  12.050
60062W        W32388  21.741  18.328  13.889
60063W        W32389  37.996   7.128  12.438
60064W        W32390  28.378   9.252  14.788
60065W        W32391  44.430   4.604  14.642
60066W        W32392   1.865   2.035   5.372
60067W        W32393   9.825  15.316  10.845
60068W        W32394  30.408  42.280  12.944
60069W        W32395   3.341  19.643   2.368
60070W        W32396  37.780  15.810   1.894
60071W        W32397  23.828  33.094  13.460
60072W        W32398  44.321  36.965  11.005
60073W        W32399  43.937  10.587  11.246
60074W        W32400  41.087  27.790  14.053
60075W        W32401   2.801   1.429  13.769
60076W        W32402  40.867  43.257  14.044
60077W        W32403   0.316  20.510   2.821
60078W        W32404  31.832  16.115   2.796
60079W        W32405  12.335  26.524   1.785
60080W        W32406  32.498  11.274  14.461
60081W        W32407  38.059  41.226  11.235
60082W        W32408  16.722   4.046   4.627
60083W        W32409  19.206  38.515   1.732
60084W        W32410  37.526  20.590  14.330
60085W        W32411  21.226  30.216  14.749
60086W        W32412  19.091  31.212  10.662
60087W        W32413  13.252  39.059  14.954
60088W        W32414  15.265   6.013  12.420
60089W        W32415  13.697   6.731   3.775
60090W        W32416  41.274  29.903  14.799
60091W        W32417  17.593  32.111  12.409
60092W        W32418   6.795  37.966   3.658
60093W        W32419   1.392   1.943  14.047
60094W        W32420   9.567  44.288   0.829
60095W        W32421   3.410  42.524   3.354
60096W        W32422  38.085   8.895   4.553
60097W        W32423  36.155  43.279  12.793
60098W        W32424  39.981   0.337   2.579
60099W        W32425  16.599  12.672  13.108
60100W        W32426  36.411  37.899   1.894
60101W        W32427  28.686   9.263  13.392
60102W        W32428   6.763  21.227  10.675
60103W        W32429  27.601  37.953  14.353
60104W        W32430  42.833  19.982  13.818
60105W        W32431  35.543  28.582  13.635
60106W        W32432   4.673  28.212  12.564
60107W        W32433  27.423  21.206   3.566
60108W        W32434  11.399  18.362  12.505
60109W        W32435   1.398   8.549   4.929
60110W        W32436  35.199  41.086   0.774
60111W        W32437  10.844  13.280   2.879
60112W        W32438  32.446  18.857  14.895
60113W        W32439  23.290  42.761  13.326
60114W        W32440  29.660  33.103   1.387
60115W        W32441  41.776  39.968   2.315
60116W        W32442   1.561  35.852  13.071
60117W        W32443   0.872  12.182   0.930
60118W        W32444  13.114  42.438  11.207
60119W        W32445  31.372  27.178   1.348
60120W        W32446   2.861  20.816  10.160
60121W        W32447   4.411   1.692   4.568
60122W        W32448   5.099  30.934   4.129
60123W        W32449  21.188   7.518   0.189
60124W        W32450  19.957   8.319   1.082
60125W        W32451  34.188  35.423   4.580
60126W        W32452  17.144  38.538   1.948
60127W        W32453  42.820  19.959   3.664
60128W        W32454  14.580  27.121  11.984
60129W        W32455  12.836  37.681  10.902
60130W        W32456   4.785  40.283   0.365
60131W        W32457  10.685  38.815  13.280
60132W        W32458  20.838  38.320  11.080
60133W        W32459  44.476  20.929  12.429
60134W        W32460   2.120  44.748   5.067
60135W        W32461  40.014  14.169  12.563
60136W        W32462   6.819  13.256  10.738
60137W        W32463  13.428   9.164  14.937
60138W        W32464  11.133  17.634  14.498
60139W        W32465   3.861  27.448  10.749
60140W        W32466   1.450  33.067   3.666
60141W        W32467  29.585  29.138   0.216
60142W        W32468  13.648  29.145   0.006
60143W        W32469  16.383   8.667   1.401
60144W        W32470  43.417  44.178  12.146
60145W        W32471   3.405  11.787  11.540
60146W        W32472  11.172  30.380   4.220
60147W        W32473  34.571  26.819  11.114
60148W        W32474  30.917  26.505  13.887
60149W        W32475  24.699  17.379   5.389
60150W        W32476  30.962  30.802   4.349
60151W        W32477  30.703  15.641   4.602
60152W        W32478  22.406   1.415  14.117
60153W        W32479   4.928  40.433  12.443
60154W        W32480   1.263  40.227   4.104
60155W        W32481  20.128  42.770   4.944
60156W        W32482  18.943   5.355   4.361
60157W        W32483  43.928  10.318   1.384
60158W        W32484  20.273  11.890   2.788
60159W        W32485  24.098  34.849  13.359
60160W        W32486   8.638   5.664  13.503
60161W        W32487  18.280   6.662  10.800
60162W        W32488  14.632  34.491   5.151
60163W        W32489   1.829  37.857  10.683
60164W        W32490  32.125  33.398   3.180
60165W        W32491  11.886  37.765  13.968
60166W        W32492   1.421   4.043   9.819
60167W        W32493  37.286  16.742  11.504
60168W        W32494  37.868   0.178   1.835
60169W        W32495  17.682  29.160  10.882
60170W        W32496   9.150  21.508  14.413
60171W        W32497  41.597   4.816  14.355
60172W        W32498   2.169  41.534   2.169
60173W        W32499   5.407  35.436  13.437
60174W        W32500   7.742  23.741  13.565
60175W        W32501  27.477  16.811  14.791
60176W        W32502  24.897  41.820  12.022
60177W        W32503   3.366  32.965  10.264
60178W        W32504  23.172  25.950   2.815
60179W        W32505  26.741  16.296   4.255
60180W        W32506  30.491  30.088   2.717
60181W        W32507  10.656  14.702   2.986
60182W        W32508  15.078  28.923   4.535
60183W        W32509   6.746  32.259  13.251
60184W        W32510  43.857  20.318   3.152
60185W        W32511  22.558   7.631   5.122
60186W        W32512  17.066  33.365  12.943
60187W        W32513  40.838  37.073   2.170
60188W        W32514  30.501  25.762  14.898
60189W        W32515  41.479  13.263  10.740
60190W        W32516  38.976  24.784  12.459
60191W        W32517  11.369  27.451   1.421
60192W        W32518  32.658  15.984   2.184
60193W        W32519  13.139   6.127   4.109
60194W        W32520  22.927  23.148  14.954
60195W        W32521  29.509  43.515  13.083
60196W        W32522  19.555  32.727  14.477
60197W        W32523  18.701  15.002  14.256
60198W        W32524  24.139   7.093   1.233
60199W        W32525  21.213  16.847   2.432
60200W        W32526  40.515  41.842   3.642
60201W        W32527  11.679  26.207   1.930
60202W        W32528  30.536  27.180   0.387
60203W        W32529  41.410  21.490  10.691
60204W        W32530   3.701  36.811   4.073
60205W        W32531  12.162  43.591  13.139
60206W        W32532  35.052   2.402   2.194
60207W        W32533  15.335  32.160   3.271
60208W        W32534  42.624  31.558  12.522
60209W        W32535  11.711  24.383  12.162
60210W        W32536   6.726  35.107  10.917
60211W        W32537  41.432  41.382  11.422
60212W        W32538  19.627  37.099   1.284
60213W        W32539  31.483  43.562   1.417
60214W        W32540  29.005  39.296  10.770
60215W        W32541   1.388  33.333  12.268
60216W        W32542  27.717  31.460   3.768
60217W        W32543  18.353  37.961  12.131
60218W        W32544   6.056  42.978   0.574
60219W        W32545  35.017  37.037   0.525
60220W        W32546   1.317   3.240   4.967
60221W        W32547   4.255  22.916   5.313
60222W        W32548  33.245   5.352  13.327
60223W        W32549  30.442  19.838   1.165
60224W        W32550  10.691  10.815   0.995
60225W        W32551  44.026   7.837  13.405
60226W        W32552  44.853  24.464   1.453
60227W        W32553  39.654  17.669  13.572
60228W        W32554  27.802  19.878   0.431
60229W        W32555  43.518  13.297   0.905
60230W        W32556  37.348  36.634   4.176
60231W        W32557  31.696  21.241  13.900
60232W        W32558  33.021  20.295   2.312
60233W        W32559  31.944  37.894  10.544
60234W        W32560  17.997  21.108   1.285
60235W        W32561  28.062   6.968  12.106
60236W        W32562  30.384  44.175  14.315
60237W        W32563   4.701  24.642   4.648
60238W        W32564  19.670  36.341   0.843
60239W        W32565  41.274  16.231  12.390
60240W        W32566  44.968  24.147   4.131
60241W        W32567   1.248  11.460   4.682
60242W        W32568  17.078  27.096   1.777
60243W        W32569   9.578   3.270  11.516
60244W        W32570   5.355  31.960   1.604
60245W        W32571   2.178   1.872   0.883
60246W        W32572   0.810  44.811   0.875
60247W        W32573  37.081  37.845   4.877
60248W        W32574   9.342  20.307  13.742
60249W        W32575  25.610  17.527  11.904
60250W        W32576  29.987  37.270  13.279
60251W        W32577  43.200  15.168   2.334
60252W        W32578  35.067  17.714   2.789
60253W        W32579   7.431  13.795   0.215
60254W        W32580  29.007  14.253  11.123
60255W        W32581  11.304   9.426   0.794
60256W        W32582  24.689  11.676   1.004
60257W        W32583   2.314  21.310  14.295
60258W        W32584   5.204  41.391   0.001
60259W        W32585  25.466   3.639  13.466
60260W        W32586  33.154  19.845  12.920
60261W        W32587  43.256  23.433  10.563
60262W        W32588  26.500  38.064  13.784
60263W        W32589   1.835  12.042  12.495
60264W        W32590   4.697  17.612  11.063
60265W        W32591  35.847   9.737  13.450
60266W        W32592  38.617  13.713   0.326
60267W        W32593  39.081  25.929   1.662
60268W        W32594  31.073   8.413   0.734
60269W        W32595  14.243   8.089  13.811
60270W        W32596  12.204   7.413  10.685
60271W        W32597   3.440  34.957  13.022
60272W        W32598  15.911   9.328   1.814
60273W        W32599  18.642  30.112  13.062
60274W        W32600   1.734  14.752   3.689
60275W        W32601  20.443  42.482  10.611
60276W        W32602  30.596  18.773   0.837
60277W        W32603  26.557  28.977  12.558
60278W        W32604  40.558  28.985  13.041
60279W        W32605  21.652  44.842   3.936
60280W        W32606  16.353  26.052  14.763
60281W        W32607  39.922  29.504  13.596
60282W        W32608   0.932   0.922  11.458
60283W        W32609  21.795  35.525   2.175
60284W        W32610  21.330  14.434  11.996
60285W        W32611  40.317  41.458   4.597
60286W        W32612   6.354  25.245   2.991
60287W        W32613   7.852   4.675  11.484
60288W        W32614  20.174  16.251  12.449
60289W        W32615  42.307  29.060  14.997
60290W        W32616  35.345  33.385  13.493
60291W        W32617  36.890  25.756   4.143
60292W        W32618  42.512  11.196   2.591
60293W        W32619  15.026  32.174  10.585
60294W        W32620  31.602   6.637   3.192
60295W        W32621   9.641  40.926   1.757
60296W        W32622  44.349  13.618   1.884
60297W        W32623   0.149   7.433   0.184
60298W        W32624  25.692  44.489  14.522
60299W        W32625   1.043   2.030  11.419
60300W        W32626   5.214   9.100  11.131
60301W        W32627  19.546  24.756  12.989
60302W        W32628  15.060  39.630  11.419
60303W        W32629  11.891  42.310  13.328
60304W        W32630  26.221  21.924   3.060
60305W        W32631  12.238   8.687  13.362
60306W        W32632  25.257  34.440  10.767
60307W        W32633  24.984  40.407  12.984
60308W        W32634  39.353   3.260   0.767
60309W        W32635  42.342  15.641  12.122
60310W        W32636  14.092  39.881   4.555
60311W        W32637  15.818  43.113   3.349
60312W        W32638  41.520  27.498  11.054
60313W        W32639  20.664  35.076   0.258
60314W        W32640   0.848   1.322   2.501
60315W        W32641  15.783  29.770  12.383
60316W        W32642  28.814  13.382  11.219
60317W        W32643  17.768  32.827  12.048
60318W        W32644   8.926  16.863  12.425
60319W        W32645   2.806   9.212   4.812
60320W        W32646  30.392  32.942  11.094
60321W        W32647  38.855  28.511   2.784
60322W        W32648  40.774   2.506  12.526
60323W        W32649  39.359  29.079  11.643
60324W        W32650  32.713  17.164   1.062
60325W        W32651  42.409  34.384  10.481
60326W        W32652  29.779   0.000   4.797
60327W        W32653  13.351  25.512   1.606
60328W        W32654  34.014   4.355   9.947
60329W        W32655   3.463  41.873  13.950
60330W        W32656   2.061  35.243   2.355
60331W        W32657  40.535  31.118   4.801
60332W        W32658  39.334   7.570  11.377
60333W        W32659   1.017   9.621   0.329
60334W        W32660  27.026  22.142   3.261
60335W        W32661  29.881  12.689  12.841
60336W        W32662   2.261  12.927  12.593
60337W        W32663   7.291  19.075  13.771
60338W        W32664  21.679   6.470   0.912
60339W        W32665   1.413   6.734   4.064
60340W        W32666  38.835  40.027  13.482
60341W        W32667   0.096  30.395  12.547
60342W        W32668  42.125  20.640  12.006
60343W        W32669  27.571  15.092   2.807
60344W        W32670  20.339  25.441   4.710
60345W        W32671  39.235  37.092  14.935
60346W        W32672  19.268  13.202   0.020
60347W        W32673  23.249  34.990  13.919
60348W        W32674  13.579  39.467   3.858
60349W        W32675  38.649  38.342  11.446
60350W        W32676  29.399  18.593  12.999
60351W        W32677  13.169   9.240  13.617
60352W        W32678  15.687  20.754  14.498
60353W        W32679  39.771  24.551   3.227
60354W        W32680  15.701  29.004   2.634
60355W        W32681  33.441  36.503  11.409
60356W        W32682  19.612  12.148  13.879
60357W        W32683  43.392   9.406   2.331
60358W        W32684  29.911   4.392  13.578
60359W        W32685  35.434  18.534   2.945
60360W        W32686  25.577  22.544   0.706
60361W        W32687   8.268  11.523   2.268
60362W        W32688  20.648   3.245   3.387
60363W        W32689  10.876  35.908  13.768
60364W        W32690  42.688   1.683  12.532
60365W        W32691   7.400  33.342   3.344
60366W        W32692  24.483   3.227  14.337
60367W        W32693  12.798  35.803   3.846
60368W        W32694  36.136  15.003  13.506
60369W        W32695  12.120  34.362   3.515
60370W        W32696  37.300  28.026   2.336
60371W        W32697  24.708  28.524  11.475
60372W        W32698  21.602  30.168   1.988
60373W        W32699  35.049   6.307  14.962
60374W        W32700  18.555  21.016   5.023
60375W        W32701  26.551  30.930  12.476
60376W        W32702  21.581  11.297  11.565
60377W        W32703   8.895  35.282   1.237
60378W        W32704   0.642  11.053   3.899
60379W        W32705  33.617  42.294  14.373
60380W        W32706  15.255  20.949   1.456
60381W        W32707  17.122  37.809   4.985
60382W        W32708  16.258  34.328   4.209
60383W        W32709   5.393  16.619  13.362
60384W        W32710   7.231  38.765  11.430
60385W        W32711   8.728  27.649   4.251
60386W        W32712  36.809  34.776  14.896
60387W        W32713  22.406  16.561   1.771
60388W        W32714  30.470   8.178   2.277
60389W        W32715  42.387  10.112  14.307
60390W        W32716  39.557  15.397  13.432
60391W        W32717  33.962  44.721   0.844
60392W        W32718  34.783  29.637   0.736
60393W        W32719  11.390  40.860   1.682
60394W        W32720  26.016   6.212   1.690
60395W        W32721  15.079  15.797  10.442
60396W        W32722  30.095  39.907  11.099
60397W        W32723  12.555  12.696  14.824
60398W        W32724  28.478  42.245  13.970
60399W        W32725  29.471  25.883   1.767
60400W        W32726  12.658  37.504   3.236
60401W        W32727  22.992  37.843  10.519
60402W        W32728  22.608  10.919  12.428
60403W        W32729  27.891  29.456  14.736
60404W        W32730  28.473  28.683  12.763
60405W        W32731  25.948   8.940   4.217
60406W        W32732  22.182  17.535  10.567
60407W        W32733  18.822  35.600  11.572
60408W        W32734   4.994   3.880  14.284
60409W        W32735  18.634  18.133   3.419
60410W        W32736  14.249  37.075   0.436
60411W        W32737  21.261   3.833   2.685
60412W        W32738  13.203  36.658   0.679
60413W        W32739  33.185   3.801  11.140
60414W        W32740  15.647   9.835  13.074
60415W        W32741   8.159  24.531   0.744
60416W        W32742  17.349  37.546  10.632
60417W        W32743  10.746  14.145   2.786
60418W        W32744  30.246  37.281   4.523
60419W        W32745  38.835  29.210  12.551
60420W        W32746  33.708  34.114   4.580
60421W        W32747  36.426   9.457  12.792
60422W        W32748   9.842   0.017   4.965
60423W        W32749  41.866  26.479  14.454
60424W        W32750   6.778  14.790  11.507
60425W        W32751  14.124   5.034   3.231
60426W        W32752  37.121  42.860   1.815
60427W        W32753   9.891   5.846  12.042
60428W        W32754   6.685  18.460   0.288
60429W        W32755   2.921  11.194  13.014
60430W        W32756  43.754  13.155  14.307
60431W        W32757  29.065  26.136   4.951
60432W        W32758   5.515  42.395  13.352
60433W        W32759  31.899   3.412  13.143
60434W        W32760  28.419  28.975   2.389
60435W        W32761  40.797  14.286   3.041
60436W        W32762  28.137   3.893  10.667
60437W        W32763  21.481  39.614   4.274
60438W        W32764   2.822   2.472   1.224
60439W        W32765  39.749  35.622   0.562
60440W        W32766  11.187  13.876  10.706
60441W        W32767  29.417  36.789  13.865
60442W        W32768  39.838  36.834   4.058
60443W        W32769  24.952  37.412   3.955
60444W        W32770   0.543   2.826  10.074
60445W        W32771   7.974  15.374  13.945
60446W        W32772   0.905  39.460  10.789
60447W        W32773  15.194  12.734  14.375
60448W        W32774   7.481  13.090   1.756
60449W        W32775  28.223  10.061   3.949
60450W        W32776   0.239  12.987  11.889
60451W        W32777  15.486  18.524  10.783
60452W        W32778  20.358  19.575   3.651
60453W        W32779  15.798  39.929  14.015
60454W        W32780   6.925  40.584   3.274
60455W        W32781  11.162  12.557   3.289
60456W        W32782  36.740  34.552  13.399
60457W        W32783  29.101  12.249   0.000
60458W        W32784   7.461   2.890  13.458
60459W        W32785   7.372  31.039   2.786
60460W        W32786  10.737  30.713  14.266
60461W        W32787   2.032  10.286   2.704
60462W        W32788  25.156  36.706   1.257
60463W        W32789  26.248   4.775   3.658
60464W        W32790  23.240  21.890   0.058
60465W        W32791  13.035  32.450   1.770
60466W        W32792  33.152  14.522   0.528
60467W        W32793  30.955  14.986   1.731
60468W        W32794  20.052  28.511  12.076
60469W        W32795  36.023   1.209  13.404
60470W        W32796  27.577  35.092  11.932
60471W        W32797  40.574  31.170   3.240
60472W        W32798  33.828  20.755   1.350
60473W        W32799  18.587  18.581   2.902
60474W        W32800   2.980  17.686   3.606
60475W        W32801   1.637  38.796   2.618
60476W        W32802  33.409  42.509  13.915
60477W        W32803  16.040  33.570   0.360
60478W        W32804  31.096  29.692  12.047
60479W        W32805  12.365   7.720   2.672
60480W        W32806  25.727  36.630  14.173
60481W        W32807   2.369  12.972   4.041
60482W        W32808  20.484  15.967  11.361
60483W        W32809  14.573  40.027   4.668
60484W        W32810   8.156  27.259  11.560
60485W        W32811  11.357  27.861   3.647
60486W        W32812  25.950  17.340  14.469
60487W        W32813   3.937  23.335  13.608
60488W        W32814  22.200  29.867   3.621
60489W        W32815  42.181   0.217  12.496
60490W        W32816  20.705  33.320   4.131
60491W        W32817   2.893  22.519  11.878
60492W        W32818  36.159  10.932  13.942
60493W        W32819   4.151  33.077   3.783
60494W        W32820  26.257  24.679   3.655
60495W        W32821  34.953  39.806  14.301
60496W        W32822  33.968  10.884  12.082
60497W        W32823  10.147  34.162  14.835
60498W        W32824  42.427  30.990   2.796
60499W        W32825   7.870  23.455  13.114
60500W        W32826  43.490  29.068  11.947
60501W        W32827  13.702  28.700  11.966
60502W        W32828  39.966   7.118  12.962
60503W        W32829  12.742  34.170  10.589
60504W        W32830   4.312   3.065   2.925
60505W        W32831  22.264   9.878   4.855
60506W        W32832   1.636  11.737  13.185
60507W        W32833  23.263  44.048  11.997
60508W        W32834  24.975   7.172   1.344
60509W        W32835  19.777  34.546   0.487
60510W        W32836  17.525  16.575   0.968
60511W        W32837  13.358  17.873  13.391
60512W        W32838  20.522  27.015  10.712
60513W        W32839  37.963  17.622   2.279
60514W        W32840  13.113   0.424   0.794
60515W        W32841   3.346  19.632  11.956
60516W        W32842  29.505  32.574   0.658
60517W        W32843  16.398  28.854   1.653
60518W        W32844  38.233  24.993   3.168
60519W        W32845  16.964   1.445   2.755
60520W        W32846   7.184  36.845   4.194
60521W        W32847  44.889   4.454  14.424
60522W        W32848  16.774  36.858   3.953
60523W        W32849  16.478  39.902  12.193
60524W        W32850  44.380  13.871   2.352
60525W        W32851  37.888  14.822   3.689
60526W        W32852  11.224  41.483  11.208
60527W        W32853  40.250  17.321  11.404
60528W        W32854  43.509  38.849   2.061
60529W        W32855   4.302  15.335   0.158
60530W        W32856  39.734  10.769   2.695
60531W        W32857  21.980  10.578  10.640
60532W        W32858   6.765  38.773  11.162
60533W        W32859   6.284  28.100  10.942
60534W        W32860   9.150  21.618   2.352
60535W        W32861   7.155  25.224   2.757
60536W        W32862  20.056  22.559  11.835
60537W        W32863  38.556  26.181  12.911
60538W        W32864  13.173  10.892  11.296
60539W        W32865  10.388  33.060  14.478
60540W        W32866  24.078  13.493   4.392
60541W        W32867  26.707  44.571   1.740
60542W        W32868   9.059  38.974  10.509
60543W        W32869  27.736  11.632  12.393
60544W        W32870  30.056  43.855   1.173
60545W        W32871  42.564  25.956   3.862
60546W        W32872   6.977  23.825   1.833
60547W        W32873  36.575  32.435  12.852
60548W        W32874  19.706  23.571  10.733
60549W        W32875  12.365  24.593  14.440
60550W        W32876  16.329  33.906   3.129
60551W        W32877  24.645  10.771   0.092
60552W        W32878   1.442  29.864  12.986
60553W        W32879  33.564  37.891   1.044
60554W        W32880   1.463  24.171  10.168
60555W        W32881  25.601  23.217  10.681
60556W        W32882   9.240   8.229   4.364
60557W        W32883  38.420  31.088   3.250
60558W        W32884   0.992  17.618   4.020
60559W        W32885  16.229   1.955   4.605
60560W        W32886  38.663  29.085   1.586
60561W        W32887   0.381  34.646   0.328
60562W        W32888   7.895  39.549   2.866
60563W        W32889  35.115  41.669  11.747
60564W        W32890  43.749   7.846  13.867
60565W        W32891  36.610  18.214  14.886
60566W        W32892  19.281  10.408  11.099
60567W        W32893  24.701  36.661   4.605
60568W        W32894   3.847   6.961  13.464
60569W        W32895  19.219  40.412   4.080
60570W        W32896   2.723  19.854  12.515
60571W        W32897  26.468  16.052   0.876
60572W        W32898  37.840  29.102   1.793
60573W        W32899  17.784  22.653   4.791
60574W        W32900  39.892  33.432  11.851
60575W        W32901  18.057   7.864   3.243
60576W        W32902  42.237  11.272  11.007
60577W        W32903  12.315  41.983  14.034
60578W        W32904   5.447  13.094   4.435
60579W        W32905   4.277  41.793   0.789
60580W        W32906  19.775   4.754   4.846
60581W        W32907  23.568  30.203   4.320
60582W        W32908   1.487   3.723  10.305
60583W        W32909  29.160  13.190   4.078
60584W        W32910  33.782  31.971  11.135
60585W        W32911  17.253   5.027   2.268
60586W        W32912   6.373   2.489   0.918
60587W        W32913  31.677  42.119   0.089
60588W        W32914  12.911  33.411   1.672
60589W        W32915  26.011   5.867   2.854
60590W        W32916  17.167  42.859   2.675
60591W        W32917  44.434  17.095  13.057
60592W        W32918  14.907  15.005  12.436
60593W        W32919  11.112   7.140   2.182
60594W        W32920  40.585  38.820   1.781
60595W        W32921  35.607  10.244   3.752
60596W        W32922   2.776  11.682  14.664
60597W        W32923  31.724   5.785  11.554
60598W        W32924   9.737  18.841   2.699
60599W        W32925   4.686  19.738  12.587
60600W        W32926  10.655  18.111  14.050
60601W        W32927  30.635   5.708   2.567
60602W        W32928  32.104  42.514   2.267
60603W        W32929  16.692  15.676  12.516
60604W        W32930  10.340   9.237   4.146
60605W        W32931  14.742  20.751   0.044
60606W        W32932  22.507  18.132   2.713
60607W        W32933  21.556  43.504  14.916
60608W        W32934  41.384   8.641  14.693
60609W        W32935  36.506  40.334  13.555
60610W        W32936   4.852  19.195  13.445
60611W        W32937  18.170   8.550  12.110
60612W        W32938  35.501  36.931   0.723
60613W        W32939  30.971  27.438   0.334
60614W        W32940   7.338  29.863   3.266
60615W        W32941   2.213   8.636  13.514
60616W        W32942  36.966  28.202  13.669
60617W        W32943  44.302  27.429  12.081
60618W        W32944  35.559  32.187   3.650
60619W        W32945  25.705  21.992   4.017
60620W        W32946   7.432   7.772   2.297
60621W        W32947  43.986  22.470  12.148
60622W        W32948  32.524  42.405   3.531
60623W        W32949  26.497  29.662   3.837
60624W        W32950  21.151  35.829  14.937
60625W        W32951  32.209  37.883   2.826
60626W        W32952   5.769  20.598   2.871
60627W        W32953   7.347   3.900   2.943
60628W        W32954  14.583   3.495  14.337
60629W        W32955  12.756  40.687  10.883
60630W        W32956  20.666  10.875   0.069
60631W        W32957   8.347  13.459   4.219
60632W        W32958  44.111  15.668   5.076
60633W        W32959   8.960  43.470  14.768
60634W        W32960  37.495   7.316   4.679
60635W        W32961  41.311  33.771   3.723
60636W        W32962  39.463  22.124  14.393
60637W        W32963   9.479  33.674   0.221
60638W        W32964  35.688  14.786  14.355
60639W        W32965  34.958  19.868  13.310
60640W        W32966  38.729  33.435  12.981
60641W        W32967  38.754  16.053  10.475
60642W        W32968  30.256  33.657   0.422
60643W        W32969  27.950  38.436  14.060
60644W        W32970  27.181  38.128   1.775
60645W        W32971  22.514  41.079  11.475
60646W        W32972  21.221  36.516  10.689
60647W        W32973  44.578  39.479  12.340
60648W        W32974  32.887  32.666   1.602
60649W        W32975   9.867  16.705  14.004
60650W        W32976  28.127   4.681  13.906
60651W        W32977  36.415  13.701   2.873
60652W        W32978  14.077  17.214   3.317
60653W        W32979  34.214  29.055   3.330
60654W        W32980   8.275  32.699   1.838
60655W        W32981  35.333  21.013  14.541
60656W        W32982  37.905  15.064   3.136
60657W        W32983  30.685  32.353   3.342
60658W        W32984  31.644  23.983   3.672
60659W        W32985   0.308   4.017  11.301
60660W        W32986  35.919   1.258  14.127
60661W        W32987  39.553   8.720  12.059
60662W        W32988  35.303   2.121  11.990
60663W        W32989   3.139  24.772   1.248
60664W        W32990  44.954  37.873  14.780
60665W        W32991  23.675   1.700   1.840
60666W        W32992  26.855  23.286  12.020
60667W        W32993  24.598   8.198   0.258
60668W        W32994  22.123  30.627   0.839
60669W        W32995   1.772  38.397   1.267
60670W        W32996  40.909  14.337   4.921
60671W        W32997  27.966  44.889   1.936
60672W        W32998  19.060  26.138   1.432
60673W        W32999  26.804   1.286   1.901
60674W        W33000  28.530  32.615  10.510
60675W        W33001  34.907  29.239  13.173
60676W        W33002   2.393   5.396  13.015
60677W        W33003  30.701  10.126   3.161
60678W        W33004  16.552  23.193   3.416
60679W        W33005  20.089  17.836  11.483
60680W        W33006  22.143  42.544   1.742
60681W        W33007  14.196  10.659   0.282
60682W        W33008  34.958   4.371   3.537
60683W        W33009  24.209  36.068  11.036
60684W        W33010   7.893  24.427   4.162
60685W        W33011  31.246  13.155  10.536
60686W        W33012  15.095  29.911   4.575
60687W        W33013  25.851  16.200   3.604
60688W        W33014  25.169  16.811  11.496
60689W        W33015  33.974  17.005   0.227
60690W        W33016  23.691  32.285  11.686
60691W        W33017  34.849  12.795   2.400
60692W        W33018  25.546  20.953   3.266
60693W        W33019  34.184  13.779  13.832
60694W        W33020   0.864  39.570  12.998
60695W        W33021   5.643   6.460  13.868
60696W        W33022  14.185   1.348   0.752
60697W        W33023  32.514  26.625  14.489
60698W        W33024  34.485  37.447  12.854
60699W        W33025  14.468  15.376   4.231
60700W        W33026  16.199  42.237  10.725
60701W        W33027  42.819  27.006   3.377
60702W        W33028   5.402   0.575   0.472
60703W        W33029  24.208  23.143  12.101
60704W        W33030  39.075  44.416  10.448
60705W        W33031  23.716  12.126   2.330
60706W        W33032   2.311   0.840   0.283
60707W        W33033  16.462   6.052   1.409
60708W        W33034   7.782  22.198   3.249
60709W        W33035  18.723   4.819  14.968
60710W        W33036  23.274  20.554   2.952
60711W        W33037  16.996  23.650  14.976
60712W        W33038  37.822  30.630  11.089
60713W        W33039  26.457  23.565  12.849
60714W        W33040  29.150  32.614  13.088
60715W        W33041  27.894  19.558   3.789
60716W        W33042   7.440  23.087  11.460
60717W        W33043   4.399  26.525   0.988
60718W        W33044  41.976   2.956  12.381
60719W        W33045  25.503  30.702  12.438
60720W        W33046  29.083  15.190  10.888
60721W        W33047  35.935  19.623   3.362
60722W        W33048  20.937  30.395  10.274
60723W        W33049  36.359  29.668  11.212
60724W        W33050   8.827  28.332  13.377
60725W        W33051  23.175  17.701   9.689
60726W        W33052  28.905  20.447  14.908
60727W        W33053  20.366  34.342  11.506
60728W        W33054   0.935   7.431  14.795
60729W        W33055  25.965  35.558  11.548
60730W        W33056  33.970  33.518  11.164
60731W        W33057  27.523  17.781   4.913
60732W        W33058  20.303  41.491  13.224
60733W        W33059  22.649  36.378   4.320
60734W        W33060  11.268   6.457   4.215
60735W        W33061  26.095  40.328   0.004
60736W        W33062   7.367  14.855   1.312
60737W        W33063  25.523  39.427   9.619
60738W        W33064  19.379   7.315   2.224
60739W        W33065   2.425   3.722   0.789
60740W        W33066  39.494  39.098   2.854
60741W        W33067  25.694   1.943   3.498
60742W        W33068  25.697  34.891  11.593
60743W        W33069   8.970  41.746  11.531
60744W        W33070  36.720  20.670  10.468
60745W        W33071  30.362  27.487   2.178
60746W        W33072   5.605  35.448  12.837
60747W        W33073  26.042  23.521  13.261
60748W        W33074  11.112  30.237  13.958
60749W        W33075  38.540  39.074  14.530
60750W        W33076  31.301  15.641  11.743
60751W        W33077  40.583  13.959   4.705
60752W        W33078   1.224  32.422   2.971
60753W        W33079  40.091   8.432  13.988
60754W        W33080  42.258  13.105  14.079
60755W        W33081  21.623  26.955  14.948
60756W        W33082   0.870  37.468  14.878
60757W        W33083  27.021   8.912  14.875
60758W        W33084  12.899  23.646   1.271
60759W        W33085  38.433  26.544   1.766
60760W        W33086  28.725   4.856  11.654
60761W        W33087   6.849  25.056  13.073
60762W        W33088  25.573  23.530  10.241
60763W        W33089  44.524  22.162   1.910
60764W        W33090  39.686   2.397  10.746
60765W        W33091  37.885  11.276   0.910
60766W        W33092  33.070   1.219  14.842
60767W        W33093  37.941  43.305   2.383
60768W        W33094  19.607  23.733   1.255
60769W        W33095  43.584  38.091   1.681
60770W        W33096  20.244  18.217   3.818
60771W        W33097  31.376   1.403   3.836
60772W        W33098  11.392   2.439   0.821
60773W        W33099   7.868  43.981  14.312
60774W        W33100  28.878   2.301   1.246
60775W        W33101  29.079   7.963   1.820
60776W        W33102  42.427   9.024   0.338
60777W        W33103  11.235  23.165   2.367
60778W        W33104   9.867   2.184   4.651
60779W        W33105  34.270  38.354  14.289
60780W        W33106  28.546  20.991  14.703
60781W        W33107  20.941  31.350   4.070
60782W        W33108   5.935  34.440   3.201
60783W        W33109  29.332   4.943  13.491
60784W        W33110  17.811  10.707   0.049
60785W        W33111  41.246   5.831   0.430
60786W        W33112  19.991  44.699  11.280
60787W        W33113  23.541   5.627   1.169
60788W        W33114  28.938  33.810   1.345
60789W        W33115   9.663  42.351   2.734
60790W        W33116  20.203   4.879  11.559
60791W        W33117  19.808  17.540  10.802
60792W        W33118   8.296  39.862  10.764
60793W        W33119  32.362  28.955   2.624
60794W        W33120   6.770  38.780  12.069
60795W        W33121  35.314  42.281   1.539
60796W        W33122  42.000   6.787  11.965
60797W        W33123   8.895  37.805  14.710
60798W        W33124  11.229  11.884  13.440
60799W        W33125  28.979  18.448  14.566
60800W        W33126   2.826   5.729   3.346
60801W        W33127  32.386  27.931  12.484
60802W        W33128  16.888  14.616  13.338
60803W        W33129  12.749  14.620   4.563
60804W        W33130  27.379  38.268   3.344
60805W        W33131  24.221  37.900  10.534
60806W        W33132  33.560  43.337   0.265
60807W        W33133  35.388  23.683  14.830
60808W        W33134  37.693  15.634  11.247
60809W        W33135  29.495   5.170   1.155
60810W        W33136   6.982  25.078  11.945
60811W        W33137  40.995  28.419   3.763
60812W        W33138  37.116  19.079  12.441
60813W        W33139   7.082  13.730  13.362
60814W        W33140  39.031  34.277  13.923
60815W        W33141  35.261  29.433   0.867
60816W        W33142  36.572   9.311  14.304
60817W        W33143  37.472  18.552   4.178
60818W        W33144  15.093  27.345   4.911
60819W        W33145   2.841  40.915  12.159
60820W        W33146  19.802  41.390  11.401
60821W        W33147   9.718   8.687  13.007
60822W        W33148  39.341  35.942   0.391
60823W        W33149  18.767  37.483  10.117
60824W        W33150  16.345   2.259   2.591
60825W        W33151  44.314  15.764  13.376
60826W        W33152  30.697  16.220   3.276
60827W        W33153  23.216  40.645  14.114
60828W        W33154  18.982  40.108  11.641
60829W        W33155   1.236  43.355   0.818
60830W        W33156  14.222   0.218   1.398
60831W        W33157   0.655   1.816   3.161
60832W        W33158  29.612  24.348   0.567
60833W        W33159   2.488  40.284   0.825
60834W        W33160  12.063  30.681  13.509
60835W        W33161  36.946   8.502  10.694
60836W        W33162  33.275  15.555  10.255
60837W        W33163  43.990  22.609   1.278
60838W        W33164  10.204  35.086   4.587
60839W        W33165  36.572  19.116   4.381
60840W        W33166  16.070  35.622  11.948
60841W        W33167  22.460  34.979   3.277
60842W        W33168   0.932  29.166  10.541
60843W        W33169  32.918   7.709   3.609
60844W        W33170  31.251  10.152   3.124
60845W        W33171   4.175   6.975   4.928
60846W        W33172  18.166   2.489  14.323
60847W        W33173   2.946  26.057   3.297
60848W        W33174  36.043  18.524  13.082
60849W        W33175  27.428  43.806   0.946
60850W        W33176  18.757   9.227   1.353
60851W        W33177  22.559  39.550  13.939
60852W        W33178  34.452  16.602  13.368
60853W        W33179  29.410   7.164  12.469
60854W        W33180  30.992  37.772   3.811
60855W        W33181   4.270  28.190   2.329
60856W        W33182   8.956  16.831   1.227
60857W        W33183  33.197   8.816  14.931
60858W        W33184  14.625  37.187   2.139
60859W        W33185  10.201  34.610  12.571
60860W        W33186  44.425  16.213   2.382
60861W        W33187  37.328  24.689   0.929
60862W        W33188  22.794  28.795   1.602
60863W        W33189  16.619  38.801   3.640
60864W        W33190  29.683  15.592  12.988
60865W        W33191  13.321  20.490   0.364
60866W        W33192  15.552  17.082   0.297
60867W        W33193   0.344  18.620  12.986
60868W        W33194  43.915  43.700   0.763
60869W        W33195  40.200  32.115   1.168
60870W        W33196  26.215   6.903  11.042
60871W        W33197   3.914   3.748   4.637
60872W        W33198  34.997  14.944   2.885
60873W        W33199  40.410  41.976  14.479
60874W        W33200  41.401  14.513   2.590
60875W        W33201   9.611  35.969  12.529
60876W        W33202  12.355  39.741   2.203
60877W        W33203  36.474   2.723  12.442
60878W        W33204  41.766  12.389  10.955
60879W        W33205  32.984  19.843   3.290
60880W        W33206  34.581  38.416  12.905
60881W        W33207  40.421   7.055   3.313
60882W        W33208  22.700  31.165  11.553
60883W        W33209  26.401  14.873  11.783
60884W        W33210   2.507  30.439  13.936
60885W        W33211  26.627  14.150  14.881
60886W        W33212  41.513  23.694   3.641
60887W        W33213  26.134   5.364   4.146
60888W        W33214   3.259   9.790  14.940
60889W        W33215  39.819  41.454   0.296
60890W        W33216  44.453  15.542   4.265
60891W        W33217  17.067  13.462  10.948
60892W        W33218  19.154   7.131   0.840
60893W        W33219  33.848  13.770   2.921
60894W        W33220  42.374  36.694   3.303
60895W        W33221  40.271  25.639   0.929
60896W        W33222  31.971  19.348   4.100
60897W        W33223  24.276  14.669   1.827
60898W        W33224  11.499  28.101   1.890
60899W        W33225  38.472  10.932   5.095
60900W        W33226  20.569   4.063  10.636
60901W        W33227   3.793  41.003  14.869
60902W        W33228  37.779  21.090  11.521
60903W        W33229  37.114  32.431   4.241
60904W        W33230  16.968   1.565   0.999
60905W        W33231  33.551  15.791   3.336
60906W        W33232  19.011  43.974  14.450
60907W        W33233  43.772  27.666   4.099
60908W        W33234  17.597  28.141  12.000
60909W        W33235  27.464  23.731   4.127
60910W        W33236  27.362   3.391  10.781
60911W        W33237  29.945   4.878   1.842
60912W        W33238   3.984  41.873  13.904
60913W        W33239  28.664  42.453   1.856
60914W        W33240   2.545  27.204  11.146
60915W        W33241   5.596  31.133   1.833
60916W        W33242   6.695  21.480   0.512
60917W        W33243  26.895  31.570   1.922
60918W        W33244  27.430   1.905   5.014
60919W        W33245  36.089  16.866   1.759
60920W        W33246  35.536  17.562   3.745
60921W        W33247  30.102  20.735   0.359
60922W        W33248  33.029  32.948  13.522
60923W        W33249  22.120  44.125   4.105
60924W        W33250  11.431   2.962   4.635
60925W        W33251  14.549  42.808   0.434
60926W        W33252  44.918   9.322   2.952
60927W        W33253  28.020  32.474   1.836
60928W        W33254  21.755  10.345  12.581
60929W        W33255   7.894  20.150  14.094
60930W        W33256  31.718  37.859   2.623
60931W        W33257   7.995  29.888   2.942
60932W        W33258  10.749  41.419   0.254
60933W        W33259   9.453   7.962   1.668
60934W        W33260  17.799  43.786   3.663
60935W        W33261   3.205  32.104   5.028
60936W        W33262  30.082  26.449   0.114
60937W        W33263  41.140  41.865  12.117
60938W        W33264  34.055  35.427   3.686
60939W        W33265   2.796  43.402   1.157
60940W        W33266  31.755  36.970  11.795
60941W        W33267  33.862  19.157  11.228
60942W        W33268  13.597   9.646   4.313
60943W        W33269   4.266  11.914  10.327
60944W        W33270  25.662  29.007   3.228
60945W        W33271  34.681  12.341  10.591
60946W        W33272  16.819  34.887  13.977
60947W        W33273  19.019   8.435   3.215
60948W        W33274   9.195  28.641  12.040
60949W        W33275  17.044  34.563   3.236
60950W        W33276  40.167  12.111   3.328
60951W        W33277  28.549  32.348  14.370
60952W        W33278  13.035   2.264  14.860
60953W        W33279  22.694  35.841   2.356
60954W        W33280  25.596  29.362   1.660
60955W        W33281  26.408  39.868  11.973
60956W        W33282  17.015   3.990  12.457
60957W        W33283  12.657  20.035   1.917
60958W        W33284  30.466   2.315   4.530
60959W        W33285  16.386  23.682   1.149
60960W        W33286  36.316  17.612  13.843
60961W        W33287  39.149  42.482   0.432
60962W        W33288  40.622  26.589  13.794
60963W        W33289  40.180  17.292  11.921
60964W        W33290  18.580  23.643   4.135
60965W        W33291   2.302   6.243   2.810
60966W        W33292  31.652  28.094   0.466
60967W        W33293  21.282  21.226  10.917
60968W        W33294  35.966   8.881   0.872
60969W        W33295  10.367  36.508  10.848
60970W        W33296  22.048  44.845  13.537
60971W        W33297  21.061  28.090  11.554
60972W        W33298  31.457  12.618  12.005
60973W        W33299  14.289   9.903   2.241
60974W        W33300  17.882   0.596  13.311
60975W        W33301  40.085  19.160   4.328
60976W        W33302  14.643  31.481   3.376
60977W        W33303  23.165   6.929   1.398
60978W        W33304  35.427  19.495  14.663
60979W        W33305  11.300  10.853  14.517
60980W        W33306  24.981   1.514  13.517
60981W        W33307  37.992  21.439  14.769
60982W        W33308  22.047   7.743  13.935
60983W        W33309  26.940  15.759  13.794
60984W        W33310   6.725   7.690   4.659
60985W        W33311  26.412  25.297  13.816
60986W        W33312   6.816  44.210  14.918
60987W        W33313  21.543  23.476  12.822
60988W        W33314  33.618   4.916   4.310
60989W        W33315  44.042  15.568  12.172
60990W        W33316  13.092  40.065  11.547
60991W        W33317  12.538  33.692  11.190
60992W        W33318  36.696  16.693   3.278
60993W        W33319  24.200  37.314   5.589
60994W        W33320   8.826   9.852  11.120
60995W        W33321  13.241  22.646   2.802
60996W        W33322  14.761  25.188  13.085
60997W        W33323  13.163  35.133   0.245
60998W        W33324  27.904  13.576  13.303
60999W        W33325   3.780  44.802  12.977
61000W        W33326  25.581  18.093   0.579
61001W        W33327   7.537  41.542  11.897
61002W        W33328  29.058  20.658   0.365
61003W        W33329  24.615   0.068   3.779
61004W        W33330  22.704  21.790  12.044
61005W        W33331  43.168  30.643   2.305
61006W        W33332  11.076  14.218  12.957
61007W        W33333  15.623  14.290   3.191
61008W        W33334  18.575  23.814  13.332
61009W        W33335  38.832  22.117   2.910
61010W        W33336  39.281   1.475   1.881
61011W        W33337   5.907  15.606   0.950
61012W        W33338  29.906  42.147   4.102
61013W        W33339   4.348   8.194   4.269
61014W        W33340  19.232   3.470  13.768
61015W        W33341  41.424  21.773  14.483
61016W        W33342  26.615  24.155  12.266
61017W        W33343   8.360  26.928   0.480
61018W        W33344  42.931   4.287  13.378
61019W        W33345  12.324  22.702  13.485
61020W        W33346  10.899   0.978  11.620
61021W        W33347  32.971  33.923  14.031
61022W        W33348  37.065   3.176  11.929
61023W        W33349   3.828   7.528   4.572
61024W        W33350   8.373  23.738   1.837
61025W        W33351  34.167  24.685   4.304
61026W        W33352  17.478  20.612  13.811
61027W        W33353  31.936   0.408   4.954
61028W        W33354   3.922   9.697  14.312
61029W        W33355  41.862  19.023   1.299
61030W        W33356  29.886  40.247  14.198
61031W        W33357   3.648  30.289  10.738
61032W        W33358  39.491   4.483  13.512
61033W        W33359  10.260  31.356   0.269
61034W        W33360  14.232  28.747  12.404
61035W        W33361  25.094  25.746  14.666
61036W        W33362  17.050  20.018   0.801
61037W        W33363  10.361  44.428   2.248
61038W        W33364  18.036   9.893   3.229
61039W        W33365  43.501   4.122  14.060
61040W        W33366   4.172  43.893   2.244
61041W        W33367  27.081  12.211  12.356
61042W        W33368  35.396   6.162   1.305
61043W        W33369  32.239  40.850   3.595
61044W        W33370  25.688  19.368  11.275
61045W        W33371  25.412  14.552  14.510
61046W        W33372   5.982  38.039  13.968
61047W        W33373  32.573  16.121  14.467
61048W        W33374  32.087  22.298  11.075
61049W        W33375  23.363  21.986   1.004
61050W        W33376  12.191   4.913   1.777
61051W        W33377  11.683  22.094  12.455
61052W        W33378  25.187  44.528   0.907
61053W        W33379   0.381   1.449  11.971
61054W        W33380  12.771  44.312   0.364
61055W        W33381   1.167  28.111  11.730
61056W        W33382   8.410   3.880   3.281
61057W        W33383   7.683  32.032   3.746
61058W        W33384  41.778  13.315  11.153
61059W        W33385  36.913   9.209  11.902
61060W        W33386  19.452  32.024  13.850
61061W        W33387  10.660  21.353   0.446
61062W        W33388  11.856   9.698   0.400
61063W        W33389   9.731  18.459  13.871
61064W        W33390  44.355  32.550   1.354
61065W        W33391  17.054  44.492   2.790
61066W        W33392  31.646  15.202   0.943
61067W        W33393  34.604   5.840  11.935
61068W        W33394   5.424   8.373   3.791
61069W        W33395  39.914  26.216  13.866
61070W        W33396  26.674  31.370   4.634
61071W        W33397  32.886  30.657   1.752
61072W        W33398   8.992  22.436  12.010
61073W        W33399  30.395   6.314  10.712
61074W        W33400   8.397  15.237  11.976
61075W        W33401  15.106   1.460  12.899
61076W        W33402  19.232  14.156   1.951
61077W        W33403  35.529   3.913   0.637
61078W        W33404  15.031  37.792   0.524
61079W        W33405  38.369   4.588  10.959
61080W        W33406  17.669   0.344  14.298
61081W        W33407  39.086   1.332  12.028
61082W        W33408   5.388  42.100   1.467
61083W        W33409  23.862  16.128   0.434
61084W        W33410  37.522  39.831  12.840
61085W        W33411  31.136  40.857   4.490
61086W        W33412   1.618  41.840   0.078
61087W        W33413  36.397  22.190  14.079
61088W        W33414  11.263  31.823  13.496
61089W        W33415  24.479   3.196   2.337
61090W        W33416  12.302   7.184   0.232
61091W        W33417  42.975   0.752   0.600
61092W        W33418  37.904  13.545  10.727
61093W        W33419  23.554  22.049  13.992
61094W        W33420   6.852  37.331  11.158
61095W        W33421  33.398  25.605   1.257
61096W        W33422  30.915   0.337   0.806
61097W        W33423  32.723  21.282  13.844
61098W        W33424  36.021   8.234  11.822
61099W        W33425  42.493  19.646   1.810
61100W        W33426  17.516   6.543   4.204
61101W        W33427  32.456  37.474   1.252
61102W        W33428  42.512  35.487  13.339
61103W        W33429  34.423  17.865   1.463
61104W        W33430   0.529  10.189  11.607
61105W        W33431  28.412  25.503  13.048
61106W        W33432  31.971  31.677   9.997
61107W        W33433   7.045  35.527   4.649
61108W        W33434   5.457  38.706  12.097
61109W        W33435  25.505  43.888  10.602
61110W        W33436  40.864  28.460  12.133
61111W        W33437  26.357  42.963   2.368
61112W        W33438   5.640  38.947   0.887
61113W        W33439  22.311  12.571   0.879
61114W        W33440  20.149  40.899  13.964
61115W        W33441  42.563  30.085   3.190
61116W        W33442  18.092  44.555   1.362
61117W        W33443  30.942  11.872  10.804
61118W        W33444  24.550   9.921  11.086
61119W        W33445  39.511   3.223  13.090
61120W        W33446  15.379  11.347   0.947
61121W        W33447  16.979  25.105   4.572
61122W        W33448   1.519  19.100   2.288
61123W        W33449  28.554  22.454  10.612
61124W        W33450  40.251  30.070  12.410
61125W        W33451  25.779  14.527  14.152
61126W        W33452   2.738   2.742   2.587
61127W        W33453  41.349  41.293  14.677
61128W        W33454  12.078  14.377  14.898
61129W        W33455   4.684  39.006   2.738
61130W        W33456  36.022  22.753  12.532
61131W        W33457  13.691   8.668  10.573
61132W        W33458  38.849  18.593   1.664
61133W        W33459  31.125   8.700   5.222
61134W        W33460   4.702  24.633  12.065
61135W        W33461  40.057  12.948   0.528
61136W        W33462  38.479   1.523   2.729
61137W        W33463   6.740  31.524  10.731
61138W        W33464   6.307   8.341   2.781
61139W        W33465  43.256  44.220  14.389
61140W        W33466  26.224  31.065  14.241
61141W        W33467  29.305  34.664   3.659
61142W        W33468  34.586  22.554   3.170
61143W        W33469  12.614  11.826  14.789
61144W        W33470  41.412  44.836   0.729
61145W        W33471  41.309  32.631   1.908
61146W        W33472  10.646  21.789  12.508
61147W        W33473  16.236  14.829  12.432
61148W        W33474  17.568  26.455  12.487
61149W        W33475  22.897  43.928   2.700
61150W        W33476  34.887   5.452   2.304
61151W        W33477  20.097  37.771   4.210
61152W        W33478   2.849  23.007  14.954
61153W        W33479  29.954  13.648  13.376
61154W        W33480  20.288   5.511  12.088
61155W        W33481  14.202  41.962   1.629
61156W        W33482  42.277  33.853   1.697
61157W        W33483   3.770  10.373  11.498
61158W        W33484  38.747  36.012   3.355
61159W        W33485   0.943   1.213   3.814
61160W        W33486  38.694   3.672  14.563
61161W        W33487  15.801  23.051  14.311
61162W        W33488  18.280  21.689   1.983
61163W        W33489  25.731  43.562  10.938
61164W        W33490  26.534  44.513   3.146
61165W        W33491  13.620   9.010   5.113
61166W        W33492  33.916  30.125  12.593
61167W        W33493  33.692  11.956  11.275
61168W        W33494  24.523   3.775   1.891
61169W        W33495  19.677  32.997  13.057
61170W        W33496  40.329  24.202   0.016
61171W        W33497  23.003  34.125  11.759
61172W        W33498   1.858  41.367   3.115
61173W        W33499  26.487   5.253   1.829
61174W        W33500  14.392  11.201  14.023
61175W        W33501   3.643  21.087   1.206
61176W        W33502  10.340  29.096   2.697
61177W        W33503  28.101   1.758   2.600
61178W        W33504  44.782  33.846   2.943
61179W        W33505  14.869   2.682   4.949
61180W        W33506  15.349  27.526  11.967
61181W        W33507   1.949   9.025   1.271
61182W        W33508  24.026   2.804  11.182
61183W        W33509   7.691  12.621  14.917
61184W        W33510  33.508  42.278   3.642
61185W        W33511  32.027   5.548  13.900
61186W        W33512  30.613  14.859  10.904
61187W        W33513  20.278  17.745  10.654
61188W        W33514  18.165  21.750   3.305
61189W        W33515   9.931  10.829  14.282
61190W        W33516  43.875  12.658   2.244
61191W        W33517  20.067  21.629  12.374
61192W        W33518  20.494  13.689  10.869
61193W        W33519   5.777  14.785   0.279
61194W        W33520  14.344  27.609  13.834
61195W        W33521  32.910  34.839  13.590
61196W        W33522  35.318   0.989  14.329
61197W        W33523  42.514  34.740  14.226
61198W        W33524  19.767  30.615  12.077
61199W        W33525  20.486  19.085  13.500
61200W        W33526  28.561  42.265   2.329
61201W        W33527  24.898  13.210  11.110
61202W        W33528  10.832  39.876   4.391
61203W        W33529   9.188   0.387  11.942
61204W        W33530  41.788  15.197  10.898
61205W        W33531   6.657  35.980   1.950
61206W        W33532  44.756  14.048   3.256
61207W        W33533  37.842  31.004  13.452
61208W        W33534  27.230  41.395  11.128
61209W        W33535  37.858  25.842  11.917
61210W        W33536  42.870  21.091   0.431
61211W        W33537   8.434   3.314   3.660
61212W        W33538  10.306  39.480  14.812
61213W        W33539  21.074   7.294   0.655
61214W        W33540   7.212  19.595   0.045
61215W        W33541  23.314  36.929  12.993
61216W        W33542   2.934  39.141  11.462
61217W        W33543  20.131  16.273   1.869
61218W        W33544  44.055  44.186   0.811
61219W        W33545  38.953  42.767   9.984
61220W        W33546  27.676   0.183  11.053
61221W        W33547  21.650  11.344  12.088
61222W        W33548  10.093   1.997  13.979
61223W        W33549   2.481  21.239   5.021
61224W        W33550  33.336   0.020   2.891
61225W        W33551  23.002  10.379  11.651
61226W        W33552  18.557  40.273  12.177
61227W        W33553  13.638  33.143  10.337
61228W        W33554  32.178   2.169  11.099
61229W        W33555  26.178  37.154  11.454
61230W        W33556  26.174  19.071   2.386
61231W        W33557  43.377   2.094  12.926
61232W        W33558  32.407  42.075  10.575
61233W        W33559  27.064  40.430  14.763
61234W        W33560  14.222   9.287   2.602
61235W        W33561  38.867  12.198  13.960
61236W        W33562  23.011  40.922  14.496
61237W        W33563  12.149  38.015   0.821
61238W        W33564  37.300  21.683   3.354
61239W        W33565   1.281  15.369  14.778
61240W        W33566  26.660  17.112   5.191
61241W        W33567  10.441  43.244   2.866
61242W        W33568  12.823  39.855   0.695
61243W        W33569  32.141  10.877  14.398
61244W        W33570  26.673  20.991   2.988
61245W        W33571   6.174  30.140   0.055
61246W        W33572  20.912  17.855  13.765
61247W        W33573   5.089  12.731   0.714
61248W        W33574  28.051  32.397  14.729
61249W        W33575  34.680  43.144  14.284
61250W        W33576  27.592  40.457  10.911
61251W        W33577  17.261  15.984  13.815
61252W        W33578   6.094  32.883  12.105
61253W        W33579   3.504  44.199   1.260
61254W        W33580  11.631  38.587  11.051
61255W        W33581  24.163  16.396  11.386
61256W        W33582   3.158  17.531   1.691
61257W        W33583   0.181   5.502   3.662
61258W        W33584  23.185  28.307  14.261
61259W        W33585  16.082  13.195  12.109
61260W        W33586  22.646   6.913   4.695
61261W        W33587   0.809  21.571  13.503
61262W        W33588  44.392  21.235   1.685
61263W        W33589   3.740  22.512   3.703
61264W        W33590   6.744  42.041  12.581
61265W        W33591   5.204  36.766  14.502
61266W        W33592  26.217  14.284  13.970
61267W        W33593  20.046   5.801  10.914
61268W        W33594  14.636  29.771  12.869
61269W        W33595  32.182  43.301   1.752
61270W        W33596  16.611  25.209   0.929
61271W        W33597  24.483  24.468  14.504
61272W        W33598  13.508  10.356  14.629
61273W        W33599  24.003  42.550  13.936
61274W        W33600   7.263  37.405   0.868
61275W        W33601   3.974  36.563  14.867
61276W        W33602  10.840  11.200  14.685
61277W        W33603  36.337  23.059  13.914
61278W        W33604  13.258  43.845   3.659
61279W        W33605  35.951  23.989  12.019
61280W        W33606  21.799  27.256   0.855
61281W        W33607  30.431   7.059   4.181
61282W        W33608  43.287  10.681   2.835
61283W        W33609  19.006  22.729  14.865
61284W        W33610  44.787  19.042   3.688
61285W        W33611  37.720  11.214  11.884
61286W        W33612  27.531   7.898  11.581
61287W        W33613  32.062  27.905  14.758
61288W        W33614  41.767  33.996   1.707
61289W        W33615  22.982  12.358   1.152
61290W        W33616   4.916  36.191  10.708
61291W        W33617  26.027  33.105   2.283
61292W        W33618   8.512  41.466  12.916
61293W        W33619  39.970  12.840  11.941
61294W        W33620   9.401  36.608   3.844
61295W        W33621  29.940  44.533  11.593
61296W        W33622   7.756  25.052   1.364
61297W        W33623  28.200  35.905   2.389
61298W        W33624   2.031   5.386   1.386
61299W        W33625  17.646  23.637  14.463
61300W        W33626  24.184  34.048   3.163
61301W        W33627   5.747  39.338   1.991
61302W        W33628  36.893  44.383   3.661
61303W        W33629  22.229  32.461   4.559
61304W        W33630  10.728  24.553  11.723
61305W        W33631  20.048   9.637   4.572
61306W        W33632   1.346  22.126   0.925
61307W        W33633  10.026  36.327  14.002
61308W        W33634  37.943  19.157   0.741
61309W        W33635   5.775  44.797  14.922
61310W        W33636   7.467  20.797   1.533
61311W        W33637   3.761  40.148  14.188
61312W        W33638  31.217  17.068  14.002
61313W        W33639  28.589  36.078   0.270
61314W        W33640  43.847  30.153  14.326
61315W        W33641  42.788  16.619   2.231
61316W        W33642   4.061  21.706   2.582
61317W        W33643  32.792  29.566   3.335
61318W        W33644  10.301   3.669   2.927
61319W        W33645   5.637  40.730  10.851
61320W        W33646  19.346  16.788  11.462
61321W        W33647  14.692  33.518   3.906
61322W        W33648  13.165  33.502  12.413
61323W        W33649   7.243   5.193  12.187
61324W        W33650  41.273  12.727   3.767
61325W        W33651  39.326  25.980  13.447
61326W        W33652  41.497  18.225  12.153
61327W        W33653  24.079  27.441   1.388
61328W        W33654  27.848   9.944  12.705
61329W        W33655  14.343  39.454   0.721
61330W        W33656  24.469  33.103  14.980
61331W        W33657  29.160   3.928  12.965
61332W        W33658   6.777  43.519   2.784
61333W        W33659  14.385  16.066   0.790
61334W        W33660  30.919  23.076  11.074
61335W        W33661  18.222  29.218  12.125
61336W        W33662  36.972  10.239  13.875
61337W        W33663  21.544  33.867  14.733
61338W        W33664  26.158  39.173  13.263
61339W        W33665   2.782  11.570   2.793
61340W        W33666  14.725  20.184  13.626
61341W        W33667  33.060  41.352   0.772
61342W        W33668  21.067  29.946  12.267
61343W        W33669  26.382  41.433  10.802
61344W        W33670  33.779  18.173   1.876
61345W        W33671  35.377  39.576   3.727
61346W        W33672  13.889  37.585  13.533
61347W        W33673  26.522  22.860  12.604
61348W        W33674  38.509  39.079  12.542
61349W        W33675  16.366  39.136  13.628
61350W        W33676  20.002  35.852  13.071
61351W        W33677  36.541  31.167  12.494
61352W        W33678  21.091  26.369  11.834
61353W        W33679  32.643   8.942  13.468
61354W        W33680  38.015  13.700  11.222
61355W        W33681  26.322  44.472  10.744
61356W        W33682  35.501  14.268   0.875
61357W        W33683   6.382  14.320  11.077
61358W        W33684  30.936  37.174  13.289
61359W        W33685  13.810  16.966  11.060
61360W        W33686   9.969  31.131   3.062
61361W        W33687  11.789  27.099  10.557
61362W        W33688  21.089   7.321   4.056
61363W        W33689  29.710  25.891   2.276
61364W        W33690  26.003  22.455   4.797
61365W        W33691  30.670  21.561   4.699
61366W        W33692   5.956   1.320   2.330
61367W        W33693  12.278  10.816   4.469
61368W        W33694  30.198  34.072   3.076
61369W        W33695  41.953   7.610   2.268
61370W        W33696  14.734  12.995  12.424
61371W        W33697  25.743   6.328   3.679
61372W        W33698  40.452   5.925  11.162
61373W        W33699  27.933  34.572  12.452
61374W        W33700  18.807   2.332  11.062
61375W        W33701  28.711  23.436   3.698
61376W        W33702   9.357  38.764   1.161
61377W        W33703  19.448   4.405  13.987
61378W        W33704  41.013  19.300  12.962
61379W        W33705  20.128  32.082  10.359
61380W        W33706  39.050  31.823  11.584
61381W        W33707  13.174  16.149   3.238
61382W        W33708  31.418  15.258  12.472
61383W        W33709  27.011   6.898   2.510
61384W        W33710  38.992   6.273  13.800
61385W        W33711  31.225  35.626  11.727
61386W        W33712   6.359   4.214  13.475
61387W        W33713  14.742  22.513   9.841
61388W        W33714  19.167  16.182  12.575
61389W        W33715  22.244  33.496   2.214
61390W        W33716  13.819  28.420   1.779
61391W        W33717  14.750  26.690  14.780
61392W        W33718  25.681  36.750   1.763
61393W        W33719  19.112  31.187  11.551
61394W        W33720   7.154  38.568  12.335
61395W        W33721  28.265  44.865  11.907
61396W        W33722   5.353  14.045   2.934
61397W        W33723  20.751  36.548   2.711
61398W        W33724   2.515  10.626  13.293
61399W        W33725  27.649  35.802  14.947
61400W        W33726  42.371  19.108  14.940
61401W        W33727  37.551  21.789  14.881
61402W        W33728  23.062   2.502   0.453
61403W        W33729   1.970  11.081  13.940
61404W        W33730   9.135  37.956  14.282
61405W        W33731  12.687  19.978   4.519
61406W        W33732  17.911  37.282  13.860
61407W        W33733   5.655  29.710   1.201
61408W        W33734  30.650  43.508  12.874
61409W        W33735  32.498  42.565  13.986
61410W        W33736   0.977  35.576   1.132
61411W        W33737  44.557  21.669   2.383
61412W        W33738  43.992  11.644   3.348
61413W        W33739  22.693  27.580   1.839
61414W        W33740   6.262  41.605  12.139
61415W        W33741  10.875  21.835  13.766
61416W        W33742  13.711   0.544  11.864
61417W        W33743  26.459  38.818   2.842
61418W        W33744  25.543   3.394  10.674
61419W        W33745  39.759  44.185  13.835
61420W        W33746  40.882  21.364  12.864
61421W        W33747  41.511   1.759   0.421
61422W        W33748  25.179  10.352  13.095
61423W        W33749  21.159  39.047  13.353
61424W        W33750  38.594  12.400   4.418
61425W        W33751  23.571  31.841   1.612
61426W        W33752   1.133  14.644   1.293
61427W        W33753   8.721  16.815  14.768
61428W        W33754   6.366  16.828   3.778
61429W        W33755   7.640  40.782   0.780
61430W        W33756   0.986   2.957   9.790
61431W        W33757   8.764  34.868   4.398
61432W        W33758  36.769  25.323  13.629
61433W        W33759  30.888   4.700   5.389
61434W        W33760  43.599  23.194   1.655
61435W        W33761  25.377   5.794   0.186
61436W        W33762   5.827  34.467   4.879
61437W        W33763  17.211  40.642   4.868
61438W        W33764  44.206   6.800   2.176
61439W        W33765  15.679  26.065  11.946
61440W        W33766  25.384  31.011  13.904
61441W        W33767   6.171  16.382   2.302
61442W        W33768  17.711  13.354  12.933
61443W        W33769  43.326  43.215   1.558
61444W        W33770   9.662   5.757   4.510
61445W        W33771   0.237  11.123  11.616
61446W        W33772  25.529  32.851   2.926
61447W        W33773  14.726  22.680   1.238
61448W        W33774  15.765  39.244   4.766
61449W        W33775  26.590  16.736   4.537
61450W        W33776   0.044  42.427   2.652
61451W        W33777  26.397  38.779  14.641
61452W        W33778   1.319  10.605   1.616
61453W        W33779  41.038  26.064  14.780
61454W        W33780  11.798   3.572  11.059
61455W        W33781  33.549  29.387  12.890
61456W        W33782  24.626   6.011   1.795
61457W        W33783  25.493  26.050   3.933
61458W        W33784  17.050  44.239   3.642
61459W        W33785  39.344  31.602   3.922
61460W        W33786  26.552  20.517   2.813
61461W        W33787   0.197  29.162  10.657
61462W        W33788   1.860  22.979   0.860
61463W        W33789  44.122   0.699   0.955
61464W        W33790   0.344  32.323  14.929
61465W        W33791  31.106  11.175   3.420
61466W        W33792  26.711  15.091   3.905
61467W        W33793  44.429  18.365   1.870
61468W        W33794   5.886  32.164   5.183
61469W        W33795  16.492  43.937   3.175
61470W        W33796   1.763  32.490  13.127
61471W        W33797  21.371  23.447   1.353
61472W        W33798  36.052  30.917   4.458
61473W        W33799  40.796  42.005   2.219
61474W        W33800   9.180  39.052   3.393
61475W        W33801   2.643  31.545   1.233
61476W        W33802   6.321   2.822   0.072
61477W        W33803   8.424  39.470   3.180
61478W        W33804  30.069   0.397   1.280
61479W        W33805  39.393  37.555  10.603
61480W        W33806  40.991  22.663  10.992
61481W        W33807  36.166  41.500   3.797
61482W        W33808  15.864  22.456   0.300
61483W        W33809   5.818  42.531  11.136
61484W        W33810  18.503  13.860   1.814
61485W        W33811  17.831  10.638   2.408
61486W        W33812  17.417  23.843  14.032
61487W        W33813   1.599  19.704  14.568
61488W        W33814  37.294   4.470  11.529
61489W        W33815  34.450  23.271  11.907
61490W        W33816   8.435  37.558   1.362
61491W        W33817  20.557  28.631  13.858
61492W        W33818  34.663  16.349  14.489
61493W        W33819   3.315  34.126  13.417
61494W        W33820   0.445  24.540   3.652
61495W        W33821  28.323   6.544  12.143
61496W        W33822  42.942   8.634   2.112
61497W        W33823  20.992  26.046  11.063
61498W        W33824   6.339  37.470   4.052
61499W        W33825  10.351  29.578  10.716
61500W        W33826   6.614  25.618  12.329
61501W        W33827  13.158  19.578  12.952
61502W        W33828   9.629   8.776   3.231
61503W        W33829  20.941  39.939  12.574
61504W        W33830  16.978  21.683  12.833
61505W        W33831  36.719  12.636  12.227
61506W        W33832  31.517  41.539   2.819
61507W        W33833  11.514  34.597  10.157
61508W        W33834  14.624   8.108   0.947
61509W        W33835  21.303  21.948   4.409
61510W        W33836  19.273   2.037  11.123
61511W        W33837  23.660  22.135  10.571
61512W        W33838   2.365  36.859   1.668
61513W        W33839  25.901  24.132  12.625
61514W        W33840  39.070  43.516   0.728
61515W        W33841  13.958  13.797  11.115
61516W        W33842  41.035  21.323  13.765
61517W        W33843   8.746  43.004   3.081
61518W        W33844  38.874  14.583   1.213
61519W        W33845  43.518  20.658   4.580
61520W        W33846   5.182  13.651  12.026
61521W        W33847  31.551  34.032   2.697
61522W        W33848  19.275  40.825   0.864
61523W        W33849  29.989  27.738  11.976
61524W        W33850   4.350  19.817  13.077
61525W        W33851  29.429  29.184  13.385
61526W        W33852  28.283  15.185  12.128
61527W        W33853  35.072  36.814   3.671
61528W        W33854  41.287  40.547  11.105
61529W        W33855  39.338   6.690  11.107
61530W        W33856   2.529  23.743   4.072
61531W        W33857  40.862  25.449   0.346
61532W        W33858   8.739  44.650   0.942
61533W        W33859  23.115  12.286   4.229
61534W        W33860   4.962   5.740  13.883
61535W        W33861   0.939  29.572  10.885
61536W        W33862   3.947  43.320   2.632
61537W        W33863   6.555  30.641   0.482
61538W        W33864  37.527  13.804  14.549
61539W        W33865  12.120   4.514   0.776
61540W        W33866  31.966  29.058  13.695
61541W        W33867  26.288  14.665  14.318
61542W        W33868   2.251  32.799   3.342
61543W        W33869  12.306  22.009  12.834
61544W        W33870  37.005  42.356   4.198
61545W        W33871  38.909  15.922   0.765
61546W        W33872  25.318  11.131   0.523
61547W        W33873  36.144  39.993  13.853
61548W        W33874  24.830  43.047  13.528
61549W        W33875   0.521   8.358   3.788
61550W        W33876  39.903  22.632  12.484
61551W        W33877   1.113   8.929   1.247
61552W        W33878  34.734  44.548  11.003
61553W        W33879  18.682  35.360  10.554
61554W        W33880  22.617   1.024   0.632
61555W        W33881  31.691  14.836  12.568
61556W        W33882  22.940   1.232  11.681
61557W        W33883  14.565  41.480   3.219
61558W        W33884  10.977   3.885   4.275
61559W        W33885  42.617  38.822   2.565
61560W        W33886  19.348  12.786   0.359
61561W        W33887  33.478  43.817  14.275
61562W        W33888  16.084  31.134  11.587
61563W        W33889  29.962  17.513  14.494
61564W        W33890  12.922   4.773   3.662
61565W        W33891  40.934   3.927  14.220
61566W        W33892  19.221  41.327   3.893
61567W        W33893   7.044  29.414   1.316
61568W        W33894  15.450  16.751   2.448
61569W        W33895  12.631  26.084   1.124
61570W        W33896  44.906   7.879   0.010
61571W        W33897  22.643  40.942  13.325
61572W        W33898  33.506  27.671  13.439
61573W        W33899  13.905  16.430  13.029
61574W        W33900   4.249  10.622   0.736
61575W        W33901  15.093  33.968  12.281
61576W        W33902   6.724  14.289  11.565
61577W        W33903  33.447  24.516  13.784
61578W        W33904  32.873  31.613   0.599
61579W        W33905  28.555  24.242   4.523
61580W        W33906  37.612  17.909  10.244
61581W        W33907  28.582   6.777   0.990
61582W        W33908  20.054   2.539  12.524
61583W        W33909  16.198  12.653  13.454
61584W        W33910  10.693   7.910  14.462
61585W        W33911  19.816   5.700   4.385
61586W        W33912  41.498   8.082  13.680
61587W        W33913  16.700  32.538  14.528
61588W        W33914  24.867  37.864   0.259
61589W        W33915  43.495   5.624  12.562
61590W        W33916  27.996   4.010  13.258
61591W        W33917  16.854  36.590  11.568
61592W        W33918  35.891   3.396   3.588
61593W        W33919  21.252  22.449   4.300
61594W        W33920  39.284  17.638   1.432
61595W        W33921   1.729  34.643  11.947
61596W        W33922  10.760  41.535  13.805
61597W        W33923  29.846  16.163  11.974
61598W        W33924   6.595   4.927  12.573
61599W        W33925  14.027  12.802   3.752
61600W        W33926  13.015  41.774  14.827
61601W        W33927  43.975  41.459  14.239
61602W        W33928  14.338  36.359  12.041
61603W        W33929   7.973  19.742  13.793
61604W        W33930  16.851  31.300  13.574
61605W        W33931  29.013  25.398   9.967
61606W        W33932  35.964  42.988   0.060
61607W        W33933  38.656  31.989  11.884
61608W        W33934  33.935  43.262  14.501
61609W        W33935  22.061  31.688  11.111
61610W        W33936  14.433  25.109   3.390
61611W        W33937  25.456  19.341  12.220
61612W        W33938  10.273   7.463   2.561
61613W        W33939  14.102  12.150   0.098
61614W        W33940  11.096  20.569  14.955
61615W        W33941  19.110  40.020   0.408
61616W        W33942  20.674  14.601  12.871
61617W        W33943  24.168   6.257   0.031
61618W        W33944  14.570  33.787  13.522
61619W        W33945   6.176  10.130   1.188
61620W        W33946   8.644  39.993  12.086
61621W        W33947  39.538  32.548  13.844
61622W        W33948  34.836   2.626  14.272
61623W        W33949  13.197  34.956   1.648
61624W        W33950  43.381  36.609  10.618
61625W        W33951  34.513  19.094  10.664
61626W        W33952  33.130  21.678  10.467
61627W        W33953   7.504  21.759   3.272
61628W        W33954  14.761  10.807   4.738
61629W        W33955  30.462  38.338  14.076
61630W        W33956  14.644  11.740  10.026
61631W        W33957  24.496  32.150  13.886
61632W        W33958  34.888  34.529   5.101
61633W        W33959  23.531  36.619  10.528
61634W        W33960   6.216  17.694   4.113
61635W        W33961  32.210  40.797  14.831
61636W        W33962  14.195  38.814   4.807
61637W        W33963  37.607   7.637  14.484
61638W        W33964  19.665  24.609   3.148
61639W        W33965   5.994  34.534  14.519
61640W        W33966  20.597  36.842  13.925
61641W        W33967   0.218  28.438  14.529
61642W        W33968   4.823  25.555   3.709
61643W        W33969  30.683  19.107   1.207
61644W        W33970  22.472  12.758  13.006
61645W        W33971  38.663  25.013   4.292
61646W        W33972  22.485  38.005   3.985
61647W        W33973  10.740   6.901  13.035
61648W        W33974  33.409  13.865   1.767
61649W        W33975  15.649  38.028  14.466
61650W        W33976  31.452  14.605  14.850
61651W        W33977  16.187   4.222  12.036
61652W        W33978   9.366   8.730  11.976
61653W        W33979   2.362   7.342  12.794
61654W        W33980  42.081  13.342   0.677
61655W        W33981  10.917  38.090   0.782
61656W        W33982  28.168  29.757   3.122
61657W        W33983   9.652   2.889  14.963
61658W        W33984   7.780  22.647   5.130
61659W        W33985   3.371  11.823  13.268
61660W        W33986  21.708   1.355   0.065
61661W        W33987  24.890  15.708  13.998
61662W        W33988  30.567   6.804  12.738
61663W        W33989  18.160  26.433   0.827
61664W        W33990   1.444   3.922   1.872
61665W        W33991  25.233  26.260   3.216
61666W        W33992   6.443  26.559  11.580
61667W        W33993  31.922  38.817   2.802
61668W        W33994  25.529  14.734  11.140
61669W        W33995  21.087  34.311   4.113
61670W        W33996  39.687  23.749   2.126
61671W        W33997  10.609   2.851  11.166
61672W        W33998  39.734   9.275  13.867
61673W        W33999  22.168   2.920   0.849
61674W        W34000  22.987  38.489   4.544
61675W        W34001   4.000  28.894  11.764
61676W        W34002  32.509  38.453  13.003
61677W        W34003  25.781   2.475  11.961
61678W        W34004  23.056  15.185  10.097
61679W        W34005  24.237  36.276   4.045
61680W        W34006  17.362  10.717   3.318
61681W        W34007  26.061   0.225   4.268
61682W        W34008  42.749   2.943   2.780
61683W        W34009  23.728  21.719  11.547
61684W        W34010   6.452  39.980  14.366
61685W        W34011  24.571   5.911   2.710
61686W        W34012  37.112  26.015   2.314
61687W        W34013  40.377  15.905   0.880
61688W        W34014  44.460  39.388  13.792
61689W        W34015  44.025  21.682  12.600
61690W        W34016   8.369   4.805  13.876
61691W        W34017  16.681  39.070   4.565
61692W        W34018   8.302  23.144   4.575
61693W        W34019   0.606  19.584  14.419
61694W        W34020  44.017   5.819  13.798
61695W        W34021  38.465  35.978   4.329
61696W        W34022  26.491  15.374   3.536
61697W        W34023  14.163   6.040  11.968
61698W        W34024  32.622  41.370  12.294
61699W        W34025  43.941   3.558   0.861
61700W        W34026   3.138  27.709  12.537
61701W        W34027  13.775  28.082   5.295
61702W        W34028  38.433  38.827  11.534
61703W        W34029  35.747  15.829   1.914
61704W        W34030   8.294  19.795  12.870
61705W        W34031  44.058  36.891  14.473
61706W        W34032   3.625   0.839  10.170
61707W        W34033  19.288  43.963   2.403
61708W        W34034   9.119   8.844  13.372
61709W        W34035   2.817  42.070  10.391
61710W        W34036  30.954  44.253  14.021
61711W        W34037  19.832  24.732   2.189
61712W        W34038  39.722  17.575   1.035
61713W        W34039  21.635  36.953  13.548
61714W        W34040  25.105  31.968   0.660
61715W        W34041   1.345  44.167   1.894
61716W        W34042  22.580  13.380  14.039
61717W        W34043   9.593  11.297   1.287
61718W        W34044  38.717  16.422  14.786
61719W        W34045  30.408  23.241   3.198
61720W        W34046  20.944  39.977  11.329
61721W        W34047  30.027   1.683  12.487
61722W        W34048  15.182   7.931   2.167
61723W        W34049   1.588   5.773   2.784
61724W        W34050  26.451   4.427   0.882
61725W        W34051  44.512  20.099  10.588
61726W        W34052  16.487   0.004  12.121
61727W        W34053  11.673  41.258  11.381
61728W        W34054  12.519  11.563  11.674
61729W        W34055  21.087   4.216  10.079
61730W        W34056  36.910   6.398   4.651
61731W        W34057  16.622   5.544   1.288
61732W        W34058   0.839  38.086  13.791
61733W        W34059   2.208  12.624   3.707
61734W        W34060  28.911   3.690   1.905
61735W        W34061  14.121  23.408   4.536
61736W        W34062   1.029  30.830  12.360
61737W        W34063  25.414  36.619   2.717
61738W        W34064  29.118  25.729  14.882
61739W        W34065  38.006   8.343  13.184
61740W        W34066  35.793  28.627   2.839
61741W        W34067  34.047   7.318   1.806
61742W        W34068  27.563   2.478  12.401
61743W        W34069  37.139   4.790  14.388
61744W        W34070  38.254  21.082   3.830
61745W        W34071   4.499   6.874  14.770
61746W        W34072  44.834  29.542  12.345
61747W        W34073  35.635  35.044   3.300
61748W        W34074  13.769  13.343   3.672
61749W        W34075   2.874   5.709   1.965
61750W        W34076  22.566  19.822   3.739
61751W        W34077  20.699  41.314   3.548
61752W        W34078  16.112   9.904   4.523
61753W        W34079   2.039  16.458   2.407
61754W        W34080  23.146   8.384  10.264
61755W        W34081  27.402   3.467   0.665
61756W        W34082   7.677  17.603   4.115
61757W        W34083  34.413  44.796   0.068
61758W        W34084  18.613  35.531   3.366
61759W        W34085  40.047  30.498  11.147
61760W        W34086  28.531  35.914  14.752
61761W        W34087  42.041   0.851  11.614
61762W        W34088  41.562  22.763  13.650
61763W        W34089   0.944  27.473   2.735
61764W        W34090  28.451  13.047  11.385
61765W        W34091   0.367  17.897  12.387
61766W        W34092  34.562  30.112   0.788
61767W        W34093  20.264  40.519   0.208
61768W        W34094  29.588  40.106  10.510
61769W        W34095  31.552  13.752   0.236
61770W        W34096  24.746  22.965   1.395
61771W        W34097   8.691  26.305  11.550
61772W        W34098  17.317  22.566   0.822
61773W        W34099   9.124  18.135   3.178
61774W        W34100   6.578  30.076  14.736
61775W        W34101   1.262  20.024  13.799
61776W        W34102  26.654  29.088  14.243
61777W        W34103  32.649  14.290   1.896
61778W        W34104  14.369  41.905   2.647
61779W        W34105  27.783  23.720   2.819
61780W        W34106  14.008  41.516   4.339
61781W        W34107  28.338  42.263   1.480
61782W        W34108  34.206  34.424  12.446
61783W        W34109  21.179  36.263   3.690
61784W        W34110  13.916  24.271   4.578
61785W        W34111  44.022  27.878   3.648
61786W        W34112  19.267   0.349   3.436
61787W        W34113   9.893   6.764   4.074
61788W        W34114  19.970  29.142  12.955
61789W        W34115  36.348  17.660  10.598
61790W        W34116  15.544  41.254   0.287
61791W        W34117   7.327   7.257   4.981
61792W        W34118  21.578   2.191  11.587
61793W        W34119  39.495  29.998   0.491
61794W        W34120   2.814   1.701   3.712
61795W        W34121  11.984  34.447   2.200
61796W        W34122   1.778  20.023   0.736
61797W        W34123  27.192   6.806   2.987
61798W        W34124  44.361   6.380   3.116
61799W        W34125  32.983  39.379  14.880
61800W        W34126  27.736  24.472   3.593
61801W        W34127  29.117  42.307  14.828
61802W        W34128  32.580  39.905   1.372
61803W        W34129  26.549  31.028  10.851
61804W        W34130  44.338  33.986  12.790
61805W        W34131  12.765  19.651   4.099
61806W        W34132  23.609  43.004   4.706
61807W        W34133  42.816  26.069   3.379
61808W        W34134  41.939  24.011  11.538
61809W        W34135  36.043  37.369  10.861
61810W        W34136   3.203  28.228  12.599
61811W        W34137   4.066  32.935  11.710
61812W        W34138  17.690  12.883   3.292
61813W        W34139  30.853  16.942  14.376
61814W        W34140  29.010  32.521   4.102
61815W        W34141   9.531  37.041   0.811
61816W        W34142  40.993  28.676   3.287
61817W        W34143  40.998   3.688   0.839
61818W        W34144  43.916  36.006  12.585
61819W        W34145  27.549  33.173  13.327
61820W        W34146  25.105  14.933  13.052
61821W        W34147  36.311  21.341   4.271
61822W        W34148   3.259  26.765  11.048
61823W        W34149  23.988  23.540   4.629
61824W        W34150   0.558   9.168   2.092
61825W        W34151  27.364  13.201  13.422
61826W        W34152  38.509  23.158   4.161
61827W        W34153  21.316  10.236   0.882
61828W        W34154  41.959   1.806  12.185
61829W        W34155   2.028  23.598   4.052
61830W        W34156  35.457  35.826   4.996
61831W        W34157  37.435  27.818   1.877
61832W        W34158  14.837  21.678   1.394
61833W        W34159  40.889  12.211   0.697
61834W        W34160   1.436  32.343  11.107
61835W        W34161  41.182  17.740  11.122
61836W        W34162  38.160  35.507   1.786
61837W        W34163  14.643  11.276  11.724
61838W        W34164  24.271   2.384  12.024
61839W        W34165  32.021   1.452  13.929
61840W        W34166  26.186  30.085   2.277
61841W        W34167  21.631  19.184   4.457
61842W        W34168   4.192  10.379   3.723
61843W        W34169   0.906  24.473  12.491
61844W        W34170  13.172  38.891  12.094
61845W        W34171   8.947  41.079   1.318
61846W        W34172  28.658   6.710  14.442
61847W        W34173   5.479  37.446   4.119
61848W        W34174   1.247   6.209  13.356
61849W        W34175   7.728  21.035  13.842
61850W        W34176  37.350  10.247   0.380
61851W        W34177   1.450   7.091  11.695
61852W        W34178   8.304  25.990  14.484
61853W        W34179  39.055  24.027  14.299
61854W        W34180  37.436  39.601  14.500
61855W        W34181  19.992   5.121   1.726
61856W        W34182  29.134   2.741   3.432
61857W        W34183  17.199  24.457   3.647
61858W        W34184  22.953  13.374   3.717
61859W        W34185  14.622   7.692  11.640
61860W        W34186  33.571  42.597   2.466
61861W        W34187   4.706   7.444   2.857
61862W        W34188  41.558  28.543   1.813
61863W        W34189  44.538  33.993   1.396
61864W        W34190   4.199  44.921   0.666
61865W        W34191   8.841  44.028  14.025
61866W        W34192  25.393  44.457  11.649
61867W        W34193  23.817  30.982  12.468
61868W        W34194  21.716   6.277   9.984
61869W        W34195  41.352  40.470   0.860
61870W        W34196  20.470   8.352  13.003
61871W        W34197  11.762  27.088  14.722
61872W        W34198  44.801  15.219   1.277
61873W        W34199  43.114   0.640   2.051
61874W        W34200  24.875  37.485  14.907
61875W        W34201  24.095  23.771   0.306
61876W        W34202  34.585  41.803   1.231
61877W        W34203  13.343  31.624   1.317
61878W        W34204   1.897   2.480   2.149
61879W        W34205  17.152  14.207   9.980
61880W        W34206  22.773  36.625  11.621
61881W        W34207  17.937  41.262  13.208
61882W        W34208   2.348  27.905   0.872
61883W        W34209  34.889  35.908  10.187
61884W        W34210  27.934  30.157   2.709
61885W        W34211  25.983  29.026   0.730
61886W        W34212  16.981  27.490   0.885
61887W        W34213  37.818  35.141   1.737
61888W        W34214   0.703  34.420  14.148
61889W        W34215  34.330  39.636   4.578
61890W        W34216   4.405  24.896  11.290
61891W        W34217  30.013  12.597   3.328
61892W        W34218   4.412   8.404   1.815
61893W        W34219  39.389  41.137  12.297
61894W        W34220  39.928  23.928   0.248
61895W        W34221  32.089   5.830  13.072
61896W        W34222  34.865  27.721  11.113
61897W        W34223  28.418   1.706  12.035
61898W        W34224  30.390   7.431   1.303
61899W        W34225  31.820  34.285  13.961
61900W        W34226  22.595  15.604  12.416
61901W        W34227  25.943  28.886   1.691
61902W        W34228  34.236  38.896  12.133
61903W        W34229  16.785  10.797  12.403
61904W        W34230   6.737   9.913  10.068
61905W        W34231   1.407  35.177   1.133
61906W        W34232  40.135  36.896   2.696
61907W        W34233  34.692   5.184   0.889
61908W        W34234   0.309  39.346   3.759
61909W        W34235   1.512  29.051   3.869
61910W        W34236  12.630  25.590   2.308
61911W        W34237  34.539  35.519  12.465
61912W        W34238   6.944  16.369  12.019
61913W        W34239   8.551  38.192  12.486
61914W        W34240  30.718  29.097   1.686
61915W        W34241  36.425   1.400  11.514
61916W        W34242   3.530  15.270  12.948
61917W        W34243  17.294  16.134   3.134
61918W        W34244   0.348  30.857   2.326
61919W        W34245   8.713  28.531  11.809
61920W        W34246  16.416  21.800  13.543
61921W        W34247  38.800  27.157   0.358
61922W        W34248  13.125  24.583   0.684
61923W        W34249  18.496  40.424   3.206
61924W        W34250  19.240  33.993  11.579
61925W        W34251  42.292  20.661  10.720
61926W        W34252  22.005  39.982  12.126
61927W        W34253  32.341  16.370   4.049
61928W        W34254   1.776   9.293   2.814
61929W        W34255  19.449  24.341  12.048
61930W        W34256  25.141  19.166   0.025
61931W        W34257  29.160  36.349   4.353
61932W        W34258  25.409  25.029   0.775
61933W        W34259  30.503  28.168   3.626
61934W        W34260  43.267  25.004  14.495
61935W        W34261  36.927  27.573   0.695
61936W        W34262   5.777  18.392  10.828
61937W        W34263  35.774  28.129  12.501
61938W        W34264  10.761  35.031   1.658
61939W        W34265   7.211  40.108   2.415
61940W        W34266  34.405  28.007  11.297
61941W        W34267  30.564  14.969   3.530
61942W        W34268  42.347  31.722   2.305
61943W        W34269  29.988  34.248   2.119
61944W        W34270  44.386  29.629   0.853
61945W        W34271  22.312  35.764  14.459
61946W        W34272  14.586  28.513  11.578
61947W        W34273  18.161   9.346   0.446
61948W        W34274  37.874  10.471   4.663
61949W        W34275  41.525   1.773   2.811
61950W        W34276  34.850  40.411   2.260
61951W        W34277  36.331   4.910  14.853
61952W        W34278  39.759  37.834   2.270
61953W        W34279  10.771  35.680  14.282
61954W        W34280  31.118  21.106  13.015
61955W        W34281  29.821   6.830  12.010
61956W        W34282  39.481  36.697  11.883
61957W        W34283  18.508  14.536  14.398
61958W        W34284  11.398  38.973   1.171
61959W        W34285  29.688  33.480  14.089
61960W        W34286   9.892  43.264   2.865
61961W        W34287  33.427  42.923   9.882
61962W        W34288  18.072  12.363  14.830
61963W        W34289   8.474  14.361   2.852
61964W        W34290  27.866   4.670  10.290
61965W        W34291  24.130   7.927   2.700
61966W        W34292  23.596  39.556  13.938
61967W        W34293  23.276   4.204   1.837
61968W        W34294  13.931  24.233   0.459
61969W        W34295  44.437  31.478   1.283
61970W        W34296  12.805  33.340   4.213
61971W        W34297  12.635   0.869   1.887
61972W        W34298  30.689  27.110  11.651
61973W        W34299  40.390  37.456   5.278
61974W        W34300  32.566   3.389  10.710
61975W        W34301  28.014   6.345   3.597
61976W        W34302  42.989  39.164   4.561
61977W        W34303   9.851  24.055   3.184
61978W        W34304  18.185  41.362   0.144
61979W        W34305  10.862  14.190  13.970
61980W        W34306   2.218  36.836   1.151
61981W        W34307  38.311   1.390  11.053
61982W        W34308   5.210  29.987   1.375
61983W        W34309   6.848   7.801  11.200
61984W        W34310  12.878  22.783   3.968
61985W        W34311   7.333  11.867  14.602
61986W        W34312  18.638  11.658   1.283
61987W        W34313  14.681  42.406  12.100
61988W        W34314   6.229  34.040   2.146
61989W        W34315  15.348  40.163   2.296
61990W        W34316  11.794  37.302   4.998
61991W        W34317  37.054   8.886  13.480
61992W        W34318  18.755  29.031   1.236
61993W        W34319   3.678   9.672  12.037
61994W        W34320  26.921  43.885  11.964
61995W        W34321  29.979  30.170  13.414
61996W        W34322  28.453  13.735  13.380
61997W        W34323  23.452  24.127   3.748
61998W        W34324  28.375  41.378   3.484
61999W        W34325  27.913  24.175   0.955
62000W        W34326  41.703   2.354   3.736
62001W        W34327   0.282  42.101  12.667
62002W        W34328  35.983  41.364  13.915
62003W        W34329  15.145   1.858  13.387
62004W        W34330  27.003   3.675   0.925
62005W        W34331  39.990  41.898  11.588
62006W        W34332  42.803  11.820   3.666
62007W        W34333   6.757   3.207   1.792
62008W        W34334  10.892  41.029   2.366
62009W        W34335   8.539  38.079   2.161
62010W        W34336  40.233  35.986   5.212
62011W        W34337  19.839  42.356  12.493
62012W        W34338   1.707  26.981  14.340
62013W        W34339  26.288  19.461  12.343
62014W        W34340  29.398  41.856   4.186
62015W        W34341  23.117  11.255   0.461
62016W        W34342  13.885  42.284  12.592
62017W        W34343  31.341   2.123   3.199
62018W        W34344   8.937  13.868  12.879
62019W        W34345  15.210  12.609   1.904
62020W        W34346  22.535  13.304   1.398
62021W        W34347  31.382  16.781  10.960
62022W        W34348  32.093  33.898   0.462
62023W        W34349  42.356  21.420   1.939
62024W        W34350  10.865   8.804  11.646
62025W        W34351  29.642  43.908   4.173
62026W        W34352  40.028  36.957  13.454
62027W        W34353  25.273  35.895   0.890
62028W        W34354  19.503  22.746  14.149
62029W        W34355   0.693   3.829  14.670
62030W        W34356  14.689  29.404  14.931
62031W        W34357  13.259  22.211  14.886
62032W        W34358  22.568  31.801   1.869
62033W        W34359   1.182  16.670   3.452
62034W        W34360  36.674  34.035  12.181
62035W        W34361  21.181   7.276   4.563
62036W        W34362  24.697  39.400  12.423
62037W        W34363   6.204  21.326  10.760
62038W        W34364   3.267  15.748  12.109
62039W        W34365  28.403  40.486   2.628
62040W        W34366  27.592  22.757  13.817
62041W        W34367  16.760  25.788   2.703
62042W        W34368  25.084  25.193   1.144
62043W        W34369  16.559  33.570   4.760
62044W        W34370  38.453  13.319   4.539
62045W        W34371  37.021  28.442   2.283
62046W        W34372   4.930  25.117  14.407
62047W        W34373  27.492  44.033  13.573
62048W        W34374  12.552  11.897  13.840
62049W        W34375  39.303  27.868  13.035
62050W        W34376  44.311  39.467   3.849
62051W        W34377   4.287  26.367   3.721
62052W        W34378   5.675  29.150  13.288
62053W        W34379  16.783   2.761   1.917
62054W        W34380  19.660  17.519   4.274
62055W        W34381   6.602  26.186   5.052
62056W        W34382  29.972  27.982   5.401
62057W        W34383  27.625  18.872  14.008
62058W        W34384   0.891  37.999  14.772
62059W        W34385  24.211  37.238   2.163
62060W        W34386  16.401  31.403  13.336
62061W        W34387   2.957  16.046   2.255
62062W        W34388   4.856  36.028  14.990
62063W        W34389   0.495   5.108   1.466
62064W        W34390  30.577  15.743   1.964
62065W        W34391  15.621   3.941  11.077
62066W        W34392  19.527  32.889   0.781
62067W        W34393  18.754   3.270   1.215
62068W        W34394  35.478  30.728  14.513
62069W        W34395   8.121  43.885   4.222
62070W        W34396  38.445  17.567   4.534
62071W        W34397  30.904  19.795   3.495
62072W        W34398  14.381  41.318  12.563
62073W        W34399   8.542  39.798   1.014
62074W        W34400  26.575   5.339  13.346
62075W        W34401  31.122  32.476  12.461
62076W        W34402  23.529  13.742  11.986
62077W        W34403  19.519  34.333  13.485
62078W        W34404  40.896  44.878  14.197
62079W        W34405  17.633   7.733  11.905
62080W        W34406  16.699  39.431   4.953
62081W        W34407  18.606   9.368  10.697
62082W        W34408  44.249  33.609  11.429
62083W        W34409  33.716  35.034   0.788
62084W        W34410  30.962  35.853   2.274
62085W        W34411  40.935   5.201  10.805
62086W        W34412   3.850  29.969  14.775
62087W        W34413   3.814  28.634   3.005
62088W        W34414  21.210   8.268  13.705
62089W        W34415  37.066  16.546   2.355
62090W        W34416  37.318   4.445   3.704
62091W        W34417  23.637   4.303  12.568
62092W        W34418   5.870  43.535   4.240
62093W        W34419  28.463  13.629   1.483
62094W        W34420   8.965   4.220   0.932
62095W        W34421  10.049  28.782   0.710
62096W        W34422  19.658  18.026  12.522
62097W        W34423  15.237  33.182   3.199
62098W        W34424  38.533  31.400  14.785
62099W        W34425  17.208  27.697  10.755
62100W        W34426  22.091  32.441  11.968
62101W        W34427  21.700  15.104  11.330
62102W        W34428  29.065  25.505  11.397
62103W        W34429  11.134  38.559  11.081
62104W        W34430  25.148  14.193   3.716
62105W        W34431  42.956  13.290   3.701
62106W        W34432  43.639  41.445   2.383
62107W        W34433  38.067  28.986   4.951
62108W        W34434  16.308  19.631  11.129
62109W        W34435  30.960  11.303   1.244
62110W        W34436  37.151  33.792   3.291
62111W        W34437  29.485   6.627  14.698
62112W        W34438  34.940  19.552  10.315
62113W        W34439  18.201  26.627   1.825
62114W        W34440   2.411  26.067   1.971
62115W        W34441  36.895  43.321   1.766
62116W        W34442  15.550  32.324  14.877
62117W        W34443  36.239  34.538   5.075
62118W        W34444  39.620  43.976  14.585
62119W        W34445  17.220  36.547   0.027
62120W        W34446  35.988  41.623  14.413
62121W        W34447  15.088  14.686   0.987
62122W        W34448  26.129   4.670  13.230
62123W        W34449  35.979  37.834  13.340
62124W        W34450  33.400   3.804   3.340
62125W        W34451  15.407   9.437  12.593
62126W        W34452  18.676  21.667  14.722
62127W        W34453  10.901  13.802   3.119
62128W        W34454   6.974  40.919  14.317
62129W        W34455  27.147   3.911   1.915
62130W        W34456  20.016  41.017   1.420
62131W        W34457  21.716   3.845   2.950
62132W        W34458   8.789   9.626   0.284
62133W        W34459  14.613   5.854  11.704
62134W        W34460  44.282   6.900   3.232
62135W        W34461  21.165  22.441  14.413
62136W        W34462  16.352  20.204  12.646
62137W        W34463  31.076   0.459  12.969
62138W        W34464   9.275  17.468  14.310
62139W        W34465  14.369   8.891   0.289
62140W        W34466  37.625   9.783   0.491
62141W        W34467  35.496   7.596   4.499
62142W        W34468  34.846  44.026   4.938
62143W        W34469  34.472   0.964   3.947
62144W        W34470  29.020  34.516   0.966
62145W        W34471   3.292   2.780   1.878
62146W        W34472   5.672  43.232  13.155
62147W        W34473  29.188  25.786  14.054
62148W        W34474  33.661   0.582  13.851
62149W        W34475  24.577  43.230   2.161
62150W        W34476  42.395  32.022   1.313
62151W        W34477  38.960  28.944  14.843
62152W        W34478  40.888  28.728  10.771
62153W        W34479   3.876   2.852   3.162
62154W        W34480  23.206  31.311  11.092
62155W        W34481  18.597   4.308  14.904
62156W        W34482   0.397  31.835  12.913
62157W        W34483  44.940   6.894  13.983
62158W        W34484  41.936  40.418   2.086
62159W        W34485  27.451  19.971   2.688
62160W        W34486  38.159  20.629   2.148
62161W        W34487   7.785  21.669   2.493
62162W        W34488   9.040  39.808   4.884
62163W        W34489  18.553  21.169  14.916
62164W        W34490  33.596   2.544  13.955
62165W        W34491   2.374  18.121  11.176
62166W        W34492  16.751   8.540   3.398
62167W        W34493  36.435  34.042   2.780
62168W        W34494  20.632  19.317   0.837
62169W        W34495  10.869  16.702   4.009
62170W        W34496   0.850  37.463   1.207
62171W        W34497  25.603  38.439  14.513
62172W        W34498  15.290  35.144  11.085
62173W        W34499  24.071  16.460  10.878
62174W        W34500  42.073   3.690   2.157
62175W        W34501  22.556   3.387  10.355
62176W        W34502   5.388  23.760  13.564
62177W        W34503  29.150  21.424  14.752
62178W        W34504  44.048   6.075  13.313
62179W        W34505  33.161  16.468  10.951
62180W        W34506   5.919  34.588   0.025
62181W        W34507  22.039  38.446   0.379
62182W        W34508  23.757  35.841  11.149
62183W        W34509   6.792  10.905   0.101
62184W        W34510   4.723  36.551  14.582
62185W        W34511   8.286   5.423   2.152
62186W        W34512  13.128   2.217   4.640
62187W        W34513   1.706  35.805   3.687
62188W        W34514  29.466  18.184  12.218
62189W        W34515  22.994   9.217  11.134
62190W        W34516  15.668  22.544  11.229
62191W        W34517  22.273   2.479  13.812
62192W        W34518  25.553   9.614  13.883
62193W        W34519  27.696  37.413   5.128
62194W        W34520  42.498  23.020   4.600
62195W        W34521   0.465  16.654   2.830
62196W        W34522  17.137  13.336   1.791
62197W        W34523  11.715   5.542  14.298
62198W        W34524  12.608  43.719  12.411
62199W        W34525   2.750  23.540  11.128
62200W        W34526   7.991  37.276  13.510
62201W        W34527  44.876  14.218  13.729
62202W        W34528  13.050  21.676   1.757
62203W        W34529  43.230   1.916  14.459
62204W        W34530  36.566  29.285   0.492
62205W        W34531  19.185   7.640  10.571
62206W        W34532  39.027  34.831  11.594
62207W        W34533  17.727  33.970   4.716
62208W        W34534  36.414  42.140   4.556
62209W        W34535   4.622  38.420  12.375
62210W        W34536  40.265  36.015   0.491
62211W        W34537  32.945   9.963   0.811
62212W        W34538  21.701  12.246  13.625
62213W        W34539  13.830  39.081  14.968
62214W        W34540   9.202  19.737   0.434
62215W        W34541   4.691   5.716   1.001
62216W        W34542  20.181   1.025   2.209
62217W        W34543  20.184  38.338   4.881
62218W        W34544  18.281  39.116   3.185
62219W        W34545  12.620  35.884  14.725
62220W        W34546  36.045  19.108   0.938
62221W        W34547  21.963   6.172   4.011
62222W        W34548   6.185  42.599   2.754
62223W        W34549  44.232  41.858   1.849
62224W        W34550  40.313   0.966  14.466
62225W        W34551  21.959  29.225  11.129
62226W        W34552   6.636  23.939  13.382
62227W        W34553  31.893  26.765   3.946
62228W        W34554   2.223  37.329   4.283
62229W        W34555  15.863  32.261   3.304
62230W        W34556  24.568  17.390   1.766
62231W        W34557  15.177  15.048  11.972
62232W        W34558  28.087  43.130  11.514
62233W        W34559  25.493  40.915   2.629
62234W        W34560  18.356  28.537  13.854
62235W        W34561  41.843  44.542   2.373
62236W        W34562  33.060   5.392   2.157
62237W        W34563  13.934  29.104   3.700
62238W        W34564  27.741   1.363   2.702
62239W        W34565   4.196  14.259   3.684
62240W        W34566  12.522  15.911  11.385
62241W        W34567  24.895  36.261  10.601
62242W        W34568  34.453  37.679   0.812
62243W        W34569  38.062   5.034  13.822
62244W        W34570  28.923  29.423  14.425
62245W        W34571  19.883  16.270  12.039
62246W        W34572  35.398  40.411   2.274
62247W        W34573  34.435  23.694   4.133
62248W        W34574  41.405  21.726  11.652
62249W        W34575   3.282  10.851  12.890
62250W        W34576  31.941   3.711   2.770
62251W        W34577  29.792  12.321  11.530
62252W        W34578  43.853   7.480  12.115
62253W        W34579  40.477  26.994  12.971
62254W        W34580  19.240  28.539  14.448
62255W        W34581  26.438  15.652  11.947
62256W        W34582   7.125   8.198  12.068
62257W        W34583  35.401  29.999   3.991
62258W        W34584  20.792   5.253   4.150
62259W        W34585  43.242  29.460   1.441
62260W        W34586   9.838  29.058  11.157
62261W        W34587  37.056   1.925   1.420
62262W        W34588   0.870  11.523   3.718
62263W        W34589  18.516  11.136   3.701
62264W        W34590  36.776  16.088   3.593
62265W        W34591  26.808  41.091   2.355
62266W        W34592  10.277  44.566  12.874
62267W        W34593  19.233   5.665   3.708
62268W        W34594   4.921  41.215  14.407
62269W        W34595   4.175  39.088   2.657
62270W        W34596   0.700  26.998  11.564
62271W        W34597  39.626  12.065   9.418
62272W        W34598  19.059  15.343  10.623
62273W        W34599   9.252  12.738  12.312
62274W        W34600   2.715  25.199  13.012
62275W        W34601  24.482  28.637   1.273
62276W        W34602   7.328  12.281  13.374
62277W        W34603  14.235  12.963   3.310
62278W        W34604  22.740  14.531  12.517
62279W        W34605   6.727  24.135   2.417
62280W        W34606   1.443  37.487  10.755
62281W        W34607   0.780  31.604   1.416
62282W        W34608   5.696  38.378   3.651
62283W        W34609  42.920  31.273   0.862
62284W        W34610  42.100  36.752  12.550
62285W        W34611  38.773  32.078   1.867
62286W        W34612  19.954  12.738  13.427
62287W        W34613   8.707  32.004   2.903
62288W        W34614   0.284  44.734  11.461
62289W        W34615   1.727  28.372  11.722
62290W        W34616  38.251   2.277   4.166
62291W        W34617  25.996  25.457  12.118
62292W        W34618  33.489   2.793   2.657
62293W        W34619  17.636  30.118   3.432
62294W        W34620   5.619   1.018  14.528
62295W        W34621   9.281  12.256  13.524
62296W        W34622  32.014   9.390  10.489
62297W        W34623  43.452  12.104   0.208
62298W        W34624   5.460   7.545  13.090
62299W        W34625  33.612  27.891   0.592
62300W        W34626  11.713  23.250  14.496
62301W        W34627  41.774  11.155   0.980
62302W        W34628  27.419  20.941  11.981
62303W        W34629  18.098  30.172   3.718
62304W        W34630  24.851  43.089  14.049
62305W        W34631  31.922   2.887  13.798
62306W        W34632  33.869  44.871   3.090
62307W        W34633  34.782   9.267   2.748
62308W        W34634  19.174  14.174   0.785
62309W        W34635  23.131  20.599   3.974
62310W        W34636  15.580  15.741  13.953
62311W        W34637  21.259  40.742  13.532
62312W        W34638   5.482   6.164   0.560
62313W        W34639  10.666  38.861   4.707
62314W        W34640   5.676  38.951   4.130
62315W        W34641  15.841  13.495  10.618
62316W        W34642  19.741   7.248   4.740
62317W        W34643  29.226  41.457   2.992
62318W        W34644  12.154  18.145   1.787
62319W        W34645  18.773   3.636  12.058
62320W        W34646  16.284  17.775   0.005
62321W        W34647  16.788   6.296   3.698
62322W        W34648  31.209   5.714  11.539
62323W        W34649  29.005  22.222  12.175
62324W        W34650   9.204  13.162   0.991
62325W        W34651  14.037  12.131   2.848
62326W        W34652  18.861  21.053   1.192
62327W        W34653  15.847  14.737   3.046
62328W        W34654  40.552  31.832   1.451
62329W        W34655  32.257   8.025   1.405
62330W        W34656  37.323  35.870  10.801
62331W        W34657  36.849  13.808  12.580
62332W        W34658  34.480  28.431  14.009
62333W        W34659  31.960  11.577   2.254
62334W        W34660   0.241  20.672  13.407
62335W        W34661  20.412   2.450  14.719
62336W        W34662  18.795  15.714   1.894
62337W        W34663  26.779  22.067   1.447
62338W        W34664  32.135  11.820   3.243
62339W        W34665   2.023  36.945   3.417
62340W        W34666   5.321   9.222  12.159
62341W        W34667  38.458  38.957   0.510
62342W        W34668  34.529   2.441   0.617
62343W        W34669  37.170  20.587   1.841
62344W        W34670  36.893   1.137  14.215
62345W        W34671  25.019  22.790  14.311
62346W        W34672  34.610  11.755   4.200
62347W        W34673  19.657  43.581   2.458
62348W        W34674  21.208  16.218  11.602
62349W        W34675  10.118  26.758   4.913
62350W        W34676  33.403  30.630   1.857
62351W        W34677  29.550  19.334   3.168
62352W        W34678  16.109  16.628  14.775
62353W        W34679  31.870  43.957   3.688
62354W        W34680  25.340  20.017  12.329
62355W        W34681  19.455  21.973   2.306
62356W        W34682  11.784  26.616  12.464
62357W        W34683   9.667  38.683   1.918
62358W        W34684   0.866  43.327   1.783
62359W        W34685  26.684  11.770   0.030
62360W        W34686  12.895  34.590   2.732
62361W        W34687  25.097  37.803  10.461
62362W        W34688  38.923  37.502   2.760
62363W        W34689  30.137   2.767   0.868
62364W        W34690  17.580  37.046   2.761
62365W        W34691  26.591  38.820   1.835
62366W        W34692  37.404   1.644   3.086
62367W        W34693  32.742  37.922   2.843
62368W        W34694   0.979  24.698   2.158
62369W        W34695   7.625  11.383   4.570
62370W        W34696  18.604  43.566   4.571
62371W        W34697  42.122  24.154   2.341
62372W        W34698  34.075   3.466  11.869
62373W        W34699  12.303  11.759   4.520
62374W        W34700  10.077  41.398  13.120
62375W        W34701  17.779  38.351  14.867
62376W        W34702  21.165  38.369   5.164
62377W        W34703  30.884  24.588  13.380
62378W        W34704  42.003  30.719   3.500
62379W        W34705  40.783  23.625  13.829
62380W        W34706  17.739  27.528  12.578
62381W        W34707   0.931   9.336   3.217
62382W        W34708  39.865  20.559  14.476
62383W        W34709   3.334  43.305  10.746
62384W        W34710   5.486   3.285   4.522
62385W        W34711  11.593  27.061   2.251
62386W        W34712  43.317  19.975  14.046
62387W        W34713   6.364   9.731  10.576
62388W        W34714  26.976   2.237   1.014
62389W        W34715  42.826   7.734   2.449
62390W        W34716  10.102   8.942  12.400
62391W        W34717   3.179  25.649   0.363
62392W        W34718  39.427  31.304  11.038
62393W        W34719  36.179  27.467  14.492
62394W        W34720  18.541   2.856  14.306
62395W        W34721  16.286  29.451  11.921
62396W        W34722  26.802  35.304  10.709
62397W        W34723   4.528  44.916   3.387
62398W        W34724  33.483   1.947   4.643
62399W        W34725  24.299  34.169  11.706
62400W        W34726  36.896   7.756   0.782
62401W        W34727  20.542  23.673  11.156
62402W        W34728  42.983  27.591   0.932
62403W        W34729  25.189  36.950   3.701
62404W        W34730  17.293  35.174   3.805
62405W        W34731  24.661  29.021   4.854
62406W        W34732  11.205  21.655   3.967
62407W        W34733  44.978   8.795  14.097
62408W        W34734  10.065  16.226  10.891
62409W        W34735  33.823  39.429   0.941
62410W        W34736  22.509  13.174   3.477
62411W        W34737  43.480  19.802  10.607
62412W        W34738  10.876  42.299  14.564
62413W        W34739  21.572  30.407  12.583
62414W        W34740  16.588   9.078  14.546
62415W        W34741  35.819   5.024   2.349
62416W        W34742  20.249  29.934   3.192
62417W        W34743  25.054  26.219  14.436
62418W        W34744  37.500  10.564  11.099
62419W        W34745   6.816  41.251  13.932
62420W        W34746  16.034  39.899  14.756
62421W        W34747  25.543  30.304  12.893
62422W        W34748  23.202  14.700   0.873
62423W        W34749  40.345  35.720   3.881
62424W        W34750  31.537   4.773   3.710
62425W        W34751  13.874  37.598  11.888
62426W        W34752  28.170   9.222  13.364
62427W        W34753   9.911  27.902  13.952
62428W        W34754   2.671  18.427   3.211
62429W        W34755  24.917   4.099  14.296
62430W        W34756  23.540  39.052  12.969
62431W        W34757  24.522  10.837  10.730
62432W        W34758  39.137   1.549  11.563
62433W        W34759   1.692   8.314   0.157
62434W        W34760  26.619  41.919  10.631
62435W        W34761   8.855   3.717  12.309
62436W        W34762  13.682  13.141   3.217
62437W        W34763  34.489  39.289  12.349
62438W        W34764   9.560   4.850   1.852
62439W        W34765  30.464  31.595   0.001
62440W        W34766  22.542  16.622   4.125
62441W        W34767  36.558  13.724   4.399
62442W        W34768  12.295   7.225  14.364
62443W        W34769  16.718  27.258  12.879
62444W        W34770  22.706  10.263   1.091
62445W        W34771  18.237   2.769  13.021
62446W        W34772  15.306  33.810   0.947
62447W        W34773  37.619  13.742   1.367
62448W        W34774  20.697  19.074   0.383
62449W        W34775  32.053   0.919   4.112
62450W        W34776  10.826  39.114  12.888
62451W        W34777  18.649  34.429   4.506
62452W        W34778  40.387  14.855   0.876
62453W        W34779   7.709  40.187  13.029
62454W        W34780  23.530  31.413   0.380
62455W        W34781  19.006  19.242  12.638
62456W        W34782  22.584  20.502   2.664
62457W        W34783  39.306  21.531   4.034
62458W        W34784  35.581   3.811   2.577
62459W        W34785  31.121  38.362   3.755
62460W        W34786  15.084  14.086  12.011
62461W        W34787   4.399  21.819   5.131
62462W        W34788   6.301  41.433  10.656
62463W        W34789  17.112   5.491   3.883
62464W        W34790  28.126  24.764   1.821
62465W        W34791  39.554  41.786   1.563
62466W        W34792  43.018  11.989  12.491
62467W        W34793   8.277  13.601  12.116
62468W        W34794  34.006  28.587   3.227
62469W        W34795  27.085  30.507  14.826
62470W        W34796  38.051  14.643   4.554
62471W        W34797   1.381   7.013   1.302
62472W        W34798  44.992  37.872   5.008
62473W        W34799  34.089  41.244  10.399
62474W        W34800  17.638   8.256  13.087
62475W        W34801   9.678  31.563  13.082
62476W        W34802  37.631  29.227   4.747
62477W        W34803  14.136   6.284  12.451
62478W        W34804  31.998  26.606  13.331
62479W        W34805  31.660  19.648   2.785
62480W        W34806  31.860   8.179  12.080
62481W        W34807  28.152  41.958  11.222
62482W        W34808  19.535  32.430   1.001
62483W        W34809   3.775  30.123  12.830
62484W        W34810  17.191  14.059  14.772
62485W        W34811  37.611   9.582  14.407
62486W        W34812   1.853  40.306   4.077
62487W        W34813  35.521  28.689   1.402
62488W        W34814  13.317  28.133  12.571
62489W        W34815  26.457  32.841   2.192
62490W        W34816  38.782  36.525   2.629
62491W        W34817  15.290  34.076   1.855
62492W        W34818  28.186   0.773  13.412
62493W        W34819  14.821  19.159  13.432
62494W        W34820  13.214  12.300   3.854
62495W        W34821  23.113  33.633   0.967
62496W        W34822  29.296  36.045   3.165
62497W        W34823  41.415  37.332   4.399
62498W        W34824  23.747   5.697  12.040
62499W        W34825   2.889  36.462   4.671
62500W        W34826   1.654  25.604  13.472
62501W        W34827  25.626   8.646   0.986
62502W        W34828   4.937  30.246   4.549
62503W        W34829  23.655  22.184   4.840
62504W        W34830  21.480  44.735  12.036
62505W        W34831  28.391  15.712   2.216
62506W        W34832  27.763  30.654  11.947
62507W        W34833  20.004  39.059   3.599
62508W        W34834  44.637   9.671   9.751
62509W        W34835  21.763   0.703  12.618
62510W        W34836   5.139  23.097   0.503
62511W        W34837  12.746  42.284   0.382
62512W        W34838  36.429  34.515  14.240
62513W        W34839  35.244   2.424  12.481
62514W        W34840  25.493  32.651  10.416
62515W        W34841  25.250  26.815  12.806
62516W        W34842  34.142  13.265  11.017
62517W        W34843   3.000  38.509   4.755
62518W        W34844  40.199  37.079  10.493
62519W        W34845  35.197  19.681  10.765
62520W        W34846   0.049   1.875   1.403
62521W        W34847  30.029   9.660   4.652
62522W        W34848  23.943  41.734  12.051
62523W        W34849  13.825  32.080   0.731
62524W        W34850  37.062  33.582   4.562
62525W        W34851  16.702  42.046   1.851
62526W        W34852   6.803   0.224   0.916
62527W        W34853  26.434  24.536   2.501
62528W        W34854  25.620   7.350  13.308
62529W        W34855  17.011   4.395   0.268
62530W        W34856   3.985  24.518  14.731
62531W        W34857  44.296   1.223   4.223
62532W        W34858  14.243  21.649  10.373
62533W        W34859  42.158  26.417   1.786
62534W        W34860  41.725  20.970  11.270
62535W        W34861   0.185  27.943   4.068
62536W        W34862  44.678  32.536  11.657
62537W        W34863  21.991  30.453   1.337
62538W        W34864  11.668  32.374  10.451
62539W        W34865  42.150   1.700  12.713
62540W        W34866  21.697  28.504   3.160
62541W        W34867  31.373  35.897   4.305
62542W        W34868   0.992  37.955   1.234
62543W        W34869  36.424  41.508  12.534
62544W        W34870  38.984  24.946   3.868
62545W        W34871   5.423  41.364   4.283
62546W        W34872   4.008   4.465  10.233
62547W        W34873  33.124  34.405  11.701
62548W        W34874  43.419  20.181  12.037
62549W        W34875  25.944   7.927   2.765
62550W        W34876  10.725  17.020   0.576
62551W        W34877  43.993  15.843  14.277
62552W        W34878  19.025  28.052  14.400
62553W        W34879   8.744   0.755  12.592
62554W        W34880  30.973  39.443   0.783
62555W        W34881  23.240  29.939  14.846
62556W        W34882  38.474  40.083   3.747
62557W        W34883  20.116  27.232   1.923
62558W        W34884  29.861  15.085  13.885
62559W        W34885   1.024  34.922   2.851
62560W        W34886  30.374  25.084  10.819
62561W        W34887  31.992  15.723   3.146
62562W        W34888  38.768   5.195  14.506
62563W        W34889  13.883  10.082   4.348
62564W        W34890  30.100   4.643   1.392
62565W        W34891  30.761  22.818   3.121
62566W        W34892  39.783  30.426   0.579
62567W        W34893  42.919  24.015   3.589
62568W        W34894  24.981  42.495  10.936
62569W        W34895  14.578   8.471   0.515
62570W        W34896  30.331  11.585   4.647
62571W        W34897   0.780   8.512  10.831
62572W        W34898  27.290   9.467  13.414
62573W        W34899  10.906  18.142   3.337
62574W        W34900  25.244  32.452  10.851
62575W        W34901  29.890  10.418   0.766
62576W        W34902   5.407  38.044   0.980
62577W        W34903  33.114  15.124   1.442
62578W        W34904  25.843  27.014   4.963
62579W        W34905   1.752   4.322   1.685
62580W        W34906   4.755   2.974  12.970
62581W        W34907  27.128  27.701   2.610
62582W        W34908  33.046  22.170  10.650
62583W        W34909  17.007  17.233   2.175
62584W        W34910  42.940  41.341  12.379
62585W        W34911  42.938  15.186   0.768
62586W        W34912  22.748  36.054  14.382
62587W        W34913  24.949   7.239  10.764
62588W        W34914  13.507  35.265  11.813
62589W        W34915   3.276   2.402  12.985
62590W        W34916  20.304  43.070  14.914
62591W        W34917  44.009  23.750  11.083
62592W        W34918  21.627  13.095   0.973
62593W        W34919  28.995  23.415   4.125
62594W        W34920  40.340  15.386   0.855
62595W        W34921  27.042  37.350   0.778
62596W        W34922  14.308  43.598  14.808
62597W        W34923  14.033   0.936  13.931
62598W        W34924  10.976  19.924  14.302
62599W        W34925   8.295  35.750  11.111
62600W        W34926   4.354  15.786   2.678
62601W        W34927   2.148  11.714  10.182
62602W        W34928   5.893  36.354   2.430
62603W        W34929  28.014  22.205  10.814
62604W        W34930  44.208  40.054  10.141
62605W        W34931   3.210  32.235   0.760
62606W        W34932   8.320  34.920   0.916
62607W        W34933  32.447   0.829  13.521
62608W        W34934  35.886  11.383  13.939
62609W        W34935  23.750  15.816   4.078
62610W        W34936  42.855  24.640   4.326
62611W        W34937  39.195   2.917   2.826
62612W        W34938  23.553  20.286  11.177
62613W        W34939  28.737  16.326   0.281
62614W        W34940  35.557   5.708   1.049
62615W        W34941  10.389   8.233   3.291
62616W        W34942  28.986   7.940   4.614
62617W        W34943  28.481  40.885   4.826
62618W        W34944  44.718   5.955   3.135
62619W        W34945   8.774  26.631   4.970
62620W        W34946  19.525  21.436   4.733
62621W        W34947   2.453  20.501   0.316
62622W        W34948  28.064  22.097   4.938
62623W        W34949  27.894   6.248   2.639
62624W        W34950  40.595  26.552   5.120
62625W        W34951  15.715  32.340   4.975
62626W        W34952  38.263  29.861   2.813
62627W        W34953  30.587   4.355  10.430
62628W        W34954   0.849  39.980   1.318
62629W        W34955  12.411  17.306  13.065
62630W        W34956  15.890  25.943  11.043
62631W        W34957  25.527  27.282   0.947
62632W        W34958   0.327  32.118  11.586
62633W        W34959  29.629  26.670  13.019
62634W        W34960  16.113  21.726  11.233
62635W        W34961  29.952  40.368   3.922
62636W        W34962   3.348  19.717   1.182
62637W        W34963   4.987   6.295  12.461
62638W        W34964  24.119  20.642   3.823
62639W        W34965   1.879   4.893   1.436
62640W        W34966  11.759  39.536   1.751
62641W        W34967  24.001  14.763   3.194
62642W        W34968  17.211  30.468   4.578
62643W        W34969  30.404  14.522   3.306
62644W        W34970  33.118  23.600   1.360
62645W        W34971  35.471  42.839   4.319
62646W        W34972  26.508  22.572   4.114
62647W        W34973   8.375  26.455  13.463
62648W        W34974   4.280  28.135   3.764
62649W        W34975  28.956  14.472  14.375
62650W        W34976  37.779   7.394  14.044
62651W        W34977  12.090  33.596  12.903
62652W        W34978  12.053  40.864  14.762
62653W        W34979  42.773  36.441   0.872
62654W        W34980  10.759  37.255   4.949
62655W        W34981  26.466  32.703  10.705
62656W        W34982  36.086  21.131   5.118
62657W        W34983  27.009   4.280   4.901
62658W        W34984  30.865   7.335  11.879
62659W        W34985  26.583  34.815  10.693
62660W        W34986  13.555   0.254  13.290
62661W        W34987  37.641  24.642   1.361
62662W        W34988  27.525  16.744   4.284
62663W        W34989  29.600  19.326   4.580
62664W        W34990  29.317  39.082  13.513
62665W        W34991  42.934   5.244   4.158
62666W        W34992  28.458  26.540  11.116
62667W        W34993  38.075  38.839  12.414
62668W        W34994  36.032  15.105  11.639
62669W        W34995  24.484  43.899  14.325
62670W        W34996  29.992  22.127  12.954
62671W        W34997  28.861   4.471   2.091
62672W        W34998  11.839  44.188   4.237
62673W        W34999  12.069  23.852   3.318
62674W        W35000  11.420  30.071   3.704
62675W        W35001   2.548  33.036  10.891
62676W        W35002  15.620  25.246   4.235
62677W        W35003  34.043  35.920   1.533
62678W        W35004   2.702  32.982  12.110
62679W        W35005  43.768  17.604  13.527
62680W        W35006  17.673  32.475   4.142
62681W        W35007  20.523  35.599  14.379
62682W        W35008  20.275  34.436  14.774
62683W        W35009  36.506   2.418  14.244
62684W        W35010  42.740  33.579  11.953
62685W        W35011   4.665  39.536  13.495
62686W        W35012  18.828   9.129   2.674
62687W        W35013  15.907  31.594  13.384
62688W        W35014  18.952  29.022  10.986
62689W        W35015  35.675  20.177   0.047
62690W        W35016  28.727  44.232  13.811
62691W        W35017  24.451  31.360   3.244
62692W        W35018  11.513  11.124  13.400
62693W        W35019  11.246   2.867   1.081
62694W        W35020   0.331  24.580  10.691
62695W        W35021   3.242  27.233  13.795
62696W        W35022   9.948  41.959   1.798
62697W        W35023   4.332  34.058  13.497
62698W        W35024  38.971   3.616  11.103
62699W        W35025  42.063   6.241   0.355
62700W        W35026   6.233  14.233   4.475
62701W        W35027  31.395   3.763  12.616
62702W        W35028  12.455   2.427  12.086
62703W        W35029  37.774  35.799   3.165
62704W        W35030  18.106  36.983   3.593
62705W        W35031  23.878   7.857  11.105
62706W        W35032  31.972   0.599  13.618
62707W        W35033   5.201   5.823   0.880
62708W        W35034  10.316  31.440  10.394
62709W        W35035  39.516   1.780  12.840
62710W        W35036   8.130  27.692   3.337
62711W        W35037  39.223  22.839  11.517
62712W        W35038  30.041  26.939  12.431
62713W        W35039  24.195  25.480  13.514
62714W        W35040   8.639  24.651  12.759
62715W        W35041   1.478  15.045   4.577
62716W        W35042  39.857  26.978   3.294
62717W        W35043  25.953   3.926  12.180
62718W        W35044  35.480  20.504   0.451
62719W        W35045   4.187  22.694  11.429
62720W        W35046   2.286  41.878   1.818
62721W        W35047   1.975   2.513   5.562
62722W        W35048  26.970  24.993   3.735
62723W        W35049   4.257  15.236  13.704
62724W        W35050  27.126  11.744  10.111
62725W        W35051   5.257  44.845  12.846
62726W        W35052   6.738  30.565  11.143
62727W        W35053   1.160  29.432   4.329
62728W        W35054   7.156  38.407  14.812
62729W        W35055  17.239  25.763   1.425
62730W        W35056  23.826  18.514  10.671
62731W        W35057  30.127  44.760  13.948
62732W        W35058  25.491  29.546  14.618
62733W        W35059   5.637  43.883  11.357
62734W        W35060  22.732  39.697   0.907
62735W        W35061   6.726  30.819  14.452
62736W        W35062  25.111  18.308  10.832
62737W        W35063  43.874  20.927  11.098
62738W        W35064  43.182   0.515   1.021
62739W        W35065  33.228  32.449  11.456
62740W        W35066  39.005  36.470  10.962
62741W        W35067   3.213  28.283   3.776
62742W        W35068  16.228   7.332  14.825
62743W        W35069   5.498  41.860  13.413
62744W        W35070   4.021  43.862  12.040
62745W        W35071  28.584  27.942   3.183
62746W        W35072   4.340   3.281  12.998
62747W        W35073   8.226   7.206  11.788
62748W        W35074  38.023   4.672   4.615
62749W        W35075   2.818  21.030   3.307
62750W        W35076   8.906   3.906  14.022
62751W        W35077  22.790   6.078  13.115
62752W        W35078  28.128  42.472  11.986
62753W        W35079  35.159   3.330  12.473
62754W        W35080  44.552  31.368  10.126
62755W        W35081  33.651  40.605  14.831
62756W        W35082  36.574   2.414  11.992
62757W        W35083  34.009   7.838  12.584
62758W        W35084  34.884  30.030   0.378
62759W        W35085  23.455  35.959   4.319
62760W        W35086  28.218  32.275  10.794
62761W        W35087  26.766  30.422  12.039
62762W        W35088  29.071  11.365  10.551
62763W        W35089  18.999   7.941  14.320
62764W        W35090   5.099  17.315   2.262
62765W        W35091  11.558  16.833  11.543
62766W        W35092   3.295  39.462  11.599
62767W        W35093  12.260  26.383  13.282
62768W        W35094   3.758  21.185   3.782
62769W        W35095  20.189  14.323   1.004
62770W        W35096  28.976  43.586  11.026
62771W        W35097  23.457   1.291   3.623
62772W        W35098  37.071  27.576  10.706
62773W        W35099  44.960  38.363  14.938
62774W        W35100   4.666   2.970   1.921
62775W        W35101   8.605  33.256   1.239
62776W        W35102  44.812  43.310   2.284
62777W        W35103  28.624  30.404   2.195
62778W        W35104  29.966  10.100  10.803
62779W        W35105  30.394  26.493   2.223
62780W        W35106   2.028  43.731   4.120
62781W        W35107  18.085  24.945   2.439
62782W        W35108  16.990   4.307  11.148
62783W        W35109  24.690  37.974  10.724
62784W        W35110  23.047   0.590  11.950
62785W        W35111  13.628  31.881  12.816
62786W        W35112  31.486  44.685   4.354
62787W        W35113  32.493   9.610  14.822
62788W        W35114   5.900  35.920  12.972
62789W        W35115  13.957  33.651  11.964
62790W        W35116  16.078  19.379   1.381
62791W        W35117   0.791  27.931  14.357
62792W        W35118  11.370  43.517   3.719
62793W        W35119  20.648  29.611   4.649
62794W        W35120   6.801  43.422   4.673
62795W        W35121  34.496   0.929   2.920
62796W        W35122  41.546  42.765  11.443
62797W        W35123  17.277   8.189   0.027
62798W        W35124   8.434  38.892   1.323
62799W        W35125  19.113   3.788   3.662
62800W        W35126  32.155   2.323   2.889
62801W        W35127  29.065  12.600  11.608
62802W        W35128  16.629  23.114  13.978
62803W        W35129  26.099  14.096  12.606
62804W        W35130  44.139  27.002   0.864
62805W        W35131  35.992   7.756  13.105
62806W        W35132  14.419  37.925  10.923
62807W        W35133  26.354  27.604   0.938
62808W        W35134   4.755  42.299   4.459
62809W        W35135  42.258   1.315   2.355
62810W        W35136  20.981  23.179  14.795
62811W        W35137   0.991   4.235   5.011
62812W        W35138  27.551   8.152   1.827
62813W        W35139  43.679  43.972   1.176
62814W        W35140  25.026  17.316   3.211
62815W        W35141  40.294  14.217  14.409
62816W        W35142  35.495  31.973  11.555
62817W        W35143  40.473  44.428   1.279
62818W        W35144   9.565  18.952   4.121
62819W        W35145  38.638  38.991   0.041
62820W        W35146  16.807  10.328   1.700
62821W        W35147  11.562  12.637   1.735
62822W        W35148  31.918  33.927   1.905
62823W        W35149  25.589  12.866   3.735
62824W        W35150  31.635  21.042  12.338
62825W        W35151  32.690   1.210  11.211
62826W        W35152   6.949  17.752   2.311
62827W        W35153  14.341  35.012   4.916
62828W        W35154  10.701  13.244  14.511
62829W        W35155  19.031   7.628  13.004
62830W        W35156  33.132  26.467   1.168
62831W        W35157  19.077   7.105  13.024
62832W        W35158  17.613  14.041   2.124
62833W        W35159  33.108   2.816  13.298
62834W        W35160   3.946   0.416  11.566
62835W        W35161  40.868  25.441  14.499
62836W        W35162   4.828  18.677  13.366
62837W        W35163  24.105  39.132  11.125
62838W        W35164   0.966  28.704  10.779
62839W        W35165   4.372  23.783  12.424
62840W        W35166  23.073  40.344   4.099
62841W        W35167  34.597  41.548   4.590
62842W        W35168  29.478  28.690  14.285
62843W        W35169   9.369  33.127   2.154
62844W        W35170  27.738  18.638   1.337
62845W        W35171  32.632  16.110  13.459
62846W        W35172  42.753  21.969   4.227
62847W        W35173   4.296  24.084  14.695
62848W        W35174  21.938  15.110  14.922
62849W        W35175  21.174  26.432  13.999
62850W        W35176   2.237  37.977  11.893
62851W        W35177  31.157  22.179  13.783
62852W        W35178  16.088  14.715   4.522
62853W        W35179   6.315  38.788   1.334
62854W        W35180  29.468  39.505   3.304
62855W        W35181  40.511  30.439   3.703
62856W        W35182  41.360   3.217  12.604
62857W        W35183  36.118  14.706   4.067
62858W        W35184   6.294   6.362   4.426
62859W        W35185  33.185  21.451  13.681
62860W        W35186  32.614  42.905   3.616
62861W        W35187   4.999  14.392   2.754
62862W        W35188   6.146  15.245  11.998
62863W        W35189  16.248  29.415  13.517
62864W        W35190  39.559  38.953   1.442
62865W        W35191   2.827  14.615  10.661
62866W        W35192  29.973  15.210   0.778
62867W        W35193  13.266  19.081   3.596
62868W        W35194  13.943  33.409   1.953
62869W        W35195  17.354  31.370  11.733
62870W        W35196  24.989  27.707   0.348
62871W        W35197  23.696  10.430   3.698
62872W        W35198  37.022  18.416   2.226
62873W        W35199  41.518   6.345  14.507
62874W        W35200  40.902  10.463   2.269
62875W        W35201  12.176  32.311  12.147
62876W        W35202  37.608  16.298  12.531
62877W        W35203   3.917   3.246  13.944
62878W        W35204   0.842  40.711   3.277
62879W        W35205   9.132  23.903   3.882
62880W        W35206  29.203   0.277  13.015
62881W        W35207  42.423  34.942   2.241
62882W        W35208  28.677  19.723   3.325
62883W        W35209  22.939  17.481   1.832
62884W        W35210   3.557  11.884  12.791
62885W        W35211   3.678  29.066  12.909
62886W        W35212  19.998   7.458  12.992
62887W        W35213   7.978  15.168   0.788
62888W        W35214  18.956  38.982   0.515
62889W        W35215  29.208   5.404  11.950
62890W        W35216   1.369  19.690  11.039
62891W        W35217  14.285  13.426   4.211
62892W        W35218  24.448   8.739  13.894
62893W        W35219   8.386   2.805  11.543
62894W        W35220  39.010   5.736  13.408
62895W        W35221   5.893  30.697   4.686
62896W        W35222  37.556  16.286  10.650
62897W        W35223   3.492  18.075  12.613
62898W        W35224  40.532  27.487  14.772
62899W        W35225  39.763  20.970   1.309
62900W        W35226  20.030  33.020   0.779
62901W        W35227  24.972   0.807   3.374
62902W        W35228   2.418   3.687   1.659
62903W        W35229  43.069  33.105   3.574
62904W        W35230  33.586  24.571   1.578
62905W        W35231  42.577  36.931   2.891
62906W        W35232  30.243  38.291   2.233
62907W        W35233  40.565   0.958   2.206
62908W        W35234  19.116  40.711   4.816
62909W        W35235   4.827  31.691  11.258
62910W        W35236  42.938  25.784  10.794
62911W        W35237  11.060  44.403   4.469
62912W        W35238  21.678  13.108   1.881
62913W        W35239  25.849  17.123   1.860
62914W        W35240  11.257  33.778  10.720
62915W        W35241  15.923   8.465   1.332
62916W        W35242  18.282  32.494   2.822
62917W        W35243   2.894   8.822   5.144
62918W        W35244  10.341  28.869   4.223
62919W        W35245  39.010  43.240   1.423
62920W        W35246  23.232  41.080   1.009
62921W        W35247  19.092   1.202   4.229
62922W        W35248  22.763  34.506   2.296
62923W        W35249   0.198  12.168  13.394
62924W        W35250   4.416  17.714   3.004
62925W        W35251   2.361   6.106   0.368
62926W        W35252  11.617   1.159   0.901
62927W        W35253  24.067  34.404  13.593
62928W        W35254  39.885   9.146   0.856
62929W        W35255  34.416  26.114   4.433
62930W        W35256   7.686  26.261   0.812
62931W        W35257  24.049   4.329  13.301
62932W        W35258  15.385  19.103   2.412
62933W        W35259  23.967  28.972  11.564
62934W        W35260  25.475   1.318  11.382
62935W        W35261  31.584  18.150   2.403
62936W        W35262  19.017   6.921   2.273
62937W        W35263  33.877  19.725   3.327
62938W        W35264  33.032  24.950  11.988
62939W        W35265  28.133  30.484  10.680
62940W        W35266  29.801  23.424   3.635
62941W        W35267  20.527  12.630   1.718
62942W        W35268  20.203  24.667  13.511
62943W        W35269  13.223   1.914   0.775
62944W        W35270  19.593  22.601  13.656
62945W        W35271  12.717   4.935  11.629
62946W        W35272  18.590  18.695  14.023
62947W        W35273  15.870  39.317  11.528
62948W        W35274  32.753  32.769  14.840
62949W        W35275  21.831  40.034   5.121
62950W        W35276  22.508  39.094  14.880
62951W        W35277   6.689  42.024  14.378
62952W        W35278   0.437  33.703  13.965
62953W        W35279  24.506   3.925  11.687
62954W        W35280  25.986  13.616  12.375
62955W        W35281   0.553   5.726   2.732
62956W        W35282   1.454  34.877   0.717
62957W        W35283  22.044   5.376  13.853
62958W        W35284  41.875  36.040   5.221
62959W        W35285  33.974   1.069   0.796
62960W        W35286  44.263  20.807  10.446
62961W        W35287  19.641  41.106  11.815
62962W        W35288  41.853  26.201  11.173
62963W        W35289   4.119  31.870   2.329
62964W        W35290  29.851  31.530   0.451
62965W        W35291  11.602  18.921  12.499
62966W        W35292   0.030  36.990  12.929
62967W        W35293  11.028  26.101  13.949
62968W        W35294  36.102  33.915  11.401
62969W        W35295   7.379  28.848   3.677
62970W        W35296  12.699  12.404   2.522
62971W        W35297  31.771   6.259  11.840
62972W        W35298  41.225  17.221  12.074
62973W        W35299  32.302   2.203   3.386
62974W        W35300  20.825  16.806   4.060
62975W        W35301  20.009  29.393   2.510
62976W        W35302  28.651   4.836   3.942
62977W        W35303  39.086   6.186   1.716
62978W        W35304  14.032  21.545  12.348
62979W        W35305  41.270  26.623  12.511
62980W        W35306  41.139  19.763   0.442
62981W        W35307  27.046  32.054   4.056
62982W        W35308   9.310  13.662  10.452
62983W        W35309   0.044   8.621   0.937
62984W        W35310   7.375  23.124  10.763
62985W        W35311  39.465  14.829   2.830
62986W        W35312   1.238   1.984  10.740
62987W        W35313  28.559   6.218   1.839
62988W        W35314   8.064  37.471   4.714
62989W        W35315  21.458  18.562  14.901
62990W        W35316  12.498   2.428  14.941
62991W        W35317  14.693  35.590   2.792
62992W        W35318   5.723  13.687  12.889
62993W        W35319   1.841  25.149  11.373
62994W        W35320   0.956  27.266   3.689
62995W        W35321  10.076  29.361  10.328
62996W        W35322  16.915  32.329  14.983
62997W        W35323  35.962  14.630  13.133
62998W        W35324  21.623  32.579   1.323
62999W        W35325  42.353  33.202  11.607
63000W        W35326  11.082  14.773  14.928
63001W        W35327  31.433  21.170  11.391
63002W        W35328  35.099  21.067  11.905
63003W        W35329  22.465  34.914   2.236
63004W        W35330  22.489  15.835   3.662
63005W        W35331   9.761  15.286   4.129
63006W        W35332  38.829  42.329   4.266
63007W        W35333   7.134  17.990  11.228
63008W        W35334  18.475  44.184  12.874
63009W        W35335  43.926   6.348   3.760
63010W        W35336  41.554  11.475  11.361
63011W        W35337  29.771  41.368   0.531
63012W        W35338  14.255   2.893  14.311
63013W        W35339  19.115  24.151  11.682
63014W        W35340  17.397  42.456   1.910
63015W        W35341   4.946  15.065   2.236
63016W        W35342  11.660  26.483  11.148
63017W        W35343   4.437  16.066  10.204
63018W        W35344  30.948  14.679   4.536
63019W        W35345  44.677  20.435  11.932
63020W        W35346   2.188  14.376   3.624
63021W        W35347  33.060  10.339  14.804
63022W        W35348  30.203  10.219   3.240
63023W        W35349  28.695  23.223   4.584
63024W        W35350  13.377   1.986  10.349
63025W        W35351   8.906   3.970  14.713
63026W        W35352  29.519  22.263  12.116
63027W        W35353  43.385   4.716  12.814
63028W        W35354  38.102  26.551  10.246
63029W        W35355  33.600  42.024   4.485
63030W        W35356  21.662  15.836  10.534
63031W        W35357  44.539  37.749  10.469
63032W        W35358   5.732  37.314   2.275
63033W        W35359  26.681  35.528  14.875
63034W        W35360   2.879  38.446  10.882
63035W        W35361  31.326  20.009  12.487
63036W        W35362  19.295  33.337  12.308
63037W        W35363   4.372   8.127  14.330
63038W        W35364  20.345  15.751  12.483
63039W        W35365  43.855  30.523   1.746
63040W        W35366  11.783  15.705   2.816
63041W        W35367  42.761  12.635   0.779
63042W        W35368  37.494  31.514  14.897
63043W        W35369  10.074  20.809  14.895
63044W        W35370  24.434  30.334   1.875
63045W        W35371   5.832  19.990   4.629
63046W        W35372   3.999   4.374   1.729
63047W        W35373  28.209  32.136  10.292
63048W        W35374   0.307   1.356   0.123
63049W        W35375   9.667   9.961  10.934
63050W        W35376   3.815  36.489   0.972
63051W        W35377  10.084  43.865  14.505
63052W        W35378  32.672   1.970  13.450
63053W        W35379  10.316  14.085  12.462
63054W        W35380  18.640  19.205  13.992
63055W        W35381  23.490  20.745  14.830
63056W        W35382   9.663  15.749  14.569
63057W        W35383  18.125   3.504   0.468
63058W        W35384  39.984   5.211   1.431
63059W        W35385   4.975   7.050   2.682
63060W        W35386  29.893  20.052  11.511
63061W        W35387  34.888   5.506  12.835
63062W        W35388  40.509   1.734   4.778
63063W        W35389  11.861   1.933   3.800
63064W        W35390  11.852  13.774  11.541
63065W        W35391  14.324   5.716  14.144
63066W        W35392  31.346  19.256   0.516
63067W        W35393  31.342  23.168   2.344
63068W        W35394   0.972   6.931  10.691
63069W        W35395  11.310  12.322   4.641
63070W        W35396  12.744  41.246   0.488
63071W        W35397  34.049  41.185   1.881
63072W        W35398  23.745  24.962   1.316
63073W        W35399  37.985  19.147   3.196
63074W        W35400  39.290  32.073   3.724
63075W        W35401  13.480  34.216   0.438
63076W        W35402  17.734  30.190  11.113
63077W        W35403  28.090  14.588   3.319
63078W        W35404  22.262  39.485  11.484
63079W        W35405  20.197  39.425  13.879
63080W        W35406  14.414  17.851  12.499
63081W        W35407   1.047  21.577   2.184
63082W        W35408  43.069  16.826   3.736
63083W        W35409  20.031  35.963   3.113
63084W        W35410  19.593  37.545  10.625
63085W        W35411   9.864   8.320   1.680
63086W        W35412  24.541  44.476  12.880
63087W        W35413  27.627  27.722  13.341
63088W        W35414  44.287   6.487  13.517
63089W        W35415  17.692  17.987  10.997
63090W        W35416  12.013  39.410   1.306
63091W        W35417  34.012  19.802  12.375
63092W        W35418  30.170  34.146  13.497
63093W        W35419  36.921   6.180   2.910
63094W        W35420  17.521   8.405   4.484
63095W        W35421  22.202  24.503  10.614
63096W        W35422  25.900  32.550  11.493
63097W        W35423  20.772  15.393   4.379
63098W        W35424   7.364  30.903   1.353
63099W        W35425  26.111  15.160   2.039
63100W        W35426  17.187  29.465   4.477
63101W        W35427   5.605  36.011   2.177
63102W        W35428  23.013  17.790   1.413
63103W        W35429  23.496  19.001   4.184
63104W        W35430  34.643   7.562   5.144
63105W        W35431  38.462  23.476  12.544
63106W        W35432  19.355  40.601   3.134
63107W        W35433  39.443   8.204  14.437
63108W        W35434  19.872  23.566   3.704
63109W        W35435   4.178   3.533   1.456
63110W        W35436   5.394   6.882  11.463
63111W        W35437  15.654  15.062   0.257
63112W        W35438  29.533  14.663   4.666
63113W        W35439  29.427  35.359   2.750
63114W        W35440  40.524  32.446  13.847
63115W        W35441  32.496  35.824   0.483
63116W        W35442  12.226  40.511  14.377
63117W        W35443  27.886  35.588  11.515
63118W        W35444  42.252   3.578  13.460
63119W        W35445   9.280  13.160   1.983
63120W        W35446  19.389  25.691   4.541
63121W        W35447  36.224  37.805  11.065
63122W        W35448  24.494  44.419  13.405
63123W        W35449  25.010  32.476   2.151
63124W        W35450  34.427  28.918   4.372
63125W        W35451  16.711   1.324  12.022
63126W        W35452  24.038  37.525  14.457
63127W        W35453  34.028  21.254  14.229
63128W        W35454  24.605  19.887   2.678
63129W        W35455  41.116  22.622  11.996
63130W        W35456  23.306  44.360  14.700
63131W        W35457  33.243  37.917  12.152
63132W        W35458  10.796  12.127  12.119
63133W        W35459  44.345  22.011   2.812
63134W        W35460  36.153  12.259   1.129
63135W        W35461  37.019  35.333   1.191
63136W        W35462   2.242  33.947   4.399
63137W        W35463   1.940   0.354   4.225
63138W        W35464  28.614  19.585   1.457
63139W        W35465  26.214  18.167  11.526
63140W        W35466  23.630   2.151  13.865
63141W        W35467  24.789   4.146   2.265
63142W        W35468  38.057  38.870  14.367
63143W        W35469  22.142  22.260  11.418
63144W        W35470  40.108  43.790  13.900
63145W        W35471  21.619  42.814   2.765
63146W        W35472   2.015   2.842  12.133
63147W        W35473  24.700  17.012   2.757
63148W        W35474  28.991  38.588   1.932
63149W        W35475  18.780  10.503   2.793
63150W        W35476  10.177   2.366   2.162
63151W        W35477  34.335  44.449  10.692
63152W        W35478  20.650  35.614   1.336
63153W        W35479  33.028  41.746   4.636
63154W        W35480  10.047  36.600  11.248
63155W        W35481  21.329  31.951  14.955
63156W        W35482  42.394  13.031   2.454
63157W        W35483   9.335  25.577  13.060
63158W        W35484  17.582  38.427   3.286
63159W        W35485  37.062  15.081  10.675
63160W        W35486   4.092  24.306   0.188
63161W        W35487  20.384  30.604   4.281
63162W        W35488  21.475   5.733  11.054
63163W        W35489   0.258  25.527  10.948
63164W        W35490  44.857   9.153  14.466
63165W        W35491  35.467  17.092  13.850
63166W        W35492  30.546  16.204   3.771
63167W        W35493  22.739  32.516   4.641
63168W        W35494  16.683  21.875   2.173
63169W        W35495  20.002  19.942  14.313
63170W        W35496  20.013  33.011  12.252
63171W        W35497  28.911  23.927   4.321
63172W        W35498  31.105  14.983  14.926
63173W        W35499  35.275  27.079   1.516
63174W        W35500   0.299  44.466  14.325
63175W        W35501  10.280  44.855  10.715
63176W        W35502  41.130  20.735   0.282
63177W        W35503   7.117  43.931   2.914
63178W        W35504  35.921   6.132   1.272
63179W        W35505  21.293  37.528   4.097
63180W        W35506   1.600   1.774  12.557
63181W        W35507  44.821  38.224  13.925
63182W        W35508  14.606  35.593  14.721
63183W        W35509   1.741  18.584   3.129
63184W        W35510   7.167  37.390   2.761
63185W        W35511  27.425  43.934  12.044
63186W        W35512   8.706  42.398   0.409
63187W        W35513   1.161  25.954   4.708
63188W        W35514  14.881   4.259  10.639
63189W        W35515  14.802  38.853   4.226
63190W        W35516  25.305  17.556   2.801
63191W        W35517   9.794  40.639   0.293
63192W        W35518   7.475   7.962  12.924
63193W        W35519  41.703  40.935   3.000
63194W        W35520   2.557  41.423   4.605
63195W        W35521   7.590  11.372   3.735
63196W        W35522  37.834   1.916   2.174
63197W        W35523   8.571   7.138   0.084
63198W        W35524  43.052  24.299   1.358
63199W        W35525  33.472  18.196   2.317
63200W        W35526  35.563  34.866   0.337
63201W        W35527  12.563   1.423  12.008
63202W        W35528  27.850  11.061   3.208
63203W        W35529   3.883   4.692  12.867
63204W        W35530  30.441  12.625  12.892
63205W        W35531  40.269   8.130  11.587
63206W        W35532  44.721  19.946   1.968
63207W        W35533  12.371  28.562  11.194
63208W        W35534   4.375  11.088   0.973
63209W        W35535  31.234  27.403   0.812
63210W        W35536  30.208  17.595   3.272
63211W        W35537  13.356  39.036  11.632
63212W        W35538   7.623  38.734  13.996
63213W        W35539  19.764   0.335  14.218
63214W        W35540   5.440   5.293   4.571
63215W        W35541   1.246  41.444   1.210
63216W        W35542  34.170  38.111  12.537
63217W        W35543  37.365  15.744   5.289
63218W        W35544  40.958   8.921   0.423
63219W        W35545  13.547  35.928   1.364
63220W        W35546   2.415   3.999   5.448
63221W        W35547   2.716  21.579   9.831
63222W        W35548  24.357  17.620  12.612
63223W        W35549   5.704   0.019  13.961
63224W        W35550  40.513   2.625  11.161
63225W        W35551  21.794  29.637   3.832
63226W        W35552  27.952  26.971   3.567
63227W        W35553  42.430  22.128   3.217
63228W        W35554  20.971  12.833  11.160
63229W        W35555  37.034   3.646   3.338
63230W        W35556  12.962  26.436   5.027
63231W        W35557  26.730  28.007   1.050
63232W        W35558  20.614  41.449  14.510
63233W        W35559  11.269  11.954  11.575
63234W        W35560  15.823  30.806  14.871
63235W        W35561  37.917  39.281  10.724
63236W        W35562   5.961   3.564  14.997
63237W        W35563  26.716  11.363   0.325
63238W        W35564  24.599  17.593  13.066
63239W        W35565  38.452   0.452   1.880
63240W        W35566   7.879  43.488  13.270
63241W        W35567  11.075   4.182   1.395
63242W        W35568  31.319  18.194  11.538
63243W        W35569  17.425  41.010  12.950
63244W        W35570   3.671  23.163  11.016
63245W        W35571  29.990  16.064   0.048
63246W        W35572  44.826  43.213  13.274
63247W        W35573   0.202  39.557  11.548
63248W        W35574  23.826  14.067   5.027
63249W        W35575  19.567  31.163  10.977
63250W        W35576  19.062  13.410   2.402
63251W        W35577  43.214  19.916  11.433
63252W        W35578  25.183  44.867  12.356
63253W        W35579  18.142  33.151  14.346
63254W        W35580  15.042  28.680   3.215
63255W        W35581  16.763  17.314  11.592
63256W        W35582  40.347  25.003  12.614
63257W        W35583  18.409   1.590  10.128
63258W        W35584   1.253  34.079   0.347
63259W        W35585   9.842  41.951  14.339
63260W        W35586  20.389  26.494  11.668
63261W        W35587  39.288   2.121  14.701
63262W        W35588  11.743  17.424  13.694
63263W        W35589  25.804  36.324   0.065
63264W        W35590  31.804   5.910  14.615
63265W        W35591   6.901  29.048   0.765
63266W        W35592  39.818   5.372  12.311
63267W        W35593  37.065  40.814  10.613
63268W        W35594  31.641  42.552   3.633
63269W        W35595   7.947  41.309   3.574
63270W        W35596  29.889  12.754   0.861
63271W        W35597  24.158  15.590   0.938
63272W        W35598  15.720  21.240   3.588
63273W        W35599  27.065  30.374   1.014
63274W        W35600   1.779  36.624  13.410
63275W        W35601  33.410   3.193  11.985
63276W        W35602  24.786  38.937  13.472
63277W        W35603  37.051  11.453  13.127
63278W        W35604  27.707  35.005   4.570
63279W        W35605  36.608  34.487   0.415
63280W        W35606  32.085   2.740   3.984
63281W        W35607  44.820  22.206  11.518
63282W        W35608  30.464  22.288   0.420
63283W        W35609  16.199   1.679   3.255
63284W        W35610   4.871  31.362   1.910
63285W        W35611  35.266   5.711   1.518
63286W        W35612  20.162  12.102   1.463
63287W        W35613  11.096  25.024  12.373
63288W        W35614  39.339  10.635  14.382
63289W        W35615  36.089  44.412   4.418
63290W        W35616  24.468  15.673   1.745
63291W        W35617  28.402  34.208  11.070
63292W        W35618  32.450  18.318   3.810
63293W        W35619  22.453  35.070   1.736
63294W        W35620  30.142   9.855  13.862
63295W        W35621   8.673   5.412  11.081
63296W        W35622   4.469   1.026  11.273
63297W        W35623  41.388  29.607  13.148
63298W        W35624  21.419  29.432   4.119
63299W        W35625   9.258  10.755   3.345
63300W        W35626  20.031  43.803   1.612
63301W        W35627  20.478  15.016   4.233
63302W        W35628  43.447  10.853   2.362
63303W        W35629   8.603  22.794   2.345
63304W        W35630   6.374   1.750   2.435
63305W        W35631   6.496  11.329  14.393
63306W        W35632  33.049  33.127   1.460
63307W        W35633  20.261  21.590   3.433
63308W        W35634  14.331  40.747   1.475
63309W        W35635  17.063  26.481   3.266
63310W        W35636   7.155  24.235   2.720
63311W        W35637  17.739  10.351  12.458
63312W        W35638  20.730  42.051   3.203
63313W        W35639  11.360   6.095  14.970
63314W        W35640  29.338   4.475   2.333
63315W        W35641  25.678  41.928  10.713
63316W        W35642  16.163   4.840   2.685
63317W        W35643  23.533  29.480  14.785
63318W        W35644  34.837  17.741   0.920
63319W        W35645  15.035  17.082   2.278
63320W        W35646  11.864  32.044   3.690
63321W        W35647  20.503  19.140  10.594
63322W        W35648  23.087   0.099   3.727
63323W        W35649  13.694  21.180  14.345
63324W        W35650  10.655  21.383  13.556
63325W        W35651  19.618  36.416   0.320
63326W        W35652  17.595  16.837   1.400
63327W        W35653  21.796   3.785  11.272
63328W        W35654  42.874  32.593   2.729
63329W        W35655  20.336  25.147  11.665
63330W        W35656  42.171  20.545   1.437
63331W        W35657  13.402  31.494   4.641
63332W        W35658   2.716  15.619  13.813
63333W        W35659  40.369  40.063   3.357
63334W        W35660  42.090  44.750  11.150
63335W        W35661   7.669  16.066  11.518
63336W        W35662  10.117   2.223   3.635
63337W        W35663   5.050  34.453  14.294
63338W        W35664   7.834  24.043   0.349
63339W        W35665  24.096  29.571   1.367
63340W        W35666   4.587   6.104   2.332
63341W        W35667   9.067  35.972  14.884
63342W        W35668  12.209  39.203  12.113
63343W        W35669   9.274  43.378   1.086
63344W        W35670  35.094  35.479   4.682
63345W        W35671  42.704  38.061  13.298
63346W        W35672  23.196  32.105  12.530
63347W        W35673  11.501   7.831  14.183
63348W        W35674  11.248  31.104   1.822
63349W        W35675  11.743  28.666  14.446
63350W        W35676   7.986  20.064   3.582
63351W        W35677  24.550  27.789   4.678
63352W        W35678  42.457  31.548   3.634
63353W        W35679  17.029  37.923  11.424
63354W        W35680  15.680  42.811   4.526
63355W        W35681  29.428  29.820   4.181
63356W        W35682  31.897  14.868  13.040
63357W        W35683  20.808  22.467   0.031
63358W        W35684   1.969  24.252  10.281
63359W        W35685  24.564  13.669  12.382
63360W        W35686   8.594  32.006  10.340
63361W        W35687  40.039  21.317  10.440
63362W        W35688  12.760  14.402   1.738
63363W        W35689  18.976  29.637  11.575
63364W        W35690  12.636  33.200   2.097
63365W        W35691  24.521  37.407   2.565
63366W        W35692  39.603   4.325   1.309
63367W        W35693  14.730  32.310   0.398
63368W        W35694  24.111  13.335  13.904
63369W        W35695  37.041   2.226  12.873
63370W        W35696  39.475  17.862  12.129
63371W        W35697  28.476   3.222  11.967
63372W        W35698  21.300  27.168   4.507
63373W        W35699  33.575  21.682  10.732
63374W        W35700  27.980  36.935  10.113
63375W        W35701  18.677  17.861  12.615
63376W        W35702   3.635   3.381  13.381
63377W        W35703  14.466  28.073  11.815
63378W        W35704  17.030  43.307   0.403
63379W        W35705   4.833  23.656  12.622
63380W        W35706  38.498  44.682  13.458
63381W        W35707  36.950  32.139   1.902
63382W        W35708   0.276  40.650   0.940
63383W        W35709   1.236  25.079  14.508
63384W        W35710  32.243   5.667  14.379
63385W        W35711   0.282  15.199  12.510
63386W        W35712   6.859  13.191   3.577
63387W        W35713  35.522   2.397   4.189
63388W        W35714   1.780   9.893  11.508
63389W        W35715   4.507   2.246  10.991
63390W        W35716  15.259  33.634  11.013
63391W        W35717  25.484  22.224   0.282
63392W        W35718   7.799  29.047  12.097
63393W        W35719  29.918  17.717  14.992
63394W        W35720   3.490  25.480   4.505
63395W        W35721  37.216  40.530   3.384
63396W        W35722  17.207  25.082  13.259
63397W        W35723  17.113   4.237  13.831
63398W        W35724   8.433  39.508  11.968
63399W        W35725  36.593  36.008  12.044
63400W        W35726  38.914  25.585   3.587
63401W        W35727  41.536  18.615   1.881
63402W        W35728  27.777  22.985  14.772
63403W        W35729   4.562  42.888  10.138
63404W        W35730  42.311  15.042  14.084
63405W        W35731  25.161  37.649  14.503
63406W        W35732  15.102  43.939   2.287
63407W        W35733  20.571   0.018   0.326
63408W        W35734  32.641  33.453   3.266
63409W        W35735  27.927  30.224  11.638
63410W        W35736   5.853   3.371   3.792
63411W        W35737   6.898  32.375  12.480
63412W        W35738  34.919  25.165   3.373
63413W        W35739  26.987  29.418   1.381
63414W        W35740  13.735  23.955   2.205
63415W        W35741   7.898  40.494  14.417
63416W        W35742  34.413  23.755  12.060
63417W        W35743  30.147  13.615   0.360
63418W        W35744  10.536   7.334  13.382
63419W        W35745  22.137  12.320  13.992
63420W        W35746  24.654   0.718  10.855
63421W        W35747  43.612  27.794  12.792
63422W        W35748  32.707  43.419   1.783
63423W        W35749  36.501  35.642  14.855
63424W        W35750   2.870  20.283  14.082
63425W        W35751  27.079   4.712   4.625
63426W        W35752   7.050   9.392   3.182
63427W        W35753   4.867  42.317  12.140
63428W        W35754  12.945  12.813  12.568
63429W        W35755  33.300   3.268  11.110
63430W        W35756   3.709  42.587   4.613
63431W        W35757  20.127  31.433  11.672
63432W        W35758  41.056   2.600  11.189
63433W        W35759   9.852   3.363  11.094
63434W        W35760  31.819  23.540  10.977
63435W        W35761   4.501   9.488  12.854
63436W        W35762  40.265  39.638   3.084
63437W        W35763   3.195   9.722   3.138
63438W        W35764  36.457  24.651   2.746
63439W        W35765  30.926   3.752   4.337
63440W        W35766  31.036  21.513   2.792
63441W        W35767  10.351  38.634  10.666
63442W        W35768  37.926  41.969   2.315
63443W        W35769  27.951  14.831  13.812
63444W        W35770  24.367  27.499   4.298
63445W        W35771  22.016  38.460   2.409
63446W        W35772  22.271   3.689  11.097
63447W        W35773   8.135  37.409   3.776
63448W        W35774  44.395  14.587  14.372
63449W        W35775  14.306  38.330   1.412
63450W        W35776   2.725  15.119   0.899
63451W        W35777  41.567   2.720  12.582
63452W        W35778  42.218  28.515  14.308
63453W        W35779  17.058  35.739  12.465
63454W        W35780  18.616  23.585   3.309
63455W        W35781  29.676  10.067  13.961
63456W        W35782  31.903  20.760  11.955
63457W        W35783  28.852   3.716   0.076
63458W        W35784  22.187  21.483   4.538
63459W        W35785  42.303  17.831   0.450
63460W        W35786   1.428   1.017   3.649
63461W        W35787  18.691  42.064  12.506
63462W        W35788  43.287  34.396   0.278
63463W        W35789  37.043  13.541   4.671
63464W        W35790   4.388  22.137   5.531
63465W        W35791  28.366  20.110   1.757
63466W        W35792  24.703   2.204  13.389
63467W        W35793  15.612  24.102  10.984
63468W        W35794  39.020  42.737  12.114
63469W        W35795   8.218   1.928  12.013
63470W        W35796  14.813  27.567   3.928
63471W        W35797  35.150  20.087   2.576
63472W        W35798  21.142  42.738   4.822
63473W        W35799  41.239  43.018  14.340
63474W        W35800  42.606  25.055   4.119
63475W        W35801  36.141  11.122   3.089
63476W        W35802  25.657  26.039   2.968
63477W        W35803  12.660   2.878  14.737
63478W        W35804  11.895  24.906   3.547
63479W        W35805  12.669  43.383  10.686
63480W        W35806  10.811  16.660   2.700
63481W        W35807  29.635  20.112  10.903
63482W        W35808  43.968  18.064   2.815
63483W        W35809  22.543  29.102  11.094
63484W        W35810  33.959  15.685  11.776
63485W        W35811   1.868  28.983  14.614
63486W        W35812  18.046  39.358  11.085
63487W        W35813  40.989  17.271   2.672
63488W        W35814   8.451  40.035  12.563
63489W        W35815  43.006  15.165  12.791
63490W        W35816  44.725  12.226   2.873
63491W        W35817   3.301  38.282   1.549
63492W        W35818  20.208  24.623   1.025
63493W        W35819  10.783   5.717   3.234
63494W        W35820  41.204  37.911   2.128
63495W        W35821  35.900  14.538   2.630
63496W        W35822  16.212   2.103  12.940
63497W        W35823  31.802  31.978  11.057
63498W        W35824  15.379  43.031   0.042
63499W        W35825  37.329  22.812  11.720
63500W        W35826  38.387  10.136   3.818
63501W        W35827   4.670  44.027   2.217
63502W        W35828  10.772   9.419   4.414
63503W        W35829   6.134  27.466  13.479
63504W        W35830  24.607  38.870  11.682
63505W        W35831  16.599  14.100   2.824
63506W        W35832   6.649  42.839  13.963
63507W        W35833  31.821  28.951  11.402
63508W        W35834  31.176  41.082   1.388
63509W        W35835  15.348  12.626   4.907
63510W        W35836  44.101  31.463   2.191
63511W        W35837  30.151  23.696   1.901
63512W        W35838  17.232   3.474   4.230
63513W        W35839  28.919  24.611   0.419
63514W        W35840  43.903  36.933  13.962
63515W        W35841  32.536  18.307  12.991
63516W        W35842   7.267  14.403  14.363
63517W        W35843   9.131  27.216  12.026
63518W        W35844  28.564  40.514   3.608
63519W        W35845  30.982  37.931  11.167
63520W        W35846  13.595  14.786   2.216
63521W        W35847  37.761  26.050  12.389
63522W        W35848   0.003   2.041   4.832
63523W        W35849   3.905  30.671   4.488
63524W        W35850   9.448   5.000   0.419
63525W        W35851   9.628  42.377  12.946
63526W        W35852  13.872   4.436   2.705
63527W        W35853  40.797  30.239   3.293
63528W        W35854  29.885  16.186   2.725
63529W        W35855   3.832  20.697   3.656
63530W        W35856  40.980  31.436  12.463
63531W        W35857  16.467   0.414   4.064
63532W        W35858  13.528   5.672   1.339
63533W        W35859   8.449  16.182  12.079
63534W        W35860  25.524  42.847  11.948
63535W        W35861   1.800  44.948  13.082
63536W        W35862   0.950  24.596   4.547
63537W        W35863   0.390   3.798   0.786
63538W        W35864   7.269  12.918   2.205
63539W        W35865  39.477  11.841   0.873
63540W        W35866  26.491  26.232  14.325
63541W        W35867  14.718  37.939   3.196
63542W        W35868   0.336  12.294  12.916
63543W        W35869  16.507  32.096  14.753
63544W        W35870   3.363  14.725   2.487
63545W        W35871  27.988  41.087   3.682
63546W        W35872  36.047  19.841   0.259
63547W        W35873  24.190  17.608  14.778
63548W        W35874  18.185  24.396   1.113
63549W        W35875  40.458   6.723   0.094
63550W        W35876  43.827   3.905   1.274
63551W        W35877  18.281  14.708  10.711
63552W        W35878  25.733  44.250  12.210
63553W        W35879   3.434  15.599  11.596
63554W        W35880  15.761  36.793  13.555
63555W        W35881  20.047  11.741   1.035
63556W        W35882   0.557  40.983  11.966
63557W        W35883  27.089  41.269   1.969
63558W        W35884  41.958   0.973   3.433
63559W        W35885   2.641   5.238   1.357
63560W        W35886  11.754  27.977  13.686
63561W        W35887  35.024  16.313  12.445
63562W        W35888  40.145  35.626  12.053
63563W        W35889  19.595  17.710  13.238
63564W        W35890  35.285  32.060   4.126
63565W        W35891  42.761  35.154  12.499
63566W        W35892  15.540  27.052   5.038
63567W        W35893  15.850  30.984  12.725
63568W        W35894   4.393  29.871   0.910
63569W        W35895  28.207  21.744   4.574
63570W        W35896  25.644  39.081   2.691
63571W        W35897  14.281  25.449  14.254
63572W        W35898  34.689   4.882   1.503
63573W        W35899  22.056  43.580  12.398
63574W        W35900  44.005   2.855   3.400
63575W        W35901   3.173  32.897   3.510
63576W        W35902  17.084   2.935  13.381
63577W        W35903  26.626  29.043  10.637
63578W        W35904  36.271  25.067   3.729
63579W        W35905  11.168  34.845  13.428
63580W        W35906  10.144   8.736   3.326
63581W        W35907  35.372  22.890  13.687
63582W        W35908  30.035   9.110   2.481
63583W        W35909  17.643  10.729   0.930
63584W        W35910  35.594  29.039   3.609
63585W        W35911  24.207   4.062   1.615
63586W        W35912   2.634  41.452   3.285
63587W        W35913  30.400  15.691   1.400
63588W        W35914  20.778  24.182  11.214
63589W        W35915  40.362  20.978  10.668
63590W        W35916  29.051  32.663  11.174
63591W        W35917  19.050   7.402  14.373
63592W        W35918  23.544  16.432   2.763
63593W        W35919  44.755  39.049  13.444
63594W        W35920  13.857  33.794  11.000
63595W        W35921  38.587  35.819  12.010
63596W        W35922   0.949  33.673   3.221
63597W        W35923   2.888   0.726  13.155
63598W        W35924  15.839   7.492  13.825
63599W        W35925  33.036  39.550   4.544
63600W        W35926   7.404  14.648  10.430
63601W        W35927   1.702  26.225   1.481
63602W        W35928  34.060  36.877  13.098
63603W        W35929   3.250  42.291   3.788
63604W        W35930  19.209  35.464  10.683
63605W        W35931   4.105  32.147  11.549
63606W        W35932  13.594  41.354  13.971
63607W        W35933  18.639  11.362  14.332
63608W        W35934  44.563  11.836  11.469
63609W        W35935  35.432  33.688  10.291
63610W        W35936  28.490  26.191  14.752
63611W        W35937  16.336  32.956   3.414
63612W        W35938  35.311  39.719   1.031
63613W        W35939   4.174  22.274   1.434
63614W        W35940  36.697  41.522  11.655
63615W        W35941   9.713  12.556  12.538
63616W        W35942  43.426  24.428  11.079
63617W        W35943  28.062  28.230   9.819
63618W        W35944  40.952  21.598  14.728
63619W        W35945  36.864  35.128   4.825
63620W        W35946  16.674  27.605  12.479
63621W        W35947   0.297  39.635   1.029
63622W        W35948  12.732  17.965  14.562
63623W        W35949  37.856  24.696  11.676
63624W        W35950  41.557  25.030   0.653
63625W        W35951  15.633  13.514   1.689
63626W        W35952  25.935  41.247   1.398
63627W        W35953  22.923  37.427   0.874
63628W        W35954  14.863  20.715  11.002
63629W        W35955  18.857  19.582   4.535
63630W        W35956  31.508  21.533  13.278
63631W        W35957  38.987   7.420   4.061
63632W        W35958  35.901  26.706  11.640
63633W        W35959  37.302  13.570   0.008
63634W        W35960  31.986  29.909  11.994
63635W        W35961   7.619   8.292  11.995
63636W        W35962  22.920  39.288  14.517
63637W        W35963  10.146  33.144  11.083
63638W        W35964   8.489  21.408  13.840
63639W        W35965  11.395  33.208   3.723
63640W        W35966  31.956   7.667   2.760
63641W        W35967  19.598  13.135  12.909
63642W        W35968  17.494  42.795   5.123
63643W        W35969  18.676   7.724   1.138
63644W        W35970   4.626  37.425   3.589
63645W        W35971  29.888   1.461  11.616
63646W        W35972   4.105   4.511   0.829
63647W        W35973   2.268  22.650  14.913
63648W        W35974  39.115  29.264   1.364
63649W        W35975   5.869   9.857   2.305
63650W        W35976  28.965   6.424   1.036
63651W        W35977  21.053  13.349   4.658
63652W        W35978  17.697  17.740  14.037
63653W        W35979  17.182  31.850  14.944
63654W        W35980  34.600   2.222  11.204
63655W        W35981  20.667  33.097   3.644
63656W        W35982  23.686  27.519  13.824
63657W        W35983  15.672  24.470   1.695
63658W        W35984  36.470  37.893  13.442
63659W        W35985  22.299   5.463  11.154
63660W        W35986  23.526  21.925  12.410
63661W        W35987  43.028  12.315  11.494
63662W        W35988   7.810  11.139   4.146
63663W        W35989   5.924  40.242  12.385
63664W        W35990  16.778   3.718   2.613
63665W        W35991  30.334  27.269  10.698
63666W        W35992  34.599  43.091   1.585
63667W        W35993  12.144  36.417   3.799
63668W        W35994  25.028  32.690   4.103
63669W        W35995  41.929  36.774   3.564
63670W        W35996  30.063  26.936   2.451
63671W        W35997   3.657  35.870  13.090
63672W        W35998  28.900  35.139  13.931
63673W        W35999   3.018  10.994   4.963
63674W        W36000  24.587   8.954   3.907
63675W        W36001   4.292  29.714  13.796
63676W        W36002  11.247   3.474   1.899
63677W        W36003   4.002   9.702  12.925
63678W        W36004  32.551  35.951   1.572
63679W        W36005  34.425  39.569   3.198
63680W        W36006   7.184  35.360  11.067
63681W        W36007   9.949  23.274   0.864
63682W        W36008   3.080  42.114   3.344
63683W        W36009  37.379  39.416  11.485
63684W        W36010  36.942  33.922  11.609
63685W        W36011  15.641   8.401   3.831
63686W        W36012  15.282  13.654   5.014
63687W        W36013   3.931   3.001   0.357
63688W        W36014  31.080  15.448  14.717
63689W        W36015  41.994  37.424  10.314
63690W        W36016  36.935   0.729  10.956
63691W        W36017   6.052  22.520  14.742
63692W        W36018   3.886  35.381  12.492
63693W        W36019   7.487  24.727   3.571
63694W        W36020  35.052  39.523   2.900
63695W        W36021  22.078  36.909   0.300
63696W        W36022  30.910   0.437   1.811
63697W        W36023  24.087  41.655   4.634
63698W        W36024  22.758  10.834  13.821
63699W        W36025  32.873  10.862   0.941
63700W        W36026  39.405  29.439   3.290
63701W        W36027  11.813   8.380  13.531
63702W        W36028  25.031  29.529   3.742
63703W        W36029  41.053  29.979   4.194
63704W        W36030   5.374  27.397   3.757
63705W        W36031  37.890  11.277  11.398
63706W        W36032  28.171  18.330  13.375
63707W        W36033   4.245  25.587   2.859
63708W        W36034  35.311  39.741  11.987
63709W        W36035  23.078   1.060  12.131
63710W        W36036   5.870  21.985   0.412
63711W        W36037  34.720   3.893   3.525
63712W        W36038  12.683  22.155  10.687
63713W        W36039  23.554  35.816  13.958
63714W        W36040   5.722  17.635   0.545
63715W        W36041  39.325  22.285   2.735
63716W        W36042  18.346  44.636  12.365
63717W        W36043   3.651  34.318   0.413
63718W        W36044   7.351  32.948  14.769
63719W        W36045   7.931   8.124   0.471
63720W        W36046   2.893   1.374  11.142
63721W        W36047   0.601  35.106   0.475
63722W        W36048   6.709  19.828  12.317
63723W        W36049   5.656  43.492  12.694
63724W        W36050   6.760  40.752  13.853
63725W        W36051   4.088   2.304   0.955
63726W        W36052  15.286  31.103   0.306
63727W        W36053  27.180  13.158  11.613
63728W        W36054  29.944   0.268  11.130
63729W        W36055  32.838   7.227   3.407
63730W        W36056   8.295   0.979  10.458
63731W        W36057  11.595   8.120  14.997
63732W        W36058   8.783  26.622   3.411
63733W        W36059  44.373  43.300   1.971
63734W        W36060  22.682   4.251  14.183
63735W        W36061   4.201  31.232   0.800
63736W        W36062  39.093  39.937   0.844
63737W        W36063  13.719  27.701   2.826
63738W        W36064  33.682  11.602   4.505
63739W        W36065  19.716  22.703   1.427
63740W        W36066  33.369  41.349   4.590
63741W        W36067  33.615  17.202  13.060
63742W        W36068   2.759  43.014  12.155
63743W        W36069   6.146  17.934   3.655
63744W        W36070   2.310  13.745  10.863
63745W        W36071  24.056  37.353  12.864
63746W        W36072  10.589  43.484  14.343
63747W        W36073  13.077  15.757  10.071
63748W        W36074   8.961   5.627   0.425
63749W        W36075  23.128  17.662   3.659
63750W        W36076  42.149  39.580  12.924
63751W        W36077  29.945  37.386  10.509
63752W        W36078  31.606  21.747   4.582
63753W        W36079  23.139  38.158   2.858
63754W        W36080   3.851  40.001  14.704
63755W        W36081   2.261  24.657  10.809
63756W        W36082  25.567  38.732  11.480
63757W        W36083  43.666  14.961   2.261
63758W        W36084  25.288   5.691   1.398
63759W        W36085  17.240  10.665   1.267
63760W        W36086  37.573   8.929   4.636
63761W        W36087  21.046   0.530  13.896
63762W        W36088   6.758  29.558   2.723
63763W        W36089  10.263  21.001   2.716
63764W        W36090  35.965   7.242   2.253
63765W        W36091  25.428  35.653   2.860
63766W        W36092  31.188   9.295  11.975
63767W        W36093  36.974  27.054  13.003
63768W        W36094   3.302  18.025   1.871
63769W        W36095  15.750  41.717   4.839
63770W        W36096  13.305  18.055   3.208
63771W        W36097  28.011  40.032   4.781
63772W        W36098  21.009   8.671   1.830
63773W        W36099  32.073  34.857   2.329
63774W        W36100  18.601   0.528   0.749
63775W        W36101  34.525  33.061  12.526
63776W        W36102  25.817  23.196  14.413
63777W        W36103  43.708  41.496   0.138
63778W        W36104  12.498  11.274   1.782
63779W        W36105  39.833  23.645  13.900
63780W        W36106   5.826  11.397  12.809
63781W        W36107  43.782  28.391  12.835
63782W        W36108  26.310   3.647   2.813
63783W        W36109  27.138  20.748   2.457
63784W        W36110  21.657  14.301  13.518
63785W        W36111  17.087  44.831   3.197
63786W        W36112  14.730  21.751  14.962
63787W        W36113  25.065  38.557  14.491
63788W        W36114   2.955  12.867   3.198
63789W        W36115  43.254  41.930  11.202
63790W        W36116  32.437  21.032  13.410
63791W        W36117   9.645   3.678   4.498
63792W        W36118  25.190   1.534  13.028
63793W        W36119  18.942  44.473   2.293
63794W        W36120  39.451  14.906   4.537
63795W        W36121  24.027  29.644   0.498
63796W        W36122  25.720  22.525  13.051
63797W        W36123  40.362  24.246  12.116
63798W        W36124  26.823  11.642   1.083
63799W        W36125   1.859  12.652  14.296
63800W        W36126  32.361  39.992   4.446
63801W        W36127  42.093   2.993  10.563
63802W        W36128   7.270  42.835   4.390
63803W        W36129  11.258   8.717   1.903
63804W        W36130  24.278  27.485  11.647
63805W        W36131   4.688   8.892   4.143
63806W        W36132  26.209  38.435  14.277
63807W        W36133  34.827  41.286   1.907
63808W        W36134   2.352  30.186   0.318
63809W        W36135  41.347  43.267  12.868
63810W        W36136   1.665   8.099   1.735
63811W        W36137  31.978  38.417   3.164
63812W        W36138  43.749  10.541  13.064
63813W        W36139   4.950  29.007   1.883
63814W        W36140  22.251   4.041  11.473
63815W        W36141   7.642  24.163  14.307
63816W        W36142  31.429  20.020   1.616
63817W        W36143  10.152  22.947   3.753
63818W        W36144   4.611  39.468  12.425
63819W        W36145  31.483   3.567   2.504
63820W        W36146  10.078   6.315  12.087
63821W        W36147  38.414   8.664   2.746
63822W        W36148  10.516  13.642  11.402
63823W        W36149  10.713  44.808   4.546
63824W        W36150  32.967   0.829   1.030
63825W        W36151  32.846  38.790   2.929
63826W        W36152   2.232  15.770  14.912
63827W        W36153  24.568  23.999  11.816
63828W        W36154  11.693  10.216  13.063
63829W        W36155  30.254   0.837   4.548
63830W        W36156  17.591  44.798   4.683
63831W        W36157  36.012  25.534  12.094
63832W        W36158  28.232  18.081  14.770
63833W        W36159  40.200  16.689   4.235
63834W        W36160  27.974   9.050   0.155
63835W        W36161  16.088   8.586   2.268
63836W        W36162   7.740  21.701   1.984
63837W        W36163  18.315  41.524  10.860
63838W        W36164  20.682   4.942  12.910
63839W        W36165   8.227   8.685   4.120
63840W        W36166  19.355  11.178  13.533
63841W        W36167  33.919  40.883   4.759
63842W        W36168  18.691  30.999  14.336
63843W        W36169  41.966  23.638  12.978
63844W        W36170  28.901  22.633   2.796
63845W        W36171   4.258  22.717   0.160
63846W        W36172  26.935   9.832  13.514
63847W        W36173  15.271  39.783  10.590
63848W        W36174  29.946  11.897   3.750
63849W        W36175  40.980  36.289  11.152
63850W        W36176  13.440   0.414   0.026
63851W        W36177   8.361  37.980   1.670
63852W        W36178   1.932  23.038   0.046
63853W        W36179  12.283  34.653   1.825
63854W        W36180  39.852  39.390   3.287
63855W        W36181  40.768  39.959   2.235
63856W        W36182  17.272  37.332   0.206
63857W        W36183  21.638  25.077  12.480
63858W        W36184   4.004   6.880   2.797
63859W        W36185   9.037  30.511  12.539
63860W        W36186  43.864  42.498   4.980
63861W        W36187  14.667  33.344  10.690
63862W        W36188  39.946  40.069   1.766
63863W        W36189  17.639  17.115   0.914
63864W        W36190  24.652   6.089  10.690
63865W        W36191  40.823  21.084   3.280
63866W        W36192   6.296  43.831   4.095
63867W        W36193   6.123  13.630   3.549
63868W        W36194  32.361  17.575  10.514
63869W        W36195   0.079  32.627  11.968
63870W        W36196  24.025  11.806   0.554
63871W        W36197  30.409   1.569   2.761
63872W        W36198  23.411  24.964   2.201
63873W        W36199  31.957   9.173   2.300
63874W        W36200  16.525  11.651  14.296
63875W        W36201  40.488  35.538   2.692
63876W        W36202  38.845  12.339   1.242
63877W        W36203  42.404  28.999   0.508
63878W        W36204  21.614  32.450   3.189
63879W        W36205  40.823   3.496   0.092
63880W        W36206  26.511  10.320   4.160
63881W        W36207  25.503   5.674  11.136
63882W        W36208   9.486  30.926   3.085
63883W        W36209  39.017   9.267  11.920
63884W        W36210  14.829  17.579  13.450
63885W        W36211  44.913  17.083   1.708
63886W        W36212  35.117   5.733   3.632
63887W        W36213   1.696  24.053   2.244
63888W        W36214  32.555   2.421   0.383
63889W        W36215  29.037  42.057   0.353
63890W        W36216   1.405  39.469   3.745
63891W        W36217   5.816  21.859   0.941
63892W        W36218   8.321  29.893   2.146
63893W        W36219  32.606   5.415   4.576
63894W        W36220  18.600  20.540   4.224
63895W        W36221  31.066   7.769  13.101
63896W        W36222  44.734  41.499   4.126
63897W        W36223  35.534  20.290  14.119
63898W        W36224   3.510   5.049   3.796
63899W        W36225   6.329  27.393   0.834
63900W        W36226  10.343  44.958  13.206
63901W        W36227  13.610   1.266  12.914
63902W        W36228  30.350   8.214  12.038
63903W        W36229  25.118  27.945  11.535
63904W        W36230  24.571   5.356   4.930
63905W        W36231   3.710  42.314  13.803
63906W        W36232  32.698  10.130   3.153
63907W        W36233  13.861  20.380  12.128
63908W        W36234   4.661  38.411   3.920
63909W        W36235  31.470   1.448  11.535
63910W        W36236  37.940   2.240  12.594
63911W        W36237  28.506  31.500   1.995
63912W        W36238   5.279  38.215  12.014
63913W        W36239  42.077  20.585   1.941
63914W        W36240   6.595  36.438  14.840
63915W        W36241  33.342  34.777   2.250
63916W        W36242   6.666  25.234  14.018
63917W        W36243  31.437  42.052   2.771
63918W        W36244   1.625  32.070   1.917
63919W        W36245  17.615  14.514  14.425
63920W        W36246   4.745  35.345   0.769
63921W        W36247   4.198  44.960  11.603
63922W        W36248   2.881  13.959  12.473
63923W        W36249  44.942  33.543  14.395
63924W        W36250  12.636   5.250   3.403
63925W        W36251  22.964  22.573   4.096
63926W        W36252  38.298   4.703   1.373
63927W        W36253  14.844   9.968   1.367
63928W        W36254  15.824  28.441  14.936
63929W        W36255   4.419   5.344  14.366
63930W        W36256  18.265  19.646   3.412
63931W        W36257  18.776  32.688  12.087
63932W        W36258  34.205  32.543  10.525
63933W        W36259  38.922  40.594   4.992
63934W        W36260  41.920   2.750  13.390
63935W        W36261   0.427   0.309   0.788
63936W        W36262   5.904  27.578   2.425
63937W        W36263  44.847   1.277  11.120
63938W        W36264  43.890  16.432  11.897
63939W        W36265  26.730  24.613   1.921
63940W        W36266  19.126  31.423   2.789
63941W        W36267  42.568   3.285  14.709
63942W        W36268  28.474  40.394  10.641
63943W        W36269   3.296  32.144  13.532
63944W        W36270  22.291  14.644  10.982
63945W        W36271  36.814  14.611  11.050
63946W        W36272  43.674   1.685  10.826
63947W        W36273   4.684  13.715   3.179
63948W        W36274   8.650  40.598   4.326
63949W        W36275   2.121  44.813  11.544
63950W        W36276  23.703  29.590   3.598
63951W        W36277  14.306  12.944  12.698
63952W        W36278   1.934  30.184  14.610
63953W        W36279  36.270  11.810  11.965
63954W        W36280  29.844  33.753   2.821
63955W        W36281  10.660  19.158   1.689
63956W        W36282  22.676  21.112  14.947
63957W        W36283   6.373  18.696   0.846
63958W        W36284   1.328  30.108  11.615
63959W        W36285  15.741  16.639   3.992
63960W        W36286  43.907  38.601  13.485
63961W        W36287   8.157  32.640   0.880
63962W        W36288  13.148  35.635   0.384
63963W        W36289   8.371  37.337  13.059
63964W        W36290  31.411  36.016   2.089
63965W        W36291   4.803  14.603  13.440
63966W        W36292  16.158  35.050   2.860
63967W        W36293  13.630  28.648   0.236
63968W        W36294  26.128  21.529  13.029
63969W        W36295  42.302  18.852   0.391
63970W        W36296  32.457  36.336   3.923
63971W        W36297  29.949  21.990  12.162
63972W        W36298  25.402  26.098  13.583
63973W        W36299  44.901  29.506  12.870
63974W        W36300  26.853  21.086  13.502
63975W        W36301  23.148  13.238  13.258
63976W        W36302  35.420  18.154  12.974
63977W        W36303   4.412  20.279   1.239
63978W        W36304  14.598  27.665  14.699
63979W        W36305  24.201   7.191   4.559
63980W        W36306  32.383  19.648   4.186
63981W        W36307  15.241  18.280  13.889
63982W        W36308  24.884  30.878  14.056
63983W        W36309  17.613  21.733  11.510
63984W        W36310  44.086  42.926   0.009
63985W        W36311   6.402  41.296  14.296
63986W        W36312  25.990  33.886   0.463
63987W        W36313  35.416   1.480  14.068
63988W        W36314  14.994   2.730   1.420
63989W        W36315  29.374   6.284   0.731
63990W        W36316  13.112  23.173   1.049
63991W        W36317  12.659  11.191   3.771
63992W        W36318   8.435   8.943  14.255
63993W        W36319  33.150  23.041  14.317
63994W        W36320  33.291   0.287  12.568
63995W        W36321  14.532  42.268   3.638
63996W        W36322  25.440  39.034  13.769
63997W        W36323  22.129   2.986  13.715
63998W        W36324   7.912  22.978   2.706
63999W        W36325  26.257   4.907  12.148
64000W        W36326  32.617  26.152   0.360
64001W        W36327  42.783  10.997   3.664
64002W        W36328   5.046   2.771   4.020
64003W        W36329  42.397   4.585   4.293
64004W        W36330  28.667  28.071   5.439
64005W        W36331  27.115   6.710  10.909
64006W        W36332   0.938  18.682   2.435
64007W        W36333  42.643  39.499   1.475
64008W        W36334  25.108  33.515  13.859
64009W        W36335  22.630   9.875  13.309
64010W        W36336   1.806  15.359  14.061
64011W        W36337   8.783   2.091   4.114
64012W        W36338  36.161  40.500   2.621
64013W        W36339   2.818  24.068   3.228
64014W        W36340  41.537   3.962  14.035
64015W        W36341  33.595  42.848   1.599
64016W        W36342   2.434   3.336  14.136
64017W        W36343   0.374  41.025   2.251
64018W        W36344  29.758  36.583  14.910
64019W        W36345  27.081  39.195   3.778
64020W        W36346  13.799  19.353   4.899
64021W        W36347  16.762   1.181   2.345
64022W        W36348  29.074  16.992  11.970
64023W        W36349  28.551  42.075   4.636
64024W        W36350   5.798  10.630  13.354
64025W        W36351  43.744  35.425  14.688
64026W        W36352  27.520  26.114   1.928
64027W        W36353  32.496  29.133  11.144
64028W        W36354  35.006  38.122  13.045
64029W        W36355   7.287  42.433  12.911
64030W        W36356  15.121  42.977   2.880
64031W        W36357  20.480   9.253   2.801
64032W        W36358  17.145  31.616   1.239
64033W        W36359   5.782  26.445  14.978
64034W        W36360  16.878  20.016   3.672
64035W        W36361   2.784  41.911   1.832
64036W        W36362   2.416  35.597   4.666
64037W        W36363  31.886  29.262   2.305
64038W        W36364  26.978   3.711  11.528
64039W        W36365  20.552  39.610  13.030
64040W        W36366  22.734  13.578   0.307
64041W        W36367   4.929  40.778   1.284
64042W        W36368  44.575  18.259  11.574
64043W        W36369  16.156  18.149   2.673
64044W        W36370  39.036  10.930  10.644
64045W        W36371  26.853  15.580  11.008
64046W        W36372   9.845  41.257   3.775
64047W        W36373  19.253  34.561  10.354
64048W        W36374  36.282  30.617  11.120
64049W        W36375  26.142   9.353  10.506
64050W        W36376  25.007  28.552   3.615
64051W        W36377  41.769  43.887  12.041
64052W        W36378  13.907   5.438  12.981
64053W        W36379   2.904   7.340   3.269
64054W        W36380  44.579  31.915  11.121
64055W        W36381  19.813  36.977  13.015
64056W        W36382  33.570   8.392   4.913
64057W        W36383  33.221  41.236  11.123
64058W        W36384  11.716  34.543   9.685
64059W        W36385  34.984  14.120  14.268
64060W        W36386  18.539  21.582   0.216
64061W        W36387  23.626  36.067   3.420
64062W        W36388   8.249  16.198   3.372
64063W        W36389   5.781   1.449   1.858
64064W        W36390  34.798  44.778  13.953
64065W        W36391  18.195  23.443  13.033
64066W        W36392  42.348  43.338  11.639
64067W        W36393  21.870  21.548   1.369
64068W        W36394  28.117  13.475   0.884
64069W        W36395  36.165   6.346  13.288
64070W        W36396  10.935  27.026  13.704
64071W        W36397  39.362  41.659   0.210
64072W        W36398   1.948  30.246   1.775
64073W        W36399  28.072  26.890  13.190
64074W        W36400  15.186  20.774   0.313
64075W        W36401  30.032  16.994   2.086
64076W        W36402  23.278  13.776   4.503
64077W        W36403  30.652   3.421   2.869
64078W        W36404  36.045  13.826   4.332
64079W        W36405  26.330  32.026   0.575
64080W        W36406  41.248  42.801   3.430
64081W        W36407  10.725   9.476   0.444
64082W        W36408  43.775   7.725   0.312
64083W        W36409  15.319  35.407  12.510
64084W        W36410  24.567  34.669   2.720
64085W        W36411  38.511  42.397   2.836
64086W        W36412  25.272  32.307   3.836
64087W        W36413   9.720  29.946   0.359
64088W        W36414   9.209   3.384  10.397
64089W        W36415  33.129   2.379  13.752
64090W        W36416  26.813   5.194   4.902
64091W        W36417   6.270  44.511   4.783
64092W        W36418  42.139  43.220  10.748
64093W        W36419  33.520  37.636  14.141
64094W        W36420  43.708  20.355  12.810
64095W        W36421  14.757  23.991   1.869
64096W        W36422  28.191   8.971  11.933
64097W        W36423  22.000  42.804  10.287
64098W        W36424  38.988  15.367   0.713
64099W        W36425  43.998  22.944  13.012
64100W        W36426  44.403   3.364  13.340
64101W        W36427  30.923  10.064  14.864
64102W        W36428  14.495  23.540   4.868
64103W        W36429  26.772  41.902  12.882
64104W        W36430  14.195  26.330   0.767
64105W        W36431   2.808  33.265   0.069
64106W        W36432   4.805  19.168   0.956
64107W        W36433  12.659  31.486  12.038
64108W        W36434  31.063  44.553   1.475
64109W        W36435  17.478  17.669   0.350
64110W        W36436   5.275  24.428  12.915
64111W        W36437   6.135  19.791   2.830
64112W        W36438  26.491  28.974   3.561
64113W        W36439  24.513  33.943   1.424
64114W        W36440  39.980  18.516   1.525
64115W        W36441  21.568   1.443  12.998
64116W        W36442   0.330  37.391   4.640
64117W        W36443  36.848  13.252   3.268
64118W        W36444  23.155   7.811   3.369
64119W        W36445  38.007  44.250  14.803
64120W        W36446  39.305  19.017  14.184
64121W        W36447   5.799  28.723  10.987
64122W        W36448  19.506  40.752   2.303
64123W        W36449  11.361  26.494   0.250
64124W        W36450  35.022   4.820  13.743
64125W        W36451  20.237  13.009  14.798
64126W        W36452   2.991   3.700  11.631
64127W        W36453   9.412  32.163  13.340
64128W        W36454  19.039   8.564  14.855
64129W        W36455  32.964  12.821   2.909
64130W        W36456  29.427  44.589   4.708
64131W        W36457  20.447  12.354  14.897
64132W        W36458  11.192   0.483   2.199
64133W        W36459  44.740   2.243  12.920
64134W        W36460   9.687  41.573  11.912
64135W        W36461  20.740   9.280   2.281
64136W        W36462  33.847  24.955   2.557
64137W        W36463  33.502  39.344   4.770
64138W        W36464  38.374  41.528  10.939
64139W        W36465  24.213  29.386   2.750
64140W        W36466  14.746  10.760  13.439
64141W        W36467  33.603  17.732  12.338
64142W        W36468  29.780  21.599  11.007
64143W        W36469  42.067   0.472  12.018
64144W        W36470   9.360   9.393   3.838
64145W        W36471  14.067  32.140  10.134
64146W        W36472   8.142   6.154  10.952
64147W        W36473  14.614  17.316   0.107
64148W        W36474  31.196  21.144  13.965
64149W        W36475  35.947  12.185  13.453
64150W        W36476  14.668  22.676   2.297
64151W        W36477  44.021  29.095  14.676
64152W        W36478  25.578   7.366  12.368
64153W        W36479  35.683  31.989  14.913
64154W        W36480  24.805   2.761  11.601
64155W        W36481  19.044  32.969  12.564
64156W        W36482  41.458  32.865   0.281
64157W        W36483  11.427   0.344   3.591
64158W        W36484  33.082  19.327  13.810
64159W        W36485  22.293  30.985  13.643
64160W        W36486  15.149  25.625   2.944
64161W        W36487  10.799  42.418   1.579
64162W        W36488  26.872  37.340  10.692
64163W        W36489  30.487  20.561   4.767
64164W        W36490  32.523  25.142   3.713
64165W        W36491  10.585  44.737   1.423
64166W        W36492  17.654  44.214   1.350
64167W        W36493  39.040  10.517  12.873
64168W        W36494  10.685  37.343  12.883
64169W        W36495  10.476  34.565  14.961
64170W        W36496  15.919  22.551   3.319
64171W        W36497   6.922   4.664   3.737
64172W        W36498  10.810  25.553   4.663
64173W        W36499  41.374  39.393  11.453
64174W        W36500  24.633   5.632  13.947
64175W        W36501   1.886  22.786   3.706
64176W        W36502   7.006  16.883   0.944
64177W        W36503  35.504  20.180  13.409
64178W        W36504  26.346  13.325   2.917
64179W        W36505  35.441  35.636  11.602
64180W        W36506   3.488  10.092  11.070
64181W        W36507  43.810   2.339   0.218
64182W        W36508  44.544  24.769   4.186
64183W        W36509  32.981  17.640   3.530
64184W        W36510   1.302  44.720   2.466
64185W        W36511  10.647  39.460  11.178
64186W        W36512  36.338  31.642  12.489
64187W        W36513   0.589  19.246   2.499
64188W        W36514  30.594  38.402  14.947
64189W        W36515   6.516  19.640  12.937
64190W        W36516  15.680  35.048   0.531
64191W        W36517   7.724  44.925  11.173
64192W        W36518  42.225  40.241   0.955
64193W        W36519  10.566  44.565   0.938
64194W        W36520  36.612  41.336   0.855
64195W        W36521  13.135  15.842   2.823
64196W        W36522  25.948   4.769  13.692
64197W        W36523   0.789  32.433   5.229
64198W        W36524   9.703  25.636  10.784
64199W        W36525  12.713  41.585  10.592
64200W        W36526  42.397   5.917  14.498
64201W        W36527   5.350  32.398  12.939
64202W        W36528   4.347  29.080   3.642
64203W        W36529   6.116   9.625   1.102
64204W        W36530  32.749  43.864   2.128
64205W        W36531  14.735  40.972  13.127
64206W        W36532  30.191   0.224   2.713
64207W        W36533  35.514   7.049  11.459
64208W        W36534  27.138   6.204  13.950
64209W        W36535  24.791   2.333  14.612
64210W        W36536  25.602   6.498  13.914
64211W        W36537  39.839  28.596  14.377
64212W        W36538  28.541  39.061   4.146
64213W        W36539  26.725  21.200   1.665
64214W        W36540  33.146  43.262  14.917
64215W        W36541   0.434  11.502  11.960
64216W        W36542  42.257   3.954  10.754
64217W        W36543  22.582   5.690  11.949
64218W        W36544  20.152  35.477   3.834
64219W        W36545  30.596  28.284   2.616
64220W        W36546   2.962   9.004  13.776
64221W        W36547  24.171  36.423  12.195
64222W        W36548  20.224  25.209   2.915
64223W        W36549  10.063  34.472   4.078
64224W        W36550  27.565  26.560   1.606
64225W        W36551  17.601   7.668   1.968
64226W        W36552  10.817  18.114   2.315
64227W        W36553   8.425  17.458  12.023
64228W        W36554  11.786  12.313  13.985
64229W        W36555   4.990  32.167   4.195
64230W        W36556  22.195  29.140   4.676
64231W        W36557  12.775  11.666   4.282
64232W        W36558  42.000   5.029   4.644
64233W        W36559  25.963  35.375   2.870
64234W        W36560  28.232  32.850   2.720
64235W        W36561  38.008   8.311   2.391
64236W        W36562  20.464  32.421   3.217
64237W        W36563  22.192  40.353  12.786
64238W        W36564  11.775  27.846   3.346
64239W        W36565  19.247  12.585  14.412
64240W        W36566  15.408  36.098  13.961
64241W        W36567  15.951   9.570   4.133
64242W        W36568  10.402  43.486  13.845
64243W        W36569  38.044  20.604  14.430
64244W        W36570  14.734   4.013   1.786
64245W        W36571   0.288   9.386  11.106
64246W        W36572  26.969  19.028   1.992
64247W        W36573  32.931  43.326   0.837
64248W        W36574  41.526  21.342  13.535
64249W        W36575  20.964  13.249   3.186
64250W        W36576  26.658  41.430   3.969
64251W        W36577  16.647  34.997   2.615
64252W        W36578  33.976  17.340  14.833
64253W        W36579  39.468  11.750  11.178
64254W        W36580   7.448  38.277  13.027
64255W        W36581  25.678  17.836  14.202
64256W        W36582  25.705  42.857   3.234
64257W        W36583   9.719   0.811   4.847
64258W        W36584   9.217   5.268  10.938
64259W        W36585  27.251   9.007  11.852
64260W        W36586   9.334   2.998   2.181
64261W        W36587  43.450  21.649  13.829
64262W        W36588  22.486  40.883   2.736
64263W        W36589  39.025   9.044   0.413
64264W        W36590  34.313   8.273  12.687
64265W        W36591   8.154   8.954   1.426
64266W        W36592  11.884  21.226   4.426
64267W        W36593  38.355  40.985  14.390
64268W        W36594  12.220   6.399  14.821
64269W        W36595   1.341  31.828  14.258
64270W        W36596   2.437  27.938   1.715
64271W        W36597  29.706  12.411  10.841
64272W        W36598   6.747  36.678   2.259
64273W        W36599  38.127  41.102  12.105
64274W        W36600   9.413   0.903   4.397
64275W        W36601   7.151  31.458   0.464
64276W        W36602   3.425  27.501  14.617
64277W        W36603  14.358  19.459   4.175
64278W        W36604  12.077  30.632   3.802
64279W        W36605  22.197  24.820  11.034
64280W        W36606   7.674   3.671   0.873
64281W        W36607   8.850  42.105   3.976
64282W        W36608  40.081  16.634  13.946
64283W        W36609  24.173  24.960  12.437
64284W        W36610  23.828  43.428  13.950
64285W        W36611   3.999  37.860   4.232
64286W        W36612   9.572  19.337   2.685
64287W        W36613   2.400  37.990  11.399
64288W        W36614   0.321  38.407   4.629
64289W        W36615  41.135  43.146   4.575
64290W        W36616  25.168  19.008   3.728
64291W        W36617  38.611   6.923   1.177
64292W        W36618  43.567  22.821  12.097
64293W        W36619   8.137   5.375   0.276
64294W        W36620  36.034  13.377  11.995
64295W        W36621  31.659  36.498  11.576
64296W        W36622  24.139   5.521  13.895
64297W        W36623   6.282  36.200   2.735
64298W        W36624  22.008   1.915  10.418
64299W        W36625  18.705  10.481  14.029
64300W        W36626  13.623  16.125  12.061
64301W        W36627  27.965  39.306   3.769
64302W        W36628  37.372  21.067  11.200
64303W        W36629  22.665   6.271  12.650
64304W        W36630  30.044  38.558  13.815
64305W        W36631  10.694  29.925  12.990
64306W        W36632  36.708  15.597   2.958
64307W        W36633  22.102  31.884   2.791
64308W        W36634   4.798  34.506  12.486
64309W        W36635  33.699  26.667  10.003
64310W        W36636   4.878  26.674  13.490
64311W        W36637  41.495  33.920   0.356
64312W        W36638   1.948  32.633  14.134
64313W        W36639   8.289  18.795   4.425
64314W        W36640  12.985  24.032   4.953
64315W        W36641  34.348  30.372  14.507
64316W        W36642   8.101  22.968  13.132
64317W        W36643   0.533   6.387   2.156
64318W        W36644  21.568  29.168  12.140
64319W        W36645  23.194  41.069  11.002
64320W        W36646   5.989   4.220  11.314
64321W        W36647  15.755  23.717  11.296
64322W        W36648  24.403   0.005   1.700
64323W        W36649  31.586  36.983   3.575
64324W        W36650  22.243  26.986  11.917
64325W        W36651   4.924  30.707   3.247
64326W        W36652  20.046  41.373  14.707
64327W        W36653   8.973  21.053  12.186
64328W        W36654   0.383   0.466  14.792
64329W        W36655  37.091  16.557  11.941
64330W        W36656  32.575  42.778  13.470
64331W        W36657  36.184  10.446  11.261
64332W        W36658   9.433   1.237  14.405
64333W        W36659  19.036   2.686  14.407
64334W        W36660  24.758  16.163   1.817
64335W        W36661   1.259  35.930   2.297
64336W        W36662   1.851   5.841   2.296
64337W        W36663  18.343  22.710  13.904
64338W        W36664  25.431   8.337  14.347
64339W        W36665  36.812  24.455  13.502
64340W        W36666  18.308  12.847   0.738
64341W        W36667  21.163  40.368  11.695
64342W        W36668  32.904   6.465  11.168
64343W        W36669   5.468  20.137   1.302
64344W        W36670  17.787  12.356   1.910
64345W        W36671  14.637  14.108  11.539
64346W        W36672  29.049  22.036   1.707
64347W        W36673   9.673  34.812   2.651
64348W        W36674  33.826  39.468   1.473
64349W        W36675  25.529   2.358  14.314
64350W        W36676  15.083   1.856  12.495
64351W        W36677  38.768  16.909   2.893
64352W        W36678   2.921  11.753  11.414
64353W        W36679  33.644  25.665  11.999
64354W        W36680  25.463   8.832   2.965
64355W        W36681  38.302  24.030  11.148
64356W        W36682   5.041  42.338   0.994
64357W        W36683  32.846  20.546   1.465
64358W        W36684  15.044  34.891  11.545
64359W        W36685   4.877  38.059   0.656
64360W        W36686  20.685  30.244   1.837
64361W        W36687  34.950  13.621   4.736
64362W        W36688  25.947  38.394   3.293
64363W        W36689  33.439   0.422  11.206
64364W        W36690  27.720  39.849   0.273
64365W        W36691  12.607  28.118   1.282
64366W        W36692  24.422  16.543  14.205
64367W        W36693  12.809  42.810   0.499
64368W        W36694  17.034   6.762   3.222
64369W        W36695  33.338  19.124  11.206
64370W        W36696  33.894  19.292   5.103
64371W        W36697   0.550   2.217  11.589
64372W        W36698   9.695  27.091   4.186
64373W        W36699  19.713   7.367   3.827
64374W        W36700   8.600  27.040   4.723
64375W        W36701  38.099  15.477   4.079
64376W        W36702   1.349  26.778  11.582
64377W        W36703  25.531  23.450  14.922
64378W        W36704  17.310  13.926  13.900
64379W        W36705  27.959   7.130  14.968
64380W        W36706  13.032  10.179   0.832
64381W        W36707  13.700  32.388  10.931
64382W        W36708   1.372  23.174   2.758
64383W        W36709  21.520   1.537  14.089
64384W        W36710  32.549   0.825   3.898
64385W        W36711   4.480  40.474   2.723
64386W        W36712  15.797  40.819   3.697
64387W        W36713  39.898   8.846  11.118
64388W        W36714  38.502  32.999  10.855
64389W        W36715  25.558  12.715   0.271
64390W        W36716  41.254  34.557  10.610
64391W        W36717  17.720   7.380   0.788
64392W        W36718  18.180  38.948   2.149
64393W        W36719  35.814  32.500  12.366
64394W        W36720   2.134  19.654  10.155
64395W        W36721  20.286  19.636  10.513
64396W        W36722  10.916  24.725   1.878
64397W        W36723  39.609  25.039   3.255
64398W        W36724  11.378   1.971   1.073
64399W        W36725  19.744  29.550   2.949
64400W        W36726   7.955   4.017  12.601
64401W        W36727  21.692  29.879  13.534
64402W        W36728  29.504  42.579   2.669
64403W        W36729  38.240  26.799   0.741
64404W        W36730  33.377   1.442   0.411
64405W        W36731  18.035  42.781   2.272
64406W        W36732  30.887  28.378   4.144
64407W        W36733   2.932  40.600   2.053
64408W        W36734  32.140   7.464  11.636
64409W        W36735   9.696  18.179   4.117
64410W        W36736  40.476  11.753  10.756
64411W        W36737   9.816   7.298  13.762
64412W        W36738  34.096  32.652  14.266
64413W        W36739  36.045  24.024  10.477
64414W        W36740  40.229  39.446  11.351
64415W        W36741  28.627   0.414   0.327
64416W        W36742  44.984  23.741  13.707
64417W        W36743  10.896  34.319   1.224
64418W        W36744  13.956   3.433  12.380
64419W        W36745   3.830  41.576  14.516
64420W        W36746  44.903   5.406   4.824
64421W        W36747  36.205  31.429   0.338
64422W        W36748  38.643  44.763  14.369
64423W        W36749  41.779  30.611  11.353
64424W        W36750  40.779  22.035  14.949
64425W        W36751   8.381  15.215  10.615
64426W        W36752   9.060  25.606  12.605
64427W        W36753   0.251  41.909   1.926
64428W        W36754  18.253  25.577   4.172
64429W        W36755  39.849  14.056   4.228
64430W        W36756   8.813  41.754   1.750
64431W        W36757  12.585   0.456   2.339
64432W        W36758  23.554  14.575   1.241
64433W        W36759  13.806  31.610   3.890
64434W        W36760  40.548  24.640  13.437
64435W        W36761  12.830   6.053   0.282
64436W        W36762  38.421   7.719   1.720
64437W        W36763  10.838  14.228   4.608
64438W        W36764  44.722  37.380  14.115
64439W        W36765  29.691  19.645   4.185
64440W        W36766  21.369   1.964   2.187
64441W        W36767  34.602  25.173   3.769
64442W        W36768  13.664  37.796   3.995
64443W        W36769  15.890  15.677   4.560
64444W        W36770  16.833  28.485   1.886
64445W        W36771  34.602   8.110   4.448
64446W        W36772   1.821  34.740  13.336
64447W        W36773  25.437  30.007   3.051
64448W        W36774  29.151   4.867   4.094
64449W        W36775  40.366  30.720   5.278
64450W        W36776  34.767  23.538   0.480
64451W        W36777   7.793  16.118   1.030
64452W        W36778  15.815   1.756   4.942
64453W        W36779   5.988   6.766  14.796
64454W        W36780   0.843  27.560  11.059
64455W        W36781  24.532  22.531  10.917
64456W        W36782   7.393  18.437   3.853
64457W        W36783   3.336   8.217   3.651
64458W        W36784  14.823  26.051   2.961
64459W        W36785  25.716  17.124   3.714
64460W        W36786  32.625  34.672  14.556
64461W        W36787  21.231   2.758  12.382
64462W        W36788  24.681  27.353  11.173
64463W        W36789  33.281  17.667  11.538
64464W        W36790  37.808  27.683   1.492
64465W        W36791  19.974  31.526  12.678
64466W        W36792  25.449  20.565   4.747
64467W        W36793  16.666  19.049   4.539
64468W        W36794  16.803   2.111   4.736
64469W        W36795   5.697   0.211   0.812
64470W        W36796  34.962  31.230   4.530
64471W        W36797  30.987  42.846   2.731
64472W        W36798  37.353  21.231   0.709
64473W        W36799  19.576  38.444   2.422
64474W        W36800  24.362  30.615  13.111
64475W        W36801  44.070  19.393  12.797
64476W        W36802   1.316  30.289  14.013
64477W        W36803  18.375  13.231   4.043
64478W        W36804  44.317  25.753   1.784
64479W        W36805  16.112   3.424  12.544
64480W        W36806  26.598  29.936   4.501
64481W        W36807   5.162  19.259  12.771
64482W        W36808   6.418  27.699   4.539
64483W        W36809   6.963  24.318   3.642
64484W        W36810  28.571  32.102  14.832
64485W        W36811   9.218  39.228   2.685
64486W        W36812  31.619  40.178  14.447
64487W        W36813  22.648  23.181  14.279
64488W        W36814  31.474  16.995  12.983
64489W        W36815  41.022   9.701   1.979
64490W        W36816  14.475  27.627   0.722
64491W        W36817  42.700   1.376   3.281
64492W        W36818  38.539   7.798  13.284
64493W        W36819   1.941  20.984   1.206
64494W        W36820  40.061  23.059   1.314
64495W        W36821  42.516  16.588  14.949
64496W        W36822  20.664  14.922   1.233
64497W        W36823  24.473  24.608  11.933
64498W        W36824  25.625  27.534   1.439
64499W        W36825  34.626  13.267  12.430
64500W        W36826   1.923  12.830  13.314
64501W        W36827  10.994  30.605  12.076
64502W        W36828  18.612  33.138  14.093
64503W        W36829  33.374  10.361   2.341
64504W        W36830  24.499  33.122  14.009
64505W        W36831  34.468  44.879   4.777
64506W        W36832  24.759  12.244   4.243
64507W        W36833  27.242  15.971  13.014
64508W        W36834  23.640   9.145  14.963
64509W        W36835  17.625  26.375   4.821
64510W        W36836  15.908   6.325   1.799
64511W        W36837  30.839   4.621  13.383
64512W        W36838   8.834  35.529  12.442
64513W        W36839  43.878  40.517   0.921
64514W        W36840  25.087   3.734   2.719
64515W        W36841   0.009   6.758   4.307
64516W        W36842   0.484  25.517  14.521
64517W        W36843  14.504  13.161  14.868
64518W        W36844  28.735   4.343   4.167
64519W        W36845  12.030  25.993   4.955
64520W        W36846   9.375  34.154   3.267
64521W        W36847   9.396  24.508  12.529
64522W        W36848  16.953   0.941  13.896
64523W        W36849  33.527  17.097   3.668
64524W        W36850  10.344  22.953   0.366
64525W        W36851   6.414  29.773   0.845
64526W        W36852  24.657   8.183  13.552
64527W        W36853  23.390   8.474   0.400
64528W        W36854  18.272  37.351  11.595
64529W        W36855  32.475  38.945  10.841
64530W        W36856  21.047  12.807  13.284
64531W        W36857   0.439   3.108   4.208
64532W        W36858  38.086  16.271  12.369
64533W        W36859   6.913   6.338  11.618
64534W        W36860  43.527  34.304  13.865
64535W        W36861  22.533   9.799  12.250
64536W        W36862  31.162   4.375   2.700
64537W        W36863  30.474  42.070   1.712
64538W        W36864   9.803   7.249   4.748
64539W        W36865   5.753  44.323  14.047
64540W        W36866   4.479   4.331   9.834
64541W        W36867  25.123  33.834   0.493
64542W        W36868  19.167   4.146  12.682
64543W        W36869   2.672  14.184  13.990
64544W        W36870  42.025   6.603   2.391
64545W        W36871  12.116   9.399   1.747
64546W        W36872  21.004  27.151   4.090
64547W        W36873  24.563   9.105   2.223
64548W        W36874  35.059  31.938   2.292
64549W        W36875   5.748  31.890   3.759
64550W        W36876  35.659  32.549   2.762
64551W        W36877  42.815   1.823  13.927
64552W        W36878  30.093  37.807  14.249
64553W        W36879  30.578  30.071   1.229
64554W        W36880  30.024  13.799   1.409
64555W        W36881  38.879   7.878   2.662
64556W        W36882  20.241  23.703  10.728
64557W        W36883  33.364  39.305   0.728
64558W        W36884  26.211  26.892   4.131
64559W        W36885  35.130  26.527   2.660
64560W        W36886   3.689  31.504  13.103
64561W        W36887  15.900  22.810   4.282
64562W        W36888  18.995  25.861   0.612
64563W        W36889   7.308   6.685  10.437
64564W        W36890  18.352  41.835   3.044
64565W        W36891  20.810  44.587   3.284
64566W        W36892  17.152  17.819  11.942
64567W        W36893  31.536  43.501  14.264
64568W        W36894  31.863  36.922   2.914
64569W        W36895  18.560  32.559  14.931
64570W        W36896   9.859  19.548  11.221
64571W        W36897  42.077  21.119  14.371
64572W        W36898  13.597  29.174   1.402
64573W        W36899  34.524  43.471   1.943
64574W        W36900  14.291  23.473   0.161
64575W        W36901  26.774  28.539  12.389
64576W        W36902  42.897  16.851  13.426
64577W        W36903   2.329   9.192  13.092
64578W        W36904   2.282  26.417   3.255
64579W        W36905  27.864   4.286  11.914
64580W        W36906  33.416  17.147   2.310
64581W        W36907   7.622   2.387  13.925
64582W        W36908  20.535  30.402  10.641
64583W        W36909  16.111  43.534  14.918
64584W        W36910  36.115  28.426  10.938
64585W        W36911  25.083  11.421   2.838
64586W        W36912  33.417  26.485  13.754
64587W        W36913  29.757  27.142   5.274
64588W        W36914   1.647  44.422  11.149
64589W        W36915  44.744  31.952   1.680
64590W        W36916  31.650  39.089   0.107
64591W        W36917   6.595  33.171   1.769
64592W        W36918   6.686  16.604   4.106
64593W        W36919  19.696  19.057   3.378
64594W        W36920   6.614   9.297   0.382
64595W        W36921  19.865  37.780  14.820
64596W        W36922  16.703  36.040  13.082
64597W        W36923  20.756  30.203   0.025
64598W        W36924  36.169  26.118  14.418
64599W        W36925  32.110  41.028   1.188
64600W        W36926  37.366  10.423   3.107
64601W        W36927  23.439  26.037   2.340
64602W        W36928  10.727  39.527   0.818
64603W        W36929  31.998  36.159   3.222
64604W        W36930  31.855  28.009   2.823
64605W        W36931  41.280  40.494   3.728
64606W        W36932  35.426  42.036   3.878
64607W        W36933  10.953  17.166   2.337
64608W        W36934  41.109  34.749   5.067
64609W        W36935  15.851  36.359   2.646
64610W        W36936  44.038  25.793   1.353
64611W        W36937   9.836  19.424  13.928
64612W        W36938  25.482   9.599  10.994
64613W        W36939  22.216  31.205   4.149
64614W        W36940  18.468   2.282   1.414
64615W        W36941   6.219  26.633   2.866
64616W        W36942   4.820  38.065  11.445
64617W        W36943   9.303  17.296   4.641
64618W        W36944  16.350  42.988  14.033
64619W        W36945   6.740  10.867   2.996
64620W        W36946  38.135  10.356  14.940
64621W        W36947  28.967  15.644   3.816
64622W        W36948  33.230  19.248  12.052
64623W        W36949  23.830  33.527  11.062
64624W        W36950  14.016   3.990   4.211
64625W        W36951  10.634  32.938  12.397
64626W        W36952  21.223  31.781   2.358
64627W        W36953  19.213  34.153   4.363
64628W        W36954   7.625  22.197  13.762
64629W        W36955   1.497  33.936   0.781
64630W        W36956  15.061  42.527   1.310
64631W        W36957  32.177  21.775   4.584
64632W        W36958  41.570  20.138  12.477
64633W        W36959  29.151   6.510  13.851
64634W        W36960  27.218  10.504  11.428
64635W        W36961  14.847   2.772  13.130
64636W        W36962   2.352  42.094   2.734
64637W        W36963  17.181  24.995  10.862
64638W        W36964  33.404   9.883   4.626
64639W        W36965  32.473  29.665  14.359
64640W        W36966   7.930  17.106  14.972
64641W        W36967  15.576  33.369   0.369
64642W        W36968  39.441  25.529   3.240
64643W        W36969  16.009  38.976  10.427
64644W        W36970   1.342  18.268   0.837
64645W        W36971  28.927   5.407  12.390
64646W        W36972  40.877  13.064   4.641
64647W        W36973  37.579  44.429   1.507
64648W        W36974   8.249   6.412  13.375
64649W        W36975   8.820  42.501   4.292
64650W        W36976  27.747   2.735   0.497
64651W        W36977  44.291  40.732  13.068
64652W        W36978  24.183  37.064  13.279
64653W        W36979   6.832  15.365   1.744
64654W        W36980  43.340  22.748   4.159
64655W        W36981  11.672  34.669  14.282
64656W        W36982  34.031  22.741  14.490
64657W        W36983  41.466   6.732   1.148
64658W        W36984  36.372  10.831  12.636
64659W        W36985  32.418  24.056  12.056
64660W        W36986  36.034  17.038   2.249
64661W        W36987  43.979  42.064  13.348
64662W        W36988  33.426  24.498  10.690
64663W        W36989  31.522  22.816   1.405
64664W        W36990  21.278   6.203   0.734
64665W        W36991  24.081  23.680  12.084
64666W        W36992  21.188   4.327   2.899
64667W        W36993  15.564  25.726  13.858
64668W        W36994  21.115  10.018   0.462
64669W        W36995  44.344  33.172   4.863
64670W        W36996  25.236  10.284  13.607
64671W        W36997  34.270  43.896  13.643
64672W        W36998  26.950  16.815  14.803
64673W        W36999  21.525  19.883   5.161
64674W        W37000  33.430   7.729  12.919
64675W        W37001   4.941  38.081   0.150
64676W        W37002  17.876  23.610  13.984
64677W        W37003  44.352   5.927   0.407
64678W        W37004  17.212  29.011  11.651
64679W        W37005  39.867   3.345   3.578
64680W        W37006  36.152   7.702  14.522
64681W        W37007  25.515  35.145   2.712
64682W        W37008  30.334   3.812   2.841
64683W        W37009   3.493  29.241  12.455
64684W        W37010   8.592  44.816   4.628
64685W        W37011  28.494  36.478  13.425
64686W        W37012   0.124  27.285  12.120
64687W        W37013  41.838  44.508  13.985
64688W        W37014  20.552  34.488  14.333
64689W        W37015  30.338  44.939   1.151
64690W        W37016  42.244  35.880   0.661
64691W        W37017  12.749  14.804   2.104
64692W        W37018  28.594  28.660  14.610
64693W        W37019  34.965  14.180  10.451
64694W        W37020   6.200  23.918   4.534
64695W        W37021   4.731  16.164  13.304
64696W        W37022   1.788   8.083  10.818
64697W        W37023  34.904  17.805  12.397
64698W        W37024  31.589  34.822  10.883
64699W        W37025  26.355  20.970   4.456
64700W        W37026  29.330   2.006  11.995
64701W        W37027  11.442  21.166  13.975
64702W        W37028   9.289  10.611   2.303
64703W        W37029  43.706  43.805   0.283
64704W        W37030  36.070  25.960   4.635
64705W        W37031   0.434   0.264  10.767
64706W        W37032  15.598  23.000  12.549
64707W        W37033  30.968  21.975  11.942
64708W        W37034  19.733  40.353   4.218
64709W        W37035  34.545  29.715  14.856
64710W        W37036   1.006  42.880   0.930
64711W        W37037  34.440  21.201  14.515
64712W        W37038  17.199  36.102  13.252
64713W        W37039  23.107   1.363   2.673
64714W        W37040  18.248  10.654  13.284
64715W        W37041   8.583   4.709  14.346
64716W        W37042  35.818  20.259   1.438
64717W        W37043  27.501  37.770  14.929
64718W        W37044  24.564  27.242   0.916
64719W        W37045   9.183  26.014   0.743
64720W        W37046  34.342  43.702   3.115
64721W        W37047  16.080   4.413   0.212
64722W        W37048  25.100  12.630   4.153
64723W        W37049  37.866  44.843  12.353
64724W        W37050  44.868  44.017  11.026
64725W        W37051   2.492  43.003   1.346
64726W        W37052   4.891  22.726  12.616
64727W        W37053  18.172   9.679   4.219
64728W        W37054  27.126  29.212   2.338
64729W        W37055   1.825  28.510   2.744
64730W        W37056   4.049  13.782   0.794
64731W        W37057  27.788   8.384   4.686
64732W        W37058  10.639  17.177   1.914
64733W        W37059  15.048  12.125   0.277
64734W        W37060   0.255   6.826   2.185
64735W        W37061  41.920  18.923   4.156
64736W        W37062  38.633  19.204  10.381
64737W        W37063  15.292  40.911  14.977
64738W        W37064   6.168  43.478  12.549
64739W        W37065  28.393  26.418   0.471
64740W        W37066  37.083  35.640   1.680
64741W        W37067  18.987  33.501  13.313
64742W        W37068  42.852  16.823  10.645
64743W        W37069   4.660  21.788  12.488
64744W        W37070   5.262  41.385  11.916
64745W        W37071  26.422  37.360  11.000
64746W        W37072   8.788  40.534   3.148
64747W        W37073  34.574   9.257  14.987
64748W        W37074  36.364  37.348   0.231
64749W        W37075  15.247  25.107  11.992
64750W        W37076  29.203  37.328   1.283
64751W        W37077  44.720  38.570   0.365
64752W        W37078  19.834  24.220  13.831
64753W        W37079  24.008  29.113  11.035
64754W        W37080  40.905  25.181   3.697
64755W        W37081   6.268  38.931  14.076
64756W        W37082  10.055  11.111   3.791
64757W        W37083  12.094   6.462  11.623
64758W        W37084  34.006  23.767   0.757
64759W        W37085  40.799   5.074  12.591
64760W        W37086  38.403   8.467   0.989
64761W        W37087  21.536  42.893  11.588
64762W        W37088   9.391   0.571   3.696
64763W        W37089  39.937  40.356  14.690
64764W        W37090  32.085  13.856   3.297
64765W        W37091  22.320  39.903   5.165
64766W        W37092  21.542  24.660   2.831
64767W        W37093  22.618   1.172  13.700
64768W        W37094  41.560   5.500  12.943
64769W        W37095  36.851  44.328  12.853
64770W        W37096  18.247  28.785  13.406
64771W        W37097  23.066  25.486   2.622
64772W        W37098  41.454  39.520   3.318
64773W        W37099  15.298  13.553  12.798
64774W        W37100  13.549  11.109   1.005
64775W        W37101  41.001   4.292  10.575
64776W        W37102  43.583  23.553   2.448
64777W        W37103  26.622   4.630   0.033
64778W        W37104  31.029  41.874   0.913
64779W        W37105  41.110  16.364  11.130
64780W        W37106  22.211   3.806   0.804
64781W        W37107  40.630  27.801   0.843
64782W        W37108  21.110  16.481   4.332
64783W        W37109   9.665  25.586  12.592
64784W        W37110   0.774  41.496   1.434
64785W        W37111  22.754   0.269   1.404
64786W        W37112   4.323  11.616   1.019
64787W        W37113  29.991  14.005   2.682
64788W        W37114  32.174  32.352  13.290
64789W        W37115  13.236   6.361   4.560
64790W        W37116  29.877   9.815   3.301
64791W        W37117  21.685  18.189   4.553
64792W        W37118  32.864  21.151   0.911
64793W        W37119  42.950  42.266   3.701
64794W        W37120  22.133  37.299  10.873
64795W        W37121  43.892  39.880   3.262
64796W        W37122  41.746   5.992  12.966
64797W        W37123  30.206  22.617  12.899
64798W        W37124  37.565   9.106   3.794
64799W        W37125  13.763   3.925   2.725
64800W        W37126   5.166  35.690   4.663
64801W        W37127  15.068   6.798   4.084
64802W        W37128  22.483  21.207   4.189
64803W        W37129   1.705   4.261  11.482
64804W        W37130  36.522   4.950  13.001
64805W        W37131   5.992  22.768   0.652
64806W        W37132  25.088  32.600   2.981
64807W        W37133  35.672  18.088   3.659
64808W        W37134  13.670  26.348  11.591
64809W        W37135  19.109  30.566  14.852
64810W        W37136  31.476  43.301   4.282
64811W        W37137   1.279  39.992  14.063
64812W        W37138  12.798  11.783   3.146
64813W        W37139  10.211  21.243   4.563
64814W        W37140  29.742  33.838   2.335
64815W        W37141   0.249  17.226  11.625
64816W        W37142  17.124  39.594  13.722
64817W        W37143  38.454  34.985   3.165
64818W        W37144  28.008  30.990  11.187
64819W        W37145  11.179  32.386   3.279
64820W        W37146  26.302  28.705   1.349
64821W        W37147  37.822   4.161   3.234
64822W        W37148   9.418  29.489  13.601
64823W        W37149  34.672   7.186   0.900
64824W        W37150  11.439  25.211  10.988
64825W        W37151  25.127  41.250   3.858
64826W        W37152   3.276  16.244  12.313
64827W        W37153  42.210  33.466  11.183
64828W        W37154  41.257  39.583   1.454
64829W        W37155  22.137  23.400   0.704
64830W        W37156  25.926  38.340  11.600
64831W        W37157  41.293  25.724  11.861
64832W        W37158  23.925  20.216  14.481
64833W        W37159  35.562  44.371   4.344
64834W        W37160   9.093  11.174   1.187
64835W        W37161  38.901  20.001  10.503
64836W        W37162  38.769   7.802   3.625
64837W        W37163  40.968  39.425  10.645
64838W        W37164   2.469  41.313  14.892
64839W        W37165   5.299  37.292   4.641
64840W        W37166  41.493  44.954  11.855
64841W        W37167  32.377  31.144  13.084
64842W        W37168   7.177  36.903  11.148
64843W        W37169  38.717  33.320   0.920
64844W        W37170  29.871  44.930   1.379
64845W        W37171  24.098  15.334   1.465
64846W        W37172  29.523  29.940  13.922
64847W        W37173  44.747  38.456   3.648
64848W        W37174  44.243  34.918  12.432
64849W        W37175  20.151  18.695  12.365
64850W        W37176  31.596  14.158  14.573
64851W        W37177  34.733  15.205  11.679
64852W        W37178  37.520   4.380  12.319
64853W        W37179   1.514  17.359   0.366
64854W        W37180   8.613  44.180   1.751
64855W        W37181  33.862  32.925  11.715
64856W        W37182  44.977  28.067   2.823
64857W        W37183  23.676  10.584  14.011
64858W        W37184   8.877  21.898  12.995
64859W        W37185  37.744  14.584   3.198
64860W        W37186   4.401  32.534  11.712
64861W        W37187  10.060  37.807  14.447
64862W        W37188  37.093  26.185  11.663
64863W        W37189  30.455   3.309  13.478
64864W        W37190  10.595  15.638  10.507
64865W        W37191   4.659  18.063   3.661
64866W        W37192  25.078  23.303  11.904
64867W        W37193  30.052  30.033   2.959
64868W        W37194  17.047  17.609   1.793
64869W        W37195  38.226   7.029  10.082
64870W        W37196   3.012  22.841  14.485
64871W        W37197  31.902   3.773  10.930
64872W        W37198  14.188  33.770  11.383
64873W        W37199  17.567   5.129  12.260
64874W        W37200  24.275  18.870   0.505
64875W        W37201  27.870  35.915  13.568
64876W        W37202  10.038  15.608   2.350
64877W        W37203   5.409  22.231   0.314
64878W        W37204  16.164  43.330   1.014
64879W        W37205  36.909  16.750  13.579
64880W        W37206  33.445  41.695  12.133
64881W        W37207  13.751  37.018   4.532
64882W        W37208  13.198  38.947  10.295
64883W        W37209  10.351   6.795  11.799
64884W        W37210   3.353  35.688   4.821
64885W        W37211  28.925  11.121   2.371
64886W        W37212  31.938   2.929   5.040
64887W        W37213  33.480   2.036  13.946
64888W        W37214  32.202  14.189   0.228
64889W        W37215   2.247  33.321   3.112
64890W        W37216  43.431  15.524   4.116
64891W        W37217  41.019   4.179   3.740
64892W        W37218  20.786  23.687   4.666
64893W        W37219  33.656  11.661   5.007
64894W        W37220  14.399  36.591   4.133
64895W        W37221  10.938  33.067   1.291
64896W        W37222  24.490  26.055  11.383
64897W        W37223  41.833  31.695  13.868
64898W        W37224  18.322  31.637   1.362
64899W        W37225   8.341  20.658   2.708
64900W        W37226  12.294  13.483   0.056
64901W        W37227  30.427   2.161  11.664
64902W        W37228  19.989   4.331   4.604
64903W        W37229  26.063  12.160   3.594
64904W        W37230  36.897   0.922   2.279
64905W        W37231  10.237  43.936  14.022
64906W        W37232  31.852  35.552  14.498
64907W        W37233  20.131  40.022  10.391
64908W        W37234  27.151  32.644   3.277
64909W        W37235  30.216  22.268  12.506
64910W        W37236  36.500  27.063   2.569
64911W        W37237   8.118   4.959  14.418
64912W        W37238   6.877  33.487   1.025
64913W        W37239  11.771  20.517   1.219
64914W        W37240  12.342  25.162   2.330
64915W        W37241  12.384  14.953  14.025
64916W        W37242  36.052   8.130   1.346
64917W        W37243  28.169  26.011   9.999
64918W        W37244  12.585  40.532  13.959
64919W        W37245  37.128  38.895  12.116
64920W        W37246  19.084  25.043   4.639
64921W        W37247  27.179  12.282  13.853
64922W        W37248  33.023   5.908   3.005
64923W        W37249  20.678  12.257   0.725
64924W        W37250  29.452   0.991  14.057
64925W        W37251   2.091  19.580   4.855
64926W        W37252  44.163  16.287  14.574
64927W        W37253  24.817  13.704  11.358
64928W        W37254  10.920  23.113   0.978
64929W        W37255  40.327   6.870   2.834
64930W        W37256  15.414  40.842  14.293
64931W        W37257   7.332  35.291   2.503
64932W        W37258  38.075  43.822   2.350
64933W        W37259  10.104  43.377   1.876
64934W        W37260  26.885  22.493   0.468
64935W        W37261  37.051  30.635  10.601
64936W        W37262   3.195  25.091  11.444
64937W        W37263  35.761   5.415   2.711
64938W        W37264   0.030  20.241   3.153
64939W        W37265  11.763   9.684  13.121
64940W        W37266   9.873  15.233  12.854
64941W        W37267   2.876  20.705   3.725
64942W        W37268  38.590  37.967  13.793
64943W        W37269  41.454  19.008   2.827
64944W        W37270  34.623  22.983  12.800
64945W        W37271  43.321  22.793  11.627
64946W        W37272  23.742  27.940   3.819
64947W        W37273  29.545  38.970  11.029
64948W        W37274  19.761  16.226   0.222
64949W        W37275  21.606  13.367   4.540
64950W        W37276  20.743  13.214   0.446
64951W        W37277   2.828   4.696   3.169
64952W        W37278  15.695  11.887  14.142
64953W        W37279  11.814   7.700  13.278
64954W        W37280  25.668   9.926   3.925
64955W        W37281  20.571   2.971   1.328
64956W        W37282  25.229  10.346   4.678
64957W        W37283  24.971   1.164  14.976
64958W        W37284  34.812  24.627   2.852
64959W        W37285   2.677  35.190   3.221
64960W        W37286  19.673  35.052   3.154
64961W        W37287   4.599  18.835   3.180
64962W        W37288   0.347   7.911   3.594
64963W        W37289  42.208  21.789  11.881
64964W        W37290   0.309   1.650   1.829
64965W        W37291  26.118  22.495  13.594
64966W        W37292  35.209  25.508   1.682
64967W        W37293  11.033  15.082   3.069
64968W        W37294  22.493  12.821  11.057
64969W        W37295   1.317   5.676   0.094
64970W        W37296   4.509  29.065   1.271
64971W        W37297  38.114  31.563   2.433
64972W        W37298  34.274  26.186  10.657
64973W        W37299  39.501  35.499  11.012
64974W        W37300  14.547  29.269  12.914
64975W        W37301  32.928  31.431   2.878
64976W        W37302   2.078   6.327   1.538
64977W        W37303  18.064  39.965  12.318
64978W        W37304  26.777  41.666  11.055
64979W        W37305   6.230  24.810   0.251
64980W        W37306  28.376  44.925   0.387
64981W        W37307   3.825   6.815   1.398
64982W        W37308  22.621   1.989   4.488
64983W        W37309  16.279  20.076   0.386
64984W        W37310  27.887  37.827   1.324
64985W        W37311  26.537  30.952  11.951
64986W        W37312  34.348  19.977  10.587
64987W        W37313  34.078  12.041   2.174
64988W        W37314   0.734  44.094  13.019
64989W        W37315  28.607  15.790   0.943
64990W        W37316  21.507  25.457  12.102
64991W        W37317   0.739  42.993  12.072
64992W        W37318  29.010  39.347   4.206
64993W        W37319  27.055  32.848  12.627
64994W        W37320   7.145   5.505   2.224
64995W        W37321   2.213   8.265   0.232
64996W        W37322  32.143   7.409  13.402
64997W        W37323  35.409  35.937  14.995
64998W        W37324   7.122  10.968  13.243
64999W        W37325  39.966  36.638  10.685
65000W        W37326   7.958  32.057   3.314
65001W        W37327  41.756  26.428  12.542
65002W        W37328  16.347  22.630  13.888
65003W        W37329   8.807  44.916  14.535
65004W        W37330  15.840  17.410   2.816
65005W        W37331  21.517  31.181  12.054
65006W        W37332  39.560  28.911   3.235
65007W        W37333   4.031  40.481   4.688
65008W        W37334  33.293  14.369  14.344
65009W        W37335  40.482   3.756  11.081
65010W        W37336  32.599  22.063  13.149
65011W        W37337  14.821  42.670   3.795
65012W        W37338  29.834   7.066   3.382
65013W        W37339  44.493  27.053  13.848
65014W        W37340  32.606  23.119  11.922
65015W        W37341  20.046   4.751   0.442
65016W        W37342  29.919  30.903   2.875
65017W        W37343  24.493  12.366  12.458
65018W        W37344  33.068  42.538  13.512
65019W        W37345   6.340  21.534  14.745
65020W        W37346  13.776  26.513  13.565
65021W        W37347  41.088  14.075   2.645
65022W        W37348   9.122  16.693  14.014
65023W        W37349  16.173  19.201  14.799
65024W        W37350   8.765   1.911   1.044
65025W        W37351  27.479  34.909  13.059
65026W        W37352   2.706  27.106   2.580
65027W        W37353  35.510  11.924   9.762
65028W        W37354   2.537  12.696   2.319
65029W        W37355  15.415  43.589   4.501
65030W        W37356  12.689  13.892  10.732
65031W        W37357   2.356  15.130  11.203
65032W        W37358  15.685  16.822  10.693
65033W        W37359  33.922  10.012  11.611
65034W        W37360  16.123  14.887  10.681
65035W        W37361  19.523   5.412   1.893
65036W        W37362  11.892  15.311  12.304
65037W        W37363  42.925  22.589   5.264
65038W        W37364  34.021  21.859   4.152
65039W        W37365  44.823   9.465  12.937
65040W        W37366   3.175  39.825   0.437
65041W        W37367   7.208  28.546  14.483
65042W        W37368  11.812  44.497   5.130
65043W        W37369  31.030  23.584  11.917
65044W        W37370  34.077  10.129  14.974
65045W        W37371  41.378  19.769   2.300
65046W        W37372  14.296  11.667   0.792
65047W        W37373   0.172   2.747  10.484
65048W        W37374  15.710   7.804   4.702
65049W        W37375  18.667  17.974  11.148
65050W        W37376  36.643  22.169  13.218
65051W        W37377   2.261  40.008  11.587
65052W        W37378  41.764  31.133   0.800
65053W        W37379  35.056  36.806   2.294
65054W        W37380  35.628  28.678  11.661
65055W        W37381  19.042  43.289  11.413
65056W        W37382  32.965  26.751   3.279
65057W        W37383   8.237   2.452   3.443
65058W        W37384  37.615  35.072  12.021
65059W        W37385  10.132  27.457   0.927
65060W        W37386  19.591  44.721  12.607
65061W        W37387  27.042  34.975  12.760
65062W        W37388  27.534   1.818   0.405
65063W        W37389  14.290  23.009  12.147
65064W        W37390  31.872  21.788   3.299
65065W        W37391   3.708  32.568  10.714
65066W        W37392  25.006   7.714   2.985
65067W        W37393  21.504   2.954  11.054
65068W        W37394  25.617  28.227  14.079
65069W        W37395  17.282  24.271  14.266
65070W        W37396   0.793  44.836   2.404
65071W        W37397   6.275  28.028  14.291
65072W        W37398   2.679  41.576  10.521
65073W        W37399  23.452   1.367  11.585
65074W        W37400  37.144  14.062  12.072
65075W        W37401  23.991  37.232   3.336
65076W        W37402  22.505  25.332  10.805
65077W        W37403  24.489  19.010   1.086
65078W        W37404  42.215  12.125  11.025
65079W        W37405   2.197  40.717  10.950
65080W        W37406  11.316  11.466  12.498
65081W        W37407  18.709  25.372   4.107
65082W        W37408   3.707  28.491   4.879
65083W        W37409   0.260   9.449   1.155
65084W        W37410  32.333  21.634  12.978
65085W        W37411  32.191  34.839   0.393
65086W        W37412  26.509  24.567  14.958
65087W        W37413  27.066  17.221  10.686
65088W        W37414   2.977  34.956  12.181
65089W        W37415  20.091  44.354   3.722
65090W        W37416   1.285   7.357  12.103
65091W        W37417  29.011  40.350   3.828
65092W        W37418  39.087   2.308  11.927
65093W        W37419   0.593  11.936  11.124
65094W        W37420  31.427  14.790   3.601
65095W        W37421  28.023  30.492   3.668
65096W        W37422  42.388  39.013   0.970
65097W        W37423  32.919  29.027   4.103
65098W        W37424   3.916   5.181  10.758
65099W        W37425  18.726   3.682   9.917
65100W        W37426  19.861  44.540   1.456
65101W        W37427  10.249  25.860  14.863
65102W        W37428  30.615   3.571   0.748
65103W        W37429  40.354   4.718   0.770
65104W        W37430  13.279  23.513   3.311
65105W        W37431  15.789  27.667   1.833
65106W        W37432   7.951  15.290   2.547
65107W        W37433   0.362   7.875   4.527
65108W        W37434  15.208  33.344  11.428
65109W        W37435  41.578   0.544   1.442
65110W        W37436  33.425  36.305   4.639
65111W        W37437  38.960  17.159  12.380
65112W        W37438  32.904   9.346   2.109
65113W        W37439  29.577   9.037   4.183
65114W        W37440  28.921  19.717   4.654
65115W        W37441  17.912  38.568  14.420
65116W        W37442  16.570   7.902   4.636
65117W        W37443  43.442  32.541   1.478
65118W        W37444  16.983   1.915   3.080
65119W        W37445   3.782   0.932  10.820
65120W        W37446  10.848   5.302   1.744
65121W        W37447  44.981   3.212   1.030
65122W        W37448  21.913  25.984  12.841
65123W        W37449   0.616  43.415   4.920
65124W        W37450  13.871   6.416   1.923
65125W        W37451  32.527  15.534   2.412
65126W        W37452  13.059   3.380   3.768
65127W        W37453  37.945  11.813  14.711
65128W        W37454  26.713  28.187   2.695
65129W        W37455  17.125  17.812   2.794
65130W        W37456  15.764  30.349  10.758
65131W        W37457  29.209  31.143  11.919
65132W        W37458  38.855  37.606   4.486
65133W        W37459  40.582  21.609  11.106
65134W        W37460  35.658   1.200   3.819
65135W        W37461  24.127  20.655   1.920
65136W        W37462  24.642   9.266   3.269
65137W        W37463  22.663  25.982   3.262
65138W        W37464  34.306  13.133   3.304
65139W        W37465  14.831   7.209  11.620
65140W        W37466  23.269  39.224   3.207
65141W        W37467  10.159   9.824  12.577
65142W        W37468  25.992  25.263   1.582
65143W        W37469  38.076  27.813   1.935
65144W        W37470  10.903  10.181  10.418
65145W        W37471  27.607  18.395  10.344
65146W        W37472  22.206  22.577   0.811
65147W        W37473  23.154  24.582   4.978
65148W        W37474  27.735   8.914  10.162
65149W        W37475  42.377  38.403  11.997
65150W        W37476  14.070   3.686   2.391
65151W        W37477  29.364  10.251   4.930
65152W        W37478  41.321  32.077   3.243
65153W        W37479  19.424  34.921   0.447
65154W        W37480  37.920  20.057  10.970
65155W        W37481   8.178   6.769   3.013
65156W        W37482  35.151   7.226   4.476
65157W        W37483  32.921  42.077  11.487
65158W        W37484  40.512  38.884   4.239
65159W        W37485  30.822  17.355   4.107
65160W        W37486  30.566   0.635   5.172
65161W        W37487  13.190  10.644  12.554
65162W        W37488  42.450  13.551   2.249
65163W        W37489  22.376  25.078   3.602
65164W        W37490  32.059  21.418  12.438
65165W        W37491  30.525   2.846  13.013
65166W        W37492  34.557   0.215   1.621
65167W        W37493  42.408  31.033   3.598
65168W        W37494   2.366  30.129   2.342
65169W        W37495  30.601  20.808  11.583
65170W        W37496   9.204   7.597  13.291
65171W        W37497  33.151  34.050   1.882
65172W        W37498  16.193  24.599   4.638
65173W        W37499  39.325  21.183   0.326
65174W        W37500  31.077  39.730   3.697
65175W        W37501   9.183  44.551   3.699
65176W        W37502  43.896  39.219  11.241
65177W        W37503   9.349  13.937  12.546
65178W        W37504  32.103  18.972  10.615
65179W        W37505  32.528  18.494   0.478
65180W        W37506   8.780  29.883   2.880
65181W        W37507  11.765  23.400  11.110
65182W        W37508  33.631   3.874   2.405
65183W        W37509  17.117  30.181   4.127
65184W        W37510  11.730  10.308   0.441
65185W        W37511   1.848  32.506  11.443
65186W        W37512   2.505  41.610  13.947
65187W        W37513  39.688   4.154   0.454
65188W        W37514  26.097  22.054   2.050
65189W        W37515  22.027  40.430   0.833
65190W        W37516  11.971  10.803   0.321
65191W        W37517  40.883  41.048   2.423
65192W        W37518   0.638  44.310  11.062
65193W        W37519  29.901  37.505   4.887
65194W        W37520  23.013   6.788  14.998
65195W        W37521  30.233  14.766  14.072
65196W        W37522  21.984  35.908   3.140
65197W        W37523  13.487  21.825  12.059
65198W        W37524   6.105  37.854  14.446
65199W        W37525   4.205  39.479   3.354
65200W        W37526  12.274  37.920  10.823
65201W        W37527  41.727  42.300   3.760
65202W        W37528  21.705   7.289  12.444
65203W        W37529  24.233  21.539   0.703
65204W        W37530  21.119   6.819  13.988
65205W        W37531  20.126  15.801   3.706
65206W        W37532   4.206   2.245   1.465
65207W        W37533  16.493  38.627   0.320
65208W        W37534  29.568  31.075  13.177
65209W        W37535  22.647  26.739   1.778
65210W        W37536  28.560  19.758   0.946
65211W        W37537   6.992  20.110  13.584
65212W        W37538  37.555  28.621   3.264
65213W        W37539   5.764  25.375   1.666
65214W        W37540   1.320  16.228   0.269
65215W        W37541  29.572  31.154  14.141
65216W        W37542  21.971  12.300   3.496
65217W        W37543  34.729   7.091   1.456
65218W        W37544   8.295  28.421   2.769
65219W        W37545  26.730   3.275   1.161
65220W        W37546  28.453   4.429   3.730
65221W        W37547  13.837  31.630   2.416
65222W        W37548  44.539  25.719   1.306
65223W        W37549  20.019  30.534  12.520
65224W        W37550  23.087  44.385   1.057
65225W        W37551  32.870   4.301   1.258
65226W        W37552  34.537  28.430   1.270
65227W        W37553  34.435  41.263  13.615
65228W        W37554   3.923  43.497  14.149
65229W        W37555  26.713  42.232  10.141
65230W        W37556  31.138  24.153   0.804
65231W        W37557   9.871  40.570  11.037
65232W        W37558  34.024  15.704   3.518
65233W        W37559  14.779   9.604  14.961
65234W        W37560   8.378  26.253  14.921
65235W        W37561  23.475   2.306  12.482
65236W        W37562  42.781  28.941   1.825
65237W        W37563  29.531  33.348  10.785
65238W        W37564  26.092  40.512  10.644
65239W        W37565  17.085  22.205   4.574
65240W        W37566  10.260  30.498  11.631
65241W        W37567  36.103  35.689   4.589
65242W        W37568  15.286  34.362   2.651
65243W        W37569  20.134   3.099   4.998
65244W        W37570  16.716  41.529  13.584
65245W        W37571  44.798   4.770   0.032
65246W        W37572  28.123  18.719  12.405
65247W        W37573   6.280  15.468  10.323
65248W        W37574  44.768  33.079   1.667
65249W        W37575   2.112  18.574   4.938
65250W        W37576  38.417  19.703   0.472
65251W        W37577  11.473  43.814   2.817
65252W        W37578  15.340  24.129  12.901
65253W        W37579   0.306   2.641  14.349
65254W        W37580  26.491   2.316  10.947
65255W        W37581   3.162  10.170   4.672
65256W        W37582  32.384  33.527   2.762
65257W        W37583   2.591  23.707   5.437
65258W        W37584  41.684   0.292  12.335
65259W        W37585  10.805  36.805  10.759
65260W        W37586  10.641  10.189   2.298
65261W        W37587  22.440  15.598   5.018
65262W        W37588  22.099   4.856  14.448
65263W        W37589  37.450  42.788   2.390
65264W        W37590  27.062  17.275  11.448
65265W        W37591  31.285   8.393  11.172
65266W        W37592  34.431  44.022   0.590
65267W        W37593  15.074  22.440   4.111
65268W        W37594  38.062  24.699  12.562
65269W        W37595   1.804  38.048  14.962
65270W        W37596   2.895  44.918   1.719
65271W        W37597  22.871   4.399  12.042
65272W        W37598  10.633  13.177  11.248
65273W        W37599  44.763  43.696   3.977
65274W        W37600  32.947  27.699   4.098
65275W        W37601  12.659  36.920   0.994
65276W        W37602  36.746   0.085   2.240
65277W        W37603  29.249   2.955   1.067
65278W        W37604  20.953  24.034   0.014
65279W        W37605   4.195  20.697   2.189
65280W        W37606  44.960  32.367   3.383
65281W        W37607  17.168   8.999   1.784
65282W        W37608  35.453  18.577   1.853
65283W        W37609   8.216   9.597   3.767
65284W        W37610  41.439  10.384   3.211
65285W        W37611  43.700  22.088  13.283
65286W        W37612  41.416   7.219  10.775
65287W        W37613  37.981  12.411  12.387
65288W        W37614  36.361  14.215   4.145
65289W        W37615  37.035  17.676  12.913
65290W        W37616  44.802  22.249  12.378
65291W        W37617  30.943   7.038   4.012
65292W        W37618  28.521  33.005  14.517
65293W        W37619  29.466   3.948   3.058
65294W        W37620  14.844  37.415   3.045
65295W        W37621   3.884  37.562  13.917
65296W        W37622   4.392   5.407  10.792
65297W        W37623  41.549   0.258  10.703
65298W        W37624  19.262  32.810   1.259
65299W        W37625  39.481  43.198   2.287
65300W        W37626  34.604  18.570  12.807
65301W        W37627  21.229   8.255  14.222
65302W        W37628   8.644  36.624   0.262
65303W        W37629   9.779   2.877  11.760
65304W        W37630  12.725  20.622  14.764
65305W        W37631   9.665  37.466  14.962
65306W        W37632   0.364  23.035   4.202
65307W        W37633  21.632   5.845  12.896
65308W        W37634  34.165   4.323   0.953
65309W        W37635   4.529  38.390   0.354
65310W        W37636  26.217  19.710  14.384
65311W        W37637  25.762  17.599   3.082
65312W        W37638   5.325   8.308   4.300
65313W        W37639  35.978  22.426  14.404
65314W        W37640  18.253  42.847  12.669
65315W        W37641  31.001   5.888   0.173
65316W        W37642   1.310  24.735   3.889
65317W        W37643  25.707  11.279  10.620
65318W        W37644   5.666  35.886   0.915
65319W        W37645  24.492  24.138  14.941
65320W        W37646  38.867  26.743  14.522
65321W        W37647  36.550  39.137   1.308
65322W        W37648  35.891  32.076   2.831
65323W        W37649  22.211  31.843  12.421
65324W        W37650  42.915  11.085   0.707
65325W        W37651  13.599  27.632  13.599
65326W        W37652  20.591   5.673   2.798
65327W        W37653  30.053  31.021  10.737
65328W        W37654   0.823  22.876   4.358
65329W        W37655  34.230   6.342   4.723
65330W        W37656  39.147  43.752   3.877
65331W        W37657  23.441   3.358  13.470
65332W        W37658  26.104  35.093  10.555
65333W        W37659  14.309  28.104  14.555
65334W        W37660  35.000   9.308   3.218
65335W        W37661   6.261   0.815   3.644
65336W        W37662  27.302   7.649   5.053
65337W        W37663  32.512  30.510   5.110
65338W        W37664   0.258  33.393  14.899
65339W        W37665  25.475   0.394   2.867
65340W        W37666  24.096  37.700   2.434
65341W        W37667  22.632  23.187   2.816
65342W        W37668  14.764  40.787   1.946
65343W        W37669  33.588  37.918  11.342
65344W        W37670   9.786   2.828  14.067
65345W        W37671   1.757  12.447  10.008
65346W        W37672  38.695  14.158   4.537
65347W        W37673  23.915  18.063  13.447
65348W        W37674  38.354  20.776  11.931
65349W        W37675  21.116  23.936  13.800
65350W        W37676   6.084  43.550  13.063
65351W        W37677   0.486  22.730   5.129
65352W        W37678  35.681  10.668  10.455
65353W        W37679   6.649  24.021   1.478
65354W        W37680  30.447  18.433   0.481
65355W        W37681  11.825  12.592  13.489
65356W        W37682  37.666  35.916   2.357
65357W        W37683  15.057   5.917  10.478
65358W        W37684  39.901  29.596  11.193
65359W        W37685  31.215  29.534  14.803
65360W        W37686  13.261  19.183   4.120
65361W        W37687  41.961   0.840   4.430
65362W        W37688  24.316  10.042   1.750
65363W        W37689  17.017  21.138   0.355
65364W        W37690  34.353   8.638  11.548
65365W        W37691  35.398  19.870  13.816
65366W        W37692   7.333  18.131  10.756
65367W        W37693  41.857  30.526   4.959
65368W        W37694  32.446   8.361   4.937
65369W        W37695   8.810  27.678   1.959
65370W        W37696   0.421  34.869   3.051
65371W        W37697  17.145  27.750   1.338
65372W        W37698   5.841  28.911  12.335
65373W        W37699  10.880   8.644   2.261
65374W        W37700   2.734  19.555  14.549
65375W        W37701   8.797  17.323   3.729
65376W        W37702  24.215  15.247   5.373
65377W        W37703  42.759  19.510  13.585
65378W        W37704  29.694  21.510  12.372
65379W        W37705  21.295  15.617  14.516
65380W        W37706  22.878  24.114  13.863
65381W        W37707  13.756  18.622  13.511
65382W        W37708  13.203  17.093   1.679
65383W        W37709  29.553  19.117  13.899
65384W        W37710  35.072   6.804  13.801
65385W        W37711  17.714  18.253  10.537
65386W        W37712   2.971  12.651  13.344
65387W        W37713  15.649   8.252  13.070
65388W        W37714  27.619  28.677   1.286
65389W        W37715  30.166  40.831   1.405
65390W        W37716  33.942  40.538  12.493
65391W        W37717  36.613  14.063  11.010
65392W        W37718   8.327   7.627   2.611
65393W        W37719  26.986  28.474  14.984
65394W        W37720  26.079  30.876   4.303
65395W        W37721  14.107  11.946   4.104
65396W        W37722   1.481  37.297  12.948
65397W        W37723   3.719   0.541   0.550
65398W        W37724  40.632  10.245   4.892
65399W        W37725   8.370  42.279  10.481
65400W        W37726  33.552   8.675  13.620
65401W        W37727  25.746  39.402  13.547
65402W        W37728   6.836   2.194  14.979
65403W        W37729  24.615  13.091   0.489
65404W        W37730  29.594  26.175  11.735
65405W        W37731   4.008  22.500   5.481
65406W        W37732   0.199   2.429  14.811
65407W        W37733  32.613  29.371   4.359
65408W        W37734  12.738  32.311  13.040
65409W        W37735  36.903  25.739  13.347
65410W        W37736  10.144  22.498   1.321
65411W        W37737  27.113  23.746  12.026
65412W        W37738   8.514  34.513  10.715
65413W        W37739  35.115  25.757  12.838
65414W        W37740   7.835  35.362   4.561
65415W        W37741  30.461  44.485  12.342
65416W        W37742  38.462  30.824  11.938
65417W        W37743  10.015  26.002  13.911
65418W        W37744  23.199  43.288  11.624
65419W        W37745   8.756   9.295   4.566
65420W        W37746   5.344   7.588  14.346
65421W        W37747   2.748  34.616   1.911
65422W        W37748  22.708  17.501  12.055
65423W        W37749  12.306  30.362  14.957
65424W        W37750  22.078  17.638   1.626
65425W        W37751  25.117  12.809  14.440
65426W        W37752  30.238  30.542   0.694
65427W        W37753   1.802   5.688  11.388
65428W        W37754   6.909   2.200   1.755
65429W        W37755  41.034  26.148  10.606
65430W        W37756  10.420   7.694  11.996
65431W        W37757  42.456  32.605   4.597
65432W        W37758  39.915  17.583  12.269
65433W        W37759  12.829  11.724  11.268
65434W        W37760   6.924   2.492   2.196
65435W        W37761  34.146  42.387  14.315
65436W        W37762  41.476  12.820   0.764
65437W        W37763  30.313  23.534   3.649
65438W        W37764  13.826   4.376  12.278
65439W        W37765  30.857   1.984   3.289
65440W        W37766  10.415  26.776  14.830
65441W        W37767   5.369  18.719  10.721
65442W        W37768  17.537  28.251  12.915
65443W        W37769  30.869   2.429  14.881
65444W        W37770  21.304  27.087   3.670
65445W        W37771  22.957  23.926  12.479
65446W        W37772  19.620  19.950  11.112
65447W        W37773   8.633  20.586   0.056
65448W        W37774   4.740  41.701  14.441
65449W        W37775   6.281  33.964  11.936
65450W        W37776   3.985  23.581  12.093
65451W        W37777  29.204  35.005   4.994
65452W        W37778  24.112  16.762  12.591
65453W        W37779  23.441  44.827  14.483
65454W        W37780  29.441   2.389   3.665
65455W        W37781  26.816  30.142  11.032
65456W        W37782  15.649  40.654   5.160
65457W        W37783  26.007  13.609   3.190
65458W        W37784  42.267   6.785   4.151
65459W        W37785  33.318   1.579  10.650
65460W        W37786  25.828  27.801   5.397
65461W        W37787  31.172  42.061   4.296
65462W        W37788  42.494  19.664  14.290
65463W        W37789   3.286  25.491   2.831
65464W        W37790   2.286  11.165  13.475
65465W        W37791  17.200   5.201   2.926
65466W        W37792  13.257   8.283   0.536
65467W        W37793  37.097  41.847  10.422
65468W        W37794  27.430  44.501  14.411
65469W        W37795  38.546   6.636   0.278
65470W        W37796   4.143  33.472   0.390
65471W        W37797  24.108  30.970  13.649
65472W        W37798  16.484  31.611  13.808
65473W        W37799  32.886  38.362   1.271
65474W        W37800   2.314  24.742  13.829
65475W        W37801   8.829   2.564  11.460
65476W        W37802  42.505  15.084   1.512
65477W        W37803  17.664   5.386   1.343
65478W        W37804  20.736   1.598   3.836
65479W        W37805  15.699  29.877   2.244
65480W        W37806  41.283  12.182   4.724
65481W        W37807  37.039  30.594  13.383
65482W        W37808  10.437  19.659  13.445
65483W        W37809  41.011  31.964  12.616
65484W        W37810  11.917  44.375  12.182
65485W        W37811  23.747  38.973  13.441
65486W        W37812  29.059  25.990  11.592
65487W        W37813  13.901  43.422  13.386
65488W        W37814  42.529   7.975  11.989
65489W        W37815  43.833  29.636   0.167
65490W        W37816  39.946  33.692   4.763
65491W        W37817  19.836  41.627  10.497
65492W        W37818   2.813  23.925   4.965
65493W        W37819  13.815  27.585  14.052
65494W        W37820  41.983  26.634  13.939
65495W        W37821  37.026   4.480   0.652
65496W        W37822  26.997  11.521  11.469
65497W        W37823  14.620  37.482  10.618
65498W        W37824  28.598  10.316  11.633
65499W        W37825  39.448  39.530  11.028
65500W        W37826  28.742  37.389  13.909
65501W        W37827  36.927  22.350  14.890
65502W        W37828   9.254  38.251   1.232
65503W        W37829  37.413  18.775   2.314
65504W        W37830  26.194  23.145   3.609
65505W        W37831  40.640  16.583   1.622
65506W        W37832   7.902  20.657  11.335
65507W        W37833   5.252  33.959  14.042
65508W        W37834  31.457   2.240   1.843
65509W        W37835  41.009  20.131   3.204
65510W        W37836  13.661  16.805   4.716
65511W        W37837  25.776  24.772  10.200
65512W        W37838  34.153   3.393  14.746
65513W        W37839  35.878  12.328  12.901
65514W        W37840   0.792  15.372  11.695
65515W        W37841  35.441  31.984  10.709
65516W        W37842   8.217  32.688  13.800
65517W        W37843  41.897  29.120  13.941
65518W        W37844  14.232  17.912  13.499
65519W        W37845  14.144  44.550   1.947
65520W        W37846   1.711  31.804   2.372
65521W        W37847  36.087  13.681  12.961
65522W        W37848   0.983   7.173   0.964
65523W        W37849   1.252   9.869  13.852
65524W        W37850  42.045  30.347   1.271
65525W        W37851  42.925  42.008  14.868
65526W        W37852  17.576  39.967  10.614
65527W        W37853   8.294  41.319  11.505
65528W        W37854  35.354  25.448  11.116
65529W        W37855  24.183  25.139   0.205
65530W        W37856  41.043   9.131  12.967
65531W        W37857  35.990   6.188   4.328
65532W        W37858  28.926   9.279  14.768
65533W        W37859  36.485  27.844   1.929
65534W        W37860   2.344  15.858   1.769
65535W        W37861  31.476  36.019   4.799
65536W        W37862  17.936  24.098   3.143
65537W        W37863   0.456  23.749   2.734
65538W        W37864  36.526  24.750   4.192
65539W        W37865  20.175   0.764   0.866
65540W        W37866   5.634  35.467   4.506
65541W        W37867   7.766  11.572  12.028
65542W        W37868   7.161   3.192   3.499
65543W        W37869  24.722  10.924  12.185
65544W        W37870  22.167   6.029  12.807
65545W        W37871  17.496  34.146  12.950
65546W        W37872   7.203  18.115   3.480
65547W        W37873   4.361  18.363   0.007
65548W        W37874  40.056  13.336  11.970
65549W        W37875  36.553  36.949   3.299
65550W        W37876  34.350   1.412   4.185
65551W        W37877  23.087   1.379  11.219
65552W        W37878  33.087  41.283  14.811
65553W        W37879   2.967   0.943  11.437
65554W        W37880  42.749  28.910  12.517
65555W        W37881   8.750  20.705   3.393
65556W        W37882  20.679  29.042  14.181
65557W        W37883  15.911  18.667   0.321
65558W        W37884  39.088  27.690  11.060
65559W        W37885   5.443  31.928  11.995
65560W        W37886  23.963  22.616   1.216
65561W        W37887   6.411   1.936  13.002
65562W        W37888  41.272  36.407   3.136
65563W        W37889   8.759  27.247   2.300
65564W        W37890   4.704  11.533  14.840
65565W        W37891  31.880  31.588  11.902
65566W        W37892   1.839  37.144   0.952
65567W        W37893   5.526  10.180  13.336
65568W        W37894  42.033  34.082   3.270
65569W        W37895  10.345  30.353   3.143
65570W        W37896  40.816  34.839  14.896
65571W        W37897   8.581  42.423  11.050
65572W        W37898  29.575  38.641   0.534
65573W        W37899  37.584  29.472   1.289
65574W        W37900   8.263  26.417   0.409
65575W        W37901  26.566  11.582  11.988
65576W        W37902   6.333  11.359   4.019
65577W        W37903   6.411  12.916  10.618
65578W        W37904  36.261   0.772   1.352
65579W        W37905  13.303  18.718  10.668
65580W        W37906  16.926   8.046  11.909
65581W        W37907   4.757  43.304  13.731
65582W        W37908  24.366   3.187   3.231
65583W        W37909   2.926   1.226   4.599
65584W        W37910   9.637  42.207  11.116
65585W        W37911  30.969  11.646   5.046
65586W        W37912  32.994  18.130   3.233
65587W        W37913  26.681  18.268  10.491
65588W        W37914  35.515  31.712  12.001
65589W        W37915  25.845  18.626  12.824
65590W        W37916  18.595  39.977  10.642
65591W        W37917   0.028  40.001   2.386
65592W        W37918  43.401  11.198   1.929
65593W        W37919   9.113  42.370   2.257
65594W        W37920  42.438  18.443   1.876
65595W        W37921   5.319  28.157  13.811
65596W        W37922   1.752  19.573   2.262
65597W        W37923   2.526   6.633  13.446
65598W        W37924  42.302  20.610  13.315
65599W        W37925  20.330  13.378   0.184
65600W        W37926  14.277  10.295  14.588
65601W        W37927   7.761  27.533   2.711
65602W        W37928  24.498  25.729   2.347
65603W        W37929  11.414  22.982   0.958
65604W        W37930   9.815   9.860   2.132
65605W        W37931  14.029  44.376  13.910
65606W        W37932  23.896   0.844   5.293
65607W        W37933  36.018  11.284   4.623
65608W        W37934  27.978   1.052   3.260
65609W        W37935  35.651   4.513  12.118
65610W        W37936  37.888  29.471   2.183
65611W        W37937  25.740  42.562   1.792
65612W        W37938  14.411   8.272  11.914
65613W        W37939  23.007  42.444  13.987
65614W        W37940  12.225   5.771   4.591
65615W        W37941  43.150  21.078   2.352
65616W        W37942  27.989  28.157  13.981
65617W        W37943   0.163   5.347   2.863
65618W        W37944  17.640  25.790   0.194
65619W        W37945  34.601  19.033  12.571
65620W        W37946  18.481  22.747  10.120
65621W        W37947  22.421  28.474  14.569
65622W        W37948   6.302  20.152   4.514
65623W        W37949  43.738  26.624   0.239
65624W        W37950  36.578  42.536   0.398
65625W        W37951  36.102  38.890  11.963
65626W        W37952  29.917  40.811   0.697
65627W        W37953   8.202   0.878   4.047
65628W        W37954  10.121   4.407   2.376
65629W        W37955  27.226   0.313  13.494
65630W        W37956  32.521  13.558   3.296
65631W        W37957   8.817   6.578  13.292
65632W        W37958   7.080  30.672   3.517
65633W        W37959  10.222  13.133  13.940
65634W        W37960   2.861  12.201   3.757
65635W        W37961  20.305  25.839   3.415
65636W        W37962   6.726  21.052   2.279
65637W        W37963  13.842  22.232  11.894
65638W        W37964  26.997  19.247  10.781
65639W        W37965   2.916  14.322   4.238
65640W        W37966  38.342  42.028  12.007
65641W        W37967  39.052   8.805   3.573
65642W        W37968  21.279  23.589  14.197
65643W        W37969   7.918  24.921  12.164
65644W        W37970  37.621  20.802   0.812
65645W        W37971  15.556   5.911  10.626
65646W        W37972  33.844   1.883   2.189
65647W        W37973   3.784  28.113   2.132
65648W        W37974   1.507  18.045  12.538
65649W        W37975  20.922  16.259   4.768
65650W        W37976  27.968  38.838   2.832
65651W        W37977  27.452  43.545   1.825
65652W        W37978  22.924  32.019  12.971
65653W        W37979   1.164  18.775   0.035
65654W        W37980  25.735  40.237  11.473
65655W        W37981  14.735  35.085   0.643
65656W        W37982  42.518  17.595  14.998
65657W        W37983  17.061  26.752   2.156
65658W        W37984  20.501  23.461   2.233
65659W        W37985   1.431  35.535  12.396
65660W        W37986  21.079  43.933   2.654
65661W        W37987  43.242  14.517  12.113
65662W        W37988   6.871  27.406   4.524
65663W        W37989  21.230  31.087   1.840
65664W        W37990  15.127  29.086  10.473
65665W        W37991  15.325  42.057   2.595
65666W        W37992   2.018  35.930  10.709
65667W        W37993  35.868  44.394   1.361
65668W        W37994  30.287  12.349  10.932
65669W        W37995  36.830  42.074   4.858
65670W        W37996  31.176  41.337   4.183
65671W        W37997  44.741  32.517  10.837
65672W        W37998  25.752  27.083   0.046
65673W        W37999  38.971   1.434   1.417
65674W        W38000  40.083  11.773  12.458
65675W        W38001  26.171  35.508  14.874
65676W        W38002   2.247  25.788  11.020
65677W        W38003  27.023  18.292  12.674
65678W        W38004  20.448  15.730   1.234
65679W        W38005  27.218  33.525   1.165
65680W        W38006   2.902   2.555   3.327
65681W        W38007  16.296  24.084  13.919
65682W        W38008  44.825  42.000  12.938
65683W        W38009  12.766  12.051   4.714
65684W        W38010  11.742  42.858  11.644
65685W        W38011   1.794   5.829  10.824
65686W        W38012   0.251   4.043   5.104
65687W        W38013  19.038   9.925  14.722
65688W        W38014   0.685  10.727  11.410
65689W        W38015   6.435  40.488   1.390
65690W        W38016  41.039   6.615  11.218
65691W        W38017  21.776  22.997  12.972
65692W        W38018  38.486  44.185  14.965
65693W        W38019  32.220  36.516   5.159
65694W        W38020  39.351  34.929  14.548
65695W        W38021  18.543  42.368  14.480
65696W        W38022  36.870   9.869  10.224
65697W        W38023  35.487   5.812  11.652
65698W        W38024  25.489   0.794  13.736
65699W        W38025  19.054  21.707   3.851
65700W        W38026   3.381  41.450  14.258
65701W        W38027  22.983  21.235  12.491
65702W        W38028  23.636  16.083  14.563
65703W        W38029  12.625  12.213   1.655
65704W        W38030   3.747  14.875  10.739
65705W        W38031  26.057  32.366   3.253
65706W        W38032   4.795  24.716   3.222
65707W        W38033  36.556  25.463  11.544
65708W        W38034  13.792  32.530   3.372
65709W        W38035  36.271  10.785   0.750
65710W        W38036  25.101   4.468  12.006
65711W        W38037   7.189   0.444   3.632
65712W        W38038  44.389  12.621   1.493
65713W        W38039  40.953  30.523   4.275
65714W        W38040  29.175   4.235  10.536
65715W        W38041  36.919  17.571  14.680
65716W        W38042   0.873  18.677  12.912
65717W        W38043   4.653  43.805   3.694
65718W        W38044  33.837   4.144  10.387
65719W        W38045  36.662  25.482   0.757
65720W        W38046   1.095  11.789  10.231
65721W        W38047   2.266  16.839   0.486
65722W        W38048  22.072  39.040  10.711
65723W        W38049  44.397   9.325   2.884
65724W        W38050   2.720  35.142  14.404
65725W        W38051  15.588  33.052  10.954
65726W        W38052  10.640  35.528   4.220
65727W        W38053   1.269  12.073   0.346
65728W        W38054  17.439  31.581   4.258
65729W        W38055  23.680  42.904   1.390
65730W        W38056  33.890  15.279  12.799
65731W        W38057  38.732  18.253  13.086
65732W        W38058  15.354   3.748   2.633
65733W        W38059  31.066  41.466  11.089
65734W        W38060  20.516  29.502  14.025
65735W        W38061  13.277  40.523  10.661
65736W        W38062  24.762  44.306  10.839
65737W        W38063  28.476  32.110  13.458
65738W        W38064  18.323  29.725   3.792
65739W        W38065   1.758  42.855   2.030
65740W        W38066  37.583  27.148  13.005
65741W        W38067  16.465  43.857   1.703
65742W        W38068  10.362  24.695   4.547
65743W        W38069  33.879  44.924   4.095
65744W        W38070   4.295   9.707   2.431
65745W        W38071  33.505   2.350   3.780
65746W        W38072  11.406  18.256  10.667
65747W        W38073  21.260   5.680   0.019
65748W        W38074  31.346  34.321   3.691
65749W        W38075   5.645   9.115   1.856
65750W        W38076  24.299  15.855   0.436
65751W        W38077  23.543  21.778   3.378
65752W        W38078  42.030   2.277  11.076
65753W        W38079  13.719  39.505  11.001
65754W        W38080  27.138   3.578  14.082
65755W        W38081  24.685  19.203   1.557
65756W        W38082  25.796  14.725   1.962
65757W        W38083   6.040  17.556  11.184
65758W        W38084  44.490  25.576  14.400
65759W        W38085  36.174  23.111  12.962
65760W        W38086   9.461  21.223   1.399
65761W        W38087  13.828  21.095  12.480
65762W        W38088  44.991  19.185  11.440
65763W        W38089  11.793  15.533  14.799
65764W        W38090  10.796  36.229  10.679
65765W        W38091  33.129  38.386  10.725
65766W        W38092   6.878   3.505  14.006
65767W        W38093  29.464  26.808   5.003
65768W        W38094  13.508  31.039  10.469
65769W        W38095  19.101   2.248  12.062
65770W        W38096   7.387  44.953   1.522
65771W        W38097  42.294  35.075  13.807
65772W        W38098  43.496  11.079   4.083
65773W        W38099   0.689   2.871  10.565
65774W        W38100  38.280  40.975  11.626
65775W        W38101  38.526  26.730   3.283
65776W        W38102   6.872  23.421  12.468
65777W        W38103   5.298   9.646  11.536
65778W        W38104   2.287  43.233  14.951
65779W        W38105  12.874  32.158  14.254
65780W        W38106  28.141   5.347  13.368
65781W        W38107   2.323  34.029  12.325
65782W        W38108  32.665  16.868  12.059
65783W        W38109  43.500  22.462  14.021
65784W        W38110  33.850  23.068  14.968
65785W        W38111  30.555  26.627  11.480
65786W        W38112   2.724  11.139  12.535
65787W        W38113  33.960  28.135   0.297
65788W        W38114  19.551  43.386  14.826
65789W        W38115   3.031  28.703  12.193
65790W        W38116  41.455  39.437  11.959
65791W        W38117  24.897  44.805  10.935
65792W        W38118  38.361  16.382  14.405
65793W        W38119  10.737  31.477   4.702
65794W        W38120  32.084  10.269  13.635
65795W        W38121   2.327  26.324  13.716
65796W        W38122  16.261  25.099  11.842
65797W        W38123  12.727  44.480   3.353
65798W        W38124  12.797  34.360  11.981
65799W        W38125  34.096  42.968   1.466
65800W        W38126  11.778   8.702   0.418
65801W        W38127   7.203  33.052   2.652
65802W        W38128   7.460  38.485  11.917
65803W        W38129  24.294  23.114   1.188
65804W        W38130  15.874   6.086  11.492
65805W        W38131  37.976  41.356  14.271
65806W        W38132  11.701  24.111   4.283
65807W        W38133  32.358  37.596  10.642
65808W        W38134  42.312  27.394   1.402
65809W        W38135  24.284  28.423  13.803
65810W        W38136   3.351  33.603   4.538
65811W        W38137  31.856  11.352   2.712
65812W        W38138  19.743  43.871  11.169
65813W        W38139  13.624  10.072  11.658
65814W        W38140   5.523  21.806   2.706
65815W        W38141  38.373  43.089  14.017
65816W        W38142   2.790  23.176   2.485
65817W        W38143  21.492  29.424  14.790
65818W        W38144   3.775  29.771  10.653
65819W        W38145  43.827  42.563  11.553
65820W        W38146  21.992  14.636  10.562
65821W        W38147  26.406  19.976   1.319
65822W        W38148  16.588  12.557  10.622
65823W        W38149  24.732  44.054  11.278
65824W        W38150  30.057  18.310  13.455
65825W        W38151  10.670  28.634   3.713
65826W        W38152  41.236  20.036   1.849
65827W        W38153   1.551  36.370   2.850
65828W        W38154  14.810  36.174   1.768
65829W        W38155  39.509   3.446   3.917
65830W        W38156   3.330  10.836  13.863
65831W        W38157  18.621  25.532  14.869
65832W        W38158  21.900  21.759  14.655
65833W        W38159  24.130  28.991  12.511
65834W        W38160   2.149   6.107   4.966
65835W        W38161   4.823   2.295   4.195
65836W        W38162   3.657  43.774  12.912
65837W        W38163  42.985  13.893  11.550
65838W        W38164  11.283  37.154   4.930
65839W        W38165  11.367  25.065  12.806
65840W        W38166  34.954  37.621  11.105
65841W        W38167  13.349  30.737   2.289
65842W        W38168  12.846  12.918  12.063
65843W        W38169   5.676  34.110  13.788
65844W        W38170  22.986  19.730   4.163
65845W        W38171  29.949  19.158   4.225
65846W        W38172  35.492   8.028  11.209
65847W        W38173  40.254  21.176   2.258
65848W        W38174  40.946  11.066  12.979
65849W        W38175  22.506  31.665  14.356
65850W        W38176  17.051  14.124   1.139
65851W        W38177  44.303  17.808  12.107
65852W        W38178  40.783  43.013  10.549
65853W        W38179  37.916  15.479  10.305
65854W        W38180   8.430   7.629   0.162
65855W        W38181  34.575  23.225   4.806
65856W        W38182  29.601  30.392  11.014
65857W        W38183  19.550  33.753   4.492
65858W        W38184  31.209  44.949  13.396
65859W        W38185  37.365   3.386   5.015
65860W        W38186  26.972  24.123   1.915
65861W        W38187  10.312   9.472   0.798
65862W        W38188  32.165  33.371   0.427
65863W        W38189  26.124  15.695   3.382
65864W        W38190  37.975  41.795  14.595
65865W        W38191  36.071   7.915   2.733
65866W        W38192   3.440  32.555   4.328
65867W        W38193   4.346   4.463   2.766
65868W        W38194  22.636  41.735  10.781
65869W        W38195   4.528  42.722   4.248
65870W        W38196  44.803   1.862   3.844
65871W        W38197  16.167  26.468   0.044
65872W        W38198  32.933  39.200   0.400
65873W        W38199  42.318  32.681  11.626
65874W        W38200  28.145  13.218   1.514
65875W        W38201  23.717  32.121  14.324
65876W        W38202  36.972  38.893  14.092
65877W        W38203  39.670   4.995  14.350
65878W        W38204   6.175  19.756  13.378
65879W        W38205  20.520   9.309  13.057
65880W        W38206  14.591  21.953   1.759
65881W        W38207  42.853  39.582  11.997
65882W        W38208  34.924  22.094  11.440
65883W        W38209  35.699  17.249   0.228
65884W        W38210  43.998  16.368   4.403
65885W        W38211  43.038  12.448   4.090
65886W        W38212  28.257   1.469   0.461
65887W        W38213  11.578  24.530  10.203
65888W        W38214  15.285   4.187  12.960
65889W        W38215  27.197   0.046   1.170
65890W        W38216  21.083  28.109   2.593
65891W        W38217  26.072  19.044  12.584
65892W        W38218  24.350  16.123  10.603
65893W        W38219  43.558   8.049  11.047
65894W        W38220  29.293  10.686  12.005
65895W        W38221  13.187  40.976   4.441
65896W        W38222  37.954  12.811  13.294
65897W        W38223  15.231  12.079   1.873
65898W        W38224  13.336  31.860   0.817
65899W        W38225   9.060  41.414  10.307
65900W        W38226  23.401   6.821  12.067
65901W        W38227  16.166   6.334  14.317
65902W        W38228   6.760  40.500  13.415
65903W        W38229   7.693  18.727  13.831
65904W        W38230  32.308  22.467   0.213
65905W        W38231  37.079  36.740  10.844
65906W        W38232  21.699  32.666   0.425
65907W        W38233  36.166  38.159   3.310
65908W        W38234  42.821  30.148  10.712
65909W        W38235  33.077  35.112   1.044
65910W        W38236  35.613  25.124  11.406
65911W        W38237   4.261  14.786   3.670
65912W        W38238  43.433  18.207  14.037
65913W        W38239  39.390  18.254  12.479
65914W        W38240   4.954   3.049   2.564
65915W        W38241  12.141   3.765  12.474
65916W        W38242   1.580  38.364   0.785
65917W        W38243  19.721   9.465  14.019
65918W        W38244  25.204  12.831   4.626
65919W        W38245   2.060  21.989  10.891
65920W        W38246  36.309  40.915   4.292
65921W        W38247  18.666  20.535   2.414
65922W        W38248  27.050  34.611  12.356
65923W        W38249  31.570  29.675   3.645
65924W        W38250   5.725  22.762   1.108
65925W        W38251  28.823  16.342   2.728
65926W        W38252  14.736  12.139  12.138
65927W        W38253  12.488  10.131  14.327
65928W        W38254   7.380   9.874  11.909
65929W        W38255  41.936  34.172   0.269
65930W        W38256  25.566  20.622  11.998
65931W        W38257  21.272  30.296   3.602
65932W        W38258  14.099  14.073  13.572
65933W        W38259   4.332   7.776  13.334
65934W        W38260  38.505  30.932   1.054
65935W        W38261  17.703  12.136  12.167
65936W        W38262  31.016  16.351   1.443
65937W        W38263   6.460  40.965   3.806
65938W        W38264  41.226   7.689  13.923
65939W        W38265  32.345  41.500   1.318
65940W        W38266  39.855  25.933  12.517
65941W        W38267  29.330   3.814  11.495
65942W        W38268  44.396  18.095  14.827
65943W        W38269  41.416  31.018   2.819
65944W        W38270   5.247   2.794  12.078
65945W        W38271  20.673  16.280   4.055
65946W        W38272   5.763  29.942  11.472
65947W        W38273   4.686  28.007   2.048
65948W        W38274  38.534  36.780   4.668
65949W        W38275  34.474  29.745   3.186
65950W        W38276   1.298  16.085  11.476
65951W        W38277  20.209  35.487   3.293
65952W        W38278  40.948  23.947   1.657
65953W        W38279  17.037  38.352   4.936
65954W        W38280  20.640  25.026   4.742
65955W        W38281  17.526  28.131  10.709
65956W        W38282  40.032  39.307  14.817
65957W        W38283  26.016   0.820   3.190
65958W        W38284  20.123   0.252  13.823
65959W        W38285  16.815  11.764  14.714
65960W        W38286  13.053  29.679   0.442
65961W        W38287   7.983  31.042   2.219
65962W        W38288  14.829  44.595  14.912
65963W        W38289   5.289  13.119  14.384
65964W        W38290  42.182  29.560  14.865
65965W        W38291  19.134   3.136   4.575
65966W        W38292  31.981  29.504  14.531
65967W        W38293   3.690  25.715  13.429
65968W        W38294  23.700  36.063   4.799
65969W        W38295  22.742   4.332   3.288
65970W        W38296  26.702  12.933  11.542
65971W        W38297   9.750  13.565  12.633
65972W        W38298  22.521  37.437  12.863
65973W        W38299  38.015   5.391   0.181
65974W        W38300  27.609   1.001  11.619
65975W        W38301  38.554   7.746   4.094
65976W        W38302  23.229  15.770   5.437
65977W        W38303   3.318  26.142   0.299
65978W        W38304  40.898  18.755  14.021
65979W        W38305  44.159  25.456  14.024
65980W        W38306  12.873  12.485   3.209
65981W        W38307  11.683  23.838   0.905
65982W        W38308   2.759   8.181   0.497
65983W        W38309  32.135  34.563  11.679
65984W        W38310   5.723  31.572   0.319
65985W        W38311  19.165  36.398   0.556
65986W        W38312  23.739   5.566   4.142
65987W        W38313  30.895  15.833   1.360
65988W        W38314  26.614   8.195  11.678
65989W        W38315   3.477  29.879  14.409
65990W        W38316  21.993  22.583   4.380
65991W        W38317  26.181  16.592   4.272
65992W        W38318   3.695  44.869   0.782
65993W        W38319  24.524  34.758  13.039
65994W        W38320  32.581  22.989   2.006
65995W        W38321  11.805  13.834  12.480
65996W        W38322  40.000  15.561   4.150
65997W        W38323  29.914  20.516  14.910
65998W        W38324  34.011   7.097   2.266
65999W        W38325   7.836  37.291   0.119
66000W        W38326  31.918  27.772   2.337
66001W        W38327  12.800  16.816   1.825
66002W        W38328  21.163  23.959  10.983
66003W        W38329  35.085  12.176   3.733
66004W        W38330  42.779  40.802   1.657
66005W        W38331  44.758  41.135  13.879
66006W        W38332  18.175  27.142   0.365
66007W        W38333  19.027  10.421  14.496
66008W        W38334  14.385  40.005   1.488
66009W        W38335  36.610  13.817  14.325
66010W        W38336  38.297  12.118  11.745
66011W        W38337  43.864  11.759  14.412
66012W        W38338  25.083  27.744   2.724
66013W        W38339   6.814  21.504  14.462
66014W        W38340   6.746   3.496   0.468
66015W        W38341  41.199  10.294  12.368
66016W        W38342  40.260  28.413  10.288
66017W        W38343  29.954  39.125   4.031
66018W        W38344  30.585  11.814   2.157
66019W        W38345  13.207  10.178   1.811
66020W        W38346  26.138  23.955   4.196
66021W        W38347   8.255  21.546  13.403
66022W        W38348  13.296  40.034  13.724
66023W        W38349  11.121   7.799  11.710
66024W        W38350  26.027  32.558   2.119
66025W        W38351  43.934  38.928  13.012
66026W        W38352  15.071   0.331   0.835
66027W        W38353  32.896  27.032   3.725
66028W        W38354  20.877  38.503   9.793
66029W        W38355  17.020  26.372   5.083
66030W        W38356  10.165  34.596   1.481
66031W        W38357  32.510  17.075   0.593
66032W        W38358  13.472  39.325   0.350
66033W        W38359  17.128  23.301   1.170
66034W        W38360  27.057  18.641   2.661
66035W        W38361  28.607  17.713  11.114
66036W        W38362  28.390  39.869  14.369
66037W        W38363  38.032   2.873   3.862
66038W        W38364  37.496   6.174  14.484
66039W        W38365  20.103   2.219   3.143
66040W        W38366   4.171  41.513   2.992
66041W        W38367  23.600  10.268   4.199
66042W        W38368  34.162  37.539  13.297
66043W        W38369   4.499   3.248   1.150
66044W        W38370  42.915   3.008   0.364
66045W        W38371  34.448  36.310   5.579
66046W        W38372   4.982  41.500   3.329
66047W        W38373  11.669  22.060   3.488
66048W        W38374   1.742  19.334  14.895
66049W        W38375   2.925  43.547  14.358
66050W        W38376  37.760   1.337  12.494
66051W        W38377  19.213  15.786  11.564
66052W        W38378  31.049  25.046   2.334
66053W        W38379  31.520  21.570   4.080
66054W        W38380  31.460  39.010   4.603
66055W        W38381  30.616  16.135   0.304
66056W        W38382  32.801  12.500  13.929
66057W        W38383  42.231  23.239   3.659
66058W        W38384  18.234  14.175   1.480
66059W        W38385  17.588  26.668  14.114
66060W        W38386   2.893   4.885   0.337
66061W        W38387   3.209  17.283  13.394
66062W        W38388   1.725  28.208   4.122
66063W        W38389  10.666  11.698   0.826
66064W        W38390  40.942  37.447  10.901
66065W        W38391  36.047  11.952   5.560
66066W        W38392   4.408  12.313  12.122
66067W        W38393  38.878  20.385   4.673
66068W        W38394  42.217  25.305  13.510
66069W        W38395  27.396  30.231  10.197
66070W        W38396  30.026  14.833   4.596
66071W        W38397   5.162  26.558   4.021
66072W        W38398  32.520  33.622  13.916
66073W        W38399  32.439   7.320  13.848
66074W        W38400   1.361  28.355  10.678
66075W        W38401  41.052  24.152  13.607
66076W        W38402   4.804  15.953  12.829
66077W        W38403   8.686  20.626  12.148
66078W        W38404  36.867  39.671  14.627
66079W        W38405  42.280   2.314   0.913
66080W        W38406   8.554  33.391  12.036
66081W        W38407  20.549  29.644   0.025
66082W        W38408  29.199  18.253   4.237
66083W        W38409  22.951  31.422   4.648
66084W        W38410  33.659  37.901  11.855
66085W        W38411  35.516  18.077   3.157
66086W        W38412  36.443  33.542   2.843
66087W        W38413   7.822  21.049   3.228
66088W        W38414  19.881  10.609   4.138
66089W        W38415  24.358   1.711  12.880
66090W        W38416  20.035  39.140   0.105
66091W        W38417  30.678  34.210  11.423
66092W        W38418  24.242  40.121  12.395
66093W        W38419  26.016  18.000   3.878
66094W        W38420  31.190  13.183  12.835
66095W        W38421  10.637   0.432  14.354
66096W        W38422  18.077   3.019   0.325
66097W        W38423  14.942  12.221   1.285
66098W        W38424  11.398  15.013   0.845
66099W        W38425  14.888   9.327   1.956
66100W        W38426  36.035  19.989   2.225
66101W        W38427   9.456  33.636  11.998
66102W        W38428  19.520  41.683  13.835
66103W        W38429  22.665   4.606   1.211
66104W        W38430  30.871  33.034  10.918
66105W        W38431  33.695  24.217   0.645
66106W        W38432  39.914  32.494  12.201
66107W        W38433  15.430  14.577  11.711
66108W        W38434   0.863  41.584  13.339
66109W        W38435  30.996  31.341  14.954
66110W        W38436  27.994  34.112   1.843
66111W        W38437  38.974  30.651  13.501
66112W        W38438  42.100  22.761   1.461
66113W        W38439  12.747  38.190  10.812
66114W        W38440  27.419  35.460   4.577
66115W        W38441  28.291  30.722   3.258
66116W        W38442  34.193  36.642   9.741
66117W        W38443  11.074  40.637  14.825
66118W        W38444   6.146  27.481   1.730
66119W        W38445  42.094  34.186   1.326
66120W        W38446  11.079  41.193  13.530
66121W        W38447  28.523  31.176  13.330
66122W        W38448  22.667   6.849   1.303
66123W        W38449  27.724  12.260   3.447
66124W        W38450  36.614  13.831  13.814
66125W        W38451  16.709  13.714   3.201
66126W        W38452   4.830  17.787   0.613
66127W        W38453  19.725  12.654  13.889
66128W        W38454  24.156  24.448  14.022
66129W        W38455  30.014  40.325   2.795
66130W        W38456  39.785  28.685  10.737
66131W        W38457  29.137   5.863  13.597
66132W        W38458   8.707   6.173   4.534
66133W        W38459  23.103  24.639  13.885
66134W        W38460   5.875  43.050  12.553
66135W        W38461   1.361  12.188  13.110
66136W        W38462  23.095  23.753   3.614
66137W        W38463  18.968  21.533  12.461
66138W        W38464  41.489  12.255   3.830
66139W        W38465  34.577  37.754   4.172
66140W        W38466  32.973  41.098   0.270
66141W        W38467   7.394  21.339  11.227
66142W        W38468  28.984  35.958  10.383
66143W        W38469   6.301   8.133   0.231
66144W        W38470  19.283  16.001   3.607
66145W        W38471   5.618  28.469   2.279
66146W        W38472   4.931  23.061   0.984
66147W        W38473  18.151  25.713   2.825
66148W        W38474  33.464   4.923   1.731
66149W        W38475  30.355  20.021   1.672
66150W        W38476  24.653  18.398   4.075
66151W        W38477  33.485  35.029   3.152
66152W        W38478  10.414  20.496   2.809
66153W        W38479  25.736   1.812   1.067
66154W        W38480  12.223  27.103   0.534
66155W        W38481  12.281  12.235  14.113
66156W        W38482   5.306  16.781  12.350
66157W        W38483  19.188   1.599  11.397
66158W        W38484  44.271  40.951  14.549
66159W        W38485   3.765  34.070   3.413
66160W        W38486  19.825  28.988   1.264
66161W        W38487  39.082  36.035  14.445
66162W        W38488  41.477   4.877   0.191
66163W        W38489   3.134  24.350  11.247
66164W        W38490  41.096  21.304   2.036
66165W        W38491  10.265  33.301   1.816
66166W        W38492  11.069  26.153  14.966
66167W        W38493   2.369   5.329   2.714
66168W        W38494  10.571  17.127  10.145
66169W        W38495  43.114   1.213  11.515
66170W        W38496  21.752  15.270   4.624
66171W        W38497  30.500   6.720   4.562
66172W        W38498  31.880  40.416  11.896
66173W        W38499   7.729  22.477   3.678
66174W        W38500  16.012  18.507  10.731
66175W        W38501  20.016  18.111   1.950
66176W        W38502  35.876   2.102  10.909
66177W        W38503   5.202  17.396  14.890
66178W        W38504  42.852  42.037   4.139
66179W        W38505   7.464  36.500   1.172
66180W        W38506  37.198  31.515  10.357
66181W        W38507  34.488  11.221   4.331
66182W        W38508   0.046  16.545   3.441
66183W        W38509  39.093  15.229  10.682
66184W        W38510   0.319  39.597   4.536
66185W        W38511   6.461  42.059   2.675
66186W        W38512  25.770  30.649   3.002
66187W        W38513  27.476   0.026   2.745
66188W        W38514  15.630  44.807   4.188
66189W        W38515  25.480  18.106   3.774
66190W        W38516   6.264  11.403  12.481
66191W        W38517  35.832  41.918  12.005
66192W        W38518  29.905  13.300  11.545
66193W        W38519  14.277  34.282   1.933
66194W        W38520   8.766   5.157   2.284
66195W        W38521   2.683  25.090  11.409
66196W        W38522  36.029  31.092  11.858
66197W        W38523  29.374   3.490   3.257
66198W        W38524  13.077  27.914   1.174
66199W        W38525  32.835  40.386  11.976
66200W        W38526  37.394  36.096  13.474
66201W        W38527  14.714  43.774  12.033
66202W        W38528  36.421  14.740   1.744
66203W        W38529  26.074  28.859  14.787
66204W        W38530   2.266  10.671   3.966
66205W        W38531   0.612  10.757  10.016
66206W        W38532   8.259   2.419   2.181
66207W        W38533  37.449   6.911  14.873
66208W        W38534  17.106  25.236   2.299
66209W        W38535  10.941  21.638   0.762
66210W        W38536  35.502  33.547   1.044
66211W        W38537  19.029  42.931   1.911
66212W        W38538  15.692  25.763  11.521
66213W        W38539   4.892  11.881   1.268
66214W        W38540  28.175   2.966  11.622
66215W        W38541  24.783  27.525  14.728
66216W        W38542   7.302  18.857   1.345
66217W        W38543  31.430  42.283  11.536
66218W        W38544  30.934  23.698   2.360
66219W        W38545  37.597  35.365  11.591
66220W        W38546  23.162   5.948   1.362
66221W        W38547  27.982  17.647  14.867
66222W        W38548  32.164  29.048   1.313
66223W        W38549  42.380   2.921  13.555
66224W        W38550  30.567  26.157  13.296
66225W        W38551  16.785  41.096   1.710
66226W        W38552  23.708   0.873   3.793
66227W        W38553   2.969   7.261   4.559
66228W        W38554  15.834  43.749   2.834
66229W        W38555  17.123  22.346  14.884
66230W        W38556  44.587  42.302  11.031
66231W        W38557  14.299  43.038   1.673
66232W        W38558  15.418   4.382   2.731
66233W        W38559  24.291  15.779   3.678
66234W        W38560  20.287  23.737   4.508
66235W        W38561   6.585  43.878  14.519
66236W        W38562   8.299  19.665  14.201
66237W        W38563  33.617   1.968  11.564
66238W        W38564  31.812  12.893  12.243
66239W        W38565  17.303  23.061  13.313
66240W        W38566  26.404  31.544  14.960
66241W        W38567  11.221  22.686   2.894
66242W        W38568  13.259  28.179   5.041
66243W        W38569  17.800  20.088   2.703
66244W        W38570  40.896  34.075  13.547
66245W        W38571  31.557  21.492  14.564
66246W        W38572  40.523  39.435  10.945
66247W        W38573  36.777  20.286   1.143
66248W        W38574  42.844  19.659  12.637
66249W        W38575  31.558   2.770   4.696
66250W        W38576  37.602  20.980   4.238
66251W        W38577  41.031  41.868   3.595
66252W        W38578  12.074  40.919  13.421
66253W        W38579  18.283  31.876   0.870
66254W        W38580  14.048   5.726   1.409
66255W        W38581   5.254  32.654   2.212
66256W        W38582  11.410  12.944  13.402
66257W        W38583  35.573  17.675  12.182
66258W        W38584  26.212  31.188  11.621
66259W        W38585   9.284  23.921   0.407
66260W        W38586  32.118  24.266   3.804
66261W        W38587  20.737  42.625  12.039
66262W        W38588   5.410  34.371   4.246
66263W        W38589  43.570   5.283  14.812
66264W        W38590  31.371  28.246   4.060
66265W        W38591  37.007  31.014   1.008
66266W        W38592  23.228  44.447  12.842
66267W        W38593  28.884   4.039   2.403
66268W        W38594  14.279  24.532  14.722
66269W        W38595   2.875   0.742   4.837
66270W        W38596  33.894  16.828   2.237
66271W        W38597  17.163  37.532   2.245
66272W        W38598   2.281  23.092  12.606
66273W        W38599  40.371  42.905   5.030
66274W        W38600   6.504  23.483   4.562
66275W        W38601  37.788  13.669   1.948
66276W        W38602  12.836   8.746   4.577
66277W        W38603  16.534   0.289  11.115
66278W        W38604  34.901  14.027  11.858
66279W        W38605  19.312  32.103   3.721
66280W        W38606   0.800  12.220  10.355
66281W        W38607  12.762  17.692  12.126
66282W        W38608  41.778   6.325  14.052
66283W        W38609   8.308  34.596  14.065
66284W        W38610  17.073  28.804   0.411
66285W        W38611   9.706  29.167  12.579
66286W        W38612   7.134  23.208  14.206
66287W        W38613  23.199  21.025  12.076
66288W        W38614  17.993  19.706  13.419
66289W        W38615  19.108  27.154  11.712
66290W        W38616  29.184  32.968   0.485
66291W        W38617   4.450  27.427   0.964
66292W        W38618  42.051  22.747   0.010
66293W        W38619  23.584  42.785  11.061
66294W        W38620  31.692  17.661  14.464
66295W        W38621  12.010  19.993  13.035
66296W        W38622  26.353  37.151   4.171
66297W        W38623  42.028  41.776  10.778
66298W        W38624   7.057   7.940  10.755
66299W        W38625  27.040  35.506  12.593
66300W        W38626  43.449  22.334  12.118
66301W        W38627  17.026  12.678  12.812
66302W        W38628  35.889  40.581   2.188
66303W        W38629  21.675  12.256  14.243
66304W        W38630  24.186  31.922   2.260
66305W        W38631  24.586  18.015   2.608
66306W        W38632  31.550  17.648  12.218
66307W        W38633   8.728  18.798  10.406
66308W        W38634   6.257   2.768  11.155
66309W        W38635  36.541  43.947   0.800
66310W        W38636  12.862  26.935   2.266
66311W        W38637  41.901  18.909  11.175
66312W        W38638   1.191  40.064   1.721
66313W        W38639   4.261  25.539   1.382
66314W        W38640  36.143  10.626  13.077
66315W        W38641  17.247  41.200  14.728
66316W        W38642  36.582  37.095  12.456
66317W        W38643  28.383  13.102   4.554
66318W        W38644  33.886  25.317   5.044
66319W        W38645   8.210  43.288  10.548
66320W        W38646  20.674   9.756  12.552
66321W        W38647  22.290  39.961   2.680
66322W        W38648  25.050  29.396   0.884
66323W        W38649  44.667  27.249  10.191
66324W        W38650  20.583  33.075  10.568
66325W        W38651  19.082  27.974  12.977
66326W        W38652   9.737  25.998  14.857
66327W        W38653  25.664  31.504   1.360
66328W        W38654  33.787  34.954   3.657
66329W        W38655  37.920  18.386   1.763
66330W        W38656   2.853  21.955   4.641
66331W        W38657  41.791  22.236  11.019
66332W        W38658  33.456  37.490  12.834
66333W        W38659   4.298   2.722  12.932
66334W        W38660  12.102  42.787   4.549
66335W        W38661  15.204  34.444  12.417
66336W        W38662  16.314  31.968   1.543
66337W        W38663  16.648  32.225   3.089
66338W        W38664  12.780  38.099  11.599
66339W        W38665  43.466   7.545  11.031
66340W        W38666  16.781   4.699  14.477
66341W        W38667  13.753   3.313  13.772
66342W        W38668  37.110  29.677   1.271
66343W        W38669  39.135  11.941  10.441
66344W        W38670  32.507  32.173   3.857
66345W        W38671  34.080  32.491   0.203
66346W        W38672  23.613  35.550   4.685
66347W        W38673   5.144  32.140   0.769
66348W        W38674  29.147  14.530  13.380
66349W        W38675   5.870  20.528   0.425
66350W        W38676  41.466  21.465   4.814
66351W        W38677  16.589   9.313   2.608
66352W        W38678  25.674  15.173   1.733
66353W        W38679  18.611  43.846   1.882
66354W        W38680  13.126  38.960  12.605
66355W        W38681  17.625  32.099  14.935
66356W        W38682  16.747  41.109  11.604
66357W        W38683  12.698  42.499  10.612
66358W        W38684  27.857  36.611   4.125
66359W        W38685  30.214   3.396   4.562
66360W        W38686   5.647  33.723   1.642
66361W        W38687  44.266  15.316  14.805
66362W        W38688  32.113  26.424  10.334
66363W        W38689   6.420  44.912   2.712
66364W        W38690  42.185   6.173   5.110
66365W        W38691  21.704  41.633   1.393
66366W        W38692  15.576   3.397  11.799
66367W        W38693   1.997  30.835  11.431
66368W        W38694  10.368  33.274  10.653
66369W        W38695  30.959  28.461   0.600
66370W        W38696  32.988  29.989  13.637
66371W        W38697  34.549  21.917  14.939
66372W        W38698  44.020   9.450  13.343
66373W        W38699   4.754  24.321  13.407
66374W        W38700  31.454  25.725  14.749
66375W        W38701  35.559  15.645   1.414
66376W        W38702  32.500   8.174   3.366
66377W        W38703   6.474   6.855  14.841
66378W        W38704  19.894  11.945   4.236
66379W        W38705  38.886  25.255   4.701
66380W        W38706  19.684   1.792  13.619
66381W        W38707  15.720  11.161  12.793
66382W        W38708   8.603  24.540  11.960
66383W        W38709   2.909  25.090  11.872
66384W        W38710  23.381  35.119   2.239
66385W        W38711   6.820  14.856   3.096
66386W        W38712  12.723  21.310   3.329
66387W        W38713  23.796   7.327   0.912
66388W        W38714  36.097  34.900  14.068
66389W        W38715  40.841  26.980  13.518
66390W        W38716  33.055  43.297  13.077
66391W        W38717  38.570  19.982   3.793
66392W        W38718  29.024  40.891   2.589
66393W        W38719  16.495   6.852  14.845
66394W        W38720  42.800   3.857   2.827
66395W        W38721  22.286  13.823   4.563
66396W        W38722  28.484  16.193   1.273
66397W        W38723  15.138  13.351   2.292
66398W        W38724  10.764   0.402   0.349
66399W        W38725   5.691  41.124  12.630
66400W        W38726  19.033  16.637  11.090
66401W        W38727  22.390  15.321  14.825
66402W        W38728  15.350   4.271  14.400
66403W        W38729  43.381  32.971  11.700
66404W        W38730  26.285  11.103   2.369
66405W        W38731  28.715  11.199  11.515
66406W        W38732  20.853  44.013  12.309
66407W        W38733  30.898  26.555   4.119
66408W        W38734  36.118   6.190  10.663
66409W        W38735  25.819  27.693   4.705
66410W        W38736  31.364  10.173  12.474
66411W        W38737  10.301  27.131   2.413
66412W        W38738  17.033  37.360  14.276
66413W        W38739  11.547  16.317  13.120
66414W        W38740  22.140  30.879  10.794
66415W        W38741  38.308  16.774   1.932
66416W        W38742  35.035  27.582   3.264
66417W        W38743  31.037   7.808  12.042
66418W        W38744  36.540  39.797   3.998
66419W        W38745  27.092  14.019  14.732
66420W        W38746  36.106  22.455  12.050
66421W        W38747  29.431  29.090  10.529
66422W        W38748  38.539   2.201   0.415
66423W        W38749  36.329  11.450  11.575
66424W        W38750  33.069   5.178   4.782
66425W        W38751  24.042  43.262  11.697
66426W        W38752  36.558  22.490   0.247
66427W        W38753  13.078  33.465  11.072
66428W        W38754   5.965  28.614   3.978
66429W        W38755  10.413  34.682   3.652
66430W        W38756  25.217  15.543  12.581
66431W        W38757  27.477  24.586   0.321
66432W        W38758  17.169  29.764   0.274
66433W        W38759  26.626  14.276  12.503
66434W        W38760  41.244  34.412  11.104
66435W        W38761  18.704  20.029  12.978
66436W        W38762  21.428  42.895  13.347
66437W        W38763  14.126  15.665  11.371
66438W        W38764  21.184   2.444  10.704
66439W        W38765  21.513  15.999  10.042
66440W        W38766  20.610  15.114  13.945
66441W        W38767  33.348  38.941   2.821
66442W        W38768  12.893  15.022  11.633
66443W        W38769  12.747  30.127   2.627
66444W        W38770   7.354  21.263  12.019
66445W        W38771  36.188  29.440  10.777
66446W        W38772  10.716  26.276   5.378
66447W        W38773  14.372   7.890  14.328
66448W        W38774   2.435  42.581   4.279
66449W        W38775  15.603  39.185   4.280
66450W        W38776   0.739  29.121   4.295
66451W        W38777  28.687  37.348   4.191
66452W        W38778   0.024  36.180  13.320
66453W        W38779  24.735  19.692  10.569
66454W        W38780  17.586  37.361   3.456
66455W        W38781  18.692  40.269   0.258
66456W        W38782  10.771   3.008   4.062
66457W        W38783  26.044  11.298  14.449
66458W        W38784  37.838  18.999  12.890
66459W        W38785  25.032  31.949  10.668
66460W        W38786  13.985  14.235   0.064
66461W        W38787  13.092  41.048   4.942
66462W        W38788  13.259   4.461  14.840
66463W        W38789  36.329  41.218  10.251
66464W        W38790  33.079  16.122  14.355
66465W        W38791   8.851  20.617   1.371
66466W        W38792   2.968  38.553   1.204
66467W        W38793  28.432  19.245   0.998
66468W        W38794  32.622  26.710   1.804
66469W        W38795  31.021  25.139  11.459
66470W        W38796  11.301  12.188  12.035
66471W        W38797   9.921  25.218   2.294
66472W        W38798  36.512   1.218   3.833
66473W        W38799  19.907  22.048  14.750
66474W        W38800   8.909   5.233   4.528
66475W        W38801  39.800  41.294   4.531
66476W        W38802  35.548  27.434   0.751
66477W        W38803  33.680  13.392  11.191
66478W        W38804  27.773  25.634   1.880
66479W        W38805  26.986  17.265  14.486
66480W        W38806  15.147  37.597  13.880
66481W        W38807  24.082   9.233   1.657
66482W        W38808  39.923   6.906  14.419
66483W        W38809  39.082  25.132   3.347
66484W        W38810  39.793  21.842   2.280
66485W        W38811  17.550  29.110   4.575
66486W        W38812   7.478  22.648   3.159
66487W        W38813   5.612  27.093   0.382
66488W        W38814  31.946  15.259   2.917
66489W        W38815  12.854  37.189  11.071
66490W        W38816  14.770  24.623  14.824
66491W        W38817  10.234  29.169  13.849
66492W        W38818  22.642  39.989  13.385
66493W        W38819  25.134  44.155  12.989
66494W        W38820  39.998  13.330   2.823
66495W        W38821  29.466   9.753  14.516
66496W        W38822  36.788  30.131  13.354
66497W        W38823  32.518   9.869   4.165
66498W        W38824  11.176   5.397  13.582
66499W        W38825   7.031  29.954  11.605
66500W        W38826  34.993   9.734   4.539
66501W        W38827  39.483  34.889  11.057
66502W        W38828   2.219   2.204  13.621
66503W        W38829  10.980  23.261  11.582
66504W        W38830  27.631   8.441   1.406
66505W        W38831  32.425  11.390   0.361
66506W        W38832  32.497  13.110  12.073
66507W        W38833  43.488  24.489   1.576
66508W        W38834  18.571  36.026   3.519
66509W        W38835  28.106   6.089   1.607
66510W        W38836  30.936  35.519   1.476
66511W        W38837   4.618  30.854   1.673
66512W        W38838  44.332   4.757   2.745
66513W        W38839  13.576  21.751   1.772
66514W        W38840  30.086  19.611   3.172
66515W        W38841  37.491  41.825   0.797
66516W        W38842  11.629   9.302   4.441
66517W        W38843  18.756   3.728  11.006
66518W        W38844   2.300  19.610   4.256
66519W        W38845  10.228  27.925   4.556
66520W        W38846   5.182   7.617   1.931
66521W        W38847  12.759  23.673  12.416
66522W        W38848  36.723  12.003   2.030
66523W        W38849  27.908  30.142  10.330
66524W        W38850  21.569   3.454   1.811
66525W        W38851  38.012   8.645  11.169
66526W        W38852  12.092  31.588  14.451
66527W        W38853  37.417   2.268   0.313
66528W        W38854   1.347  32.851  11.417
66529W        W38855  29.976  43.314   1.114
66530W        W38856  28.008   8.766  13.216
66531W        W38857   6.874  26.667  11.231
66532W        W38858  25.821  12.190   4.223
66533W        W38859   5.171  32.301   9.890
66534W        W38860  34.012   4.899  13.358
66535W        W38861  36.851  41.700  10.868
66536W        W38862  13.497   6.704  10.755
66537W        W38863   1.782   1.900   9.983
66538W        W38864  21.627   9.592   2.134
66539W        W38865  35.279   6.198  14.500
66540W        W38866  23.350  13.277  12.766
66541W        W38867  35.986  42.009   1.713
66542W        W38868  18.637  21.505  11.656
66543W        W38869   0.428  11.143  11.143
66544W        W38870  25.898  29.537   0.887
66545W        W38871  36.615  44.535  11.547
66546W        W38872  30.037  21.296   2.844
66547W        W38873  19.559  26.486  11.089
66548W        W38874  30.583  16.100  11.516
66549W        W38875  29.646  17.832  11.811
66550W        W38876  29.485   1.253   4.910
66551W        W38877  14.763   1.070  12.811
66552W        W38878  36.061  14.015  13.349
66553W        W38879  27.248  16.160   4.162
66554W        W38880   7.946  31.870   4.149
66555W        W38881  44.484  33.550  12.528
66556W        W38882   5.727   2.258  13.352
66557W        W38883  19.219  37.915  14.476
66558W        W38884  21.671  15.694   4.300
66559W        W38885  32.859   7.955  11.130
66560W        W38886   2.282  20.917  12.555
66561W        W38887  36.937  23.485  11.175
66562W        W38888  32.481  35.825   4.623
66563W        W38889  43.282  13.375   3.233
66564W        W38890  39.881  18.090  12.376
66565W        W38891  25.677   5.342   1.339
66566W        W38892  41.095  37.537   3.306
66567W        W38893  35.443  26.996   0.463
66568W        W38894  26.123  21.045   0.623
66569W        W38895  13.232  12.550  12.227
66570W        W38896  13.789  37.156   2.195
66571W        W38897  13.890   5.783  12.321
66572W        W38898  24.024  29.025  13.972
66573W        W38899   5.027  24.737  13.536
66574W        W38900   0.690   0.763   3.736
66575W        W38901  27.909  39.274  13.717
66576W        W38902  22.620   5.831   2.516
66577W        W38903   8.856  23.774   2.141
66578W        W38904  11.220  19.587  11.854
66579W        W38905   8.704   1.009  13.038
66580W        W38906  30.837   6.223  13.438
66581W        W38907  16.777  36.890  14.411
66582W        W38908  26.932  33.080   0.795
66583W        W38909  15.382  29.557   3.193
66584W        W38910  30.988  10.637   4.694
66585W        W38911  19.822  25.683  11.017
66586W        W38912   6.223  34.970   0.771
66587W        W38913   7.949  19.560   3.324
66588W        W38914  41.373  20.293   2.275
66589W        W38915  10.748   2.429   4.066
66590W        W38916  14.828  33.393   2.930
66591W        W38917  42.971  35.932  13.587
66592W        W38918  19.701  20.573   3.279
66593W        W38919  41.822  17.187  12.886
66594W        W38920  25.980  38.069   0.418
66595W        W38921  42.851  12.876   2.754
66596W        W38922  29.985   3.725  14.350
66597W        W38923   8.319   4.698   1.438
66598W        W38924  18.244   4.599  13.918
66599W        W38925  43.596   1.758   1.401
66600W        W38926  37.375   0.312   3.881
66601W        W38927  38.961  26.208   4.445
66602W        W38928  33.164  13.796   3.850
66603W        W38929  39.489  26.103  11.622
66604W        W38930  34.667  38.869  11.187
66605W        W38931  36.032  32.543  11.068
66606W        W38932  18.784   1.975  14.764
66607W        W38933  27.621  26.221   1.214
66608W        W38934   7.891   0.601   2.278
66609W        W38935  16.616  11.615  11.972
66610W        W38936   9.897  16.882   0.724
66611W        W38937  15.547   2.870  13.881
66612W        W38938   8.974  30.572   2.320
66613W        W38939  16.732  42.847   1.423
66614W        W38940   8.735  23.301  14.935
66615W        W38941  23.473  17.751   0.911
66616W        W38942  13.778  16.907  11.946
66617W        W38943  34.925  10.885  12.416
66618W        W38944  21.368  21.515  11.694
66619W        W38945   1.747  34.018   3.571
66620W        W38946   3.485  39.745  11.191
66621W        W38947  23.473   4.713   1.901
66622W        W38948  21.982   9.327  11.132
66623W        W38949  16.164  29.850   1.759
66624W        W38950   4.171  22.015  13.432
66625W        W38951  28.608  43.851  12.690
66626W        W38952  21.139   2.545   0.482
66627W        W38953  11.824  16.995  11.084
66628W        W38954  40.300  32.985  12.405
66629W        W38955  13.604  38.363   2.722
66630W        W38956  28.092  36.538   3.661
66631W        W38957  39.055  15.645  14.377
66632W        W38958  20.931  12.140   4.168
66633W        W38959  35.435   7.822   1.189
66634W        W38960  34.309   3.680  13.986
66635W        W38961   7.515   6.166  12.470
66636W        W38962  37.220   3.943   0.780
66637W        W38963  14.609  11.436  13.535
66638W        W38964   5.601  24.030   4.930
66639W        W38965  24.126  34.458   3.448
66640W        W38966  32.130  19.223   1.391
66641W        W38967  17.516  20.557  12.896
66642W        W38968  27.949   1.431  13.956
66643W        W38969   1.236  40.436   3.081
66644W        W38970   8.931  14.692   1.193
66645W        W38971  32.626  15.682   0.268
66646W        W38972   9.339  11.205   4.260
66647W        W38973  14.643   3.982   0.285
66648W        W38974  41.010   6.702   1.441
66649W        W38975   6.579  33.419  11.047
66650W        W38976  23.097  20.015  11.103
66651W        W38977  25.595   9.029  12.123
66652W        W38978  13.581  32.260  14.849
66653W        W38979  20.953  16.537   2.753
66654W        W38980  25.136  16.059  14.359
66655W        W38981  32.422   4.200  14.564
66656W        W38982   6.903  36.063  11.209
66657W        W38983   6.890  10.699   0.584
66658W        W38984  19.219  24.095  11.062
66659W        W38985   0.300  18.471  10.640
66660W        W38986  15.583  27.983   1.472
66661W        W38987   3.549   8.381  14.777
66662W        W38988  14.080  34.794   4.518
66663W        W38989  43.736  28.613   0.104
66664W        W38990   3.449  19.478  11.484
66665W        W38991   7.840  23.989  12.942
66666W        W38992  37.509   9.607   3.796
66667W        W38993  31.349  11.636  11.999
66668W        W38994   2.923  42.328   2.158
66669W        W38995  18.098  14.151  12.493
66670W        W38996  22.713   5.651   1.303
66671W        W38997  11.909   7.826  12.796
66672W        W38998  35.960   2.586  11.098
66673W        W38999   5.659  11.719  11.156
66674W        W39000   9.299  14.107   4.436
66675W        W39001  13.454   9.406   3.760
66676W        W39002  41.360  17.492  12.987
66677W        W39003  16.652  39.595  10.387
66678W        W39004   1.452  31.657  13.432
66679W        W39005  37.437  19.408  11.555
66680W        W39006  39.331  32.670  12.432
66681W        W39007   3.207  35.254   5.139
66682W        W39008  40.547  21.825   1.943
66683W        W39009   6.940  26.180  14.496
66684W        W39010  10.426  32.427  12.354
66685W        W39011   8.423  29.518   0.861
66686W        W39012  40.430  30.063   1.110
66687W        W39013  35.868  13.353   4.170
66688W        W39014  19.791  17.705  14.702
66689W        W39015  42.866  19.068   4.654
66690W        W39016  42.324  25.135  10.704
66691W        W39017  37.061  34.398   0.758
66692W        W39018  19.961  34.646   4.289
66693W        W39019  19.987  11.091   4.611
66694W        W39020  43.266  39.569   3.762
66695W        W39021  41.719   6.349  13.516
66696W        W39022  20.593  31.362  11.006
66697W        W39023  34.413  12.681   0.540
66698W        W39024   6.776  17.002   4.938
66699W        W39025  21.019  34.997  10.716
66700W        W39026   5.149   7.829   0.454
66701W        W39027  19.432  44.251   1.641
66702W        W39028  37.414  37.559  12.516
66703W        W39029  28.010  11.910   1.271
66704W        W39030  40.794   1.798  14.202
66705W        W39031  34.520  32.398  14.444
66706W        W39032  44.805  44.501  11.177
66707W        W39033  33.084  35.481   3.668
66708W        W39034  42.856  21.867   2.291
66709W        W39035   2.546  42.360  11.153
66710W        W39036   9.296  38.463   0.752
66711W        W39037  19.593  15.554  13.462
66712W        W39038   6.641  34.595  12.365
66713W        W39039  39.958  40.770   0.010
66714W        W39040  16.627  14.571   3.670
66715W        W39041  17.971  32.335  12.148
66716W        W39042  23.187  21.840   3.771
66717W        W39043  27.485  30.405   2.669
66718W        W39044  44.937  30.574   3.697
66719W        W39045  38.226  43.491  12.966
66720W        W39046  33.192   0.539   1.738
66721W        W39047  13.181  30.370  14.832
66722W        W39048  41.455  11.682   4.659
66723W        W39049  32.293  11.661   1.863
66724W        W39050  44.367   3.938   2.295
66725W        W39051  12.320  14.631   4.273
66726W        W39052  23.839   1.716  11.501
66727W        W39053  34.409   3.319   0.187
66728W        W39054  31.590  40.338   2.856
66729W        W39055  32.611  32.930   3.210
66730W        W39056  39.943  25.298  14.973
66731W        W39057  39.982  22.310  14.434
66732W        W39058  23.075  22.710   1.328
66733W        W39059  41.493   9.426  11.601
66734W        W39060  14.657  16.332  14.977
66735W        W39061   5.966  17.146   3.809
66736W        W39062   6.457  17.452  13.435
66737W        W39063  12.294   8.688   0.310
66738W        W39064  29.408  14.513  10.331
66739W        W39065   6.369  24.619  14.798
66740W        W39066  25.737  12.578  11.150
66741W        W39067  32.015  26.357  12.089
66742W        W39068   8.340  34.646  13.540
66743W        W39069  15.329   3.274   9.829
66744W        W39070  22.158  39.157  13.478
66745W        W39071   7.979  16.611   0.823
66746W        W39072  11.275   8.418   4.468
66747W        W39073  27.545   9.631   0.780
66748W        W39074  22.573  44.261   1.950
66749W        W39075   1.211   2.349  11.916
66750W        W39076  34.526  14.762   2.730
66751W        W39077  15.357  30.821   2.935
66752W        W39078  21.327  21.496   4.160
66753W        W39079  15.322  15.546   3.708
66754W        W39080  22.764  43.922  12.618
66755W        W39081   7.275  33.525   4.785
66756W        W39082  11.690   3.505   3.763
66757W        W39083  41.269  38.349   2.946
66758W        W39084  15.357  14.062   4.672
66759W        W39085  24.571  36.407   3.287
66760W        W39086  27.736  41.728   4.962
66761W        W39087  35.323  28.813   2.735
66762W        W39088  29.973  16.835  14.964
66763W        W39089   1.592  36.876  10.625
66764W        W39090  32.457   3.954   3.741
66765W        W39091  36.128   1.743   4.269
66766W        W39092  35.651   1.015   4.311
66767W        W39093  17.206  18.469   0.399
66768W        W39094   4.309  25.258  13.540
66769W        W39095  31.250   5.455   0.358
66770W        W39096  41.770   0.385  11.555
66771W        W39097   8.613  32.883  14.142
66772W        W39098  14.128  15.837   2.793
66773W        W39099  14.211  26.535   3.221
66774W        W39100  18.906  34.567   3.197
66775W        W39101   6.847  34.845  14.002
66776W        W39102  33.382  30.629   2.831
66777W        W39103  38.294  10.933   1.009
66778W        W39104  16.749  11.221  11.048
66779W        W39105  41.458  41.285   0.832
66780W        W39106  15.201   8.460   2.211
66781W        W39107  26.593  34.159  14.817
66782W        W39108  28.090  15.986  11.581
66783W        W39109  44.300  30.159   0.897
66784W        W39110  28.949   7.131   2.337
66785W        W39111  18.189  27.590  12.882
66786W        W39112  25.516   8.542   3.742
66787W        W39113  26.762  34.645  14.922
66788W        W39114  38.097   1.720  12.590
66789W        W39115  38.859  15.010   4.598
66790W        W39116  17.226  14.160   4.739
66791W        W39117   1.227  22.101  14.474
66792W        W39118  42.556  14.177   1.269
66793W        W39119  28.232  31.451   3.732
66794W        W39120  24.875   1.982  13.819
66795W        W39121  36.075  40.832   0.878
66796W        W39122  23.935   0.661   3.358
66797W        W39123  43.226  11.209  13.536
66798W        W39124  19.096  42.503   1.265
66799W        W39125   9.389  21.461  12.861
66800W        W39126  35.599  25.945   0.262
66801W        W39127  25.415  18.613   0.511
66802W        W39128  14.808  41.452  11.383
66803W        W39129  24.097   1.876   2.473
66804W        W39130  15.832  20.284  11.177
66805W        W39131  30.427   9.705  11.529
66806W        W39132  37.826  16.655  13.150
66807W        W39133  12.833  29.680  13.594
66808W        W39134  16.473  24.485   4.193
66809W        W39135   4.852  30.926   2.168
66810W        W39136   1.721  40.758   1.001
66811W        W39137   9.333  38.714  12.864
66812W        W39138  32.399   8.614  10.668
66813W        W39139  14.107  11.663   4.555
66814W        W39140  17.537  19.260  11.582
66815W        W39141  35.040  39.981   0.283
66816W        W39142  23.487  43.256  12.412
66817W        W39143  26.968  42.442   4.053
66818W        W39144  14.558  23.074   3.201
66819W        W39145   9.350  26.906   1.327
66820W        W39146  18.890  22.489   0.916
66821W        W39147  20.755  36.804  13.415
66822W        W39148  38.112   1.382   0.405
66823W        W39149  33.281  44.786   2.427
66824W        W39150  44.901   2.271  10.551
66825W        W39151   4.513  44.483   3.824
66826W        W39152  25.719  18.605  10.515
66827W        W39153  31.458  37.475   0.363
66828W        W39154  24.985  25.683   3.154
66829W        W39155  37.484   1.968   0.722
66830W        W39156  43.503  18.638  11.120
66831W        W39157  32.416  33.907   3.198
66832W        W39158  42.801   8.251  12.452
66833W        W39159  22.194  19.552  11.872
66834W        W39160  34.944  26.656  13.851
66835W        W39161  36.636  36.535   1.791
66836W        W39162   6.373  20.683   2.293
66837W        W39163   0.641   0.642  11.062
66838W        W39164  28.570  28.767  13.262
66839W        W39165  42.440  21.443  14.524
66840W        W39166   4.724   5.803  10.576
66841W        W39167  42.765  40.852   3.709
66842W        W39168   7.460  14.769  13.579
66843W        W39169  24.147  44.322   4.695
66844W        W39170  40.319  35.960  14.985
66845W        W39171  32.527   2.917  11.576
66846W        W39172  27.950   7.780  13.477
66847W        W39173  37.030  14.748   1.412
66848W        W39174  39.719  37.971  11.113
66849W        W39175  44.083  20.147  11.231
66850W        W39176  20.949   6.277   3.164
66851W        W39177   2.974  42.374   1.622
66852W        W39178  18.193   8.460   3.652
66853W        W39179  18.826  41.002   1.718
66854W        W39180  31.214  21.610   2.276
66855W        W39181  37.096  32.739  14.935
66856W        W39182  27.941  39.505  14.920
66857W        W39183  41.397  39.261   2.876
66858W        W39184  13.038   3.284   2.755
66859W        W39185  39.901   4.932   2.775
66860W        W39186  23.589   5.170  12.260
66861W        W39187   5.919  19.395  10.652
66862W        W39188  15.013  34.060  12.769
66863W        W39189  44.736   7.218   0.382
66864W        W39190  23.470   7.843   1.787
66865W        W39191   9.425  20.772   2.800
66866W        W39192  36.527  15.306  10.694
66867W        W39193  27.545   6.004   2.957
66868W        W39194  42.377  26.921   3.685
66869W        W39195  24.886  42.193   5.035
66870W        W39196  12.900  11.020  12.294
66871W        W39197  29.173  38.858  13.964
66872W        W39198  39.057  10.593  11.567
66873W        W39199  30.181  24.675   0.864
66874W        W39200   4.832  24.212   3.172
66875W        W39201  36.563   0.338  13.346
66876W        W39202   4.372  20.137  12.475
66877W        W39203  14.125  39.354  11.728
66878W        W39204  19.656  38.753   4.165
66879W        W39205   8.482  32.088   0.021
66880W        W39206  10.327  37.907  11.173
66881W        W39207  40.034  19.234   3.085
66882W        W39208  35.898   0.745   3.922
66883W        W39209  43.907  12.617  10.535
66884W        W39210   6.275  10.182   3.705
66885W        W39211   8.403  25.018  14.304
66886W        W39212  28.035  30.632   4.156
66887W        W39213  29.117   9.759   2.652
66888W        W39214  26.434  21.759   1.730
66889W        W39215  32.670  35.247  10.495
66890W        W39216  14.703  25.397   1.761
66891W        W39217   1.031   7.847   3.213
66892W        W39218  40.053  22.177  10.731
66893W        W39219  25.567  25.709  12.714
66894W        W39220  40.012  10.804  11.120
66895W        W39221   0.568  42.237  14.314
66896W        W39222   0.282  31.141   3.354
66897W        W39223  27.453   5.632  14.776
66898W        W39224   0.287   6.412   3.596
66899W        W39225  21.257  36.058   0.412
66900W        W39226  29.658  33.714   3.695
66901W        W39227   0.319   6.178  10.631
66902W        W39228   6.355  42.556   0.433
66903W        W39229  37.426  35.242  13.997
66904W        W39230  43.834   3.023   0.969
66905W        W39231   3.827  12.871  11.802
66906W        W39232   2.113  27.243  13.384
66907W        W39233  39.569   5.342  11.803
66908W        W39234  16.204   6.707   0.461
66909W        W39235  18.546  16.106  10.530
66910W        W39236  29.942  12.181  14.935
66911W        W39237  43.853  15.164  12.430
66912W        W39238  40.209   4.203   1.852
66913W        W39239  20.117  17.177  13.596
66914W        W39240   2.776  26.168   4.985
66915W        W39241  31.885  13.241   3.719
66916W        W39242  27.541  40.117  14.394
66917W        W39243  14.078  43.285  13.991
66918W        W39244  26.053  38.861  11.591
66919W        W39245  16.377  22.995   0.838
66920W        W39246  26.713  32.997  10.334
66921W        W39247  30.703  29.447  14.781
66922W        W39248  41.943  28.130   4.604
66923W        W39249  44.394  25.187   2.203
66924W        W39250  20.173  44.235  10.578
66925W        W39251   8.687  41.304  13.421
66926W        W39252  25.366  16.260   4.211
66927W        W39253  23.095   0.389  13.262
66928W        W39254  40.607   7.885  14.726
66929W        W39255   9.656  31.085  12.783
66930W        W39256   4.498  27.629   3.730
66931W        W39257  36.467  24.944  12.854
66932W        W39258   0.014   3.514   4.261
66933W        W39259  14.195  38.331  13.183
66934W        W39260  44.734  22.079  14.273
66935W        W39261  36.897  41.736  12.636
66936W        W39262   3.290   8.821  13.416
66937W        W39263  33.933  18.572   4.061
66938W        W39264  42.309   7.667   0.442
66939W        W39265  28.487  30.893   4.174
66940W        W39266   6.196  14.294   1.393
66941W        W39267  29.427  40.470   4.628
66942W        W39268  26.038  44.438   4.815
66943W        W39269  26.118  39.391  11.997
66944W        W39270  32.007  34.044   4.309
66945W        W39271   8.646   7.475   1.298
66946W        W39272  22.514   8.684  13.572
66947W        W39273   9.064  35.837   9.826
66948W        W39274   1.398  28.620   2.111
66949W        W39275  35.050  21.911  13.743
66950W        W39276  43.943  25.062  14.826
66951W        W39277  18.577  17.461  11.222
66952W        W39278  21.522  43.368  13.094
66953W        W39279   7.518  17.757  12.070
66954W        W39280  28.922  19.003  12.084
66955W        W39281  11.613  14.637  14.903
66956W        W39282  13.684  36.096  10.483
66957W        W39283   7.662  38.882  11.127
66958W        W39284   0.980  18.160  11.095
66959W        W39285  18.139  22.993  14.923
66960W        W39286   7.811   1.986   0.286
66961W        W39287  16.316  11.344   0.955
66962W        W39288   8.863  21.547  14.851
66963W        W39289  15.623  41.843   1.753
66964W        W39290  16.593  16.832   0.671
66965W        W39291   4.812  36.817  12.892
66966W        W39292  34.096  10.084   2.823
66967W        W39293  32.475  32.739   0.878
66968W        W39294  34.628  33.694   4.953
66969W        W39295  18.761  43.891   2.380
66970W        W39296   8.461  42.913   0.404
66971W        W39297   0.689  22.027   2.727
66972W        W39298   3.088   1.296  14.188
66973W        W39299   9.184  22.606   4.397
66974W        W39300  18.605  30.417  14.808
66975W        W39301  17.511   7.992   0.549
66976W        W39302  34.517  16.533  12.483
66977W        W39303  34.637  28.507   4.061
66978W        W39304  31.515  21.292   3.087
66979W        W39305  18.244   2.787  14.755
66980W        W39306   1.015  27.411  13.246
66981W        W39307  31.382  14.007   4.103
66982W        W39308  28.037  39.098  13.044
66983W        W39309  38.553   7.686  12.439
66984W        W39310  16.529  36.361  10.759
66985W        W39311  20.224   5.825   4.121
66986W        W39312  26.030   8.945  11.804
66987W        W39313  21.506  41.328   0.416
66988W        W39314  32.329   8.433   2.964
66989W        W39315  26.057  43.836  12.690
66990W        W39316  10.158   9.197  11.948
66991W        W39317  22.436  30.070   1.331
66992W        W39318  42.357   2.664  11.738
66993W        W39319   5.203  28.701  13.774
66994W        W39320   0.401  21.163   3.723
66995W        W39321  30.009  14.567  14.982
66996W        W39322  42.766  30.023   0.872
66997W        W39323  27.391  25.967  12.362
66998W        W39324  38.877  43.437  14.797
66999W        W39325  13.077  12.034   0.874
67000W        W39326  39.788  22.749   0.421
67001W        W39327  16.347  30.476   0.716
67002W        W39328  28.164  38.902  13.986
67003W        W39329   6.682  10.397   3.205
67004W        W39330  19.460  13.211   3.292
67005W        W39331  32.730  19.160  12.076
67006W        W39332  36.093   8.255  13.329
67007W        W39333  10.492  25.504  14.527
67008W        W39334  39.621  13.571  12.172
67009W        W39335  19.969  44.007  11.931
67010W        W39336  33.141   1.688   4.983
67011W        W39337  25.502  35.469  11.348
67012W        W39338  27.943   3.898  11.530
67013W        W39339  29.557  29.448  12.938
67014W        W39340  35.885  18.766   2.884
67015W        W39341   4.938  34.102  12.826
67016W        W39342  13.184  33.004  14.774
67017W        W39343   7.356  32.915  12.881
67018W        W39344  18.794  35.109  10.994
67019W        W39345  30.129   9.489   2.840
67020W        W39346  32.655  34.619  14.018
67021W        W39347  28.022  20.024   4.626
67022W        W39348  14.672  33.997   4.159
67023W        W39349   2.003  18.794   2.735
67024W        W39350  18.148  23.891   0.454
67025W        W39351  23.767  13.810   2.901
67026W        W39352  22.642  32.302   9.732
67027W        W39353   7.017   3.387   1.286
67028W        W39354  19.559   1.203  14.023
67029W        W39355  39.815  20.099   3.900
67030W        W39356  36.979  17.091   0.837
67031W        W39357  11.831   9.089   4.005
67032W        W39358  32.364  29.046   4.054
67033W        W39359  21.140  17.590  11.434
67034W        W39360  41.349   6.958   4.532
67035W        W39361  36.955  37.739  13.511
67036W        W39362   8.751  10.919  11.978
67037W        W39363  33.159  31.220  11.284
67038W        W39364  10.162  10.256  12.083
67039W        W39365  32.995  31.795   2.065
67040W        W39366  15.104  16.846   4.163
67041W        W39367  37.023  24.311  11.507
67042W        W39368  14.298  20.244  14.356
67043W        W39369   7.885  21.469   3.510
67044W        W39370  11.702  38.273   0.688
67045W        W39371  44.262  37.011  12.866
67046W        W39372  38.282  30.076  11.558
67047W        W39373   9.189  13.091  11.948
67048W        W39374   9.325  32.928  10.686
67049W        W39375  30.663  19.370  12.422
67050W        W39376  24.724  21.589  13.459
67051W        W39377  16.327  36.032  13.420
67052W        W39378  30.176  36.320   2.447
67053W        W39379  18.818  15.996  14.446
67054W        W39380  27.959   6.799  13.371
67055W        W39381  12.017  15.332   3.090
67056W        W39382   6.872  34.071  14.549
67057W        W39383  38.141  10.653   4.237
67058W        W39384  17.965  42.061   4.224
67059W        W39385  20.576  30.975   2.221
67060W        W39386   3.006  41.282  11.338
67061W        W39387  42.436  44.943  13.433
67062W        W39388  34.047  29.405  10.609
67063W        W39389  26.278  31.502   4.957
67064W        W39390   1.043  40.628  13.453
67065W        W39391  20.154  42.815   4.430
67066W        W39392   5.769  30.475   4.214
67067W        W39393  22.025  30.204  14.861
67068W        W39394   6.167  17.682   2.760
67069W        W39395  15.169  42.573  10.845
67070W        W39396  37.947   9.107  10.326
67071W        W39397  35.376   8.315  12.596
67072W        W39398  10.834  43.024  14.478
67073W        W39399  43.459  11.684  11.881
67074W        W39400  14.283  42.450   1.787
67075W        W39401  14.227  36.517   0.274
67076W        W39402  32.829  13.515  11.963
67077W        W39403  31.146  17.265   3.289
67078W        W39404  26.847  42.503  14.955
67079W        W39405  23.103  27.706   0.964
67080W        W39406  11.249  17.521   3.792
67081W        W39407   6.137   9.363   0.622
67082W        W39408  11.710   7.503   0.813
67083W        W39409   8.817  17.138   4.592
67084W        W39410   9.245  17.710   0.673
67085W        W39411  10.790   0.813  11.156
67086W        W39412  16.821  29.133   4.041
67087W        W39413  37.206  40.877   2.623
67088W        W39414   6.798  10.573  11.960
67089W        W39415  33.856   5.656  12.650
67090W        W39416  37.384   2.449   2.817
67091W        W39417   0.026  14.095   0.335
67092W        W39418  25.504   7.482   9.913
67093W        W39419  30.055   7.701  11.645
67094W        W39420  24.634  23.893   1.259
67095W        W39421  12.753  36.413   0.811
67096W        W39422  13.049   3.800  12.638
67097W        W39423   5.800   4.832   1.405
67098W        W39424  40.516  26.584   3.751
67099W        W39425   2.784  19.160   1.663
67100W        W39426  19.248  39.344  14.304
67101W        W39427  26.109  44.020   0.009
67102W        W39428   6.764  15.278   4.331
67103W        W39429  29.668  37.071  12.801
67104W        W39430  19.128  18.686  14.460
67105W        W39431  23.088  23.083   4.586
67106W        W39432  29.502  42.497  10.719
67107W        W39433  19.211  28.048  11.259
67108W        W39434  22.719   3.670  10.767
67109W        W39435  41.218  25.648   2.829
67110W        W39436  35.874  32.372   1.240
67111W        W39437  19.165   1.480   4.666
67112W        W39438  20.826   8.725  12.915
67113W        W39439  13.048  42.483   1.357
67114W        W39440  23.202   9.475   1.357
67115W        W39441  35.833  15.457   0.105
67116W        W39442  12.891  38.887   0.326
67117W        W39443  42.576   5.748  12.052
67118W        W39444   3.762  39.115   0.373
67119W        W39445   8.728  24.045   3.284
67120W        W39446  16.658  10.122   3.200
67121W        W39447  26.479  28.373   5.154
67122W        W39448  38.538   7.301   4.354
67123W        W39449  28.468  44.808   2.120
67124W        W39450  36.892  18.542  10.741
67125W        W39451   7.784  20.331  14.562
67126W        W39452  28.994  23.602  12.158
67127W        W39453  26.319  44.142  11.550
67128W        W39454  39.524  15.033  12.125
67129W        W39455  36.605  36.330  14.105
67130W        W39456  18.175  15.784  14.112
67131W        W39457  30.595  38.045  12.819
67132W        W39458  23.979   0.497   0.857
67133W        W39459  28.457   5.339   1.189
67134W        W39460  32.000  33.217   1.327
67135W        W39461  11.792  40.402  11.462
67136W        W39462   4.732   3.736   4.130
67137W        W39463  18.986  44.968  14.375
67138W        W39464  19.808  17.466  11.304
67139W        W39465  24.092   6.677   4.531
67140W        W39466   0.808  19.622  12.114
67141W        W39467  27.558   3.447  12.338
67142W        W39468  15.310  43.277   0.502
67143W        W39469  14.831   7.831   4.559
67144W        W39470   9.173   8.150  14.674
67145W        W39471   8.980  37.848  12.477
67146W        W39472   7.967   8.141   1.849
67147W        W39473  31.721   7.143  11.567
67148W        W39474   5.719   5.481   2.334
67149W        W39475  31.584  21.662  11.502
67150W        W39476  18.684   8.309  10.943
67151W        W39477  41.217   6.339  10.790
67152W        W39478  35.409  21.961   1.106
67153W        W39479  20.744  41.523  13.509
67154W        W39480   5.753  42.797   3.600
67155W        W39481  21.229  26.438   2.888
67156W        W39482  43.922  15.740   1.285
67157W        W39483  41.959  15.844   1.287
67158W        W39484  39.656  13.271   0.425
67159W        W39485  28.147  27.694  10.686
67160W        W39486  20.472  36.067   1.140
67161W        W39487   7.429  38.967  13.575
67162W        W39488  29.605  39.043   3.069
67163W        W39489  36.886   3.326  13.389
67164W        W39490  21.104   8.289   2.578
67165W        W39491  35.327  25.125   1.033
67166W        W39492   2.481  29.119  10.999
67167W        W39493  34.004  24.734  10.695
67168W        W39494  26.011  22.088  13.026
67169W        W39495  16.119  22.750  11.120
67170W        W39496  14.314  31.601   2.210
67171W        W39497  12.814   9.333  13.985
67172W        W39498   6.457  35.940  14.959
67173W        W39499  37.492  15.778  10.760
67174W        W39500   5.390   8.634  10.908
67175W        W39501  43.675  14.517   2.493
67176W        W39502   9.846  23.947  10.615
67177W        W39503  18.256   2.327   4.549
67178W        W39504  21.593  42.646   1.249
67179W        W39505  44.333  23.011   3.683
67180W        W39506  22.498  36.583  13.231
67181W        W39507   2.470  17.400  13.974
67182W        W39508   7.737  17.705  13.936
67183W        W39509  22.686   3.327  13.763
67184W        W39510  12.428  24.943   2.804
67185W        W39511  24.109  34.921   2.614
67186W        W39512   2.959  23.518  12.436
67187W        W39513  13.090   4.857   4.145
67188W        W39514  36.977  21.465  10.743
67189W        W39515  21.734  41.933  14.348
67190W        W39516  11.090   6.394  12.093
67191W        W39517  33.988  18.621  11.398
67192W        W39518  23.564  36.895  12.489
67193W        W39519  41.338   8.796  13.234
67194W        W39520  29.651  27.121  11.017
67195W        W39521   5.580  36.889   4.322
67196W        W39522  10.579  11.809  11.216
67197W        W39523  12.017  19.198  12.193
67198W        W39524  30.695   5.713  11.547
67199W        W39525  25.605  11.564  14.344
67200W        W39526  42.391  37.950   2.880
67201W        W39527   1.743  19.476   1.371
67202W        W39528  18.372  41.447  13.468
67203W        W39529  36.118  22.609  13.931
67204W        W39530  20.858  23.652   1.338
67205W        W39531  22.113  12.599  13.532
67206W        W39532  36.568   4.695   3.766
67207W        W39533  39.376  33.528   3.913
67208W        W39534  26.424  38.502  11.515
67209W        W39535  35.173  15.651  12.035
67210W        W39536  20.060  41.939  13.480
67211W        W39537  33.122  37.035  12.136
67212W        W39538  24.677  38.081   3.786
67213W        W39539  24.903  42.420   0.433
67214W        W39540  14.210  15.793  13.515
67215W        W39541  23.233   3.995  13.791
67216W        W39542  19.905   2.826   2.386
67217W        W39543  40.432  13.605   0.117
67218W        W39544  14.365  40.287   3.855
67219W        W39545  18.369  15.270   2.836
67220W        W39546  21.324   0.374  14.835
67221W        W39547  39.439  36.043   1.943
67222W        W39548  35.286  12.388   9.886
67223W        W39549  30.390  10.607   0.751
67224W        W39550  40.613  39.890  14.902
67225W        W39551   4.130  32.983   1.127
67226W        W39552  29.412  25.234  10.252
67227W        W39553  33.241  24.876  12.450
67228W        W39554  22.531  35.205  14.371
67229W        W39555   0.055  37.059  11.534
67230W        W39556   8.788  22.488   2.747
67231W        W39557  42.373  14.233  14.385
67232W        W39558  22.852  16.584  13.557
67233W        W39559  31.785  13.221   5.241
67234W        W39560  13.173   0.929  14.295
67235W        W39561  15.202  13.734  14.717
67236W        W39562   0.320  35.896   1.793
67237W        W39563  22.251   5.651   2.200
67238W        W39564  39.211  40.138   4.198
67239W        W39565   8.131  41.733   1.430
67240W        W39566  39.309  36.438  13.367
67241W        W39567  28.164   6.420  11.062
67242W        W39568  38.459  40.829   4.401
67243W        W39569  29.699  31.298  11.830
67244W        W39570  43.982  23.452  11.897
67245W        W39571  30.226   3.171  14.870
67246W        W39572  25.614  37.659  13.871
67247W        W39573   6.259   5.059   5.274
67248W        W39574  15.658  32.910   1.741
67249W        W39575   4.813  15.786  11.843
67250W        W39576  11.639  39.529  14.028
67251W        W39577  44.923  38.773   0.835
67252W        W39578   2.804  11.696   1.697
67253W        W39579   7.202  23.943   2.284
67254W        W39580  36.437   1.247   0.126
67255W        W39581   1.343  14.407   3.747
67256W        W39582  32.985  18.186  14.991
67257W        W39583   2.748  25.674   2.903
67258W        W39584  19.084  27.615  13.339
67259W        W39585  35.726  28.420   5.100
67260W        W39586  13.093   2.351  11.110
67261W        W39587  30.551  40.421   2.871
67262W        W39588  31.197  17.276   0.019
67263W        W39589  25.122  10.280   1.790
67264W        W39590  25.768  21.083   2.831
67265W        W39591   2.729  29.514   4.592
67266W        W39592  26.753  39.838   0.475
67267W        W39593  44.247  16.797   4.618
67268W        W39594  41.263  30.529   2.792
67269W        W39595  34.821  30.650  12.553
67270W        W39596  35.910  16.614   1.355
67271W        W39597  25.559  13.632  14.041
67272W        W39598  38.028   0.856   0.671
67273W        W39599   0.668  32.522  13.349
67274W        W39600   8.894  41.760   5.034
67275W        W39601  33.779  26.088   4.641
67276W        W39602   7.180  20.004  12.463
67277W        W39603  29.958  26.459   1.310
67278W        W39604  24.172  35.019  13.848
67279W        W39605  31.489   9.212   3.469
67280W        W39606  29.520  13.860   1.891
67281W        W39607  36.979  35.505  12.467
67282W        W39608  44.753  17.547  13.399
67283W        W39609  17.627  26.727  12.905
67284W        W39610   2.823  26.383   3.743
67285W        W39611   6.271  20.774  11.390
67286W        W39612  19.097  39.481   3.877
67287W        W39613  16.593  24.172  12.606
67288W        W39614  32.837  37.009   1.977
67289W        W39615  14.248   0.856   0.833
67290W        W39616  38.432  38.001   1.359
67291W        W39617  19.530  11.637  13.806
67292W        W39618   1.468   6.907  11.221
67293W        W39619  24.636   5.970  11.648
67294W        W39620  42.085   3.677   0.796
67295W        W39621   2.204  15.630   3.198
67296W        W39622  37.787  40.989  13.356
67297W        W39623  28.480  16.679  14.006
67298W        W39624  40.259  10.827   3.642
67299W        W39625   4.709  15.732   4.441
67300W        W39626   2.281   6.271  10.657
67301W        W39627  19.775  12.730  12.022
67302W        W39628  35.795   4.564   3.568
67303W        W39629  10.279  25.894  12.345
67304W        W39630  24.106  44.016  14.660
67305W        W39631  41.818   3.677   2.696
67306W        W39632   5.393  29.348   0.719
67307W        W39633  27.684   9.204  11.670
67308W        W39634   6.747  34.897   0.822
67309W        W39635   1.217  15.378  12.879
67310W        W39636  44.885  15.171  11.866
67311W        W39637  27.644  24.597   4.095
67312W        W39638  10.113  21.154   3.648
67313W        W39639   3.104  31.627  10.749
67314W        W39640   8.369  31.920  11.685
67315W        W39641  22.345  44.388  14.372
67316W        W39642   2.266  43.711  11.444
67317W        W39643   3.688   6.253  10.646
67318W        W39644  37.657  25.202   2.389
67319W        W39645  13.816  39.529   2.238
67320W        W39646  35.459  41.624   0.006
67321W        W39647  13.609  25.109  12.382
67322W        W39648  19.392  39.265   0.636
67323W        W39649  44.616  23.146   1.414
67324W        W39650  23.473  37.484  11.534
67325W        W39651  30.757  41.384  14.754
67326W        W39652  19.156  38.865  14.644
67327W        W39653  42.259  11.885  14.529
67328W        W39654  43.749  36.029  11.670
67329W        W39655  14.208   1.946  14.101
67330W        W39656   4.828  31.937   1.384
67331W        W39657  15.111   2.438   0.681
67332W        W39658  14.611  13.515   1.621
67333W        W39659  20.268   3.502  13.160
67334W        W39660  40.393  15.562  11.899
67335W        W39661  23.188  32.856  14.274
67336W        W39662   5.151  18.663   2.199
67337W        W39663  13.553  14.001  14.208
67338W        W39664  23.533  17.834   2.732
67339W        W39665  11.056  11.123   2.283
67340W        W39666   1.294   4.421  11.035
67341W        W39667  31.604  35.002  10.412
67342W        W39668  10.591   3.496   4.160
67343W        W39669  22.589  39.483   9.650
67344W        W39670  19.862  38.178  12.003
67345W        W39671  12.337   7.292   4.702
67346W        W39672  20.991  14.583  11.534
67347W        W39673  20.127  41.902  12.956
67348W        W39674  21.213  44.184   1.934
67349W        W39675  33.393  19.016  12.504
67350W        W39676  33.878  36.887   1.909
67351W        W39677  10.056  34.162  12.355
67352W        W39678  13.807  10.292   2.764
67353W        W39679   8.132  13.216   0.437
67354W        W39680  14.626  17.149  13.223
67355W        W39681   5.515  15.812   2.249
67356W        W39682  24.124  16.262  12.724
67357W        W39683  15.020  30.406   2.907
67358W        W39684   7.448  19.600   4.799
67359W        W39685  24.610  32.359   1.826
67360W        W39686   6.771  16.964  12.395
67361W        W39687   8.661  11.037  13.358
67362W        W39688  37.576  11.790  10.594
67363W        W39689  19.213  19.223  11.124
67364W        W39690  29.504  26.111   0.753
67365W        W39691  29.394  23.746  11.378
67366W        W39692  44.447  23.759  11.971
67367W        W39693  17.531   8.124   1.465
67368W        W39694  43.739  20.384   3.696
67369W        W39695  35.691   1.023  10.520
67370W        W39696  13.039  33.988  13.060
67371W        W39697  16.207  26.222   0.510
67372W        W39698  42.895   4.763  11.564
67373W        W39699  36.783  33.421  14.441
67374W        W39700  31.995  23.696  13.069
67375W        W39701  31.726  42.341  12.488
67376W        W39702  29.744  21.986  14.925
67377W        W39703  27.843  25.693   4.144
67378W        W39704  44.981  32.166  12.362
67379W        W39705  15.494  18.168  12.012
67380W        W39706  28.597  26.143  11.431
67381W        W39707  24.274   9.783  10.343
67382W        W39708  43.994  17.269  13.819
67383W        W39709  13.353  19.687  13.412
67384W        W39710  37.539  35.553   1.935
67385W        W39711  37.529  13.274  12.565
67386W        W39712  17.264  31.175  12.449
67387W        W39713  23.955  21.115  14.520
67388W        W39714  19.211   4.216   0.680
67389W        W39715  11.123  35.545   5.135
67390W        W39716  40.417  25.751  14.433
67391W        W39717  28.999  25.711   9.568
67392W        W39718  34.109  24.246   4.577
67393W        W39719  33.081   2.230  12.725
67394W        W39720  12.232   8.245  12.601
67395W        W39721  22.662  19.587  10.666
67396W        W39722  18.890  24.693  13.769
67397W        W39723  33.808   9.778  12.988
67398W        W39724  34.724  26.085  11.470
67399W        W39725  27.655  33.404   1.910
67400W        W39726  32.582  43.518  12.963
67401W        W39727  30.170  35.525   4.268
67402W        W39728  13.648  16.726  10.635
67403W        W39729  14.674  19.053   0.451
67404W        W39730   7.407   7.785  13.394
67405W        W39731  21.231  15.305  12.734
67406W        W39732   9.290  16.274   4.703
67407W        W39733  40.785  13.385  11.195
67408W        W39734  21.817  12.418   4.738
67409W        W39735   9.317  19.044   1.174
67410W        W39736  13.206  33.331  14.363
67411W        W39737  23.183  31.195  13.304
67412W        W39738  24.183  28.143   3.645
67413W        W39739  18.141   3.839   1.370
67414W        W39740  40.907  14.879  11.169
67415W        W39741  30.681  42.118   1.242
67416W        W39742  17.762  26.034   2.958
67417W        W39743  39.519   1.668   2.348
67418W        W39744  14.403   0.568   3.692
67419W        W39745  15.903  42.867   0.972
67420W        W39746  33.742  29.665  12.410
67421W        W39747   1.473  27.055   4.371
67422W        W39748  20.176  20.438   4.161
67423W        W39749  35.963  34.021  12.742
67424W        W39750   1.000  36.856   3.752
67425W        W39751   8.113  14.302  11.468
67426W        W39752  42.053  41.828  12.164
67427W        W39753  14.104  15.428  14.513
67428W        W39754  26.577   6.360   0.926
67429W        W39755  21.814  35.244   3.914
67430W        W39756  35.368  36.464  14.867
67431W        W39757   7.030   8.289  11.138
67432W        W39758  13.741  17.214  12.366
67433W        W39759  26.726  26.071   1.006
67434W        W39760  30.905  15.286   4.223
67435W        W39761   4.520  20.482  11.193
67436W        W39762   0.996   5.106   2.359
67437W        W39763  27.689  28.177  11.126
67438W        W39764  10.664  35.507   2.822
67439W        W39765  41.909  32.144   0.588
67440W        W39766  26.593  42.394  12.076
67441W        W39767  13.831  35.167  14.018
67442W        W39768  35.977   1.786  11.730
67443W        W39769  33.573   0.972   4.490
67444W        W39770   1.850   6.403   4.037
67445W        W39771   9.599  13.770   2.303
67446W        W39772  32.810  18.754   2.688
67447W        W39773  34.752  30.677   1.234
67448W        W39774  43.323  18.809   4.648
67449W        W39775   7.912   7.348   2.731
67450W        W39776   8.459  36.002  11.910
67451W        W39777  22.725   8.777  11.047
67452W        W39778   5.220  40.495   3.856
67453W        W39779   5.854  25.128  13.482
67454W        W39780   8.842   9.103   0.131
67455W        W39781  21.860   9.783   1.256
67456W        W39782  11.210  29.938  14.398
67457W        W39783   3.975  21.589  10.327
67458W        W39784  14.121  27.701   3.201
67459W        W39785  44.907  17.179   0.652
67460W        W39786  23.050  10.379   1.480
67461W        W39787  19.468  19.642  11.515
67462W        W39788  44.352  26.061   0.738
67463W        W39789  41.880  44.819   0.345
67464W        W39790  43.451   9.892  11.954
67465W        W39791  35.102   4.478  12.034
67466W        W39792   6.769   3.897   1.278
67467W        W39793  31.130   1.440  11.989
67468W        W39794  35.678  13.593  11.705
67469W        W39795   3.733  11.712   5.046
67470W        W39796  21.044  17.659   0.680
67471W        W39797  40.418  39.321  12.568
67472W        W39798  41.776   9.708   3.728
67473W        W39799  25.909  15.003  14.359
67474W        W39800  10.398  15.405   2.651
67475W        W39801  41.909  25.921  12.466
67476W        W39802  33.142   8.337   4.612
67477W        W39803  10.720   6.873  13.555
67478W        W39804  33.954   6.816   4.882
67479W        W39805  10.434  10.863  13.564
67480W        W39806  41.339  37.869  12.561
67481W        W39807  31.045  21.660   0.455
67482W        W39808   2.939  18.667   2.795
67483W        W39809  11.674  23.105   4.387
67484W        W39810  12.178  27.538   0.880
67485W        W39811  32.073  38.035   1.180
67486W        W39812  15.780  23.012  10.618
67487W        W39813  11.041  14.847  12.469
67488W        W39814  16.613  39.444  12.920
67489W        W39815  34.336   3.383   2.323
67490W        W39816  10.891  23.015  12.887
67491W        W39817  10.757  21.171   2.687
67492W        W39818   6.489  28.463  11.968
67493W        W39819  37.683  12.223   3.290
67494W        W39820  19.085   7.889   3.235
67495W        W39821  31.583  32.704  12.553
67496W        W39822   9.100  35.119   1.831
67497W        W39823  27.418  17.143  11.803
67498W        W39824  37.591  18.160  11.081
67499W        W39825   4.862  25.415  14.845
67500W        W39826  42.522  11.723  11.120
67501W        W39827  39.669   3.622  10.687
67502W        W39828  13.261   0.700  13.477
67503W        W39829   2.479  22.757  14.459
67504W        W39830  30.390   5.478   1.245
67505W        W39831  18.343  33.086   0.228
67506W        W39832  28.956   0.756   2.169
67507W        W39833  25.010   1.525   3.747
67508W        W39834   2.742   3.833   4.137
67509W        W39835   4.254  12.586  11.684
67510W        W39836  28.213  42.029   3.671
67511W        W39837  15.998  39.398   3.179
67512W        W39838  44.259  24.053   0.241
67513W        W39839  19.765  43.961  14.836
67514W        W39840  41.401  31.122   2.265
67515W        W39841  32.374  11.440   0.897
67516W        W39842   0.751  25.541  10.688
67517W        W39843  31.377  31.089  13.429
67518W        W39844   1.287  32.265  10.566
67519W        W39845   8.619  21.246  11.463
67520W        W39846  24.274  11.717   0.107
67521W        W39847  41.920   6.615   1.378
67522W        W39848   1.195  12.677  10.997
67523W        W39849  28.673  35.090  11.982
67524W        W39850   3.671   7.882  11.140
67525W        W39851  19.452  31.043   1.888
67526W        W39852  42.429   7.287   4.145
67527W        W39853  37.426   5.988  11.437
67528W        W39854  39.789  11.585   0.478
67529W        W39855   9.551  20.131   0.064
67530W        W39856  10.237  31.207   1.869
67531W        W39857  44.137  27.485   1.072
67532W        W39858  28.228  29.499  11.010
67533W        W39859  24.196  15.508   4.144
67534W        W39860  30.975  16.815  14.873
67535W        W39861  33.795  12.223  14.884
67536W        W39862  13.288   0.120   0.411
67537W        W39863  44.125  16.198   1.956
67538W        W39864  28.036  16.148  12.542
67539W        W39865  30.676  28.946  12.414
67540W        W39866  11.141  39.329   4.140
67541W        W39867  15.402   7.696   1.207
67542W        W39868  39.960   5.958   3.680
67543W        W39869   5.790  10.261  13.773
67544W        W39870  22.185  15.842  11.117
67545W        W39871  32.484  33.104  13.769
67546W        W39872  27.909  34.691   0.444
67547W        W39873  39.651   9.712   1.825
67548W        W39874  12.123  44.268  13.982
67549W        W39875   5.959  42.659  13.446
67550W        W39876  42.904   5.300  13.356
67551W        W39877   3.053  42.211  11.159
67552W        W39878  41.080  23.536  11.416
67553W        W39879   7.806  24.241  11.530
67554W        W39880   3.334  13.219  13.978
67555W        W39881  40.771   7.058  12.418
67556W        W39882   2.671  28.377  14.365
67557W        W39883  12.595  41.556   4.165
67558W        W39884  33.919   5.465   4.310
67559W        W39885  23.750   0.226  13.983
67560W        W39886   2.438  14.810  11.941
67561W        W39887  38.588  31.650  14.333
67562W        W39888  23.073  32.973   0.198
67563W        W39889  22.234  11.718   4.137
67564W        W39890  16.250  29.553   4.916
67565W        W39891   6.836  18.684   2.194
67566W        W39892   0.201   3.442   2.048
67567W        W39893  11.161   3.384   1.028
67568W        W39894   8.734  43.142   1.734
67569W        W39895  27.197  22.492  14.011
67570W        W39896  36.744  24.553   4.640
67571W        W39897   1.120   1.909  12.739
67572W        W39898  31.541  35.957  13.346
67573W        W39899   5.479  14.157  12.844
67574W        W39900  31.755  32.138  10.152
67575W        W39901  12.244  34.326  10.578
67576W        W39902  17.431  20.196   1.759
67577W        W39903  13.571  43.293   0.670
67578W        W39904   5.383  38.411   2.717
67579W        W39905  32.644  37.531   1.766
67580W        W39906  32.008  11.147   0.708
67581W        W39907  20.329  24.260   3.227
67582W        W39908  25.415  36.838   4.158
67583W        W39909  34.598  23.663  13.477
67584W        W39910   4.558  25.311   0.287
67585W        W39911  28.482  31.218   3.313
67586W        W39912  28.253  42.992  10.506
67587W        W39913   0.514   6.758   2.639
67588W        W39914   9.171   5.990   1.403
67589W        W39915  39.959   6.945  10.446
67590W        W39916  32.604  12.538  12.031
67591W        W39917   8.070  34.410   2.364
67592W        W39918  15.637   0.399  13.757
67593W        W39919  32.178  26.519  12.871
67594W        W39920  19.610  10.411  10.727
67595W        W39921  23.239   5.265   2.764
67596W        W39922  41.524  15.310  10.450
67597W        W39923  36.946  37.808   1.263
67598W        W39924   3.906   3.930  10.254
67599W        W39925  15.971  26.964  12.432
67600W        W39926  41.202  10.621  14.512
67601W        W39927  16.588  10.840  13.953
67602W        W39928  36.321  36.347   2.725
67603W        W39929  19.770  19.700  10.663
67604W        W39930  32.395  32.990   3.871
67605W        W39931  39.874  34.054  11.103
67606W        W39932  21.317  21.710  13.432
67607W        W39933  28.952  15.589  13.436
67608W        W39934   6.745  19.288  12.351
67609W        W39935  33.988  33.801   4.198
67610W        W39936  29.054   8.953   2.717
67611W        W39937   2.708   2.788   3.762
67612W        W39938  11.607  22.021  11.588
67613W        W39939   1.760   3.391   1.211
67614W        W39940  21.188  11.267  12.334
67615W        W39941  21.747  39.454   4.667
67616W        W39942   8.206  20.513  14.799
67617W        W39943  24.604  11.696   3.128
67618W        W39944  29.107  40.649  12.910
67619W        W39945  21.193  19.171   0.235
67620W        W39946  24.559  42.692   2.037
67621W        W39947   3.432   0.563  13.387
67622W        W39948  10.830  33.458  11.529
67623W        W39949  24.197  18.639   1.315
67624W        W39950  41.695  11.970  14.423
67625W        W39951  28.126   0.493   0.339
67626W        W39952  27.677  30.479  12.818
67627W        W39953  42.876   8.847  14.439
67628W        W39954   6.951  28.615  12.131
67629W        W39955   2.689   4.413   0.303
67630W        W39956  35.861   8.610  12.653
67631W        W39957   1.830  40.575   3.657
67632W        W39958  36.511  43.016  11.480
67633W        W39959  34.322  12.230  14.802
67634W        W39960  29.684  43.759   4.693
67635W        W39961  37.626  20.559   3.145
67636W        W39962  34.354  21.012   0.802
67637W        W39963  29.400  26.218   4.173
67638W        W39964  35.373  20.669   1.323
67639W        W39965  44.075  10.717   3.249
67640W        W39966   4.086   2.427  14.864
67641W        W39967  15.848  41.305  13.645
67642W        W39968   9.646  18.693   4.587
67643W        W39969   5.009  17.194   3.762
67644W        W39970  10.291  36.542  13.044
67645W        W39971  14.839  32.327   3.336
67646W        W39972  30.846  44.474   0.018
67647W        W39973   9.090  24.644  11.846
67648W        W39974  27.503  14.500  11.135
67649W        W39975  24.694  13.158  13.181
67650W        W39976  19.979  30.443   3.325
67651W        W39977  19.830  10.284   1.730
67652W        W39978  43.080  16.371  13.509
67653W        W39979  14.206  21.734  14.186
67654W        W39980  27.401  43.500   4.659
67655W        W39981  29.581  28.948  14.724
67656W        W39982   6.927  10.309   1.740
67657W        W39983   4.462   2.047  14.851
67658W        W39984  12.836  41.894   1.694
67659W        W39985  16.371   4.528   3.058
67660W        W39986  29.289  11.827  10.675
67661W        W39987  14.787   0.546  10.668
67662W        W39988  41.510   2.439  13.010
67663W        W39989  19.219   7.890   4.122
67664W        W39990  16.061  32.462  11.071
67665W        W39991  35.891   2.342   1.535
67666W        W39992  19.214  19.360   0.841
67667W        W39993  41.034  35.770  12.566
67668W        W39994  16.672  38.156   4.175
67669W        W39995  36.664  18.583   2.582
67670W        W39996  39.444  26.043  13.992
67671W        W39997   3.428  29.171   1.391
67672W        W39998  38.331  44.005  14.021
67673W        W39999   5.980  39.961   1.738
67674W        W40000  10.343  29.588  11.619
67675W        W40001   5.822  19.538  14.365
67676W        W40002  43.892  33.494   4.741
67677W        W40003  27.480  44.475   2.218
67678W        W40004   3.813  16.955  12.871
67679W        W40005   7.283  29.794  13.982
67680W        W40006   8.270   3.440  10.909
67681W        W40007   7.811  28.387   2.911
67682W        W40008  34.576  38.438  11.462
67683W        W40009  36.392  10.846   5.521
67684W        W40010  11.449  20.687  13.524
67685W        W40011  33.106  23.071   3.622
67686W        W40012   8.494  26.566   4.235
67687W        W40013  21.983  14.235  11.139
67688W        W40014  10.110  34.501   2.295
67689W        W40015  39.031  39.012   3.118
67690W        W40016  24.783  33.061  12.510
67691W        W40017  33.347  19.036  13.476
67692W        W40018  31.077  16.672   4.486
67693W        W40019  38.053  42.576   2.982
67694W        W40020   8.158  39.335   0.190
67695W        W40021  35.104  15.737  13.286
67696W        W40022  21.796  38.492  12.032
67697W        W40023  44.848  11.218   3.804
67698W        W40024  21.297  12.506   0.021
67699W        W40025  17.730  11.526   3.641
67700W        W40026  24.471   9.906   1.043
67701W        W40027  17.729  18.149   4.355
67702W        W40028  30.650  23.057  12.527
67703W        W40029  29.988  36.885   4.266
67704W        W40030  17.219  19.068  10.695
67705W        W40031  16.215  44.858   0.880
67706W        W40032  24.019  40.279  12.854
67707W        W40033  19.555  39.767   0.517
67708W        W40034  18.061   5.307  12.374
67709W        W40035  39.791   0.692   2.241
67710W        W40036  21.036   3.035  13.868
67711W        W40037   7.633  27.056  10.306
67712W        W40038  21.987  18.980   4.067
67713W        W40039  27.370   6.604   4.323
67714W        W40040  38.425  43.933  12.689
67715W        W40041   6.021  15.894   2.367
67716W        W40042  28.925  36.522   1.842
67717W        W40043  28.945  18.210  12.335
67718W        W40044  17.616  33.429   2.574
67719W        W40045  28.705  27.588  12.846
67720W        W40046  25.272  10.427  10.675
67721W        W40047  31.792   1.727  10.121
67722W        W40048  44.947  18.087   3.640
67723W        W40049  27.126  27.501   4.967
67724W        W40050   0.344   3.188  14.261
67725W        W40051  18.569   9.503  13.001
67726W        W40052   3.790  31.984   1.212
67727W        W40053   1.857  18.593   2.287
67728W        W40054  37.444  24.978   4.481
67729W        W40055   3.061  20.023  12.153
67730W        W40056   0.969  15.996   4.562
67731W        W40057  35.894  14.191   2.204
67732W        W40058  25.211   7.172  11.210
67733W        W40059  43.982   9.274  14.899
67734W        W40060   4.385  30.945   1.215
67735W        W40061  43.275  39.981  12.297
67736W        W40062  40.766  29.982   1.776
67737W        W40063  26.826  23.777  11.531
67738W        W40064  19.689   9.827   1.974
67739W        W40065  22.284  18.086   4.009
67740W        W40066   8.075  15.808  13.050
67741W        W40067  24.791  14.701   1.888
67742W        W40068   0.021   7.889  14.502
67743W        W40069  13.300  31.995   1.840
67744W        W40070  27.362  17.613   0.643
67745W        W40071  29.644  43.417  12.079
67746W        W40072   5.793  23.978  14.957
67747W        W40073  12.888  37.961   4.511
67748W        W40074  11.252  17.992  14.877
67749W        W40075  26.220  24.002  13.008
67750W        W40076  18.279  18.320  11.957
67751W        W40077  36.440  42.843  14.921
67752W        W40078  23.957  44.087   4.279
67753W        W40079  33.039   8.254  13.199
67754W        W40080  29.522  35.376  14.294
67755W        W40081   5.250   2.930   3.430
67756W        W40082  30.999  18.384   3.214
67757W        W40083   3.329  34.494   2.597
67758W        W40084   5.299  28.964  14.227
67759W        W40085  27.421  19.749   1.815
67760W        W40086  18.295  22.908  13.046
67761W        W40087  27.010  39.590  13.677
67762W        W40088  39.396  43.335   3.664
67763W        W40089  28.780  34.664  14.937
67764W        W40090  21.745  13.635   0.341
67765W        W40091  32.437  38.061  10.415
67766W        W40092  20.704  25.018  12.028
67767W        W40093   8.828  30.988  13.815
67768W        W40094  12.421   4.878   3.717
67769W        W40095  41.845   6.930   1.803
67770W        W40096  21.085  17.137  12.107
67771W        W40097  24.546  42.795  11.049
67772W        W40098  19.777  30.080   3.635
67773W        W40099  41.915  44.292  11.417
67774W        W40100   2.649   7.168   2.858
67775W        W40101  44.527  15.278   2.405
67776W        W40102  10.778  44.716   2.379
67777W        W40103  25.130   2.745   4.272
67778W        W40104   6.382  20.026   1.688
67779W        W40105   6.237  32.742   2.421
67780W        W40106  33.308   6.740  11.012
67781W        W40107  28.977  41.528   1.968
67782W        W40108  30.545  40.507  13.480
67783W        W40109  36.138  35.872   3.717
67784W        W40110  33.344  18.217  12.183
67785W        W40111  34.947  25.774  11.132
67786W        W40112   6.399  37.377  10.409
67787W        W40113  40.927   7.379  10.675
67788W        W40114  41.389  12.197   2.713
67789W        W40115  32.515  43.091  13.899
67790W        W40116  24.814  12.813   0.098
67791W        W40117  19.275  38.462  11.332
67792W        W40118   2.469  43.561   3.234
67793W        W40119  35.178  34.786  12.375
67794W        W40120  35.543  24.500  12.351
67795W        W40121  13.342  32.174   0.410
67796W        W40122  43.862  24.018   0.944
67797W        W40123  12.390  19.102   2.874
67798W        W40124  32.997  38.380  12.059
67799W        W40125  31.937   0.894   4.625
67800W        W40126  17.676  12.223   2.890
67801W        W40127   3.912   3.338   3.889
67802W        W40128  36.093   5.656   3.614
67803W        W40129  43.366  18.994  12.479
67804W        W40130  38.296  27.831   1.396
67805W        W40131  26.197  11.730  11.115
67806W        W40132  26.424  16.657  13.869
67807W        W40133  29.458  35.558   4.611
67808W        W40134   6.196  22.695  12.543
67809W        W40135  44.546  38.984   3.684
67810W        W40136  28.823  33.568   4.787
67811W        W40137  11.902   7.753   2.439
67812W        W40138  17.006   9.422  14.527
67813W        W40139   6.170  40.854  14.844
67814W        W40140  39.824  13.721  12.824
67815W        W40141  20.170  43.389  12.825
67816W        W40142  21.546   6.180   2.715
67817W        W40143  17.227  23.593  13.322
67818W        W40144  19.073  38.548  13.717
67819W        W40145  42.348   5.626   0.888
67820W        W40146  37.429  27.054  10.683
67821W        W40147  17.597  23.514  12.202
67822W        W40148  23.236   8.329  10.774
67823W        W40149  41.398   2.717  13.500
67824W        W40150  26.619   2.731  12.151
67825W        W40151   4.027  12.704   1.663
67826W        W40152  25.085  14.652   0.908
67827W        W40153  42.846  26.750   0.486
67828W        W40154   6.373  27.599   1.294
67829W        W40155  42.208   7.449   1.224
67830W        W40156  36.100  43.637   0.800
67831W        W40157  43.361   6.144   2.706
67832W        W40158   5.850   5.252  12.761
67833W        W40159  34.812  37.446  11.988
67834W        W40160   2.299  44.333   3.780
67835W        W40161  26.228  12.127  11.443
67836W        W40162   5.946  40.287   2.791
67837W        W40163  15.660  13.026   4.640
67838W        W40164  26.700  44.417   0.795
67839W        W40165  42.115  44.906   2.110
67840W        W40166  35.382  21.541  14.513
67841W        W40167  22.130  18.960   4.572
67842W        W40168  40.949  14.813   4.693
67843W        W40169  11.165  30.423  11.155
67844W        W40170  40.036  35.574   2.445
67845W        W40171  18.821  23.186   2.306
67846W        W40172   0.361  23.424  13.832
67847W        W40173  22.735  23.471  12.446
67848W        W40174  38.038   9.427   4.573
67849W        W40175  39.885  23.151  12.384
67850W        W40176  15.632  23.797  13.718
67851W        W40177  33.431  22.724  11.235
67852W        W40178  25.588  40.391  10.629
67853W        W40179  22.118   4.475  13.429
67854W        W40180  44.357   0.701   2.815
67855W        W40181  15.125  25.995   4.226
67856W        W40182  39.432  35.840   3.903
67857W        W40183  33.082  28.691  11.940
67858W        W40184  39.909   7.333  12.501
67859W        W40185  36.945  22.194   4.057
67860W        W40186  26.951  43.055   1.507
67861W        W40187  31.487   2.005  14.463
67862W        W40188  42.055  19.567  10.626
67863W        W40189  38.560   2.671   1.388
67864W        W40190  34.990  26.708   0.739
67865W        W40191  43.215  22.222   4.213
67866W        W40192  15.227  10.839   2.446
67867W        W40193  34.542   1.271  12.681
67868W        W40194   4.226   6.906   2.283
67869W        W40195  10.739  30.619   4.097
67870W        W40196  22.091  18.452   4.349
67871W        W40197  16.014  25.941   3.923
67872W        W40198  17.041   9.099   4.739
67873W        W40199  33.789  27.406   3.618
67874W        W40200   5.059   0.505   4.517
67875W        W40201  27.516  22.061  13.600
67876W        W40202   2.208  40.031   1.742
67877W        W40203  29.347   6.173  14.910
67878W        W40204   2.813  22.674   9.992
67879W        W40205  16.799  21.130   2.776
67880W        W40206  38.283  32.088   3.642
67881W        W40207   6.909  20.304  12.144
67882W        W40208  18.217  19.631   2.197
67883W        W40209  37.066  26.770   4.253
67884W        W40210  12.905  13.246  13.557
67885W        W40211  32.096  12.769   3.950
67886W        W40212  24.706  39.606  14.688
67887W        W40213   5.114  30.262  13.766
67888W        W40214  32.586  20.019   2.356
67889W        W40215  37.291  19.609  12.465
67890W        W40216  33.433  34.154  10.159
67891W        W40217   4.705  39.097   5.042
67892W        W40218  37.897  32.156   4.901
67893W        W40219  15.273  14.257   2.346
67894W        W40220  33.182  28.936   0.263
67895W        W40221  25.113  11.727   3.650
67896W        W40222  37.556  25.763  11.510
67897W        W40223   1.377  36.467   2.365
67898W        W40224   3.694  22.945   4.050
67899W        W40225  34.591   4.912   0.439
67900W        W40226  43.529  33.456  11.575
67901W        W40227  34.091   4.730   0.266
67902W        W40228  37.252   6.329   2.507
67903W        W40229  33.254   8.310   2.676
67904W        W40230   1.776  22.743   2.822
67905W        W40231  26.056  10.890  14.849
67906W        W40232  20.559  34.029   4.507
67907W        W40233  26.883  44.448  12.945
67908W        W40234  26.940  38.892  11.194
67909W        W40235  28.149  24.152  12.669
67910W        W40236  28.700  40.417   0.498
67911W        W40237  14.014  30.378   4.187
67912W        W40238   7.144   7.882   0.453
67913W        W40239  25.880  15.059   4.210
67914W        W40240  29.934  23.556  12.621
67915W        W40241  11.303   2.458  10.626
67916W        W40242  40.801   1.853   3.083
67917W        W40243  15.732  28.932   4.178
67918W        W40244  31.778   5.666  12.453
67919W        W40245  25.544  24.013   2.828
67920W        W40246   8.378  12.206   0.428
67921W        W40247   1.067  29.681  13.375
67922W        W40248   7.852  29.168  10.163
67923W        W40249  21.924   8.166   2.456
67924W        W40250  16.117  37.835   1.482
67925W        W40251  17.754  24.356  12.377
67926W        W40252  39.488  14.814  12.645
67927W        W40253  44.321  10.728   2.715
67928W        W40254  37.014   4.855   2.801
67929W        W40255  32.902  19.783   0.260
67930W        W40256  39.759  28.976   4.145
67931W        W40257  21.192  41.364  11.432
67932W        W40258  18.046  23.513   0.793
67933W        W40259   6.257  29.609  12.528
67934W        W40260   1.920  36.381  11.646
67935W        W40261  21.813  29.971  12.421
67936W        W40262  27.281   2.033  14.841
67937W        W40263  37.380  37.396  13.046
67938W        W40264  43.199   1.751  12.526
67939W        W40265  20.794  13.672   0.214
67940W        W40266  13.515  18.312   4.949
67941W        W40267   4.543  38.869  14.256
67942W        W40268  36.943  43.840  11.400
67943W        W40269  41.927  28.900   0.318
67944W        W40270  33.708   0.365   2.915
67945W        W40271  22.711  28.101   3.704
67946W        W40272  33.512   0.738   3.644
67947W        W40273  34.957  36.096  12.851
67948W        W40274  18.012  43.847  11.793
67949W        W40275  25.298  22.681  13.889
67950W        W40276   1.179   6.801  12.034
67951W        W40277  11.902  43.840  10.933
67952W        W40278  17.511   8.791   0.195
67953W        W40279  40.382  37.266  14.948
67954W        W40280  29.437   7.683   1.466
67955W        W40281   3.005  40.287  10.714
67956W        W40282  43.002  39.433  12.477
67957W        W40283  10.321  40.967  12.072
67958W        W40284  27.423  41.995  11.963
67959W        W40285  23.265  15.149  10.600
67960W        W40286  42.785  27.064  13.600
67961W        W40287  30.220  37.681   0.692
67962W        W40288  39.101  28.090   3.709
67963W        W40289  24.005   4.879  14.851
67964W        W40290  29.142   1.195  13.518
67965W        W40291  28.112  15.730   0.174
67966W        W40292   0.028  20.719   0.379
67967W        W40293   4.434  42.389   3.331
67968W        W40294  41.415  35.688   2.814
67969W        W40295  24.050  16.388   2.575
67970W        W40296  36.925  26.004   4.896
67971W        W40297  24.843   3.902   4.871
67972W        W40298  27.229  16.844   2.723
67973W        W40299   9.748  35.497   0.289
67974W        W40300  21.114  41.319  14.368
67975W        W40301  12.152   3.764   3.704
67976W        W40302  36.550  38.376   0.864
67977W        W40303   2.397   5.026  10.160
67978W        W40304   5.843  39.291  14.047
67979W        W40305   0.869  12.869  13.350
67980W        W40306  23.797  29.181   4.508
67981W        W40307  41.083  23.529   3.371
67982W        W40308   8.895  32.041  12.946
67983W        W40309  13.275  10.228  12.884
67984W        W40310   9.010  28.181   3.213
67985W        W40311  43.628  27.852  14.861
67986W        W40312   8.410  23.709  14.266
67987W        W40313  16.586   8.899   0.705
67988W        W40314   3.446  15.613  14.538
67989W        W40315   0.439  44.767  10.955
67990W        W40316  18.823   6.696  10.797
67991W        W40317  15.254  15.275   1.205
67992W        W40318  19.619  29.735   4.916
67993W        W40319  12.161  25.688  11.051
67994W        W40320  23.598  26.457  11.561
67995W        W40321  29.436   4.936  14.335
67996W        W40322  35.551   7.714   3.567
67997W        W40323  22.556  37.965   4.516
67998W        W40324  41.527  32.398   0.039
67999W        W40325  35.943   4.363  14.345
68000W        W40326  10.724  24.751  12.573
68001W        W40327  33.028   1.779   4.481
68002W        W40328  38.869   8.210   0.866
68003W        W40329  24.060  42.384   1.457
68004W        W40330  18.043  20.671  13.624
68005W        W40331  20.014  39.197  12.091
68006W        W40332   2.299  32.868  13.824
68007W        W40333  23.675  40.484  14.284
68008W        W40334  16.509  19.098  11.521
68009W        W40335  44.252  39.884   0.124
68010W        W40336  31.108  40.525   4.099
68011W        W40337  16.372   1.703  11.100
68012W        W40338  12.021   8.878   0.843
68013W        W40339   7.624  12.301   4.620
68014W        W40340   7.013  27.465   3.803
68015W        W40341  37.050  21.975  10.767
68016W        W40342  18.729  12.309   0.441
68017W        W40343  36.998  25.589   4.615
68018W        W40344  34.101  16.700   2.718
68019W        W40345  23.849   9.930  10.639
68020W        W40346  27.454   7.341  11.589
68021W        W40347  37.472  17.161   2.604
68022W        W40348  11.935  26.112   3.302
68023W        W40349  26.333  15.038   0.871
68024W        W40350  21.004  22.460  12.581
68025W        W40351  11.732  39.330   0.851
68026W        W40352  36.730  23.654   1.247
68027W        W40353  11.852   5.019   1.303
68028W        W40354  13.351  33.505  10.610
68029W        W40355   6.742   8.703  11.075
68030W        W40356  10.324   9.317  12.796
68031W        W40357   0.281  19.208   3.714
68032W        W40358   1.003  30.329   2.587
68033W        W40359   4.143   7.699   3.938
68034W        W40360  44.345   9.144  10.671
68035W        W40361   6.295  39.076   0.350
68036W        W40362  26.012   4.865  10.739
68037W        W40363  37.568  37.088  13.453
68038W        W40364   1.426   7.415   0.971
68039W        W40365  31.316  42.693  11.928
68040W        W40366  19.374  16.111  12.114
68041W        W40367   6.959  21.610  12.052
68042W        W40368  20.254  10.202  11.132
68043W        W40369  41.996   0.038   4.698
68044W        W40370   3.161   2.876  13.814
68045W        W40371  19.164  14.753   0.444
68046W        W40372  13.037  40.466   5.117
68047W        W40373  30.471   7.790  14.628
68048W        W40374  19.283  38.096  12.060
68049W        W40375  18.597  38.197   0.243
68050W        W40376   4.634  34.647   0.247
68051W        W40377  44.500  32.093   3.965
68052W        W40378  10.742  33.821   1.181
68053W        W40379  42.996   0.686  13.923
68054W        W40380  32.977  43.907   3.092
68055W        W40381  38.517   7.762   4.627
68056W        W40382  40.465  10.347   3.608
68057W        W40383  24.412   6.603  12.323
68058W        W40384  11.312  27.875   5.016
68059W        W40385  33.841  34.938   2.813
68060W        W40386  17.722  23.641  13.130
68061W        W40387  23.022  35.857   1.635
68062W        W40388   8.188  33.389  12.622
68063W        W40389  37.176  24.993   1.342
68064W        W40390   8.187   4.644   0.894
68065W        W40391   0.387  28.622   0.934
68066W        W40392  13.209   9.331   2.105
68067W        W40393  30.826  31.930  13.367
68068W        W40394   8.692   4.945   2.754
68069W        W40395  15.751   2.990   0.984
68070W        W40396   3.171  28.040   4.248
68071W        W40397   2.334  26.344  13.177
68072W        W40398   0.463  37.601  10.601
68073W        W40399  34.245   2.512   3.296
68074W        W40400  28.655  23.682   0.922
68075W        W40401  44.255  35.444  12.480
68076W        W40402   2.437   3.447   3.704
68077W        W40403  12.275   4.417  14.819
68078W        W40404  35.909   6.764   2.869
68079W        W40405   9.233  28.180  10.342
68080W        W40406  19.306   8.425   0.294
68081W        W40407  33.813  23.881   0.294
68082W        W40408  36.937  39.300  10.561
68083W        W40409  33.167   7.461   4.534
68084W        W40410  36.388  44.926  12.401
68085W        W40411   0.802  11.181   4.806
68086W        W40412  19.778  21.794  13.332
68087W        W40413  29.965   9.620   0.401
68088W        W40414  20.549   5.649  13.439
68089W        W40415  17.618  25.684   2.597
68090W        W40416  41.273  12.864  11.613
68091W        W40417  25.153  13.040  11.527
68092W        W40418   5.191  25.957  11.770
68093W        W40419  40.301  20.118   3.754
68094W        W40420   8.881  27.166  12.468
68095W        W40421  35.653   6.285  13.337
68096W        W40422   6.212   3.038   2.633
68097W        W40423  27.435  32.843  12.282
68098W        W40424  10.665  18.036  12.053
68099W        W40425  11.820   9.382   0.848
68100W        W40426  24.225  10.780  12.130
68101W        W40427   5.362  33.774  11.523
68102W        W40428  16.567   0.045  14.526
68103W        W40429   9.296   9.642  11.100
68104W        W40430  30.837   9.752  13.067
68105W        W40431  18.616  39.310  12.212
68106W        W40432  21.960  14.632   3.469
68107W        W40433  22.477  15.148   3.939
68108W        W40434  24.619  31.131  10.586
68109W        W40435  27.054  19.025  14.114
68110W        W40436  41.844   5.790   0.382
68111W        W40437  42.456  14.800  14.974
68112W        W40438  21.721  33.996   3.391
68113W        W40439   7.874   2.170   2.470
68114W        W40440  17.200  32.638   2.136
68115W        W40441  36.707  28.042  11.422
68116W        W40442   0.964  34.552  13.201
68117W        W40443   8.854   7.633   0.437
68118W        W40444  22.702  14.605   2.721
68119W        W40445  10.254  14.795  10.921
68120W        W40446  21.550  17.852  13.840
68121W        W40447  10.602  23.710   1.681
68122W        W40448  27.476  21.639   4.370
68123W        W40449   0.717   3.852   2.604
68124W        W40450  11.315  15.642   4.221
68125W        W40451  13.134  32.022  14.956
68126W        W40452  23.179  38.076  14.830
68127W        W40453  37.442  12.227  14.513
68128W        W40454  20.747  38.527   5.427
68129W        W40455  26.969  13.558   4.117
68130W        W40456  39.568  34.691   2.737
68131W        W40457  19.038   5.121   1.855
68132W        W40458  31.571   8.445   1.892
68133W        W40459  33.452  44.654   4.806
68134W        W40460  36.526   7.723  10.640
68135W        W40461  38.987  34.987   0.489
68136W        W40462  20.031   8.517   0.471
68137W        W40463  24.325  30.561   1.225
68138W        W40464  44.020  18.159  14.344
68139W        W40465  35.862   2.434  13.373
68140W        W40466  16.666  43.377  14.920
68141W        W40467  17.783   5.754   0.299
68142W        W40468   6.799  30.373  13.462
68143W        W40469  20.267   5.820  12.518
68144W        W40470  23.085  26.462  11.646
68145W        W40471   6.901  32.150  11.998
68146W        W40472  26.240   8.291  13.962
68147W        W40473  24.670   0.490  14.326
68148W        W40474  19.332  44.177   4.054
68149W        W40475  25.180   4.021   3.944
68150W        W40476  29.007  36.106  12.879
68151W        W40477   7.175  40.304   1.925
68152W        W40478  41.485  44.993  11.336
68153W        W40479  20.719   3.132   1.794
68154W        W40480  20.748   4.325  14.469
68155W        W40481   9.408  36.966  14.982
68156W        W40482  23.870  36.962   9.827
68157W        W40483  10.898  22.513  13.002
68158W        W40484  15.619   8.918  12.520
68159W        W40485  34.765  32.177   4.157
68160W        W40486  21.624  25.965   2.121
68161W        W40487  29.586  25.684  13.307
68162W        W40488  12.643  25.133   4.593
68163W        W40489  19.218  34.107   3.313
68164W        W40490  33.692  28.755   0.973
68165W        W40491   5.375  39.510  10.533
68166W        W40492  28.021  27.724   0.367
68167W        W40493  27.396  42.772  11.634
68168W        W40494  39.022   4.790   3.637
68169W        W40495  23.270  44.999  13.957
68170W        W40496  35.647  13.665  14.114
68171W        W40497  30.694  26.422   0.692
68172W        W40498  37.657  37.606   4.210
68173W        W40499  23.538  23.725  14.470
68174W        W40500  19.302   5.010   4.567
68175W        W40501  25.977  21.539   3.313
68176W        W40502  14.117  41.332  13.919
68177W        W40503  26.326  17.607  14.022
68178W        W40504   6.663  12.962   0.022
68179W        W40505  32.978  28.432  11.182
68180W        W40506  27.968  17.228   2.262
68181W        W40507  26.223  32.933  13.554
68182W        W40508  25.703  15.552   9.816
68183W        W40509   9.714  10.411  11.156
68184W        W40510  20.500  17.692   4.842
68185W        W40511  44.531  41.971   1.425
68186W        W40512   8.626   3.931   4.112
68187W        W40513  20.767   0.500   0.390
68188W        W40514   1.717  22.605   2.331
68189W        W40515   5.299   1.949  11.571
68190W        W40516  34.473  11.363   3.820
68191W        W40517   8.638  23.862  13.086
68192W        W40518  24.551  36.368  12.625
68193W        W40519  37.464   9.281  12.011
68194W        W40520  21.004  18.320  14.999
68195W        W40521  16.356  25.578   1.313
68196W        W40522  30.028  36.167  12.461
68197W        W40523  44.794  25.152   3.083
68198W        W40524  38.126   1.024  14.687
68199W        W40525  27.068  22.949  13.810
68200W        W40526   8.852  36.816  14.822
68201W        W40527  18.302  23.517  12.427
68202W        W40528  13.344  31.670   2.273
68203W        W40529  28.688  26.280  10.074
68204W        W40530  26.506  31.783  10.273
68205W        W40531  24.629  15.671  13.337
68206W        W40532  30.477  31.047   3.659
68207W        W40533   1.793  35.906  12.591
68208W        W40534  40.524  22.277   4.222
68209W        W40535  14.402   2.384  10.665
68210W        W40536  32.452   5.287  11.646
68211W        W40537  28.719   8.147  11.698
68212W        W40538  25.147  11.370  14.218
68213W        W40539   0.424  15.690  10.972
68214W        W40540  41.825  24.564   3.901
68215W        W40541  22.963  37.422   3.312
68216W        W40542  38.205   3.485   1.396
68217W        W40543  22.467   5.831   4.586
68218W        W40544   5.089  28.953   0.521
68219W        W40545  22.094   5.120  12.483
68220W        W40546  11.080  30.140  14.859
68221W        W40547  20.941  28.111   3.095
68222W        W40548  19.531  35.510   4.223
68223W        W40549  15.216  26.439   4.455
68224W        W40550  39.865  34.952  13.921
68225W        W40551  41.542  15.220  12.562
68226W        W40552   2.051  43.511  10.990
68227W        W40553  33.957  43.757   0.430
68228W        W40554   4.473   5.710   3.168
68229W        W40555  34.212  27.248   4.254
68230W        W40556  32.921  27.479  14.537
68231W        W40557  20.760  31.425   3.067
68232W        W40558  27.460  18.683   2.962
68233W        W40559   9.322   4.422   4.681
68234W        W40560  27.080  30.125   4.291
68235W        W40561  34.802  33.351   0.492
68236W        W40562  30.410  25.548   4.660
68237W        W40563  10.220   1.036   4.807
68238W        W40564  41.675  13.731  13.848
68239W        W40565  32.286  27.391   4.532
68240W        W40566  19.181   3.309   2.727
68241W        W40567  35.957  18.763   0.299
68242W        W40568  36.970  43.434  14.793
68243W        W40569   4.830  40.588   1.778
68244W        W40570  35.396  22.661  12.697
68245W        W40571  10.594  23.122  14.911
68246W        W40572  19.848  24.116   3.673
68247W        W40573   1.981  10.557  14.990
68248W        W40574  26.318  38.010  11.636
68249W        W40575  38.863  25.753  14.807
68250W        W40576  33.725  26.947  11.653
68251W        W40577   2.074  18.679   1.464
68252W        W40578  25.683  27.891   2.710
68253W        W40579   6.415  24.829  11.080
68254W        W40580  20.162  42.857   1.994
68255W        W40581  22.013  43.943  14.311
68256W        W40582  25.905  28.783  12.047
68257W        W40583  16.681  15.588   2.647
68258W        W40584  31.383  19.232   4.644
68259W        W40585  41.726  18.556  14.352
68260W        W40586   4.873  26.965  10.995
68261W        W40587  44.789  26.151   1.389
68262W        W40588  15.178   8.981   2.282
68263W        W40589   7.180  10.220  14.246
68264W        W40590  16.242  35.952   4.118
68265W        W40591   0.742   7.902  11.629
68266W        W40592  21.394  20.312  12.442
68267W        W40593  11.715  36.097  14.900
68268W        W40594  34.093  40.694   3.191
68269W        W40595  19.961  16.075   0.717
68270W        W40596  33.014   5.392   3.282
68271W        W40597  24.517   0.506  12.342
68272W        W40598   1.450  33.906  14.893
68273W        W40599  32.068   4.839  10.611
68274W        W40600  41.422  44.214   2.319
68275W        W40601  18.342   2.008   1.842
68276W        W40602  35.534  26.116   1.276
68277W        W40603  31.076  11.652   3.214
68278W        W40604  40.005  39.856  12.036
68279W        W40605  14.815   7.796  13.433
68280W        W40606   0.703   0.439  11.996
68281W        W40607  35.790  34.451  14.975
68282W        W40608  41.930  27.192  11.061
68283W        W40609  18.160  34.620  12.744
68284W        W40610  38.396  27.449   1.762
68285W        W40611  36.838   5.338   2.763
68286W        W40612  17.231  31.913  13.068
68287W        W40613  21.549  25.044   0.488
68288W        W40614  24.722  31.854  14.393
68289W        W40615  36.863   8.096  13.098
68290W        W40616  32.232  44.762  13.438
68291W        W40617   2.800  30.788  10.941
68292W        W40618  10.069  10.100   9.940
68293W        W40619  31.675   6.388  11.101
68294W        W40620   4.381  44.100   1.790
68295W        W40621  27.724  10.801  10.624
68296W        W40622   4.036  34.615   1.832
68297W        W40623  34.572  30.223  10.733
68298W        W40624   3.886  36.494  12.010
68299W        W40625  43.295  36.949   3.930
68300W        W40626   0.974   8.885  12.582
68301W        W40627  11.209  41.803  13.966
68302W        W40628  37.069  34.154  13.455
68303W        W40629  36.030  38.315  13.532
68304W        W40630  31.049  21.323  10.696
68305W        W40631  38.572  29.446   3.684
68306W        W40632  39.762  12.711  14.532
68307W        W40633  12.296  22.781   5.004
68308W        W40634  43.313  32.059  11.429
68309W        W40635  15.475   3.329  10.407
68310W        W40636  13.753  29.054  11.595
68311W        W40637   8.375  24.313   2.477
68312W        W40638  30.080  26.430  11.558
68313W        W40639  16.189  17.488   4.111
68314W        W40640  38.093   6.436  10.673
68315W        W40641  42.047  12.751   1.662
68316W        W40642   3.424   2.948  12.283
68317W        W40643  12.712  12.213  11.556
68318W        W40644   5.622  26.015   0.840
68319W        W40645  21.527  38.587  12.462
68320W        W40646  27.491  35.764   4.126
68321W        W40647   2.293  15.129   3.162
68322W        W40648  15.566  41.942   0.776
68323W        W40649  25.010  31.998   2.735
68324W        W40650  23.721  38.390  14.914
68325W        W40651  30.121  23.227   4.697
68326W        W40652   4.439  19.247  12.478
68327W        W40653  31.993  39.601   4.128
68328W        W40654  15.338  38.261   1.291
68329W        W40655  27.578  42.798  14.741
68330W        W40656  16.697   8.478   1.010
68331W        W40657   7.851   6.513  14.893
68332W        W40658  38.641  27.171   3.531
68333W        W40659  25.514  18.604  13.522
68334W        W40660  18.592  17.636  11.730
68335W        W40661  37.856  26.588  14.398
68336W        W40662  16.693   9.274   4.382
68337W        W40663   7.267  40.313  11.517
68338W        W40664  30.721   9.564  11.938
68339W        W40665  12.254  32.109  13.011
68340W        W40666  28.248  44.061  12.405
68341W        W40667   0.294  11.310  13.319
68342W        W40668  31.297  31.907  11.034
68343W        W40669  26.394  15.453   9.639
68344W        W40670   7.857  24.971   3.244
68345W        W40671  28.579  11.223   1.460
68346W        W40672   2.683   5.369   3.710
68347W        W40673  26.506  15.575   4.071
68348W        W40674  27.705   5.834  14.341
68349W        W40675  40.285  12.510   0.363
68350W        W40676   7.031  44.072  14.405
68351W        W40677  41.989  41.803  14.018
68352W        W40678   7.615  41.031   2.751
68353W        W40679   1.508  17.322  10.606
68354W        W40680   5.858  12.345   0.529
68355W        W40681   7.393  13.673   0.752
68356W        W40682   5.920  36.517  10.732
68357W        W40683  28.696  23.128  12.474
68358W        W40684  27.213  15.019  14.950
68359W        W40685   4.374  36.096   1.746
68360W        W40686   6.461  43.416  13.430
68361W        W40687   7.838  13.108   3.691
68362W        W40688  13.000  34.079   0.356
68363W        W40689   1.030   5.468   1.848
68364W        W40690  16.432  14.608  11.993
68365W        W40691  38.362  27.458   0.279
68366W        W40692  41.031  33.005   3.549
68367W        W40693  28.950  28.182  12.502
68368W        W40694  17.323  40.739  10.975
68369W        W40695  30.581  13.828   0.189
68370W        W40696  10.594  15.655   0.450
68371W        W40697  43.852  26.328   4.470
68372W        W40698  23.910  25.683   4.229
68373W        W40699  17.341   5.884   3.632
68374W        W40700  22.041  29.611  10.776
68375W        W40701  22.535   9.325   0.861
68376W        W40702  33.890  43.748  13.954
68377W        W40703   5.927  33.179  12.913
68378W        W40704   8.348   7.795   4.116
68379W        W40705  13.874   9.096  11.051
68380W        W40706   9.921   7.389   1.618
68381W        W40707  23.652  24.627   3.716
68382W        W40708  16.902   7.210  12.904
68383W        W40709   3.493  30.585   0.362
68384W        W40710  10.637  25.029  11.537
68385W        W40711  40.974  23.437  14.319
68386W        W40712  39.209  37.416   1.773
68387W        W40713  38.464  10.254   9.733
68388W        W40714  36.360  20.056   4.228
68389W        W40715   5.029  26.975  11.489
68390W        W40716  16.191  22.695  10.591
68391W        W40717  39.073   0.026  11.727
68392W        W40718   5.417   1.937   0.502
68393W        W40719  38.857  20.818  10.182
68394W        W40720   4.843  21.428  11.612
68395W        W40721  37.292   4.438  10.666
68396W        W40722  34.241  14.431   0.386
68397W        W40723  18.097   6.488   0.296
68398W        W40724  29.731   7.785   2.410
68399W        W40725  11.401  38.872   4.123
68400W        W40726  18.791  23.496   1.005
68401W        W40727   0.250  20.108   3.621
68402W        W40728   9.243  28.908   0.795
68403W        W40729   8.362  26.068   4.156
68404W        W40730  12.139  38.695  11.953
68405W        W40731   2.714  19.184  11.167
68406W        W40732  41.761  24.718  14.009
68407W        W40733  15.339  22.792   0.312
68408W        W40734  22.486  40.545   0.015
68409W        W40735  29.639  35.405   0.629
68410W        W40736   9.734  34.916  14.621
68411W        W40737  20.732  23.032   2.410
68412W        W40738  29.662   6.379  12.906
68413W        W40739  23.431  18.611  12.424
68414W        W40740  43.915  25.326   4.800
68415W        W40741  17.278  43.725   1.360
68416W        W40742  40.399   6.824  11.432
68417W        W40743  43.243  21.548   2.138
68418W        W40744  26.037  15.353   3.820
68419W        W40745  26.142   3.947  10.598
68420W        W40746  42.552  29.958   0.391
68421W        W40747  13.742  21.268   2.379
68422W        W40748  42.520  41.800  12.381
68423W        W40749   0.262  32.156   3.025
68424W        W40750  27.563   7.634  11.146
68425W        W40751  29.357  15.610   2.992
68426W        W40752  24.659  36.989   2.840
68427W        W40753  15.428   4.669   1.511
68428W        W40754  20.772  33.568  10.989
68429W        W40755  28.508  28.764   3.796
68430W        W40756  34.378  36.486  13.844
68431W        W40757  17.142  35.527  14.464
68432W        W40758  12.252  18.848   1.644
68433W        W40759  14.277   7.207  14.976
68434W        W40760  34.915  25.589   3.087
68435W        W40761  22.281  33.644  14.838
68436W        W40762   5.312  14.038   1.404
68437W        W40763  14.163  38.075  11.347
68438W        W40764  27.960  15.359  13.757
68439W        W40765  15.148  22.260   2.948
68440W        W40766   5.603  37.780  14.509
68441W        W40767   4.149  13.710  12.041
68442W        W40768  13.371  38.068  13.958
68443W        W40769  20.721  22.089  11.100
68444W        W40770  27.195   6.146   4.559
68445W        W40771  19.018   2.018   0.229
68446W        W40772  39.323  39.629   4.059
68447W        W40773  22.485   1.746  10.257
68448W        W40774  33.328  38.853   0.494
68449W        W40775  30.680  13.881  12.548
68450W        W40776   3.330  31.171   3.614
68451W        W40777  20.508  44.711  13.534
68452W        W40778   0.735  39.016   4.179
68453W        W40779  38.047   9.164   1.995
68454W        W40780  23.251   7.202  14.750
68455W        W40781  44.831  42.892  14.278
68456W        W40782  39.466  42.442  12.146
68457W        W40783  38.912  26.364  10.580
68458W        W40784   9.094  31.693   2.791
68459W        W40785   8.381  16.996  11.785
68460W        W40786  13.623  23.092   3.374
68461W        W40787  37.629   3.462  13.028
68462W        W40788  41.124  13.673   3.866
68463W        W40789  34.471   8.756  12.865
68464W        W40790  25.103  18.722  11.129
68465W        W40791   4.214  42.462   4.600
68466W        W40792  42.142   3.299   9.952
68467W        W40793  20.990  18.206  13.384
68468W        W40794   5.000  13.732   0.213
68469W        W40795   3.381  13.760  10.747
68470W        W40796  31.935  28.358   1.964
68471W        W40797  24.637  30.179   0.954
68472W        W40798   6.714  10.247   4.613
68473W        W40799   0.727  37.468  13.113
68474W        W40800  41.015   7.921  14.359
68475W        W40801  26.244  29.851   0.308
68476W        W40802  35.377  31.659  10.297
68477W        W40803   5.752  14.593   0.876
68478W        W40804  29.719   2.979  12.476
68479W        W40805  33.980  25.941   2.779
68480W        W40806  14.190  31.289   3.526
68481W        W40807  36.798  22.752  10.724
68482W        W40808   4.023  13.186   4.016
68483W        W40809  36.589  23.502  13.926
68484W        W40810  36.220  41.982   1.220
68485W        W40811  20.087   2.751  14.403
68486W        W40812  19.650   6.869  11.365
68487W        W40813   4.404  32.642   3.888
68488W        W40814  34.443  13.791  12.049
68489W        W40815   8.210  21.072  14.558
68490W        W40816  19.416   0.865  11.673
68491W        W40817  25.125   8.198  13.355
68492W        W40818  27.481   5.465   1.495
68493W        W40819   1.983  16.635  12.215
68494W        W40820  44.233  20.639  13.466
68495W        W40821  29.097  34.688  12.845
68496W        W40822   9.166  34.408   1.273
68497W        W40823  24.637  31.113   2.762
68498W        W40824  30.186  41.230   2.929
68499W        W40825  19.752  34.043   3.164
68500W        W40826  14.836  41.434   5.064
68501W        W40827  15.616  22.972   1.178
68502W        W40828  12.338  12.199   2.863
68503W        W40829  35.457   1.490   1.004
68504W        W40830   0.785  18.324  10.655
68505W        W40831  10.947   7.360  11.523
68506W        W40832   0.561  22.079   4.562
68507W        W40833   4.861   4.419   0.006
68508W        W40834  33.917  39.953  13.836
68509W        W40835  14.705  44.825  13.052
68510W        W40836  29.010  10.365   1.115
68511W        W40837  24.541  43.279   1.376
68512W        W40838  37.679  41.783  13.036
68513W        W40839  16.275  44.232  10.717
68514W        W40840  34.653   1.015   0.326
68515W        W40841  37.739  12.021   4.233
68516W        W40842  13.373  10.435   1.358
68517W        W40843  27.471  29.890   2.733
68518W        W40844  14.356  17.989   0.823
68519W        W40845   8.701   7.230   2.271
68520W        W40846  31.236  29.117  14.364
68521W        W40847  42.417  23.161  12.629
68522W        W40848  44.413  19.835   1.134
68523W        W40849   2.236   0.692  13.933
68524W        W40850   0.693  39.826  13.728
68525W        W40851  30.898  32.534  10.714
68526W        W40852  39.853  16.430  12.097
68527W        W40853  15.262   1.051   1.858
68528W        W40854  27.546  21.180   4.615
68529W        W40855  34.528  28.990  12.887
68530W        W40856  15.037   2.883  12.622
68531W        W40857  27.642  24.099  10.615
68532W        W40858   6.250  19.509   1.952
68533W        W40859  24.427  31.093  11.885
68534W        W40860  22.676  29.554   3.625
68535W        W40861  19.238  40.331  13.159
68536W        W40862  23.545   3.746  12.601
68537W        W40863  32.122  35.779   1.365
68538W        W40864   8.617  29.910   1.358
68539W        W40865  20.638  31.021   3.705
68540W        W40866   2.880  21.267  11.565
68541W        W40867  38.792  34.519  10.658
68542W        W40868  38.690  30.157  11.237
68543W        W40869  15.043  32.439   3.805
68544W        W40870  20.139  27.684   3.360
68545W        W40871   5.867  28.383   2.731
68546W        W40872  43.981  10.805   2.292
68547W        W40873  43.084  43.822  12.381
68548W        W40874  29.020  36.039  10.889
68549W        W40875  43.816  14.220  12.848
68550W        W40876  44.724   5.353  11.395
68551W        W40877   7.780  30.414   1.063
68552W        W40878  30.555  17.365   2.608
68553W        W40879   2.749  16.741  10.551
68554W        W40880  37.357  20.173   2.789
68555W        W40881  15.821  41.908   1.250
68556W        W40882  23.595   4.916   0.936
68557W        W40883  14.403  16.370   1.196
68558W        W40884  11.698   5.223   4.507
68559W        W40885  31.468  34.681  13.998
68560W        W40886  25.914  25.455  13.146
68561W        W40887  24.010  15.039  11.692
68562W        W40888  18.835  24.562   4.578
68563W        W40889  42.305  14.887  11.495
68564W        W40890  26.274   9.627   1.866
68565W        W40891  31.679  26.552  14.334
68566W        W40892  33.606  17.261  10.355
68567W        W40893  28.187  17.801  13.345
68568W        W40894  44.445  24.205  12.880
68569W        W40895  26.687   0.304  10.804
68570W        W40896   6.696  42.890   2.277
68571W        W40897  16.190  43.507   3.324
68572W        W40898   2.715  10.844   3.115
68573W        W40899   1.812  23.751   0.373
68574W        W40900  36.419  43.469  12.393
68575W        W40901  27.468   1.973  11.952
68576W        W40902  30.516   0.233  11.646
68577W        W40903  28.975  44.508  11.058
68578W        W40904  17.526  10.540   0.454
68579W        W40905  28.100  25.398  14.414
68580W        W40906  16.778  15.501   3.615
68581W        W40907   2.951   9.993   9.801
68582W        W40908  17.205   8.257   4.112
68583W        W40909   7.447  20.038  13.843
68584W        W40910   7.138   0.784   3.228
68585W        W40911  38.831  15.285   3.750
68586W        W40912  14.557  34.612   4.661
68587W        W40913  24.224  16.065   4.171
68588W        W40914  43.337  39.453  13.507
68589W        W40915  43.655   6.137  12.435
68590W        W40916  39.285  37.151   1.323
68591W        W40917  23.712  37.307   5.369
68592W        W40918   3.262  38.468   0.235
68593W        W40919  25.172   2.697  14.476
68594W        W40920  22.594  40.044  11.561
68595W        W40921  14.141  19.228   2.580
68596W        W40922  11.624   6.220  11.445
68597W        W40923  37.814  25.982   2.748
68598W        W40924   7.601  21.051   2.757
68599W        W40925  34.652   1.703   1.274
68600W        W40926  30.133  37.974   4.726
68601W        W40927  27.158   6.927   4.704
68602W        W40928  14.349  33.699  10.880
68603W        W40929  37.045  11.263  11.052
68604W        W40930  17.367  22.185  11.587
68605W        W40931   6.125  22.470  10.090
68606W        W40932   6.322   3.784   3.118
68607W        W40933  39.823  27.883  14.779
68608W        W40934  11.725  33.854  12.133
68609W        W40935   5.004  37.951  13.752
68610W        W40936   2.276  30.460  14.873
68611W        W40937  16.879  28.929  12.577
68612W        W40938  10.660   9.382   3.348
68613W        W40939  39.806  39.629   1.445
68614W        W40940  33.969   3.682   3.290
68615W        W40941  39.463   5.341  11.304
68616W        W40942  26.597  22.259  12.009
68617W        W40943  14.677  19.819   1.143
68618W        W40944   3.450   9.640   5.445
68619W        W40945  18.280  10.576   2.655
68620W        W40946  29.995   6.654   0.907
68621W        W40947  24.993   2.867  12.954
68622W        W40948   6.819   3.763   2.904
68623W        W40949  37.542  37.621   3.282
68624W        W40950  19.764  37.924   1.660
68625W        W40951  41.568  23.590  12.130
68626W        W40952  39.983  13.684   0.356
68627W        W40953  40.377  40.721   4.137
68628W        W40954  44.992  17.549  12.475
68629W        W40955  27.479  15.202   1.151
68630W        W40956  22.023  25.997   3.960
68631W        W40957  27.584  26.560  11.983
68632W        W40958  24.680  25.930   2.786
68633W        W40959  32.913  34.666   1.307
68634W        W40960  17.557  22.492   2.269
68635W        W40961   4.168  18.267  14.505
68636W        W40962  15.605   0.731  12.900
68637W        W40963  35.459   9.933  14.971
68638W        W40964  29.309  43.903  12.503
68639W        W40965  34.384  13.165  14.728
68640W        W40966   0.479   2.211   5.273
68641W        W40967  20.527  38.721   4.994
68642W        W40968  16.220  41.836   2.646
68643W        W40969   3.226  40.888   3.636
68644W        W40970  11.161  33.667   4.638
68645W        W40971  44.141  44.477  12.712
68646W        W40972  21.189  21.635   0.398
68647W        W40973  16.219  38.016  10.791
68648W        W40974  31.823  20.262   3.748
68649W        W40975  23.618  25.657  12.563
68650W        W40976  17.652  12.031   3.715
68651W        W40977  39.523  17.825   3.761
68652W        W40978   8.399   7.927   0.581
68653W        W40979  44.057  38.769  13.933
68654W        W40980  35.090  23.963   4.339
68655W        W40981   6.707  11.429  11.792
68656W        W40982   6.154  38.933   2.690
68657W        W40983  12.751   9.737   3.692
68658W        W40984  21.633  40.147   2.213
68659W        W40985   9.251  37.073   1.941
68660W        W40986  13.854  15.177  10.658
68661W        W40987  26.451   2.737  14.943
68662W        W40988  39.491  36.622  10.513
68663W        W40989  34.093  29.008   0.734
68664W        W40990  25.186  43.293  14.410
68665W        W40991  13.695  19.075  10.715
68666W        W40992   8.640  21.193  10.936
68667W        W40993  22.008  32.889  13.743
68668W        W40994  19.988  12.320   3.608
68669W        W40995  34.857   8.810   2.189
68670W        W40996  10.852  17.234   4.890
68671W        W40997  40.992  15.278   3.911
68672W        W40998  14.783  34.985  11.099
68673W        W40999  24.445  44.076  12.570
68674W        W41000  11.993   0.681  12.111
68675W        W41001  20.136  39.973   3.759
68676W        W41002  17.389  10.199   2.606
68677W        W41003  43.872  17.331  11.419
68678W        W41004  33.372   7.286   2.757
68679W        W41005  27.540  35.470  12.286
68680W        W41006   0.493  38.459   1.788
68681W        W41007  31.647  30.459  12.992
68682W        W41008  37.274  17.512  10.331
68683W        W41009  28.615  12.806   1.576
68684W        W41010  16.669  27.063   0.933
68685W        W41011  29.641  29.704   2.295
68686W        W41012   0.038  43.583  12.989
68687W        W41013  37.384  34.585   2.271
68688W        W41014  10.700  37.733  11.483
68689W        W41015  42.641  33.682   4.225
68690W        W41016  11.131  29.072  13.413
68691W        W41017  24.665  18.247  13.972
68692W        W41018   7.295  27.133  13.058
68693W        W41019  13.289   0.724   3.343
68694W        W41020  30.414  14.711  14.554
68695W        W41021  13.290  24.231  13.467
68696W        W41022  20.130   5.273   1.232
68697W        W41023  19.588   3.477  12.511
68698W        W41024   7.709   7.071  11.708
68699W        W41025   1.029  18.672  10.979
68700W        W41026  34.041  17.514   4.709
68701W        W41027  12.143  11.735  11.982
68702W        W41028  35.006  16.665   1.663
68703W        W41029  39.237  40.466  12.886
68704W        W41030  30.529  38.789  13.816
68705W        W41031  22.304  35.407   2.121
68706W        W41032   1.442  40.087   1.275
68707W        W41033  15.261  34.140  14.200
68708W        W41034  25.031  16.436   3.536
68709W        W41035   8.423  13.215  10.670
68710W        W41036  36.413  14.569   4.908
68711W        W41037  11.313   6.278  13.530
68712W        W41038  41.317  42.854   2.404
68713W        W41039   8.011  19.553   1.197
68714W        W41040  13.960   6.393  14.405
68715W        W41041   7.290  32.875  14.222
68716W        W41042  27.727  33.113  10.501
68717W        W41043  35.898  41.590  13.431
68718W        W41044   3.978   0.473  13.407
68719W        W41045   8.652  32.559   3.353
68720W        W41046   3.341   2.432  10.252
68721W        W41047  39.334  40.365   4.739
68722W        W41048  42.092   9.307   2.644
68723W        W41049  16.845  31.840   3.366
68724W        W41050   1.441  20.605  13.091
68725W        W41051  11.040  38.640  12.792
68726W        W41052  23.063  42.360   0.529
68727W        W41053   4.411  34.393  13.881
68728W        W41054  10.612  26.196   2.812
68729W        W41055  34.380  43.107  13.814
68730W        W41056  38.454  30.342   2.763
68731W        W41057   1.798   4.508  13.744
68732W        W41058   1.250  44.371   4.149
68733W        W41059   9.631  37.823   0.371
68734W        W41060   3.743   5.089  13.185
68735W        W41061  32.665  10.411   0.725
68736W        W41062  17.938  38.317  13.968
68737W        W41063  38.883  42.913  10.592
68738W        W41064   0.306  39.074   3.324
68739W        W41065  38.594   1.679   0.382
68740W        W41066  24.702  32.789   3.286
68741W        W41067  23.272  29.713   2.309
68742W        W41068  21.248  39.407   1.838
68743W        W41069  12.409   9.293   2.851
68744W        W41070  41.418   0.537  14.343
68745W        W41071  32.441  43.286  11.704
68746W        W41072  33.882  17.851   2.747
68747W        W41073  34.943  16.095  14.026
68748W        W41074  33.340  38.043  12.985
68749W        W41075  10.233  27.411  12.455
68750W        W41076   6.724  28.195  10.218
68751W        W41077   0.912  35.081   1.830
68752W        W41078  33.472  30.613  10.306
68753W        W41079  42.451   6.418   2.203
68754W        W41080  26.384  38.780  12.781
68755W        W41081  28.045  23.986  11.823
68756W        W41082  41.924  35.528   1.077
68757W        W41083  37.246  34.051   2.342
68758W        W41084   4.223  31.555  14.520
68759W        W41085   1.922  19.996  14.294
68760W        W41086  20.227  32.295   4.541
68761W        W41087  34.847  37.880   0.338
68762W        W41088  43.526  24.897  13.870
68763W        W41089  39.789  13.120   3.282
68764W        W41090  10.225  12.078  13.968
68765W        W41091   0.503   4.275  12.030
68766W        W41092  38.077  10.545   1.957
68767W        W41093  33.952  14.576  11.678
68768W        W41094  43.937  26.530  11.356
68769W        W41095   9.135  34.825   2.730
68770W        W41096  33.099  15.790   3.076
68771W        W41097  44.443  43.524  13.624
68772W        W41098  10.335  35.513  14.582
68773W        W41099  32.702   0.425  11.881
68774W        W41100   3.578  20.071  12.119
68775W        W41101  25.140  14.674   5.046
68776W        W41102   0.936  22.068   2.260
68777W        W41103  30.413   6.912   1.230
68778W        W41104  36.598  13.798  11.833
68779W        W41105  39.264  43.570   2.001
68780W        W41106   4.692  32.861  12.023
68781W        W41107  31.199  38.977   5.038
68782W        W41108   8.764  15.610   3.213
68783W        W41109   0.052  37.420  14.532
68784W        W41110  33.635   7.918   2.494
68785W        W41111   9.277  41.366  11.700
68786W        W41112  14.513  25.664  12.962
68787W        W41113  22.572  26.248   1.835
68788W        W41114  18.954  40.133  13.994
68789W        W41115  29.020  44.903  11.442
68790W        W41116  29.728  36.980   5.007
68791W        W41117  29.186   3.123  11.619
68792W        W41118  20.526  20.851   4.150
68793W        W41119  44.025  17.079   1.799
68794W        W41120  37.873   8.502  12.211
68795W        W41121  37.576  33.005   4.977
68796W        W41122  17.442  37.252  13.995
68797W        W41123   9.701  30.817   0.722
68798W        W41124   3.032  26.488   1.967
68799W        W41125   8.058  44.449  13.969
68800W        W41126  28.357  28.488   0.563
68801W        W41127  12.129  44.964   2.053
68802W        W41128  17.053  10.723   1.951
68803W        W41129   0.586   1.707   1.386
68804W        W41130   7.290  38.497   4.291
68805W        W41131  21.558  27.242   2.765
68806W        W41132  40.460  10.399  13.069
68807W        W41133  29.691  28.451   4.736
68808W        W41134  22.579  34.056  14.977
68809W        W41135  19.273  23.305   2.510
68810W        W41136  29.076   8.217   3.262
68811W        W41137  13.838  19.468   2.174
68812W        W41138  42.230  20.194   4.534
68813W        W41139  10.415  30.060  11.453
68814W        W41140  18.102  13.898  14.889
68815W        W41141  34.503  25.288  14.053
68816W        W41142   2.915  20.658   1.298
68817W        W41143  29.203  33.385  13.892
68818W        W41144  41.288  32.139  14.308
68819W        W41145  21.093   3.833  13.554
68820W        W41146  26.295  12.376  12.199
68821W        W41147  12.330  24.106  10.175
68822W        W41148  12.452   7.848   4.534
68823W        W41149  30.606   8.419   2.722
68824W        W41150  36.459  32.347   1.908
68825W        W41151  17.672   9.714   4.902
68826W        W41152  21.593  12.140   0.753
68827W        W41153  20.025  34.905  14.720
68828W        W41154   5.622   8.655   5.179
68829W        W41155  16.772  29.189   3.242
68830W        W41156  26.749  29.230   3.955
68831W        W41157  33.740   3.842   3.730
68832W        W41158  17.710   2.813  13.048
68833W        W41159  28.152   7.016   0.813
68834W        W41160  12.697  19.352  12.925
68835W        W41161   5.821  10.427  11.485
68836W        W41162  31.027   7.853   4.505
68837W        W41163  43.433  39.453  14.900
68838W        W41164  13.896  30.625  14.377
68839W        W41165  11.755  21.421  13.016
68840W        W41166   9.770  41.889  12.841
68841W        W41167   5.714  20.235  12.530
68842W        W41168  30.152  15.743   4.819
68843W        W41169  14.590  33.708   1.240
68844W        W41170  11.593  40.826  11.651
68845W        W41171   1.998  28.694   3.270
68846W        W41172  16.012  12.058  11.162
68847W        W41173  37.956  12.535  14.113
68848W        W41174  10.849  35.965   3.996
68849W        W41175  16.739  33.843   3.447
68850W        W41176  22.191   8.238  13.923
68851W        W41177  34.522  34.580  12.066
68852W        W41178  12.113   1.367  13.747
68853W        W41179   9.663  14.891  13.595
68854W        W41180  42.478   3.325  13.850
68855W        W41181  28.666  10.927  14.366
68856W        W41182  33.088   4.161  10.429
68857W        W41183   1.905  37.582   4.639
68858W        W41184  27.649  33.313  12.290
68859W        W41185  38.542  23.032  13.534
68860W        W41186  40.912  11.770   1.436
68861W        W41187  37.265  28.420   0.421
68862W        W41188   8.463  10.751   2.823
68863W        W41189   9.688  44.499  11.292
68864W        W41190  43.010  17.611  12.296
68865W        W41191  12.948  33.519   5.461
68866W        W41192  41.097  27.431   2.772
68867W        W41193  20.633   1.850  13.626
68868W        W41194  17.734  25.860   4.758
68869W        W41195  24.217  11.419   3.326
68870W        W41196  29.478  37.090  14.315
68871W        W41197  32.753   6.775  10.774
68872W        W41198  37.399  26.677  11.916
68873W        W41199  30.530  18.093   4.502
68874W        W41200  39.966  32.997  14.838
68875W        W41201   0.645  14.097  11.080
68876W        W41202  15.384  26.074  14.274
68877W        W41203  41.050   3.457   4.150
68878W        W41204   5.243  23.562   0.253
68879W        W41205   5.393  39.922   2.371
68880W        W41206  43.824  37.920   3.590
68881W        W41207  20.143  37.649   1.987
68882W        W41208  23.028  34.690  12.577
68883W        W41209  43.005  23.403  12.754
68884W        W41210  24.634  18.301   3.560
68885W        W41211   9.404   7.444   3.664
68886W        W41212  33.649   2.915   3.908
68887W        W41213  18.201  23.617   1.757
68888W        W41214  16.147  39.263   4.124
68889W        W41215   6.164  31.355   1.856
68890W        W41216  44.269  20.221   1.975
68891W        W41217  10.912  34.794  12.436
68892W        W41218  39.344  29.713   0.028
68893W        W41219  31.369  40.917  14.300
68894W        W41220  32.437   1.715  13.002
68895W        W41221  38.330  37.130   0.228
68896W        W41222  32.820  22.608   0.031
68897W        W41223   0.335  20.420   4.507
68898W        W41224  14.089  19.656  11.608
68899W        W41225  23.729   3.690   0.476
68900W        W41226  37.431  29.970  14.569
68901W        W41227   7.305  17.214   1.686
68902W        W41228  26.729  19.188   0.118
68903W        W41229  29.482   3.171   2.310
68904W        W41230  24.646  21.767   2.360
68905W        W41231   4.767  20.108  12.962
68906W        W41232  40.935  24.539  11.491
68907W        W41233  34.094  41.790   4.551
68908W        W41234  11.281  15.836   1.950
68909W        W41235  13.359  15.070  11.165
68910W        W41236  10.098  17.324   4.181
68911W        W41237  38.901  43.829   5.154
68912W        W41238   0.182   4.712  12.024
68913W        W41239  27.911   7.693  10.750
68914W        W41240  12.209  42.393  10.931
68915W        W41241  12.604  15.865   2.798
68916W        W41242  21.234  23.581   4.926
68917W        W41243  20.114  18.656   4.058
68918W        W41244  19.226  28.912   4.046
68919W        W41245  39.950  25.688  13.024
68920W        W41246  36.551  16.091   3.127
68921W        W41247  22.352  39.836  10.316
68922W        W41248  39.416  25.190   1.608
68923W        W41249   6.090  23.170  14.439
68924W        W41250  14.716  28.338  10.724
68925W        W41251   7.276  34.382  12.902
68926W        W41252   3.436  40.298  13.446
68927W        W41253  36.098  21.438   3.803
68928W        W41254   3.396  29.873   3.196
68929W        W41255   7.364  14.191  10.728
68930W        W41256  12.852  10.663   0.623
68931W        W41257   5.072  31.661   0.539
68932W        W41258  22.789  17.619  13.064
68933W        W41259  21.280  27.623   4.975
68934W        W41260  14.653  10.338  11.640
68935W        W41261  40.604   5.727  12.045
68936W        W41262  38.413  34.590   1.373
68937W        W41263  40.423   7.418  12.617
68938W        W41264   4.176   5.342  11.745
68939W        W41265  15.456  37.259   4.195
68940W        W41266   6.564   9.205   2.987
68941W        W41267   9.006  20.100   1.882
68942W        W41268   4.658   7.363   3.353
68943W        W41269  11.943  24.253   2.043
68944W        W41270  27.639  38.045  11.169
68945W        W41271   5.874  37.563  12.592
68946W        W41272  28.070  30.952  13.481
68947W        W41273   0.320   1.303   4.521
68948W        W41274  16.096  12.577   3.201
68949W        W41275  12.641  32.483   4.693
68950W        W41276  35.389  29.655  13.966
68951W        W41277  43.959  10.485  10.751
68952W        W41278  32.574   2.290  13.899
68953W        W41279   9.617  22.802   0.847
68954W        W41280  39.615   2.702   3.082
68955W        W41281  26.673  15.069  14.975
68956W        W41282   7.339  21.509   2.722
68957W        W41283  30.587   5.764   4.152
68958W        W41284   2.887   4.990  10.070
68959W        W41285  40.741  17.192   0.925
68960W        W41286   1.248  23.583  10.205
68961W        W41287  19.612  29.220   4.166
68962W        W41288  12.289  34.650  11.061
68963W        W41289  43.142  11.351   4.432
68964W        W41290  39.261  17.135   3.599
68965W        W41291  43.028  10.815  13.995
68966W        W41292  34.979  44.653  10.571
68967W        W41293  42.693  17.261  12.490
68968W        W41294  37.588  27.682   0.975
68969W        W41295   4.229  33.909   3.298
68970W        W41296  35.838   6.260  11.084
68971W        W41297  32.196  27.432  12.757
68972W        W41298  36.804  42.588  13.697
68973W        W41299  39.456  40.039  10.903
68974W        W41300  36.383  19.071   2.264
68975W        W41301  28.999   4.969   2.268
68976W        W41302  41.579   4.754   4.195
68977W        W41303  40.310  36.451   2.865
68978W        W41304   2.811  10.810   3.618
68979W        W41305  22.664  39.287   2.184
68980W        W41306  36.044  19.256   0.428
68981W        W41307  15.033  26.227  14.796
68982W        W41308  38.022  20.985  10.505
68983W        W41309   8.085   3.333  12.762
68984W        W41310  41.383   0.700  12.424
68985W        W41311   7.916   0.062  11.674
68986W        W41312  11.831  13.773  14.380
68987W        W41313  11.253   8.519   0.910
68988W        W41314  37.949   1.734   0.792
68989W        W41315  21.761  24.535  10.863
68990W        W41316  15.584   1.357   1.619
68991W        W41317  31.623  32.664  13.951
68992W        W41318   7.571   1.872  11.044
68993W        W41319   7.432  34.595  10.666
68994W        W41320  40.938   3.520  11.120
68995W        W41321  18.696  38.505   1.940
68996W        W41322  23.135   9.449   2.843
68997W        W41323   5.044  22.554   2.302
68998W        W41324  26.992  29.922  13.841
68999W        W41325   5.367  30.692  10.643
69000W        W41326  13.519   6.686   2.213
69001W        W41327   6.548  17.619  12.039
69002W        W41328  35.776   4.394   0.307
69003W        W41329  12.853  13.360   0.834
69004W        W41330   9.667   8.814   1.282
69005W        W41331  16.844  34.377   0.222
69006W        W41332   5.869  21.351  13.415
69007W        W41333   5.072   0.865   3.295
69008W        W41334  33.973  34.127   2.391
69009W        W41335  28.348  17.922   0.777
69010W        W41336  24.924  21.671   1.425
69011W        W41337  39.503  25.046  14.758
69012W        W41338  11.279   1.201   2.575
69013W        W41339  14.798  31.144  12.517
69014W        W41340  12.764  14.897   3.156
69015W        W41341  37.578  43.252  14.013
69016W        W41342  15.677  42.971  13.304
69017W        W41343  25.663   6.223  12.917
69018W        W41344  44.008  35.063   0.309
69019W        W41345  43.536  27.972   3.729
69020W        W41346  14.111  36.493  13.059
69021W        W41347  39.889  40.874  14.502
69022W        W41348  22.750  29.680   1.185
69023W        W41349  24.561  25.149   1.896
69024W        W41350  21.274  26.358   1.870
69025W        W41351  15.448  27.489   3.194
69026W        W41352   2.937  42.984  13.018
69027W        W41353  41.440  32.438  13.930
69028W        W41354  43.378  12.734  13.442
69029W        W41355  19.702  23.134   4.741
69030W        W41356  39.402  14.549   1.868
69031W        W41357   3.803  29.901  13.767
69032W        W41358  43.498  24.184   4.629
69033W        W41359  26.565  25.595   0.876
69034W        W41360   6.712  22.275   0.949
69035W        W41361  11.195  11.095   3.280
69036W        W41362   0.501  32.628  13.992
69037W        W41363   5.819  31.030   0.953
69038W        W41364  19.734  14.752  12.545
69039W        W41365   6.035  26.712   2.095
69040W        W41366  26.665  32.375   2.235
69041W        W41367  18.311  19.657   3.916
69042W        W41368  30.112  41.079   0.278
69043W        W41369  24.141  33.890   2.225
69044W        W41370  39.059   6.234  10.983
69045W        W41371  39.960  20.316  12.058
69046W        W41372  25.956  38.859  14.967
69047W        W41373  44.930  18.132   1.795
69048W        W41374  34.598  29.575   2.654
69049W        W41375  43.016  43.234   0.370
69050W        W41376  43.533  35.094  14.327
69051W        W41377  26.943   6.341  10.590
69052W        W41378  19.499  44.544  13.102
69053W        W41379   8.377  11.316  13.912
69054W        W41380  26.866  44.043  10.117
69055W        W41381  19.880  44.314  10.982
69056W        W41382   0.122   0.688   4.139
69057W        W41383  11.771  41.918  13.029
69058W        W41384   8.328  18.549   2.900
69059W        W41385  17.775  39.297   0.584
69060W        W41386   5.705  23.277  14.105
69061W        W41387  42.514  13.619  14.363
69062W        W41388  22.892   0.243  12.272
69063W        W41389  28.874  43.817  10.562
69064W        W41390  43.788  27.028  13.922
69065W        W41391   4.717  42.436  13.145
69066W        W41392  31.625  29.943  13.052
69067W        W41393  17.336  28.033   4.058
69068W        W41394  16.250  13.844  10.592
69069W        W41395  41.293  30.690  12.083
69070W        W41396  15.148   7.229  14.809
69071W        W41397  40.888  21.692   0.757
69072W        W41398   3.745   9.914  12.489
69073W        W41399  16.955   6.003   1.241
69074W        W41400  11.731  39.904   4.896
69075W        W41401   2.514   9.668  13.103
69076W        W41402   0.045  19.932  11.122
69077W        W41403   6.622  11.872   2.739
69078W        W41404  39.697  35.668   1.711
69079W        W41405  11.615  41.536  12.372
69080W        W41406  26.038  39.971   4.530
69081W        W41407   0.902  26.454  14.510
69082W        W41408  15.391  37.305   2.294
69083W        W41409  24.446  42.268   3.371
69084W        W41410   9.915  31.640   0.864
69085W        W41411  33.486  21.160   4.250
69086W        W41412  25.171  39.660  10.235
69087W        W41413   4.947  17.708   1.138
69088W        W41414  41.970   2.244   4.203
69089W        W41415  22.688  21.641   4.636
69090W        W41416   8.453  19.287   4.518
69091W        W41417  15.828  19.115  13.902
69092W        W41418   7.719   7.667   1.859
69093W        W41419  43.352  42.285  11.584
69094W        W41420  43.744  18.180  12.890
69095W        W41421  35.890   1.296   1.280
69096W        W41422   5.124  20.883   1.949
69097W        W41423  25.949   6.984  12.390
69098W        W41424  29.350  18.015  14.043
69099W        W41425  43.622  29.170  14.312
69100W        W41426  38.877   9.108   4.653
69101W        W41427  36.555  28.765  10.791
69102W        W41428  20.537  11.407  13.862
69103W        W41429  27.761   9.157   1.000
69104W        W41430   7.447  29.553  12.962
69105W        W41431  19.694  14.426   3.219
69106W        W41432   9.676  13.878  10.747
69107W        W41433  35.932  30.086   2.283
69108W        W41434  14.060  28.488  13.895
69109W        W41435   1.297  21.118   3.529
69110W        W41436   8.490   7.240   1.766
69111W        W41437   9.004  15.194  14.994
69112W        W41438  11.923  18.156  14.194
69113W        W41439  40.412  16.398  14.816
69114W        W41440   0.343  19.363  14.839
69115W        W41441  19.275  36.884   2.270
69116W        W41442  41.937   3.641   5.391
69117W        W41443  18.026   4.830   2.925
69118W        W41444  40.973  15.899  13.382
69119W        W41445  40.840  28.226  14.363
69120W        W41446  19.333  18.236   2.786
69121W        W41447   7.560   3.692  12.514
69122W        W41448   5.769  30.424  10.826
69123W        W41449   0.886  28.627   4.611
69124W        W41450  20.521  22.131   4.136
69125W        W41451   4.331  14.668  14.397
69126W        W41452  40.752  42.230  12.020
69127W        W41453   5.103  24.475   2.397
69128W        W41454  37.593  13.326  14.315
69129W        W41455  13.579  27.100  13.895
69130W        W41456  25.061  44.833  11.835
69131W        W41457  42.065  35.104   3.293
69132W        W41458  15.002  18.152   1.422
69133W        W41459   2.354  12.614  12.183
69134W        W41460  24.690  18.770  13.651
69135W        W41461  26.369  17.947  10.905
69136W        W41462   5.586  32.929   3.482
69137W        W41463  21.908   2.410   4.116
69138W        W41464  24.018  16.975   4.425
69139W        W41465   4.847  29.020  12.124
69140W        W41466   9.095   3.255   0.828
69141W        W41467  40.873   4.028   1.440
69142W        W41468  18.744   9.968   0.829
69143W        W41469  31.512  32.001   3.211
69144W        W41470  24.806  15.237  14.272
69145W        W41471  12.853   6.450   1.411
69146W        W41472  39.396  37.811  11.954
69147W        W41473  24.554  31.634  10.696
69148W        W41474   9.687  15.200   2.375
69149W        W41475  44.482  43.026  13.612
69150W        W41476  22.669  25.388   4.541
69151W        W41477   6.463  26.454   0.953
69152W        W41478  32.929  22.882  11.159
69153W        W41479  18.493  11.045   2.723
69154W        W41480  19.269  43.820  14.872
69155W        W41481  42.486  39.090   4.502
69156W        W41482  36.886  19.049  10.999
69157W        W41483  19.703  36.514  11.430
69158W        W41484  26.388   4.927  10.386
69159W        W41485   5.216  34.987  13.097
69160W        W41486  19.654  41.658   2.181
69161W        W41487  22.988  22.528   4.605
69162W        W41488  21.176  32.927  13.905
69163W        W41489  44.240  26.191  11.148
69164W        W41490  40.024   0.364  12.807
69165W        W41491   7.571  39.783  14.050
69166W        W41492  39.246  12.287   3.674
69167W        W41493  42.324  30.117  11.686
69168W        W41494   6.283  17.071   0.680
69169W        W41495  42.992  26.573   3.136
69170W        W41496  22.254  31.645   2.306
69171W        W41497  20.011  31.927   1.307
69172W        W41498  41.326  30.228  14.402
69173W        W41499  28.102  29.796  11.402
69174W        W41500  17.619  17.825   3.014
69175W        W41501  20.523  34.889  11.544
69176W        W41502   9.655  36.060   3.125
69177W        W41503  31.520   1.745   1.382
69178W        W41504   0.376  42.938  12.453
69179W        W41505  18.779  42.888   5.075
69180W        W41506  31.985  17.019   4.307
69181W        W41507   4.305  33.342   1.497
69182W        W41508  18.243  20.618  10.741
69183W        W41509  20.994   6.862   0.341
69184W        W41510  35.531   9.827  11.810
69185W        W41511  12.158  39.533  13.944
69186W        W41512  28.201   5.251   1.829
69187W        W41513   4.182  33.994   0.447
69188W        W41514  37.316  10.629   1.175
69189W        W41515  17.300  28.579  11.364
69190W        W41516   6.412  17.041   1.771
69191W        W41517  36.970   0.333   3.027
69192W        W41518  39.377   8.402  13.005
69193W        W41519  21.955  33.476   1.775
69194W        W41520  17.493  25.107  12.017
69195W        W41521  40.730  16.050   3.626
69196W        W41522  35.070  29.542   0.299
69197W        W41523  16.092   5.921   0.189
69198W        W41524   4.713   7.080   1.298
69199W        W41525  31.181  32.445  11.564
69200W        W41526  22.691  41.709   2.498
69201W        W41527  30.004  39.623   2.189
69202W        W41528  42.616  41.759   1.142
69203W        W41529  27.023  29.533  13.490
69204W        W41530   6.268  18.350  13.375
69205W        W41531  38.306  23.633  10.467
69206W        W41532  21.250  38.498   3.358
69207W        W41533  27.882   4.047   1.286
69208W        W41534  36.932  32.074   2.737
69209W        W41535   6.355   5.718   3.311
69210W        W41536   4.203  30.306  11.947
69211W        W41537  27.451  10.650   1.966
69212W        W41538  13.781   0.839   0.184
69213W        W41539   5.399  27.184  12.847
69214W        W41540   2.291  36.309  13.737
69215W        W41541  19.850  38.981   4.565
69216W        W41542  36.435  26.160   4.946
69217W        W41543  33.460  29.006   3.899
69218W        W41544  20.351  15.627   3.202
69219W        W41545  32.363  29.690  13.531
69220W        W41546  18.801  32.693  13.942
69221W        W41547  39.510  29.141   3.718
69222W        W41548   6.890   3.530   2.233
69223W        W41549  15.502  37.835   2.292
69224W        W41550  27.084  22.983   3.582
69225W        W41551  37.668  14.086  10.111
69226W        W41552  34.093  26.484   4.564
69227W        W41553   9.823  31.518   1.748
69228W        W41554  36.232  34.946   5.455
69229W        W41555   5.048  19.000  14.460
69230W        W41556  36.514  11.740   4.563
69231W        W41557  34.555   6.177  11.500
69232W        W41558  28.889  36.508  10.693
69233W        W41559  16.124  40.246  14.337
69234W        W41560  17.183  42.875   3.187
69235W        W41561  33.071  25.436   4.833
69236W        W41562   3.430  12.581   1.322
69237W        W41563   1.838   3.828   4.722
69238W        W41564  34.410   9.935   0.440
69239W        W41565  38.958  42.847   5.387
69240W        W41566  11.638  15.670   3.822
69241W        W41567   3.831   4.805  13.648
69242W        W41568   4.232  16.750   1.829
69243W        W41569   4.929  44.190  14.925
69244W        W41570   4.012  13.936  14.012
69245W        W41571   7.645  26.909   1.671
69246W        W41572  15.043  12.347  13.813
69247W        W41573  32.102  21.550  10.707
69248W        W41574  21.557  38.786   1.725
69249W        W41575   1.006  25.547  14.471
69250W        W41576  20.604   8.405   1.693
69251W        W41577  18.219  15.570   0.610
69252W        W41578   5.814   9.204  12.334
69253W        W41579  38.845  26.890  10.638
69254W        W41580  39.838  41.346  12.847
69255W        W41581  32.094   2.262   1.003
69256W        W41582   9.857  16.415   2.749
69257W        W41583  40.837  25.163  14.937
69258W        W41584  19.606  31.592  13.584
69259W        W41585  20.619  38.530  11.505
69260W        W41586  23.937  16.156   3.746
69261W        W41587  41.691  22.254  13.830
69262W        W41588  40.448  13.167   1.624
69263W        W41589   3.481  41.331   3.567
69264W        W41590  10.292   3.923   1.688
69265W        W41591   2.154  38.944  12.974
69266W        W41592   0.686  22.790   5.592
69267W        W41593  15.339  17.218   2.679
69268W        W41594  40.704  31.637  12.876
69269W        W41595  16.727   0.436  14.858
69270W        W41596  33.538  11.554   4.033
69271W        W41597   2.979  19.281  10.735
69272W        W41598  38.045  17.156  12.517
69273W        W41599  40.893  17.094   4.026
69274W        W41600  23.694   5.307   4.577
69275W        W41601  44.971  41.021   1.270
69276W        W41602  11.162  33.764   1.978
69277W        W41603  22.114  14.110  14.756
69278W        W41604  14.714  38.257  13.631
69279W        W41605  31.224   2.858   3.780
69280W        W41606  39.964  14.697   2.922
69281W        W41607   3.449   7.673   0.823
69282W        W41608  23.153  35.097   0.995
69283W        W41609  39.865  17.745  10.520
69284W        W41610   7.236  44.325   0.712
69285W        W41611   6.825  37.572  10.164
69286W        W41612   2.314   5.652  14.377
69287W        W41613  36.395  19.104  14.326
69288W        W41614  30.909  37.923  11.690
69289W        W41615  16.024  13.755  11.045
69290W        W41616   7.321  15.647  11.532
69291W        W41617   2.859   5.350  13.254
69292W        W41618  18.580  23.270  13.344
69293W        W41619  18.719  37.443  14.278
69294W        W41620  27.516  29.933   4.028
69295W        W41621   9.169   9.355   0.463
69296W        W41622  37.686  14.543   2.289
69297W        W41623  23.829   7.432   4.848
69298W        W41624  27.926  31.160  11.692
69299W        W41625  16.727  15.816   1.773
69300W        W41626  28.455  27.730   1.804
69301W        W41627   2.371  10.028  12.788
69302W        W41628  27.664   4.243   0.300
69303W        W41629  29.183  35.963  11.923
69304W        W41630   5.727   6.662   0.228
69305W        W41631  26.690  39.259  10.963
69306W        W41632  37.500  26.407   0.342
69307W        W41633   2.791  28.544  12.638
69308W        W41634  42.806  31.292  12.115
69309W        W41635  39.398  40.044  14.385
69310W        W41636   0.586  40.102   3.738
69311W        W41637  20.060  29.271  12.009
69312W        W41638   3.966  30.582  12.627
69313W        W41639  12.626  35.004  12.928
69314W        W41640   0.557  19.873  11.176
69315W        W41641   3.898  33.097  12.449
69316W        W41642  28.607  28.964   9.764
69317W        W41643  38.307   5.949  10.692
69318W        W41644  33.930   5.672   3.341
69319W        W41645  41.118  10.329  14.942
69320W        W41646   5.481  42.061  13.901
69321W        W41647  20.044  21.023  11.669
69322W        W41648  23.650  43.483   2.683
69323W        W41649   1.293  40.506   2.157
69324W        W41650   2.090  31.999  10.181
69325W        W41651  21.802   4.949  14.023
69326W        W41652  43.392   5.720  13.112
69327W        W41653   2.944  11.822  10.630
69328W        W41654   3.420  17.786   1.334
69329W        W41655  16.677  36.877  13.552
69330W        W41656   7.840  40.202  10.018
69331W        W41657   2.249  27.891  10.339
69332W        W41658  19.063  15.285  13.496
69333W        W41659  28.476  10.424   4.236
69334W        W41660   3.646   8.399  13.891
69335W        W41661  19.034  14.803   1.383
69336W        W41662  39.367   2.249  14.177
69337W        W41663  25.963  28.907  12.579
69338W        W41664  20.471  29.456   2.258
69339W        W41665   0.741  43.536   4.062
69340W        W41666  19.909  39.964   1.875
69341W        W41667  22.785  20.534  11.589
69342W        W41668  31.163  26.472   2.639
69343W        W41669   5.739  16.102   2.743
69344W        W41670  29.494  25.468  14.311
69345W        W41671  17.337   3.440   3.287
69346W        W41672  14.336  34.954  13.467
69347W        W41673  41.916  13.343   2.279
69348W        W41674  39.322  19.191   3.639
69349W        W41675  44.363   2.058   3.203
69350W        W41676   1.192  11.947   4.505
69351W        W41677  36.252  31.436  11.540
69352W        W41678   6.657  25.686  11.021
69353W        W41679   0.434  37.622   4.170
69354W        W41680  35.594  43.493   0.547
69355W        W41681  41.518   9.901  10.672
69356W        W41682   0.966  12.351   3.311
69357W        W41683  27.666   0.694   4.020
69358W        W41684  40.679  32.743  11.552
69359W        W41685  24.071  15.789  14.070
69360W        W41686  12.088  31.412   2.648
69361W        W41687  33.984   7.367   4.087
69362W        W41688  12.792   1.678   0.922
69363W        W41689  36.960  32.513   0.757
69364W        W41690   0.815  35.546  14.312
69365W        W41691  35.673  34.350  13.053
69366W        W41692  21.560   2.043   4.095
69367W        W41693  42.926  36.931   0.846
69368W        W41694  28.491   0.722   1.933
69369W        W41695  26.905  19.383  11.593
69370W        W41696  19.827  41.172   2.374
69371W        W41697  30.146  34.485  12.637
69372W        W41698  24.739  23.407   1.096
69373W        W41699  19.322   2.007  11.658
69374W        W41700  15.103  26.634   3.421
69375W        W41701  18.012   4.156  13.802
69376W        W41702  18.215  40.953  12.839
69377W        W41703  42.149  17.475  12.466
69378W        W41704  14.359   6.306  14.933
69379W        W41705  36.383  15.654   3.379
69380W        W41706  38.846   3.855   0.200
69381W        W41707   6.619  37.452   1.207
69382W        W41708  30.875  29.160  13.894
69383W        W41709  29.681  11.793   3.277
69384W        W41710  41.511  43.384  12.035
69385W        W41711  15.470  43.345   2.812
69386W        W41712   9.729  43.011  11.695
69387W        W41713  14.861  22.426   4.585
69388W        W41714   3.019  29.232   3.779
69389W        W41715  15.307  21.684   4.671
69390W        W41716   1.322  12.635   1.221
69391W        W41717  22.416  26.162  14.313
69392W        W41718  13.768   4.684  14.905
69393W        W41719  30.186  44.319   0.997
69394W        W41720  15.035  10.457   3.351
69395W        W41721  16.385  14.113  11.018
69396W        W41722  38.089  23.664   3.329
69397W        W41723  21.393  16.335  14.977
69398W        W41724  42.508  18.146   3.705
69399W        W41725  44.900  44.632   0.933
69400W        W41726  11.748   2.367   0.411
69401W        W41727  30.760  21.104   0.268
69402W        W41728  21.828  14.064  12.574
69403W        W41729  32.487  27.063  10.730
69404W        W41730  36.510  31.233  13.793
69405W        W41731  21.177  35.967   2.436
69406W        W41732  17.528  41.529  13.532
69407W        W41733  18.492  14.070   3.286
69408W        W41734  26.192   2.405   4.716
69409W        W41735   3.852   7.467   9.958
69410W        W41736   0.412   9.390  12.006
69411W        W41737  14.556  18.868  11.650
69412W        W41738  28.170  32.132  13.040
69413W        W41739  17.365  38.585   1.468
69414W        W41740   5.349  31.598  14.502
69415W        W41741   7.921  27.739   1.206
69416W        W41742  20.772  15.647  14.550
69417W        W41743  24.535  11.590   0.531
69418W        W41744  34.620  29.970  11.537
69419W        W41745  42.854   2.478  14.539
69420W        W41746  36.402  32.925  12.793
69421W        W41747  24.896  26.432   2.608
69422W        W41748  35.090  34.229  12.300
69423W        W41749   5.282  42.442  11.229
69424W        W41750  23.002  32.072  10.693
69425W        W41751  26.188   9.924   3.152
69426W        W41752  39.423  20.463  13.370
69427W        W41753   1.917  42.038  13.747
69428W        W41754  22.184  28.404   2.120
69429W        W41755  37.408   9.040  14.429
69430W        W41756  32.352   1.525   0.019
69431W        W41757  16.782  24.000   0.316
69432W        W41758  19.550  36.838  11.060
69433W        W41759  21.196  15.532   4.100
69434W        W41760  26.857  22.660   2.696
69435W        W41761  15.162   2.182   0.242
69436W        W41762  40.084  28.392   4.272
69437W        W41763   6.414   5.385  11.187
69438W        W41764  35.814  36.231   5.063
69439W        W41765  10.778  15.507  10.975
69440W        W41766  24.479  12.286  14.393
69441W        W41767  17.161  24.750  11.565
69442W        W41768  43.912  40.559   1.456
69443W        W41769  41.779  33.093   3.135
69444W        W41770   5.224  31.600   4.600
69445W        W41771  34.687  21.316  11.124
69446W        W41772  43.517  12.583   0.429
69447W        W41773  34.597  35.990   2.191
69448W        W41774  33.502  35.140  13.400
69449W        W41775  38.634   1.962  10.326
69450W        W41776   6.386  33.076   4.609
69451W        W41777  29.963  36.968   3.714
69452W        W41778   5.441   6.180  11.158
69453W        W41779  21.405   7.273  14.274
69454W        W41780  27.874  29.069   4.657
69455W        W41781  11.840  35.989   3.606
69456W        W41782  35.666   3.634   0.208
69457W        W41783  44.263  36.770   1.770
69458W        W41784  29.839  20.568  12.026
69459W        W41785  17.332  11.431   4.915
69460W        W41786   0.789  17.591   1.714
69461W        W41787  24.491  19.732   2.119
69462W        W41788  28.473  12.006   3.889
69463W        W41789   7.734  36.933   1.771
69464W        W41790  36.636  14.159   3.698
69465W        W41791  21.714  30.908  12.481
69466W        W41792  13.152  28.673  11.708
69467W        W41793   1.200   1.863   3.138
69468W        W41794  10.683  23.504  12.937
69469W        W41795  40.272  30.071   1.600
69470W        W41796   4.982  30.880  11.835
69471W        W41797  14.784  14.357   1.275
69472W        W41798  26.468  28.628  13.402
69473W        W41799  26.991  44.974   4.349
69474W        W41800   5.307   3.951  13.874
69475W        W41801  25.672  22.096   4.523
69476W        W41802  23.339  35.405   2.833
69477W        W41803  24.012  32.825   3.744
69478W        W41804  41.767  19.078  13.580
69479W        W41805  30.943  16.326   4.102
69480W        W41806  40.710   7.782  13.967
69481W        W41807  31.333  19.642   5.176
69482W        W41808   4.976   2.333   0.734
69483W        W41809  35.394   9.102  12.038
69484W        W41810   9.245  19.310   0.739
69485W        W41811  35.420  18.444   1.016
69486W        W41812  35.282  16.822   0.840
69487W        W41813  30.559  34.853   4.444
69488W        W41814  27.706  31.353  13.358
69489W        W41815  38.996  10.885   0.810
69490W        W41816   6.778  21.097  13.760
69491W        W41817   6.012   0.793  14.757
69492W        W41818   5.989  27.618   3.733
69493W        W41819   1.482  17.059  14.044
69494W        W41820   7.327  14.757   2.211
69495W        W41821  35.415  30.090   0.314
69496W        W41822  20.146   2.757   3.426
69497W        W41823  29.642  27.620  13.948
69498W        W41824  26.658  10.733  10.604
69499W        W41825  20.923  28.854   4.079
69500W        W41826  33.540  40.322  14.410
69501W        W41827  40.286  23.792   0.940
69502W        W41828   9.180  39.246  13.856
69503W        W41829  32.006  25.313  12.145
69504W        W41830  27.645  20.086  10.712
69505W        W41831  26.083  41.734   0.495
69506W        W41832  11.638  38.068  12.159
69507W        W41833  32.408   2.184   4.731
69508W        W41834  17.167  11.818  11.945
69509W        W41835  15.035   4.327   0.315
69510W        W41836  28.659   4.925  10.733
69511W        W41837  34.918  37.607   1.209
69512W        W41838  44.485  31.420   2.530
69513W        W41839  12.303  42.954  14.355
69514W        W41840  31.871  11.077   4.793
69515W        W41841  25.438   5.635  11.973
69516W        W41842  36.023  42.029   2.248
69517W        W41843  39.126  11.253   1.438
69518W        W41844  12.829  43.222   4.183
69519W        W41845  22.017   8.687  13.772
69520W        W41846  44.480   4.256   2.743
69521W        W41847  12.552  40.897  12.534
69522W        W41848  12.049  42.364   4.880
69523W        W41849  35.599  22.979  12.285
69524W        W41850  30.445  38.545  12.167
69525W        W41851  28.841  39.310   0.793
69526W        W41852  27.100   2.311  12.156
69527W        W41853  28.983  17.711  10.626
69528W        W41854   7.958   3.714  11.266
69529W        W41855  22.088  35.565   4.585
69530W        W41856  25.592  41.485   4.600
69531W        W41857  24.990  14.123   2.642
69532W        W41858  31.540  17.563   1.246
69533W        W41859   7.875  24.737  11.670
69534W        W41860   4.155  29.765  12.768
69535W        W41861   7.994  31.007   4.384
69536W        W41862   4.346  20.605   3.657
69537W        W41863  12.030   1.938  14.111
69538W        W41864  22.875  14.775   5.227
69539W        W41865   6.888  26.693  14.409
69540W        W41866  40.363  14.999  11.976
69541W        W41867  39.085  41.851   1.305
69542W        W41868  23.412   3.558   3.202
69543W        W41869  15.461   5.468  12.024
69544W        W41870  16.606  40.729   2.204
69545W        W41871  34.855  44.039   3.225
69546W        W41872   4.633  42.149   0.741
69547W        W41873  18.106  15.935   3.273
69548W        W41874  18.591  29.509   0.737
69549W        W41875   9.837   5.897  13.016
69550W        W41876  30.501   0.561   4.188
69551W        W41877  20.569  31.666   1.111
69552W        W41878   9.252  12.312  11.219
69553W        W41879  13.230  10.830  10.774
69554W        W41880  31.056  39.338  12.986
69555W        W41881  23.971  24.643  11.910
69556W        W41882  11.938   8.930  14.039
69557W        W41883  28.401  11.154   0.014
69558W        W41884  32.943  44.366  14.723
69559W        W41885  43.256  40.303  13.359
69560W        W41886  12.195  43.051   1.268
69561W        W41887  21.238  37.821  12.070
69562W        W41888  12.223  28.465   1.305
69563W        W41889  32.162   5.131   0.291
69564W        W41890  41.582   5.734   1.425
69565W        W41891   8.867  15.358  10.546
69566W        W41892   5.927  33.968   4.953
69567W        W41893  41.593  29.129  11.121
69568W        W41894  33.944  37.671  10.554
69569W        W41895   3.894  16.188   3.074
69570W        W41896  23.067  30.950  14.199
69571W        W41897  19.442  26.753   2.424
69572W        W41898  25.373  30.172   1.207
69573W        W41899   2.929  24.639   3.141
69574W        W41900   1.804  38.912   0.833
69575W        W41901   2.832  15.081  14.909
69576W        W41902  14.358  25.166   0.544
69577W        W41903  27.173  32.434  14.404
69578W        W41904  29.159  32.949   2.823
69579W        W41905  13.275  44.934  10.934
69580W        W41906  24.267  15.822  12.485
69581W        W41907  34.659  29.517  14.380
69582W        W41908  38.920   6.047   3.560
69583W        W41909  35.861  37.322   0.311
69584W        W41910  33.240  16.657   2.868
69585W        W41911   6.485  11.776  11.497
69586W        W41912  12.709  23.770  11.396
69587W        W41913   2.847  29.549  10.949
69588W        W41914   3.852  42.516  14.648
69589W        W41915   3.002   4.231  14.443
69590W        W41916  41.543  12.735  12.042
69591W        W41917  11.180  33.568   0.548
69592W        W41918  21.991  25.081  11.503
69593W        W41919  38.001  38.357  14.252
69594W        W41920  31.902  20.901   4.207
69595W        W41921  32.033  24.500  11.021
69596W        W41922  10.806  43.076  10.739
69597W        W41923   6.297  25.884   2.403
69598W        W41924   1.787   8.315   3.050
69599W        W41925  22.958  28.938   2.071
69600W        W41926  29.349   2.503  13.287
69601W        W41927  44.730  13.123  12.005
69602W        W41928  29.119  44.762  13.088
69603W        W41929  13.609  34.515   4.617
69604W        W41930  31.359   3.981  11.664
69605W        W41931   0.218   1.892   3.541
69606W        W41932  30.117  27.061  13.418
69607W        W41933  44.952   4.980  14.538
69608W        W41934  17.622  34.014   1.434
69609W        W41935  36.484   9.422   2.180
69610W        W41936  27.681  13.111   3.275
69611W        W41937  28.676   2.217  11.154
69612W        W41938  18.845  36.402  12.014
69613W        W41939  12.449  32.025   4.533
69614W        W41940   8.799  37.510  12.843
69615W        W41941  28.560  40.541  13.014
69616W        W41942  19.136  22.519   1.397
69617W        W41943  31.915   9.851   0.739
69618W        W41944  33.621   1.840   3.587
69619W        W41945  22.583  25.496   2.374
69620W        W41946  17.640   5.081   3.190
69621W        W41947   5.867  14.178  14.583
69622W        W41948  39.073  32.514   2.129
69623W        W41949  35.486  21.582   1.880
69624W        W41950  27.052  39.956  14.515
69625W        W41951  10.173  31.200   3.876
69626W        W41952   7.751  41.147  12.130
69627W        W41953  37.067  13.688  11.099
69628W        W41954   3.952  33.941   4.719
69629W        W41955   3.273  14.101  10.352
69630W        W41956  39.309  31.344   1.690
69631W        W41957  23.686   5.986  12.483
69632W        W41958  14.232  27.718  12.468
69633W        W41959  16.959  44.809  12.039
69634W        W41960  31.581  18.488   4.215
69635W        W41961  40.978  31.859   1.978
69636W        W41962   9.189  36.227   2.869
69637W        W41963  26.254   1.218   3.972
69638W        W41964  38.116  34.640   1.799
69639W        W41965  22.062   0.963  14.939
69640W        W41966  25.670  30.573  13.812
69641W        W41967  17.779  25.894  12.476
69642W        W41968   1.235  27.693  12.666
69643W        W41969  43.159  28.629  11.412
69644W        W41970  41.464  14.381  13.157
69645W        W41971  11.808  15.258   3.553
69646W        W41972  40.122  20.954   1.794
69647W        W41973  19.526  23.802  13.851
69648W        W41974  38.146   4.723   3.288
69649W        W41975  35.366  35.750   4.135
69650W        W41976   2.234  39.948   1.219
69651W        W41977  27.025  10.361   4.076
69652W        W41978   0.412  41.013   3.293
69653W        W41979  33.676  27.677  12.524
69654W        W41980  16.540  23.642  14.007
69655W        W41981  39.509  30.939  10.684
69656W        W41982   8.209  17.192   2.298
69657W        W41983   0.270   0.964  14.407
69658W        W41984  38.741  27.948  10.758
69659W        W41985  24.961  42.904   2.318
69660W        W41986   3.988  31.555   1.718
69661W        W41987  38.910  28.699  12.583
69662W        W41988  37.783  41.415   4.602
69663W        W41989   2.764  25.039  14.833
69664W        W41990  19.021   9.080   3.491
69665W        W41991  43.972  13.767  14.364
69666W        W41992   4.414  33.038   4.259
69667W        W41993  10.605  29.485   2.210
69668W        W41994  42.724   9.449  13.846
69669W        W41995  30.706  28.585  10.682
69670W        W41996   9.472   0.715  14.483
69671W        W41997  25.457  14.758   4.205
69672W        W41998  16.639  14.893   1.324
69673W        W41999  11.634   7.896   1.149
69674W        W42000   9.385   7.002  13.817
69675W        W42001  33.100  30.156  11.300
69676W        W42002  19.328  32.039   4.591
69677W        W42003   4.305  32.122  11.084
69678W        W42004   7.469  25.718  11.619
69679W        W42005  31.696   6.091  12.861
69680W        W42006  15.811   7.711   2.854
69681W        W42007  26.234   0.709  13.448
69682W        W42008   8.130  24.272  11.119
69683W        W42009   7.459  27.947  13.323
69684W        W42010  16.573  21.991  11.109
69685W        W42011  38.096  21.089  12.541
69686W        W42012  17.735  12.387   3.365
69687W        W42013  44.268  14.350   4.635
69688W        W42014  37.654  17.092  12.863
69689W        W42015  26.671   8.758   4.703
69690W        W42016   7.108   1.252   3.735
69691W        W42017  43.574  31.923   0.638
69692W        W42018  24.716   9.805   1.491
69693W        W42019   2.230   6.688   4.367
69694W        W42020  23.309  28.226   4.579
69695W        W42021  20.243  36.840   2.337
69696W        W42022  30.945  29.979  12.461
69697W        W42023   7.964  11.307  12.973
69698W        W42024  13.603  17.814   3.760
69699W        W42025  19.994   3.776   0.418
69700W        W42026  33.382  31.352   1.300
69701W        W42027  40.258  44.295  13.831
69702W        W42028  34.613  23.088   2.809
69703W        W42029  24.893  26.129  14.937
69704W        W42030   3.663  24.575  12.076
69705W        W42031   6.705  39.231  14.038
69706W        W42032  13.227   0.393  12.046
69707W        W42033   4.433  28.770  13.087
69708W        W42034  39.294  40.497  11.060
69709W        W42035  35.020  44.243  10.272
69710W        W42036  12.085   0.011   0.295
69711W        W42037  40.445  11.564   0.794
69712W        W42038  30.438  26.117   4.700
69713W        W42039  24.534  13.912  10.450
69714W        W42040  43.763  41.523   3.261
69715W        W42041   4.481   2.385   3.777
69716W        W42042  29.084   4.449  12.980
69717W        W42043  24.903  26.197  13.429
69718W        W42044  20.452  14.107  10.039
69719W        W42045  15.293  42.486  14.990
69720W        W42046  19.154  25.974  12.513
69721W        W42047  28.402  44.683   3.117
69722W        W42048  12.083  40.926  11.495
69723W        W42049  41.898  30.436  12.175
69724W        W42050  44.070  43.946  11.515
69725W        W42051   9.875  21.625   4.712
69726W        W42052  21.300  14.203   3.792
69727W        W42053  23.629   8.124  14.941
69728W        W42054  25.486   7.157   1.234
69729W        W42055  13.089  18.197  14.899
69730W        W42056  15.084  15.321   1.703
69731W        W42057  13.730  39.478  12.431
69732W        W42058  41.169  26.928  14.791
69733W        W42059  20.742   0.943  14.421
69734W        W42060  36.074  30.367  10.697
69735W        W42061  13.226   7.716  14.369
69736W        W42062   8.612  11.003   1.210
69737W        W42063  31.589  41.778   2.356
69738W        W42064   3.712  26.471  13.914
69739W        W42065  17.716  36.801  14.059
69740W        W42066  18.193  34.611  11.997
69741W        W42067  17.280  28.365  13.380
69742W        W42068  41.351  43.356   5.007
69743W        W42069  18.255  42.677  11.673
69744W        W42070   2.976  21.994  14.037
69745W        W42071  23.375  18.297   1.708
69746W        W42072  20.812  34.424  14.776
69747W        W42073  43.466  15.600   1.481
69748W        W42074  30.884  26.062  14.489
69749W        W42075  17.535  26.046  13.473
69750W        W42076  19.965   5.716   1.428
69751W        W42077  11.271  35.607  12.975
69752W        W42078  29.136  20.131  10.681
69753W        W42079  11.326  22.742  10.864
69754W        W42080   2.683  11.216  10.286
69755W        W42081   1.555  42.934  11.705
69756W        W42082  30.431  27.687   2.680
69757W        W42083  41.935  44.803  11.632
69758W        W42084  23.551  11.625  13.030
69759W        W42085  43.069  26.475  12.990
69760W        W42086  41.219  30.417  14.938
69761W        W42087  32.060   3.396  10.606
69762W        W42088   8.165  22.495   2.402
69763W        W42089   5.899   8.729  10.730
69764W        W42090  29.990   3.592  10.694
69765W        W42091  19.523  20.786  13.400
69766W        W42092  32.070  30.139   3.330
69767W        W42093   3.568  33.394   4.091
69768W        W42094  32.545  41.766  13.571
69769W        W42095  27.010  43.845   3.671
69770W        W42096  44.312  20.983  14.747
69771W        W42097  33.892  26.417  11.475
69772W        W42098  10.683   8.248   2.818
69773W        W42099  17.724  16.864   0.088
69774W        W42100   6.504  26.049   3.432
69775W        W42101  25.100   5.178   4.262
69776W        W42102  18.629  24.503  14.754
69777W        W42103   5.221  35.056  11.171
69778W        W42104  44.354  36.640  14.938
69779W        W42105  23.549  40.042   3.261
69780W        W42106  24.498  21.437   4.231
69781W        W42107  26.761  36.943   0.003
69782W        W42108  23.507  30.422   2.474
69783W        W42109  36.363  18.735   0.713
69784W        W42110  32.544  44.484   0.901
69785W        W42111  24.006  39.943  13.492
69786W        W42112   7.186  21.635   1.268
69787W        W42113  10.422  25.265   2.390
69788W        W42114   6.041   8.238   1.251
69789W        W42115  25.169   4.974  13.356
69790W        W42116  31.063  34.567   3.269
69791W        W42117  40.000  42.310   4.513
69792W        W42118  35.541   6.652   5.041
69793W        W42119  23.243  39.119  10.055
69794W        W42120  37.833   0.880  11.542
69795W        W42121  19.092   6.104  11.920
69796W        W42122  39.083  17.542  10.011
69797W        W42123  20.159   7.904  13.727
69798W        W42124  13.305  38.381  12.225
69799W        W42125  32.566  40.987  14.030
69800W        W42126   1.762  28.878  11.698
69801W        W42127  37.307  38.554  12.460
69802W        W42128  12.245  29.054   0.357
69803W        W42129  31.628  23.239   1.914
69804W        W42130  18.848  26.629   1.349
69805W        W42131  38.309  30.159  13.398
69806W        W42132   4.251  13.716   1.271
69807W        W42133  40.826   4.878   1.990
69808W        W42134  32.335  14.715  14.019
69809W        W42135  14.465  20.309  10.948
69810W        W42136  22.169  36.795  10.720
69811W        W42137  33.082   3.451  10.666
69812W        W42138  44.914  34.448   0.854
69813W        W42139  34.028  26.024  14.117
69814W        W42140  30.400  12.681  13.806
69815W        W42141   8.843  12.154   2.793
69816W        W42142  27.046  44.811   0.256
69817W        W42143   9.285  42.859   2.345
69818W        W42144  23.523  31.797   2.602
69819W        W42145  40.367   0.401   0.859
69820W        W42146  27.971   1.918  13.773
69821W        W42147  22.251  22.452  13.883
69822W        W42148  29.525  31.655   2.729
69823W        W42149  12.333  29.062   3.619
69824W        W42150   7.726  42.633  12.725
69825W        W42151  26.608  44.036   1.801
69826W        W42152  26.489  43.994  10.515
69827W        W42153  11.264   3.441   3.238
69828W        W42154  28.160   1.787   9.890
69829W        W42155   4.713   4.741  10.695
69830W        W42156  44.752  15.726   0.506
69831W        W42157  31.524  28.947  13.396
69832W        W42158  43.233  18.207  12.939
69833W        W42159   4.501  12.682   3.961
69834W        W42160   5.773  21.092   3.709
69835W        W42161  36.173  26.013   2.460
69836W        W42162   2.192  37.631   3.860
69837W        W42163  15.555  30.603  12.913
69838W        W42164  29.179  18.028   2.302
69839W        W42165   3.896  44.088  10.665
69840W        W42166  29.853  12.798   2.896
69841W        W42167   9.054  34.381   0.762
69842W        W42168   4.233  37.855   2.302
69843W        W42169   3.316  37.840  10.907
69844W        W42170  28.942  23.948  11.009
69845W        W42171  35.551  16.225   0.330
69846W        W42172  26.744   0.101  11.280
69847W        W42173  10.711  28.155  13.444
69848W        W42174  33.172  20.242  11.034
69849W        W42175  19.772  23.057   3.870
69850W        W42176  35.434  32.921  10.742
69851W        W42177  16.755  13.642  10.586
69852W        W42178  12.851  34.421   4.138
69853W        W42179   9.192   4.709  13.454
69854W        W42180  13.792  18.133  13.226
69855W        W42181  15.133  17.684   0.707
69856W        W42182  13.108  16.489   4.461
69857W        W42183  18.878  27.165   2.343
69858W        W42184  24.662  14.188  13.032
69859W        W42185  21.132  42.457  13.981
69860W        W42186  32.379  44.524  14.259
69861W        W42187  19.773  28.988  14.152
69862W        W42188  31.477  31.168   2.223
69863W        W42189  29.330   9.679   2.182
69864W        W42190  44.041  17.077   2.953
69865W        W42191  24.524  42.513  14.658
69866W        W42192   7.802  19.250   1.863
69867W        W42193  18.070  40.296   0.949
69868W        W42194  19.012   6.484   3.324
69869W        W42195  29.163  27.165   4.032
69870W        W42196  21.412  12.680   1.914
69871W        W42197  36.662  35.346   1.586
69872W        W42198  40.874   0.420   4.099
69873W        W42199  22.212  30.319   3.918
69874W        W42200  37.475  38.644  10.781
69875W        W42201  31.894  36.674   1.779
69876W        W42202   0.932  37.133   0.793
69877W        W42203  19.918  24.086   0.954
69878W        W42204  22.099  33.438  10.575
69879W        W42205   9.624  26.521  14.783
69880W        W42206  25.260  23.599   2.706
69881W        W42207  37.431  40.245  13.140
69882W        W42208  33.019  29.124  11.014
69883W        W42209  29.365  41.324  13.015
69884W        W42210  31.636  23.771   1.322
69885W        W42211   9.724  40.311   1.392
69886W        W42212  21.157  22.610   3.800
69887W        W42213  29.166   8.767  13.976
69888W        W42214   4.947  37.988  10.021
69889W        W42215  12.770  28.455   3.285
69890W        W42216  15.513  11.010   0.418
69891W        W42217   3.699   5.303   2.412
69892W        W42218  40.294  26.647  13.339
69893W        W42219  11.202  30.935   3.157
69894W        W42220  18.556  12.370   3.652
69895W        W42221  10.148  37.612   4.225
69896W        W42222  20.504  23.201  14.619
69897W        W42223  19.813  41.496  13.374
69898W        W42224  24.284  28.152   2.622
69899W        W42225  41.849   1.939  11.653
69900W        W42226  27.526  30.236  14.580
69901W        W42227  27.211  28.535   1.978
69902W        W42228   2.365   8.465   0.694
69903W        W42229   2.697  39.386  13.561
69904W        W42230   8.228  21.030  13.522
69905W        W42231  17.640  43.243   2.360
69906W        W42232  24.583  36.865  11.139
69907W        W42233  12.654   3.440  11.268
69908W        W42234   5.834  33.582   0.793
69909W        W42235   7.343  29.617   0.195
69910W        W42236   2.896  20.229   0.392
69911W        W42237  39.050  30.547  13.988
69912W        W42238   0.702  22.205  10.959
69913W        W42239  28.566  24.738   2.486
69914W        W42240  37.574  21.868   3.774
69915W        W42241   2.898   0.946   2.338
69916W        W42242  29.782  44.903  12.012
69917W        W42243  23.196  13.327   0.265
69918W        W42244  32.393  39.489  11.127
69919W        W42245   2.585  38.781  13.946
69920W        W42246  43.369  16.821  13.158
69921W        W42247   4.717  26.780   2.409
69922W        W42248  21.096  28.876   4.568
69923W        W42249  12.053  16.783  11.510
69924W        W42250  29.344  18.766   0.313
69925W        W42251   0.925  36.811   0.361
69926W        W42252  10.584  12.537   0.776
69927W        W42253  29.493  36.026  10.049
69928W        W42254  11.588  37.885   3.786
69929W        W42255  27.371  14.312   1.111
69930W        W42256  27.630  44.187  14.064
69931W        W42257  12.549   5.884  13.456
69932W        W42258  27.651  15.171   0.667
69933W        W42259  16.699  22.746  12.681
69934W        W42260  35.512  43.351   2.791
69935W        W42261  10.189   2.915  12.055
69936W        W42262  19.475  18.392   1.377
69937W        W42263  16.306  38.736   4.053
69938W        W42264  42.925  17.102   0.263
69939W        W42265   7.148  39.978   1.156
69940W        W42266  25.408  27.671   4.400
69941W        W42267  30.481   1.073   4.084
69942W        W42268  30.020  27.008   1.445
69943W        W42269  25.268   1.636  14.907
69944W        W42270  34.199  43.932  10.704
69945W        W42271   8.150  36.800  13.788
69946W        W42272  42.925   4.806   0.437
69947W        W42273  44.732   3.500   1.811
69948W        W42274  18.082  33.607  12.006
69949W        W42275   9.148   2.445   3.257
69950W        W42276  31.558  14.219   1.911
69951W        W42277  24.599   4.603  13.743
69952W        W42278  15.198   5.494  12.477
69953W        W42279  15.915  40.984   3.184
69954W        W42280  13.858  25.963   3.454
69955W        W42281  34.889  16.688   1.149
69956W        W42282  13.743  21.182   0.267
69957W        W42283   4.804  35.815  11.059
69958W        W42284  21.978  41.744   4.540
69959W        W42285  22.553  18.742  11.808
69960W        W42286  44.701  13.310  10.604
69961W        W42287  27.683  14.278  12.014
69962W        W42288  27.047   1.289  12.088
69963W        W42289  18.933  41.547  12.568
69964W        W42290  29.032  21.058  11.494
69965W        W42291  33.127  35.390   3.158
69966W        W42292   1.668  16.974   3.396
69967W        W42293  12.171  44.608  12.568
69968W        W42294  34.956  38.477  12.421
69969W        W42295  14.632  11.802   1.264
69970W        W42296  19.430   2.832   2.190
69971W        W42297  33.940  32.892  13.371
69972W        W42298  17.753  40.535  10.634
69973W        W42299  41.284  10.557   1.357
69974W        W42300  22.085  17.217   1.319
69975W        W42301   0.582  36.764  13.379
69976W        W42302  41.519  41.067   1.596
69977W        W42303  42.397  13.093  10.638
69978W        W42304  27.188  17.598   4.549
69979W        W42305   0.398  16.257   3.733
69980W        W42306   4.192  27.274  12.864
69981W        W42307  28.875  20.157  11.653
69982W        W42308  26.904  28.107   1.841
69983W        W42309  42.731  21.362   2.281
69984W        W42310  34.521  28.959  12.369
69985W        W42311  20.542  38.044  11.454
69986W        W42312  33.626   1.230   3.508
69987W        W42313  15.540  15.637   3.227
69988W        W42314  28.508  10.351  10.722
69989W        W42315  10.730  27.061   1.104
69990W        W42316  10.880   0.296  11.990
69991W        W42317  25.811   6.214  14.316
69992W        W42318  24.531  43.827   0.307
69993W        W42319  32.075  15.591   0.211
69994W        W42320  38.602  10.470   0.681
69995W        W42321  13.587  40.080   0.869
69996W        W42322   5.482   5.116  11.188
69997W        W42323  30.354  19.269   2.823
69998W        W42324  36.830   8.705   4.161
69999W        W42325   6.952  13.465   3.102
70000W        W42326  38.980  22.012  13.032
70001W        W42327  25.057  43.327   1.284
70002W        W42328  30.735  18.889   4.020
70003W        W42329  41.498  26.967  13.838
70004W        W42330   7.233  13.866   2.715
70005W        W42331  11.846  19.837   2.241
70006W        W42332  28.956  27.343  11.145
70007W        W42333  23.119  24.618   2.961
70008W        W42334   2.753  10.087   5.011
70009W        W42335  28.924  30.410  13.503
70010W        W42336  37.457  42.034  11.177
70011W        W42337  37.399  44.459   3.758
70012W        W42338  23.780   3.886   2.444
70013W        W42339  36.579   7.748   3.627
70014W        W42340   8.993  15.577  13.161
70015W        W42341  11.494  36.335   2.200
70016W        W42342  16.088  40.887   2.193
70017W        W42343  25.216   6.258  10.630
70018W        W42344  43.465  36.510  13.843
70019W        W42345  34.924  35.391  13.628
70020W        W42346  25.659  32.755   2.424
70021W        W42347  33.398  38.366  11.164
70022W        W42348  26.100   9.392  13.792
70023W        W42349  20.919   8.104   4.677
70024W        W42350  20.634  31.371  14.460
70025W        W42351  37.097  14.084  10.778
70026W        W42352  26.793  30.960   3.740
70027W        W42353  12.640  13.578   4.540
70028W        W42354  16.258  29.028   4.975
70029W        W42355  38.647  44.858   1.238
70030W        W42356  19.138   7.389   0.327
70031W        W42357  30.635  32.812   1.387
70032W        W42358  35.290  22.643  14.855
70033W        W42359  27.184  44.321   4.207
70034W        W42360  39.009  17.081  11.379
70035W        W42361  33.724   9.662  12.505
70036W        W42362  36.400  38.853   0.886
70037W        W42363   1.517  32.086  12.404
70038W        W42364  28.633   4.667  14.955
70039W        W42365  28.819  33.433   3.887
70040W        W42366  15.679  12.752   1.717
70041W        W42367  29.934   8.937   1.410
70042W        W42368  21.457  33.901   0.920
70043W        W42369  33.651  30.196   0.781
70044W        W42370   5.487  42.327   4.152
70045W        W42371  12.791   8.288  10.522
70046W        W42372  44.787  44.602  14.336
70047W        W42373   3.790  26.362  14.742
70048W        W42374  21.400  14.585   1.051
70049W        W42375  41.291   9.517   3.765
70050W        W42376  10.372  20.081  11.159
70051W        W42377  27.909   5.718  12.024
70052W        W42378  20.311   3.935   4.695
70053W        W42379  21.710   1.814   0.874
70054W        W42380  31.472  28.510   1.778
70055W        W42381  40.061  27.579  14.379
70056W        W42382  24.113  15.986  11.081
70057W        W42383  39.891  12.597  13.368
70058W        W42384  23.931   3.492   3.197
70059W        W42385   0.413  34.062   1.282
70060W        W42386  18.249  17.719   2.476
70061W        W42387  32.671  40.074   3.326
70062W        W42388  43.427  39.552   1.877
70063W        W42389  44.378  18.572   0.011
70064W        W42390  30.104  31.245  12.599
70065W        W42391  35.473   5.477   3.310
70066W        W42392  29.519   4.286  11.559
70067W        W42393  22.959  15.859  11.697
70068W        W42394  40.956  16.195  13.843
70069W        W42395   8.205   5.753   4.777
70070W        W42396  12.906   6.743  12.082
70071W        W42397  34.649  20.542   1.893
70072W        W42398   0.919  42.163   0.159
70073W        W42399  26.836   5.914   0.613
70074W        W42400  43.237   3.755   1.902
70075W        W42401  12.624  19.961   1.363
70076W        W42402  17.109  15.728   3.982
70077W        W42403  43.823  44.263   4.113
70078W        W42404   5.234  20.592  13.794
70079W        W42405  32.899  27.894   1.621
70080W        W42406  19.491  40.893   3.993
70081W        W42407  31.566  38.963   1.123
70082W        W42408   3.450  41.464   0.860
70083W        W42409  18.138  19.828  12.064
70084W        W42410  30.609  27.222   1.753
70085W        W42411  28.990  41.224   0.716
70086W        W42412  27.226  24.549   3.762
70087W        W42413  18.578  30.883  10.624
70088W        W42414  17.629  36.363  13.815
70089W        W42415  13.853   7.890   4.107
70090W        W42416  38.657  10.942  11.489
70091W        W42417   9.790  23.200   3.042
70092W        W42418  36.944  29.481  13.855
70093W        W42419  14.630  30.996  13.487
70094W        W42420  37.504  28.033  12.606
70095W        W42421   5.421  25.616   4.044
70096W        W42422  11.699  37.075  12.420
70097W        W42423   6.754  18.815   1.695
70098W        W42424  30.524   5.333  13.309
70099W        W42425   3.702  27.709   4.393
70100W        W42426   1.279   2.374   1.916
70101W        W42427  16.070   8.655  14.314
70102W        W42428  36.296  37.534  12.348
70103W        W42429  17.396  31.565  13.536
70104W        W42430  13.091  44.227  11.537
70105W        W42431  33.990  23.228   2.676
70106W        W42432  43.153   6.336  10.286
70107W        W42433  40.843  19.656   4.599
70108W        W42434  23.245  29.043  12.351
70109W        W42435   3.833   7.943   2.798
70110W        W42436  35.528  41.628  14.033
70111W        W42437  44.751  23.019  13.365
70112W        W42438  41.264  18.698   0.333
70113W        W42439  17.185  41.918   2.237
70114W        W42440  22.167  25.216   1.250
70115W        W42441  41.682  27.980  13.654
70116W        W42442  36.134  35.316   2.848
70117W        W42443   6.984   6.838  14.866
70118W        W42444  30.846  30.091  10.847
70119W        W42445  24.362  43.269  13.964
70120W        W42446  10.198  10.411  13.537
70121W        W42447  28.609  16.277   0.772
70122W        W42448  32.589  32.704  10.506
70123W        W42449  22.739   2.748  12.519
70124W        W42450  16.383  18.122   0.857
70125W        W42451  20.952  33.554   1.852
70126W        W42452  38.561  13.340   1.401
70127W        W42453   4.831  33.077  11.552
70128W        W42454  30.926  31.048   2.488
70129W        W42455  29.029  30.600   1.794
70130W        W42456  25.881  11.378  14.951
70131W        W42457  10.633   9.904  10.775
70132W        W42458   6.854  20.041   2.558
70133W        W42459  23.298  33.721  11.024
70134W        W42460  27.380  12.128  11.061
70135W        W42461  39.240  44.928  12.222
70136W        W42462  35.474  37.880  13.100
70137W        W42463  10.201  23.238   3.335
70138W        W42464  10.347  26.092  10.969
70139W        W42465   5.410  25.537   3.520
70140W        W42466   4.872  14.131   1.166
70141W        W42467  34.636  24.920   4.224
70142W        W42468  18.257  27.206   2.984
70143W        W42469  15.836  21.646   1.320
70144W        W42470  26.886  22.951  11.628
70145W        W42471  14.601   6.693   1.283
70146W        W42472  28.648  10.856  10.794
70147W        W42473  27.771  40.911   2.259
70148W        W42474   2.776  39.956   4.646
70149W        W42475  17.038  30.729  10.188
70150W        W42476  30.291   3.052  12.106
70151W        W42477  26.589  14.641   2.441
70152W        W42478  39.107  33.072   3.948
70153W        W42479  18.441  13.196  12.428
70154W        W42480  34.595  11.137  11.128
70155W        W42481  35.803  44.844   4.300
70156W        W42482  29.023  34.141  14.261
70157W        W42483  19.306  24.657   4.320
70158W        W42484  16.876  21.080  13.534
70159W        W42485   9.258   2.986  14.021
70160W        W42486  41.783  17.299   1.839
70161W        W42487  24.917   6.784   2.880
70162W        W42488  26.014   8.491   4.470
70163W        W42489  33.060  31.543   3.367
70164W        W42490  16.715   1.440   4.002
70165W        W42491  29.184  19.661  13.397
70166W        W42492  27.578  30.382   4.250
70167W        W42493  32.861   4.653   4.115
70168W        W42494  21.529  18.560  11.926
70169W        W42495  25.588   3.760  11.378
70170W        W42496  25.581  19.685   1.621
70171W        W42497  13.364  17.846   4.228
70172W        W42498  25.561  22.730   2.584
70173W        W42499  42.846  15.928   3.330
70174W        W42500  12.821  18.323  13.972
70175W        W42501   8.814  32.018  14.610
70176W        W42502  40.444  34.433  12.514
70177W        W42503  17.798  40.729  11.132
70178W        W42504  17.344  32.821   3.678
70179W        W42505   2.371  15.440   2.731
70180W        W42506   3.487   8.870   2.784
70181W        W42507   7.796  13.135   2.195
70182W        W42508  37.788  44.476   3.392
70183W        W42509  42.204  44.305   1.412
70184W        W42510  37.077  31.492   4.101
70185W        W42511  29.463  38.454   3.834
70186W        W42512  34.189   0.208   2.865
70187W        W42513  21.945  29.562  11.503
70188W        W42514  21.974   1.331   2.293
70189W        W42515  31.394  36.977  13.194
70190W        W42516   1.826  10.646   3.312
70191W        W42517  38.950  15.572  12.662
70192W        W42518  11.278  35.616  13.941
70193W        W42519  17.539  27.638   2.267
70194W        W42520  30.870  10.407   0.947
70195W        W42521   6.730  35.786   3.334
70196W        W42522  42.053  14.136   1.215
70197W        W42523  16.066  15.609   4.054
70198W        W42524   8.299  36.137  11.431
70199W        W42525  21.153  12.275  14.135
70200W        W42526  29.252  18.538   2.246
70201W        W42527   4.435  16.833   0.914
70202W        W42528  20.348  28.560  13.361
70203W        W42529  22.626  42.746  11.935
70204W        W42530   4.250   3.694   5.023
70205W        W42531  33.563   8.898   3.680
70206W        W42532   4.699  21.973   0.742
70207W        W42533  40.798   6.312  11.994
70208W        W42534   4.883  39.327  13.908
70209W        W42535  31.299  12.826  12.452
70210W        W42536  40.943  12.862   4.151
70211W        W42537   1.919  11.390   4.064
70212W        W42538  33.940  37.382   2.437
70213W        W42539  18.476   2.735  11.104
70214W        W42540  10.055  14.223   4.975
70215W        W42541  26.998  37.584  13.741
70216W        W42542  44.517  40.668  11.621
70217W        W42543  35.314  18.142   2.637
70218W        W42544  38.078   0.971  13.975
70219W        W42545  40.010  26.590  10.621
70220W        W42546  24.461  24.638   4.734
70221W        W42547  26.615  42.962   4.196
70222W        W42548  29.418  40.009   0.097
70223W        W42549  28.459  18.946   0.565
70224W        W42550  34.346  13.269  12.939
70225W        W42551  34.451   0.494   3.203
70226W        W42552  28.412  24.516   0.368
70227W        W42553  31.453  22.735   2.677
70228W        W42554  24.468  29.040   1.678
70229W        W42555   4.955  34.337   1.963
70230W        W42556  42.370   2.275   2.395
70231W        W42557   0.852   4.272   1.419
70232W        W42558  30.566   5.757  14.934
70233W        W42559  29.145   8.894   3.702
70234W        W42560  42.500   7.497   2.098
70235W        W42561   5.333  42.544   0.293
70236W        W42562  33.134  17.664  12.061
70237W        W42563  14.572  37.800  11.510
70238W        W42564  34.084   9.080  12.938
70239W        W42565  21.496  10.258  13.566
70240W        W42566   6.188   1.264   3.914
70241W        W42567  34.156  24.647  12.442
70242W        W42568  34.432  21.696   2.639
70243W        W42569  14.368  36.374  13.977
70244W        W42570   3.842  13.342  11.097
70245W        W42571   6.747  36.049   1.448
70246W        W42572  37.353  20.734  13.540
70247W        W42573  30.399   9.050   4.145
70248W        W42574  20.028   2.731  12.020
70249W        W42575   9.314   1.664   1.765
70250W        W42576   3.660  17.581  14.826
70251W        W42577   6.877  26.081  10.616
70252W        W42578  41.465   3.726   3.108
70253W        W42579  10.125   3.602   0.164
70254W        W42580  37.851  14.348  11.494
70255W        W42581  23.749   4.556  14.042
70256W        W42582  26.241  17.535   3.378
70257W        W42583  29.616   9.302   4.650
70258W        W42584  42.262  14.696  12.063
70259W        W42585  40.752  28.338  10.461
70260W        W42586   5.369   0.506  14.023
70261W        W42587  23.773  37.893   3.256
70262W        W42588  39.994  41.263  14.838
70263W        W42589  31.221   8.708   2.333
70264W        W42590  36.317  36.199  10.245
70265W        W42591  33.980  29.697   4.533
70266W        W42592  41.237  19.470   1.894
70267W        W42593  32.192  14.718  12.632
70268W        W42594  32.349  43.979  12.049
70269W        W42595  20.575   7.815  14.030
70270W        W42596   8.047  35.456  12.505
70271W        W42597   5.539  38.897   1.418
70272W        W42598   4.708  23.594  13.969
70273W        W42599  33.891   3.893  12.452
70274W        W42600  16.831  18.140  10.421
70275W        W42601  23.203  34.043   1.316
70276W        W42602  22.755  37.800   4.974
70277W        W42603  39.802  21.012   2.565
70278W        W42604  23.196  16.090  14.274
70279W        W42605  35.079  43.800  10.515
70280W        W42606  37.662  18.124   3.967
70281W        W42607  30.056  11.776   4.230
70282W        W42608  41.590  26.045  10.744
70283W        W42609   9.500  44.942  13.213
70284W        W42610  42.857   5.649  14.583
70285W        W42611  24.488  13.204  14.991
70286W        W42612   7.853  43.298   0.920
70287W        W42613  35.559   6.629  12.379
70288W        W42614  25.079  30.186   0.334
70289W        W42615   2.095   1.489   1.427
70290W        W42616  41.106   7.542  13.323
70291W        W42617  16.750  41.044  14.575
70292W        W42618  24.059  27.942  13.362
70293W        W42619  40.855   0.307   2.615
70294W        W42620  13.346  37.500  12.509
70295W        W42621  26.006   6.949  13.819
70296W        W42622  26.037  21.735  11.437
70297W        W42623  42.818  27.723  14.516
70298W        W42624  43.715  41.824   1.767
70299W        W42625   3.164  25.130  12.307
70300W        W42626  18.065  17.989  14.766
70301W        W42627  29.207  42.778  14.100
70302W        W42628  26.189  30.100  13.465
70303W        W42629  34.316   1.326   0.057
70304W        W42630  12.819  19.718  14.286
70305W        W42631  37.786   9.878   1.279
70306W        W42632  14.178  13.610  13.386
70307W        W42633  30.078  22.961  14.648
70308W        W42634  38.170  36.367   1.866
70309W        W42635  23.430   8.192   3.677
70310W        W42636   1.448  22.541   3.609
70311W        W42637   0.712  28.171   2.348
70312W        W42638  24.459  22.916  11.250
70313W        W42639  40.985   0.254  13.438
70314W        W42640   6.756   1.449   2.197
70315W        W42641   6.283  36.988   1.039
70316W        W42642  33.365  16.056  12.868
70317W        W42643  24.050  43.052  11.101
70318W        W42644  12.428  44.048  13.276
70319W        W42645  33.146  21.685  14.142
70320W        W42646   8.172  32.625  14.312
70321W        W42647  25.551  11.119   0.979
70322W        W42648  22.138  35.819   0.238
70323W        W42649  37.411  27.982  14.451
70324W        W42650  40.427   7.609  12.131
70325W        W42651  40.770  12.708  11.568
70326W        W42652  33.369  24.117  11.025
70327W        W42653  34.944  27.981   1.668
70328W        W42654  15.206  25.156   1.676
70329W        W42655  28.777  17.654   2.347
70330W        W42656  35.645  25.275   1.472
70331W        W42657   9.882  23.985  13.843
70332W        W42658  14.052  15.636  14.029
70333W        W42659   9.779  27.636   3.392
70334W        W42660   5.224   2.947  11.126
70335W        W42661   5.136  30.463   2.820
70336W        W42662   5.848  32.676   4.094
70337W        W42663  25.654  30.218  14.830
70338W        W42664   8.230  27.054  14.293
70339W        W42665  32.426  39.059  13.820
70340W        W42666  18.293  40.998   2.654
70341W        W42667  17.704  41.399  14.859
70342W        W42668  17.662   9.606  13.883
70343W        W42669  37.318   9.789  12.301
70344W        W42670  17.828  37.357  12.888
70345W        W42671  39.351  33.550  10.659
70346W        W42672  28.499   4.008   1.976
70347W        W42673  18.616  31.413  10.526
70348W        W42674   8.303  27.703  14.844
70349W        W42675  19.227   5.768  14.246
70350W        W42676  11.941  19.135  10.467
70351W        W42677  39.083  40.960  11.188
70352W        W42678   7.821  31.069  11.425
70353W        W42679  17.040  30.035  10.562
70354W        W42680  14.519  16.180   4.594
70355W        W42681  25.116   5.421  13.924
70356W        W42682  35.753  32.102  11.107
70357W        W42683  10.911  13.694   2.595
70358W        W42684  39.428  12.315  14.502
70359W        W42685  36.869  16.085  11.074
70360W        W42686  43.311  35.651  10.431
70361W        W42687  20.226  40.536   2.878
70362W        W42688  36.701   6.474  12.784
70363W        W42689  13.388  43.457  12.061
70364W        W42690  36.682  10.835  11.094
70365W        W42691   3.243  23.199   1.259
70366W        W42692  42.255  12.641  13.805
70367W        W42693  15.963  30.162  13.996
70368W        W42694  23.763  19.756  13.340
70369W        W42695   1.447  11.149   4.299
70370W        W42696   7.280  39.107   0.368
70371W        W42697  30.926  32.478   0.675
70372W        W42698   8.934  35.853   4.157
70373W        W42699  22.457   3.159  13.345
70374W        W42700  24.052  27.954  11.638
70375W        W42701  32.801  23.263   1.145
70376W        W42702   9.054   0.867  11.820
70377W        W42703  44.471   4.414   1.347
70378W        W42704  15.795  22.457   4.645
70379W        W42705   5.888   9.753   4.556
70380W        W42706   4.600  26.693   1.455
70381W        W42707  32.054  44.287   1.359
70382W        W42708  21.969  19.542   0.545
70383W        W42709  26.919  15.577  12.116
70384W        W42710  14.633  40.990   4.327
70385W        W42711  36.099  17.039  10.598
70386W        W42712  42.469  44.356  14.920
70387W        W42713  34.748  38.854  12.107
70388W        W42714  25.555  44.969   2.583
70389W        W42715  41.809  15.991  12.172
70390W        W42716  24.514   1.028   4.298
70391W        W42717   8.122  20.183  11.186
70392W        W42718  26.226  32.143   3.694
70393W        W42719  37.193  17.613   4.639
70394W        W42720  18.276  36.212  12.016
70395W        W42721  18.103  11.340  11.931
70396W        W42722  17.257   8.458   0.492
70397W        W42723   9.880  24.160   1.409
70398W        W42724  39.825  31.651  11.029
70399W        W42725   1.853   9.639   5.038
70400W        W42726  35.798  12.014   1.696
70401W        W42727  10.180  14.169  13.831
70402W        W42728  22.173  32.255  14.982
70403W        W42729  38.949   3.428   0.460
70404W        W42730  40.681  44.678  11.203
70405W        W42731  44.713  33.102  14.252
70406W        W42732  10.685  30.453   2.781
70407W        W42733  28.078  24.983   1.348
70408W        W42734  14.837  42.227   2.855
70409W        W42735  40.415  23.113   2.332
70410W        W42736  42.894  18.592  13.510
70411W        W42737   9.159  12.570  11.847
70412W        W42738  11.609   9.470   3.755
70413W        W42739   6.691  22.041  14.988
70414W        W42740  26.463  10.368  14.449
70415W        W42741  25.640  27.075   2.265
70416W        W42742  42.048   1.793   0.443
70417W        W42743  32.566  15.422  14.813
70418W        W42744  27.576  22.664   4.172
70419W        W42745   1.017   9.327  13.495
70420W        W42746  11.845  38.852  10.665
70421W        W42747  23.084   1.820   4.269
70422W        W42748  20.311   2.362   0.214
70423W        W42749  42.284  31.417  13.800
70424W        W42750   6.010  21.182  12.530
70425W        W42751  20.046   1.361   2.660
70426W        W42752  15.767  21.059  10.187
70427W        W42753   8.880  24.283   2.262
70428W        W42754  19.774  27.588  10.583
70429W        W42755   5.659  27.902  14.515
70430W        W42756  18.615  25.919   0.228
70431W        W42757  18.718  20.542  12.829
70432W        W42758   9.890  18.369  11.653
70433W        W42759  12.809  26.514  12.038
70434W        W42760  38.843  21.472  10.617
70435W        W42761   6.968  34.034  12.659
70436W        W42762  36.705  33.555   0.287
70437W        W42763  34.276  39.837  12.067
70438W        W42764  36.029  17.762  14.399
70439W        W42765  40.290  12.370   4.507
70440W        W42766  36.860  12.289  11.850
70441W        W42767  25.093   1.340  12.507
70442W        W42768  30.351  19.599  14.797
70443W        W42769  14.166   1.821   2.568
70444W        W42770   9.817  36.287   1.384
70445W        W42771   8.404  35.514  12.117
70446W        W42772  33.951  20.219  14.604
70447W        W42773  36.100  26.956   2.249
70448W        W42774  16.318  19.776   1.686
70449W        W42775  33.387   9.245  12.412
70450W        W42776  18.152   1.388  11.364
70451W        W42777   6.017  37.649   1.376
70452W        W42778  39.427  29.985   3.324
70453W        W42779  13.616  35.401   2.640
70454W        W42780   4.218  36.222  13.264
70455W        W42781  14.373   7.269  13.092
70456W        W42782  34.085   8.175   3.182
70457W        W42783  12.990  30.383  13.852
70458W        W42784  24.963  38.969  12.965
70459W        W42785  21.822   5.290   2.685
70460W        W42786  25.204  24.317  11.140
70461W        W42787  27.539   1.944   0.982
70462W        W42788  35.474   9.274  14.366
70463W        W42789  34.355  27.141  10.773
70464W        W42790  34.585   4.700   4.077
70465W        W42791  12.650  25.659   1.413
70466W        W42792  17.333  39.810  13.293
70467W        W42793   8.465  33.422   3.238
70468W        W42794  17.020  36.668   2.257
70469W        W42795   3.072   5.595  11.882
70470W        W42796  39.727  42.973  14.454
70471W        W42797  42.832  17.330   4.611
70472W        W42798  33.582  26.617   4.551
70473W        W42799  32.877   8.664   0.339
70474W        W42800  24.661  28.272   4.889
70475W        W42801   8.816   5.647  13.001
70476W        W42802  13.690   4.374   1.805
70477W        W42803  42.301   9.725   3.215
70478W        W42804   8.424  37.987  14.758
70479W        W42805  35.836  34.388   1.234
70480W        W42806  31.532  24.719   1.404
70481W        W42807  39.138  40.836  11.953
70482W        W42808  27.728  40.075  13.912
70483W        W42809  27.551   5.288   2.393
70484W        W42810  31.485  30.205   3.638
70485W        W42811   5.923  14.615   1.776
70486W        W42812  13.656  39.064   0.778
70487W        W42813  19.609  41.793   1.654
70488W        W42814   0.452   9.223   1.588
70489W        W42815  39.306  42.144   2.820
70490W        W42816   3.205  12.794  12.907
70491W        W42817  29.251  44.295   0.997
70492W        W42818   3.124   3.030   3.577
70493W        W42819   0.488  29.481  14.809
70494W        W42820   7.902  22.230   0.976
70495W        W42821  21.059  32.564   1.009
70496W        W42822  18.981  37.062  13.285
70497W        W42823  13.111   6.871   4.602
70498W        W42824  19.161  33.849   4.811
70499W        W42825  15.538  19.564  14.804
70500W        W42826  30.659  17.697  11.929
70501W        W42827  29.937  31.398   1.103
70502W        W42828  28.425  39.331  13.814
70503W        W42829   6.340   8.291   4.787
70504W        W42830  32.575  34.285  14.935
70505W        W42831  39.609  27.038  14.912
70506W        W42832  26.703  12.557   1.899
70507W        W42833  12.599  27.324  10.204
70508W        W42834   5.286  36.072  13.816
70509W        W42835  21.338  15.107   1.102
70510W        W42836  24.184   1.501   4.185
70511W        W42837   6.784  28.867   2.209
70512W        W42838  21.146  20.215   2.474
70513W        W42839  38.407  35.259  14.974
70514W        W42840  16.358  20.551  12.017
70515W        W42841  17.128  22.511   2.878
70516W        W42842  15.151  37.090  12.433
70517W        W42843  16.655  32.835  13.759
70518W        W42844   4.291  36.557   4.517
70519W        W42845   2.341  37.042  12.978
70520W        W42846  15.060  38.513  12.043
70521W        W42847  38.100  33.021  14.685
70522W        W42848   6.336  30.692   3.126
70523W        W42849   8.509  25.292  14.721
70524W        W42850  44.416  24.268   1.271
70525W        W42851  17.018  32.986  12.515
70526W        W42852  15.441   1.626   2.192
70527W        W42853   3.106  32.098   2.334
70528W        W42854   4.429  32.865   3.326
70529W        W42855   9.602  34.447   2.299
70530W        W42856   4.866  27.656   1.240
70531W        W42857  37.957  28.065   0.712
70532W        W42858   1.888  12.242   4.583
70533W        W42859   9.091  14.631   0.712
70534W        W42860  18.169  15.764  10.495
70535W        W42861  44.964  38.388  10.932
70536W        W42862  22.210  30.981  14.164
70537W        W42863  26.673  34.749  11.628
70538W        W42864  41.599  30.485   1.533
70539W        W42865  32.608  19.148  13.908
70540W        W42866  13.561  16.251   4.694
70541W        W42867  10.227  27.261   3.485
70542W        W42868  40.123  29.565   1.724
70543W        W42869  43.200   7.101  11.103
70544W        W42870  13.339  13.064  12.254
70545W        W42871  44.934   7.428   1.897
70546W        W42872  33.494  24.446  14.358
70547W        W42873  41.671  41.399   3.266
70548W        W42874  32.867   2.237   1.620
70549W        W42875  29.856  14.286   1.342
70550W        W42876  41.090   4.930  14.385
70551W        W42877  22.732  40.857   0.351
70552W        W42878  41.464  44.230  11.126
70553W        W42879  24.528  11.275  14.985
70554W        W42880  20.490  22.072   2.322
70555W        W42881  12.719  41.747   0.327
70556W        W42882  38.801  23.117   4.884
70557W        W42883  18.494  21.551  13.948
70558W        W42884   0.779  32.550  14.720
70559W        W42885  43.419  41.790  12.208
70560W        W42886  16.844  41.201   0.051
70561W        W42887  19.958  19.174  11.682
70562W        W42888  23.077  20.397   2.511
70563W        W42889  28.289  25.643   2.814
70564W        W42890  29.391  20.100   4.204
70565W        W42891  30.547   7.168   3.656
70566W        W42892  21.250  23.963   0.458
70567W        W42893  14.180  28.023  14.075
70568W        W42894  18.528  21.605  11.170
70569W        W42895  12.629  32.832   0.867
70570W        W42896  19.536  42.577  14.484
70571W        W42897  11.079  20.141   4.458
70572W        W42898   4.676   8.745  12.455
70573W        W42899  37.680  33.199   3.793
70574W        W42900  39.379   2.535  13.298
70575W        W42901  26.593  24.200  11.749
70576W        W42902  11.424   6.209   0.721
70577W        W42903  28.649  30.720  13.164
70578W        W42904  27.994  27.273   4.801
70579W        W42905  37.329  28.637   3.765
70580W        W42906  19.705  16.066  12.574
70581W        W42907  13.249  22.446  13.132
70582W        W42908  31.218   0.032   4.666
70583W        W42909  20.334  38.907   2.217
70584W        W42910  13.611  34.601  10.386
70585W        W42911   9.903  44.728  13.452
70586W        W42912   8.394  40.358  13.506
70587W        W42913  21.564  14.603  12.842
70588W        W42914  30.924  24.227   0.324
70589W        W42915  29.381   8.757  11.343
70590W        W42916  44.303  10.134   3.236
70591W        W42917  13.370  20.566  12.024
70592W        W42918  31.237  30.357  13.841
70593W        W42919  16.432  13.261   2.112
70594W        W42920  42.977  30.129  13.029
70595W        W42921  38.302  42.522  11.145
70596W        W42922  44.323  21.768  11.995
70597W        W42923  25.784   2.804  11.502
70598W        W42924  14.127  32.101   2.248
70599W        W42925  43.529  22.957   0.399
70600W        W42926  31.909   7.423  12.953
70601W        W42927  30.060  11.351   1.478
70602W        W42928  11.283  28.839   4.963
70603W        W42929  43.163  14.947  14.477
70604W        W42930   6.886   0.982   0.454
70605W        W42931  44.817  36.186  13.814
70606W        W42932  43.234  35.284  11.657
70607W        W42933  18.371  35.595  12.486
70608W        W42934  18.857  44.025   3.727
70609W        W42935  25.115  43.882  10.966
70610W        W42936  22.146  25.109   3.112
70611W        W42937   7.719   4.244  13.562
70612W        W42938   1.933   9.148   1.779
70613W        W42939  41.183   0.225   2.185
70614W        W42940  32.260  17.076   0.145
70615W        W42941   4.841   2.682   5.044
70616W        W42942  31.774  44.947  10.521
70617W        W42943  43.970  27.430  12.912
70618W        W42944  12.572  42.734   4.226
70619W        W42945  41.792  34.980  10.714
70620W        W42946  17.368   6.215   0.821
70621W        W42947   3.856  33.403   4.556
70622W        W42948  16.277  20.645  11.139
70623W        W42949  22.975  42.819   1.245
70624W        W42950   3.464   9.783  12.893
70625W        W42951   6.950  37.532   2.282
70626W        W42952  13.326  21.079  12.507
70627W        W42953   2.940   4.262  11.076
70628W        W42954  19.658  11.049  12.854
70629W        W42955  39.100   3.094   5.105
70630W        W42956  26.160  25.459   2.457
70631W        W42957  22.402  41.738  13.939
70632W        W42958   9.955  27.579   0.446
70633W        W42959  36.455   9.512  11.148
70634W        W42960  20.574  32.527  10.740
70635W        W42961  13.348   4.798   2.274
70636W        W42962  40.246   5.651  10.714
70637W        W42963  12.144  42.409   3.082
70638W        W42964   9.342  34.288  10.378
70639W        W42965  13.319  25.898  14.005
70640W        W42966  14.356  42.670   4.113
70641W        W42967   6.468  37.893  13.100
70642W        W42968  28.040  13.276  14.210
70643W        W42969  36.939  25.975  10.769
70644W        W42970  39.120  16.504  13.912
70645W        W42971  39.969  15.091   3.249
70646W        W42972  28.589  38.754  13.156
70647W        W42973   0.511   2.144   2.514
70648W        W42974   1.890  28.130  10.985
70649W        W42975  20.900  37.050   1.833
70650W        W42976  13.163   7.447   3.684
70651W        W42977   0.683  26.192   1.455
70652W        W42978  31.428   6.726   4.191
70653W        W42979   3.630  12.264   9.751
70654W        W42980   8.404  29.116  13.457
70655W        W42981   3.456  29.488   4.037
70656W        W42982  35.014  24.503  11.607
70657W        W42983  10.052   6.667   2.808
70658W        W42984  28.068  33.207  14.355
70659W        W42985  22.792  14.903  11.999
70660W        W42986   4.265  11.876   3.754
70661W        W42987  32.173  43.029   2.290
70662W        W42988   5.827  29.344  12.616
70663W        W42989   2.982   9.380  12.323
70664W        W42990   4.216   6.472  13.035
70665W        W42991   1.081  30.035  14.416
70666W        W42992  10.653  34.624  14.338
70667W        W42993   7.104  13.419   0.374
70668W        W42994  38.809  29.284   3.239
70669W        W42995   8.961  21.988   2.048
70670W        W42996  44.990  21.119  13.330
70671W        W42997  39.929   3.781  13.296
70672W        W42998   7.236  42.394   4.124
70673W        W42999  31.012  17.391   1.344
70674W        W43000   3.488  26.424   0.730
70675W        W43001  41.671  30.647   2.469
70676W        W43002  39.517   7.161   0.382
70677W        W43003  15.582  27.179  13.994
70678W        W43004  32.733  43.935  14.450
70679W        W43005   4.431  29.090  12.655
70680W        W43006   1.196  43.607   3.149
70681W        W43007   5.478  32.427  13.846
70682W        W43008  37.022  24.685   1.831
70683W        W43009  10.476  10.258  12.520
70684W        W43010   7.302  33.711  13.942
70685W        W43011  43.209   9.568  12.350
70686W        W43012  36.582  34.995  14.347
70687W        W43013  36.030  26.076  13.477
70688W        W43014  37.446   5.327   3.851
70689W        W43015  37.391  16.616  12.889
70690W        W43016   6.395  35.882   4.127
70691W        W43017  22.259  29.127   2.898
70692W        W43018   2.733  14.232   2.349
70693W        W43019  10.723  30.175  11.048
70694W        W43020  24.004   2.973  14.875
70695W        W43021   9.794  31.450  13.924
70696W        W43022  30.990  33.878   2.003
70697W        W43023   6.379   9.899   2.701
70698W        W43024   9.581  31.691   2.673
70699W        W43025   7.358   4.720  10.520
70700W        W43026  17.158  29.552  13.779
70701W        W43027  41.313  10.943  11.533
70702W        W43028  29.147  36.880  11.475
70703W        W43029  41.952  44.303  10.908
70704W        W43030   5.876  31.064   3.317
70705W        W43031   0.861   5.425  10.518
70706W        W43032  43.582  33.178  13.459
70707W        W43033   9.083  21.005   4.994
70708W        W43034  38.639   5.344   0.887
70709W        W43035  37.484   3.576  10.639
70710W        W43036  14.532  35.436  11.150
70711W        W43037   6.699  40.872  14.778
70712W        W43038  10.813   7.917   1.798
70713W        W43039  28.689   0.777  10.638
70714W        W43040  21.622   5.150   4.702
70715W        W43041  27.414  20.423  12.032
70716W        W43042  19.611  29.116   2.712
70717W        W43043  36.054   3.573   3.137
70718W        W43044  22.076  16.224   1.049
70719W        W43045  29.420  26.146  10.487
70720W        W43046  43.336   1.494   4.610
70721W        W43047  14.823  42.968  13.910
70722W        W43048   6.254   0.468  10.710
70723W        W43049  34.594  31.879   1.988
70724W        W43050  38.115  30.476  10.671
70725W        W43051  10.790  37.365  10.636
70726W        W43052   4.418   9.937   2.879
70727W        W43053  15.715   8.668  12.067
70728W        W43054   1.818  38.929  14.357
70729W        W43055  16.777  11.705   0.217
70730W        W43056  25.615  41.218   0.744
70731W        W43057  10.591  37.319   4.470
70732W        W43058  12.973  35.360   4.094
70733W        W43059  34.889  36.312   2.781
70734W        W43060  38.842   2.634  11.082
70735W        W43061  41.516  17.852   4.552
70736W        W43062  16.614  40.144   4.218
70737W        W43063   0.806  27.775  12.942
70738W        W43064  21.692  35.453  12.410
70739W        W43065   0.347  35.572   1.359
70740W        W43066  32.473   6.843   2.756
70741W        W43067  37.402  25.470   1.237
70742W        W43068  20.199  22.851   1.217
70743W        W43069  27.187   3.961  10.695
70744W        W43070   1.753  25.814   2.792
70745W        W43071  28.213  32.532   2.302
70746W        W43072  17.393  38.444  14.467
70747W        W43073  19.595  43.714   0.270
70748W        W43074  26.548  22.114   9.882
70749W        W43075  42.970  25.211   0.898
70750W        W43076   0.018   9.129   0.833
70751W        W43077   1.162  31.565  13.850
70752W        W43078  44.232  41.943  14.193
70753W        W43079  22.664   7.810  12.834
70754W        W43080   3.259   3.761  10.758
70755W        W43081   5.427  33.122   2.387
70756W        W43082  22.167  26.985   4.831
70757W        W43083  37.465  37.128   4.107
70758W        W43084  14.869  24.732  13.520
70759W        W43085  30.500  32.991  12.002
70760W        W43086   9.951   3.720   3.275
70761W        W43087  11.045  20.677  12.563
70762W        W43088  24.942  33.210   4.669
70763W        W43089  13.641  15.316   2.175
70764W        W43090  10.545   4.922  11.088
70765W        W43091  14.623  17.920  13.139
70766W        W43092   2.930   9.368   2.039
70767W        W43093  19.300  28.074   2.353
70768W        W43094   9.785  11.744   2.738
70769W        W43095  35.952  25.926  14.847
70770W        W43096  26.758  38.874   5.073
70771W        W43097  33.550   4.084  13.663
70772W        W43098   4.770  37.530  12.387
70773W        W43099  29.078  30.009   0.678
70774W        W43100  20.809  28.465   0.442
70775W        W43101  38.256  31.791   0.004
70776W        W43102   3.877  25.013   3.643
70777W        W43103  41.990  11.733  12.210
70778W        W43104  18.655  43.245  14.387
70779W        W43105  15.948  27.405  14.907
70780W        W43106  13.342  14.318  12.168
70781W        W43107   5.206  21.274   0.433
70782W        W43108  15.793   0.400   3.230
70783W        W43109  31.866  12.198  14.714
70784W        W43110   1.556   4.135  12.800
70785W        W43111  14.848  26.767   1.882
70786W        W43112  33.998  20.097   4.564
70787W        W43113  21.593   2.985   3.261
70788W        W43114  26.200  17.359   2.831
70789W        W43115   3.383  27.821  11.988
70790W        W43116  15.253  34.146  11.068
70791W        W43117  13.055   3.351  10.355
70792W        W43118  22.066  17.380   4.545
70793W        W43119  19.850  13.763   1.848
70794W        W43120  34.321  35.769   4.215
70795W        W43121  15.310   9.432   4.252
70796W        W43122  19.630  27.617   3.250
70797W        W43123   0.746  44.794   2.906
70798W        W43124  36.537  40.584  12.799
70799W        W43125  22.982   8.381  12.830
70800W        W43126   4.496  32.473  13.445
70801W        W43127  25.823   1.454   4.846
70802W        W43128  16.306  20.754   4.619
70803W        W43129  41.964  40.481  11.259
70804W        W43130  29.006  41.770   0.790
70805W        W43131  11.342  42.590  14.348
70806W        W43132   6.745  27.739   4.151
70807W        W43133  14.567  12.062  12.720
70808W        W43134  41.928  43.273   0.357
70809W        W43135  27.465  34.931   0.540
70810W        W43136  25.183  33.173   4.207
70811W        W43137  42.148   9.888   4.168
70812W        W43138   6.049  24.049   4.053
70813W        W43139   7.482  32.198  12.010
70814W        W43140  35.404  32.519  13.540
70815W        W43141  27.079  37.829   4.642
70816W        W43142  25.942   5.727  14.455
70817W        W43143  21.152  26.224  14.801
70818W        W43144  21.974  33.955  10.616
70819W        W43145  19.826  22.548  14.966
70820W        W43146   7.795   6.332   5.112
70821W        W43147  35.685  33.036   0.406
70822W        W43148  40.085  33.126   3.580
70823W        W43149   4.672  28.079   0.247
70824W        W43150  19.918  28.840  12.483
70825W        W43151  30.010  15.364  11.802
70826W        W43152  19.078   6.701   1.696
70827W        W43153  24.484  11.418  11.357
70828W        W43154  32.889  40.359   1.225
70829W        W43155  35.021  34.118   1.514
70830W        W43156  10.187  24.370   4.932
70831W        W43157  34.069   3.892   4.124
70832W        W43158   5.477  23.739  14.346
70833W        W43159  27.751  12.994   9.845
70834W        W43160  14.955   7.515   3.105
70835W        W43161  37.053   0.517  13.420
70836W        W43162  29.572   1.500   2.680
70837W        W43163  22.958  17.084  11.405
70838W        W43164   2.824   8.691   0.766
70839W        W43165   4.950   5.137   4.636
70840W        W43166  15.624   2.171  14.856
70841W        W43167  13.385  35.310  10.878
70842W        W43168  26.320   4.799   3.148
70843W        W43169  19.301  33.820  12.481
70844W        W43170   7.917   8.698  12.048
70845W        W43171  33.852  38.511   1.434
70846W        W43172   8.839   5.083   3.659
70847W        W43173  18.656  20.246  10.661
70848W        W43174   7.817  15.576   1.677
70849W        W43175  20.960  14.224  10.218
70850W        W43176  11.741  24.053  14.055
70851W        W43177  32.388  23.443   4.281
70852W        W43178  14.874   6.928  12.461
70853W        W43179   7.212  11.399  11.005
70854W        W43180  13.865   7.163  14.042
70855W        W43181  28.483  25.031   4.995
70856W        W43182  23.227  18.734  13.122
70857W        W43183  11.891  21.558   2.719
70858W        W43184   7.957  44.308  11.187
70859W        W43185  30.069  41.922   2.363
70860W        W43186  37.508  12.884   1.930
70861W        W43187  29.987  41.517  14.420
70862W        W43188  24.100  12.575   1.879
70863W        W43189   7.151  22.309  12.066
70864W        W43190   6.082  43.733  14.430
70865W        W43191   5.107  20.481   3.923
70866W        W43192  18.759   2.891  14.812
70867W        W43193   5.893   3.020   4.284
70868W        W43194  44.324  20.498  14.953
70869W        W43195  26.462  34.351   2.022
70870W        W43196  43.880  25.108   2.123
70871W        W43197  22.588   4.397   3.781
70872W        W43198  37.864  17.168   4.983
70873W        W43199  34.146  37.204  10.658
70874W        W43200  21.204  44.455  13.177
70875W        W43201   6.643  25.899  14.867
70876W        W43202  36.044  38.650  13.936
70877W        W43203   7.862  37.624  11.136
70878W        W43204  35.437  20.204   4.868
70879W        W43205  44.276   4.422   0.429
70880W        W43206  18.006   4.218  14.904
70881W        W43207  38.297  11.861   5.170
70882W        W43208  13.238  26.253   0.899
70883W        W43209  22.319  35.481   3.196
70884W        W43210  41.599   3.385   2.318
70885W        W43211   7.803  30.586  11.979
70886W        W43212  34.050  13.181  11.916
70887W        W43213  34.803  16.005  12.046
70888W        W43214  22.954  26.822   1.305
70889W        W43215   0.289  22.704  14.898
70890W        W43216   7.359  10.890   4.182
70891W        W43217  33.555   2.222  13.469
70892W        W43218  10.820  16.619  14.213
70893W        W43219  35.954  32.617  13.435
70894W        W43220  26.924  15.671   1.802
70895W        W43221  16.012  13.169   1.806
70896W        W43222  19.810   2.685  14.864
70897W        W43223  18.778  31.697  13.330
70898W        W43224  34.365  31.776   4.131
70899W        W43225  14.394  30.697  14.373
70900W        W43226  19.768  28.216   2.288
70901W        W43227  39.319  24.486   4.084
70902W        W43228   7.423  12.313   3.604
70903W        W43229  32.759   7.910   2.517
70904W        W43230  38.541  19.184  14.868
70905W        W43231  15.309  15.307  12.472
70906W        W43232  28.673  30.760   2.561
70907W        W43233  25.588  23.617   3.700
70908W        W43234  20.259  30.700   5.034
70909W        W43235   1.934   2.277   3.133
70910W        W43236  35.341  40.519  12.397
70911W        W43237  16.654   5.715   4.091
70912W        W43238  36.564  31.080   0.716
70913W        W43239  42.803   6.598  12.032
70914W        W43240  35.143  21.215   2.937
70915W        W43241  42.741  15.649  14.899
70916W        W43242  25.652  25.755  11.241
70917W        W43243  31.288  16.518   0.358
70918W        W43244  30.546  21.751   0.265
70919W        W43245  32.628  28.185  12.093
70920W        W43246  16.756   7.286  13.519
70921W        W43247  14.544  19.500  10.723
70922W        W43248  10.672  29.032   1.450
70923W        W43249  37.544   9.080  13.493
70924W        W43250  37.600  37.889  11.574
70925W        W43251  34.387  39.835  12.964
70926W        W43252  41.193   1.442  11.123
70927W        W43253   7.821  39.232   2.259
70928W        W43254  19.205  24.569   2.913
70929W        W43255  15.382  20.290   0.340
70930W        W43256   4.680  43.854  11.279
70931W        W43257   5.295   4.356   2.605
70932W        W43258  14.696  33.883   0.487
70933W        W43259  24.657   9.383  10.679
70934W        W43260   3.402   6.895  10.473
70935W        W43261  34.614  38.604  14.892
70936W        W43262  35.242  37.735   3.230
70937W        W43263   6.476  22.602   0.640
70938W        W43264   5.952  14.334  11.942
70939W        W43265   1.992  11.994   5.027
70940W        W43266  11.459  26.657   4.546
70941W        W43267   4.965  10.532  14.814
70942W        W43268  23.485  44.180  13.277
70943W        W43269  29.441   5.745   4.384
70944W        W43270   9.136  41.533   1.412
70945W        W43271  25.786   0.796   4.775
70946W        W43272  25.718  34.059  12.581
70947W        W43273  29.665   0.085  13.917
70948W        W43274  39.939  33.872  12.096
70949W        W43275  34.260   2.672   2.815
70950W        W43276  27.966  29.984   3.705
70951W        W43277   9.604  27.565  12.054
70952W        W43278  22.442  27.154   1.978
70953W        W43279  35.525  28.136   3.839
70954W        W43280  36.480  18.923  13.794
70955W        W43281  10.641  25.536  12.118
70956W        W43282   4.650  38.199   2.282
70957W        W43283   3.453  23.310   3.207
70958W        W43284  41.728  36.602  11.215
70959W        W43285  33.096  21.620  11.436
70960W        W43286  37.049   6.647   0.040
70961W        W43287  28.043  34.967   0.882
70962W        W43288  21.469  41.830   4.398
70963W        W43289  21.573  23.993  13.503
70964W        W43290   0.771   3.841  10.463
70965W        W43291   6.575   4.258   3.804
70966W        W43292   4.439   1.613   3.687
70967W        W43293  29.416  23.049   3.198
70968W        W43294  38.807  30.199   1.458
70969W        W43295  15.691  33.530  10.743
70970W        W43296  12.816  28.765   2.402
70971W        W43297   6.706   9.339  10.596
70972W        W43298  29.907  19.235  11.997
70973W        W43299   6.851   3.744  11.976
70974W        W43300   0.909  25.224  13.744
70975W        W43301  32.490  11.594  14.873
70976W        W43302  30.552  17.678  10.691
70977W        W43303   7.611   6.848  13.071
70978W        W43304   9.594  21.253  14.489
70979W        W43305   5.774   3.837   4.701
70980W        W43306  18.190  33.416  11.486
70981W        W43307   6.345  19.347  14.631
70982W        W43308   8.259  12.801   1.213
70983W        W43309  34.029  14.106  10.632
70984W        W43310   5.223  42.829  14.834
70985W        W43311  30.049  37.823   3.861
70986W        W43312  21.837  15.001   3.044
70987W        W43313  41.211  13.829   1.666
70988W        W43314  25.664  11.718  11.126
70989W        W43315  33.061  37.820  13.946
70990W        W43316  39.316  24.473   0.989
70991W        W43317  14.914  40.672   2.927
70992W        W43318  10.051  14.725   4.682
70993W        W43319  11.078  41.646   3.354
70994W        W43320  26.213  44.563   0.787
70995W        W43321  17.098  28.027   1.923
70996W        W43322  12.879  30.590   3.403
70997W        W43323  35.835  25.557   4.106
70998W        W43324  39.579  33.086   3.748
70999W        W43325   8.922  19.112  13.885
71000W        W43326  26.232   2.588  11.763
71001W        W43327  37.607   3.147   4.177
71002W        W43328  24.488  24.567  13.076
71003W        W43329  21.336  28.185   1.227
71004W        W43330  44.403  40.319   0.829
71005W        W43331  10.521  20.481  11.458
71006W        W43332  38.582   4.486  13.477
71007W        W43333  35.791   7.340  12.393
71008W        W43334   2.405  39.620   4.354
71009W        W43335  24.485  23.204   2.826
71010W        W43336   3.549  16.900   0.345
71011W        W43337  24.921  36.894   3.263
71012W        W43338   5.891  13.173  11.679
71013W        W43339  26.876  17.918  10.844
71014W        W43340  33.948  34.003   0.053
71015W        W43341  31.709  15.157   3.375
71016W        W43342  22.964  22.214   1.214
71017W        W43343  10.210   0.331   4.193
71018W        W43344   5.456  32.350   1.220
71019W        W43345  22.538  11.040   4.227
71020W        W43346   5.871   9.494  14.414
71021W        W43347  22.512  34.458   3.135
71022W        W43348  40.346  18.200  14.256
71023W        W43349  40.546  13.449   4.525
71024W        W43350  16.511  41.581   1.802
71025W        W43351  31.534   6.313  14.371
71026W        W43352  32.569  40.297  13.497
71027W        W43353  26.478  42.065  14.002
71028W        W43354  34.389  18.176  12.039
71029W        W43355  35.738  12.127   2.212
71030W        W43356  18.573  41.034  11.658
71031W        W43357  35.487  23.707  13.368
71032W        W43358  23.243   0.339   1.298
71033W        W43359   6.016  13.560   0.978
71034W        W43360  38.095  40.790   4.041
71035W        W43361   2.480  21.749  12.188
71036W        W43362  15.087  40.074  13.542
71037W        W43363  31.348   5.739  12.705
71038W        W43364  44.290  10.336  11.585
71039W        W43365  19.282  32.958   2.150
71040W        W43366  12.368  21.727  10.697
71041W        W43367   2.318  22.275  12.075
71042W        W43368  42.873  13.868   3.957
71043W        W43369  19.424  29.835   0.317
71044W        W43370  41.675  12.122   0.368
71045W        W43371  24.633  37.878  11.222
71046W        W43372   7.711  32.904   2.760
71047W        W43373   4.934  20.365  13.402
71048W        W43374  42.525  29.444   0.278
71049W        W43375  40.438  35.404  14.318
71050W        W43376  40.985  19.220   0.888
71051W        W43377   8.674  42.712  11.470
71052W        W43378  16.629   8.763  12.616
71053W        W43379  20.976   2.851  12.818
71054W        W43380  20.873   8.285  12.662
71055W        W43381  28.411  12.776  14.268
71056W        W43382  23.688  31.634   0.833
71057W        W43383   9.644  21.015  12.998
71058W        W43384  39.144  37.187   0.814
71059W        W43385  25.982   7.672  14.326
71060W        W43386  29.502   7.190   4.442
71061W        W43387  37.596  17.144   0.211
71062W        W43388  27.175   6.310   3.173
71063W        W43389  10.077  29.556   4.745
71064W        W43390  38.518   9.660   3.708
71065W        W43391  20.752  33.583  11.870
71066W        W43392  36.324  11.716   0.972
71067W        W43393   1.983  13.607   0.798
71068W        W43394  14.359   1.925  13.103
71069W        W43395  25.800  44.827  12.502
71070W        W43396   2.970  33.568   1.743
71071W        W43397  13.333  34.996   3.752
71072W        W43398  21.529  28.609   2.694
71073W        W43399   7.882  35.070   3.166
71074W        W43400   9.864   3.189   3.191
71075W        W43401  31.649  28.529  11.667
71076W        W43402  35.068  41.537  10.468
71077W        W43403  23.487   7.839  14.016
71078W        W43404  35.034  44.659   1.189
71079W        W43405  30.386  17.181  14.377
71080W        W43406   3.954  23.727  14.462
71081W        W43407  42.546   2.294  10.980
71082W        W43408  33.951  12.108   5.015
71083W        W43409   1.287   4.127   3.231
71084W        W43410  28.141  40.894  13.563
71085W        W43411   1.734  14.692   2.773
71086W        W43412   7.927  18.993  14.766
71087W        W43413   2.380  11.492  10.591
71088W        W43414   1.824  23.199   5.025
71089W        W43415  18.106  23.617   3.263
71090W        W43416  15.081  42.317  11.276
71091W        W43417  22.622   2.840  13.940
71092W        W43418   6.863  18.551   4.151
71093W        W43419  41.444  12.255  14.820
71094W        W43420  14.567  10.628   3.155
71095W        W43421  29.529  23.924  14.992
71096W        W43422  13.654  24.031  12.413
71097W        W43423   8.881  19.041   4.711
71098W        W43424   8.901  38.481   4.221
71099W        W43425   7.407  18.761  10.999
71100W        W43426  11.825   9.261  12.566
71101W        W43427  26.044  32.461   0.749
71102W        W43428  29.730  41.410   3.112
71103W        W43429   3.519  22.734  14.467
71104W        W43430   8.743  43.513  14.303
71105W        W43431  26.794  20.082  11.100
71106W        W43432  12.768  23.308  12.899
71107W        W43433  44.986   0.181   4.078
71108W        W43434  39.349  30.472   0.872
71109W        W43435  36.261  27.952   2.396
71110W        W43436  34.901  11.840  13.360
71111W        W43437  44.089  24.830   4.929
71112W        W43438  15.798  36.461  13.973
71113W        W43439   8.566   5.670   4.401
71114W        W43440  13.224  11.628  13.164
71115W        W43441   7.423  25.719  12.651
71116W        W43442  20.519  32.106   2.805
71117W        W43443   9.333   3.859  12.541
71118W        W43444   6.595  29.227   4.109
71119W        W43445  24.579  12.634   1.363
71120W        W43446   8.634  19.216  11.241
71121W        W43447  40.391  40.582   5.065
71122W        W43448   0.133  42.405  13.595
71123W        W43449  42.716  10.340   1.372
71124W        W43450  24.749  42.066   0.846
71125W        W43451   1.835  18.119  10.348
71126W        W43452   2.036  40.134  11.055
71127W        W43453  16.673  33.037   2.370
71128W        W43454  32.885  40.815  11.092
71129W        W43455  10.323  36.498  14.800
71130W        W43456  25.225   1.059   3.739
71131W        W43457  11.634   4.377   0.501
71132W        W43458  27.530  21.597   0.954
71133W        W43459   9.076   3.262   3.253
71134W        W43460  37.512   7.274   2.649
71135W        W43461  21.719  17.717   3.642
71136W        W43462   7.279   1.824   0.935
71137W        W43463  24.491  31.360   1.939
71138W        W43464  13.217  40.692   2.761
71139W        W43465  35.005   8.684   0.726
71140W        W43466  21.639  10.799  12.787
71141W        W43467   4.821  19.098   0.440
71142W        W43468  28.627   3.161  13.309
71143W        W43469  11.241  19.057  14.911
71144W        W43470  15.713  24.427  13.385
71145W        W43471  24.100   5.256  12.225
71146W        W43472  33.514  16.532   2.439
71147W        W43473  32.591  38.176   4.540
71148W        W43474   2.174  27.080   2.586
71149W        W43475  35.073  10.171   2.749
71150W        W43476  35.405  24.653   3.776
71151W        W43477  25.624  37.785   1.862
71152W        W43478   5.891  35.049   1.332
71153W        W43479  18.143  30.091  10.780
71154W        W43480  39.430  32.803  13.401
71155W        W43481  44.955   9.315   4.978
71156W        W43482  14.101  42.546   0.378
71157W        W43483   3.956  20.274  10.352
71158W        W43484  16.612  30.662   2.585
71159W        W43485  37.828  28.133  14.705
71160W        W43486  34.598  28.930  10.897
71161W        W43487  29.611  34.164  13.536
71162W        W43488   9.366  18.950  14.788
71163W        W43489  24.588  28.740  12.508
71164W        W43490  19.161  29.461   3.768
71165W        W43491  29.936  21.992  10.680
71166W        W43492  11.343  43.161   1.559
71167W        W43493  25.231  11.210  10.874
71168W        W43494  32.610  34.384  11.585
71169W        W43495  12.495  36.962   5.715
71170W        W43496   2.044  25.397  12.117
71171W        W43497   6.445   3.244   2.216
71172W        W43498  37.898  28.959   2.920
71173W        W43499  38.821  26.188  12.448
71174W        W43500  33.105  36.047  10.895
71175W        W43501   4.896   4.082   4.548
71176W        W43502  26.566  29.533  12.401
71177W        W43503   5.698  19.270   0.963
71178W        W43504  11.616  12.717   3.509
71179W        W43505  40.912  41.554   1.732
71180W        W43506  24.042  24.258  13.032
71181W        W43507  13.054  39.462   3.726
71182W        W43508   5.922   0.988   4.254
71183W        W43509   8.801   0.363  14.267
71184W        W43510  24.670  18.688  12.022
71185W        W43511   4.729  20.816  12.365
71186W        W43512  34.076   2.957   0.012
71187W        W43513  26.494  40.930   4.107
71188W        W43514  15.176  31.184   4.416
71189W        W43515  39.888  28.490   2.840
71190W        W43516  13.523  28.170   1.370
71191W        W43517  35.615   2.909  11.876
71192W        W43518  34.791  32.926  12.098
71193W        W43519  16.550  40.771  14.991
71194W        W43520  33.818  36.907  14.483
71195W        W43521  13.941  14.552   5.158
71196W        W43522  11.122  25.149  13.824
71197W        W43523   4.173   2.807  13.846
71198W        W43524  29.410  31.727   0.287
71199W        W43525  17.357  14.379  12.076
71200W        W43526  13.688  19.526  13.928
71201W        W43527  25.600   8.403   3.253
71202W        W43528  44.750   7.411   1.375
71203W        W43529   1.302   4.684  11.473
71204W        W43530  37.537  11.685  12.150
71205W        W43531  14.821  11.749  14.998
71206W        W43532  25.486  15.547   0.644
71207W        W43533  20.669   6.615  13.763
71208W        W43534  22.368   5.232  12.057
71209W        W43535  14.482  14.252  14.906
71210W        W43536   1.366  34.622  13.536
71211W        W43537  20.289   2.894  11.516
71212W        W43538  31.314  41.540   1.569
71213W        W43539  16.063   5.884  10.539
71214W        W43540  30.218  21.049  10.477
71215W        W43541  29.348  28.129  11.680
71216W        W43542  20.193   5.651   0.252
71217W        W43543  32.671  25.716   2.645
71218W        W43544  17.585  15.130  12.360
71219W        W43545  28.032  21.238   2.754
71220W        W43546   7.669  33.358  11.574
71221W        W43547  33.191   1.698  11.688
71222W        W43548   1.383  26.591   1.255
71223W        W43549  33.191  27.605  12.651
71224W        W43550  23.283  43.049   2.016
71225W        W43551  26.841  12.062  14.188
71226W        W43552  27.475  31.246   1.968
71227W        W43553   6.874  12.895  11.842
71228W        W43554  41.174  14.061   4.570
71229W        W43555  15.793  30.430   0.680
71230W        W43556  31.407  13.634  13.326
71231W        W43557   9.594  16.142   3.711
71232W        W43558  15.646  25.028   1.455
71233W        W43559  38.951   2.918   0.738
71234W        W43560  38.201  24.906   3.688
71235W        W43561  18.950  33.450   4.561
71236W        W43562  32.633  26.704   2.872
71237W        W43563  37.047   6.155  12.544
71238W        W43564  44.431  17.055   4.041
71239W        W43565  29.044   3.899   3.330
71240W        W43566  42.466  30.934   1.921
71241W        W43567   1.157  12.103  14.480
71242W        W43568  18.516  25.737   2.205
71243W        W43569  33.584  37.545   2.791
71244W        W43570   7.897  33.580  14.486
71245W        W43571  17.735  37.018   1.328
71246W        W43572  32.059   6.934  13.827
71247W        W43573  37.889   1.003   4.934
71248W        W43574  30.868  15.675  11.462
71249W        W43575  25.355  16.374  13.297
71250W        W43576  44.814  37.384   1.979
71251W        W43577  32.161   9.129  13.472
71252W        W43578  37.803  34.476  12.519
71253W        W43579  22.286  19.393   4.878
71254W        W43580  15.555  18.980  11.537
71255W        W43581   2.891  28.457   2.204
71256W        W43582  42.557  31.522  11.732
71257W        W43583  32.536  33.495  13.198
71258W        W43584  21.551  42.204   0.340
71259W        W43585  13.824  25.480  11.456
71260W        W43586  34.417  14.960   2.257
71261W        W43587  35.916  24.768   2.621
71262W        W43588   6.998  12.895   0.891
71263W        W43589  17.618  35.898   4.417
71264W        W43590   4.440  11.881  13.823
71265W        W43591  15.235  27.968   0.997
71266W        W43592  25.637  13.784  11.756
71267W        W43593  15.206  44.272  12.528
71268W        W43594  43.245  43.007  12.432
71269W        W43595  18.309  39.899  11.056
71270W        W43596  44.760  27.150  14.286
71271W        W43597  36.538  38.356  13.659
71272W        W43598  40.192   2.409  10.634
71273W        W43599  12.179  27.222   3.826
71274W        W43600   5.712   3.369   1.747
71275W        W43601  41.555  13.630   1.981
71276W        W43602  22.642   6.584  10.312
71277W        W43603  24.702  31.690   4.169
71278W        W43604  25.574  14.224  12.846
71279W        W43605   5.289  14.822   0.896
71280W        W43606  35.927  41.033   3.950
71281W        W43607  38.527  16.188   4.165
71282W        W43608  31.132  34.492   1.864
71283W        W43609  27.705  23.531   1.910
71284W        W43610  24.018  28.663  14.731
71285W        W43611  33.867  36.833  11.630
71286W        W43612  40.110  21.418   4.324
71287W        W43613  34.399  35.505   2.240
71288W        W43614   7.510  38.204  13.950
71289W        W43615   3.511  33.638  13.389
71290W        W43616  39.476   8.783  10.734
71291W        W43617  23.456  15.657   1.912
71292W        W43618   2.896   7.327  14.434
71293W        W43619  43.552  17.794  10.609
71294W        W43620  25.944  33.557   2.052
71295W        W43621   8.479  36.557   3.851
71296W        W43622   1.338  10.357  14.007
71297W        W43623  17.001  13.944   2.470
71298W        W43624  41.395  28.443  13.521
71299W        W43625   2.337  39.432   1.842
71300W        W43626  12.476   1.973   2.266
71301W        W43627   4.226  34.445   2.294
71302W        W43628  10.685  19.150   4.170
71303W        W43629  24.413   2.009   4.931
71304W        W43630   0.783   4.197   1.938
71305W        W43631  25.219   6.316  13.617
71306W        W43632  19.049  11.418  13.873
71307W        W43633  37.258  33.043   2.468
71308W        W43634  27.112  23.941  10.644
71309W        W43635  27.670   5.792   2.504
71310W        W43636  23.098  20.997   3.170
71311W        W43637  26.196  44.781   2.360
71312W        W43638  28.531  12.195   2.835
71313W        W43639  39.327  32.564  12.955
71314W        W43640   7.327  41.027   2.205
71315W        W43641  31.945   6.006  14.132
71316W        W43642  35.933  28.500   0.297
71317W        W43643  43.960  15.670  11.684
71318W        W43644  43.933  14.747   4.531
71319W        W43645  18.028  38.894  13.982
71320W        W43646  41.775  33.940   3.919
71321W        W43647   4.820   2.353   3.252
71322W        W43648  30.878  43.045  10.792
71323W        W43649  19.347  44.540  11.978
71324W        W43650  39.124  15.133   4.170
71325W        W43651  25.207  42.688  13.296
71326W        W43652   5.993  16.752   1.006
71327W        W43653  39.322  17.042   4.106
71328W        W43654  22.528   5.470  14.999
71329W        W43655  29.044  42.535  12.347
71330W        W43656   9.020   8.776   2.498
71331W        W43657  28.026  44.404  12.082
71332W        W43658  14.147  41.193  10.674
71333W        W43659  14.280  44.230   1.238
71334W        W43660   8.295  43.407   1.760
71335W        W43661  23.251  17.823  13.120
71336W        W43662   2.726  27.180   3.108
71337W        W43663  15.096  24.182  10.998
71338W        W43664   1.493   2.454   0.680
71339W        W43665  33.099  12.694  12.140
71340W        W43666   2.953  39.796   2.334
71341W        W43667  10.806   9.459   0.945
71342W        W43668  13.272  16.584   1.900
71343W        W43669  36.512  18.664   4.115
71344W        W43670  12.037  10.383   3.696
71345W        W43671  21.209   0.823   2.658
71346W        W43672  30.718  30.089  12.959
71347W        W43673  31.526  38.467   4.667
71348W        W43674   1.428  14.549   2.247
71349W        W43675  31.655  13.875   3.682
71350W        W43676   5.478   6.681  14.738
71351W        W43677   8.137  36.592  11.609
71352W        W43678  32.061  41.304  10.658
71353W        W43679  29.560  27.571  12.243
71354W        W43680  18.977   8.680  11.641
71355W        W43681   1.112  14.660   4.535
71356W        W43682   9.324   7.053   2.207
71357W        W43683   6.207   3.003   0.951
71358W        W43684  10.067  24.600   3.153
71359W        W43685  44.346  43.447   2.476
71360W        W43686   5.707  16.906  10.661
71361W        W43687  40.863  42.345   3.958
71362W        W43688  40.076  28.741   3.308
71363W        W43689  12.298  33.928  13.512
71364W        W43690  41.078  15.153   2.941
71365W        W43691  27.108  35.423   4.142
71366W        W43692  36.343  34.331  11.935
71367W        W43693  24.673  31.436  12.931
71368W        W43694  44.516  18.823   0.906
71369W        W43695  36.106  11.757   4.867
71370W        W43696   9.563  29.138  11.603
71371W        W43697  42.261   8.376   4.153
71372W        W43698  38.819  40.308  12.554
71373W        W43699  27.627  23.023   1.723
71374W        W43700  14.718  16.740   3.814
71375W        W43701  37.325   7.659   4.327
71376W        W43702  35.421  43.765   4.624
71377W        W43703  31.011   9.716   4.525
71378W        W43704  35.939  24.129  14.678
71379W        W43705  22.169  37.140   1.486
71380W        W43706  26.800  23.690  12.473
71381W        W43707  36.626  12.152  14.778
71382W        W43708  25.592   5.979  13.886
71383W        W43709  43.236  35.205  14.750
71384W        W43710  20.711  23.005  13.642
71385W        W43711  14.202  35.519   5.108
71386W        W43712  39.388  40.602  12.356
71387W        W43713  18.787  24.119   4.246
71388W        W43714   5.718  26.050   4.580
71389W        W43715  41.815  34.402   4.174
71390W        W43716  19.611  40.450   1.027
71391W        W43717  11.740  31.730  13.713
71392W        W43718  14.099   9.372  14.330
71393W        W43719  22.819  16.287   5.584
71394W        W43720   3.262  26.716  14.005
71395W        W43721   8.877  22.219  12.580
71396W        W43722  10.921  34.599   2.779
71397W        W43723  17.911  34.641   0.463
71398W        W43724  14.919  28.247   9.944
71399W        W43725  40.769   0.857   1.417
71400W        W43726  40.500  32.726   4.095
71401W        W43727  23.842  35.293   2.858
71402W        W43728  31.024  13.276   4.616
71403W        W43729  39.024  16.206   3.283
71404W        W43730  44.497   2.471  13.966
71405W        W43731  37.754   2.531  13.523
71406W        W43732   8.197  18.011  13.319
71407W        W43733  11.667  44.766   4.246
71408W        W43734  35.706  39.868   0.318
71409W        W43735   4.702  21.243   3.648
71410W        W43736   1.800  14.840  14.099
71411W        W43737  26.438  29.069   3.053
71412W        W43738  11.288  25.040   2.346
71413W        W43739  26.449  38.754  11.055
71414W        W43740  37.497  14.825   4.364
71415W        W43741  18.330   9.999  11.078
71416W        W43742  38.580  43.556  14.007
71417W        W43743  41.446  12.567  14.374
71418W        W43744  36.114   0.535  13.038
71419W        W43745  20.589  42.793   0.249
71420W        W43746   2.318  19.569  12.339
71421W        W43747   0.258  37.265  10.149
71422W        W43748  36.272  43.927  14.766
71423W        W43749  10.831  31.827   1.253
71424W        W43750  35.562  33.300  14.672
71425W        W43751  18.243  17.858   3.920
71426W        W43752   5.483  21.122  12.493
71427W        W43753   8.085  22.730   0.932
71428W        W43754  11.901  10.183   2.963
71429W        W43755  29.715  13.330  10.724
71430W        W43756  13.750  11.708  13.997
71431W        W43757  29.406  31.240   0.439
71432W        W43758  40.817  34.049  11.147
71433W        W43759  26.794  37.652   0.398
71434W        W43760  21.588  35.886  14.012
71435W        W43761  13.169  24.512  12.721
71436W        W43762  30.447  21.284   3.224
71437W        W43763  37.853  30.102  12.171
71438W        W43764  17.711  12.599  11.611
71439W        W43765   5.189   9.651   0.810
71440W        W43766  32.083  42.087   4.635
71441W        W43767  12.661  35.057   1.930
71442W        W43768  24.334  22.627  10.450
71443W        W43769  23.402  19.762  14.811
71444W        W43770   2.620   1.975   1.217
71445W        W43771  37.721  25.035   3.576
71446W        W43772  19.044   1.200   1.112
71447W        W43773  12.438  18.649   3.128
71448W        W43774  37.898  17.111   2.308
71449W        W43775  41.244  43.295   2.725
71450W        W43776   1.270  42.063  12.675
71451W        W43777  14.389  13.418  12.433
71452W        W43778  13.296   1.204  11.591
71453W        W43779  43.483  29.472   0.973
71454W        W43780  42.042  37.050   3.107
71455W        W43781   6.430  19.705   0.157
71456W        W43782  42.095  27.689   1.740
71457W        W43783  11.801  11.576  12.329
71458W        W43784  10.424  29.478   3.032
71459W        W43785  18.841  10.297   3.270
71460W        W43786  42.276  37.025   1.690
71461W        W43787  30.583  19.606   4.557
71462W        W43788  16.557  14.310  14.869
71463W        W43789   6.866   7.435  10.804
71464W        W43790   3.950  15.604  12.852
71465W        W43791   9.170  17.671  10.523
71466W        W43792   7.743  14.335   5.040
71467W        W43793   9.234   1.722  11.515
71468W        W43794  42.895  36.551   0.265
71469W        W43795  22.869  19.829   5.078
71470W        W43796  33.296  21.524  12.089
71471W        W43797  15.558  19.279   3.889
71472W        W43798  12.284  19.635  11.972
71473W        W43799  37.045  42.241  14.029
71474W        W43800  36.070   0.305  12.533
71475W        W43801  18.665   1.505   4.163
71476W        W43802  16.091  42.458   2.359
71477W        W43803  22.290  16.135  10.691
71478W        W43804  37.264  18.081  11.459
71479W        W43805  42.864  35.876  11.621
71480W        W43806  25.156   8.424   2.771
71481W        W43807  16.712  29.656  12.083
71482W        W43808  22.603  35.616   0.386
71483W        W43809  42.305  16.978  12.539
71484W        W43810   9.717  22.780  12.523
71485W        W43811  27.036   4.625   2.269
71486W        W43812  10.140  25.190  10.156
71487W        W43813  30.158  17.126   4.656
71488W        W43814  21.992  24.126  12.543
71489W        W43815  11.570  20.324  14.971
71490W        W43816   1.027  11.053  10.162
71491W        W43817  21.540  39.679   3.171
71492W        W43818  12.573  24.240   4.593
71493W        W43819  24.548  29.261  12.353
71494W        W43820  24.134  41.022   3.831
71495W        W43821  21.668  39.761  14.916
71496W        W43822   3.224   2.818   2.401
71497W        W43823  17.571  34.415  10.842
71498W        W43824  31.089  27.502   2.745
71499W        W43825   8.103  29.989   0.033
71500W        W43826   3.963   3.060  10.069
71501W        W43827  16.856   0.278   1.273
71502W        W43828   1.924   3.272  14.309
71503W        W43829  13.832  43.384  12.453
71504W        W43830  21.248  21.066  12.800
71505W        W43831  43.738  30.928  14.914
71506W        W43832  16.405  16.737   0.195
71507W        W43833  19.105  10.439   3.690
71508W        W43834  44.935  15.126  12.920
71509W        W43835  22.430  28.048   1.799
71510W        W43836  24.685  30.939  14.647
71511W        W43837  42.775  36.492   4.544
71512W        W43838   2.589  16.817  11.415
71513W        W43839  28.708   3.551  14.385
71514W        W43840  28.925  31.933  11.630
71515W        W43841  29.165  43.564  14.913
71516W        W43842   9.862   9.377   4.021
71517W        W43843  37.337  10.759  12.544
71518W        W43844   5.502  14.803  12.451
71519W        W43845  36.454  39.373   0.813
71520W        W43846   4.765  30.005  13.028
71521W        W43847  19.143  19.690  12.368
71522W        W43848   6.506  26.901   2.250
71523W        W43849  28.079  16.521  11.658
71524W        W43850  33.327  39.386   2.263
71525W        W43851  26.989  24.314   1.426
71526W        W43852  23.781  44.004   1.017
71527W        W43853   8.191  36.996   2.137
71528W        W43854   8.331  13.777  13.566
71529W        W43855  37.580  25.556  12.374
71530W        W43856  12.041  30.574  14.177
71531W        W43857  20.828  25.974   5.116
71532W        W43858  22.501   3.190   0.205
71533W        W43859  36.068  16.305   0.409
71534W        W43860  38.335   3.831   2.311
71535W        W43861   7.671  10.183  10.636
71536W        W43862   6.513  10.621   3.666
71537W        W43863  44.756  36.054   2.100
71538W        W43864  39.477   7.416   3.387
71539W        W43865  14.192  15.585   0.002
71540W        W43866   4.915   7.168   0.220
71541W        W43867  34.109   1.219  13.016
71542W        W43868  28.577  35.413   2.268
71543W        W43869  39.742   6.422  12.091
71544W        W43870   8.745  13.761   4.000
71545W        W43871  35.396  20.694   3.648
71546W        W43872  12.930  29.971  11.731
71547W        W43873  31.686  10.859   2.825
71548W        W43874  39.847  19.785   0.501
71549W        W43875  40.288   2.854   2.190
71550W        W43876  13.837  26.989   5.479
71551W        W43877   5.864  37.972   2.730
71552W        W43878  18.644  43.543  14.839
71553W        W43879  32.555   8.838   5.115
71554W        W43880  36.491  36.825  11.549
71555W        W43881  20.964  43.993  13.121
71556W        W43882  38.040   2.931   0.281
71557W        W43883  22.234  41.796  14.952
71558W        W43884  24.840  32.824  13.375
71559W        W43885  24.495  27.043  11.540
71560W        W43886  27.239  21.985  12.676
71561W        W43887  23.193  20.030   0.873
71562W        W43888  24.525  41.298   1.373
71563W        W43889  42.232   5.150   1.782
71564W        W43890   3.216  33.167  14.345
71565W        W43891   6.156  41.195  12.447
71566W        W43892  16.749  40.376  12.450
71567W        W43893  21.272   2.988  11.507
71568W        W43894  38.153  33.880   3.106
71569W        W43895   4.386  12.388  13.987
71570W        W43896   4.162  30.183  13.533
71571W        W43897  11.550   3.281   1.358
71572W        W43898   7.423  34.656   3.692
71573W        W43899  10.557  13.728  14.322
71574W        W43900  44.769  30.391   1.793
71575W        W43901  13.987  43.623  11.486
71576W        W43902  26.970  14.760   1.727
71577W        W43903  28.666  36.918  13.155
71578W        W43904  33.117  41.385   2.793
71579W        W43905  34.783  24.884  14.306
71580W        W43906  14.002   7.493   3.793
71581W        W43907   1.785  44.557   3.746
71582W        W43908  38.460  18.475   4.697
71583W        W43909  35.124  37.864  11.815
71584W        W43910  18.359  37.822  14.556
71585W        W43911  25.934  43.551   0.785
71586W        W43912  40.466   5.738   1.811
71587W        W43913  22.128  35.986   1.220
71588W        W43914  35.513  33.990   1.329
71589W        W43915  19.817  32.136   4.871
71590W        W43916   2.159  30.236  13.591
71591W        W43917  27.345  35.260  14.776
71592W        W43918   7.574  36.214   5.038
71593W        W43919   9.428  23.740  11.107
71594W        W43920   5.495  24.564  14.251
71595W        W43921  13.060   7.759   3.285
71596W        W43922  40.557  29.665   1.413
71597W        W43923   5.236  18.517  12.032
71598W        W43924  12.036  24.934   4.186
71599W        W43925  35.779  40.976   4.423
71600W        W43926   0.150  11.932   4.027
71601W        W43927   9.887  36.304  12.810
71602W        W43928   2.306  34.469  13.952
71603W        W43929  24.017  29.618   4.666
71604W        W43930  26.031  38.034  10.744
71605W        W43931   0.517  21.002   0.419
71606W        W43932  22.610   5.647  14.530
71607W        W43933  13.290   1.780   2.623
71608W        W43934  30.604  14.659   0.505
71609W        W43935  37.788  20.155  11.458
71610W        W43936  10.252  39.490  13.425
71611W        W43937  36.461  13.739   4.898
71612W        W43938  32.602  43.835  10.830
71613W        W43939  29.524  40.594  14.435
71614W        W43940  33.478  17.605  13.379
71615W        W43941  25.983  12.255  14.746
71616W        W43942  19.056  30.758   2.147
71617W        W43943  16.105  37.550   4.708
71618W        W43944   4.241  41.895  14.446
71619W        W43945  25.641  15.630   3.553
71620W        W43946  16.716  20.570  10.823
71621W        W43947   2.712  44.998   2.259
71622W        W43948   4.788  44.357   4.750
71623W        W43949  29.647  10.813   2.337
71624W        W43950  26.004   4.899  11.712
71625W        W43951  33.618  23.084  10.492
71626W        W43952  36.469  25.982  14.866
71627W        W43953  10.257  27.453  13.349
71628W        W43954  17.547   8.882   2.576
71629W        W43955  21.162   3.327   3.220
71630W        W43956  34.661   2.560  11.641
71631W        W43957  38.867  22.352  10.129
71632W        W43958  29.433  32.926  12.002
71633W        W43959  28.854  38.940  11.373
71634W        W43960  23.241   2.641   1.903
71635W        W43961  30.362  44.727  11.806
71636W        W43962   3.384   1.387   2.223
71637W        W43963  42.399  26.416  11.916
71638W        W43964  26.657  16.126   1.765
71639W        W43965  44.323  44.541  11.497
71640W        W43966   5.956   2.175  11.935
71641W        W43967  13.542  12.113  13.751
71642W        W43968   4.354  27.709  14.986
71643W        W43969  22.213  13.599   2.303
71644W        W43970  39.404   7.458  14.970
71645W        W43971  18.851  33.480  12.539
71646W        W43972   4.888  29.997   2.709
71647W        W43973  13.580  36.680   2.091
71648W        W43974  34.938  42.641  13.278
71649W        W43975   8.759  13.546  13.396
71650W        W43976  39.345  25.209   2.831
71651W        W43977  13.317  32.010  11.070
71652W        W43978  22.756   5.245   0.420
71653W        W43979  19.284  19.697  14.452
71654W        W43980  25.227  35.364   0.981
71655W        W43981  42.543   9.069   3.552
71656W        W43982  24.626  36.636   3.755
71657W        W43983  11.799  15.184   2.609
71658W        W43984  24.533   0.766   3.118
71659W        W43985  17.166   9.174   4.160
71660W        W43986  24.190  21.053  14.042
71661W        W43987   8.083  14.666  12.678
71662W        W43988   6.697   0.748   2.389
71663W        W43989  20.468   3.663   2.727
71664W        W43990  15.180  33.184  11.920
71665W        W43991  10.674   8.869   0.500
71666W        W43992  42.923  35.292  12.960
71667W        W43993  14.578  36.928   1.117
71668W        W43994  43.715  12.666   0.925
71669W        W43995  24.684  22.105  13.884
71670W        W43996  37.926   1.157  13.471
71671W        W43997  14.848   4.698   4.946
71672W        W43998  42.851  31.021  12.568
71673W        W43999  38.543  39.921  10.491
71674W        W44000  16.234  31.866   0.573
71675W        W44001  20.949  30.989   0.861
71676W        W44002  37.065  30.249  14.848
71677W        W44003   5.314   0.143  13.625
71678W        W44004   4.833   7.826   0.029
71679W        W44005  21.334  33.962  13.818
71680W        W44006  31.120  17.284  10.701
71681W        W44007  38.851  17.295   0.769
71682W        W44008  16.114  36.569   2.247
71683W        W44009  37.735  28.871  12.374
71684W        W44010  22.926  41.462   0.834
71685W        W44011  40.131   7.052   1.255
71686W        W44012  18.717  14.301   1.977
71687W        W44013  36.456  25.406   1.986
71688W        W44014  32.110   6.287   3.785
71689W        W44015  38.895  40.107   4.708
71690W        W44016  21.673   6.390  10.529
71691W        W44017  36.696  24.600  14.419
71692W        W44018  21.533  18.771   3.194
71693W        W44019   7.918  38.961   1.299
71694W        W44020  42.558   5.961  13.615
71695W        W44021  25.728  19.732   0.393
71696W        W44022  29.077  37.527   1.781
71697W        W44023  41.926  11.408   2.443
71698W        W44024  34.359  33.274   5.002
71699W        W44025   3.683  15.212   3.005
71700W        W44026  43.698  15.359  14.328
71701W        W44027  31.431  39.130  11.328
71702W        W44028   2.257  27.417   3.265
71703W        W44029  17.827  35.868  14.992
71704W        W44030  35.809  36.416   2.648
71705W        W44031  35.384  28.140  13.428
71706W        W44032   6.242  29.280  11.679
71707W        W44033  25.577  31.109   0.064
71708W        W44034  25.063  26.987   1.029
71709W        W44035  27.284   5.817   3.376
71710W        W44036  34.728  30.578   3.409
71711W        W44037  20.591   8.244   3.905
71712W        W44038   9.454   4.916  10.102
71713W        W44039  16.830  22.631  14.079
71714W        W44040  35.445  33.887  13.857
71715W        W44041   0.049  40.885  13.538
71716W        W44042   9.435  40.448   1.787
71717W        W44043  20.806  27.953  14.535
71718W        W44044  39.663  14.880  13.503
71719W        W44045   3.505  10.618   4.065
71720W        W44046  19.074  33.900   1.244
71721W        W44047  37.131  32.542   2.673
71722W        W44048  40.385  19.669  11.425
71723W        W44049  29.862  41.777  12.504
71724W        W44050  28.657  18.586   3.344
71725W        W44051  29.099  43.593   2.207
71726W        W44052  30.609   3.913  12.069
71727W        W44053   9.754   9.382  14.364
71728W        W44054  12.313  17.101   1.675
71729W        W44055  30.060  42.669  13.007
71730W        W44056   2.891   6.954  14.800
71731W        W44057  32.505   0.889  14.422
71732W        W44058  30.681  30.642  13.017
71733W        W44059  23.749   3.512  13.047
71734W        W44060  37.262  26.371   5.078
71735W        W44061  15.873   8.314   3.363
71736W        W44062  19.478   4.247  13.103
71737W        W44063  35.916   4.365   4.480
71738W        W44064  32.067  39.642   0.735
71739W        W44065  15.682   5.724  12.412
71740W        W44066  24.506  19.202  13.896
71741W        W44067  13.396  36.703  11.898
71742W        W44068  25.944  15.648   5.357
71743W        W44069   0.284  19.491   4.965
71744W        W44070  13.711  18.201   2.910
71745W        W44071  29.571  21.080  12.684
71746W        W44072  14.905   6.231   2.701
71747W        W44073  25.221  31.104  13.000
71748W        W44074   8.321  20.676  10.413
71749W        W44075   2.514  28.487  13.851
71750W        W44076  37.806  28.446   2.842
71751W        W44077  10.308  12.438   4.721
71752W        W44078  10.597  14.669  13.540
71753W        W44079  16.038  35.632  11.032
71754W        W44080   1.293  19.715  10.480
71755W        W44081  27.758  21.226   1.769
71756W        W44082  36.905  40.571  14.824
71757W        W44083  20.637  11.529   2.700
71758W        W44084  23.790   6.205  13.377
71759W        W44085   0.273  35.508  12.159
71760W        W44086  17.360  12.223  14.486
71761W        W44087  25.019  36.610  14.410
71762W        W44088  42.481  34.144  14.686
71763W        W44089  26.490  33.236  10.733
71764W        W44090  30.122  33.088   3.113
71765W        W44091  25.691   7.815   4.599
71766W        W44092  33.063  40.569   1.672
71767W        W44093  28.896  22.607   0.803
71768W        W44094  42.064  31.958  14.308
71769W        W44095  25.117  44.019   0.965
71770W        W44096   1.440  13.260   4.326
71771W        W44097  36.848  19.871   4.302
71772W        W44098  15.416  42.836  14.568
71773W        W44099  24.955  38.437  13.026
71774W        W44100   8.213  27.360   2.932
71775W        W44101   6.428  22.687   3.584
71776W        W44102  20.476   0.288   0.850
71777W        W44103   0.439  11.105  10.623
71778W        W44104   6.931  31.752   0.984
71779W        W44105   7.136  16.246   1.274
71780W        W44106  31.672  34.892   1.676
71781W        W44107   1.319   8.623  10.949
71782W        W44108  20.980  23.192   1.149
71783W        W44109  16.258  23.601  10.546
71784W        W44110   8.345   9.202  11.144
71785W        W44111   2.236  12.428   1.234
71786W        W44112   2.933  17.704  14.324
71787W        W44113  12.242  34.980   4.533
71788W        W44114  39.299  20.905  13.639
71789W        W44115  35.913  37.094  13.855
71790W        W44116  35.632  29.258   2.663
71791W        W44117  11.831  19.160  13.365
71792W        W44118  21.243  30.488   4.952
71793W        W44119  18.640  27.370  13.451
71794W        W44120   4.001  18.505  13.233
71795W        W44121  33.382   5.728  11.138
71796W        W44122  23.227  12.565   3.317
71797W        W44123  42.491   1.904   0.705
71798W        W44124  18.473  15.313   5.139
71799W        W44125  21.670  28.662  12.908
71800W        W44126  38.140  35.168  12.093
71801W        W44127   9.272   4.945   2.290
71802W        W44128  44.672  42.790   0.934
71803W        W44129  16.721  16.025   0.372
71804W        W44130   3.045  24.740   2.625
71805W        W44131  39.589  37.820  14.520
71806W        W44132  32.484  34.822  13.299
71807W        W44133  24.204  29.942  11.613
71808W        W44134  19.188  17.027   0.164
71809W        W44135   2.851  22.306  10.354
71810W        W44136  36.365  37.978   4.292
71811W        W44137  30.144  16.648   3.366
71812W        W44138  18.709  38.830  13.477
71813W        W44139  35.620  24.000  11.090
71814W        W44140  30.129  25.025   3.209
71815W        W44141   7.425  42.701  14.380
71816W        W44142  32.953  14.346   0.975
71817W        W44143  17.005  38.492   0.391
71818W        W44144  27.848   5.718   0.788
71819W        W44145  13.636  42.764  12.406
71820W        W44146  44.570  33.087  13.765
71821W        W44147   5.252   8.458   2.363
71822W        W44148  16.056   3.842   4.069
71823W        W44149  29.487  32.554   2.673
71824W        W44150  12.765  20.385   1.010
71825W        W44151  41.604  40.406   4.153
71826W        W44152   2.204  32.644  10.981
71827W        W44153  27.985  36.474  11.479
71828W        W44154   1.818  43.023   2.500
71829W        W44155   2.416  32.169  11.167
71830W        W44156  26.427  41.561  14.199
71831W        W44157  23.178  41.462   4.086
71832W        W44158   6.720  32.953  10.727
71833W        W44159   6.952  41.238   1.913
71834W        W44160  39.048  24.425   1.906
71835W        W44161  25.572  25.588  13.538
71836W        W44162   6.816   8.493   4.717
71837W        W44163  25.198  20.408  14.138
71838W        W44164  40.925  13.197   1.323
71839W        W44165  17.067   0.338  11.974
71840W        W44166  37.009   0.888   1.251
71841W        W44167  44.834  25.778  13.325
71842W        W44168  27.895  10.323  10.182
71843W        W44169  41.557   7.428   1.715
71844W        W44170  17.730   8.911  11.300
71845W        W44171  40.944  33.521  11.093
71846W        W44172  11.748  42.973  11.123
71847W        W44173  20.837  11.240  11.976
71848W        W44174  35.576  18.559  13.438
71849W        W44175   1.772  38.364   2.281
71850W        W44176   1.071   2.320   3.587
71851W        W44177  23.107  20.975   1.684
71852W        W44178  26.552  19.777   4.899
71853W        W44179  24.563  23.046  10.766
71854W        W44180   0.160   4.042   4.214
71855W        W44181  32.522  12.750   4.764
71856W        W44182  13.183   1.760  14.951
71857W        W44183   9.279   6.856  10.521
71858W        W44184  40.297  27.114  13.533
71859W        W44185  29.631  42.205   2.332
71860W        W44186  40.344  30.582  11.895
71861W        W44187   0.009  33.406   2.743
71862W        W44188  10.767  18.335   3.833
71863W        W44189  17.116  23.218  10.647
71864W        W44190   3.403  18.942  10.757
71865W        W44191  10.822  14.692   0.364
71866W        W44192  15.265  12.856  14.876
71867W        W44193  27.647   9.711  11.719
71868W        W44194   8.918  18.078  14.922
71869W        W44195  38.036  30.528  13.089
71870W        W44196  15.327  25.252   3.756
71871W        W44197   8.222  25.064   2.886
71872W        W44198   9.004   9.201   0.948
71873W        W44199  42.103   1.051   4.999
71874W        W44200  24.762  22.203  11.967
71875W        W44201  32.048  29.403  11.120
71876W        W44202  18.828  21.004  12.499
71877W        W44203  27.238  13.525  14.972
71878W        W44204   2.435   9.193   1.424
71879W        W44205   8.298  24.251  12.983
71880W        W44206  23.185  41.489   4.607
71881W        W44207   3.733  40.417   2.435
71882W        W44208  15.230  15.603   2.405
71883W        W44209  16.537  24.057   1.461
71884W        W44210   7.701  15.240   1.235
71885W        W44211   9.270  30.145  14.198
71886W        W44212  12.420  11.259  12.092
71887W        W44213  14.129  36.839  13.465
71888W        W44214  22.658   7.422  13.889
71889W        W44215  39.888  23.531   1.142
71890W        W44216  42.256  14.551   4.250
71891W        W44217   1.291  24.059   4.581
71892W        W44218   3.719  20.801  14.310
71893W        W44219  36.819   8.369  14.393
71894W        W44220  25.535  43.112  11.513
71895W        W44221  36.808  30.637  11.140
71896W        W44222  10.483  21.299   5.076
71897W        W44223  38.013   7.410  10.374
71898W        W44224  36.515  27.604  11.566
71899W        W44225  33.991  36.032  14.426
71900W        W44226   0.907  43.833  12.549
71901W        W44227  19.961  20.673  14.880
71902W        W44228   2.707  16.024  14.933
71903W        W44229   5.045  14.653  13.884
71904W        W44230   3.706  17.990   2.769
71905W        W44231  33.479  25.030   0.498
71906W        W44232   8.797  15.089   3.170
71907W        W44233  38.095   5.696  12.554
71908W        W44234  40.335  13.760  13.062
71909W        W44235  18.400   5.723   2.413
71910W        W44236  38.414   1.990   3.632
71911W        W44237  26.766   5.726   3.338
71912W        W44238   6.790  41.539  13.497
71913W        W44239  19.475  21.547   1.978
71914W        W44240  38.057  18.823   2.784
71915W        W44241  32.155  42.657   0.737
71916W        W44242  15.675  34.495  14.132
71917W        W44243  42.899  17.632   0.444
71918W        W44244  33.395   2.835   4.354
71919W        W44245  42.048  20.751   3.683
71920W        W44246  34.389  29.904  11.094
71921W        W44247  16.574  28.013   1.994
71922W        W44248  11.878   6.800   2.912
71923W        W44249  24.481  23.651   4.742
71924W        W44250  16.193  42.545   4.556
71925W        W44251  19.050  17.221   4.225
71926W        W44252  27.438   6.289  11.474
71927W        W44253   2.974  43.005  14.484
71928W        W44254  31.608  29.185  10.975
71929W        W44255  34.303  12.210   1.709
71930W        W44256  22.065  13.825   2.808
71931W        W44257  39.894   6.051  12.965
71932W        W44258  27.917  43.094  14.486
71933W        W44259  10.613  15.768  11.385
71934W        W44260  31.840  11.249   1.833
71935W        W44261  36.554  37.929   4.781
71936W        W44262  15.607  34.793   3.224
71937W        W44263   4.482  30.018   4.389
71938W        W44264   6.350   2.360  14.856
71939W        W44265  40.102  25.604   1.418
71940W        W44266  42.231  16.763   4.294
71941W        W44267  35.936  18.821  14.405
71942W        W44268  37.325   3.263   1.378
71943W        W44269   9.278   5.178  11.952
71944W        W44270  32.409  26.446  12.433
71945W        W44271  12.459  23.709  10.481
71946W        W44272  13.750   2.148  13.534
71947W        W44273   2.736  42.116  13.546
71948W        W44274  26.690  25.510  14.923
71949W        W44275  22.681  37.547  10.194
71950W        W44276  19.705  17.537  12.310
71951W        W44277  33.496  40.961  13.882
71952W        W44278  36.071   7.232  10.853
71953W        W44279  32.629   9.759  11.174
71954W        W44280   6.314  34.539   4.699
71955W        W44281  28.158  27.950  11.126
71956W        W44282  19.627  29.654   3.871
71957W        W44283  22.679   1.590   3.561
71958W        W44284  40.177   3.761   3.623
71959W        W44285  20.676  11.103  12.997
71960W        W44286  22.800  42.769   0.324
71961W        W44287  27.683  42.761  12.418
71962W        W44288  11.078  25.082   3.840
71963W        W44289  29.471  17.260   1.265
71964W        W44290  29.649  42.892  13.805
71965W        W44291  43.112  20.186   1.441
71966W        W44292   8.885  40.327  13.390
71967W        W44293  31.495  26.320   2.268
71968W        W44294   0.228  22.721   0.905
71969W        W44295  36.138  34.422   2.885
71970W        W44296  32.090  20.567   4.629
71971W        W44297  31.476  36.463  13.216
71972W        W44298  31.508  41.713   4.137
71973W        W44299  25.071  26.843   5.259
71974W        W44300  26.074  30.998   0.903
71975W        W44301  27.214  18.153  14.967
71976W        W44302  37.151  32.323  10.575
71977W        W44303  41.406  38.482  11.514
71978W        W44304  40.020   7.954   0.479
71979W        W44305  41.617   1.539  12.788
71980W        W44306   7.854  24.034  10.758
71981W        W44307  36.045   6.306   3.091
71982W        W44308  38.839  39.785  12.567
71983W        W44309  42.792  43.542   4.144
71984W        W44310  11.857  22.776   5.229
71985W        W44311   0.595   0.530   4.247
71986W        W44312  28.116  22.712  10.733
71987W        W44313   3.667  16.480   4.066
71988W        W44314   2.530   6.689   2.679
71989W        W44315  20.578  17.041  13.394
71990W        W44316  43.906  16.277   2.484
71991W        W44317  28.964  32.468  12.623
71992W        W44318  26.978  22.069  11.709
71993W        W44319  21.273  21.593  12.917
71994W        W44320  26.943  28.977   1.914
71995W        W44321  11.772  33.936  12.641
71996W        W44322  23.536  42.365   2.863
71997W        W44323  40.829   1.482  12.410
71998W        W44324   4.893  29.184   4.717
71999W        W44325  44.850  27.607  12.473
72000W        W44326  17.090  11.808  14.287
72001W        W44327  18.668  23.504  10.796
72002W        W44328   0.817   0.828  13.345
72003W        W44329   5.695  34.999  10.410
72004W        W44330  27.260  27.700  12.033
72005W        W44331  36.847   5.791  14.935
72006W        W44332  42.286  25.694   0.360
72007W        W44333  34.088  37.279  11.473
72008W        W44334  43.545   0.426  13.531
72009W        W44335  10.408  13.732   1.825
72010W        W44336  35.058   6.948  11.695
72011W        W44337  21.128   9.642   0.817
72012W        W44338  16.197  20.702   1.558
72013W        W44339  18.598  25.200  11.066
72014W        W44340  11.867  17.496   2.273
72015W        W44341  24.072  39.933   3.046
72016W        W44342  40.991   6.387  14.476
72017W        W44343  43.963  10.997  10.849
72018W        W44344  11.950  43.830   1.914
72019W        W44345  26.028  21.581  10.904
72020W        W44346  39.790  22.157   1.352
72021W        W44347   1.586  27.419  12.104
72022W        W44348  14.550   7.446   2.775
72023W        W44349   1.512  16.904  10.232
72024W        W44350  41.865  38.771   3.707
72025W        W44351  27.963   4.816  14.413
72026W        W44352  22.016  44.818   2.429
72027W        W44353  35.749  14.176   0.414
72028W        W44354  19.733  29.613  12.880
72029W        W44355  14.636  20.973  14.222
72030W        W44356  16.096   4.487  12.500
72031W        W44357   4.682  34.072   3.131
72032W        W44358  34.033  11.952  14.482
72033W        W44359   2.529   6.185  12.011
72034W        W44360  14.632  30.150  11.565
72035W        W44361  35.802  15.268   4.642
72036W        W44362  16.591   4.297  10.678
72037W        W44363  37.103   8.349  13.499
72038W        W44364   3.024   6.435   1.087
72039W        W44365  29.155  11.253   1.921
72040W        W44366  29.483  31.128  11.392
72041W        W44367  10.772  40.363  14.302
72042W        W44368   2.996   0.479  11.215
72043W        W44369  11.288  34.941   2.014
72044W        W44370  14.241  26.262  13.992
72045W        W44371   8.604   7.937   3.275
72046W        W44372  11.607  19.209  11.625
72047W        W44373  36.837   7.612  10.215
72048W        W44374  33.151  18.100  10.457
72049W        W44375   6.361  14.491   9.855
72050W        W44376  12.625  21.448  14.780
72051W        W44377  33.368   7.274   1.301
72052W        W44378  28.548  15.471   2.639
72053W        W44379  38.532   4.887   1.846
72054W        W44380  41.374  33.635  10.764
72055W        W44381  26.502  44.376   2.185
72056W        W44382  27.851   6.584   2.247
72057W        W44383  20.847  36.332   3.200
72058W        W44384  12.895  44.486   4.674
72059W        W44385   0.728  40.600   2.247
72060W        W44386  19.435  22.475   4.608
72061W        W44387  18.298  13.585   3.647
72062W        W44388  42.321  33.292  14.209
72063W        W44389   8.479  24.887   0.052
72064W        W44390   2.671  11.222   1.907
72065W        W44391   0.811  29.611   0.259
72066W        W44392   2.384  31.418   3.697
72067W        W44393  34.063  14.655   2.511
72068W        W44394  40.024  22.195   3.472
72069W        W44395   1.312  11.616  10.661
72070W        W44396  44.541  37.925  12.487
72071W        W44397  19.397  10.838   3.329
72072W        W44398  20.006   4.065   3.252
72073W        W44399   8.700   1.445  12.724
72074W        W44400  32.091  28.954   3.623
72075W        W44401   1.749  25.647  11.128
72076W        W44402   0.706   4.378   0.414
72077W        W44403  24.020  12.846  13.673
72078W        W44404  41.641   8.954  12.849
72079W        W44405  32.404  43.854   1.746
72080W        W44406   3.847   7.067   1.906
72081W        W44407  18.074  22.062  13.325
72082W        W44408  20.208  36.363  11.836
72083W        W44409  13.631   3.220   0.906
72084W        W44410  30.893  22.926   0.795
72085W        W44411  22.072  24.681  14.822
72086W        W44412  23.583   3.352   0.846
72087W        W44413  14.332   7.892   3.825
72088W        W44414  29.032   7.423   2.826
72089W        W44415   3.073  26.060  11.633
72090W        W44416  23.603  15.622  13.255
72091W        W44417  44.876  38.036   2.669
72092W        W44418  13.035  40.200   2.816
72093W        W44419  25.732  22.985  14.904
72094W        W44420  17.269  33.675   2.245
72095W        W44421  15.030  22.135   1.976
72096W        W44422   5.661  12.195   2.845
72097W        W44423  17.267  10.142  11.956
72098W        W44424  10.973  20.051  12.014
72099W        W44425  29.458  29.003  11.618
72100W        W44426  22.631  43.552   0.876
72101W        W44427  42.355  30.418   1.955
72102W        W44428  24.549  26.586  13.343
72103W        W44429  22.561  31.384  13.429
72104W        W44430  36.269  21.087  14.237
72105W        W44431  19.443   6.302   5.095
72106W        W44432  13.667  44.335   0.481
72107W        W44433  25.979  16.736   5.282
72108W        W44434  43.993  37.075  10.567
72109W        W44435  39.602   4.666   0.274
72110W        W44436   3.299  15.148  14.709
72111W        W44437   5.232  30.417   4.142
72112W        W44438  27.504  19.135   0.814
72113W        W44439   2.477  15.586   1.343
72114W        W44440  18.159  16.097  12.856
72115W        W44441  38.984  13.678  13.456
72116W        W44442  21.470  24.138  12.462
72117W        W44443  34.177   7.322   0.946
72118W        W44444  33.410   9.666   1.913
72119W        W44445  37.553  28.971   1.372
72120W        W44446  24.626  38.871   0.883
72121W        W44447   8.744  35.241   5.153
72122W        W44448  31.123   4.313  14.790
72123W        W44449   2.178  29.324  12.307
72124W        W44450  23.468  38.317   3.309
72125W        W44451  27.140  39.580  11.690
72126W        W44452  37.980   9.397   3.634
72127W        W44453   2.680  44.449  13.293
72128W        W44454  12.310  34.141   0.884
72129W        W44455  18.821   5.597  13.444
72130W        W44456  37.704  40.648   0.416
72131W        W44457   3.765  25.512   0.663
72132W        W44458  30.698  35.845   3.651
72133W        W44459  18.097  10.354  11.844
72134W        W44460  11.217   9.670  12.415
72135W        W44461  19.531  10.708   1.615
72136W        W44462  43.705  42.728   1.538
72137W        W44463  27.734  28.467   1.881
72138W        W44464   2.272  32.511  14.825
72139W        W44465  31.000   2.200  14.421
72140W        W44466   8.769  43.972  14.547
72141W        W44467  15.577  20.087  14.885
72142W        W44468   6.347   7.030   2.855
72143W        W44469   6.758  42.922   3.680
72144W        W44470   1.746  19.306   1.839
72145W        W44471  31.089   1.957  13.962
72146W        W44472  35.565  38.101  13.562
72147W        W44473  14.133  35.008   1.358
72148W        W44474  43.048  12.219  12.016
72149W        W44475   1.242  18.571   4.763
72150W        W44476   6.166   8.546   2.318
72151W        W44477   6.151  33.144   0.943
72152W        W44478  41.720  25.579   2.691
72153W        W44479  16.650   4.751  13.478
72154W        W44480  17.771  19.496   3.333
72155W        W44481   8.171   3.457  14.199
72156W        W44482  20.081   6.717   4.144
72157W        W44483  24.164  23.634   1.339
72158W        W44484   8.594   3.713   2.087
72159W        W44485  14.115  14.634   0.882
72160W        W44486   7.926  29.685  14.340
72161W        W44487  14.295  23.616  13.914
72162W        W44488  22.566  42.813   3.859
72163W        W44489  37.472  12.320  10.543
72164W        W44490  37.879  27.998  14.181
72165W        W44491  42.529  34.884   3.269
72166W        W44492  35.362   5.503  12.991
72167W        W44493  12.371  39.728  12.138
72168W        W44494  30.671  12.862   0.362
72169W        W44495  22.075  20.158  11.200
72170W        W44496   6.099   6.842   3.269
72171W        W44497  27.971  20.629   0.982
72172W        W44498  25.077  16.580   1.819
72173W        W44499  10.874   8.130   2.289
72174W        W44500  28.213  31.577   1.543
72175W        W44501  35.399  43.976  11.179
72176W        W44502  42.498  38.257  12.874
72177W        W44503  35.610   1.999  13.538
72178W        W44504  32.390   4.652  10.968
72179W        W44505  34.356   1.882  12.917
72180W        W44506  33.523   9.608   4.212
72181W        W44507  36.425   2.830  14.844
72182W        W44508  20.533  32.178  12.097
72183W        W44509  41.809  29.180  14.879
72184W        W44510   4.934  20.142   1.199
72185W        W44511   8.617  39.947  13.752
72186W        W44512  44.239  35.572   4.604
72187W        W44513  19.737  12.240  10.890
72188W        W44514  18.108  33.064   1.268
72189W        W44515   2.233  24.608   0.171
72190W        W44516  22.114  11.439  11.867
72191W        W44517  19.285  22.294  13.973
72192W        W44518  22.252  18.084   0.728
72193W        W44519  25.887   5.306   0.860
72194W        W44520   0.661  16.674  12.442
72195W        W44521  12.841  36.659  11.108
72196W        W44522  44.057   2.793   1.903
72197W        W44523  44.738   0.828  10.367
72198W        W44524  24.981  24.963  13.950
72199W        W44525  43.325  19.513  12.425
72200W        W44526  22.089  10.538  11.647
72201W        W44527  40.412  33.362   1.158
72202W        W44528  31.926   0.360  13.163
72203W        W44529  35.106   4.854   3.242
72204W        W44530   8.747  31.061   0.365
72205W        W44531  38.616  27.591  12.649
72206W        W44532  28.931  30.491  14.031
72207W        W44533  31.725  34.541  14.416
72208W        W44534  11.818   8.245   2.208
72209W        W44535  40.458  21.008  12.090
72210W        W44536  22.746  22.201   4.940
72211W        W44537  40.812  44.818  13.704
72212W        W44538  34.002  38.174  13.884
72213W        W44539   5.476  30.966  11.984
72214W        W44540  37.041   4.447   2.116
72215W        W44541  28.865   7.776  11.005
72216W        W44542  35.387   4.412   3.256
72217W        W44543   6.450  30.293   1.032
72218W        W44544  28.981  24.423   2.285
72219W        W44545  19.610  10.293  11.686
72220W        W44546   5.532  27.141  11.528
72221W        W44547   9.402   8.286  10.744
72222W        W44548   8.932  15.790  13.979
72223W        W44549  24.240   2.225  12.914
72224W        W44550  22.818   2.004  12.853
72225W        W44551  44.779   0.919  13.139
72226W        W44552  35.026   1.431  11.968
72227W        W44553   7.881  31.090   3.360
72228W        W44554   6.079   8.854   2.732
72229W        W44555   2.423  15.663   4.136
72230W        W44556  43.998  44.020   4.578
72231W        W44557  19.618   8.679  12.425
72232W        W44558  14.141  30.449  14.819
72233W        W44559  23.478  26.940  11.663
72234W        W44560   0.376  43.342  12.097
72235W        W44561   4.198   5.205   3.280
72236W        W44562  11.863  39.073   4.269
72237W        W44563  21.111  26.855   1.875
72238W        W44564   8.317   3.299   1.333
72239W        W44565  12.423  15.069  10.929
72240W        W44566   4.006  12.204  14.957
72241W        W44567  28.858   6.709   4.112
72242W        W44568  28.205  22.681  14.950
72243W        W44569   4.891  30.391   1.451
72244W        W44570  18.576  38.297   2.426
72245W        W44571  43.057  41.050  13.457
72246W        W44572  19.138  43.041   3.235
72247W        W44573  13.883  11.623   1.859
72248W        W44574  27.428  36.534  11.617
72249W        W44575  15.714   4.265  11.764
72250W        W44576   2.407   1.032   2.176
72251W        W44577  43.671  37.858  11.420
72252W        W44578  21.206  36.336  14.894
72253W        W44579  20.350  43.444   4.322
72254W        W44580  27.129   1.273  12.605
72255W        W44581   6.278  27.407   4.121
72256W        W44582   9.908  44.606   2.866
72257W        W44583   4.264  36.777  11.088
72258W        W44584  12.185  13.891  10.683
72259W        W44585  17.204  42.285   0.036
72260W        W44586   1.552  25.910  11.597
72261W        W44587  42.319  26.431   3.898
72262W        W44588  35.027  10.177   1.910
72263W        W44589  33.872  20.655   3.169
72264W        W44590  25.515  34.076   1.282
72265W        W44591   9.878   7.587   3.846
72266W        W44592   8.730  35.879   1.822
72267W        W44593  16.516  42.597   0.560
72268W        W44594  31.838  23.164   3.257
72269W        W44595  10.465  21.098  11.931
72270W        W44596  11.227  17.210  13.626
72271W        W44597  17.053   2.719  10.983
72272W        W44598  11.604   2.966   0.063
72273W        W44599  25.534  22.608   4.590
72274W        W44600   0.035  21.714  13.996
72275W        W44601  33.116  42.480  14.369
72276W        W44602   3.998  15.591  10.662
72277W        W44603   5.342  31.617   2.036
72278W        W44604  16.633  16.154  13.939
72279W        W44605  19.509   5.089  14.592
72280W        W44606  30.176  15.187  14.352
72281W        W44607  37.370  39.568   4.250
72282W        W44608  18.553  19.838  14.775
72283W        W44609  44.753  21.475  11.893
72284W        W44610  43.535  25.774   1.461
72285W        W44611  40.790   9.399   1.154
72286W        W44612  29.374  14.792  14.402
72287W        W44613   4.373  33.552   3.697
72288W        W44614  11.712  11.679   0.770
72289W        W44615  23.796  21.472  13.327
72290W        W44616  42.353  35.508  12.406
72291W        W44617   3.875  32.418   4.616
72292W        W44618  26.775  33.462   3.812
72293W        W44619  19.518  43.130  12.138
72294W        W44620  32.471   7.462   2.650
72295W        W44621  39.838  42.519  11.392
72296W        W44622  10.909  36.882  11.993
72297W        W44623  22.974  44.389   0.530
72298W        W44624  15.568  38.479   3.331
72299W        W44625  34.835   0.748  14.416
72300W        W44626  30.471  42.705  10.754
72301W        W44627   4.079  42.990   5.141
72302W        W44628   5.397  43.083   1.367
72303W        W44629  23.968  39.512   2.724
72304W        W44630  18.048   2.477   1.727
72305W        W44631  38.543  43.570  10.757
72306W        W44632   9.618  12.401   1.202
72307W        W44633   7.149  42.339  11.218
72308W        W44634  41.398  17.724  12.008
72309W        W44635  43.884  42.936  10.718
72310W        W44636  19.965  36.559  10.907
72311W        W44637  32.485  31.825   2.776
72312W        W44638   4.027  38.488  14.058
72313W        W44639  23.602  37.490   2.568
72314W        W44640   1.352   2.370  12.843
72315W        W44641  44.451  38.032  11.944
72316W        W44642  39.086  29.491   3.674
72317W        W44643  30.083  34.853  12.292
72318W        W44644  20.766  14.118   2.745
72319W        W44645  36.933  16.210   1.831
72320W        W44646   6.449  34.918   2.099
72321W        W44647  26.943   2.158  11.141
72322W        W44648  24.072  13.202   4.845
72323W        W44649  24.926  34.392  12.428
72324W        W44650  28.552  16.701   1.063
72325W        W44651  10.902  18.326  10.686
72326W        W44652   0.782  16.570  13.918
72327W        W44653  19.225  31.383  12.001
72328W        W44654   2.495   4.310   4.080
72329W        W44655  24.544  15.698  14.427
72330W        W44656  43.297  16.598   2.365
72331W        W44657  11.209  11.681   0.967
72332W        W44658   4.546   6.023  13.880
72333W        W44659  37.627  27.522  14.264
72334W        W44660  41.446  21.716  12.189
72335W        W44661  16.418  35.563   1.826
72336W        W44662  41.018   2.817   0.924
72337W        W44663  37.431  40.691   2.175
72338W        W44664  35.006  10.916   1.421
72339W        W44665  24.304  20.084  12.032
72340W        W44666  32.941   1.387   4.165
72341W        W44667   3.382  14.657   1.487
72342W        W44668   9.192  41.057   0.870
72343W        W44669  22.799  38.989   5.002
72344W        W44670  13.141  36.351  10.768
72345W        W44671  40.466  44.098  14.302
72346W        W44672   9.304   0.599   2.392
72347W        W44673  17.099  30.037   3.619
72348W        W44674  34.002  19.552  13.381
72349W        W44675  15.694   2.681   0.020
72350W        W44676  30.190   6.430  12.036
72351W        W44677  42.857  10.361  14.249
72352W        W44678   4.137  43.545  12.451
72353W        W44679  10.171  10.442   1.512
72354W        W44680  44.539  35.441  10.950
72355W        W44681   2.024  39.032  11.461
72356W        W44682   9.652  20.017  11.296
72357W        W44683  15.991   1.675  11.512
72358W        W44684   3.916   1.886  12.645
72359W        W44685   0.779  18.042   0.159
72360W        W44686  35.490   6.767   3.698
72361W        W44687  28.630   5.960  10.695
72362W        W44688  38.295   5.367  10.564
72363W        W44689  27.610  25.401   0.769
72364W        W44690  13.386  40.572  14.992
72365W        W44691  31.026  17.267  12.968
72366W        W44692   4.156  13.579   2.238
72367W        W44693   1.391  11.764   1.586
72368W        W44694  14.244   6.785   1.688
72369W        W44695  16.158  41.550  14.029
72370W        W44696  22.204  19.086  12.076
72371W        W44697   1.552  16.681   3.802
72372W        W44698  10.234   6.469   3.273
72373W        W44699   4.699  32.997  13.889
72374W        W44700   3.588  37.659   0.524
72375W        W44701  36.103  29.563   1.472
72376W        W44702  38.213   9.261   0.149
72377W        W44703  15.583  42.500  11.136
72378W        W44704  22.552  11.001   1.788
72379W        W44705   8.739  37.805  13.903
72380W        W44706   7.331  43.259   4.701
72381W        W44707  16.507  36.768   0.829
72382W        W44708   0.930  36.847   4.276
72383W        W44709  42.340  38.147   4.237
72384W        W44710  28.231  32.629   3.628
72385W        W44711  16.226  21.146  10.990
72386W        W44712  17.740   6.882  10.686
72387W        W44713  38.047  43.545  14.040
72388W        W44714  41.845  26.091   2.725
72389W        W44715   2.362  12.690  13.583
72390W        W44716  21.543  17.146   2.719
72391W        W44717  44.785  30.460   3.182
72392W        W44718  41.777   7.700   0.437
72393W        W44719   5.945  24.578   4.117
72394W        W44720  21.033   3.622   4.056
72395W        W44721  38.353  17.187  11.662
72396W        W44722  21.589   1.918   0.359
72397W        W44723  22.910  31.542  14.731
72398W        W44724  34.502  24.195   2.706
72399W        W44725  21.648  25.018   1.794
72400W        W44726   1.651   6.680   3.620
72401W        W44727  43.967   6.254  11.581
72402W        W44728   3.753  10.403   2.816
72403W        W44729  11.874   0.539   3.720
72404W        W44730   2.031   5.496  14.811
72405W        W44731  24.703  11.293  10.880
72406W        W44732  33.561  41.218  13.427
72407W        W44733  27.736  40.046   2.236
72408W        W44734  10.582  16.163   0.499
72409W        W44735  12.128  41.591  14.338
72410W        W44736   9.566  29.741  14.339
72411W        W44737  27.603  15.181  11.982
72412W        W44738  17.029  40.864   0.432
72413W        W44739  10.762  33.155  11.940
72414W        W44740  19.043   3.341  13.043
72415W        W44741  36.575  19.329  14.753
72416W        W44742  35.856  42.009  14.912
72417W        W44743  28.762  10.805  14.921
72418W        W44744  35.007  36.588  10.787
72419W        W44745  33.947  34.836  12.700
72420W        W44746  19.203  30.733  13.959
72421W        W44747  28.929  19.092   0.303
72422W        W44748  17.246  20.775  13.366
72423W        W44749  28.627  14.779   4.581
72424W        W44750  39.996   7.534   1.285
72425W        W44751   4.738  34.509   2.394
72426W        W44752  44.874  42.436   3.580
72427W        W44753   3.893  28.479   2.517
72428W        W44754  31.791  10.526  14.612
72429W        W44755  40.903  15.633  14.778
72430W        W44756  44.300  36.013  13.846
72431W        W44757  34.766  23.039  12.240
72432W        W44758  12.847  41.929  12.063
72433W        W44759  35.783   5.666   1.497
72434W        W44760  28.877  33.085   1.975
72435W        W44761   5.305  36.608  13.792
72436W        W44762   5.246  30.945  12.902
72437W        W44763  42.260   8.231   3.121
72438W        W44764   0.154   0.364  12.658
72439W        W44765  36.580  34.540   5.484
72440W        W44766   3.380  26.895   4.607
72441W        W44767  30.226  41.651  13.899
72442W        W44768   0.031  10.397   1.404
72443W        W44769  33.856  31.948   4.150
72444W        W44770  44.312   7.168   1.511
72445W        W44771  16.267  19.100   2.346
72446W        W44772   8.278   2.215   0.429
72447W        W44773  12.751  18.147  12.402
72448W        W44774   6.828  30.684   1.895
72449W        W44775  29.998  15.662  11.166
72450W        W44776  13.248   7.432   1.283
72451W        W44777  43.400  38.518  13.381
72452W        W44778   3.726  11.870  14.306
72453W        W44779  40.811  19.759   1.889
72454W        W44780  44.510  28.591   3.587
72455W        W44781   3.990  27.127  11.477
72456W        W44782  17.992   8.278   4.642
72457W        W44783  33.373  32.031   2.323
72458W        W44784   0.817  38.927  14.743
72459W        W44785  39.019  37.878   1.667
72460W        W44786  22.070  32.671   3.274
72461W        W44787  36.386   8.518  11.088
72462W        W44788  39.036  29.227  14.399
72463W        W44789  18.686  24.766  12.289
72464W        W44790   3.734  17.687  12.379
72465W        W44791   0.324   9.287   4.632
72466W        W44792   6.244  44.379  11.100
72467W        W44793   1.412  28.769  14.752
72468W        W44794  43.246  20.233   3.785
72469W        W44795  43.743  28.858   2.183
72470W        W44796  19.058  36.062  13.105
72471W        W44797  44.069  32.415  11.980
72472W        W44798   4.330  37.463  13.542
72473W        W44799  22.954  25.473   4.112
72474W        W44800  26.596  14.309   3.312
72475W        W44801  25.563  27.239   4.614
72476W        W44802  33.370  32.066   4.215
72477W        W44803  30.071  40.255  10.700
72478W        W44804   4.187  22.294  13.005
72479W        W44805  10.392   3.950   3.371
72480W        W44806  40.355  30.232  14.909
72481W        W44807   2.748   5.877  12.365
72482W        W44808  16.043  19.547   3.132
72483W        W44809  18.806   6.047  14.395
72484W        W44810   8.785   6.768  14.737
72485W        W44811  30.099  18.609  11.264
72486W        W44812  16.063  19.474  12.794
72487W        W44813  22.116  15.715   4.617
72488W        W44814   0.245  12.880   3.025
72489W        W44815  10.874  26.914   3.605
72490W        W44816   5.331  36.264   0.696
72491W        W44817  34.211   5.363   0.896
72492W        W44818  28.401  20.706   0.629
72493W        W44819  37.823  32.062   4.414
72494W        W44820  36.105  26.058   0.324
72495W        W44821  17.775  20.708   4.565
72496W        W44822  27.043  39.918   4.202
72497W        W44823  24.835   6.777   0.157
72498W        W44824   2.982  15.578  14.791
72499W        W44825  31.518  23.326   0.100
72500W        W44826  20.512  30.856  14.413
72501W        W44827  18.536  31.602  12.869
72502W        W44828  18.264  24.060   4.185
72503W        W44829  33.922  40.870  10.733
72504W        W44830  15.897  18.970   4.108
72505W        W44831  33.284  15.517   4.625
72506W        W44832  11.308  27.516  12.427
72507W        W44833  23.118   5.188  12.529
72508W        W44834  43.050  33.372   4.278
72509W        W44835  31.730  13.668  14.756
72510W        W44836  20.179  44.242   2.728
72511W        W44837  25.346  17.333  12.352
72512W        W44838  19.659  10.398  13.918
72513W        W44839  23.196  19.597   0.539
72514W        W44840   6.748  22.797   1.016
72515W        W44841   1.771   3.852   1.466
72516W        W44842  14.910  28.087   2.009
72517W        W44843  18.521  40.487   0.687
72518W        W44844  15.028   7.230   2.680
72519W        W44845  10.358  11.792   1.317
72520W        W44846   4.760  14.802  10.738
72521W        W44847  43.865  24.620   1.936
72522W        W44848  21.356  12.212  13.245
72523W        W44849  27.649  44.891   3.637
72524W        W44850   0.842  38.368   2.640
72525W        W44851  16.575  36.612   1.309
72526W        W44852  37.413  34.580  12.044
72527W        W44853  17.716  30.941  10.650
72528W        W44854  13.035  21.930  10.111
72529W        W44855  28.423  43.309   0.904
72530W        W44856  40.619   0.533   4.565
72531W        W44857  23.598   2.949   4.518
72532W        W44858  40.751  23.969  14.823
72533W        W44859  11.652  42.388   5.255
72534W        W44860  12.104  27.501   5.126
72535W        W44861  30.586   4.196   1.926
72536W        W44862  29.530  35.055   4.569
72537W        W44863  36.834  29.034   4.489
72538W        W44864  41.351  38.789   2.678
72539W        W44865  30.812  21.504  12.052
72540W        W44866   7.809  34.447   4.875
72541W        W44867  10.569   9.938   0.922
72542W        W44868   5.396  23.215   3.853
72543W        W44869  18.701   1.872  12.814
72544W        W44870  11.228   6.024   3.284
72545W        W44871  27.665  42.554   1.889
72546W        W44872  39.264  10.250   1.388
72547W        W44873  10.142   3.807   4.614
72548W        W44874  23.250  40.355  13.331
72549W        W44875   1.348  44.926   1.466
72550W        W44876   4.547  34.462  14.388
72551W        W44877   5.846  10.857  12.899
72552W        W44878  25.202  19.254   1.398
72553W        W44879  36.363   4.901  13.534
72554W        W44880  19.622  22.274  14.366
72555W        W44881  19.770   4.172   2.795
72556W        W44882  27.792  43.863   4.855
72557W        W44883  33.725  33.566   1.976
72558W        W44884  39.110  32.977   1.730
72559W        W44885  22.803  35.336   2.212
72560W        W44886  27.326  41.440  14.167
72561W        W44887  15.493  34.459  10.677
72562W        W44888  39.726  26.588   4.082
72563W        W44889  10.806  15.713   4.207
72564W        W44890  23.718  27.059   4.072
72565W        W44891  41.839  19.742   0.999
72566W        W44892   4.954  44.626  14.570
72567W        W44893  18.836   0.954  12.444
72568W        W44894   3.477  30.753  11.781
72569W        W44895  33.146  35.281  13.757
72570W        W44896   0.401   4.001  12.479
72571W        W44897  44.080  16.603   3.735
72572W        W44898  21.488  26.330  11.069
72573W        W44899  20.578  37.378   1.270
72574W        W44900  37.658   1.292   3.401
72575W        W44901  43.743  16.745   2.626
72576W        W44902  39.966   1.732   0.367
72577W        W44903  18.774  43.110  10.691
72578W        W44904   4.325  31.616   4.677
72579W        W44905   6.601   0.408   2.820
72580W        W44906  39.004   5.224  13.553
72581W        W44907  13.691  35.165   1.766
72582W        W44908  22.307  17.836  10.972
72583W        W44909  21.789  24.491   4.228
72584W        W44910  21.698  25.059   4.687
72585W        W44911  21.597   7.747  14.201
72586W        W44912  11.055  44.316   0.807
72587W        W44913   8.126  11.224  12.085
72588W        W44914  11.576  28.081  10.812
72589W        W44915  38.258   1.993  12.994
72590W        W44916  37.204   9.888  14.515
72591W        W44917   5.195  29.613   3.566
72592W        W44918  12.738   7.813   1.836
72593W        W44919  44.482  43.253  14.097
72594W        W44920  37.424  17.235   3.122
72595W        W44921  14.266  35.351  13.787
72596W        W44922  33.051  18.762  10.974
72597W        W44923  15.071   6.416  11.157
72598W        W44924  32.447   4.292  14.039
72599W        W44925  38.516  22.316  13.727
72600W        W44926   2.129  30.798  13.910
72601W        W44927   6.603  35.092  14.854
72602W        W44928   0.805  19.559  13.436
72603W        W44929   4.934   2.455   5.540
72604W        W44930  29.431  36.992  14.848
72605W        W44931  29.253  21.549  10.995
72606W        W44932  13.631  31.604   2.894
72607W        W44933  27.099   1.755  14.464
72608W        W44934  11.158   4.129  13.068
72609W        W44935  29.580  24.600  10.870
72610W        W44936  26.971  32.193  13.885
72611W        W44937  19.614  14.257  14.804
72612W        W44938  20.995   4.339   3.392
72613W        W44939   5.782   2.822   4.766
72614W        W44940  31.022  16.064  14.001
72615W        W44941  15.067  39.174   2.174
72616W        W44942  31.084  26.074  14.972
72617W        W44943  11.113  30.113  11.936
72618W        W44944  15.818   5.224  14.550
72619W        W44945  37.926   1.697   1.704
72620W        W44946  11.570  35.824  11.067
72621W        W44947  36.317  12.819   3.459
72622W        W44948  40.262   7.850   0.966
72623W        W44949  35.848   3.729  14.303
72624W        W44950  32.433   8.246  11.035
72625W        W44951   4.743  16.847  10.677
72626W        W44952  32.480  11.119   3.087
72627W        W44953  13.777  21.705  14.475
72628W        W44954   7.186  18.982  12.388
72629W        W44955  25.520   9.587  13.006
72630W        W44956  15.572  42.784   1.387
72631W        W44957  24.693  38.256   9.530
72632W        W44958  25.165  12.560   0.908
72633W        W44959  23.856  20.317   0.396
72634W        W44960  11.139  39.989  10.422
72635W        W44961  33.184   7.935   2.234
72636W        W44962  14.576   1.362  10.569
72637W        W44963  24.428  21.696  12.477
72638W        W44964  16.260  37.818   3.852
72639W        W44965  22.239   0.472  14.782
72640W        W44966   4.148  25.177  12.633
72641W        W44967   8.319  17.598   3.592
72642W        W44968  14.301   5.014  13.966
72643W        W44969  23.680  27.165  12.084
72644W        W44970  30.619  39.563  11.583
72645W        W44971  25.957  41.849   3.428
72646W        W44972  17.989  39.369   4.380
72647W        W44973  36.881  17.627  10.632
72648W        W44974  40.026  40.455   2.133
72649W        W44975  42.873  39.347   1.936
72650W        W44976  43.964  18.192   0.243
72651W        W44977   1.328   2.716   3.805
72652W        W44978  28.787  27.952  14.918
72653W        W44979   1.248  11.041   0.357
72654W        W44980   8.324  18.627   1.007
72655W        W44981   0.935  18.341   2.827
72656W        W44982   0.408  19.247  13.344
72657W        W44983  10.879   2.294  12.171
72658W        W44984  21.195  18.992   1.951
72659W        W44985   2.437  28.396  14.874
72660W        W44986  12.772  16.314  13.867
72661W        W44987  34.832  43.542  12.404
72662W        W44988  38.369  44.848  12.450
72663W        W44989  35.582  34.867   2.259
72664W        W44990   2.051  21.054   2.851
72665W        W44991   3.745  27.015  13.922
72666W        W44992  37.590  16.167   0.247
72667W        W44993  17.114  23.279  11.971
72668W        W44994  12.745   0.678   4.448
72669W        W44995   3.179  25.959   2.031
72670W        W44996  14.598  37.855   0.269
72671W        W44997  31.487  29.032   4.629
72672W        W44998  28.127   2.348   4.395
72673W        W44999   7.884  14.600  10.250
72674W        W45000  34.889  27.119  10.838
72675W        W45001  42.425  38.749  12.994
72676W        W45002  12.859  43.470  12.036
72677W        W45003  17.623   3.469  12.874
72678W        W45004  26.268   9.498  13.322
72679W        W45005  17.242  15.768   3.486
72680W        W45006  26.408   2.433   1.654
72681W        W45007  11.177  12.340  11.239
72682W        W45008  23.077  33.395   0.505
72683W        W45009  40.482   8.809  13.846
72684W        W45010  14.771  35.683   1.964
72685W        W45011   5.645  43.553  14.191
72686W        W45012  20.574   9.935   1.960
72687W        W45013  38.276  42.868   0.396
72688W        W45014  40.537   2.699  14.732
72689W        W45015  29.937  13.291   5.225
72690W        W45016  17.184  15.732  10.411
72691W        W45017   4.284  16.530   1.364
72692W        W45018  33.039   2.015   2.975
72693W        W45019  31.442  28.511   1.255
72694W        W45020  38.993  39.352   3.623
72695W        W45021   3.251  21.534   9.801
72696W        W45022  12.368  12.236  14.610
72697W        W45023  40.934  30.912   0.316
72698W        W45024  36.844  16.605   1.009
72699W        W45025   6.465  35.553   0.742
72700W        W45026   3.934  12.862  14.563
72701W        W45027  20.111  25.120   1.836
72702W        W45028  33.679  32.218   4.601
72703W        W45029  16.129  20.739  10.653
72704W        W45030   5.900  10.661   2.657
72705W        W45031  27.284  30.914   2.302
72706W        W45032  32.538  35.830  14.961
72707W        W45033   2.876  32.574   4.166
72708W        W45034   2.406  44.774  14.613
72709W        W45035  22.628  23.616   0.898
72710W        W45036  16.140  37.052   1.911
72711W        W45037  40.397  44.244  13.001
72712W        W45038  31.584  11.442  14.818
72713W        W45039  20.251  13.200   0.668
72714W        W45040  32.622  11.605   3.279
72715W        W45041   3.670  12.383  14.556
72716W        W45042   3.960  32.383   2.285
72717W        W45043  30.178   1.811   4.562
72718W        W45044  13.047  35.013  14.375
72719W        W45045  13.047  20.230  15.000
72720W        W45046  35.341  42.834  13.831
72721W        W45047  11.162   4.909   1.883
72722W        W45048  16.080  28.414  12.460
72723W        W45049  11.004   9.822   4.089
72724W        W45050  24.571  31.980  12.944
72725W        W45051  12.818   8.894   4.061
72726W        W45052   0.548   4.299   4.752
72727W        W45053  37.669  36.479   1.880
72728W        W45054   2.368  27.382   0.892
72729W        W45055  23.243   3.438  12.989
72730W        W45056  27.996   3.379  12.620
72731W        W45057  40.950   4.180   3.226
72732W        W45058  25.685  15.435  14.208
72733W        W45059  10.833   3.770  14.004
72734W        W45060  24.744   4.935   2.664
72735W        W45061  37.065  16.279  11.508
72736W        W45062  41.064  10.868  13.449
72737W        W45063  20.969  34.954   3.416
72738W        W45064  21.003  17.690   4.173
72739W        W45065  42.411   0.881   3.661
72740W        W45066  44.478  17.481  12.471
72741W        W45067  44.197  32.567  13.546
72742W        W45068   5.300  22.051   2.273
72743W        W45069  27.391  43.716  14.017
72744W        W45070   1.344  31.857  10.869
72745W        W45071  40.301  32.100  11.056
72746W        W45072  35.085  11.595   1.752
72747W        W45073   9.359   1.994   3.180
72748W        W45074  12.618   8.169   3.791
72749W        W45075  32.461  15.986   3.090
72750W        W45076   8.668   2.492  14.723
72751W        W45077  43.914  30.141   2.315
72752W        W45078  30.912  10.472   2.882
72753W        W45079  35.567  41.340  13.115
72754W        W45080  19.181  23.646  10.782
72755W        W45081  25.534   1.871   0.276
72756W        W45082  23.327  41.440   3.593
72757W        W45083  19.281  14.094  11.929
72758W        W45084  15.356  24.561  11.191
72759W        W45085  35.109   0.246   0.337
72760W        W45086  24.218  38.908   5.473
72761W        W45087  11.153  16.723  13.810
72762W        W45088  32.087  42.571  14.326
72763W        W45089  39.818   0.190  11.601
72764W        W45090   6.017  17.171  12.456
72765W        W45091  20.313  37.913  11.884
72766W        W45092  19.090  24.087  13.891
72767W        W45093   3.411  18.567   0.442
72768W        W45094  36.529  43.357   0.056
72769W        W45095   0.928   3.967   3.583
72770W        W45096  42.264  36.498   2.821
72771W        W45097  11.803   9.540  14.891
72772W        W45098  35.030  31.369  11.180
72773W        W45099  24.220  24.728   2.398
72774W        W45100  35.521  44.273  12.434
72775W        W45101  10.800  31.945  13.315
72776W        W45102  30.152   2.703  14.253
72777W        W45103   3.904  40.008   0.742
72778W        W45104  22.643   7.941   2.207
72779W        W45105  19.810  33.676  14.243
72780W        W45106  31.488   2.939  14.571
72781W        W45107   0.899  15.344  10.373
72782W        W45108  33.743   5.402  13.489
72783W        W45109  41.894  12.157  11.429
72784W        W45110  12.833   6.185   3.666
72785W        W45111  38.223  18.209  11.459
72786W        W45112  26.249  36.816  11.841
72787W        W45113   5.001  16.343  12.543
72788W        W45114  17.828  41.433   2.304
72789W        W45115   9.191  31.717  13.185
72790W        W45116  44.745  30.494   4.681
72791W        W45117  11.606  16.756   0.460
72792W        W45118  33.223   3.222  13.004
72793W        W45119   5.563   8.647   4.632
72794W        W45120  13.858  21.342   1.889
72795W        W45121  41.326  42.048  13.505
72796W        W45122   9.666   2.367  11.048
72797W        W45123  24.792  37.839  13.461
72798W        W45124  37.374  18.691  11.627
72799W        W45125  23.725  35.542   4.175
72800W        W45126  10.659  18.099  12.946
72801W        W45127  23.191  26.961  12.085
72802W        W45128  31.653  42.851  13.330
72803W        W45129  31.900  13.375  11.109
72804W        W45130  35.640   9.769  14.478
72805W        W45131  31.694  37.129   1.353
72806W        W45132  23.563  19.486   3.629
72807W        W45133  14.663  20.497  14.078
72808W        W45134   3.690   0.495   4.597
72809W        W45135  40.175  26.318   4.921
72810W        W45136  14.846   8.247  14.558
72811W        W45137   5.389  24.471  12.415
72812W        W45138  37.890   5.735   3.682
72813W        W45139  19.324   2.106  12.500
72814W        W45140  13.722  22.806   4.127
72815W        W45141  32.170  30.056   1.239
72816W        W45142  11.732  41.968   4.665
72817W        W45143   5.721   3.334   0.421
72818W        W45144  12.627  10.149  11.281
72819W        W45145  30.056  18.348   2.741
72820W        W45146  39.020   5.234   1.279
72821W        W45147  41.809  28.254  12.038
72822W        W45148   5.190  35.371   4.225
72823W        W45149  12.695  13.837   4.078
72824W        W45150  12.682  35.590   5.044
72825W        W45151  19.618  30.724  11.228
72826W        W45152  14.583   5.446  13.798
72827W        W45153  14.676   0.726  13.187
72828W        W45154  37.806   0.505  14.879
72829W        W45155  18.017  35.668   4.177
72830W        W45156  19.589  36.934   3.058
72831W        W45157  24.288  30.462   4.275
72832W        W45158  16.157  16.569   0.822
72833W        W45159   7.388  28.960   1.628
72834W        W45160  29.633  38.144   1.382
72835W        W45161  35.367  24.468   1.970
72836W        W45162  37.415  14.665  13.557
72837W        W45163  41.739  30.100   0.747
72838W        W45164   5.008   4.858   2.472
72839W        W45165   1.750   5.822   1.414
72840W        W45166  29.136   5.405  13.368
72841W        W45167   1.191  20.603  12.082
72842W        W45168  42.048  22.570   0.996
72843W        W45169  39.025  39.627   4.895
72844W        W45170   9.380  32.049  12.843
72845W        W45171  34.113  32.596  13.753
72846W        W45172  39.845   3.242   0.998
72847W        W45173   4.221   9.111   0.696
72848W        W45174  43.338   0.377   0.555
72849W        W45175  43.988  41.075   1.411
72850W        W45176  20.192   3.217   3.110
72851W        W45177   4.175   4.494  10.739
72852W        W45178  29.009  29.499  13.438
72853W        W45179  27.903  10.646   1.713
72854W        W45180  30.095  35.592   3.204
72855W        W45181  33.558  25.695   4.861
72856W        W45182  33.630  26.020  13.808
72857W        W45183   3.938   4.921   0.476
72858W        W45184  17.212   0.525  14.068
72859W        W45185  18.027  21.865  12.846
72860W        W45186  10.169  15.711  14.577
72861W        W45187   1.383  41.370   3.351
72862W        W45188  43.055  19.195  12.882
72863W        W45189   5.196  27.949  11.713
72864W        W45190  36.095  28.697  11.381
72865W        W45191  35.106   8.717  10.500
72866W        W45192  29.092  16.883  12.882
72867W        W45193  14.813  41.725   2.853
72868W        W45194  23.697   0.556   2.186
72869W        W45195  33.912  39.736   3.176
72870W        W45196  39.959  11.618   3.217
72871W        W45197  35.833  21.031  14.486
72872W        W45198   2.281  13.021  10.587
72873W        W45199  40.900  42.906  11.130
72874W        W45200  28.024  44.022  14.876
72875W        W45201  25.725  41.759   4.142
72876W        W45202  11.305  31.692   0.981
72877W        W45203  27.706   4.236   3.287
72878W        W45204  39.593  19.250  13.838
72879W        W45205   5.770  38.076  13.451
72880W        W45206  26.413  17.488   0.274
72881W        W45207  18.133  38.987   4.030
72882W        W45208  26.268  17.112   5.533
72883W        W45209  19.343   7.724  11.043
72884W        W45210   3.001  11.260  13.933
72885W        W45211  33.928  15.103  10.444
72886W        W45212  12.237  11.086  11.616
72887W        W45213  29.731  27.126   4.711
72888W        W45214  27.009  28.040  11.662
72889W        W45215  37.032  40.541  12.114
72890W        W45216  37.195  42.324   1.209
72891W        W45217  25.241  33.096  11.174
72892W        W45218  36.447   5.596  14.296
72893W        W45219  15.225  18.176   0.555
72894W        W45220  17.815  27.490   2.752
72895W        W45221  33.081  29.279   3.672
72896W        W45222  43.630  25.992  11.912
72897W        W45223  24.350  16.850  11.099
72898W        W45224   0.898  37.906  10.631
72899W        W45225  24.113  11.763  12.047
72900W        W45226  36.328  32.640   0.018
72901W        W45227   1.449  40.056   2.794
72902W        W45228  26.501   0.792  10.799
72903W        W45229  21.271  34.313   1.390
72904W        W45230  25.261  39.641  10.952
72905W        W45231  14.537  11.193   0.770
72906W        W45232  26.222  13.774  11.957
72907W        W45233   1.942  30.243   2.744
72908W        W45234   4.123  21.311   1.334
72909W        W45235  22.613   0.681   3.918
72910W        W45236  27.090  42.011  13.329
72911W        W45237  44.378  27.570  13.653
72912W        W45238  20.735   1.122  10.594
72913W        W45239  24.960  31.154   1.807
72914W        W45240  41.487  31.938   1.369
72915W        W45241  29.585   1.914   3.790
72916W        W45242  13.128  38.269  11.285
72917W        W45243  28.349  12.078  11.367
72918W        W45244  22.783  35.596  14.606
72919W        W45245  22.941  15.606   5.050
72920W        W45246   6.445  29.506  12.083
72921W        W45247  25.543   3.467   2.524
72922W        W45248  15.636  15.579   0.282
72923W        W45249  24.501  20.113  10.765
72924W        W45250  38.820  20.717  13.587
72925W        W45251  36.112   4.269  12.918
72926W        W45252  34.090  35.764  12.427
72927W        W45253  39.000  23.732  12.436
72928W        W45254   3.252  22.672  14.931
72929W        W45255  34.289  43.470  14.212
72930W        W45256  21.774  38.086  11.076
72931W        W45257  19.187  18.111  11.247
72932W        W45258  21.053  17.298  14.391
72933W        W45259  10.545  11.318  13.342
72934W        W45260  16.743  38.131  10.710
72935W        W45261  37.828  28.601   3.732
72936W        W45262  31.596  42.244  12.008
72937W        W45263  33.871  18.635   1.630
72938W        W45264  41.449  41.882   4.398
72939W        W45265  27.200  10.861   1.012
72940W        W45266   0.489   0.733   1.936
72941W        W45267   1.928  30.037   3.753
72942W        W45268  33.523   4.410  10.702
72943W        W45269  38.919   7.689   0.836
72944W        W45270   7.465  36.949   2.737
72945W        W45271  33.521  18.772   4.323
72946W        W45272  40.452  16.302  13.780
72947W        W45273  34.541   1.242  11.119
72948W        W45274   7.451  44.973  14.461
72949W        W45275   5.683  35.509   0.271
72950W        W45276  18.040  18.801   0.447
72951W        W45277  21.693  17.366   3.217
72952W        W45278  21.951  18.633   2.318
72953W        W45279  36.100  12.481   2.128
72954W        W45280  34.711   5.235  10.759
72955W        W45281  25.973  41.497   2.364
72956W        W45282   8.712  43.385   2.712
72957W        W45283  33.888  17.555  10.676
72958W        W45284  20.769  26.765  13.879
72959W        W45285   5.338   2.468  12.459
72960W        W45286   9.661   7.702   4.450
72961W        W45287  42.541  33.083  11.142
72962W        W45288  20.019  38.316  12.496
72963W        W45289  31.743   9.338   4.938
72964W        W45290  23.615   8.078   1.327
72965W        W45291   9.967  37.901   0.782
72966W        W45292   9.181   1.731   0.801
72967W        W45293  28.459  18.234   1.172
72968W        W45294   8.787  35.915  11.544
72969W        W45295  32.460  20.009   0.439
72970W        W45296  43.283  27.740   3.319
72971W        W45297   0.806   5.176   4.222
72972W        W45298  33.953  15.296   3.890
72973W        W45299  42.679  37.839   0.733
72974W        W45300  38.277   6.103  13.824
72975W        W45301   5.877   2.374  14.079
72976W        W45302  40.997  42.424   1.978
72977W        W45303  33.354   5.420   2.648
72978W        W45304  15.130   5.878  14.950
72979W        W45305  16.628  40.030  11.186
72980W        W45306   5.383  29.509  12.427
72981W        W45307  16.597   6.846   0.785
72982W        W45308  19.061   4.921  12.376
72983W        W45309  40.463   8.621   2.322
72984W        W45310  16.204  12.352   2.723
72985W        W45311  29.601  22.964   3.677
72986W        W45312  14.547  24.674  13.134
72987W        W45313  41.912  10.021   4.608
72988W        W45314  38.854  36.083  10.612
72989W        W45315  12.894  44.294   1.478
72990W        W45316  42.117  17.557  10.864
72991W        W45317   8.346   7.928  14.749
72992W        W45318   0.979  18.167  14.697
72993W        W45319  40.398   0.466   2.856
72994W        W45320  34.760  31.466   1.453
72995W        W45321  26.403  16.640   1.758
72996W        W45322   8.932  39.319  13.339
72997W        W45323  16.568  14.440   0.367
72998W        W45324  40.760  39.463   4.529
72999W        W45325   4.134  17.787   2.555
73000W        W45326  31.156  33.931  10.764
73001W        W45327   5.505  14.057  11.963
73002W        W45328  42.570  10.289   0.779
73003W        W45329   1.556  23.545  10.620
73004W        W45330   6.947  29.831  14.377
73005W        W45331   7.790  12.091   1.169
73006W        W45332  28.044  11.319  12.112
73007W        W45333  16.748  37.235   2.483
73008W        W45334  44.395  21.779   4.181
73009W        W45335   7.295  43.940   2.443
73010W        W45336  33.546  44.075  11.191
73011W        W45337   3.300  26.455   4.143
73012W        W45338  13.418   5.907   3.208
73013W        W45339  30.173  23.237   0.486
73014W        W45340  14.348  37.543  14.539
73015W        W45341  21.589  16.807   3.104
73016W        W45342  25.938  32.907   4.722
73017W        W45343  44.420  13.802  10.534
73018W        W45344   2.897   9.711   5.383
73019W        W45345   0.854  31.684   0.480
73020W        W45346  30.163   6.204   0.277
73021W        W45347  44.042   6.625  11.164
73022W        W45348   7.344   4.409   1.169
73023W        W45349  32.866  13.541  13.329
73024W        W45350  10.278  40.134  12.648
73025W        W45351  20.780  16.132   1.192
73026W        W45352  21.056  32.955  13.012
73027W        W45353  40.418  22.291   1.737
73028W        W45354   3.933  26.195   3.341
73029W        W45355   7.314  27.869  11.956
73030W        W45356  15.812  43.728  14.398
73031W        W45357  19.185  13.883  14.312
73032W        W45358  42.030  35.474   3.972
73033W        W45359   6.120   4.725   4.164
73034W        W45360  33.900  39.278  14.432
73035W        W45361  38.836   2.398  14.889
73036W        W45362   6.348  29.970   4.718
73037W        W45363  20.330   2.313   3.613
73038W        W45364   3.447  29.682   0.313
73039W        W45365   0.564  19.622   0.232
73040W        W45366  40.517  30.660   3.221
73041W        W45367  44.838   8.267   4.431
73042W        W45368  37.492   3.517   1.973
73043W        W45369  29.905  19.222   0.520
73044W        W45370  25.656  12.683  12.071
73045W        W45371   6.287  16.296  12.668
73046W        W45372  22.921  41.987   2.882
73047W        W45373   9.987  19.470   4.893
73048W        W45374  35.985  41.799   4.599
73049W        W45375   2.231  34.589  14.842
73050W        W45376  12.126  17.693   0.857
73051W        W45377  12.281  39.803  11.131
73052W        W45378  24.482   4.347   1.227
73053W        W45379  32.952  16.037  13.863
73054W        W45380   3.784  43.532  11.497
73055W        W45381  26.634  44.363  14.450
73056W        W45382  30.678  41.372   2.815
73057W        W45383   4.687  16.680   0.113
73058W        W45384   7.719   7.202  12.512
73059W        W45385  16.671  26.597  11.280
73060W        W45386  17.692  44.540  12.325
73061W        W45387  35.170   4.228  14.903
73062W        W45388  35.583   2.956   3.251
73063W        W45389  37.466  44.365  14.122
73064W        W45390  12.140  18.169   5.076
73065W        W45391  37.380  29.919   0.079
73066W        W45392  18.171  31.442   2.957
73067W        W45393  44.743  22.674   4.659
73068W        W45394  40.303   7.681   4.595
73069W        W45395  39.611  12.946   0.848
73070W        W45396   2.720  19.998  14.963
73071W        W45397   6.651  15.742   4.543
73072W        W45398  14.424  32.341   1.197
73073W        W45399  20.114  37.606  13.769
73074W        W45400   0.069   0.898  14.965
73075W        W45401  43.699  27.088   2.287
73076W        W45402  29.411  22.622   2.865
73077W        W45403  39.501  19.704   4.210
73078W        W45404  31.136   3.463  11.563
73079W        W45405  27.293  42.383  13.662
73080W        W45406  10.342  30.446   0.059
73081W        W45407  33.044  43.056   2.783
73082W        W45408  42.541   7.239   0.812
73083W        W45409  36.911  44.086   2.268
73084W        W45410   4.817  26.780   3.225
73085W        W45411   7.766  40.863   4.190
73086W        W45412  16.591  26.884   4.153
73087W        W45413  30.530  15.588  12.933
73088W        W45414  31.903  40.382  12.868
73089W        W45415  36.450  42.777   2.303
73090W        W45416   4.992  14.159  12.032
73091W        W45417   6.845  28.127   3.210
73092W        W45418  38.960   4.648   4.596
73093W        W45419  20.494  33.543   0.929
73094W        W45420  15.156  33.085   1.825
73095W        W45421  40.959   6.943  11.591
73096W        W45422   8.432   5.790   0.418
73097W        W45423  44.518  42.026   3.309
73098W        W45424   3.345  15.047  13.393
73099W        W45425   8.590   9.769  13.635
73100W        W45426  24.885  17.236  12.130
73101W        W45427  30.760  17.312  14.038
73102W        W45428   4.643  11.861  12.067
73103W        W45429  42.062  43.813  11.605
73104W        W45430  43.283  43.312  13.338
73105W        W45431   2.451   9.325  12.241
73106W        W45432  30.641  37.282  12.525
73107W        W45433  20.307  14.206  13.997
73108W        W45434  26.118  32.940   0.554
73109W        W45435  27.166  25.008   2.852
73110W        W45436   8.608   8.891  13.383
73111W        W45437  26.620  10.460  13.309
73112W        W45438  17.289  17.252  11.486
73113W        W45439  10.418  39.588  11.642
73114W        W45440  11.068  15.150   4.210
73115W        W45441  19.489  35.880  13.787
73116W        W45442  32.605  36.772  11.359
73117W        W45443   1.124  28.523  13.574
73118W        W45444  42.112  35.455  11.933
73119W        W45445  12.213  13.192   1.541
73120W        W45446  39.504  28.078   0.199
73121W        W45447   5.003  28.843   3.734
73122W        W45448  25.483  37.998  14.263
73123W        W45449   4.416  30.518  12.379
73124W        W45450  18.655   1.504  13.627
73125W        W45451  30.184  11.869   0.883
73126W        W45452  37.918   4.628  14.737
73127W        W45453  27.737   5.307  14.463
73128W        W45454  26.686  22.483  11.553
73129W        W45455  39.332  18.087  14.379
73130W        W45456  15.884  34.037  10.578
73131W        W45457  14.115  14.740   4.704
73132W        W45458  35.444  42.771   2.195
73133W        W45459  35.431  27.105  10.715
73134W        W45460  21.812  41.390  10.304
73135W        W45461   1.304  34.169  12.552
73136W        W45462  37.315  35.650  10.338
73137W        W45463  42.381  42.243   4.325
73138W        W45464  39.927   0.379   3.080
73139W        W45465  10.192  12.646  11.653
73140W        W45466  11.675   0.298   1.292
73141W        W45467   6.329   4.455  13.978
73142W        W45468   0.627   4.312   2.412
73143W        W45469   2.484  41.832  14.891
73144W        W45470  32.689  11.757  14.421
73145W        W45471  13.629  34.233  10.832
73146W        W45472  23.216  20.176  13.758
73147W        W45473  44.503  20.786   1.970
73148W        W45474  19.071  29.681   0.986
73149W        W45475   2.214  40.887   3.786
73150W        W45476  26.953   4.437   0.808
73151W        W45477   2.822  41.889  14.455
73152W        W45478  24.342  28.918  14.369
73153W        W45479  23.622  17.490   3.637
73154W        W45480  27.906   8.234  10.791
73155W        W45481   5.268  44.620   2.829
73156W        W45482   2.334  33.827  11.827
73157W        W45483  43.341  25.520  10.603
73158W        W45484  42.253  14.605   1.347
73159W        W45485   7.614  25.544   1.517
73160W        W45486  16.838   6.151   2.042
73161W        W45487  18.835  37.845  12.081
73162W        W45488  34.161  18.849  10.950
73163W        W45489  43.731  21.322   5.273
73164W        W45490  12.062  11.353   3.325
73165W        W45491  38.853  18.340   4.064
73166W        W45492  17.164  42.000  14.611
73167W        W45493  21.662  38.877  13.411
73168W        W45494  15.770  28.670  13.919
73169W        W45495  25.704   7.446   3.674
73170W        W45496   1.774  35.078  10.737
73171W        W45497  40.931  33.876   2.701
73172W        W45498   3.779  26.662  13.444
73173W        W45499  41.982   7.971  12.957
73174W        W45500  39.511  28.645  13.294
73175W        W45501  29.458  10.769  11.506
73176W        W45502  30.890  38.979   4.620
73177W        W45503  29.442   2.286   1.281
73178W        W45504   7.772  37.811  13.615
73179W        W45505  43.346  10.879   4.539
73180W        W45506  43.585  20.038  11.094
73181W        W45507  43.911  41.486   1.107
73182W        W45508  34.288  11.346  10.766
73183W        W45509  28.023  31.161   4.127
73184W        W45510   9.318  24.011   2.244
73185W        W45511  20.460   8.403   0.933
73186W        W45512  18.280  42.549   2.681
73187W        W45513  37.563  29.936   1.060
73188W        W45514  10.601   4.495  14.281
73189W        W45515  29.550   5.430  10.633
73190W        W45516  16.705   7.457   4.869
73191W        W45517  33.470  28.882  11.055
73192W        W45518  33.053  35.885  10.403
73193W        W45519  37.055  24.906  13.516
73194W        W45520  14.082  18.117  14.862
73195W        W45521  25.660  35.367  13.463
73196W        W45522  35.036  43.018  12.914
73197W        W45523   5.746  33.996   2.927
73198W        W45524  13.805  42.393   0.775
73199W        W45525  40.306   6.428   4.079
73200W        W45526  44.143  31.572  13.832
73201W        W45527  34.664   7.273   4.666
73202W        W45528  26.011  10.861   1.098
73203W        W45529   4.734  18.596  14.266
73204W        W45530  30.720  40.424   2.376
73205W        W45531  20.036  16.669   0.015
73206W        W45532   6.303  37.608  14.021
73207W        W45533  35.419  39.353  12.314
73208W        W45534  33.487  21.556   0.740
73209W        W45535  38.999  41.579  13.527
73210W        W45536  11.318  16.492   3.819
73211W        W45537  44.647  20.377   1.692
73212W        W45538  33.676  43.845  10.746
73213W        W45539  38.976  29.700  10.627
73214W        W45540  37.961   0.743   2.771
73215W        W45541  30.182  41.065  11.154
73216W        W45542   8.512   6.027  13.142
73217W        W45543  34.151   0.003   1.258
73218W        W45544  41.827   7.951  10.754
73219W        W45545  31.854   5.791   0.746
73220W        W45546  21.392  14.063   5.008
73221W        W45547   7.006  26.923   3.142
73222W        W45548  38.939  36.449   3.130
73223W        W45549  37.347  21.996  11.200
73224W        W45550  15.838  23.699   1.177
73225W        W45551  29.056  41.376   4.903
73226W        W45552  27.947   2.768   0.036
73227W        W45553  32.113   9.666   4.449
73228W        W45554  34.978  21.454   1.893
73229W        W45555  25.079   7.942  14.270
73230W        W45556   1.692   9.156   0.301
73231W        W45557  22.804   9.667  11.305
73232W        W45558  25.952  41.345   3.346
73233W        W45559  27.642  25.463   3.722
73234W        W45560  35.935  32.914  10.006
73235W        W45561  42.797  29.958  12.573
73236W        W45562   3.515  27.618   1.392
73237W        W45563  36.416   6.389  11.932
73238W        W45564  10.002  42.279  11.458
73239W        W45565  35.253  42.095  12.017
73240W        W45566   6.179  35.884  14.505
73241W        W45567   0.527   9.083  12.398
73242W        W45568  30.410   8.669   3.237
73243W        W45569   8.316  26.146   1.399
73244W        W45570   1.965  18.339  14.011
73245W        W45571   2.511  12.658   5.182
73246W        W45572  34.987   2.189   0.664
73247W        W45573  11.082  17.824   0.810
73248W        W45574   3.971   4.154  11.080
73249W        W45575  10.385  38.384  13.482
73250W        W45576  22.161   7.489  12.357
73251W        W45577  32.090  37.514   4.144
73252W        W45578  23.906  33.204   4.750
73253W        W45579  24.352   3.909   3.917
73254W        W45580  29.102  12.791  14.831
73255W        W45581  33.369  20.674  12.009
73256W        W45582  21.740  26.613  10.302
73257W        W45583  14.897  11.351   1.133
73258W        W45584  23.672   7.639   2.768
73259W        W45585  32.861   0.044   2.668
73260W        W45586  32.088  26.380   3.645
73261W        W45587  26.958   7.694   1.337
73262W        W45588  32.596   1.905   0.300
73263W        W45589   9.796   4.424   4.145
73264W        W45590  23.945  35.890  10.634
73265W        W45591   0.875  26.647  10.740
73266W        W45592   1.877  24.506   4.108
73267W        W45593   7.392  20.525   2.349
73268W        W45594   1.270  40.889   3.504
73269W        W45595  34.962   5.373  12.241
73270W        W45596  25.722   7.865   3.264
73271W        W45597  15.865  12.832   4.197
73272W        W45598  25.678  35.765  10.253
73273W        W45599  33.004  13.771   3.368
73274W        W45600   8.774  38.142   2.603
73275W        W45601   3.875   8.798  14.243
73276W        W45602  16.045   7.212   3.187
73277W        W45603  20.264  41.412   2.208
73278W        W45604   9.263  15.004   2.871
73279W        W45605  10.138  42.319   3.581
73280W        W45606  37.612  16.217   2.215
73281W        W45607   4.175  12.631   3.518
73282W        W45608   9.836  40.002   4.151
73283W        W45609  23.647  32.238   4.468
73284W        W45610  36.321   1.922  12.146
73285W        W45611  12.019  40.339   4.322
73286W        W45612  32.699  16.028  12.527
73287W        W45613  27.082  40.718   2.828
73288W        W45614  39.879  25.772  11.681
73289W        W45615  42.897  44.755  13.316
73290W        W45616  42.287  29.029   1.848
73291W        W45617  40.041  37.646  12.942
73292W        W45618   2.050  33.133  10.841
73293W        W45619  18.175  19.144   1.719
73294W        W45620  18.574  30.813   1.956
73295W        W45621   6.516  25.205   3.572
73296W        W45622   4.492  17.038   0.440
73297W        W45623  23.058  11.322  14.940
73298W        W45624   2.736   5.210  11.889
73299W        W45625  12.022  37.045  11.000
73300W        W45626  22.064  16.581  11.566
73301W        W45627  44.065  35.944  10.780
73302W        W45628   6.422  41.958  10.658
73303W        W45629   6.697   0.545   3.627
73304W        W45630  20.293  33.027  14.791
73305W        W45631   7.010  13.743  10.760
73306W        W45632   0.638  10.815   0.983
73307W        W45633  38.461   2.149   1.438
73308W        W45634   6.367  11.153  14.870
73309W        W45635  23.500  24.472  11.825
73310W        W45636  38.720  29.154   2.120
73311W        W45637  35.876  36.393   2.119
73312W        W45638  39.841  16.436   4.538
73313W        W45639  10.817  27.074  14.695
73314W        W45640  19.736  10.129  11.165
73315W        W45641  13.077  42.402   3.113
73316W        W45642   9.677  27.974   0.245
73317W        W45643   2.317  32.030  13.495
73318W        W45644  23.720  16.549  14.850
73319W        W45645  11.688  25.932   3.729
73320W        W45646   7.861  15.628  11.738
73321W        W45647  28.293  25.752   1.831
73322W        W45648   3.135  21.086  13.580
73323W        W45649   4.416  30.356   1.675
73324W        W45650  18.722  26.434   4.185
73325W        W45651   4.429   1.781   0.284
73326W        W45652  15.317  29.111  13.800
73327W        W45653  11.441  43.434  14.038
73328W        W45654  37.037   0.346  11.339
73329W        W45655  20.638  42.495   3.430
73330W        W45656   6.929  39.587   4.108
73331W        W45657  15.130  26.473  10.584
73332W        W45658   1.322  42.390   1.332
73333W        W45659  19.259  37.895   1.363
73334W        W45660  19.646  33.373   2.773
73335W        W45661  43.832  28.993  13.565
73336W        W45662  33.669  30.466   4.167
73337W        W45663  28.424  18.748  13.274
73338W        W45664  34.695  14.177   0.389
73339W        W45665  39.965  17.038  14.281
73340W        W45666  14.853  27.838  10.695
73341W        W45667  39.550  35.536   2.230
73342W        W45668  13.801  42.850  10.877
73343W        W45669  44.329  16.189   1.432
73344W        W45670  43.784   3.853   3.126
73345W        W45671   0.986   8.205  11.197
73346W        W45672  35.671  43.334   3.282
73347W        W45673  11.367  23.119   0.473
73348W        W45674  40.405   9.252   0.807
73349W        W45675  14.582  38.529   4.606
73350W        W45676   1.249  43.670  10.915
73351W        W45677  20.838  43.392   3.687
73352W        W45678  27.640   1.963  12.476
73353W        W45679  41.583  31.020   3.332
73354W        W45680  33.009  15.325  14.552
73355W        W45681  19.724   5.960   3.366
73356W        W45682  36.052  15.254   3.281
73357W        W45683  43.065  36.060  10.159
73358W        W45684  27.480  22.559   4.683
73359W        W45685  37.431  13.662   2.335
73360W        W45686  34.536  37.838   2.742
73361W        W45687   6.919  25.509   2.351
73362W        W45688  32.866  32.395   4.486
73363W        W45689  20.354   4.983   4.070
73364W        W45690   3.952  23.523   3.225
73365W        W45691  42.869  30.611  10.961
73366W        W45692  29.349   0.823   1.195
73367W        W45693  15.071  38.294   4.055
73368W        W45694  30.121   3.705   1.262
73369W        W45695  11.322   9.838  13.403
73370W        W45696   2.000  41.108  14.838
73371W        W45697  34.068  13.581   2.373
73372W        W45698   6.679   6.861   3.225
73373W        W45699  25.252  10.745   1.633
73374W        W45700  20.164  15.441  11.939
73375W        W45701   9.142  30.512   4.889
73376W        W45702  28.538  11.101  13.881
73377W        W45703   6.618  35.493   0.231
73378W        W45704  25.029  30.063  13.582
73379W        W45705   6.482  14.324  12.012
73380W        W45706  31.501   6.225   4.930
73381W        W45707  44.299  24.911  10.651
73382W        W45708   3.161   9.858  13.828
73383W        W45709  38.080   7.177   4.571
73384W        W45710  14.585   6.946   2.692
73385W        W45711   0.191  14.113  13.296
73386W        W45712  23.276  39.816   0.974
73387W        W45713  28.502  13.982  10.629
73388W        W45714  24.540   6.392  14.389
73389W        W45715   6.219   7.228  12.786
73390W        W45716  29.013  16.708  14.931
73391W        W45717  42.238   5.031  13.313
73392W        W45718  17.239  28.534  13.929
73393W        W45719  22.518  14.142   5.009
73394W        W45720  35.343  17.619  12.633
73395W        W45721  34.581  13.093   1.774
73396W        W45722  15.599   0.990  11.867
73397W        W45723  29.744  41.108   1.199
73398W        W45724  15.569  28.732   0.485
73399W        W45725  44.451  22.792   1.781
73400W        W45726  24.086  14.622   0.086
73401W        W45727   4.347   1.639  12.815
73402W        W45728  10.074  20.240   3.517
73403W        W45729  32.882  37.413   2.303
73404W        W45730  33.599  33.239  12.038
73405W        W45731  23.735  36.252   1.834
73406W        W45732  22.774  22.651  10.591
73407W        W45733  20.173   7.217   3.986
73408W        W45734  11.080  25.187  11.356
73409W        W45735  27.723  40.883  10.621
73410W        W45736  30.900  13.510   1.814
73411W        W45737  43.291  39.949   2.279
73412W        W45738  13.393  25.931  10.832
73413W        W45739   1.829  39.588  13.518
73414W        W45740  24.605   7.144  13.612
73415W        W45741   4.375   4.053   0.812
73416W        W45742  21.013  35.851   3.438
73417W        W45743   0.832  16.117   2.776
73418W        W45744  27.643  34.447  14.310
73419W        W45745  22.062  22.776  13.413
73420W        W45746  19.365  17.595   3.323
73421W        W45747   5.302  33.120   0.506
73422W        W45748  15.366  24.827   0.428
73423W        W45749  28.408  20.816   2.048
73424W        W45750   4.765  37.008  14.311
73425W        W45751  41.790  42.100   0.884
73426W        W45752  44.960  24.621   3.906
73427W        W45753   4.282  26.527   2.430
73428W        W45754  15.662   8.868   2.125
73429W        W45755  13.355   7.233   0.339
73430W        W45756  24.483  19.327   0.670
73431W        W45757  16.592  13.067  12.144
73432W        W45758  13.200  26.206  13.604
73433W        W45759  42.720  44.814  14.784
73434W        W45760  29.204  11.263  13.346
73435W        W45761  39.342   8.093  13.407
73436W        W45762  43.071  39.395  14.433
73437W        W45763  34.876  35.531   3.261
73438W        W45764  20.090  22.749  11.360
73439W        W45765   9.840  18.294   2.692
73440W        W45766  11.359  36.857  13.319
73441W        W45767  39.604   0.208   1.314
73442W        W45768  34.387  35.360  13.429
73443W        W45769  32.031  37.829  13.366
73444W        W45770   7.844  43.613   1.824
73445W        W45771  16.045  11.267  14.967
73446W        W45772  22.208  17.735  11.982
73447W        W45773  13.132  12.178  11.260
73448W        W45774  26.997  21.753   4.214
73449W        W45775   2.946  29.129  11.256
73450W        W45776   4.509  14.792  13.828
73451W        W45777  24.317  17.751   4.495
73452W        W45778   9.623  32.048   3.886
73453W        W45779  34.680  19.741  14.349
73454W        W45780   2.301   6.344   0.813
73455W        W45781   5.366  18.042  10.925
73456W        W45782  18.930  22.349   4.671
73457W        W45783  10.786  27.713  12.475
73458W        W45784  25.972  40.173   0.502
73459W        W45785  15.997  19.701   3.622
73460W        W45786  33.037  44.412   0.673
73461W        W45787  11.618  13.307   4.137
73462W        W45788   7.971   6.816   4.852
73463W        W45789   9.482  25.604   0.980
73464W        W45790  35.425  17.085   3.149
73465W        W45791   8.516  31.643   0.274
73466W        W45792  38.421  24.686  13.227
73467W        W45793  36.937  23.514  12.025
73468W        W45794  12.252  28.145  11.468
73469W        W45795  44.376  42.950  14.559
73470W        W45796  17.179  38.045   0.631
73471W        W45797   0.936   2.242   4.073
73472W        W45798   6.199  29.130   5.185
73473W        W45799  42.394  26.455  14.286
73474W        W45800  27.178  44.813   3.873
73475W        W45801  14.756  13.392   0.353
73476W        W45802  11.605  25.234   0.791
73477W        W45803  38.827   2.731  12.072
73478W        W45804  36.649  25.988  11.446
73479W        W45805  40.413  27.646   2.705
73480W        W45806  25.601   2.340   2.665
73481W        W45807   2.881  31.227   2.339
73482W        W45808   5.463  18.230  12.517
73483W        W45809   0.719  43.074  10.665
73484W        W45810  35.551  19.328   1.205
73485W        W45811  33.658  30.192   2.912
73486W        W45812  44.025   5.313   2.178
73487W        W45813   5.259  41.297  12.440
73488W        W45814  26.151   4.843   0.837
73489W        W45815  19.503   5.033  11.204
73490W        W45816  13.185  38.864   0.929
73491W        W45817  41.041  32.159  13.125
73492W        W45818   8.256  26.175  14.002
73493W        W45819   4.798   6.251  11.514
73494W        W45820   5.978  28.396  10.652
73495W        W45821  27.426  11.363   3.236
73496W        W45822  37.886   1.796  11.723
73497W        W45823   9.615  38.862  12.464
73498W        W45824  13.186  43.817   4.715
73499W        W45825  22.207   8.711  14.805
73500W        W45826  32.671  24.245  14.057
73501W        W45827   5.207  19.957  13.201
73502W        W45828  19.273   1.968   2.710
73503W        W45829   4.784  25.605   2.815
73504W        W45830  15.268   4.497  14.858
73505W        W45831  17.885  12.153  14.395
73506W        W45832  41.884   5.442  13.359
73507W        W45833  35.011  17.120   1.410
73508W        W45834  21.135   7.319   3.553
73509W        W45835  11.769   3.727  10.563
73510W        W45836  22.177  13.359  12.866
73511W        W45837  30.019  42.366  10.718
73512W        W45838  39.855  30.616   2.472
73513W        W45839  38.973  18.015  11.101
73514W        W45840   1.006  43.996  11.690
73515W        W45841  11.736  22.040   2.886
73516W        W45842  24.189  36.880   0.860
73517W        W45843  36.517   4.946   2.746
73518W        W45844  42.787  27.916   2.861
73519W        W45845  12.226  31.603  10.763
73520W        W45846   2.422  31.607  14.492
73521W        W45847  37.439  19.400  13.781
73522W        W45848  16.738  31.373  14.193
73523W        W45849  35.639  10.807   2.684
73524W        W45850  29.178  30.644  12.040
73525W        W45851  15.516  19.788   3.812
73526W        W45852  28.361  40.520   1.796
73527W        W45853   3.318  15.285   2.634
73528W        W45854  24.065  25.085  13.864
73529W        W45855  11.046  19.101  14.402
73530W        W45856  11.229  35.960  11.498
73531W        W45857  16.122  21.430   0.348
73532W        W45858  16.818  29.910  13.867
73533W        W45859  31.128  21.724   4.906
73534W        W45860  31.615  17.494   0.282
73535W        W45861  17.032   5.479   0.388
73536W        W45862  37.148  35.428   0.307
73537W        W45863   9.315  41.102  12.781
73538W        W45864   9.571   1.502  14.825
73539W        W45865   6.833  41.371   1.118
73540W        W45866   8.847   2.829   1.976
73541W        W45867  27.224  23.445  11.617
73542W        W45868  21.765  29.841   2.349
73543W        W45869  14.435  44.930   4.657
73544W        W45870  35.653  30.188  14.831
73545W        W45871  10.122  21.646  12.434
73546W        W45872  39.510   7.195  14.548
73547W        W45873  38.342  37.900   0.836
73548W        W45874   2.956  35.057  11.089
73549W        W45875  34.610   9.628   3.854
73550W        W45876   5.764   2.024   4.146
73551W        W45877  19.508  36.307  11.013
73552W        W45878  40.760  29.969   0.737
73553W        W45879   8.074  42.294   1.529
73554W        W45880  31.901  22.470   2.630
73555W        W45881  43.278   6.994   2.365
73556W        W45882  40.262   0.802   1.402
73557W        W45883  24.220   7.743  12.009
73558W        W45884  14.428  18.362  14.493
73559W        W45885  19.449  26.108   0.507
73560W        W45886  38.795  19.063   0.403
73561W        W45887  42.340  21.962   1.912
73562W        W45888  42.758   3.924   0.524
73563W        W45889  23.374  33.732   2.836
73564W        W45890  24.953  29.570   0.346
73565W        W45891  18.282  30.581   1.601
73566W        W45892  29.065   3.214   1.502
73567W        W45893  28.177  18.358   3.233
73568W        W45894  20.772  16.019  12.316
73569W        W45895   2.845  26.037   0.155
73570W        W45896   1.288  24.004  11.902
73571W        W45897  17.036  31.936   2.289
73572W        W45898  14.592  11.230  14.885
73573W        W45899  15.896  43.723   5.011
73574W        W45900  26.005  29.935  11.060
73575W        W45901   4.833  32.349   2.176
73576W        W45902  18.557  28.710  11.173
73577W        W45903  41.279   0.958   1.433
73578W        W45904  30.454  19.157   4.334
73579W        W45905  25.217   0.458  13.429
73580W        W45906  24.674  22.302   4.660
73581W        W45907  14.570  14.590   4.527
73582W        W45908  27.074  44.336  14.747
73583W        W45909   7.665  39.827  12.621
73584W        W45910  34.840  28.842  14.111
73585W        W45911  35.803  37.540   0.815
73586W        W45912  35.518  29.380   1.819
73587W        W45913  40.520   5.330  12.961
73588W        W45914   7.337  15.253  11.129
73589W        W45915  15.206  23.549  11.960
73590W        W45916   2.241  19.144   0.716
73591W        W45917  31.960  29.978  13.749
73592W        W45918  13.282  30.427   4.637
73593W        W45919  35.462  33.475   3.116
73594W        W45920  37.078  10.288   0.843
73595W        W45921  32.363   8.909   2.605
73596W        W45922  28.193   3.677  11.923
73597W        W45923  42.785  41.789   2.602
73598W        W45924  39.533  42.380  13.590
73599W        W45925  12.727  29.559   0.050
73600W        W45926  30.620  44.853   1.606
73601W        W45927   9.267  36.707  11.613
73602W        W45928  16.361  32.682  12.028
73603W        W45929   3.387  12.323  13.050
73604W        W45930  17.570  44.256   3.632
73605W        W45931   6.432  33.804  13.264
73606W        W45932  12.846  17.757   3.161
73607W        W45933  29.663  38.599  11.681
73608W        W45934  33.908  13.286  14.527
73609W        W45935  13.388  21.255  14.869
73610W        W45936   5.601  27.957   2.301
73611W        W45937  39.952   5.045  11.088
73612W        W45938  11.827  18.803   3.935
73613W        W45939  21.048  22.722   0.936
73614W        W45940   8.663  13.840  14.214
73615W        W45941  13.780  22.920   2.385
73616W        W45942   8.251  27.891   1.874
73617W        W45943  14.202  17.167   4.057
73618W        W45944  42.582  16.769   3.448
73619W        W45945   7.582  44.556   1.012
73620W        W45946  12.146  21.239  14.726
73621W        W45947   1.240   8.443  12.648
73622W        W45948  24.117   8.789  14.299
73623W        W45949  22.672  19.734   1.243
73624W        W45950  20.120  15.399  11.422
73625W        W45951   4.872   3.149   4.760
73626W        W45952  12.232  34.045  14.008
73627W        W45953  42.332  27.536   0.354
73628W        W45954  10.422  19.883  12.454
73629W        W45955  28.438   2.794  13.912
73630W        W45956  43.419  44.049   2.804
73631W        W45957  37.119  37.848   3.067
73632W        W45958  18.813  41.938   0.206
73633W        W45959   8.837  40.783   4.803
73634W        W45960  38.821  43.145  11.854
73635W        W45961  41.263  39.512   4.773
73636W        W45962   3.274  35.762   0.714
73637W        W45963   4.792  27.542  12.260
73638W        W45964   9.139   9.159   4.246
73639W        W45965  32.170  29.646   2.128
73640W        W45966  16.281   6.095   4.559
73641W        W45967  42.697  37.511   4.532
73642W        W45968  37.356  14.840   0.990
73643W        W45969   8.064  28.752   5.153
73644W        W45970  28.941  28.516   4.152
73645W        W45971  32.173  13.103   0.331
73646W        W45972  14.385  24.775   3.791
73647W        W45973   8.879  44.703  12.482
73648W        W45974   3.034  32.441   4.649
73649W        W45975  23.669  25.701  13.486
73650W        W45976  25.399  20.110   0.395
73651W        W45977  22.380  17.711   4.776
73652W        W45978  39.105  30.400  11.479
73653W        W45979  32.026   7.980   3.204
73654W        W45980  22.721  20.242   1.049
73655W        W45981   9.073  19.193   2.850
73656W        W45982  40.439  15.601  14.370
73657W        W45983  36.856   1.341   0.948
73658W        W45984  24.170  42.511  13.433
73659W        W45985  41.913  38.802   0.493
73660W        W45986  15.769  18.262   1.363
73661W        W45987  26.094   7.378   1.480
73662W        W45988  33.993  32.372   0.695
73663W        W45989  12.509  33.875   3.216
73664W        W45990  15.259  23.794  10.603
73665W        W45991  11.066  14.192   0.249
73666W        W45992  18.091  19.567  12.524
73667W        W45993   7.440  31.452   0.026
73668W        W45994  17.465  34.299   0.523
73669W        W45995  21.865  43.302   3.442
73670W        W45996  11.612  26.102  14.931
73671W        W45997   5.385  21.328   2.593
73672W        W45998  35.848   0.619   2.339
73673W        W45999  17.510  10.932  11.211
73674W        W46000   6.152  29.081  13.147
73675W        W46001  38.278  10.386   3.345
73676W        W46002  16.435  30.238  13.799
73677W        W46003  36.631  32.847  11.433
73678W        W46004  18.164  16.358   1.880
73679W        W46005  11.312  19.773  13.913
73680W        W46006   8.140  21.621  12.664
73681W        W46007  18.861  38.467  14.257
73682W        W46008  35.878  34.310   4.199
73683W        W46009  39.939  42.393   3.526
73684W        W46010   2.263  42.343  13.450
73685W        W46011  29.099  18.269   1.813
73686W        W46012  25.512  35.659  10.882
73687W        W46013  20.651  24.139   1.318
73688W        W46014  44.841   5.935   4.042
73689W        W46015  27.631   6.668  14.862
73690W        W46016  40.316  41.456  14.472
73691W        W46017   5.262   5.897  11.572
73692W        W46018   8.169   3.818   2.380
73693W        W46019  32.955   0.342   4.362
73694W        W46020  14.400  34.366   9.831
73695W        W46021  29.886  42.937  12.028
73696W        W46022   2.131  31.452   1.232
73697W        W46023  10.182   2.460  14.823
73698W        W46024  21.488  11.700   0.498
73699W        W46025  14.978  34.555  11.960
73700W        W46026  30.437  38.306   4.428
73701W        W46027  44.354   2.382  12.447
73702W        W46028   2.847   8.126   3.790
73703W        W46029  11.409  44.521  12.119
73704W        W46030  38.729  36.950  12.140
73705W        W46031  20.770   5.166   2.402
73706W        W46032  10.170  20.563   2.335
73707W        W46033  26.958  20.637  12.020
73708W        W46034  21.207   3.385  10.227
73709W        W46035  42.499  10.661  10.648
73710W        W46036  41.722   8.168  11.542
73711W        W46037  14.194  21.458   4.051
73712W        W46038  41.069   6.940   3.715
73713W        W46039  34.104   2.444   2.366
73714W        W46040  21.787  13.722  14.392
73715W        W46041  22.070  38.161  13.378
73716W        W46042   2.832  21.616   5.049
73717W        W46043  35.442  44.846   2.838
73718W        W46044   1.901  21.244   9.671
73719W        W46045  44.147   2.023  12.759
73720W        W46046  26.829  27.653   4.069
73721W        W46047  18.569  40.094  14.768
73722W        W46048   4.243   9.785   3.344
73723W        W46049  35.978  21.117   2.595
73724W        W46050  39.508  18.504   0.706
73725W        W46051   1.319  41.008  10.483
73726W        W46052   7.875  21.736  13.130
73727W        W46053  44.526  20.171   3.260
73728W        W46054  28.675  18.280  13.322
73729W        W46055  17.570  23.673  11.219
73730W        W46056  33.491  15.613  14.981
73731W        W46057  11.580  34.625   2.481
73732W        W46058   7.824  30.757  11.001
73733W        W46059   8.672  40.535  12.943
73734W        W46060   5.241  33.068   1.910
73735W        W46061  34.388   4.799  13.697
73736W        W46062   4.335  35.110  13.216
73737W        W46063   8.869  20.806   0.442
73738W        W46064  32.081  40.930   2.575
73739W        W46065  13.148   4.662  11.653
73740W        W46066  37.349  28.119  12.135
73741W        W46067   2.534  23.076  11.703
73742W        W46068  35.894  38.181  12.982
73743W        W46069  25.053  29.896  11.667
73744W        W46070  20.282   1.453  13.746
73745W        W46071  16.332  12.341   1.682
73746W        W46072  44.963  35.571   2.029
73747W        W46073  10.418  15.002   3.592
73748W        W46074   6.849  14.725  14.472
73749W        W46075   4.338  19.660   2.115
73750W        W46076  37.585   5.836   4.555
73751W        W46077  17.993   1.529   0.863
73752W        W46078  41.814  39.268  12.650
73753W        W46079  23.028  44.297  12.395
73754W        W46080   6.208  34.796   3.830
73755W        W46081  18.803   1.101   2.003
73756W        W46082   6.245  24.131   1.158
73757W        W46083   6.364  14.785   4.850
73758W        W46084  16.513   6.894   4.151
73759W        W46085  41.041  44.711  12.041
73760W        W46086   1.231  10.387   4.852
73761W        W46087  31.702  39.306   3.286
73762W        W46088  12.794  36.766   2.320
73763W        W46089  29.501  16.828  14.733
73764W        W46090  15.393  28.108  11.526
73765W        W46091  28.341  37.568  11.383
73766W        W46092  12.202  27.898  13.410
73767W        W46093   8.135  37.104   0.896
73768W        W46094  39.565  33.774  13.387
73769W        W46095  38.352  22.439  12.447
73770W        W46096  27.500  44.048   1.931
73771W        W46097  35.988  16.072  13.030
73772W        W46098  39.531   6.324  10.780
73773W        W46099  44.426  35.604   3.688
73774W        W46100  41.782  15.773  12.834
73775W        W46101  20.759  23.768   0.434
73776W        W46102  16.227  37.441   2.818
73777W        W46103  35.178  13.335  13.340
73778W        W46104  21.521  30.068   4.228
73779W        W46105  41.760  44.568   3.089
73780W        W46106  16.214   9.412   4.541
73781W        W46107  32.305   0.180   2.667
73782W        W46108  33.059  13.769   0.030
73783W        W46109  14.092  30.795   1.176
73784W        W46110  36.510  11.235   0.830
73785W        W46111  35.047  17.707  11.535
73786W        W46112   3.740   3.726   3.329
73787W        W46113  37.748   2.698  12.432
73788W        W46114   7.902  15.685   3.954
73789W        W46115   0.233   8.398   4.869
73790W        W46116  43.466  21.546  12.774
73791W        W46117  33.553   1.367  11.494
73792W        W46118  29.820  32.420  14.260
73793W        W46119  24.428  35.878  12.508
73794W        W46120  10.051  13.102   0.729
73795W        W46121  20.881   3.795  10.289
73796W        W46122  21.382  28.907   3.136
73797W        W46123  17.391  21.855   1.807
73798W        W46124  39.079  13.887  14.934
73799W        W46125  28.883   2.449  10.739
73800W        W46126  29.548  44.116   1.701
73801W        W46127  34.885  23.211   0.990
73802W        W46128  16.211  25.163   3.788
73803W        W46129  35.337   8.832  11.585
73804W        W46130  26.376  11.578   1.898
73805W        W46131  18.287  24.541   2.727
73806W        W46132   3.964  43.929   4.948
73807W        W46133  21.647  27.159  13.889
73808W        W46134  38.487  31.536  11.107
73809W        W46135   3.782  23.939  10.664
73810W        W46136   5.286  27.180   1.903
73811W        W46137  40.746  40.375   1.433
73812W        W46138  26.325   1.393   0.296
73813W        W46139  23.223  17.810   2.316
73814W        W46140  35.647  36.519  14.381
73815W        W46141  30.031  38.042  11.149
73816W        W46142  42.035  14.622  12.637
73817W        W46143  37.611  42.949   1.925
73818W        W46144  31.660  28.986   1.918
73819W        W46145   7.401  28.398  14.000
73820W        W46146  34.865  40.311  12.443
73821W        W46147  34.190   4.264   0.008
73822W        W46148   8.719   9.817   3.742
73823W        W46149  20.211   6.805  10.636
73824W        W46150  21.488  27.709   1.822
73825W        W46151  25.554  26.984   2.788
73826W        W46152   5.793   0.261  10.930
73827W        W46153   2.401  16.687  11.884
73828W        W46154  28.919  44.886   2.420
73829W        W46155  13.211  12.333  11.740
73830W        W46156  44.386  10.896   0.920
73831W        W46157  16.811  19.546   0.913
73832W        W46158  26.079  33.884  13.513
73833W        W46159  21.184  15.815   1.360
73834W        W46160  15.711  32.149   4.503
73835W        W46161  42.049  21.544  12.805
73836W        W46162  39.987  38.330  10.873
73837W        W46163   6.444  26.446  14.428
73838W        W46164  11.439  18.881   4.303
73839W        W46165   6.010  19.748  12.878
73840W        W46166  11.349  14.825   2.329
73841W        W46167  28.113  44.996   3.399
73842W        W46168  21.487   7.309  10.704
73843W        W46169  39.025  38.336  14.344
73844W        W46170  43.380  34.663   2.570
73845W        W46171  16.319   4.637   2.177
73846W        W46172  10.230  38.961  13.480
73847W        W46173   7.106  42.951   1.929
73848W        W46174  26.574  12.720   4.117
73849W        W46175  38.796  13.217  12.726
73850W        W46176  22.036  23.678  11.933
73851W        W46177  18.793  20.309  13.396
73852W        W46178   4.242  41.140   1.171
73853W        W46179  13.103  13.386   4.726
73854W        W46180  29.551  25.368   4.624
73855W        W46181  15.096  31.593   0.954
73856W        W46182   1.371  12.729   1.739
73857W        W46183  41.015  22.705   0.871
73858W        W46184   9.903  16.265  11.384
73859W        W46185  19.323  37.063  10.660
73860W        W46186  30.329  14.223   0.439
73861W        W46187   5.098  34.889  12.620
73862W        W46188  13.127  26.713   5.438
73863W        W46189  33.038  35.782  13.769
73864W        W46190  29.645   9.811  11.985
73865W        W46191  41.438  40.577  13.805
73866W        W46192  10.256   7.801  13.376
73867W        W46193  40.124  43.413   1.397
73868W        W46194  38.592  37.339  11.046
73869W        W46195  17.997  26.792  12.506
73870W        W46196  19.385  22.527   1.849
73871W        W46197  44.550  27.044   0.498
73872W        W46198   0.844  13.650   2.724
73873W        W46199  32.605  29.835   4.597
73874W        W46200  24.576  23.516   0.258
73875W        W46201  13.932  26.775   9.715
73876W        W46202  41.572  12.232  10.492
73877W        W46203  28.963  26.008   3.983
73878W        W46204   7.796   4.464  12.056
73879W        W46205  43.921  18.860  13.891
73880W        W46206   9.797  23.560   3.922
73881W        W46207  13.721   3.389  13.198
73882W        W46208  38.560  37.452  13.894
73883W        W46209  40.213  12.342  11.094
73884W        W46210  35.020   8.253  11.184
73885W        W46211  27.982  41.372   2.373
73886W        W46212  36.735  34.126   2.367
73887W        W46213   5.492   0.235   4.588
73888W        W46214  17.105  14.410  10.679
73889W        W46215  26.241  13.841  11.105
73890W        W46216  23.561  17.026   0.091
73891W        W46217  33.439   8.181   0.821
73892W        W46218   1.921   3.963   9.974
73893W        W46219  40.429  11.304   2.384
73894W        W46220  22.198  41.590  12.405
73895W        W46221  20.168   2.987  13.819
73896W        W46222  15.588  43.485  14.807
73897W        W46223  39.078  23.809   3.235
73898W        W46224   7.922  19.453  12.925
73899W        W46225  41.000  32.015   4.000
73900W        W46226  18.565  18.808   0.474
73901W        W46227  12.052  34.433   4.449
73902W        W46228   7.197  17.301   4.167
73903W        W46229  30.503   8.232  10.669
73904W        W46230  44.436  41.078   4.136
73905W        W46231  42.353  36.920  12.147
73906W        W46232  23.648  13.679   4.167
73907W        W46233  18.630  24.955   1.765
73908W        W46234  21.269  31.712  10.844
73909W        W46235  42.957  20.709   4.633
73910W        W46236  37.072  16.207   0.294
73911W        W46237   8.134  14.656  14.984
73912W        W46238   5.735   8.578  11.613
73913W        W46239   0.449  28.434   4.413
73914W        W46240  25.479  17.111  10.564
73915W        W46241   5.830   0.947   0.225
73916W        W46242  21.911   1.475  12.062
73917W        W46243  24.283   3.430  13.080
73918W        W46244  26.517  39.869   2.669
73919W        W46245  12.246  32.888  10.374
73920W        W46246  18.598   4.908  11.681
73921W        W46247  18.717  13.949  14.065
73922W        W46248  41.526   2.811   0.734
73923W        W46249   6.883  27.859  12.602
73924W        W46250  38.726  43.535  11.503
73925W        W46251  23.597  39.566  12.940
73926W        W46252  36.904  25.189   1.748
73927W        W46253  35.488  28.229   2.895
73928W        W46254  24.236   1.949   4.452
73929W        W46255  20.662  41.350  13.997
73930W        W46256  41.173   9.342   2.880
73931W        W46257  13.273  36.882   4.620
73932W        W46258   1.270  34.681  12.384
73933W        W46259  40.492  43.322  10.941
73934W        W46260  30.983   6.950   4.505
73935W        W46261  36.048  23.772  12.493
73936W        W46262  28.750  23.211  11.939
73937W        W46263  42.767   2.936  11.949
73938W        W46264  36.538  34.247  11.476
73939W        W46265  33.100   4.859   2.107
73940W        W46266   5.255  22.429   3.219
73941W        W46267  19.471  37.536  12.240
73942W        W46268  39.890  29.978  13.844
73943W        W46269  41.716   3.075  14.789
73944W        W46270  41.159   8.746   1.767
73945W        W46271   9.172  14.070   3.343
73946W        W46272   2.655   9.695  11.940
73947W        W46273  34.390  37.307   2.795
73948W        W46274  44.837  41.768  12.466
73949W        W46275   7.410  20.660   0.294
73950W        W46276   8.364  39.811   0.074
73951W        W46277  34.970   6.228   0.489
73952W        W46278  29.965  31.500   1.617
73953W        W46279  31.909  34.624  11.238
73954W        W46280   1.566  22.214   4.483
73955W        W46281  27.242   6.399  13.123
73956W        W46282  39.460   2.139  13.671
73957W        W46283  25.263  41.847  12.868
73958W        W46284  21.001  40.208   0.906
73959W        W46285  14.711  34.023  14.537
73960W        W46286  22.897   6.941  12.044
73961W        W46287  16.735  34.896  13.470
73962W        W46288  13.153  30.212   0.324
73963W        W46289  29.114  38.618   0.282
73964W        W46290  35.042  28.796  12.954
73965W        W46291  26.539   1.259  11.956
73966W        W46292  14.769  13.700  12.884
73967W        W46293   2.656  28.903  12.991
73968W        W46294  13.157  27.348   2.435
73969W        W46295   4.685   5.226   1.231
73970W        W46296  11.720  16.813  13.579
73971W        W46297  12.220  30.330  10.716
73972W        W46298   6.447  14.359  12.886
73973W        W46299  20.564   8.659   2.137
73974W        W46300  11.647  19.683   5.026
73975W        W46301  13.438  25.858   3.900
73976W        W46302  43.454  41.494   2.851
73977W        W46303  40.349  16.116  13.285
73978W        W46304   2.661  11.622  10.994
73979W        W46305  22.556  25.215  13.966
73980W        W46306  33.867  30.088  13.631
73981W        W46307  36.954  12.604   1.180
73982W        W46308  14.297  39.842   2.948
73983W        W46309   9.028   8.688   4.469
73984W        W46310   6.943  26.554  11.715
73985W        W46311  15.038  32.879   0.879
73986W        W46312  21.808  14.189   3.734
73987W        W46313  43.729   7.419   3.286
73988W        W46314   2.796  35.969  12.613
73989W        W46315  32.424  23.409  14.725
73990W        W46316  44.302  38.630  12.830
73991W        W46317  22.684  30.427   4.138
73992W        W46318  32.364  34.901  11.355
73993W        W46319  33.140  21.507  10.954
73994W        W46320  22.354  18.702  13.450
73995W        W46321  39.020  20.160  12.333
73996W        W46322   2.452  34.236   0.795
73997W        W46323   5.780  40.290   2.298
73998W        W46324  17.340  15.177   2.786
73999W        W46325  39.463  10.757  14.902
74000W        W46326  15.417  12.339   2.324
74001W        W46327  22.359  24.226  13.817
74002W        W46328  12.589   5.941   1.133
74003W        W46329   3.772  26.570   2.471
74004W        W46330  41.910  15.693  13.327
74005W        W46331  43.514  21.630   0.587
74006W        W46332  40.029  27.152  13.989
74007W        W46333  36.813  34.304   3.061
74008W        W46334   1.976  19.083   4.867
74009W        W46335  31.453  41.318  11.914
74010W        W46336   4.935   9.781  12.866
74011W        W46337  38.417  17.491   3.035
74012W        W46338   6.420  19.114  12.741
74013W        W46339  12.438   8.140  13.400
74014W        W46340  35.377  40.828  14.445
74015W        W46341  42.360   4.334  14.069
74016W        W46342  33.325   5.752  14.395
74017W        W46343  22.239  26.476   4.842
74018W        W46344  32.376  37.890   0.190
74019W        W46345  43.828  21.289   0.869
74020W        W46346  35.396  36.083   2.746
74021W        W46347  32.918  42.913   1.183
74022W        W46348  24.737  34.409  10.922
74023W        W46349  38.781   3.675  13.404
74024W        W46350  22.553   7.822  12.332
74025W        W46351  26.451  28.899   4.221
74026W        W46352  29.153   8.479   0.251
74027W        W46353   3.859  15.206  10.342
74028W        W46354  19.737  42.359  13.469
74029W        W46355   2.219  32.510  12.900
74030W        W46356   4.345  40.239  14.869
74031W        W46357   2.442  20.741   3.156
74032W        W46358  44.606  39.922   3.710
74033W        W46359  21.651   6.154   4.434
74034W        W46360  23.892  36.645   4.017
74035W        W46361  15.118  36.816  14.683
74036W        W46362  25.865  22.665   0.284
74037W        W46363  28.540  33.899  12.143
74038W        W46364  10.242   5.892   1.313
74039W        W46365   7.690  28.510   3.383
74040W        W46366   6.724  24.566   3.237
74041W        W46367  30.725  38.063   2.410
74042W        W46368  41.311  34.446   4.019
74043W        W46369  15.215  39.795  13.124
74044W        W46370  27.697   6.632  12.933
74045W        W46371  17.634   4.151   4.836
74046W        W46372   8.310  12.552   2.482
74047W        W46373  12.543  19.487   1.094
74048W        W46374  17.854   2.644   0.052
74049W        W46375  20.267   8.806  11.036
74050W        W46376  21.019  23.505  11.191
74051W        W46377  23.539  37.391  12.918
74052W        W46378   7.591   3.423  11.502
74053W        W46379   5.825   5.767  12.653
74054W        W46380   6.129  36.080  12.516
74055W        W46381  12.212  25.562  11.899
74056W        W46382  40.892  16.411   0.390
74057W        W46383  24.030  22.691  13.604
74058W        W46384   0.990  18.718  12.356
74059W        W46385  22.073  20.164   1.728
74060W        W46386  33.864  19.734   4.227
74061W        W46387  43.042  38.012  12.915
74062W        W46388  24.571   1.710   2.612
74063W        W46389  34.577  39.421  13.879
74064W        W46390  39.471  17.683   1.941
74065W        W46391  34.604  31.025   2.329
74066W        W46392   9.516  38.360  13.747
74067W        W46393  22.798  29.159   1.218
74068W        W46394  17.513  14.119  10.746
74069W        W46395   1.549  13.815   1.774
74070W        W46396  15.278  24.710  14.945
74071W        W46397  35.579  40.831   3.210
74072W        W46398  38.405  31.169   3.780
74073W        W46399  19.293  22.786   0.718
74074W        W46400  23.204  33.702  10.127
74075W        W46401  10.828  35.831  12.868
74076W        W46402  35.519  43.201   1.921
74077W        W46403  12.948   1.744   2.252
74078W        W46404  12.275  42.905  11.213
74079W        W46405  27.901   3.710  13.684
74080W        W46406  13.678  39.183  13.309
74081W        W46407  22.503  25.542   1.454
74082W        W46408  36.751  33.747   9.762
74083W        W46409  17.294  23.698   4.780
74084W        W46410  19.216  43.304  10.511
74085W        W46411  36.877  37.506   0.842
74086W        W46412  38.440  12.458  13.741
74087W        W46413  31.548  34.003   4.533
74088W        W46414  20.723  40.425   3.822
74089W        W46415   7.398  26.083   1.254
74090W        W46416  26.920  21.127   2.140
74091W        W46417  22.873  14.877   3.132
74092W        W46418  12.638   5.205  13.989
74093W        W46419  21.617  10.716  13.781
74094W        W46420   0.992  31.023  14.906
74095W        W46421  33.570  13.713   1.240
74096W        W46422  37.009  22.832   0.074
74097W        W46423   0.834  13.665  12.682
74098W        W46424  38.982  43.288   2.365
74099W        W46425   7.181  34.866   3.317
74100W        W46426   0.356  24.185  14.276
74101W        W46427  30.057  38.065  12.916
74102W        W46428  22.169  35.251  12.398
74103W        W46429  17.309  42.987  10.296
74104W        W46430  25.014  22.652   4.496
74105W        W46431   3.317  29.400   0.935
74106W        W46432  18.108   9.436  12.409
74107W        W46433  17.014   7.983   0.427
74108W        W46434  19.459   5.789   1.547
74109W        W46435  23.277  18.653   2.821
74110W        W46436  40.930  39.075  14.881
74111W        W46437  30.317  32.500  11.395
74112W        W46438  15.156  43.486  10.361
74113W        W46439  31.479  31.952  12.185
74114W        W46440  25.276  17.464   3.722
74115W        W46441  37.337  30.848  14.173
74116W        W46442  37.080  22.564   0.947
74117W        W46443  25.854  11.881   2.658
74118W        W46444  31.632   6.643  11.547
74119W        W46445  34.816  32.134  14.003
74120W        W46446  40.027  10.609   1.693
74121W        W46447  34.310  17.036  12.523
74122W        W46448  39.305  16.187   2.772
74123W        W46449   3.371   2.375  13.863
74124W        W46450   2.948  30.971  11.406
74125W        W46451  16.265  19.527  11.975
74126W        W46452  24.733  37.092   4.889
74127W        W46453  26.014  16.661   3.781
74128W        W46454  13.296  37.377  14.971
74129W        W46455   3.589  31.691   5.249
74130W        W46456  19.814   7.668  13.427
74131W        W46457   0.777   4.239   0.900
74132W        W46458  39.482  12.625   3.319
74133W        W46459  31.365  23.333   1.463
74134W        W46460   9.147  42.744  14.781
74135W        W46461  10.406  13.203  13.451
74136W        W46462  18.082  43.176  11.717
74137W        W46463   4.721  10.836   1.964
74138W        W46464  33.837  15.152   1.750
74139W        W46465   3.038  31.553   0.307
74140W        W46466  14.673  30.120  13.803
74141W        W46467  11.186  39.012   2.356
74142W        W46468  43.491  26.684   1.287
74143W        W46469  12.212  10.926  14.886
74144W        W46470  39.594  38.136   2.653
74145W        W46471  41.851  21.238  13.923
74146W        W46472  28.643  35.222  11.036
74147W        W46473  37.178  22.201   5.082
74148W        W46474  16.241  28.439  13.977
74149W        W46475  32.573  43.746   0.347
74150W        W46476  29.260  36.462  14.825
74151W        W46477  36.580  11.442   1.313
74152W        W46478  16.966  16.118   2.713
74153W        W46479  36.278   5.947  11.092
74154W        W46480  13.787  20.034   3.789
74155W        W46481  24.186  25.979   1.918
74156W        W46482  17.499   4.303   3.369
74157W        W46483  42.303  26.258  12.483
74158W        W46484  42.017  18.567   4.504
74159W        W46485  25.516  37.002  14.510
74160W        W46486   8.946  27.427   4.703
74161W        W46487  28.715  13.883   3.715
74162W        W46488   6.311  16.674   0.363
74163W        W46489  40.279  43.274   4.273
74164W        W46490   2.240  21.670   1.619
74165W        W46491  18.030   2.297  10.619
74166W        W46492  42.534  26.527   4.851
74167W        W46493  41.239   0.335  11.621
74168W        W46494  10.427  33.341   1.077
74169W        W46495  11.577  25.030   3.945
74170W        W46496  20.285  26.856  12.613
74171W        W46497  10.844   0.324   3.470
74172W        W46498   2.964  22.637  12.375
74173W        W46499  10.277  16.275   1.928
74174W        W46500  34.905  19.649   3.336
74175W        W46501  35.712   3.861  12.034
74176W        W46502  26.905  15.768  11.491
74177W        W46503  31.913   7.807  14.605
74178W        W46504  29.293  30.054  12.791
74179W        W46505  29.428   9.331  14.933
74180W        W46506  34.389  25.714  14.348
74181W        W46507  41.434  44.305   0.728
74182W        W46508   2.181  17.566  12.454
74183W        W46509   4.788  19.845   3.329
74184W        W46510  41.745  19.057  14.472
74185W        W46511  23.477   3.435   4.730
74186W        W46512  39.402  30.457  12.797
74187W        W46513  10.295  17.497   5.154
74188W        W46514  15.731  10.208   0.846
74189W        W46515   1.960  42.758  10.819
74190W        W46516  10.684  38.545   0.025
74191W        W46517  31.720  43.329  12.052
74192W        W46518   4.782  35.399   2.887
74193W        W46519  42.455   3.479  10.673
74194W        W46520   2.759  20.739  10.661
74195W        W46521  30.895  17.740  14.876
74196W        W46522  22.743  36.441  14.730
74197W        W46523  43.948   3.739  14.041
74198W        W46524  28.610  18.739   1.024
74199W        W46525  35.123  10.175   9.989
74200W        W46526  43.377  27.056  14.271
74201W        W46527   7.435  40.170  14.393
74202W        W46528   4.810  37.494  14.486
74203W        W46529  40.515  39.890   0.782
74204W        W46530  21.498   2.443  12.047
74205W        W46531  39.965  15.920   4.524
74206W        W46532   8.382   3.894  13.989
74207W        W46533  30.482  30.545   2.962
74208W        W46534  18.263  35.585   4.675
74209W        W46535  38.128  16.324  13.418
74210W        W46536  32.905  11.607   0.263
74211W        W46537  25.043  19.920  14.006
74212W        W46538  44.307  34.670  14.557
74213W        W46539   1.743  22.066  13.530
74214W        W46540  13.307  29.969  13.851
74215W        W46541   5.830  28.736   3.109
74216W        W46542  33.117  36.029   3.736
74217W        W46543  37.777  40.240   0.871
74218W        W46544  31.033  25.232   4.912
74219W        W46545  11.554  27.413  11.123
74220W        W46546  30.503  39.847   2.212
74221W        W46547   5.915  27.512  14.702
74222W        W46548  15.353  14.751   3.159
74223W        W46549   4.553  41.814   4.135
74224W        W46550  11.336  14.686  12.859
74225W        W46551  28.292  25.173   2.578
74226W        W46552  16.781  11.644   2.156
74227W        W46553  16.112  30.634  13.762
74228W        W46554  21.736  18.844  13.995
74229W        W46555  36.706  12.240  10.521
74230W        W46556   3.677   4.986  14.517
74231W        W46557  16.733   7.872  11.125
74232W        W46558  13.388  43.737  13.333
74233W        W46559  36.496  28.264  10.614
74234W        W46560  14.660  14.814  12.037
74235W        W46561  19.927  13.140   3.104
74236W        W46562   1.493  25.309  14.890
74237W        W46563  38.820  39.556   3.163
74238W        W46564   0.582  37.615   2.299
74239W        W46565   3.883  13.640   1.768
74240W        W46566   5.385  44.967   3.669
74241W        W46567  43.715  13.176  10.703
74242W        W46568  17.055  28.039   3.583
74243W        W46569  25.134  15.067  10.718
74244W        W46570  36.375  28.000  14.915
74245W        W46571  23.323  18.498   4.248
74246W        W46572  41.989   5.230   0.764
74247W        W46573  15.772  22.591   1.508
74248W        W46574  11.372   3.899  10.821
74249W        W46575  27.677  31.906   2.765
74250W        W46576   8.906  25.529  11.942
74251W        W46577  24.803  29.994  14.559
74252W        W46578  28.485  36.260   1.677
74253W        W46579   6.954   6.368   3.206
74254W        W46580  44.206  33.884   1.780
74255W        W46581  44.380  16.217  13.111
74256W        W46582   3.017  15.320  11.531
74257W        W46583  12.328   5.159  14.396
74258W        W46584  25.887  42.506   4.644
74259W        W46585  44.930  18.720  13.327
74260W        W46586   2.262   4.914  13.291
74261W        W46587  35.424  36.912  10.781
74262W        W46588  38.480  19.568   4.629
74263W        W46589  26.825  18.703  12.910
74264W        W46590  18.258  14.591   4.746
74265W        W46591   4.357  29.795   2.991
74266W        W46592  39.940  32.887  13.731
74267W        W46593  28.039   5.537   2.262
74268W        W46594  36.661  39.254  14.353
74269W        W46595  44.734  22.081  13.754
74270W        W46596  16.231  27.500   2.772
74271W        W46597  41.433  35.831  11.061
74272W        W46598  43.364  20.510  12.419
74273W        W46599  42.111  40.672   4.429
74274W        W46600  10.325  35.507  14.081
74275W        W46601  13.079  17.591  10.833
74276W        W46602  26.711  31.627   4.160
74277W        W46603  41.484  35.385  13.820
74278W        W46604   8.956  33.580   0.238
74279W        W46605   1.704  16.111   1.130
74280W        W46606  36.050  24.967   1.351
74281W        W46607  44.800   4.171   3.469
74282W        W46608  10.231  36.548   0.809
74283W        W46609   1.026  19.278  10.591
74284W        W46610  32.280  28.731  14.953
74285W        W46611  40.508   6.321   0.419
74286W        W46612  27.891  41.297  12.811
74287W        W46613   3.779  34.774  10.239
74288W        W46614   8.810  13.317   4.391
74289W        W46615  28.594  10.408   0.746
74290W        W46616   1.163  44.960  13.724
74291W        W46617  42.267  44.719  12.520
74292W        W46618  28.222  36.842  12.825
74293W        W46619  33.950   8.658   4.592
74294W        W46620  37.327  19.893  11.609
74295W        W46621  35.451  27.253   3.356
74296W        W46622  23.800  40.391  13.319
74297W        W46623   8.818  13.293   1.752
74298W        W46624  33.078  44.275  12.931
74299W        W46625  19.984  11.913  11.247
74300W        W46626   4.475  11.196   5.051
74301W        W46627  43.856  27.983   4.561
74302W        W46628   8.584   4.196  14.371
74303W        W46629  32.964  33.380  11.324
74304W        W46630  38.126   4.394  14.331
74305W        W46631   5.318   7.922   2.363
74306W        W46632  19.703  32.388   4.427
74307W        W46633   1.338   3.985   4.728
74308W        W46634  27.280   1.017  14.339
74309W        W46635  26.900  24.823   1.478
74310W        W46636   0.069  27.171  11.144
74311W        W46637  30.974  13.155   0.768
74312W        W46638   4.037  10.220   5.011
74313W        W46639  28.056  29.247  12.600
74314W        W46640  18.118  44.875   0.369
74315W        W46641  22.085  17.782  14.494
74316W        W46642  43.577  11.910   3.149
74317W        W46643  37.380  25.914  12.028
74318W        W46644  26.986   9.194   3.109
74319W        W46645  41.894   4.248  12.369
74320W        W46646  12.131  17.563   3.757
74321W        W46647  35.866  37.606  12.880
74322W        W46648  19.157  18.014   1.196
74323W        W46649  32.573   9.478  12.646
74324W        W46650  31.509   5.321  11.695
74325W        W46651  37.045  22.035   2.402
74326W        W46652  15.723   3.494   1.047
74327W        W46653  38.640  14.659  11.430
74328W        W46654  14.978   4.807   1.301
74329W        W46655  15.840  33.111  10.461
74330W        W46656  13.146  11.090   2.719
74331W        W46657  16.739  41.260   3.722
74332W        W46658  11.405  20.292  11.153
74333W        W46659  13.843  28.943  14.052
74334W        W46660   4.905  22.060   0.250
74335W        W46661  30.283  18.299  14.689
74336W        W46662   4.837  10.005   1.594
74337W        W46663   7.592  43.859   4.371
74338W        W46664  29.661   3.968  12.033
74339W        W46665  26.547  25.964   5.440
74340W        W46666  28.204   1.782  13.348
74341W        W46667  10.577  28.715  12.170
74342W        W46668   3.985  10.151  12.092
74343W        W46669   8.646  16.114   2.289
74344W        W46670  34.899   7.377  10.299
74345W        W46671  37.768   9.070   1.588
74346W        W46672   3.447  35.839   0.212
74347W        W46673  30.056  14.329   4.675
74348W        W46674  20.168  42.506   3.180
74349W        W46675   3.457  14.159   1.348
74350W        W46676  32.120  13.698   2.382
74351W        W46677   2.503  42.347   1.840
74352W        W46678  15.339  33.060  14.884
74353W        W46679  22.609  14.897  14.101
74354W        W46680   4.297  28.204   1.406
74355W        W46681  27.434  21.105   2.200
74356W        W46682  15.481   0.896   4.990
74357W        W46683  11.636  44.302   2.739
74358W        W46684  19.200  40.073   2.276
74359W        W46685  27.266  15.486  12.860
74360W        W46686   9.945  20.520   1.862
74361W        W46687  32.829  18.220   2.751
74362W        W46688  30.626  23.158  13.461
74363W        W46689  15.862  16.074   3.148
74364W        W46690  24.820  15.771  12.852
74365W        W46691   7.101  39.597   2.405
74366W        W46692   2.216  31.463   4.213
74367W        W46693  36.909  26.688   1.741
74368W        W46694  28.955  25.383   1.025
74369W        W46695  15.708   3.728   4.491
74370W        W46696  15.260  18.266   4.318
74371W        W46697  36.067  42.339   3.726
74372W        W46698  27.965  31.423   2.897
74373W        W46699   2.449   9.910   2.658
74374W        W46700  31.710  36.578   3.273
74375W        W46701   1.299  23.419  14.518
74376W        W46702  41.544  12.065   1.280
74377W        W46703  35.746  39.768   4.856
74378W        W46704  12.009  27.634  11.988
74379W        W46705  32.508  14.464  14.900
74380W        W46706  12.776  21.511  11.464
74381W        W46707  44.497  23.759  13.935
74382W        W46708  31.972  21.063  11.489
74383W        W46709  41.129   5.318   3.605
74384W        W46710   5.853  31.486  11.562
74385W        W46711   6.696  10.247   0.348
74386W        W46712  31.309  30.510   3.250
74387W        W46713  26.178   6.032  12.860
74388W        W46714  36.649   4.803   3.246
74389W        W46715  12.266  34.035  11.477
74390W        W46716  10.427  29.883   3.343
74391W        W46717  23.926  25.585  13.926
74392W        W46718  14.712   6.998   0.283
74393W        W46719  43.300  41.761   0.829
74394W        W46720  25.994   7.256   0.439
74395W        W46721  39.308  15.168  12.993
74396W        W46722  21.897   9.115  12.021
74397W        W46723  26.434  22.315   0.801
74398W        W46724  23.169  21.536  12.047
74399W        W46725  17.328  17.584   0.852
74400W        W46726  30.905  40.214  14.878
74401W        W46727  42.141  24.601  14.930
74402W        W46728   5.679  24.202  10.753
74403W        W46729  22.736  35.122  13.873
74404W        W46730  42.749  17.225   2.365
74405W        W46731  20.881   2.245   2.270
74406W        W46732  27.514  35.865  12.613
74407W        W46733  33.805  36.905   0.872
74408W        W46734   1.433  11.275  12.970
74409W        W46735  31.668  26.201   1.368
74410W        W46736   6.820  14.258  10.655
74411W        W46737  43.448  28.117   0.274
74412W        W46738  14.290   8.686  12.258
74413W        W46739  43.832   2.441  12.630
74414W        W46740  14.338  38.613   2.324
74415W        W46741  24.770  39.632  11.083
74416W        W46742  31.202  22.192   4.704
74417W        W46743  31.892  16.117  11.149
74418W        W46744   7.687  27.868  10.330
74419W        W46745  42.291  32.490   3.633
74420W        W46746  22.587  17.077   1.171
74421W        W46747   6.887  23.499  13.402
74422W        W46748  17.664  27.611   0.403
74423W        W46749  35.623  35.925   3.326
74424W        W46750  38.443  17.124  12.194
74425W        W46751   3.782   5.804   2.470
74426W        W46752  12.910  28.017  14.827
74427W        W46753  19.541   6.962   1.741
74428W        W46754  40.482  24.732   1.728
74429W        W46755  23.413  34.354  12.427
74430W        W46756   7.588  43.291  11.947
74431W        W46757  44.225  19.305   2.831
74432W        W46758  33.859  22.262   0.890
74433W        W46759   8.662  33.815  14.884
74434W        W46760  24.924  10.276  11.553
74435W        W46761  12.356  14.361  12.140
74436W        W46762   0.873  29.187  12.695
74437W        W46763  40.611  40.768   1.763
74438W        W46764  40.868  27.071  14.384
74439W        W46765  17.612  37.894  11.622
74440W        W46766  25.726  14.139   0.903
74441W        W46767  12.831  12.715   1.520
74442W        W46768  16.303  11.659   2.385
74443W        W46769  21.253  38.444  12.882
74444W        W46770   8.814   2.832   0.926
74445W        W46771  21.725  10.762   4.591
74446W        W46772  29.978  12.848   4.240
74447W        W46773  28.429  20.761  13.812
74448W        W46774  23.449  31.207  14.438
74449W        W46775  13.598  17.855   4.683
74450W        W46776  14.548  35.206   1.942
74451W        W46777   7.721  11.547  13.344
74452W        W46778  26.260  20.340   3.678
74453W        W46779   7.135  34.928  11.683
74454W        W46780  37.444  42.719  14.109
74455W        W46781  23.713  19.826  13.874
74456W        W46782   9.136  24.288   0.749
74457W        W46783  10.712  42.723   4.133
74458W        W46784   6.760  16.577  10.979
74459W        W46785  39.020  31.662  11.068
74460W        W46786  16.797  10.210   0.730
74461W        W46787   6.311   3.184  14.269
74462W        W46788  28.483   1.954  11.578
74463W        W46789   9.822   6.236  11.647
74464W        W46790  28.445   6.327  11.472
74465W        W46791  18.281  21.050   2.751
74466W        W46792  40.884  28.509  13.457
74467W        W46793  20.727  32.544   3.648
74468W        W46794  22.741  14.192  10.697
74469W        W46795  29.983  13.668   0.863
74470W        W46796  23.656  14.841  12.029
74471W        W46797  11.723  10.817   0.761
74472W        W46798  27.936  18.552   2.788
74473W        W46799  35.578  29.056   4.128
74474W        W46800  23.015  43.768  11.666
74475W        W46801  10.803  18.157   4.854
74476W        W46802  26.646  34.891   0.448
74477W        W46803   2.781  25.868   3.726
74478W        W46804  20.928  27.827  11.124
74479W        W46805   8.609  43.899   2.651
74480W        W46806  44.402  44.807  11.933
74481W        W46807  36.005  40.060   2.890
74482W        W46808  18.211  19.813  11.207
74483W        W46809   6.289   6.856  14.331
74484W        W46810  22.123  12.124   3.042
74485W        W46811  35.393   6.799   0.652
74486W        W46812  13.069  17.252   5.063
74487W        W46813  44.434  28.138   3.827
74488W        W46814  13.558   6.908   4.285
74489W        W46815  12.313  12.209  11.892
74490W        W46816  16.747  44.392   4.193
74491W        W46817  17.033  21.715  10.888
74492W        W46818  19.785  32.012  13.354
74493W        W46819  28.521  29.053  12.400
74494W        W46820  16.779  18.561  14.737
74495W        W46821  44.427  32.630   4.689
74496W        W46822   4.389   3.856  13.471
74497W        W46823  40.375  29.759  13.617
74498W        W46824  37.817  23.937  11.102
74499W        W46825  29.021  37.465   0.793
74500W        W46826  18.693  23.240   4.478
74501W        W46827  30.367  28.504   4.069
74502W        W46828   9.840   6.667  12.578
74503W        W46829  12.812   7.868   4.163
74504W        W46830  41.977  24.657   2.242
74505W        W46831  22.606  37.390   4.493
74506W        W46832   9.209   5.283   2.791
74507W        W46833  18.554  12.235   1.316
74508W        W46834  42.243  38.887   4.912
74509W        W46835   3.710  15.196  13.839
74510W        W46836  24.380  14.390   3.197
74511W        W46837   4.397  13.422  13.974
74512W        W46838   3.514  37.350  12.991
74513W        W46839  28.161  27.172  10.806
74514W        W46840  34.693  19.185   0.798
74515W        W46841  19.229  14.163   3.685
74516W        W46842   3.933  42.778  11.041
74517W        W46843  22.049  23.590   3.250
74518W        W46844  16.290  41.407   3.432
74519W        W46845  36.048  30.381   4.414
74520W        W46846   4.258  20.657   4.171
74521W        W46847   9.248   6.647   3.383
74522W        W46848  26.488  24.973   2.215
74523W        W46849  11.132  19.995   1.401
74524W        W46850  41.940  18.808  14.953
74525W        W46851  16.744  37.125   1.143
74526W        W46852  39.931  27.143  11.442
74527W        W46853   6.731  36.659   0.824
74528W        W46854  44.815  33.627   4.213
74529W        W46855  43.458  32.960   1.157
74530W        W46856  27.013  39.026   4.632
74531W        W46857  26.032  28.361  14.973
74532W        W46858  22.259  21.514  12.871
74533W        W46859  36.725   0.477   2.556
74534W        W46860  16.238  14.304   2.432
74535W        W46861  12.553  34.986  14.528
74536W        W46862  26.460   6.381  10.372
74537W        W46863  24.158  18.095   2.341
74538W        W46864  15.835  17.677  11.850
74539W        W46865  41.210  35.957   0.887
74540W        W46866  42.983   0.060   0.320
74541W        W46867   1.138  20.266   2.671
74542W        W46868  23.661  12.916  10.667
74543W        W46869  41.960   3.458   4.307
74544W        W46870   2.689  36.369  11.127
74545W        W46871  33.405  31.482  12.200
74546W        W46872  10.668  18.823   3.722
74547W        W46873   8.501  19.788   4.477
74548W        W46874  40.785  34.496  10.882
74549W        W46875   7.669  42.846  11.694
74550W        W46876  22.486  10.967   2.313
74551W        W46877  11.280   8.920  11.006
74552W        W46878  21.809  34.406  11.555
74553W        W46879  17.265   4.735  13.791
74554W        W46880  41.489  17.722   0.921
74555W        W46881  30.165  26.180   3.808
74556W        W46882  17.647  10.236   3.315
74557W        W46883  27.254   8.451  14.732
74558W        W46884  21.580  13.668  12.360
74559W        W46885  28.107  31.385  12.473
74560W        W46886  42.915   9.923  13.596
74561W        W46887  37.432  17.987  11.947
74562W        W46888   9.781  34.588  11.067
74563W        W46889  35.959  14.785  12.065
74564W        W46890   9.404  17.708  11.899
74565W        W46891  24.205  41.913   0.134
74566W        W46892  40.951  38.046   4.430
74567W        W46893  40.353  40.035   1.411
74568W        W46894  19.041   6.795   4.311
74569W        W46895  43.392  20.287  10.699
74570W        W46896  38.890   0.408   0.509
74571W        W46897  43.564   6.242  14.617
74572W        W46898  32.068   3.139   3.642
74573W        W46899   6.722  42.583   4.416
74574W        W46900   0.265   0.986  11.121
74575W        W46901  38.257  43.966   4.058
74576W        W46902  33.682  24.654   4.504
74577W        W46903  27.238  32.654   1.395
74578W        W46904  31.091   8.449   1.712
74579W        W46905  37.498  11.774   3.107
74580W        W46906  40.341  24.027   2.948
74581W        W46907   0.668  44.979  11.697
74582W        W46908   3.347   1.253  12.028
74583W        W46909   4.886  41.006   3.212
74584W        W46910   5.227   5.772  14.381
74585W        W46911   6.283  28.924   0.955
74586W        W46912  23.902  13.481   0.835
74587W        W46913  24.770  37.837   3.337
74588W        W46914   6.966  29.024  10.690
74589W        W46915   2.322  40.629  12.181
74590W        W46916  44.087   6.043   0.861
74591W        W46917  37.541  32.368  11.993
74592W        W46918  17.765  39.599   2.640
74593W        W46919   9.184   1.807  13.413
74594W        W46920  13.632  41.408  12.118
74595W        W46921   7.126  13.142   4.500
74596W        W46922  28.611  27.668  14.263
74597W        W46923   7.802  41.935  11.125
74598W        W46924   3.938  44.602  10.714
74599W        W46925  34.989  41.903   4.159
74600W        W46926  23.535  25.970  12.967
74601W        W46927   9.694  29.472  13.037
74602W        W46928  16.339   0.398  12.477
74603W        W46929  40.744   8.266   3.833
74604W        W46930  12.323  39.292  11.220
74605W        W46931   5.366  22.092   4.371
74606W        W46932   1.956  10.636  11.006
74607W        W46933  41.840   9.475   3.276
74608W        W46934   5.141  27.698   2.052
74609W        W46935  25.983  31.666  11.591
74610W        W46936  34.000   9.156  13.811
74611W        W46937  15.108  13.667  13.303
74612W        W46938  17.813  14.136  13.858
74613W        W46939  25.512  40.453  11.976
74614W        W46940  44.739  41.896   1.910
74615W        W46941   2.515  18.365   4.271
74616W        W46942  44.029  26.567  12.316
74617W        W46943  32.327  11.576  12.034
74618W        W46944  44.679  37.383   0.487
74619W        W46945  38.382   5.795   1.008
74620W        W46946  14.775  10.828  11.472
74621W        W46947  10.145   9.369   3.223
74622W        W46948  25.006   5.798  13.412
74623W        W46949  26.244  39.117   4.147
74624W        W46950  19.850  20.098  13.853
74625W        W46951   1.302  43.342  14.765
74626W        W46952   9.877   6.800   0.044
74627W        W46953  30.015  42.434  14.534
74628W        W46954  11.362  38.498   2.300
74629W        W46955  15.099   7.356  13.361
74630W        W46956  39.238  37.288  13.400
74631W        W46957  39.815   2.739  14.234
74632W        W46958   5.635   3.948  14.844
74633W        W46959   7.883  16.801   2.408
74634W        W46960  24.400  17.805  11.472
74635W        W46961   0.875  23.451   2.903
74636W        W46962   7.043  15.216  11.574
74637W        W46963  24.969   7.380  11.634
74638W        W46964  13.733  24.957   2.258
74639W        W46965  15.061  12.601  12.379
74640W        W46966  44.003  29.938  13.886
74641W        W46967  18.292  28.433  11.595
74642W        W46968  20.533  10.244   2.382
74643W        W46969  30.722   0.768   3.673
74644W        W46970  33.709   9.420  12.062
74645W        W46971  31.406  17.757  11.298
74646W        W46972  25.811  25.917   0.893
74647W        W46973  28.494   9.180   0.289
74648W        W46974  43.247   3.926  14.477
74649W        W46975  10.212   9.937   2.879
74650W        W46976  13.566  33.308  11.067
74651W        W46977  11.593  18.718   1.021
74652W        W46978  23.161  24.961   1.745
74653W        W46979  26.062  15.839  12.341
74654W        W46980   3.287  23.443  10.220
74655W        W46981   5.501  41.726   2.783
74656W        W46982  11.257   6.808  14.434
74657W        W46983  42.335  39.053   1.517
74658W        W46984  11.123  26.256   4.676
74659W        W46985  13.946  21.980  13.265
74660W        W46986  29.488   0.996   1.674
74661W        W46987  30.405  34.578  13.083
74662W        W46988  43.564   1.391   0.332
74663W        W46989  30.479  21.774  14.687
74664W        W46990  43.365  14.671   3.562
74665W        W46991  13.137   8.857  12.857
74666W        W46992  17.023  26.156  12.119
74667W        W46993  12.819  10.676   2.602
74668W        W46994   3.884   7.814  14.505
74669W        W46995   0.355   1.914   0.957
74670W        W46996  16.685  30.912   4.950
74671W        W46997  30.081  37.824  12.154
74672W        W46998   1.362  13.725   2.595
74673W        W46999  11.937  27.147   2.625
74674W        W47000  16.034  25.044  12.367
74675W        W47001  19.790   3.876   2.332
74676W        W47002  12.022  37.464   3.131
74677W        W47003  14.593  32.637   3.663
74678W        W47004   7.761  39.055   3.272
74679W        W47005  15.585  10.894  14.051
74680W        W47006  10.692  40.812  13.582
74681W        W47007  39.052  33.758   3.248
74682W        W47008  31.034  12.259  10.477
74683W        W47009  35.000  27.649  12.556
74684W        W47010  20.361   5.765   2.311
74685W        W47011  20.835  26.031   0.810
74686W        W47012  37.246   2.416  13.545
74687W        W47013  34.003  13.782  14.314
74688W        W47014  31.998  13.623  11.560
74689W        W47015  18.586  24.549   3.570
74690W        W47016   0.983  14.048  14.950
74691W        W47017  35.965  27.416   4.848
74692W        W47018  24.119  43.609   4.312
74693W        W47019  10.909  33.198   2.448
74694W        W47020  17.575  41.429   2.731
74695W        W47021  26.221  39.422  13.723
74696W        W47022   1.845   0.324  13.822
74697W        W47023  44.272  32.355  10.976
74698W        W47024  31.513   5.840   2.677
74699W        W47025   0.526  22.719  11.017
74700W        W47026  37.737  15.571   0.315
74701W        W47027  16.743  29.762   0.552
74702W        W47028  13.665  38.162   4.346
74703W        W47029   7.584  23.928  11.196
74704W        W47030  14.634   7.284  13.552
74705W        W47031   0.299  18.196   4.946
74706W        W47032   9.870   3.683  14.362
74707W        W47033  23.207  43.502  12.073
74708W        W47034  12.829  43.365  13.287
74709W        W47035  38.383  23.416   3.672
74710W        W47036  37.953   9.144  11.836
74711W        W47037  22.114  18.832  14.387
74712W        W47038  32.937   8.396   2.218
74713W        W47039  12.853  44.301   2.343
74714W        W47040  25.740  42.548   0.158
74715W        W47041  33.441  38.790   4.646
74716W        W47042  15.668  32.974   4.031
74717W        W47043  35.477  39.134  14.916
74718W        W47044   4.255  44.698   0.185
74719W        W47045  16.187  32.207  10.640
74720W        W47046  11.139  41.735  13.470
74721W        W47047  34.564   3.762   4.020
74722W        W47048   4.274   0.904  14.351
74723W        W47049   4.411  30.564   4.522
74724W        W47050  33.817  31.042   4.210
74725W        W47051  16.809  42.893  14.808
74726W        W47052  35.191  16.612   3.178
74727W        W47053  16.906   1.768  11.113
74728W        W47054  39.355   6.988   1.703
74729W        W47055  29.494  30.461   4.080
74730W        W47056  29.940  37.510   1.940
74731W        W47057  35.827   2.763  12.552
74732W        W47058  33.600   0.441   4.554
74733W        W47059  34.967  33.360   0.992
74734W        W47060   1.478  10.278  11.837
74735W        W47061  40.995   0.691   2.279
74736W        W47062  31.407  18.325   2.876
74737W        W47063  13.584  32.061   3.168
74738W        W47064  21.225  30.597  13.907
74739W        W47065   0.362  32.533   1.410
74740W        W47066  13.832  41.030   3.235
74741W        W47067  20.450   6.419   1.869
74742W        W47068  35.389  41.464  12.635
74743W        W47069  32.624   4.875   2.773
74744W        W47070   7.346  22.399   2.138
74745W        W47071  20.721  33.965   3.300
74746W        W47072  10.612   3.436   0.310
74747W        W47073  40.875  27.114  11.069
74748W        W47074  21.695   2.710   1.028
74749W        W47075  19.268   7.177   4.564
74750W        W47076  24.467   7.258  14.479
74751W        W47077   2.395  14.705  10.925
74752W        W47078  17.343  32.857  13.471
74753W        W47079  25.517  32.409   2.054
74754W        W47080  41.960  36.405   3.907
74755W        W47081  35.885  21.647  10.648
74756W        W47082   6.940  27.335  12.659
74757W        W47083  28.078  41.802   4.552
74758W        W47084   5.848   2.616   0.970
74759W        W47085  11.093  34.153  11.480
74760W        W47086  29.064  40.840  12.434
74761W        W47087  12.299  37.524   2.688
74762W        W47088  17.118   8.264  13.824
74763W        W47089   3.696  15.992  10.659
74764W        W47090   1.782   6.242  11.543
74765W        W47091  16.881   8.395  12.320
74766W        W47092  20.060  20.142  10.720
74767W        W47093  38.898  12.612  12.726
74768W        W47094  26.518  30.873  13.843
74769W        W47095  33.484  34.330  14.585
74770W        W47096  41.262  33.879   1.718
74771W        W47097  38.651  32.178   4.102
74772W        W47098   3.477  27.888  12.917
74773W        W47099  21.437  20.974  11.329
74774W        W47100   3.647  19.664   3.771
74775W        W47101  39.037  44.510  12.997
74776W        W47102  20.680  37.559   2.697
74777W        W47103  29.022  36.839   4.196
74778W        W47104  28.550  21.604  13.622
74779W        W47105  14.281   5.404  14.582
74780W        W47106  18.831  33.427   1.205
74781W        W47107  16.184  29.573   3.763
74782W        W47108  35.491  38.248   4.015
74783W        W47109  40.953  26.571   4.754
74784W        W47110  37.014   9.799   5.001
74785W        W47111  31.193  24.366   2.956
74786W        W47112  37.027  18.100  13.796
74787W        W47113   6.666  14.366   4.737
74788W        W47114  21.096  30.642   0.038
74789W        W47115  27.382   0.503  14.272
74790W        W47116  35.281   4.957  14.729
74791W        W47117  12.293  30.933  13.895
74792W        W47118   2.378  10.216   2.236
74793W        W47119  11.210  43.378  10.577
74794W        W47120   0.265  28.829   0.294
74795W        W47121  39.795  33.219   4.597
74796W        W47122   8.731   3.410  13.989
74797W        W47123   5.521  34.629  14.349
74798W        W47124  35.304  29.187   1.387
74799W        W47125  36.064  14.595   0.063
74800W        W47126  22.035  22.762  11.437
74801W        W47127  18.661  30.556   2.398
74802W        W47128  13.470  43.729  11.610
74803W        W47129   6.742  19.661  14.769
74804W        W47130  31.178   0.587   3.947
74805W        W47131  12.168  16.315   3.528
74806W        W47132   6.810  24.228  13.827
74807W        W47133  32.492   9.263  13.857
74808W        W47134  23.956   0.727  13.976
74809W        W47135  35.273  35.353  12.017
74810W        W47136  41.922   9.798  14.396
74811W        W47137  33.848  24.658  14.064
74812W        W47138  27.785  25.061   0.339
74813W        W47139  24.667  15.319  11.139
74814W        W47140  10.295  18.096  12.498
74815W        W47141   7.764  24.644  14.478
74816W        W47142  25.756  36.862  11.688
74817W        W47143   7.849  12.832  10.278
74818W        W47144  25.981  24.082   1.239
74819W        W47145  13.852   4.672   2.229
74820W        W47146  34.588  43.101  12.501
74821W        W47147  13.769  31.830   9.838
74822W        W47148  16.899   7.026  14.532
74823W        W47149  16.668  42.843   4.494
74824W        W47150  42.385  18.857   1.382
74825W        W47151  41.332   3.849   1.661
74826W        W47152  31.481   3.569   0.931
74827W        W47153  23.116   0.330  10.452
74828W        W47154   8.263  43.902   2.005
74829W        W47155  21.843  39.844  10.164
74830W        W47156  27.628  34.922   0.050
74831W        W47157   6.319  22.167  12.482
74832W        W47158  31.048   1.684  14.443
74833W        W47159  29.483   6.937  10.915
74834W        W47160   3.438  40.211   0.643
74835W        W47161  15.825  25.508   1.285
74836W        W47162  10.923  34.410   0.256
74837W        W47163  24.133  13.102  10.594
74838W        W47164  35.446  25.117   3.339
74839W        W47165  44.368   5.773   4.165
74840W        W47166  13.596  29.639   3.710
74841W        W47167   8.274   3.310  11.411
74842W        W47168  26.728  16.162  14.035
74843W        W47169  34.618  31.361   1.938
74844W        W47170   2.308  20.975  10.855
74845W        W47171  22.149  19.258   2.349
74846W        W47172  16.269  38.932  11.388
74847W        W47173  10.677  37.464   2.761
74848W        W47174  12.858  17.060  14.590
74849W        W47175  29.967  44.181  14.979
74850W        W47176  16.694  27.213  14.593
74851W        W47177   2.939   8.598  12.410
74852W        W47178  22.201  36.607   4.488
74853W        W47179  29.764   0.581  13.992
74854W        W47180  26.877  40.265   0.764
74855W        W47181  44.740  26.408   4.241
74856W        W47182  39.124   6.936   1.236
74857W        W47183  17.799  12.881   1.898
74858W        W47184  35.619   4.228  13.422
74859W        W47185  11.172  13.306   3.832
74860W        W47186  39.917  30.701   4.965
74861W        W47187  19.192  42.510  10.959
74862W        W47188  31.146  28.154  11.214
74863W        W47189   9.670   8.155  12.988
74864W        W47190  24.313  41.214  13.793
74865W        W47191  21.548   5.824  11.982
74866W        W47192  39.402  27.121  14.182
74867W        W47193   9.780  21.472   3.376
74868W        W47194  35.664  20.575   1.825
74869W        W47195  14.201  18.202  10.609
74870W        W47196  26.512   9.022   3.345
74871W        W47197   5.211   4.766  14.364
74872W        W47198   1.727  43.767  10.680
74873W        W47199  36.880  44.977  11.661
74874W        W47200   0.001   9.285  13.386
74875W        W47201  15.247  14.030  12.976
74876W        W47202  17.946  38.643   3.647
74877W        W47203  26.107   9.374   2.425
74878W        W47204  13.601  23.938  13.773
74879W        W47205  19.686  20.229   1.688
74880W        W47206  14.396  29.108   1.740
74881W        W47207  42.804  29.027   3.260
74882W        W47208  26.120   8.325   1.781
74883W        W47209  12.868  23.266  11.466
74884W        W47210   0.277  39.921   0.590
74885W        W47211  36.311  14.805   0.943
74886W        W47212   7.480  20.695   5.122
74887W        W47213   6.500  17.639  12.943
74888W        W47214  32.599  25.610   1.752
74889W        W47215  18.195  37.369   2.321
74890W        W47216  41.449   4.229  14.502
74891W        W47217  29.132  26.650  12.834
74892W        W47218  23.545   8.452  12.189
74893W        W47219  22.924  21.132  14.480
74894W        W47220  25.704  37.063   3.546
74895W        W47221  31.374  19.530  14.760
74896W        W47222  24.664  32.433  12.021
74897W        W47223  21.751  44.903   1.960
74898W        W47224  25.897  18.710   4.398
74899W        W47225  25.173  13.919  12.074
74900W        W47226   3.852  15.091   3.830
74901W        W47227  12.242  34.902   1.379
74902W        W47228  31.642  10.497   3.212
74903W        W47229  20.123  43.023   3.361
74904W        W47230  21.573  31.367  13.363
74905W        W47231   4.370  29.366   0.853
74906W        W47232  11.367  19.528   0.116
74907W        W47233   7.967  25.093  14.017
74908W        W47234   4.155  43.766  13.028
74909W        W47235  44.942  21.231  12.353
74910W        W47236  13.249  34.210   3.310
74911W        W47237  30.148  35.255   2.071
74912W        W47238  42.532  41.080  10.717
74913W        W47239   1.566   5.823  13.147
74914W        W47240  14.168  30.193  12.314
74915W        W47241  36.035   1.481  12.125
74916W        W47242  28.383  29.276   1.053
74917W        W47243  13.660  32.802   1.646
74918W        W47244   2.849  37.950  11.088
74919W        W47245   7.131  22.730  11.723
74920W        W47246  11.742  13.305  14.156
74921W        W47247  44.787   5.432   4.225
74922W        W47248  38.234   0.065  12.889
74923W        W47249  19.108  35.079  14.885
74924W        W47250   5.913  10.582  10.604
74925W        W47251  41.373  29.563   3.268
74926W        W47252  34.608  11.943   2.914
74927W        W47253  10.348   5.928  12.889
74928W        W47254  37.110  43.804   1.879
74929W        W47255  36.410  42.624  10.204
74930W        W47256  17.638   3.861   3.154
74931W        W47257   4.142  37.046   2.733
74932W        W47258  27.930  21.344   1.259
74933W        W47259  40.025  44.636   2.361
74934W        W47260  23.001  30.518  12.621
74935W        W47261   7.718  43.485  10.410
74936W        W47262  12.863  31.956  11.657
74937W        W47263  22.284  24.647   3.340
74938W        W47264   0.056  10.400  13.845
74939W        W47265  33.602   5.051  14.926
74940W        W47266  32.547  18.811   0.903
74941W        W47267  27.509   9.792   1.655
74942W        W47268  13.353  14.589  13.875
74943W        W47269   8.753  26.585   2.885
74944W        W47270  37.345   7.948  14.967
74945W        W47271  21.056  37.195   4.467
74946W        W47272  24.653   8.270   3.316
74947W        W47273   5.789  21.589   1.481
74948W        W47274  27.894   0.479  14.348
74949W        W47275  20.058  16.171  10.525
74950W        W47276  23.553   7.207   2.487
74951W        W47277  33.632  44.981   2.099
74952W        W47278  26.239  43.724  13.143
74953W        W47279  34.878  32.662   3.261
74954W        W47280   3.522  23.806   3.250
74955W        W47281  36.860  18.531  12.153
74956W        W47282  24.622  38.419  10.026
74957W        W47283  27.562  35.909   0.448
74958W        W47284  27.052  10.368  14.741
74959W        W47285   8.130   4.336  13.861
74960W        W47286  16.704  37.168   4.358
74961W        W47287   9.900  23.104   4.552
74962W        W47288  15.875  25.223  10.736
74963W        W47289  19.124  35.133   1.703
74964W        W47290  10.340  41.285   4.539
74965W        W47291   4.823  32.780   1.846
74966W        W47292   8.974  34.387  14.812
74967W        W47293  40.931  30.057   1.278
74968W        W47294   0.962   7.704   1.013
74969W        W47295  24.927  25.407  12.957
74970W        W47296  44.272  21.986  14.482
74971W        W47297  41.275   7.156  12.574
74972W        W47298  35.395  14.888   1.790
74973W        W47299  31.093  31.942   2.249
74974W        W47300  35.828  35.272  13.732
74975W        W47301   2.839  22.713   2.241
74976W        W47302  40.128  35.388   4.231
74977W        W47303  41.862  32.775  13.531
74978W        W47304  21.175  17.756   1.263
74979W        W47305  12.858  35.888   0.746
74980W        W47306   6.942  41.621   4.197
74981W        W47307  41.634  10.363   0.004
74982W        W47308   8.475  37.656   2.433
74983W        W47309  30.663  41.534  12.499
74984W        W47310  25.155  30.031   3.526
74985W        W47311   0.023  22.204   4.642
74986W        W47312  38.068  15.986   3.996
74987W        W47313  26.076  30.462   0.845
74988W        W47314  38.073  43.249  11.624
74989W        W47315  44.486  24.965   2.709
74990W        W47316  18.005  44.941  14.400
74991W        W47317  40.326   6.682   0.968
74992W        W47318  27.635  40.766   1.311
74993W        W47319  37.841  19.089  13.835
74994W        W47320  42.362  42.022   2.748
74995W        W47321  15.789  20.820   2.268
74996W        W47322  27.967   2.531   4.862
74997W        W47323   0.529  36.050  13.965
74998W        W47324  28.441  42.006   4.137
74999W        W47325   7.624  25.327   4.081
75000W        W47326  33.241  43.873   4.133
75001W        W47327   1.250  37.580   3.942
75002W        W47328  10.826   3.975  12.522
75003W        W47329  19.106   9.792   3.184
75004W        W47330  26.889  39.572   1.367
75005W        W47331  22.693  30.145  13.764
75006W        W47332  26.519  23.514   2.302
75007W        W47333  28.613  20.021  10.561
75008W        W47334  24.784   5.083  10.636
75009W        W47335   6.978  18.175   1.240
75010W        W47336   0.953   5.724   1.019
75011W        W47337   4.241  26.573  13.933
75012W        W47338   5.250  39.703  14.422
75013W        W47339  40.958   8.185  14.986
75014W        W47340   9.304   1.673   3.628
75015W        W47341  19.058   6.171  12.908
75016W        W47342  14.292  34.023  11.818
75017W        W47343  23.320   8.232   4.403
75018W        W47344  37.134   7.735   3.826
75019W        W47345   8.631  43.004   4.109
75020W        W47346   3.529  31.928  14.792
75021W        W47347   0.966  43.044   4.804
75022W        W47348   0.488  35.772  13.523
75023W        W47349   3.855  12.841   1.179
75024W        W47350  22.173   1.901   2.765
75025W        W47351  21.004  33.240   2.862
75026W        W47352  19.363  32.329   1.471
75027W        W47353  23.034   3.370   0.812
75028W        W47354  28.149  28.049   0.744
75029W        W47355  34.826  43.486   3.289
75030W        W47356  11.480  16.151  14.455
75031W        W47357   2.244  41.904  10.611
75032W        W47358   0.918  29.582   2.617
75033W        W47359  25.716  32.993  12.173
75034W        W47360  15.918  26.004   0.056
75035W        W47361  42.051  42.535   0.943
75036W        W47362   7.139   9.223   2.270
75037W        W47363  35.548  26.633   1.363
75038W        W47364  22.933  38.994  12.462
75039W        W47365  14.581  41.801  10.630
75040W        W47366   7.680  23.119   3.312
75041W        W47367   8.831  29.694   1.793
75042W        W47368   2.286  31.190   0.189
75043W        W47369   1.085  41.594   4.555
75044W        W47370  30.664  26.111   3.911
75045W        W47371   1.762  18.341  13.363
75046W        W47372  44.418  44.419  13.137
75047W        W47373  31.924   1.720  11.050
75048W        W47374  30.500  32.901   4.011
75049W        W47375  12.817   2.347   2.447
75050W        W47376  15.171  28.680   2.202
75051W        W47377   8.151  10.715   1.929
75052W        W47378  36.394  35.039  12.729
75053W        W47379  18.351  23.455   2.265
75054W        W47380   4.891  24.033   4.605
75055W        W47381  37.272  24.152  13.900
75056W        W47382   1.227  40.942   1.890
75057W        W47383  43.354   2.836  11.306
75058W        W47384  37.394  17.010   1.575
75059W        W47385  31.018  23.018   2.725
75060W        W47386  42.204  22.039   0.389
75061W        W47387  33.239   4.217   2.176
75062W        W47388  37.963  34.981  11.621
75063W        W47389   4.897   1.221   2.176
75064W        W47390   2.838  31.141   3.227
75065W        W47391  35.319  25.587   2.741
75066W        W47392  27.327   3.827   4.650
75067W        W47393  33.183  33.982   4.512
75068W        W47394  14.899   6.860  13.313
75069W        W47395   1.469  22.997  14.781
75070W        W47396  16.721  23.394  10.355
75071W        W47397  39.946  15.542  11.595
75072W        W47398   2.845  22.036   1.057
75073W        W47399  34.773  25.385  14.470
75074W        W47400  44.704  18.537   3.676
75075W        W47401  34.509  10.899   2.181
75076W        W47402   0.150  29.663  14.471
75077W        W47403  17.526  25.028   4.627
75078W        W47404  41.989  21.236   0.913
75079W        W47405   8.304  43.488  14.009
75080W        W47406   5.206  39.493   2.151
75081W        W47407   3.199  11.016   4.037
75082W        W47408  20.729  14.137   4.703
75083W        W47409   8.320   7.703  10.928
75084W        W47410   2.866  44.803   3.277
75085W        W47411  16.254  35.527  11.477
75086W        W47412   0.290  26.093   2.167
75087W        W47413  18.212   1.877   4.832
75088W        W47414   5.452  18.245   4.293
75089W        W47415  35.257  21.739  11.618
75090W        W47416   3.944  11.634  12.990
75091W        W47417  13.286  27.907  11.935
75092W        W47418  37.765  38.975   3.852
75093W        W47419  15.750   3.964   3.024
75094W        W47420  22.722  17.181  13.875
75095W        W47421  38.467  12.297  14.746
75096W        W47422  24.745  23.546   1.617
75097W        W47423  16.537  13.331   0.771
75098W        W47424   8.867  40.870   2.207
75099W        W47425  41.817  39.041  14.002
75100W        W47426  32.962  18.532  11.962
75101W        W47427   6.656  44.049  13.588
75102W        W47428  26.057   5.945   2.339
75103W        W47429   5.929   5.201  13.789
75104W        W47430   4.928   7.679  10.619
75105W        W47431   5.382  27.562   0.477
75106W        W47432  42.459  17.366  14.511
75107W        W47433  26.694  43.058   2.785
75108W        W47434  31.624  43.095  13.790
75109W        W47435   5.283  17.342   0.797
75110W        W47436  30.209  32.880  13.692
75111W        W47437  39.520  34.033  10.708
75112W        W47438  13.002  15.814  11.556
75113W        W47439  19.058  31.644   3.281
75114W        W47440  14.748  40.558  12.333
75115W        W47441   7.653  29.112   2.392
75116W        W47442  18.544   2.606   1.801
75117W        W47443  30.625  36.524   3.233
75118W        W47444  35.706  28.817   2.386
75119W        W47445  26.461   8.761  11.555
75120W        W47446  24.599   8.779   3.427
75121W        W47447  27.047  30.900   1.369
75122W        W47448  33.966  18.819   0.248
75123W        W47449  34.927  34.920  10.606
75124W        W47450   8.463   9.398  14.936
75125W        W47451  27.886  32.127   3.207
75126W        W47452  24.632  29.125   1.137
75127W        W47453  41.859  29.616  12.943
75128W        W47454  13.209  29.490  12.932
75129W        W47455  13.637  44.945  14.446
75130W        W47456  15.322  37.579  11.117
75131W        W47457  14.504  17.881   2.787
75132W        W47458   3.821   5.635  13.884
75133W        W47459  12.238  36.565  13.134
75134W        W47460  21.688  37.876   4.583
75135W        W47461  34.424  27.018  12.872
75136W        W47462  19.120  27.707   3.526
75137W        W47463   4.351   4.925  11.002
75138W        W47464   4.898   5.549  10.978
75139W        W47465  19.003  13.991   3.227
75140W        W47466  26.566  27.123   0.711
75141W        W47467  10.032  22.057   5.231
75142W        W47468  15.870  23.112   0.746
75143W        W47469   6.272  42.234  11.073
75144W        W47470  34.431  18.451  11.601
75145W        W47471  44.477   9.170  13.481
75146W        W47472  39.096  42.087  13.620
75147W        W47473  13.837  15.269  11.558
75148W        W47474  17.750  34.192   0.948
75149W        W47475  16.128   1.952   4.105
75150W        W47476  12.652  27.261  11.518
75151W        W47477   8.635  30.180   1.802
75152W        W47478   4.611   9.237  13.367
75153W        W47479  24.646  24.076   4.494
75154W        W47480  39.954  20.142   1.968
75155W        W47481  31.901  28.088  11.605
75156W        W47482   5.734  29.985  10.564
75157W        W47483  34.884  32.435  12.612
75158W        W47484  36.912   2.228   2.940
75159W        W47485  11.305   0.009  10.683
75160W        W47486  44.495  20.697   3.306
75161W        W47487  34.370  16.989   3.299
75162W        W47488  28.080  33.608  12.162
75163W        W47489   4.671  23.112  11.791
75164W        W47490   1.250  40.961   2.996
75165W        W47491  42.786  17.689   4.251
75166W        W47492  16.658  14.164  10.580
75167W        W47493   9.833  36.766   4.112
75168W        W47494  24.743  23.084  12.207
75169W        W47495  13.258  16.162  14.830
75170W        W47496  10.151  26.398   3.064
75171W        W47497   3.474  17.872  13.876
75172W        W47498  15.103  14.198  13.453
75173W        W47499  38.383  20.067  14.777
75174W        W47500  37.815   9.760   4.181
75175W        W47501  26.455   7.159  12.414
75176W        W47502   4.948  19.221  11.575
75177W        W47503  20.686   2.445  11.418
75178W        W47504  24.216  25.520  10.724
75179W        W47505   9.880   8.674   4.183
75180W        W47506  35.898   2.454  14.930
75181W        W47507  34.990  27.490  14.924
75182W        W47508  13.050  33.869  10.275
75183W        W47509  12.280  34.368   1.357
75184W        W47510   6.541   9.361   0.949
75185W        W47511  21.257  44.855   1.673
75186W        W47512  30.247  39.582  13.567
75187W        W47513  33.804  33.457   1.472
75188W        W47514  16.938  22.102   1.773
75189W        W47515  23.138  24.589   4.456
75190W        W47516  39.529  30.009  10.669
75191W        W47517  31.082   8.043  13.949
75192W        W47518  16.587  26.967  13.933
75193W        W47519  43.432   3.623  13.982
75194W        W47520  43.375  37.643   1.564
75195W        W47521  43.550  19.465   0.517
75196W        W47522   2.427  35.177  12.106
75197W        W47523  24.722  33.333  13.542
75198W        W47524  20.464  20.152   4.584
75199W        W47525   0.723  25.640  11.837
75200W        W47526   8.898  25.607   0.879
75201W        W47527  38.046  17.516  12.885
75202W        W47528  43.241  22.044   1.365
75203W        W47529  33.311  10.383   4.652
75204W        W47530  40.055  13.270   3.692
75205W        W47531   5.989  42.578   0.952
75206W        W47532  19.758  21.100   2.695
75207W        W47533  12.145  25.581  12.732
75208W        W47534  34.108  30.505  14.963
75209W        W47535  16.275   2.646  12.063
75210W        W47536  21.642  10.295  11.556
75211W        W47537  39.455  24.226   1.578
75212W        W47538  18.539  32.593   3.777
75213W        W47539  20.561  31.704   4.089
75214W        W47540   1.549  26.164   0.972
75215W        W47541   1.001  41.140  13.615
75216W        W47542  26.580  37.668   4.790
75217W        W47543  21.356  40.093   1.293
75218W        W47544  24.741  20.197   2.224
75219W        W47545  24.797  11.131   0.441
75220W        W47546  22.288  17.554  14.921
75221W        W47547  19.313  38.035   1.893
75222W        W47548  12.628  26.558  14.420
75223W        W47549   8.809  39.480  10.694
75224W        W47550  16.471  16.237  13.437
75225W        W47551  33.306  44.248   5.123
75226W        W47552   1.201  30.325  10.460
75227W        W47553  44.879  20.665  11.115
75228W        W47554   4.936  29.551   2.235
75229W        W47555   6.193  21.558  13.781
75230W        W47556  24.914   6.322  11.081
75231W        W47557  11.348  17.767   3.338
75232W        W47558  17.044  30.396  12.589
75233W        W47559   1.294  25.226   3.745
75234W        W47560   1.858   7.787   4.472
75235W        W47561  44.444  29.035  14.369
75236W        W47562   9.332  35.879  11.599
75237W        W47563  26.428  37.968  14.294
75238W        W47564  33.054  44.859   4.560
75239W        W47565  35.780  12.133  14.377
75240W        W47566  12.831  32.986   4.604
75241W        W47567  23.041  37.745  12.946
75242W        W47568  39.388  24.742   3.612
75243W        W47569  40.812   3.963   0.393
75244W        W47570  29.680  20.145  14.089
75245W        W47571   0.169  27.045  13.302
75246W        W47572  16.544  25.778   2.244
75247W        W47573  36.475  44.858   1.402
75248W        W47574  38.881  25.780   2.130
75249W        W47575  31.946  16.122   4.286
75250W        W47576   7.616  34.831  11.535
75251W        W47577  21.803  14.847   4.324
75252W        W47578  32.719  38.485  12.535
75253W        W47579   0.687  23.491   1.252
75254W        W47580  26.692  17.382   3.678
75255W        W47581  25.114   8.835  11.952
75256W        W47582  10.387  17.485   1.267
75257W        W47583  44.856  32.440   2.855
75258W        W47584   6.937  42.523  14.402
75259W        W47585  17.630  20.550   1.434
75260W        W47586  28.893   8.644  11.483
75261W        W47587  22.717  37.837   2.641
75262W        W47588  15.118  29.968  12.957
75263W        W47589  36.327  32.862  10.793
75264W        W47590  30.831  15.278  11.782
75265W        W47591   7.118  33.051   1.735
75266W        W47592   9.128   6.728  12.906
75267W        W47593  29.202  41.927  14.487
75268W        W47594   6.065  33.497  11.151
75269W        W47595  38.835  10.468   2.726
75270W        W47596  14.851  18.560   3.204
75271W        W47597  16.669   0.699   4.465
75272W        W47598   9.250  12.156  12.196
75273W        W47599   7.940  43.462   5.039
75274W        W47600  32.300  18.808   2.664
75275W        W47601  44.236  19.252  11.040
75276W        W47602  25.498  34.929  12.969
75277W        W47603   8.090   1.365   4.125
75278W        W47604  36.810  42.541  11.622
75279W        W47605  16.991  39.729  10.022
75280W        W47606  32.002  31.100   0.927
75281W        W47607  39.493  30.713  14.183
75282W        W47608  23.047   2.021   3.729
75283W        W47609   4.687   7.435  11.082
75284W        W47610  11.523   5.139  12.909
75285W        W47611  13.120  23.031   5.006
75286W        W47612  39.029  33.039  13.148
75287W        W47613   6.846   1.900   0.413
75288W        W47614  23.463  36.467  12.817
75289W        W47615  12.172  10.020  13.022
75290W        W47616  34.740  31.340  11.617
75291W        W47617   4.365  25.513   1.892
75292W        W47618  40.988  29.577  11.658
75293W        W47619  17.059  10.812  10.372
75294W        W47620   2.939   2.006  12.229
75295W        W47621  19.819  17.986  13.834
75296W        W47622   9.174   2.723   2.825
75297W        W47623  12.837  26.660  12.545
75298W        W47624   3.860  19.599   1.374
75299W        W47625  12.372  42.627   0.733
75300W        W47626  38.055  20.733   4.148
75301W        W47627   9.282  32.057  11.365
75302W        W47628  17.317  18.365   4.059
75303W        W47629  11.853   6.821   3.438
75304W        W47630  39.297   4.303   2.766
75305W        W47631   1.724  18.713   4.612
75306W        W47632  25.602  13.415  14.874
75307W        W47633   1.454  34.446  11.548
75308W        W47634  13.671  36.916   1.218
75309W        W47635  17.074   6.241  11.265
75310W        W47636  15.061  41.087   2.381
75311W        W47637   5.973  12.630   2.818
75312W        W47638  27.555  22.585  12.095
75313W        W47639  24.569  27.685   1.889
75314W        W47640  31.516   4.727  10.204
75315W        W47641  35.650  21.727   3.776
75316W        W47642   8.599  10.658  12.398
75317W        W47643  44.081   8.135   3.951
75318W        W47644  10.221  19.013   5.039
75319W        W47645  43.807  43.438  13.834
75320W        W47646  40.941  10.579  10.793
75321W        W47647  27.549  27.884   2.372
75322W        W47648  25.023  42.607  13.771
75323W        W47649  13.103  12.114   1.867
75324W        W47650  12.263  18.589  13.136
75325W        W47651  18.239  43.944   0.228
75326W        W47652  26.467   6.894   4.214
75327W        W47653  13.107   0.320   2.431
75328W        W47654  41.861  31.235   4.382
75329W        W47655  42.859  41.542   0.097
75330W        W47656  33.079  12.073   0.422
75331W        W47657  26.161  38.871  12.081
75332W        W47658  36.940  43.912   3.414
75333W        W47659   2.197  13.841  11.866
75334W        W47660   3.813  37.490   1.195
75335W        W47661   7.624  34.050   0.915
75336W        W47662  21.060   4.858   0.424
75337W        W47663  13.168  34.073   4.363
75338W        W47664  33.418  44.793   3.340
75339W        W47665  27.899  12.774  14.376
75340W        W47666  44.414  41.069  13.487
75341W        W47667  27.251  27.704  14.520
75342W        W47668  24.220  43.868   3.168
75343W        W47669  22.585  10.848  14.702
75344W        W47670  17.808  31.662   2.631
75345W        W47671   0.776  17.457  10.332
75346W        W47672   2.354  25.817   0.017
75347W        W47673  17.366  14.293   0.270
75348W        W47674  15.370  18.839  12.142
75349W        W47675  11.896  21.133   5.110
75350W        W47676  36.333  34.561  14.944
75351W        W47677  34.552  37.580  11.434
75352W        W47678   8.484  13.238  12.443
75353W        W47679  12.421  17.419   1.281
75354W        W47680  10.244  27.186   1.905
75355W        W47681  22.111  30.383  10.904
75356W        W47682  32.917  31.921   4.088
75357W        W47683  40.966   0.970  12.446
75358W        W47684  19.122  24.640   0.614
75359W        W47685  25.731  38.560  12.017
75360W        W47686  34.581  41.962  12.593
75361W        W47687  27.182  29.002   4.137
75362W        W47688   6.221  10.182  10.736
75363W        W47689  15.725  25.103   0.964
75364W        W47690  43.410  39.981  14.976
75365W        W47691  41.009  15.843   1.282
75366W        W47692  11.463  41.687   5.094
75367W        W47693  43.918  41.998  10.923
75368W        W47694  16.098  17.328  14.113
75369W        W47695  21.156  24.760  13.412
75370W        W47696  28.402   3.735  13.530
75371W        W47697  36.264  35.919   5.051
75372W        W47698  23.878  22.707   1.741
75373W        W47699  37.124  35.036  11.153
75374W        W47700  37.025  39.079   1.783
75375W        W47701  39.399  33.652  14.658
75376W        W47702  40.486   5.378   1.351
75377W        W47703  20.235  33.330   1.412
75378W        W47704  27.477  33.882   0.527
75379W        W47705  28.579  15.275   0.934
75380W        W47706  38.074  43.892  12.304
75381W        W47707   1.723  35.071  14.343
75382W        W47708  42.301   4.117   1.897
75383W        W47709  13.391   5.874  12.504
75384W        W47710  39.149  22.754  13.160
75385W        W47711  23.049  16.055   0.796
75386W        W47712  27.161  13.079  14.387
75387W        W47713   3.016  18.735   1.197
75388W        W47714  19.616  33.011   3.162
75389W        W47715  20.361  18.429   2.898
75390W        W47716  22.949   2.193  14.595
75391W        W47717  21.407  19.313  12.514
75392W        W47718  21.623  11.883   3.579
75393W        W47719   2.854  30.138   4.160
75394W        W47720   9.696  44.436  10.803
75395W        W47721  10.460  44.061   0.921
75396W        W47722  41.797   4.319   1.966
75397W        W47723  15.266  33.013   4.341
75398W        W47724  18.984  30.115   4.227
75399W        W47725  27.395  32.432   2.726
75400W        W47726  12.733  42.995  12.934
75401W        W47727  14.651  26.940  12.474
75402W        W47728  19.581  36.595  10.571
75403W        W47729  14.892  12.305   2.206
75404W        W47730  20.023  19.236  10.765
75405W        W47731  29.677  30.602  10.515
75406W        W47732  20.040  19.152   2.224
75407W        W47733  33.060  36.991   3.724
75408W        W47734   8.387  15.866   1.789
75409W        W47735  11.771  23.043  10.736
75410W        W47736  44.548  17.007  10.084
75411W        W47737   8.780  14.836  13.739
75412W        W47738  36.864  14.286  13.970
75413W        W47739  19.957  43.785   1.112
75414W        W47740  21.244   9.548   4.007
75415W        W47741  23.686  42.481   4.769
75416W        W47742  15.213  42.007   4.759
75417W        W47743  19.047  41.334   2.947
75418W        W47744  28.659  12.671  11.985
75419W        W47745  44.215  21.615  10.081
75420W        W47746  32.824  13.542   1.475
75421W        W47747   8.590  16.601  10.907
75422W        W47748  27.504  11.145  12.153
75423W        W47749  24.519   6.736  13.280
75424W        W47750   7.594  15.856   4.321
75425W        W47751  27.003  20.995   4.689
75426W        W47752  25.014   5.312   0.152
75427W        W47753  25.515  16.612   3.640
75428W        W47754  32.489   6.232   5.032
75429W        W47755  14.226  37.359   2.933
75430W        W47756  10.967  23.754  11.066
75431W        W47757  20.852   0.382  14.347
75432W        W47758  32.909  24.411  11.107
75433W        W47759  11.354  13.706   2.303
75434W        W47760  17.189   0.503  10.945
75435W        W47761  30.540  27.344   4.099
75436W        W47762  19.760  26.068   4.643
75437W        W47763  43.816  10.153  13.990
75438W        W47764  27.915  14.694  12.940
75439W        W47765   1.779  27.992  14.382
75440W        W47766  29.878   7.812   0.361
75441W        W47767  14.100  23.239  11.176
75442W        W47768  43.071  35.062   0.216
75443W        W47769  25.537  25.598  14.933
75444W        W47770   5.988  44.406  10.620
75445W        W47771  21.724   8.633  12.011
75446W        W47772  15.276  17.318   4.046
75447W        W47773  16.345   0.559  10.735
75448W        W47774  43.338  35.433   4.438
75449W        W47775  26.037   7.843  13.838
75450W        W47776  21.734  22.597   3.102
75451W        W47777  23.336  11.753  14.958
75452W        W47778  42.641   7.675  12.523
75453W        W47779  36.573   7.296   0.731
75454W        W47780  30.898   9.438  12.408
75455W        W47781  11.781  27.914   0.789
75456W        W47782  10.398  34.394  10.573
75457W        W47783  36.318  28.851   0.325
75458W        W47784  38.034   1.057  10.676
75459W        W47785   5.980  41.842   2.662
75460W        W47786  25.014  26.525   1.664
75461W        W47787   1.226  34.386  14.851
75462W        W47788  16.305   9.239  11.026
75463W        W47789  37.360  16.673   3.948
75464W        W47790   3.843  35.859  11.204
75465W        W47791  31.204   2.878  12.413
75466W        W47792   8.235  20.923  11.635
75467W        W47793  43.030  15.787   2.414
75468W        W47794  13.504  37.559  13.969
75469W        W47795   6.308   3.790   0.352
75470W        W47796  31.192  10.219   2.221
75471W        W47797  41.803  25.766  11.985
75472W        W47798  23.345   5.618  12.367
75473W        W47799  27.418   3.936  14.334
75474W        W47800   5.906  31.943  10.639
75475W        W47801  29.539  28.650   2.355
75476W        W47802   9.801   1.088  12.291
75477W        W47803  23.188   8.330   3.242
75478W        W47804  12.253  32.917   1.843
75479W        W47805  31.863  35.535   1.002
75480W        W47806  39.506  40.499   2.194
75481W        W47807   0.016  40.178   2.870
75482W        W47808  42.738  19.012   3.604
75483W        W47809  34.352  14.136  14.968
75484W        W47810   3.353  41.854  14.594
75485W        W47811   1.491  37.618  14.191
75486W        W47812  38.308  32.982  14.168
75487W        W47813  14.300  23.408  14.395
75488W        W47814  20.473  10.642   0.489
75489W        W47815  33.585  37.105   3.697
75490W        W47816  23.142  20.929   0.391
75491W        W47817  22.760  17.777  14.834
75492W        W47818  39.606  19.070  10.700
75493W        W47819   7.404  21.078  10.274
75494W        W47820  20.899  31.376   2.206
75495W        W47821   3.946  41.935  12.974
75496W        W47822  35.182  22.028  12.873
75497W        W47823  34.515  29.074   1.958
75498W        W47824  14.122  19.638   2.888
75499W        W47825   2.685  25.964  11.938
75500W        W47826  44.778  34.903   2.134
75501W        W47827  27.663   6.675   1.760
75502W        W47828  38.049   0.360   3.152
75503W        W47829  14.361   9.302  14.995
75504W        W47830  19.797  24.959   2.677
75505W        W47831   7.937  29.216   3.929
75506W        W47832  28.934   6.375   2.805
75507W        W47833  18.590   7.373  12.956
75508W        W47834  30.429  26.928  12.086
75509W        W47835  19.847  30.519   4.238
75510W        W47836  37.776  23.999  10.236
75511W        W47837  26.752  13.764  11.111
75512W        W47838  32.648  33.294  14.769
75513W        W47839  24.735  41.336   1.885
75514W        W47840  39.764  14.572   1.234
75515W        W47841  38.562  43.927  12.169
75516W        W47842   1.426  36.740  14.742
75517W        W47843  43.088  31.459  12.721
75518W        W47844  34.398  43.444  13.419
75519W        W47845  35.402   7.979  13.935
75520W        W47846  38.235   8.138  12.381
75521W        W47847  28.640  44.687  14.921
75522W        W47848  24.196  39.605   1.885
75523W        W47849  21.901  22.939   0.606
75524W        W47850  15.847  37.870  10.449
75525W        W47851  23.430  19.895   1.786
75526W        W47852  30.933  42.027  12.592
75527W        W47853  20.133  38.092   3.786
75528W        W47854  23.629   1.037  14.925
75529W        W47855  11.347  28.224   2.753
75530W        W47856  33.520  26.493  12.839
75531W        W47857  13.708  39.180  11.980
75532W        W47858   4.384  16.805   2.768
75533W        W47859  22.729  41.378  14.405
75534W        W47860  15.328  33.219   5.031
75535W        W47861  30.741  25.038   0.960
75536W        W47862  33.726  12.904  11.008
75537W        W47863  39.958   4.267  13.490
75538W        W47864   3.375  18.012  14.942
75539W        W47865  34.045  44.209   0.915
75540W        W47866   9.167   4.583   0.557
75541W        W47867  18.058  17.343  12.074
75542W        W47868  22.561   1.104  12.008
75543W        W47869  22.807  20.565   1.661
75544W        W47870  23.216  30.400  11.225
75545W        W47871   3.738  20.792   4.707
75546W        W47872  15.650  32.362  12.659
75547W        W47873   1.745   9.390  10.661
75548W        W47874  34.859  17.027  12.036
75549W        W47875   1.787  14.120  14.527
75550W        W47876  24.252  22.633  14.858
75551W        W47877  28.496  32.170   3.713
75552W        W47878  26.572  31.462  12.425
75553W        W47879  31.494   3.873   2.029
75554W        W47880  32.987   6.308  10.672
75555W        W47881  13.342   4.891   0.161
75556W        W47882  26.134  33.277  11.096
75557W        W47883  31.132  22.421  14.782
75558W        W47884  32.872   9.309   3.553
75559W        W47885  39.342   0.258  14.869
75560W        W47886  36.204   0.814  12.568
75561W        W47887  24.990   8.374  12.155
75562W        W47888  24.642  32.183   0.980
75563W        W47889  21.266  34.511  13.764
75564W        W47890   6.197   5.950   2.861
75565W        W47891  28.964  19.216   3.980
75566W        W47892  12.624   1.197   0.961
75567W        W47893  13.328   5.243   3.868
75568W        W47894  43.787  10.726  11.707
75569W        W47895  13.252  21.892   4.860
75570W        W47896  23.756   2.842  13.535
75571W        W47897   0.960   8.884   2.227
75572W        W47898   1.190  37.013   1.694
75573W        W47899  32.229  10.647  14.875
75574W        W47900  32.107  23.800   0.433
75575W        W47901  41.294  41.425   3.641
75576W        W47902  43.482  38.499   2.446
75577W        W47903  29.579  14.882  14.892
75578W        W47904  34.106  24.126  14.967
75579W        W47905  35.872  28.230   1.266
75580W        W47906  42.683  38.872  13.455
75581W        W47907   8.275  13.113  12.923
75582W        W47908  21.615  41.074   2.259
75583W        W47909   5.730  41.325  11.679
75584W        W47910  32.664  10.753  14.528
75585W        W47911  21.251  14.752   0.594
75586W        W47912  25.492  42.340   2.247
75587W        W47913  21.232  37.675   0.589
75588W        W47914  44.395   1.519  11.078
75589W        W47915   0.673   9.710   0.961
75590W        W47916   2.761   2.509  12.941
75591W        W47917  28.735  17.295  10.809
75592W        W47918   3.284   5.947  10.636
75593W        W47919  44.345  25.677  11.246
75594W        W47920  43.224  19.458   4.171
75595W        W47921  30.184   8.161   1.816
75596W        W47922  12.867  16.074  13.420
75597W        W47923   5.697  39.901  10.563
75598W        W47924   9.976  44.262   0.463
75599W        W47925  24.414  29.619  13.010
75600W        W47926   1.438  18.813  14.607
75601W        W47927  31.106  12.726  11.132
75602W        W47928  40.166   7.868  10.853
75603W        W47929   6.456   7.927   1.367
75604W        W47930  38.338  31.579   3.427
75605W        W47931  27.017  37.508   5.044
75606W        W47932   8.016  39.407  13.325
75607W        W47933  38.786   6.660  12.514
75608W        W47934   4.279  33.802  14.973
75609W        W47935  36.063  43.844   3.645
75610W        W47936  31.884  14.732  10.867
75611W        W47937  17.520  21.624  11.025
75612W        W47938  21.684  44.302  10.550
75613W        W47939   9.350  14.125   1.850
75614W        W47940  34.491  32.901  10.764
75615W        W47941  26.142   8.015   4.329
75616W        W47942   9.191  30.122   2.643
75617W        W47943  40.000  20.608   3.726
75618W        W47944  14.906  37.846   2.695
75619W        W47945  24.732   3.412  11.815
75620W        W47946  35.637   2.956  10.407
75621W        W47947  39.069   2.435  13.803
75622W        W47948   9.540  40.410  12.883
75623W        W47949  11.085   8.760  12.492
75624W        W47950  36.877  25.629  14.049
75625W        W47951   6.350  17.566   0.496
75626W        W47952  32.428  27.627  14.514
75627W        W47953   3.526  38.997   1.980
75628W        W47954  26.682  28.145   4.165
75629W        W47955  22.764  44.403  11.039
75630W        W47956  41.037  15.368  13.235
75631W        W47957  23.551  31.088  12.918
75632W        W47958  26.407   4.492  10.026
75633W        W47959  32.039   5.918  12.076
75634W        W47960  34.817  28.811   2.760
75635W        W47961  36.112  37.045   4.562
75636W        W47962  18.166  21.625   4.155
75637W        W47963  44.054  30.018   0.412
75638W        W47964  31.503  34.076  12.063
75639W        W47965  13.669   2.389  13.055
75640W        W47966  14.067  31.196  11.540
75641W        W47967  16.362  32.392  13.852
75642W        W47968   1.211  36.548   3.229
75643W        W47969  18.948  15.799  12.183
75644W        W47970  40.153   9.562  10.735
75645W        W47971  19.026  34.970  10.568
75646W        W47972  16.868   6.398   1.552
75647W        W47973   0.390  41.935  11.675
75648W        W47974  36.751  36.407  12.391
75649W        W47975  34.806  36.448   0.770
75650W        W47976  10.418  18.069   3.579
75651W        W47977  19.185   7.403  13.494
75652W        W47978   0.931  23.271   3.373
75653W        W47979   3.243  26.415   5.083
75654W        W47980  34.657  14.236   9.839
75655W        W47981  17.697   9.162   4.200
75656W        W47982   4.307  18.726  12.376
75657W        W47983  43.578   1.379  12.393
75658W        W47984  36.169  12.517   5.539
75659W        W47985  42.613  29.416  11.018
75660W        W47986  20.534  26.709  14.537
75661W        W47987   9.722  10.207  13.470
75662W        W47988  39.982   8.953   0.255
75663W        W47989   0.871  27.288  12.772
75664W        W47990  19.732  35.285   3.636
75665W        W47991  22.617  26.164   0.369
75666W        W47992  32.936  44.872  11.363
75667W        W47993   5.828  29.047   3.775
75668W        W47994  21.186  41.995  12.633
75669W        W47995   9.372  26.083   0.249
75670W        W47996  16.564  15.534   0.436
75671W        W47997  32.113   1.737   3.547
75672W        W47998  19.370   0.186  12.562
75673W        W47999  21.370  25.871   1.680
75674W        W48000  11.185  26.364   5.160
75675W        W48001  24.156   9.484  13.297
75676W        W48002  20.562  36.361   0.688
75677W        W48003  43.979  40.632  13.571
75678W        W48004   9.195  26.498   0.480
75679W        W48005  43.871  42.835   0.476
75680W        W48006  36.966   6.567   3.364
75681W        W48007  41.744  35.848  14.442
75682W        W48008  28.279  38.926   2.429
75683W        W48009  22.823   8.242   9.876
75684W        W48010  17.505   5.704  13.421
75685W        W48011  27.850  43.607  12.484
75686W        W48012  22.998   7.330   3.221
75687W        W48013   2.546  20.304   1.410
75688W        W48014   5.867  14.680  14.731
75689W        W48015  36.331  36.494   0.807
75690W        W48016  22.251  37.324   9.982
75691W        W48017  30.263  27.112  13.953
75692W        W48018   9.258  11.382   1.697
75693W        W48019  40.303  31.843  11.541
75694W        W48020  38.590  10.890   3.332
75695W        W48021  22.799  37.653  12.485
75696W        W48022   2.198  37.539  14.838
75697W        W48023  15.704  39.216   0.448
75698W        W48024   7.916  40.706  10.809
75699W        W48025   7.678   4.407   4.858
75700W        W48026  35.118  42.572   3.503
75701W        W48027  42.820   1.190  14.738
75702W        W48028  33.958   8.322  14.834
75703W        W48029  25.384   4.291  14.454
75704W        W48030   1.371   2.062   5.202
75705W        W48031  21.613  42.260   2.769
75706W        W48032  10.195  20.254   4.537
75707W        W48033  17.262   3.180  12.119
75708W        W48034  34.693   4.169   2.603
75709W        W48035   1.779  32.008  14.449
75710W        W48036  42.484  33.451  13.742
75711W        W48037  30.371  39.607   3.380
75712W        W48038  27.055  33.947  14.316
75713W        W48039  42.216  13.770   2.657
75714W        W48040   7.994  27.568   3.809
75715W        W48041  24.817  27.269   2.378
75716W        W48042   8.752   3.696   3.687
75717W        W48043   1.166  24.589   0.203
75718W        W48044  33.575  26.648   3.667
75719W        W48045  42.418  22.927   0.835
75720W        W48046  40.012   1.421   4.059
75721W        W48047  36.504  17.780  11.937
75722W        W48048  44.462   2.553  11.089
75723W        W48049   8.259  18.658   0.502
75724W        W48050  11.229  31.819   0.067
75725W        W48051  42.761   3.831   4.241
75726W        W48052   7.490   4.804   0.446
75727W        W48053  15.557  43.394   3.740
75728W        W48054  27.219  33.180   3.924
75729W        W48055   8.104  30.886  13.820
75730W        W48056  29.393  40.226  12.767
75731W        W48057  29.916  40.315  11.555
75732W        W48058   4.331  16.844  12.772
75733W        W48059  25.208  29.413  12.090
75734W        W48060  44.461   4.527  14.103
75735W        W48061  37.484   8.097   3.677
75736W        W48062  26.424   8.049  12.890
75737W        W48063  37.304  18.866  10.744
75738W        W48064   0.701  11.692   0.853
75739W        W48065  10.229  17.619   0.065
75740W        W48066  10.673  28.179   3.970
75741W        W48067  25.377  29.636  11.231
75742W        W48068  17.052  25.474  12.957
75743W        W48069  18.627  13.202  11.033
75744W        W48070  43.769  42.415  10.641
75745W        W48071  15.860   0.509   1.155
75746W        W48072  23.082  25.124  11.403
75747W        W48073  10.330  36.854   4.618
75748W        W48074  35.750  40.342  13.990
75749W        W48075  40.410  35.442  14.841
75750W        W48076  18.504  14.238  13.091
75751W        W48077  12.886  41.378   1.912
75752W        W48078  36.009  30.686   2.226
75753W        W48079  17.047  30.368  11.671
75754W        W48080  31.053  40.279   2.785
75755W        W48081  17.130  18.686   2.860
75756W        W48082  24.660  28.196   3.811
75757W        W48083  36.449  15.401  11.860
75758W        W48084  16.626  35.386   2.275
75759W        W48085  11.360  38.599  10.601
75760W        W48086   9.248  27.024   0.384
75761W        W48087  18.634  38.862   4.065
75762W        W48088  13.359   3.812   3.631
75763W        W48089  43.311  10.377  11.866
75764W        W48090  14.529  32.210   9.948
75765W        W48091  11.728  44.310   9.975
75766W        W48092  14.812   8.709  11.573
75767W        W48093  33.166  23.227   4.547
75768W        W48094   3.895   1.720   2.783
75769W        W48095  17.204  38.110   3.476
75770W        W48096  36.815  31.710   1.304
75771W        W48097  11.528  37.170  11.129
75772W        W48098  41.083  39.045  13.486
75773W        W48099  32.366  27.657   3.254
75774W        W48100   4.789  17.293   4.931
75775W        W48101   7.971  24.194  13.403
75776W        W48102  38.972  34.863  12.093
75777W        W48103  32.640  39.565   3.336
75778W        W48104  34.533  39.091   1.027
75779W        W48105  11.618  39.977  11.691
75780W        W48106   0.798  30.477  10.966
75781W        W48107  24.252  26.728  11.171
75782W        W48108   5.184  15.097   4.065
75783W        W48109  36.033  19.665  13.859
75784W        W48110  24.070  43.998   0.166
75785W        W48111  39.817   9.759   3.924
75786W        W48112  31.024  26.132   1.469
75787W        W48113  41.057  35.670  13.132
75788W        W48114  19.032   3.230   5.114
75789W        W48115  13.374   9.212   0.844
75790W        W48116  28.562  14.717   2.126
75791W        W48117  40.123  28.056   2.754
75792W        W48118  27.016   1.528  13.048
75793W        W48119  22.540   4.302   2.796
75794W        W48120   4.585   1.839   1.399
75795W        W48121  31.047   7.359  14.574
75796W        W48122  36.119  35.346   1.525
75797W        W48123  36.934  43.868  10.877
75798W        W48124  43.827  13.098  11.501
75799W        W48125  28.909  18.716  10.656
75800W        W48126  18.655  28.434   4.641
75801W        W48127  11.161  27.653  10.724
75802W        W48128  36.152  13.677  11.570
75803W        W48129   5.720  39.486   4.181
75804W        W48130  10.864   2.073   1.716
75805W        W48131  38.589  41.132   3.992
75806W        W48132  11.216   7.304   1.558
75807W        W48133  16.885  14.644   1.817
75808W        W48134  35.966  20.793  12.807
75809W        W48135  14.023  34.512   1.515
75810W        W48136  19.173  19.150   1.721
75811W        W48137  34.944  25.113   0.201
75812W        W48138  24.987  16.326   2.266
75813W        W48139  31.160  43.486  12.991
75814W        W48140  32.442  41.840   2.810
75815W        W48141  38.400  22.162  14.219
75816W        W48142  42.786  19.763  13.133
75817W        W48143  26.307  39.081  10.676
75818W        W48144  41.255   4.336   1.881
75819W        W48145  30.383  40.033   4.138
75820W        W48146  27.595  31.658   4.742
75821W        W48147  32.944   2.130  14.492
75822W        W48148  33.079   1.110  10.602
75823W        W48149  15.821  36.971  10.471
75824W        W48150  36.298  43.923   4.156
75825W        W48151   7.910  36.524  14.433
75826W        W48152  44.512  38.372   2.721
75827W        W48153  28.644  34.568  11.996
75828W        W48154   7.778  14.864  13.089
75829W        W48155  43.952  26.178   0.406
75830W        W48156  28.185  34.881  12.066
75831W        W48157  27.094  15.861   3.337
75832W        W48158   5.336  44.097   1.482
75833W        W48159  22.910  27.203  14.954
75834W        W48160  14.839  20.441   4.232
75835W        W48161  17.185  33.768  14.859
75836W        W48162   6.435  44.886   1.090
75837W        W48163  23.185  43.537   2.898
75838W        W48164  43.796  20.082  14.281
75839W        W48165   4.145  39.446  13.505
75840W        W48166  32.926  42.560   1.845
75841W        W48167   9.669   0.969   1.635
75842W        W48168  34.952  23.130   4.098
75843W        W48169  29.616  34.931  11.019
75844W        W48170  16.105   3.666  11.145
75845W        W48171   2.310  18.262  14.575
75846W        W48172  39.933  38.868  14.554
75847W        W48173  30.858  26.983   0.032
75848W        W48174  15.592  28.864  10.450
75849W        W48175  40.799  37.923  13.484
75850W        W48176  10.250  20.087   1.431
75851W        W48177   3.241  34.405   0.723
75852W        W48178   4.682  30.247   3.129
75853W        W48179  31.506   3.307  12.402
75854W        W48180  22.410   2.434   0.808
75855W        W48181  27.502  20.171  12.562
75856W        W48182  27.090  23.047  13.316
75857W        W48183   8.943   0.735   4.534
75858W        W48184  32.876  40.086   4.655
75859W        W48185  34.325  41.710  12.065
75860W        W48186  16.590  27.647  11.036
75861W        W48187  44.328  31.507  13.343
75862W        W48188  11.749  28.921  13.966
75863W        W48189  22.263  17.036  14.916
75864W        W48190   3.906  16.688  11.250
75865W        W48191  32.409  30.459   1.953
75866W        W48192  20.810  35.357  14.850
75867W        W48193  34.395  44.807  11.686
75868W        W48194  23.668   6.989  14.558
75869W        W48195  39.718  20.227   2.945
75870W        W48196  17.570  13.803   0.136
75871W        W48197   4.936  12.005   2.334
75872W        W48198  10.697   8.540  12.916
75873W        W48199  28.613  22.745  12.077
75874W        W48200  12.326  41.212   4.460
75875W        W48201  22.029   7.842   1.508
75876W        W48202  24.523  19.738  13.984
75877W        W48203  20.129  26.914   5.026
75878W        W48204  28.004   4.171  10.181
75879W        W48205  41.271  32.460  11.048
75880W        W48206   6.472   5.275   3.619
75881W        W48207  35.246  38.838  11.077
75882W        W48208   1.043  21.473  13.016
75883W        W48209  11.204  44.319  12.532
75884W        W48210  24.551  18.112  12.958
75885W        W48211  35.410  39.765  14.527
75886W        W48212  27.091  25.503   0.823
75887W        W48213  37.940  29.123  14.761
75888W        W48214  32.713  37.414   3.184
75889W        W48215  10.457   2.189  12.730
75890W        W48216  43.781   0.238  11.539
75891W        W48217  28.947  41.551  11.950
75892W        W48218  22.934  38.371  10.460
75893W        W48219  39.747  37.392  13.299
75894W        W48220  28.166  14.495   0.883
75895W        W48221  16.127  22.617   3.866
75896W        W48222  16.877  21.566  13.423
75897W        W48223  25.770   0.681  12.512
75898W        W48224   2.256   7.323   2.127
75899W        W48225   1.915  22.542   4.166
75900W        W48226  11.358  37.491   1.417
75901W        W48227  43.205   2.428   2.198
75902W        W48228   9.802   1.576  10.441
75903W        W48229   3.787  10.890   3.728
75904W        W48230  15.652   5.895   0.817
75905W        W48231  14.539  37.107   4.285
75906W        W48232  30.896  43.409  10.395
75907W        W48233  12.621   4.045  12.318
75908W        W48234  13.573   3.140   0.018
75909W        W48235  18.023  32.706  10.360
75910W        W48236   0.945  25.410   3.346
75911W        W48237  39.613  34.951   4.120
75912W        W48238  26.663  37.893  14.745
75913W        W48239  19.012  11.841   0.488
75914W        W48240  40.534  34.793   2.881
75915W        W48241  16.377  39.874   2.293
75916W        W48242  25.471  20.705   3.721
75917W        W48243  38.871  14.189  11.556
75918W        W48244  40.528  37.526   4.754
75919W        W48245  10.416  42.377  11.167
75920W        W48246  42.308   6.396  10.834
75921W        W48247  34.538  22.682   0.404
75922W        W48248  12.365  12.397   3.335
75923W        W48249  34.631  34.867   4.129
75924W        W48250  37.361  43.758   0.744
75925W        W48251  27.204  25.245   1.512
75926W        W48252  41.644   0.565   0.089
75927W        W48253   3.303  29.959   4.960
75928W        W48254  28.669  16.705  14.518
75929W        W48255  35.864  24.438  10.710
75930W        W48256  25.443  24.044   1.007
75931W        W48257  17.603   9.692   3.431
75932W        W48258  22.697  25.318  14.443
75933W        W48259  41.980  31.039   4.893
75934W        W48260  37.042   2.174   1.924
75935W        W48261   2.644  37.644   4.188
75936W        W48262  16.901  33.951   4.818
75937W        W48263  20.693  25.054  12.877
75938W        W48264   4.016  23.315   9.898
75939W        W48265   0.677  21.203  14.957
75940W        W48266  15.257  20.303  11.861
75941W        W48267   1.852  29.452   0.544
75942W        W48268  25.905  25.108   0.679
75943W        W48269  21.078   4.322   0.453
75944W        W48270  36.626  43.995  13.764
75945W        W48271  42.621  10.083   4.019
75946W        W48272  34.870  33.017  13.836
75947W        W48273  17.068  30.335   0.074
75948W        W48274   9.269  42.352   1.705
75949W        W48275  35.058  34.071  13.098
75950W        W48276   3.865   3.846   3.817
75951W        W48277  39.793  33.093   2.199
75952W        W48278  12.273  11.751  13.418
75953W        W48279  34.547  18.825  14.353
75954W        W48280  27.633  23.225   4.166
75955W        W48281  12.400  30.059   4.568
75956W        W48282  21.697  35.106   0.304
75957W        W48283  21.220  15.045  11.528
75958W        W48284  19.632  10.278   2.339
75959W        W48285  42.843  16.919   9.998
75960W        W48286  27.460  28.121   4.584
75961W        W48287  25.650  16.595  11.392
75962W        W48288  21.714  41.064   1.340
75963W        W48289   4.247  21.086   3.882
75964W        W48290  23.719  15.339   2.237
75965W        W48291   3.079   0.199   2.595
75966W        W48292  35.083  26.913  14.761
75967W        W48293  44.304   1.303  14.858
75968W        W48294  36.880  29.194   1.253
75969W        W48295  42.758  19.698   2.319
75970W        W48296  16.887  23.383   2.490
75971W        W48297  21.955   9.664  11.538
75972W        W48298  43.081  23.669   2.270
75973W        W48299  41.545  10.336  12.907
75974W        W48300  19.268   8.801   1.416
75975W        W48301  43.695   3.666   1.693
75976W        W48302  15.085  34.583   3.239
75977W        W48303  44.249  38.371  12.404
75978W        W48304   1.676   4.296   0.700
75979W        W48305  39.372  44.208  14.194
75980W        W48306  44.391  28.468   0.439
75981W        W48307   9.388  40.393  11.691
75982W        W48308  37.837   6.665  12.104
75983W        W48309  26.929  18.194   2.915
75984W        W48310  16.780  36.130  13.978
75985W        W48311  11.205  39.358  12.624
75986W        W48312  31.640  41.345  12.403
75987W        W48313  39.916  17.928  11.870
75988W        W48314   3.693  32.897   1.406
75989W        W48315  34.532  19.230   3.649
75990W        W48316   4.243   0.238   4.188
75991W        W48317  38.456  26.033   0.000
75992W        W48318  10.429  40.450   2.690
75993W        W48319  37.273   9.812   4.191
75994W        W48320   1.045   4.716   4.128
75995W        W48321  12.279   8.414  10.555
75996W        W48322  15.042  41.930  13.606
75997W        W48323  26.693  26.192  12.962
75998W        W48324  29.485  34.875   4.096
75999W        W48325  38.393   9.739  12.012
76000W        W48326   2.592  19.631   1.854
76001W        W48327  33.044  11.640   3.842
76002W        W48328  12.315  10.636   4.961
76003W        W48329  42.914  14.081  12.105
76004W        W48330  19.027  35.211  13.677
76005W        W48331  29.845  42.388   1.089
76006W        W48332  31.675   9.157  12.051
76007W        W48333   9.770  30.619   4.189
76008W        W48334  18.705  40.015   0.782
76009W        W48335  13.388  30.184  12.390
76010W        W48336  20.600  30.523  11.147
76011W        W48337  12.780  14.808  14.769
76012W        W48338  44.035  23.323   2.567
76013W        W48339   9.149  17.262  11.627
76014W        W48340  16.067  14.426  13.947
76015W        W48341  11.600  35.424   0.696
76016W        W48342  23.530  35.772   1.982
76017W        W48343  24.119  34.915  10.375
76018W        W48344  35.771  18.811   4.484
76019W        W48345  39.043   6.688  12.984
76020W        W48346  29.855  22.088  11.183
76021W        W48347  30.162  18.103  11.098
76022W        W48348  27.434  25.635   4.428
76023W        W48349   9.777  17.036   1.576
76024W        W48350  33.929   5.265  13.016
76025W        W48351   3.398  12.025   4.128
76026W        W48352  26.713  29.117  13.391
76027W        W48353   6.906  14.658   0.417
76028W        W48354   5.468  41.826   4.054
76029W        W48355   7.269  19.638   2.004
76030W        W48356   0.156   2.585   5.038
76031W        W48357  37.470  42.518  10.709
76032W        W48358  15.391  41.785   0.315
76033W        W48359  39.725   9.482   3.087
76034W        W48360   2.148   4.375  13.393
76035W        W48361  39.911  36.934  13.946
76036W        W48362   5.175  20.948   1.442
76037W        W48363  43.015   3.837  14.986
76038W        W48364  21.321  35.354  14.927
76039W        W48365  13.258   1.191  10.719
76040W        W48366  17.568   0.977  10.725
76041W        W48367  15.744  39.350   3.832
76042W        W48368  41.878  14.762  11.181
76043W        W48369  25.640   7.830  10.718
76044W        W48370  44.769  22.978   0.966
76045W        W48371  24.340  15.548  12.058
76046W        W48372  20.041  20.162   4.916
76047W        W48373  20.110  14.020  14.779
76048W        W48374   5.921   6.445   0.679
76049W        W48375  24.166  43.927   0.683
76050W        W48376  43.000  13.668   2.018
76051W        W48377  30.868  29.148   2.307
76052W        W48378  17.057  43.455  13.980
76053W        W48379  12.916  31.464  11.555
76054W        W48380  34.839   2.253  10.680
76055W        W48381  37.530   8.833  12.567
76056W        W48382  27.549  38.007  10.672
76057W        W48383  35.650  10.883   3.219
76058W        W48384  40.393  38.285  12.561
76059W        W48385  11.703   6.864  13.618
76060W        W48386   5.487  29.125  13.775
76061W        W48387  25.740  23.152   4.476
76062W        W48388  41.523  19.265  12.881
76063W        W48389  24.739  12.749  11.347
76064W        W48390  16.675  34.363   4.583
76065W        W48391  33.064   9.329  14.816
76066W        W48392  26.444  31.039   3.347
76067W        W48393  12.000   7.250   2.225
76068W        W48394  15.857  20.485   0.513
76069W        W48395  22.005  37.347   4.947
76070W        W48396  40.125  18.830  10.745
76071W        W48397  21.197  30.352  12.914
76072W        W48398   3.710  21.751   2.187
76073W        W48399  14.210  34.185  11.033
76074W        W48400  31.453   8.417   2.826
76075W        W48401  37.989  41.417  11.713
76076W        W48402  18.860   7.794   1.627
76077W        W48403  36.530  29.621  12.562
76078W        W48404  29.670  27.437  14.949
76079W        W48405   7.124  26.154   3.644
76080W        W48406  41.969   0.208   1.381
76081W        W48407  35.521  10.621   4.989
76082W        W48408  21.317  21.256   3.663
76083W        W48409  10.801   4.183   3.180
76084W        W48410  40.269  41.288   1.045
76085W        W48411   9.369   8.707   4.088
76086W        W48412  33.889  36.394   0.785
76087W        W48413  25.760  25.065  14.348
76088W        W48414  30.068  27.788   9.684
76089W        W48415  25.562   7.634   4.137
76090W        W48416  40.584  24.127   3.738
76091W        W48417  38.840  12.105  12.535
76092W        W48418   8.831  35.320   4.112
76093W        W48419  36.807   8.637  13.867
76094W        W48420  12.361   5.172   2.338
76095W        W48421  11.056   2.662  11.329
76096W        W48422  36.369  23.892  14.872
76097W        W48423  41.816  24.701   4.402
76098W        W48424  43.247  33.029  13.822
76099W        W48425   8.079   4.309  10.814
76100W        W48426  24.089  20.285   2.865
76101W        W48427  27.946  33.492  10.202
76102W        W48428  35.432  39.270  11.810
76103W        W48429  35.353  33.456   9.836
76104W        W48430  27.087  43.841  14.892
76105W        W48431  41.292  18.216   1.657
76106W        W48432  11.875  21.033   1.983
76107W        W48433  22.607  40.302   3.447
76108W        W48434   3.978  32.418  13.367
76109W        W48435   1.340  22.662  11.609
76110W        W48436  20.091  29.871   2.698
76111W        W48437  31.382  31.048   4.129
76112W        W48438  12.611   9.778   1.690
76113W        W48439  26.056  20.268  10.654
76114W        W48440  34.114   8.716  12.484
76115W        W48441  36.651  38.151  11.908
76116W        W48442  19.278  37.460  11.038
76117W        W48443  19.297  20.796   1.027
76118W        W48444   3.546  41.449  13.648
76119W        W48445   9.366  17.800   4.718
76120W        W48446   4.221  30.221   0.576
76121W        W48447  43.281   1.656  13.965
76122W        W48448   4.277  44.564  11.897
76123W        W48449  28.128  33.580  10.707
76124W        W48450  20.256   4.929   3.538
76125W        W48451   8.393  28.076  13.505
76126W        W48452  32.380  28.461  12.476
76127W        W48453  14.587   7.683  13.905
76128W        W48454  12.077  40.529  13.847
76129W        W48455  30.163  21.034   0.789
76130W        W48456  35.023  24.399   4.616
76131W        W48457  21.267  13.889   0.310
76132W        W48458  40.820  36.526   2.914
76133W        W48459  34.980  17.160  11.206
76134W        W48460  25.540  22.774  12.622
76135W        W48461  43.473  23.610  12.620
76136W        W48462   3.067  16.002  13.947
76137W        W48463  24.809  11.853   2.682
76138W        W48464  22.315  18.069  14.858
76139W        W48465  33.376  33.385   1.158
76140W        W48466  34.032  41.294  12.877
76141W        W48467  19.345   8.333  14.348
76142W        W48468  16.556  29.105   4.501
76143W        W48469  15.665   8.663   3.025
76144W        W48470  22.436  14.212   4.228
76145W        W48471  33.235  18.310  14.517
76146W        W48472   6.482  18.003   1.449
76147W        W48473  37.999  32.564  11.846
76148W        W48474   4.747  40.823  13.883
76149W        W48475  34.732  24.068  12.328
76150W        W48476   8.371  44.492   4.303
76151W        W48477  29.098  16.950  14.449
76152W        W48478   0.172  19.576   0.565
76153W        W48479  35.313  41.024   2.808
76154W        W48480   8.939  27.474   1.449
76155W        W48481   2.734   8.811   3.168
76156W        W48482  36.225  19.617  11.646
76157W        W48483  39.886   4.298   4.612
76158W        W48484   3.985  17.252  12.491
76159W        W48485  30.629  14.004  13.856
76160W        W48486  32.679  31.501  13.527
76161W        W48487  26.700  41.763   1.371
76162W        W48488   5.368  40.719  12.600
76163W        W48489  21.092  14.578  10.614
76164W        W48490  27.645  38.562   4.240
76165W        W48491   9.804  42.039   3.193
76166W        W48492  34.402  26.513  11.520
76167W        W48493   2.690  34.005   0.366
76168W        W48494  10.154   3.855  11.800
76169W        W48495  16.269  39.561   2.717
76170W        W48496   0.268  10.310  14.328
76171W        W48497  10.072  16.116   2.391
76172W        W48498  22.332  28.568   1.642
76173W        W48499  31.112  34.923  11.061
76174W        W48500   0.539  27.943  13.890
76175W        W48501  32.911  11.578  13.982
76176W        W48502  33.441  28.558  13.799
76177W        W48503  25.694   9.926   0.385
76178W        W48504  14.274  38.479  11.673
76179W        W48505   4.860  34.942   2.634
76180W        W48506  41.367  38.363  13.996
76181W        W48507  36.545  17.544   0.512
76182W        W48508  24.614  26.399   4.152
76183W        W48509  44.536  36.404   0.376
76184W        W48510  43.438  31.160   1.664
76185W        W48511  43.990   3.346   4.103
76186W        W48512  31.969   7.224   3.694
76187W        W48513  34.876  16.236   0.872
76188W        W48514   9.821   4.788   1.364
76189W        W48515  21.235  43.499   1.367
76190W        W48516  44.493  40.930  12.631
76191W        W48517  37.003  23.276   2.809
76192W        W48518  32.140  37.443   0.368
76193W        W48519  27.165  16.146   1.899
76194W        W48520  26.040  12.188   0.302
76195W        W48521  36.470  34.137  14.605
76196W        W48522  10.789   3.658   3.187
76197W        W48523   3.812  28.882  10.752
76198W        W48524  37.917   5.188   3.736
76199W        W48525  36.136  17.810   2.740
76200W        W48526  37.849  44.981   4.154
76201W        W48527  14.251  23.434   0.706
76202W        W48528  41.650   5.165   3.615
76203W        W48529  44.423  28.229  12.506
76204W        W48530  31.938  43.686  13.491
76205W        W48531  16.675  44.261  11.600
76206W        W48532  42.953  36.817   2.563
76207W        W48533   7.199   4.852  11.499
76208W        W48534  11.073  12.306   4.176
76209W        W48535  38.058  11.174  10.892
76210W        W48536   8.695  37.488   2.908
76211W        W48537   3.925  41.087  12.896
76212W        W48538  21.570   9.335   1.201
76213W        W48539  11.276  11.801   2.905
76214W        W48540  29.464  19.718  10.615
76215W        W48541  39.165  39.354  11.432
76216W        W48542  16.209  34.437  11.584
76217W        W48543  37.292  32.972  13.040
76218W        W48544  39.522  18.168   4.303
76219W        W48545   3.200  38.905  13.989
76220W        W48546  41.737  11.387   2.935
76221W        W48547   4.853  13.654  13.916
76222W        W48548  11.351   1.665  13.573
76223W        W48549  24.269   8.191  10.993
76224W        W48550  12.180   9.557  12.799
76225W        W48551  41.587  23.686   4.656
76226W        W48552  32.407  30.331   2.963
76227W        W48553   3.160  37.426  11.600
76228W        W48554  37.359   3.458   4.497
76229W        W48555  32.060  36.878  10.657
76230W        W48556  20.058  10.260  13.009
76231W        W48557  43.847   2.331  11.479
76232W        W48558   8.328  15.283   3.306
76233W        W48559  12.274  41.989   0.451
76234W        W48560  36.805  12.424   4.109
76235W        W48561  38.244  29.074   2.305
76236W        W48562  12.350  21.319   1.270
76237W        W48563  22.957  38.197   4.128
76238W        W48564   0.715  27.501  11.549
76239W        W48565  38.895  19.409   2.218
76240W        W48566  21.198  33.931  11.900
76241W        W48567  38.388  25.922   4.839
76242W        W48568  12.601   2.693  11.571
76243W        W48569  33.995   1.054  14.756
76244W        W48570  44.327  25.915  10.748
76245W        W48571  14.362  38.546   0.546
76246W        W48572  23.943   3.346  13.506
76247W        W48573  28.887   8.441   3.696
76248W        W48574  19.671   8.914  14.060
76249W        W48575  18.092   0.679   2.217
76250W        W48576  15.736  42.026  14.341
76251W        W48577   4.774  15.309  14.466
76252W        W48578  26.134  42.004  10.478
76253W        W48579   0.373  22.252   5.007
76254W        W48580  28.848  44.244  12.949
76255W        W48581  22.248  18.160   2.249
76256W        W48582  34.396   5.649   2.185
76257W        W48583   0.881  23.756  13.561
76258W        W48584   7.377  39.502   1.588
76259W        W48585  26.880  32.861  14.515
76260W        W48586  37.830   1.011  12.073
76261W        W48587  27.223  26.960  11.592
76262W        W48588  29.969  39.287   2.612
76263W        W48589   8.151   7.335   1.359
76264W        W48590  29.112  18.175   3.368
76265W        W48591  23.107  20.812   5.054
76266W        W48592  40.446  27.078  11.692
76267W        W48593  15.566  17.047  13.479
76268W        W48594  17.523  14.832   0.328
76269W        W48595  39.880  27.942   3.201
76270W        W48596  27.725  11.689   0.014
76271W        W48597  37.311  11.691  11.039
76272W        W48598  34.469   9.629  13.427
76273W        W48599  21.605   9.045  13.401
76274W        W48600  38.329  17.870  10.647
76275W        W48601  32.743   4.388  13.606
76276W        W48602  36.062  20.766   0.140
76277W        W48603  27.305  24.315   4.826
76278W        W48604   1.449  32.361   3.461
76279W        W48605  16.013  17.815  11.371
76280W        W48606   3.331   9.717   4.477
76281W        W48607  13.727  26.955   0.334
76282W        W48608  11.005   7.714  14.105
76283W        W48609   5.437  29.931   1.831
76284W        W48610  44.785  31.155  12.043
76285W        W48611  11.737  39.404  14.902
76286W        W48612  11.227  13.243  14.328
76287W        W48613  38.853  25.720  13.358
76288W        W48614  38.065   2.416   0.377
76289W        W48615  10.279  30.828   4.242
76290W        W48616  22.770  33.555  14.654
76291W        W48617   1.627  11.667   0.383
76292W        W48618  42.600  16.360  14.439
76293W        W48619   4.044  23.186  11.354
76294W        W48620  40.785  20.309   1.875
76295W        W48621  14.141  11.813   1.412
76296W        W48622  28.017  29.137   0.129
76297W        W48623  13.235  32.222   4.969
76298W        W48624   2.341  11.121   4.193
76299W        W48625  20.281   4.128   2.827
76300W        W48626  39.700   1.408   4.487
76301W        W48627  12.360  16.205  10.570
76302W        W48628  35.864  39.571   2.337
76303W        W48629  35.175  13.571  11.611
76304W        W48630  17.130  40.033  11.016
76305W        W48631  41.212   1.672   1.211
76306W        W48632   8.764  28.117   2.253
76307W        W48633  22.254   8.736  11.948
76308W        W48634   6.415   4.377   0.850
76309W        W48635  37.377  15.142  13.762
76310W        W48636  38.531  30.106  10.756
76311W        W48637  16.211  11.330   2.776
76312W        W48638  33.966  35.164   5.423
76313W        W48639  44.762  43.004  10.427
76314W        W48640   1.747  24.006  12.172
76315W        W48641  15.235  40.639   2.093
76316W        W48642  35.099  13.659  14.004
76317W        W48643  25.970  29.642   3.736
76318W        W48644   5.031  20.783   4.365
76319W        W48645  44.341   5.195   3.548
76320W        W48646  40.757  30.690  12.172
76321W        W48647  42.516   5.326   2.211
76322W        W48648  38.277   5.371  14.563
76323W        W48649   8.689   0.888  14.901
76324W        W48650  23.008  38.864  13.735
76325W        W48651  11.981  28.389   4.578
76326W        W48652  26.749  44.752  12.108
76327W        W48653  34.081  14.795   0.059
76328W        W48654   6.314  25.615   4.611
76329W        W48655   5.834   0.123  11.427
76330W        W48656  25.501  20.931   2.386
76331W        W48657   4.301  10.290  12.553
76332W        W48658  24.015  22.183  13.168
76333W        W48659  15.219  21.554  11.015
76334W        W48660  38.498  22.988   1.819
76335W        W48661  32.873   2.980  11.104
76336W        W48662  44.024  41.057  10.419
76337W        W48663  12.068   2.538   3.137
76338W        W48664   5.276  34.416   5.142
76339W        W48665  17.348  37.836  13.075
76340W        W48666  25.525   2.490  12.823
76341W        W48667  23.970   7.348   3.643
76342W        W48668  39.285   7.755   3.723
76343W        W48669  25.380  15.028   0.649
76344W        W48670  29.636  38.589   3.326
76345W        W48671  25.268   1.829  12.512
76346W        W48672   7.697  30.890  12.396
76347W        W48673  34.879  24.617  14.984
76348W        W48674  41.571   0.482   4.085
76349W        W48675   7.600   1.203   3.975
76350W        W48676  23.030  25.129   0.985
76351W        W48677  23.946  36.943  10.599
76352W        W48678   5.785  27.023  11.946
76353W        W48679  27.946  43.939   1.659
76354W        W48680   4.887   2.001   1.837
76355W        W48681  10.773  29.711  13.536
76356W        W48682  36.493  32.449   0.524
76357W        W48683  27.747  29.782  14.380
76358W        W48684  26.903   6.684   1.443
76359W        W48685  43.534  42.924  11.096
76360W        W48686   9.505  15.004  14.880
76361W        W48687  24.793  13.763   4.459
76362W        W48688  27.922  33.114   4.672
76363W        W48689   0.682  23.059   9.817
76364W        W48690  35.136  34.978   5.043
76365W        W48691  17.643  40.516   2.141
76366W        W48692  27.677   4.779  11.713
76367W        W48693   3.693  22.232   1.255
76368W        W48694  15.627  36.406   1.365
76369W        W48695  34.057   4.818  14.747
76370W        W48696  32.371  20.775   1.453
76371W        W48697  19.246  41.350  11.058
76372W        W48698  22.252  30.102  10.469
76373W        W48699  34.852  29.800   3.684
76374W        W48700  44.940  34.631  11.785
76375W        W48701  18.055  42.322  14.377
76376W        W48702  43.223  22.975   1.393
76377W        W48703  10.860  33.195   0.386
76378W        W48704  29.038  11.635   2.281
76379W        W48705  18.682  17.295  13.887
76380W        W48706  14.100  29.561   3.603
76381W        W48707  28.556  30.223  14.928
76382W        W48708  28.827  14.094  11.593
76383W        W48709   3.976  10.817  13.370
76384W        W48710  21.693   8.736   3.688
76385W        W48711  21.488   7.750   3.169
76386W        W48712  20.698  26.945   0.905
76387W        W48713  44.224  36.115   2.250
76388W        W48714  18.685  29.494  13.730
76389W        W48715  41.415  20.803   3.018
76390W        W48716  44.221  39.020  13.501
76391W        W48717   3.812  23.291  12.627
76392W        W48718  21.988   0.991  12.984
76393W        W48719  15.594  22.149  13.837
76394W        W48720  20.974  34.191  14.097
76395W        W48721  38.316   9.984  11.560
76396W        W48722   0.077  27.124   4.910
76397W        W48723  28.517  26.371   3.099
76398W        W48724   1.105  10.909  14.832
76399W        W48725  26.305  16.016   4.343
76400W        W48726  20.295  24.067  14.226
76401W        W48727  31.987   1.968  13.747
76402W        W48728  24.204  37.341   9.692
76403W        W48729  22.252   6.788  14.002
76404W        W48730  23.492  21.568  13.835
76405W        W48731  12.287  24.470   1.428
76406W        W48732  28.397  44.296   3.447
76407W        W48733  23.115  17.190   1.311
76408W        W48734  35.993  40.649  11.590
76409W        W48735  12.373  13.884   2.329
76410W        W48736   7.350  44.668  10.435
76411W        W48737   7.318  40.132  12.378
76412W        W48738  37.897   4.564   2.300
76413W        W48739  15.477  41.218  10.729
76414W        W48740   4.397  31.151  11.480
76415W        W48741  43.518  15.963   2.332
76416W        W48742   2.948  11.274   2.360
76417W        W48743  24.402  10.868  12.634
76418W        W48744  11.461  33.479   5.074
76419W        W48745  41.899   4.179   0.722
76420W        W48746  18.761  42.498   2.520
76421W        W48747  34.039  43.232   1.906
76422W        W48748  35.439  25.452   0.222
76423W        W48749  42.056  36.063   3.015
76424W        W48750   7.461  25.574  10.646
76425W        W48751  21.318   8.473  12.821
76426W        W48752  12.689  28.881  10.961
76427W        W48753   7.853   4.826   1.700
76428W        W48754  33.961   1.329  14.307
76429W        W48755  29.051   4.711   3.059
76430W        W48756  42.277  17.536   2.888
76431W        W48757   7.161  39.868  13.318
76432W        W48758  30.671   2.207  11.022
76433W        W48759  41.865  42.267   1.383
76434W        W48760   1.789   4.399   9.717
76435W        W48761  15.485  34.263   3.132
76436W        W48762   2.802  31.820  11.141
76437W        W48763   9.451  27.707   2.648
76438W        W48764  14.323  35.895   5.513
76439W        W48765  29.873  28.192  10.749
76440W        W48766   0.754   1.862  12.356
76441W        W48767   0.814   8.465  13.827
76442W        W48768   6.648  13.060  11.190
76443W        W48769  12.695   2.361   3.764
76444W        W48770  29.532  35.881   1.768
76445W        W48771   0.451   8.890   0.631
76446W        W48772  27.958   0.846  10.452
76447W        W48773  16.184  19.707  14.219
76448W        W48774   9.265   3.510  14.001
76449W        W48775  37.040  28.981   3.494
76450W        W48776  40.366  23.310   3.271
76451W        W48777  22.606  11.292  10.620
76452W        W48778  23.078  34.991  11.609
76453W        W48779  10.846  22.616  14.599
76454W        W48780  32.919  31.695  12.098
76455W        W48781   6.356  15.886  11.283
76456W        W48782  10.954  34.481  14.739
76457W        W48783  24.462  43.556  12.574
76458W        W48784  31.033   0.882  10.672
76459W        W48785   9.078  14.842  12.955
76460W        W48786  44.022   7.155  12.492
76461W        W48787  19.749  29.670   4.389
76462W        W48788  40.173  42.852   3.681
76463W        W48789  24.164  31.608   4.135
76464W        W48790  14.211  24.612   3.325
76465W        W48791  27.733  37.338   1.341
76466W        W48792   2.750  18.501  14.830
76467W        W48793  25.724  44.482   4.015
76468W        W48794  10.357  17.285  13.330
76469W        W48795  44.378   2.059  13.223
76470W        W48796   6.649  12.308   4.816
76471W        W48797   2.505  17.597   3.797
76472W        W48798  26.243  32.296  10.963
76473W        W48799  41.257   9.214  11.179
76474W        W48800   0.972  17.355  11.365
76475W        W48801  39.568  39.458  11.917
76476W        W48802  28.365   4.368  12.013
76477W        W48803  29.992  14.927   4.090
76478W        W48804  42.347  19.708  13.816
76479W        W48805  33.897  18.960  12.628
76480W        W48806  16.503   1.983  11.502
76481W        W48807  39.555  16.760  14.844
76482W        W48808   1.777  25.377   3.711
76483W        W48809  24.045  40.775  13.047
76484W        W48810  30.582   8.012  13.554
76485W        W48811  19.163  42.239   2.801
76486W        W48812   0.350  31.705  14.251
76487W        W48813  15.695  30.695   1.214
76488W        W48814  29.436   3.959  12.512
76489W        W48815  42.065   7.459   1.775
76490W        W48816  35.315  43.720  14.599
76491W        W48817  13.323   8.384  11.041
76492W        W48818  38.025   0.922   0.166
76493W        W48819   0.191  16.607  12.612
76494W        W48820  35.056  37.807  14.862
76495W        W48821   7.184  44.800   2.392
76496W        W48822  27.695  38.111  12.050
76497W        W48823  26.096  18.699   2.735
76498W        W48824   7.451  25.476   2.419
76499W        W48825  38.880  24.045  10.282
76500W        W48826  21.209   1.696   0.906
76501W        W48827   5.431   5.885   4.909
76502W        W48828  18.136  13.596   0.298
76503W        W48829   7.897  21.194  10.080
76504W        W48830  19.707  26.898   1.996
76505W        W48831  14.594  31.797   1.198
76506W        W48832   4.226  40.260   3.478
76507W        W48833  21.700  36.369   2.939
76508W        W48834   3.555   8.949   5.470
76509W        W48835   9.812   4.138  12.547
76510W        W48836  41.394  31.163  12.311
76511W        W48837  44.498  26.144  13.526
76512W        W48838  21.482   0.230  11.842
76513W        W48839  15.998  36.799   2.847
76514W        W48840  38.765  27.104  13.745
76515W        W48841  40.694  42.416  11.203
76516W        W48842  31.453  11.678   2.674
76517W        W48843  37.952  31.646   4.722
76518W        W48844  43.338  26.023  13.093
76519W        W48845  13.253  34.515  14.381
76520W        W48846  37.204   7.278  12.826
76521W        W48847  10.915  18.799   0.259
76522W        W48848  43.762  11.387  12.205
76523W        W48849  33.639   7.745  13.401
76524W        W48850  11.537   4.246   2.495
76525W        W48851  24.470  21.070  14.474
76526W        W48852  20.016  43.752  13.466
76527W        W48853  41.562  42.011  10.854
76528W        W48854   6.650  29.382   3.639
76529W        W48855  29.458  38.828  13.071
76530W        W48856  20.554   5.150   2.873
76531W        W48857  33.946  20.296  10.781
76532W        W48858  18.329  24.661   4.577
76533W        W48859  14.834   0.103   3.752
76534W        W48860   1.167  32.530   0.113
76535W        W48861  19.752   8.712   5.112
76536W        W48862   7.879   1.825  10.626
76537W        W48863  41.964  29.650   0.853
76538W        W48864  18.099  42.335  13.549
76539W        W48865  40.214  27.982   1.371
76540W        W48866  11.805  19.438  11.216
76541W        W48867  17.082  24.155  12.739
76542W        W48868   2.414  28.378   2.013
76543W        W48869  26.628  14.601  13.919
76544W        W48870   1.404   1.424   3.954
76545W        W48871  21.415  27.463   4.065
76546W        W48872  32.146  17.707  11.943
76547W        W48873  22.705  10.350   2.403
76548W        W48874  29.647  24.696   0.935
76549W        W48875  36.531  29.459  11.640
76550W        W48876  13.790  22.032  12.404
76551W        W48877  31.537   2.006   2.344
76552W        W48878  11.803  14.726   1.710
76553W        W48879  16.586  36.103   1.374
76554W        W48880   2.318  35.547   3.263
76555W        W48881   4.355  22.340   3.413
76556W        W48882  29.978  36.924  10.745
76557W        W48883   1.235  13.782  11.817
76558W        W48884  10.395  18.460  12.141
76559W        W48885  10.779  22.339   2.845
76560W        W48886  20.742   8.893   3.123
76561W        W48887  25.122  24.113  10.684
76562W        W48888  23.647   2.236   3.671
76563W        W48889  36.223  21.780   2.382
76564W        W48890   6.276   4.047  12.972
76565W        W48891  15.713  30.171  12.041
76566W        W48892  38.547  10.847   2.439
76567W        W48893  20.981  24.624  12.947
76568W        W48894  36.563  18.667   1.198
76569W        W48895  10.181  33.358   4.552
76570W        W48896  17.493  43.985   4.059
76571W        W48897  22.453  15.403   0.343
76572W        W48898  13.057  32.009   4.510
76573W        W48899  25.646   9.031   0.659
76574W        W48900  32.990  37.940   1.827
76575W        W48901   1.137  19.612  14.382
76576W        W48902   2.700  28.668   2.916
76577W        W48903  44.085  42.665  12.553
76578W        W48904   9.784   4.306   1.144
76579W        W48905   5.237   8.921   2.592
76580W        W48906  38.501  28.060  12.427
76581W        W48907  18.196   8.417   0.889
76582W        W48908  31.542  17.283  11.131
76583W        W48909  20.206  24.543  14.064
76584W        W48910  21.320   1.921   2.708
76585W        W48911  36.692   7.290  12.710
76586W        W48912  34.226  36.398   5.118
76587W        W48913  12.673  36.515  12.850
76588W        W48914  14.608  26.260  13.589
76589W        W48915  34.307  40.288   1.424
76590W        W48916   2.795  23.015   4.268
76591W        W48917  11.263  24.754  11.145
76592W        W48918  17.542   3.037  12.600
76593W        W48919   0.823  24.215  14.482
76594W        W48920  26.784  40.983  13.076
76595W        W48921   1.830   1.363   0.132
76596W        W48922  19.535  28.057  12.589
76597W        W48923   7.296  33.028  10.775
76598W        W48924  10.790  28.509   0.404
76599W        W48925  32.663  15.118  10.645
76600W        W48926  15.222  44.247  14.337
76601W        W48927  27.582  25.103   1.191
76602W        W48928   0.663  34.666   1.659
76603W        W48929  36.401  38.841  12.959
76604W        W48930  17.122   5.608   4.368
76605W        W48931   3.716  38.136  14.340
76606W        W48932  37.518  12.867   3.809
76607W        W48933  23.683  23.487  14.922
76608W        W48934   8.105  27.205   4.874
76609W        W48935  31.922  14.789   2.673
76610W        W48936  25.983  12.756   2.330
76611W        W48937   2.622  13.207   2.279
76612W        W48938  42.523   1.383  13.989
76613W        W48939  37.556  42.790  13.047
76614W        W48940   2.254  36.598   3.711
76615W        W48941  19.104  27.766  12.485
76616W        W48942  18.041  34.067  14.795
76617W        W48943  31.904  28.530   1.474
76618W        W48944   5.428  21.990  14.282
76619W        W48945   6.239  34.052   2.662
76620W        W48946  15.151  40.687   1.583
76621W        W48947  15.077  27.250  14.006
76622W        W48948  13.419  19.538  11.995
76623W        W48949  11.049   7.102  14.802
76624W        W48950  30.125   7.376  13.502
76625W        W48951  27.501  31.779  11.379
76626W        W48952  12.618   4.399   3.870
76627W        W48953  13.723  44.052  13.603
76628W        W48954  21.174  31.676  13.481
76629W        W48955  22.720  24.561   1.226
76630W        W48956  34.412  27.434  12.086
76631W        W48957  30.244   2.593   0.001
76632W        W48958  12.442  34.169  11.024
76633W        W48959  37.694   6.376  13.017
76634W        W48960  17.222  15.624   1.853
76635W        W48961  22.492  27.284   2.772
76636W        W48962   5.533  13.320   1.399
76637W        W48963   6.781  26.998  13.070
76638W        W48964  19.266  25.715  12.080
76639W        W48965  10.787  30.227  14.390
76640W        W48966  33.841  25.772   0.337
76641W        W48967  26.679  42.490   0.909
76642W        W48968   7.613  20.093   2.142
76643W        W48969  22.517  39.860  14.408
76644W        W48970  19.770  42.727   3.610
76645W        W48971  43.337  37.768   3.753
76646W        W48972   0.256   2.785   1.288
76647W        W48973  15.971  29.247  12.840
76648W        W48974  43.940  33.963  10.459
76649W        W48975   2.257  30.347  12.002
76650W        W48976   5.860   0.320  14.954
76651W        W48977  26.909   8.290  12.914
76652W        W48978  31.089  44.925   3.176
76653W        W48979   3.993  36.978   0.904
76654W        W48980  40.303  24.165  13.051
76655W        W48981  22.443  37.630  11.640
76656W        W48982   8.458  18.171   0.783
76657W        W48983  18.659  27.240   4.354
76658W        W48984  21.246  18.034  10.639
76659W        W48985  38.555   1.505   3.702
76660W        W48986   8.233  14.104   0.797
76661W        W48987  28.857   0.995   1.150
76662W        W48988   0.888  36.308   2.326
76663W        W48989   2.006  26.065   4.094
76664W        W48990  31.660  33.899   0.760
76665W        W48991   9.250  24.777   3.401
76666W        W48992  35.955  16.299   1.791
76667W        W48993  11.800   0.777  10.748
76668W        W48994  29.706   3.407   4.557
76669W        W48995  35.965  24.703  13.984
76670W        W48996   9.631  18.766   0.259
76671W        W48997  14.360  21.500   1.766
76672W        W48998  15.527   9.472  14.450
76673W        W48999  27.267  42.472  13.074
76674W        W49000  35.102  27.160   4.566
76675W        W49001  21.718  27.659  13.001
76676W        W49002  12.566  29.271  13.388
76677W        W49003  21.589   8.516   4.145
76678W        W49004  24.579   7.717   4.167
76679W        W49005  32.396  20.814  11.116
76680W        W49006   0.744  33.847   3.676
76681W        W49007  17.725  21.492  11.947
76682W        W49008  13.666  22.274   1.795
76683W        W49009  17.257  40.380   3.917
76684W        W49010   5.021  21.660  14.412
76685W        W49011  43.212  16.748  13.844
76686W        W49012  37.089  18.517   4.531
76687W        W49013  20.623  18.862  12.110
76688W        W49014  13.379  33.869   4.777
76689W        W49015   6.733   6.622  14.459
76690W        W49016   6.363   1.229  13.887
76691W        W49017   5.342  19.378  14.698
76692W        W49018   5.801   7.637   4.471
76693W        W49019  33.663  42.820  14.346
76694W        W49020  30.711   4.741  12.497
76695W        W49021  11.818  17.588   2.801
76696W        W49022  27.046   0.829   1.763
76697W        W49023  20.096  28.106  14.084
76698W        W49024  20.392  33.479   4.578
76699W        W49025  22.208  13.572  13.393
76700W        W49026  20.667  40.825  14.039
76701W        W49027  24.007  11.596  10.646
76702W        W49028  41.764  30.696  10.366
76703W        W49029  21.632  23.069  13.477
76704W        W49030   8.598  21.132   2.700
76705W        W49031  28.223   1.218   1.931
76706W        W49032  32.370   3.225   5.033
76707W        W49033  26.116  29.922   2.777
76708W        W49034  24.153  39.316   1.445
76709W        W49035  23.234   1.535  12.044
76710W        W49036  37.406  34.880   1.327
76711W        W49037   1.930   1.528   4.678
76712W        W49038  18.332  23.410  13.865
76713W        W49039  16.568  29.940  13.382
76714W        W49040  38.505   3.741  11.254
76715W        W49041  39.535  28.148  13.426
76716W        W49042  19.503  11.284  11.973
76717W        W49043  27.385   2.281  10.955
76718W        W49044   4.464   0.482  12.466
76719W        W49045  18.472  20.615  11.523
76720W        W49046  22.558  37.047  10.300
76721W        W49047  13.649  18.743  14.509
76722W        W49048  20.583  42.830   1.690
76723W        W49049  21.652  16.364  11.352
76724W        W49050  37.518  24.210   1.102
76725W        W49051   1.460  39.466  10.445
76726W        W49052  31.166  37.996   4.667
76727W        W49053  13.634  15.762  13.758
76728W        W49054   0.346   4.366  13.358
76729W        W49055  19.131  15.330   1.305
76730W        W49056  37.373  36.898   1.618
76731W        W49057  28.666  18.263  11.896
76732W        W49058   6.510   7.521   2.881
76733W        W49059  39.430  34.973   2.282
76734W        W49060  41.871  20.117   3.742
76735W        W49061   6.961   6.377   0.435
76736W        W49062   6.449  26.600   4.725
76737W        W49063  28.933  43.293   0.872
76738W        W49064  37.087  35.678   3.692
76739W        W49065  10.442   4.822   4.578
76740W        W49066  22.827   4.635  10.685
76741W        W49067  16.785  17.654   2.393
76742W        W49068  10.123  25.693   2.347
76743W        W49069   4.040  25.628  13.790
76744W        W49070  37.821   2.248  14.399
76745W        W49071  27.416  25.692   1.201
76746W        W49072  19.161  21.803  14.861
76747W        W49073  29.423  38.942   4.017
76748W        W49074  12.803  27.526  11.124
76749W        W49075  10.368   8.233  10.920
76750W        W49076  24.540  26.199  13.802
76751W        W49077   3.823  27.194  14.429
76752W        W49078   2.446   2.197  14.989
76753W        W49079  31.753   3.935  14.719
76754W        W49080  38.350  38.405   2.645
76755W        W49081  27.139  40.333  11.130
76756W        W49082  33.075  33.163   3.263
76757W        W49083  31.695  29.124  12.434
76758W        W49084  12.890   6.234  11.909
76759W        W49085   7.239  25.514   1.944
76760W        W49086  12.426  43.700  11.023
76761W        W49087  11.529   2.020   0.019
76762W        W49088  27.221  29.752   0.241
76763W        W49089  13.174  36.926   1.135
76764W        W49090  14.230  16.265  10.719
76765W        W49091  14.869  17.099   4.573
76766W        W49092  14.219   8.115   0.629
76767W        W49093   4.750  11.873   4.163
76768W        W49094  12.925  40.022   1.532
76769W        W49095  21.858  35.521   0.877
76770W        W49096   9.521   7.204  13.338
76771W        W49097  38.565   6.014  13.368
76772W        W49098  44.672  27.999  10.139
76773W        W49099  25.266   0.339   1.361
76774W        W49100  30.549  37.891  13.323
76775W        W49101  25.818  17.054  11.199
76776W        W49102  31.058   5.711   1.336
76777W        W49103  41.037  16.227  11.941
76778W        W49104  43.421  19.986   0.459
76779W        W49105  15.331  11.173  10.542
76780W        W49106  33.861  11.082  10.660
76781W        W49107  19.461  39.096   3.733
76782W        W49108   2.500  25.919  13.419
76783W        W49109  44.073  27.626   1.943
76784W        W49110  14.007   3.483   1.253
76785W        W49111  31.645   2.181   4.179
76786W        W49112  35.901  20.544   4.399
76787W        W49113   6.222   6.832   1.330
76788W        W49114  15.802  25.542  14.809
76789W        W49115  41.662  19.666  14.561
76790W        W49116  34.392  26.972   1.425
76791W        W49117  32.208  20.065  11.570
76792W        W49118  14.947  24.690   2.821
76793W        W49119   0.053  24.939  14.778
76794W        W49120  19.067  27.226   0.960
76795W        W49121  33.598   4.023  12.909
76796W        W49122  16.164  35.939   2.634
76797W        W49123  33.529  19.543  13.626
76798W        W49124  13.601  26.535   5.559
76799W        W49125  12.040  13.869   3.697
76800W        W49126  40.252  16.883  12.215
76801W        W49127  39.287  10.609   3.646
76802W        W49128  28.203  15.720   5.126
76803W        W49129  29.027  24.890  10.093
76804W        W49130  11.921  28.405   2.031
76805W        W49131   1.735  39.789   2.444
76806W        W49132   4.941  24.915   0.394
76807W        W49133  21.755  21.563  13.969
76808W        W49134  33.665  15.749  12.568
76809W        W49135  23.169   4.416   4.584
76810W        W49136  42.940  21.505   3.633
76811W        W49137  14.286   4.403   4.018
76812W        W49138  44.527  34.328  12.070
76813W        W49139  15.541  15.754   1.388
76814W        W49140  11.429   2.963   2.446
76815W        W49141   9.915  19.696  13.478
76816W        W49142   3.119   1.461   5.456
76817W        W49143  26.548   6.520   3.778
76818W        W49144  34.963  12.771  10.674
76819W        W49145  21.008  11.549  11.050
76820W        W49146   9.885  28.417   0.400
76821W        W49147  34.336   9.841  11.298
76822W        W49148  37.072  33.423  11.507
76823W        W49149  10.409   2.329   0.803
76824W        W49150   7.211  27.711  14.966
76825W        W49151   0.266   5.418  14.318
76826W        W49152  13.248  28.347  10.791
76827W        W49153   1.675  24.036   0.833
76828W        W49154   2.960  34.664  10.755
76829W        W49155   9.397  44.976   0.434
76830W        W49156  16.384  17.073   2.842
76831W        W49157   2.595  31.561  10.625
76832W        W49158   7.637  44.519   1.677
76833W        W49159   5.706  34.134  14.302
76834W        W49160  17.906  43.815  12.829
76835W        W49161  25.510  13.430   3.205
76836W        W49162  35.500  37.596   2.772
76837W        W49163  42.176   9.952   9.944
76838W        W49164   1.021  27.014   4.129
76839W        W49165  41.116  15.648   3.566
76840W        W49166  30.656   0.170  13.096
76841W        W49167  38.717   1.437   0.943
76842W        W49168  43.112  43.163   2.162
76843W        W49169  44.934  19.570   3.784
76844W        W49170  28.188  16.500  10.265
76845W        W49171  21.457   2.405  14.283
76846W        W49172  18.607  33.502  10.149
76847W        W49173  18.189  38.713  11.682
76848W        W49174  36.199  26.290   4.251
76849W        W49175  19.312   6.165   3.686
76850W        W49176  39.536   2.644  13.807
76851W        W49177  39.738  12.187  11.124
76852W        W49178  39.819  16.264  10.663
76853W        W49179   7.204  31.035   1.825
76854W        W49180  10.426   9.007   2.969
76855W        W49181   2.957  33.079   2.527
76856W        W49182  39.782   0.962   4.205
76857W        W49183  17.163  17.711  13.299
76858W        W49184  12.802  36.442   3.143
76859W        W49185  33.982  14.875   1.045
76860W        W49186  32.517  42.453   0.023
76861W        W49187   4.627  44.377   0.328
76862W        W49188  36.164   3.974  14.640
76863W        W49189  28.549  19.608   0.090
76864W        W49190  44.342  31.920  13.003
76865W        W49191  35.598   3.443   0.866
76866W        W49192  13.229   4.525  13.837
76867W        W49193  35.423  12.548  11.183
76868W        W49194  14.499  17.291   3.645
76869W        W49195  19.853  10.468   3.391
76870W        W49196  20.904  28.631   1.853
76871W        W49197   5.804  33.913  10.633
76872W        W49198   0.259   3.408   3.818
76873W        W49199  23.171  40.286   1.206
76874W        W49200  27.037   5.941  14.762
76875W        W49201   6.254  11.808   3.125
76876W        W49202  40.488  41.959   4.608
76877W        W49203  26.557  40.358  12.838
76878W        W49204  10.042  11.064   2.441
76879W        W49205  26.414  16.565   2.970
76880W        W49206  36.001  15.861  13.585
76881W        W49207  22.477  20.015   2.023
76882W        W49208  14.577  40.971  11.236
76883W        W49209  17.624  23.468   3.201
76884W        W49210  15.104   6.854   1.396
76885W        W49211  14.747   4.308  12.275
76886W        W49212   6.273   8.216   3.819
76887W        W49213  36.893  16.567   3.748
76888W        W49214  21.210  32.335   3.774
76889W        W49215  27.728  34.222   2.401
76890W        W49216   8.905  27.965   4.622
76891W        W49217   8.231  11.887  14.713
76892W        W49218  22.527   1.922  14.826
76893W        W49219  39.281  29.542   0.868
76894W        W49220   4.006  22.797  14.312
76895W        W49221  32.016  11.763   4.149
76896W        W49222  14.308  37.493  12.164
76897W        W49223  12.170  27.416   4.630
76898W        W49224   5.292  30.566  12.545
76899W        W49225  26.129  11.712  12.453
76900W        W49226  27.397   5.169  11.520
76901W        W49227  14.123  10.056  13.744
76902W        W49228  32.271  32.520   3.222
76903W        W49229   9.473   6.943   0.352
76904W        W49230   7.343  20.217   4.258
76905W        W49231  20.414  31.444   1.952
76906W        W49232  29.249  17.248  10.690
76907W        W49233   7.912  42.279   1.023
76908W        W49234  19.125  14.357  11.516
76909W        W49235  15.961  24.077   4.637
76910W        W49236   7.692  30.814   1.831
76911W        W49237  22.167  26.018  11.519
76912W        W49238  40.335  32.948  10.600
76913W        W49239  11.860  25.763  12.328
76914W        W49240  42.065  33.567   3.168
76915W        W49241  41.946  42.281  10.634
76916W        W49242  26.415  19.823  12.943
76917W        W49243  11.795  44.246   3.258
76918W        W49244   4.544  26.550   1.959
76919W        W49245  24.598   3.648   3.209
76920W        W49246  14.941  24.231   4.490
76921W        W49247   8.806  24.262   4.676
76922W        W49248  30.952  10.133   4.863
76923W        W49249  23.225  38.135  12.615
76924W        W49250   4.157  38.308  12.170
76925W        W49251   2.741  21.054   4.569
76926W        W49252  40.490   1.475   2.173
76927W        W49253  11.500  42.996   0.578
76928W        W49254  25.144   7.678  11.093
76929W        W49255  29.610  30.687  11.619
76930W        W49256  34.561  12.240   2.170
76931W        W49257  30.535   7.332   2.659
76932W        W49258  38.590  44.192   4.442
76933W        W49259  33.295  20.351   0.197
76934W        W49260  27.223  23.392  12.399
76935W        W49261  36.705  34.140   4.983
76936W        W49262  39.566  34.626  12.926
76937W        W49263   3.707  15.993   2.039
76938W        W49264  28.586   1.486  12.485
76939W        W49265   3.900  15.202   0.949
76940W        W49266  40.447  13.876  12.556
76941W        W49267  34.821   8.183  12.669
76942W        W49268  33.699  24.178  13.403
76943W        W49269  28.992   5.928   4.636
76944W        W49270  25.464   0.504  12.923
76945W        W49271   9.173  32.649   2.400
76946W        W49272   6.188  30.782   4.120
76947W        W49273  12.382  32.099  10.942
76948W        W49274  31.901  14.360  12.935
76949W        W49275  13.811   8.590  11.061
76950W        W49276   3.360  14.879   3.751
76951W        W49277  24.636  30.975   0.162
76952W        W49278  41.084  26.084  13.470
76953W        W49279  36.780   9.821   1.773
76954W        W49280  15.764  33.603  13.303
76955W        W49281   0.310  31.101   1.500
76956W        W49282  16.330  14.247   4.477
76957W        W49283  21.443   0.753   1.266
76958W        W49284   5.958  20.221   3.173
76959W        W49285   8.841  21.592   2.790
76960W        W49286  32.578  37.648  13.937
76961W        W49287  32.368  32.693  12.947
76962W        W49288  40.070  27.508   0.022
76963W        W49289   0.896   5.230   4.742
76964W        W49290  35.120  31.578  10.733
76965W        W49291   1.830  30.544  11.038
76966W        W49292   8.700  42.018  14.663
76967W        W49293  14.822  23.158   0.925
76968W        W49294  18.381   5.299   0.796
76969W        W49295  37.467  13.147   4.224
76970W        W49296  32.051  39.273   0.384
76971W        W49297  43.091  42.320   2.253
76972W        W49298  37.585  31.555  11.305
76973W        W49299  15.343  31.438   1.807
76974W        W49300  42.087   6.743   0.309
76975W        W49301  12.694   8.791  11.506
76976W        W49302  43.489  11.873  13.800
76977W        W49303   7.868   1.189  13.255
76978W        W49304  37.721  10.158   1.776
76979W        W49305  12.820  10.389   3.160
76980W        W49306   9.834  28.172  12.589
76981W        W49307  16.274  10.388   4.545
76982W        W49308  16.622  11.483   4.251
76983W        W49309  15.000  27.202  12.727
76984W        W49310   4.375  16.040   1.288
76985W        W49311  29.024  30.437  12.972
76986W        W49312  17.820  39.871   0.683
76987W        W49313  16.310  44.806  14.896
76988W        W49314  19.031  10.431   4.544
76989W        W49315  13.762  11.105   4.168
76990W        W49316   4.182  44.886  14.273
76991W        W49317   8.252  43.817  12.134
76992W        W49318  19.749   4.963  12.623
76993W        W49319  31.973   8.926  10.705
76994W        W49320  23.705   9.658  14.910
76995W        W49321  39.472  31.154  14.496
76996W        W49322  34.467  34.115  11.425
76997W        W49323  28.384  29.585   1.471
76998W        W49324  15.282   7.680   2.704
76999W        W49325   5.839  38.910   2.284
77000W        W49326  24.612  40.091  14.875
77001W        W49327   6.916  38.257  12.002
77002W        W49328  27.100  31.342  11.607
77003W        W49329   6.463   6.814  10.556
77004W        W49330  30.003  16.787   0.543
77005W        W49331  22.199  28.747   0.665
77006W        W49332  38.392  27.433  13.610
77007W        W49333  29.254  37.852  12.401
77008W        W49334   9.166  10.221   3.237
77009W        W49335  32.839  39.292   2.157
77010W        W49336   6.384  23.483  13.074
77011W        W49337  44.754  20.778  10.632
77012W        W49338   8.178  19.587   0.267
77013W        W49339   2.480  30.956  14.766
77014W        W49340  34.409   5.480   3.216
77015W        W49341  36.500   0.307   3.812
77016W        W49342   5.871  41.556   0.256
77017W        W49343  35.023  24.058  11.900
77018W        W49344  28.208  43.325  13.265
77019W        W49345  16.753  17.159   4.348
77020W        W49346   1.792   9.360  11.591
77021W        W49347  26.665  42.873  10.552
77022W        W49348  43.086  24.898  11.152
77023W        W49349   5.995   6.331  12.603
77024W        W49350  15.648  27.135   2.866
77025W        W49351   8.732   5.460   2.711
77026W        W49352  44.797   1.490   1.771
77027W        W49353  22.159  20.235  14.727
77028W        W49354  41.325  42.817   2.926
77029W        W49355  16.158   3.160  11.199
77030W        W49356  18.253  34.557   2.826
77031W        W49357  32.468  43.284   4.517
77032W        W49358   0.457  33.054   3.079
77033W        W49359  27.656   2.165   4.517
77034W        W49360  38.937  43.987  12.961
77035W        W49361  24.266  44.922  12.691
77036W        W49362  25.943  31.994  13.844
77037W        W49363  15.771  39.086  11.993
77038W        W49364   6.709  32.719   3.225
77039W        W49365   4.683  20.358   4.212
77040W        W49366  28.424  23.264   1.122
77041W        W49367  29.140  16.359  13.058
77042W        W49368   2.183  33.092  14.359
77043W        W49369   9.698  23.475   1.917
77044W        W49370  12.225   9.191  13.618
77045W        W49371  32.028  17.433  12.405
77046W        W49372  34.390  24.155   1.804
77047W        W49373   0.844   0.432  11.499
77048W        W49374  10.605  24.438   2.270
77049W        W49375  35.860  13.858   0.857
77050W        W49376  41.316  35.890  10.570
77051W        W49377  19.747   9.637  13.459
77052W        W49378  31.344   0.716   1.721
77053W        W49379  27.071  28.420   0.926
77054W        W49380  37.992  14.010  10.523
77055W        W49381   0.561  24.908  12.996
77056W        W49382   0.405  15.593  14.314
77057W        W49383  31.171  30.520   1.143
77058W        W49384  10.833  21.800   2.726
77059W        W49385  18.256   3.362  13.549
77060W        W49386   5.402  33.985   0.555
77061W        W49387   6.634  37.457   3.633
77062W        W49388  42.579  15.667   3.677
77063W        W49389   3.755   6.667  13.939
77064W        W49390  12.293  17.542  13.971
77065W        W49391   4.877  23.334   4.035
77066W        W49392  27.246  28.493  11.496
77067W        W49393   1.238   1.926  12.220
77068W        W49394  21.985   3.977   4.038
77069W        W49395  14.083  30.917  13.460
77070W        W49396  27.483  29.875   3.528
77071W        W49397   9.057  40.173  12.905
77072W        W49398   1.373  25.410   0.727
77073W        W49399  21.504  29.880  14.472
77074W        W49400  31.881  13.808   1.938
77075W        W49401  32.626  35.396   3.060
77076W        W49402  32.534  12.214   3.928
77077W        W49403  43.884   7.875  11.727
77078W        W49404   6.152  38.071   4.574
77079W        W49405  44.570  10.902  14.865
77080W        W49406  13.293  37.421   2.838
77081W        W49407  41.127   0.418   4.574
77082W        W49408  33.003   8.764   1.794
77083W        W49409  44.650  34.059  11.090
77084W        W49410   4.393  35.698   2.624
77085W        W49411  41.992  29.448   1.762
77086W        W49412   8.695   3.826   2.805
77087W        W49413   3.895  22.276  11.521
77088W        W49414  16.081  15.958  13.980
77089W        W49415  25.127  38.897  10.635
77090W        W49416  10.801  20.549  11.934
77091W        W49417  32.103  31.537  10.508
77092W        W49418  29.486  32.148   3.325
77093W        W49419  30.408  12.301  12.339
77094W        W49420  27.049  41.939  12.381
77095W        W49421  15.507  33.857  11.496
77096W        W49422   0.377   3.314   2.996
77097W        W49423  11.171  28.068  12.460
77098W        W49424   5.244   6.353  10.719
77099W        W49425  35.444   7.913   1.704
77100W        W49426   4.949  28.752  14.540
77101W        W49427   3.581  32.768   3.208
77102W        W49428  18.217  14.081  13.496
77103W        W49429   9.419  41.534   0.976
77104W        W49430  30.334   4.775   2.657
77105W        W49431  43.433  24.914   2.830
77106W        W49432  10.055  29.416   1.131
77107W        W49433  42.136  37.438  12.930
77108W        W49434  14.354  21.015   2.681
77109W        W49435  12.342  19.920   3.228
77110W        W49436   5.847  10.636   0.245
77111W        W49437   5.209  25.984  14.402
77112W        W49438  22.635  20.798  11.172
77113W        W49439  19.097  30.849  13.405
77114W        W49440  27.438  19.138   3.168
77115W        W49441  35.158   9.389   4.919
77116W        W49442  16.604  22.264   4.393
77117W        W49443  23.937  32.661  12.010
77118W        W49444  25.052  23.005  13.577
77119W        W49445  23.488  43.572  12.842
77120W        W49446  31.617  17.128  10.637
77121W        W49447  42.545  17.231   4.122
77122W        W49448   3.771  18.054  13.119
77123W        W49449  36.296  20.564  12.434
77124W        W49450  38.451   1.890   0.853
77125W        W49451  17.161  44.280  10.322
77126W        W49452  34.677  28.621  11.482
77127W        W49453  37.317  10.710   0.649
77128W        W49454   5.208  32.869  11.976
77129W        W49455  35.049   0.309  13.308
77130W        W49456   6.275  17.832  12.429
77131W        W49457  35.946  44.759   2.717
77132W        W49458   9.200  14.168  10.680
77133W        W49459  41.376  25.642  14.453
77134W        W49460  35.438   1.144  13.206
77135W        W49461  29.952  16.692  11.173
77136W        W49462  33.747  16.178   4.039
77137W        W49463  28.002  16.796   2.987
77138W        W49464  12.099  26.182  12.527
77139W        W49465  40.870  12.568  12.812
77140W        W49466  11.315  22.625   3.880
77141W        W49467   9.577  44.574  13.958
77142W        W49468  13.182  32.501  10.949
77143W        W49469   9.689  42.984   0.902
77144W        W49470   7.469  17.098   0.260
77145W        W49471  18.299  10.244   0.824
77146W        W49472  35.282   1.955   4.076
77147W        W49473  32.431  38.806   2.646
77148W        W49474   5.658  35.382   2.784
77149W        W49475  10.453  34.510  12.146
77150W        W49476   1.079  44.504  13.468
77151W        W49477   6.087  14.382  13.858
77152W        W49478  39.024  14.828   2.162
77153W        W49479  32.117   0.852   3.605
77154W        W49480  19.570  16.720  12.904
77155W        W49481  37.777  27.383   1.900
77156W        W49482   1.276  24.449  14.300
77157W        W49483   6.847  36.184   2.391
77158W        W49484  40.710  23.782   4.091
77159W        W49485  25.265  15.632   2.299
77160W        W49486  39.363  30.848  13.146
77161W        W49487  12.241  14.444  11.485
77162W        W49488  30.125   9.889   1.457
77163W        W49489  20.245  33.415   0.496
77164W        W49490  12.064  16.393  13.082
77165W        W49491  38.340  14.555  11.892
77166W        W49492   9.794  41.856   3.683
77167W        W49493  43.012  33.988  13.163
77168W        W49494  43.939  27.876   0.812
77169W        W49495  41.950   4.722  12.170
77170W        W49496  26.212  29.747   3.273
77171W        W49497  44.419   0.194   2.650
77172W        W49498  32.912  32.584  11.822
77173W        W49499  27.748   3.175  11.070
77174W        W49500  27.552  36.932  14.558
77175W        W49501  20.479  11.328  14.934
77176W        W49502  17.154  40.538   2.391
77177W        W49503  11.279   0.699   2.715
77178W        W49504  12.545  18.721   1.202
77179W        W49505  38.752   9.274  10.586
77180W        W49506  27.474  20.611   0.821
77181W        W49507  38.508   7.158  12.469
77182W        W49508  10.272  40.090   1.794
77183W        W49509  11.999   5.360  10.980
77184W        W49510  29.104  19.770  12.517
77185W        W49511   5.946  35.966  12.046
77186W        W49512  30.061  17.616   2.772
77187W        W49513  37.820  28.111   3.248
77188W        W49514  22.223   5.855  13.805
77189W        W49515  30.612  18.222   2.418
77190W        W49516   8.467  33.448  13.061
77191W        W49517  21.499   4.391  12.002
77192W        W49518  36.118  30.896   3.149
77193W        W49519  13.458  26.846  10.527
77194W        W49520  22.078  20.211  10.671
77195W        W49521  39.912  28.591   3.788
77196W        W49522  27.731  34.971   3.199
77197W        W49523  10.222   5.729   3.704
77198W        W49524   9.303  16.815   3.385
77199W        W49525  29.363  31.698   4.893
77200W        W49526  34.810   4.231   0.282
77201W        W49527  34.291   5.055  12.074
77202W        W49528  32.112   2.962  11.906
77203W        W49529  18.166  42.541   3.510
77204W        W49530  41.001  17.777   4.573
77205W        W49531  32.368  13.737   2.839
77206W        W49532  30.002  23.153   4.208
77207W        W49533   4.580  24.213   2.323
77208W        W49534  22.987  14.278   1.895
77209W        W49535   0.344   8.086   3.099
77210W        W49536  23.276  11.224  14.484
77211W        W49537  10.167  14.512  14.825
77212W        W49538  29.134  10.643   2.335
77213W        W49539  44.544  33.558   0.906
77214W        W49540  29.997  30.663  11.241
77215W        W49541   5.700  25.155   0.876
77216W        W49542   9.363  12.291  10.701
77217W        W49543  23.133  26.326   0.417
77218W        W49544  20.471  16.128   4.522
77219W        W49545   4.400  14.140   0.944
77220W        W49546  13.236  28.691  10.230
77221W        W49547  37.346  18.269  14.451
77222W        W49548  16.303  34.996  14.847
77223W        W49549  15.118  23.666   3.659
77224W        W49550  15.793  21.145  10.703
77225W        W49551  32.541  20.533   2.314
77226W        W49552  20.174  18.720  11.866
77227W        W49553  22.479   0.591  12.051
77228W        W49554  25.350  33.384  12.903
77229W        W49555  22.509  31.396  11.127
77230W        W49556  17.868   7.220   1.291
77231W        W49557  39.310  40.947   2.362
77232W        W49558  16.615   7.356   1.964
77233W        W49559  42.778   9.627   3.699
77234W        W49560  18.042   4.339   4.070
77235W        W49561  26.541  15.365   2.237
77236W        W49562  39.108  10.279   4.193
77237W        W49563  31.187   1.000   3.563
77238W        W49564  17.802  44.419  11.007
77239W        W49565  40.487  10.898  12.324
77240W        W49566   0.581   9.679   3.386
77241W        W49567  19.694  35.955   1.861
77242W        W49568  44.281  21.199   0.609
77243W        W49569  30.075   3.150   3.186
77244W        W49570  43.893  35.943  14.800
77245W        W49571  12.813  14.540   1.227
77246W        W49572  34.901  30.730   4.270
77247W        W49573  11.112  23.142   4.746
77248W        W49574  21.705  43.802  12.084
77249W        W49575   7.203  26.036   0.740
77250W        W49576   8.445  17.585   2.555
77251W        W49577  15.732  30.145   0.227
77252W        W49578   2.228  21.034   4.605
77253W        W49579   8.939  25.224   0.044
77254W        W49580  18.254   9.084  13.994
77255W        W49581  16.071  24.010   3.742
77256W        W49582  37.472   4.654   0.927
77257W        W49583  41.815  35.015   3.764
77258W        W49584  44.275  34.886   1.930
77259W        W49585  26.745  25.068   3.226
77260W        W49586  42.803  43.077   5.214
77261W        W49587  22.007  27.429   2.599
77262W        W49588  37.806  21.758   3.326
77263W        W49589  29.267  26.640   2.809
77264W        W49590  20.610  25.871   4.654
77265W        W49591   3.981   1.490  14.313
77266W        W49592  37.958  43.613   3.815
77267W        W49593  34.958  19.569  12.879
77268W        W49594  24.759  43.963  13.546
77269W        W49595  16.595  33.893   0.330
77270W        W49596  38.952  26.080   2.869
77271W        W49597  20.977  25.293   0.817
77272W        W49598  26.459  30.533   4.276
77273W        W49599  24.980   9.298  14.984
77274W        W49600  11.867  16.076  14.808
77275W        W49601  44.155  38.844  12.131
77276W        W49602   3.943   4.856   2.373
77277W        W49603  24.995  20.513   3.720
77278W        W49604  30.938  33.924  12.281
77279W        W49605   0.658   7.672   1.425
77280W        W49606  12.610  24.242  11.720
77281W        W49607  42.857   9.203  11.498
77282W        W49608   6.054  10.185  13.328
77283W        W49609  37.496  23.013   1.260
77284W        W49610  26.686  13.853  14.341
77285W        W49611  44.004  33.463  13.328
77286W        W49612  28.037  43.028  14.982
77287W        W49613  21.011  21.266  11.404
77288W        W49614  28.529  31.866   2.407
77289W        W49615  38.876  41.504   0.402
77290W        W49616  40.776  31.946  14.017
77291W        W49617   9.478  10.870   3.869
77292W        W49618  16.496  23.709  14.888
77293W        W49619  23.178  35.400   1.857
77294W        W49620   8.829   6.133   0.481
77295W        W49621   9.729  19.940   3.838
77296W        W49622  17.673  41.543   4.142
77297W        W49623   3.938  35.665  13.957
77298W        W49624  23.116  26.910  14.477
77299W        W49625  44.900  19.504   1.575
77300W        W49626  35.969  32.920   4.129
77301W        W49627  18.996  38.972   1.905
77302W        W49628  24.174  29.401  14.315
77303W        W49629  34.243  20.477  13.895
77304W        W49630  14.604   6.794  14.819
77305W        W49631  15.917  37.501   0.643
77306W        W49632   5.587   3.352  11.114
77307W        W49633  43.024   9.492   2.839
77308W        W49634  39.108   5.683   1.632
77309W        W49635  17.601   5.710   0.776
77310W        W49636  16.641  35.581   1.340
77311W        W49637  21.331  16.006  11.142
77312W        W49638  16.236  32.353  14.353
77313W        W49639  44.785  11.939   4.419
77314W        W49640  43.290  36.027  11.914
77315W        W49641  36.102  14.159   3.701
77316W        W49642  18.954  21.413  13.732
77317W        W49643   3.019   6.915   4.146
77318W        W49644  42.392  27.168   3.145
77319W        W49645  14.098  42.275   3.909
77320W        W49646  42.622  32.077   3.775
77321W        W49647  23.621  14.607   0.313
77322W        W49648  29.396  36.077  14.510
77323W        W49649  22.800   2.687  13.472
77324W        W49650  43.823  35.045   2.293
77325W        W49651  44.771  17.394   0.197
77326W        W49652  39.121  26.422  14.170
77327W        W49653  40.178   1.009   3.024
77328W        W49654   3.142   8.192   1.369
77329W        W49655  22.072  17.903   4.416
77330W        W49656  23.399  36.455   0.849
77331W        W49657   2.159  16.540   4.188
77332W        W49658  26.963  11.554  14.046
77333W        W49659  27.653  11.727  14.499
77334W        W49660  31.169  13.512  12.428
77335W        W49661   6.235  21.717   1.226
77336W        W49662  28.518  14.280   4.733
77337W        W49663  44.718  24.213   0.419
77338W        W49664  10.163  13.667  11.934
77339W        W49665  26.559  39.495   0.019
77340W        W49666   1.942  28.907  12.579
77341W        W49667   4.196  41.509   0.348
77342W        W49668   8.161  44.323  13.002
77343W        W49669   0.754  15.653   0.461
77344W        W49670  31.222  14.670   3.126
77345W        W49671  22.727  37.963   0.100
77346W        W49672   9.302  22.474  12.417
77347W        W49673  34.418  36.403   3.708
77348W        W49674  32.388  10.682  13.071
77349W        W49675  11.459  19.214  12.121
77350W        W49676   4.921  44.483  12.989
77351W        W49677  30.227  24.138   3.190
77352W        W49678  19.041  21.171  12.928
77353W        W49679  28.743  40.835  10.784
77354W        W49680  34.577  39.573   1.930
77355W        W49681   9.384  12.854  12.799
77356W        W49682  32.357  31.751  12.055
77357W        W49683  42.010  23.428  12.400
77358W        W49684  10.901  31.492  12.424
77359W        W49685  40.379  19.692  12.452
77360W        W49686  38.065  40.078   2.731
77361W        W49687   7.265  17.690   3.811
77362W        W49688  30.906  43.858   0.866
77363W        W49689  39.047  14.438   3.619
77364W        W49690  32.381   9.389   3.371
77365W        W49691  44.900  35.495  11.805
77366W        W49692  34.041  33.500  14.896
77367W        W49693  29.198  30.464  10.667
77368W        W49694  29.188  20.138  11.196
77369W        W49695  13.681  16.137   0.269
77370W        W49696  36.013  14.147  10.481
77371W        W49697  42.058   1.055  10.803
77372W        W49698   9.914  42.790   3.662
77373W        W49699   4.331  35.019   0.485
77374W        W49700   7.887  12.161   1.659
77375W        W49701   1.478  18.332   4.357
77376W        W49702  16.707   7.003   4.620
77377W        W49703   8.384  18.169   3.745
77378W        W49704   6.264  23.981  13.738
77379W        W49705   4.739  39.727   1.210
77380W        W49706  40.376   5.883  12.819
77381W        W49707  36.547  10.550  13.964
77382W        W49708  40.726  38.053   2.022
77383W        W49709  25.685   5.014  13.331
77384W        W49710  34.621  16.843  12.889
77385W        W49711   8.702   5.281   3.196
77386W        W49712  17.622  21.053   2.185
77387W        W49713  34.063  41.763   0.456
77388W        W49714   2.142  15.067  13.814
77389W        W49715  31.473  20.499  12.471
77390W        W49716  28.427  44.867   2.631
77391W        W49717   5.507  39.347   0.203
77392W        W49718   4.434  42.890  14.526
77393W        W49719  19.656   3.721  13.924
77394W        W49720  27.411  19.018  14.488
77395W        W49721   9.569   7.654  12.892
77396W        W49722  13.344   2.333   1.699
77397W        W49723  29.510  39.331  13.066
77398W        W49724  35.049  20.938  11.066
77399W        W49725  35.629  38.990   4.982
77400W        W49726   3.885  38.580  14.565
77401W        W49727  26.755   3.938   2.761
77402W        W49728  38.889  33.457  12.490
77403W        W49729   8.621  31.544   4.532
77404W        W49730  18.323  36.864   2.267
77405W        W49731   6.441  20.906  10.919
77406W        W49732   4.793   5.757  11.431
77407W        W49733  44.830   5.458   3.283
77408W        W49734  32.101  40.371  14.564
77409W        W49735  10.335  35.946  10.726
77410W        W49736   8.886   9.772   3.161
77411W        W49737   1.817  13.221  12.591
77412W        W49738  33.993  39.495  11.028
77413W        W49739  26.640  20.165  13.269
77414W        W49740  43.299  44.012  13.063
77415W        W49741  16.095   0.821  12.676
77416W        W49742  26.129   3.044  11.103
77417W        W49743   3.028  37.593   1.944
77418W        W49744  37.987  30.345   3.605
77419W        W49745   2.008  38.379  11.521
77420W        W49746  22.560  13.701   4.128
77421W        W49747  19.490  36.435  13.649
77422W        W49748  12.159   4.289  12.493
77423W        W49749  26.550  22.819   0.809
77424W        W49750   0.868   9.391  14.856
77425W        W49751  20.351  24.189  13.714
77426W        W49752   7.404  41.007  13.999
77427W        W49753  28.650   4.912   1.873
77428W        W49754   0.830  17.827  12.106
77429W        W49755  16.282  12.969   2.927
77430W        W49756  27.495  33.551  13.710
77431W        W49757  35.283  17.980   0.828
77432W        W49758  38.353  14.225  11.485
77433W        W49759   3.753  14.089  10.555
77434W        W49760  36.988  19.356   4.209
77435W        W49761   3.904   6.355   2.706
77436W        W49762  17.071  37.033  14.818
77437W        W49763   7.155  31.694   4.591
77438W        W49764  31.382  41.938   1.910
77439W        W49765  42.407  18.307   4.695
77440W        W49766  20.695  29.999  13.999
77441W        W49767  14.598   8.723  14.836
77442W        W49768  29.283  24.882   4.588
77443W        W49769  27.252  13.596  11.943
77444W        W49770   1.518  26.181   0.049
77445W        W49771   1.970  23.059   3.182
77446W        W49772   0.536  38.868   1.412
77447W        W49773  11.642  35.115   0.291
77448W        W49774  10.174   1.129  11.927
77449W        W49775  44.947   2.715  13.989
77450W        W49776  17.349  26.188  10.632
77451W        W49777  13.599  41.041   4.794
77452W        W49778   7.711   7.422   1.084
77453W        W49779  20.331  19.916  13.902
77454W        W49780   1.479  40.969   1.410
77455W        W49781  20.431  24.156  12.483
77456W        W49782  13.124  40.083  12.408
77457W        W49783  27.685  42.799   3.258
77458W        W49784  19.104   9.167   1.763
77459W        W49785  40.220   7.663  11.332
77460W        W49786   2.487  11.197  13.972
77461W        W49787  22.596  32.886   4.114
77462W        W49788  19.102  30.012  12.831
77463W        W49789  39.092  39.002  14.787
77464W        W49790  34.068   0.702   2.751
77465W        W49791  30.674  41.803  12.986
77466W        W49792  42.849   0.427  12.974
77467W        W49793  19.210  19.362  11.967
77468W        W49794  29.096  25.104  12.572
77469W        W49795  22.276  23.660   1.747
77470W        W49796  37.915  36.319  12.962
77471W        W49797  10.544  28.795   0.777
77472W        W49798   9.810  39.270   4.739
77473W        W49799  44.390  13.358   2.328
77474W        W49800   5.951   7.567   3.445
77475W        W49801  12.847  16.025   1.357
77476W        W49802   0.767  26.412   0.021
77477W        W49803  38.650   1.702   2.244
77478W        W49804   6.493  39.079  14.534
77479W        W49805   1.902  42.214   0.660
77480W        W49806  38.466  22.901   3.646
77481W        W49807   7.447  13.166  13.907
77482W        W49808   6.780   8.854   2.144
77483W        W49809  29.828  14.310   0.450
77484W        W49810  11.683  13.331   2.279
77485W        W49811  22.021  35.043  13.680
77486W        W49812  25.955   2.424  13.710
77487W        W49813   6.513  36.526  14.332
77488W        W49814  14.401  36.517   3.184
77489W        W49815  44.313  37.984  10.891
77490W        W49816  30.977  21.522   3.376
77491W        W49817  26.709  29.195   2.640
77492W        W49818   7.252   0.932   1.302
77493W        W49819  37.733   0.009  12.831
77494W        W49820  35.137   1.944   1.914
77495W        W49821  35.958   5.726  12.563
77496W        W49822   2.201  44.635  13.222
77497W        W49823  32.005   4.742  12.702
77498W        W49824  30.465   9.728   0.290
77499W        W49825  20.965   4.549   4.679
77500W        W49826  38.131   4.769  12.478
77501W        W49827  40.004  11.842   0.877
77502W        W49828  30.804  28.421  13.301
77503W        W49829  10.156  25.969   2.773
77504W        W49830  23.031  24.978   2.618
77505W        W49831  22.713  11.521   4.223
77506W        W49832  13.706  26.100   2.018
77507W        W49833   4.290  44.843  13.023
77508W        W49834  20.739   4.358   0.839
77509W        W49835  30.383  44.838   2.444
77510W        W49836   4.183  11.050  14.873
77511W        W49837  16.315  43.039   3.182
77512W        W49838  30.168   6.783  12.405
77513W        W49839  35.512   6.952  12.785
77514W        W49840  16.184  33.112   2.534
77515W        W49841  31.066  40.559  13.576
77516W        W49842  44.889  19.044   1.220
77517W        W49843  25.147  28.040   4.144
77518W        W49844  22.611  35.548  12.412
77519W        W49845  13.151   6.141  14.529
77520W        W49846  19.018  34.737  13.883
77521W        W49847  15.456   7.417   3.122
77522W        W49848  11.619  18.184   1.700
77523W        W49849  24.203  28.471  11.582
77524W        W49850  24.638  44.579  11.320
77525W        W49851  42.810  11.815   4.265
77526W        W49852   2.716  23.307   3.846
77527W        W49853  35.641  13.220  12.367
77528W        W49854  12.751  37.996   0.159
77529W        W49855   4.185  44.864   2.310
77530W        W49856  35.295   9.326   2.811
77531W        W49857   0.689  37.784  11.102
77532W        W49858  36.938  17.051   2.356
77533W        W49859  31.959  10.749  12.765
77534W        W49860  36.012   7.710  11.078
77535W        W49861   0.549  33.113   0.345
77536W        W49862  37.514  18.876   4.575
77537W        W49863  44.078   1.520  12.653
77538W        W49864  34.148  25.002  13.835
77539W        W49865  28.450  27.480  11.233
77540W        W49866  24.429  41.421  11.532
77541W        W49867   4.331  28.722   2.282
77542W        W49868  18.833  33.437   3.136
77543W        W49869  42.418  25.220   2.745
77544W        W49870  39.617  23.223   0.385
77545W        W49871  23.102  39.329   0.906
77546W        W49872  27.620  14.159   2.639
77547W        W49873   9.186  33.376  13.985
77548W        W49874  31.121  10.867  14.522
77549W        W49875   1.476  21.281   0.311
77550W        W49876   0.891   9.876  10.821
77551W        W49877  32.248   6.966  11.581
77552W        W49878  20.758  22.484  13.601
77553W        W49879  31.215  14.933   1.277
77554W        W49880  35.451   0.282   3.144
77555W        W49881  37.509  33.964   2.788
77556W        W49882  36.403  30.930  11.539
77557W        W49883  40.867   5.881  14.506
77558W        W49884   1.320  31.408  11.149
77559W        W49885  23.330  44.316   2.296
77560W        W49886  37.746   7.510   2.195
77561W        W49887  12.019  11.159  13.493
77562W        W49888   6.205  37.569   4.710
77563W        W49889  40.820  21.299  12.352
77564W        W49890  22.778  19.973   2.433
77565W        W49891   9.324  19.538  13.976
77566W        W49892  40.769  42.043   1.698
77567W        W49893  40.804  10.877   1.416
77568W        W49894   0.922   3.294   4.176
77569W        W49895   2.701   4.986  13.583
77570W        W49896  41.568   4.505   0.517
77571W        W49897  13.976  24.062  11.508
77572W        W49898  15.277  12.246  14.260
77573W        W49899   6.443  39.623  11.999
77574W        W49900  15.268   2.353  13.422
77575W        W49901  35.463  26.993   1.016
77576W        W49902   3.159  19.693  14.873
77577W        W49903  15.696  16.122   0.354
77578W        W49904  18.697  37.225   1.466
77579W        W49905   3.779   6.793  14.463
77580W        W49906   8.714  18.799   2.619
77581W        W49907   8.428  28.214  14.880
77582W        W49908   2.355  14.818  13.401
77583W        W49909  17.681  28.974   2.216
77584W        W49910  30.031  28.180  12.897
77585W        W49911  38.634  28.928  12.168
77586W        W49912   9.348  12.648   3.357
77587W        W49913   4.297  26.160   0.321
77588W        W49914   7.693  15.696  12.741
77589W        W49915  40.625  25.036  13.062
77590W        W49916   1.959   9.782   2.790
77591W        W49917  41.738   4.943  13.419
77592W        W49918   2.286  34.406   4.133
77593W        W49919  39.375  28.491   2.855
77594W        W49920   9.077  24.919  10.549
77595W        W49921  33.696  41.499   3.166
77596W        W49922  34.926  19.009   0.354
77597W        W49923  35.198  44.229  10.780
77598W        W49924  30.852  33.833   0.377
77599W        W49925  29.364  44.886   2.756
77600W        W49926  31.892  14.631   1.778
77601W        W49927  33.833  37.273   4.626
77602W        W49928  35.137  40.313   1.817
77603W        W49929  12.086  44.354  13.020
77604W        W49930  10.897   8.269   0.407
77605W        W49931   1.992  15.085  13.129
77606W        W49932  37.065  29.099  14.183
77607W        W49933   6.998  27.553  11.683
77608W        W49934  12.616  27.497   3.698
77609W        W49935   7.664  41.212  14.920
77610W        W49936   8.572   1.428   2.297
77611W        W49937   2.938  21.117   9.740
77612W        W49938  29.064  20.673   1.349
77613W        W49939  41.708  25.994   4.976
77614W        W49940  25.193  21.640  12.821
77615W        W49941  28.769  39.565   3.504
77616W        W49942  19.351  38.852   4.595
77617W        W49943  36.579  24.933  14.812
77618W        W49944  22.661   8.448  14.926
77619W        W49945   0.373  11.566  10.835
77620W        W49946  13.106  20.439   3.441
77621W        W49947   8.608  24.737   0.553
77622W        W49948  23.893  10.090  11.587
77623W        W49949  37.371  44.834  11.447
77624W        W49950  33.533  43.330   1.767
77625W        W49951  38.818   0.719   3.148
77626W        W49952  31.579  18.131   0.146
77627W        W49953  24.317   6.769  11.215
77628W        W49954  21.692  16.836  11.123
77629W        W49955  29.065  14.603   1.820
77630W        W49956   3.144  17.960   0.943
77631W        W49957  22.111   0.663   3.245
77632W        W49958  23.188  28.484   1.850
77633W        W49959  14.391  20.814   4.612
77634W        W49960  33.888  20.708  12.073
77635W        W49961   7.604  30.928  10.550
77636W        W49962  27.618  42.785   0.803
77637W        W49963  24.412  12.848  12.751
77638W        W49964  18.021  25.129  12.136
77639W        W49965  27.208  17.712   2.135
77640W        W49966   9.206  44.048  12.388
77641W        W49967   8.614  36.026  12.394
77642W        W49968   3.189  39.370  13.717
77643W        W49969  27.112  14.775  13.991
77644W        W49970  39.469  17.742  13.092
77645W        W49971  11.648  32.646  13.855
77646W        W49972  33.942  19.298   0.414
77647W        W49973  32.071  28.931  13.189
77648W        W49974  44.708  30.995   0.792
77649W        W49975   7.738  19.234   0.879
77650W        W49976  17.139  21.211   1.408
77651W        W49977  18.323  37.134  14.413
77652W        W49978  33.394  30.802  10.790
77653W        W49979  36.706  14.661   3.353
77654W        W49980   7.724  29.860   4.197
77655W        W49981  40.650  12.181   4.174
77656W        W49982  43.008  29.915   1.348
77657W        W49983  12.919   2.889  12.888
77658W        W49984  20.026  27.106  13.003
77659W        W49985   3.797  22.563  14.924
77660W        W49986  34.537  39.352  11.354
77661W        W49987  12.244  34.913   2.271
77662W        W49988   1.428  32.664  13.460
77663W        W49989  14.294  33.046  10.067
77664W        W49990  35.615  29.613   1.318
77665W        W49991  17.700  11.821   1.811
77666W        W49992  28.437  13.408   3.684
77667W        W49993  35.587  34.370   0.457
77668W        W49994   6.770   6.749   2.176
77669W        W49995  14.088  30.245   2.193
77670W        W49996  28.270  15.510  11.437
77671W        W49997  19.341  28.713   2.868
77672W        W49998  32.393  29.814   3.074
77673W        W49999  27.992   0.924  12.955
77674W        W50000  29.399  14.463   0.682
77675W        W50001  18.202   1.391   2.670
77676W        W50002  20.064  42.713  11.457
77677W        W50003   5.681   2.407   0.501
77678W        W50004  21.456   2.651   4.151
77679W        W50005  44.033  15.980  12.476
77680W        W50006  37.870  24.976  13.922
77681W        W50007  32.897  23.602  14.867
77682W        W50008  35.427  10.174  12.698
77683W        W50009  30.404  27.733  14.292
77684W        W50010  18.582  24.314  13.930
77685W        W50011  32.938   0.481  13.411
77686W        W50012   9.873  28.048  12.083
77687W        W50013  31.127  40.533  11.474
77688W        W50014   7.925  26.700   3.564
77689W        W50015   6.401  24.746   2.825
77690W        W50016  11.779  28.908   4.202
77691W        W50017  29.919  34.512  11.156
77692W        W50018  33.093   1.190  12.428
77693W        W50019  23.199   4.493  13.916
77694W        W50020  38.318  35.624   4.657
77695W        W50021   4.390  27.628  14.453
77696W        W50022  25.638  34.627   0.879
77697W        W50023  17.885  33.945  10.845
77698W        W50024  20.085   1.366   4.741
77699W        W50025   1.714  39.829  14.327
77700W        W50026  39.888   5.695  13.316
77701W        W50027  25.434   7.991   2.834
77702W        W50028  16.817   8.730  13.968
77703W        W50029  30.940  32.967  13.296
77704W        W50030  24.180  11.338  12.791
77705W        W50031  24.913   2.942   2.819
77706W        W50032   4.971   9.776   2.300
77707W        W50033  27.557  14.731   2.416
77708W        W50034   3.631  13.970   4.595
77709W        W50035  33.386  24.531   0.346
77710W        W50036   1.423  15.801  12.632
77711W        W50037  30.593  42.372  11.946
77712W        W50038   6.466  12.165   0.881
77713W        W50039  11.697  23.779  14.494
77714W        W50040   5.309  40.296   0.877
77715W        W50041   3.882  36.122  11.645
77716W        W50042  21.410   8.085   2.198
77717W        W50043   8.362   0.456   1.012
77718W        W50044  17.547  28.257   3.673
77719W        W50045  20.473  25.956  13.518
77720W        W50046  16.196  27.047  11.964
77721W        W50047  42.501  28.441   2.753
77722W        W50048   0.752   6.381  12.446
77723W        W50049   5.857   8.490   0.837
77724W        W50050  17.945   1.400   4.937
77725W        W50051  33.975  41.964  13.502
77726W        W50052  42.806  19.491  11.128
77727W        W50053  13.628   7.409  14.430
77728W        W50054  17.315  21.354   1.894
77729W        W50055  11.533  26.689  10.709
77730W        W50056   3.604  28.711  14.612
77731W        W50057   8.909  33.455   0.750
77732W        W50058  36.782  21.131  14.342
77733W        W50059  27.693  41.805   2.339
77734W        W50060  42.460   1.493  14.485
77735W        W50061  43.350   5.779  14.735
77736W        W50062  39.814  43.041   1.247
77737W        W50063  28.443  22.348   4.675
77738W        W50064  37.745  40.441   4.171
77739W        W50065  10.169  38.808   2.119
77740W        W50066  33.698   3.097  13.930
77741W        W50067  35.390  11.264  11.518
77742W        W50068  10.882   1.920  12.649
77743W        W50069  16.079  12.679  12.329
77744W        W50070  13.297  38.481   1.264
77745W        W50071   5.332   3.752   3.207
77746W        W50072   2.779  39.887   3.233
77747W        W50073   0.053  21.246   0.312
77748W        W50074  29.050  25.217  14.876
77749W        W50075  17.707  20.699   0.450
77750W        W50076  18.717   4.040   0.639
77751W        W50077  42.119  34.457  14.491
77752W        W50078  31.612   9.667  14.282
77753W        W50079  26.754   2.282   4.341
77754W        W50080   0.294  24.985   0.352
77755W        W50081  36.019  22.729   3.633
77756W        W50082  27.222   9.428  11.476
77757W        W50083   4.339  27.736   3.251
77758W        W50084  34.950  22.605   2.736
77759W        W50085  30.458  36.016  12.939
77760W        W50086  38.988   4.653   5.115
77761W        W50087  23.117   5.298   3.959
77762W        W50088  17.095  41.420   2.873
77763W        W50089  17.503  26.237   1.354
77764W        W50090  30.935  41.461  13.395
77765W        W50091  32.328   4.702   2.365
77766W        W50092  40.052  20.600   2.773
77767W        W50093  26.896  29.882   1.133
77768W        W50094  24.027   3.903  12.510
77769W        W50095   2.676  14.570   1.622
77770W        W50096  10.770  39.318  13.505
77771W        W50097  36.053  29.583  11.805
77772W        W50098  39.947  28.972  14.740
77773W        W50099   7.318  42.045  13.841
77774W        W50100  13.488   6.397  14.206
77775W        W50101  32.561  26.141  11.233
77776W        W50102  14.116  38.387  12.146
77777W        W50103  30.192  40.879  13.607
77778W        W50104   1.546   9.653   0.483
77779W        W50105  13.346  44.179   3.263
77780W        W50106  25.543  19.825  13.582
77781W        W50107  27.992   7.781   0.371
77782W        W50108  24.240  22.437   1.996
77783W        W50109   2.093   5.777   2.750
77784W        W50110  43.793   6.918  12.898
77785W        W50111  20.160  35.651   1.035
77786W        W50112  28.405  10.003   0.286
77787W        W50113  27.969  44.857  10.558
77788W        W50114  28.574   9.362  12.856
77789W        W50115  28.972  11.645  11.676
77790W        W50116   1.212  18.683   1.518
77791W        W50117   0.721   9.408  10.855
77792W        W50118  30.422  36.974  11.655
77793W        W50119   1.475  44.262  14.267
77794W        W50120   3.499  32.729  14.580
77795W        W50121  16.791  25.666   0.758
77796W        W50122  11.470  16.067  11.910
77797W        W50123  10.537  32.618  12.818
77798W        W50124  25.536   4.240  12.181
77799W        W50125  37.644  10.720   4.240
77800W        W50126   8.852  10.340   4.609
77801W        W50127   8.343  40.265  14.323
77802W        W50128  14.676   4.369   1.410
77803W        W50129  34.335  20.699  12.347
77804W        W50130  40.791  39.368  14.492
77805W        W50131   2.703  37.533   3.236
77806W        W50132  38.825  22.948  12.833
77807W        W50133  14.420  44.906   0.053
77808W        W50134  42.767  40.103   4.774
77809W        W50135   7.936  36.306  13.524
77810W        W50136  11.179  12.180   1.463
77811W        W50137  17.707  38.023  11.138
77812W        W50138  14.101  39.271  10.726
77813W        W50139  37.456   8.287   4.662
77814W        W50140  36.050  14.581  11.564
77815W        W50141   5.996  19.829   0.926
77816W        W50142  42.667   3.462  11.830
77817W        W50143  12.573  40.417   1.437
77818W        W50144  40.986   9.475   3.343
77819W        W50145  40.449  33.101   0.736
77820W        W50146   1.757  31.980   3.250
77821W        W50147  15.257  41.467  11.144
77822W        W50148  34.258   4.981   2.787
77823W        W50149  24.661  14.979  13.837
77824W        W50150   3.673  43.319  12.617
77825W        W50151  16.774  18.612   2.296
77826W        W50152  29.416   8.322  13.849
77827W        W50153  31.449   4.856  11.092
77828W        W50154  40.116  42.597   0.668
77829W        W50155   4.228  37.553   3.887
77830W        W50156  16.226  18.753  12.439
77831W        W50157   2.307  38.329   2.242
77832W        W50158  27.990  24.023  13.723
77833W        W50159   1.205  15.402  12.350
77834W        W50160  10.312  18.755  13.001
77835W        W50161  43.014  11.430   1.684
77836W        W50162  32.080  15.207   2.403
77837W        W50163  15.216  42.543   1.884
77838W        W50164  24.526   1.948  12.037
77839W        W50165  26.501  22.380   4.641
77840W        W50166  25.741  42.923  10.290
77841W        W50167  38.024   8.941  12.438
77842W        W50168  10.630   5.327   1.282
77843W        W50169  21.431  20.820   1.793
77844W        W50170  30.984   6.842  11.932
77845W        W50171   9.252  44.449  12.078
77846W        W50172  19.709   6.153   1.302
77847W        W50173  42.326  18.918   2.585
77848W        W50174   3.910  33.573   2.176
77849W        W50175  10.281  30.259  13.009
77850W        W50176   4.661  15.824   1.641
77851W        W50177   3.880  21.547  14.037
77852W        W50178  19.167  25.993  13.411
77853W        W50179  37.572  21.132   4.725
77854W        W50180  23.575   6.028  14.335
77855W        W50181   8.320   9.666   0.834
77856W        W50182   5.817   4.323  14.541
77857W        W50183  34.844  27.303   3.677
77858W        W50184  21.003  38.112  13.652
77859W        W50185   6.765  29.105  12.103
77860W        W50186  10.860  18.727  14.720
77861W        W50187  30.421  43.217  10.618
77862W        W50188  20.894  38.667  11.926
77863W        W50189  21.596  32.899  14.485
77864W        W50190  20.068  22.324   9.918
77865W        W50191   9.537  18.694  13.460
77866W        W50192  14.689  22.441   3.773
77867W        W50193   2.416  20.996   2.221
77868W        W50194  12.804  23.198  14.318
77869W        W50195   9.410  27.876  14.799
77870W        W50196  21.495  21.137  14.069
77871W        W50197  37.528   0.294  11.220
77872W        W50198   8.100   3.385   4.053
77873W        W50199   9.621  14.852  11.664
77874W        W50200  33.660  36.554   1.227
77875W        W50201  39.097  44.076   4.329
77876W        W50202  26.076  28.932   2.691
77877W        W50203  43.189  19.260  14.715
77878W        W50204  36.779  44.903   3.283
77879W        W50205  20.520  14.619  11.325
77880W        W50206  18.372   4.700   4.248
77881W        W50207  33.689   3.801   0.442
77882W        W50208  29.204  43.909   0.314
77883W        W50209  18.113  34.312  13.855
77884W        W50210  34.310  17.192   2.808
77885W        W50211   6.410  39.071  12.875
77886W        W50212  10.356  13.255   0.327
77887W        W50213  39.388  15.717   0.809
77888W        W50214   1.108  27.007  13.550
77889W        W50215  34.408  17.163  10.948
77890W        W50216  16.087  13.733  13.364
77891W        W50217  10.467   7.265  11.636
77892W        W50218   2.883   6.150   4.045
77893W        W50219   5.603  34.855  12.637
77894W        W50220  17.435  11.620  10.181
77895W        W50221   2.035  33.769   1.935
77896W        W50222  24.023  27.008   2.891
77897W        W50223   5.914  20.505   4.581
77898W        W50224   3.146  19.648   4.720
77899W        W50225  13.601  33.989  13.049
77900W        W50226  42.399  28.708   3.237
77901W        W50227  34.117  29.669   2.418
77902W        W50228  18.097  10.875   4.874
77903W        W50229  19.708   1.108  12.483
77904W        W50230  31.640  35.073  14.388
77905W        W50231  14.190   1.293  11.443
77906W        W50232  23.786  37.055  14.289
77907W        W50233  22.681  26.271   3.695
77908W        W50234   7.462   4.224  12.620
77909W        W50235  40.297  37.367  13.282
77910W        W50236  41.329  12.318  12.813
77911W        W50237  30.429   9.233  10.684
77912W        W50238  12.392  10.952   2.414
77913W        W50239   6.664  11.187   4.718
77914W        W50240   2.465  38.631   4.684
77915W        W50241  24.170   2.801  14.396
77916W        W50242  43.281  33.904   2.324
77917W        W50243  27.460  39.536  13.398
77918W        W50244  14.268  14.344  13.150
77919W        W50245  25.057  17.523   1.961
77920W        W50246  41.376  18.162   3.191
77921W        W50247  15.367   2.749  13.007
77922W        W50248  14.091  17.097   4.544
77923W        W50249  37.961  10.623  13.822
77924W        W50250  25.630  18.565   2.603
77925W        W50251  19.529  28.082   5.465
77926W        W50252  31.120   7.912  12.567
77927W        W50253  18.098  44.061  14.433
77928W        W50254  17.527  20.993  11.930
77929W        W50255   6.317  41.015   4.709
77930W        W50256  22.342  31.649   0.937
77931W        W50257   2.049  39.884   3.620
77932W        W50258  25.956  38.780   2.939
77933W        W50259  42.631  43.003   3.402
77934W        W50260  28.456  22.689  13.370
77935W        W50261  28.177  10.680   0.865
77936W        W50262  39.359   9.079   4.875
77937W        W50263  28.996  34.155   4.875
77938W        W50264  12.319  12.673  13.355
77939W        W50265  30.559  42.092   2.232
77940W        W50266  44.491  33.083   1.179
77941W        W50267  39.378  38.860   4.749
77942W        W50268  30.034  29.244   1.780
77943W        W50269  34.499  13.675   4.520
77944W        W50270  41.004  43.073  11.603
77945W        W50271  42.063   4.383   1.290
77946W        W50272  40.249   4.792  11.441
77947W        W50273   4.198   0.762   1.013
77948W        W50274  13.777  27.640  10.969
77949W        W50275   8.046  16.244  13.389
77950W        W50276  12.552  26.967  14.079
77951W        W50277  28.603  42.394   3.771
77952W        W50278  34.468   4.918  14.453
77953W        W50279  27.335   2.137   2.753
77954W        W50280  13.283  42.803   0.744
77955W        W50281   7.222  38.062   4.569
77956W        W50282  15.353  33.589  14.967
77957W        W50283  37.382  23.198  12.058
77958W        W50284  36.501  11.296  12.438
77959W        W50285  43.299  21.135  13.051
77960W        W50286  21.987   4.407  11.773
77961W        W50287  15.174  27.103   4.219
77962W        W50288  44.530  38.422   4.136
77963W        W50289  32.234  11.097  12.137
77964W        W50290  19.957   6.654   1.830
77965W        W50291   2.431  36.300  11.585
77966W        W50292  25.834   6.374  11.624
77967W        W50293  25.495   7.805   1.023
77968W        W50294  43.007  30.944  13.533
77969W        W50295  39.554  24.076  14.417
77970W        W50296  16.557  19.992   4.648
77971W        W50297  24.339  43.009  13.331
77972W        W50298  18.254  37.811   3.190
77973W        W50299   8.231  23.281  11.102
77974W        W50300  41.260   6.515  14.936
77975W        W50301  16.538  24.895  14.473
77976W        W50302  26.807  13.120  12.005
77977W        W50303   6.169  18.549   0.367
77978W        W50304  41.441  29.675   0.962
77979W        W50305  10.208  16.135  12.295
77980W        W50306  34.836  11.142   0.992
77981W        W50307  12.280  28.672   1.789
77982W        W50308  25.233  21.025   2.836
77983W        W50309  22.720  21.184   3.709
77984W        W50310  42.392  17.197  11.171
77985W        W50311  38.347  37.554  12.158
77986W        W50312  22.581   7.955  14.839
77987W        W50313  37.055   4.646  10.254
77988W        W50314  42.718  15.472   4.126
77989W        W50315  33.594  26.519  12.045
77990W        W50316  27.523  18.581   2.429
77991W        W50317  43.030   8.592  13.066
77992W        W50318   3.839  14.789   4.257
77993W        W50319   1.097  10.671   0.751
77994W        W50320  22.814  44.292  14.547
77995W        W50321  36.588  34.149  13.110
77996W        W50322  16.247  38.057   1.057
77997W        W50323  30.754  23.991   2.750
77998W        W50324   9.597   8.923  11.557
77999W        W50325  42.814  14.817  11.503
78000W        W50326  40.936   7.697   2.304
78001W        W50327  16.155  41.385   2.396
78002W        W50328   2.957   9.793  12.894
78003W        W50329   6.928   2.718  12.821
78004W        W50330  28.622  42.995   4.559
78005W        W50331  30.249  34.023  10.651
78006W        W50332   8.210  10.345  13.238
78007W        W50333  44.354   9.684  10.700
78008W        W50334  24.610  18.055  12.433
78009W        W50335   9.809  43.199  14.947
78010W        W50336  23.242  24.593  11.297
78011W        W50337  25.959  27.287   2.885
78012W        W50338  20.787  33.472   0.468
78013W        W50339  13.427  28.193  14.961
78014W        W50340  42.433  19.376  11.910
78015W        W50341  39.993  11.886   2.762
78016W        W50342  40.225   2.051  13.563
78017W        W50343  41.338  28.045   1.926
78018W        W50344   5.980  24.727   0.994
78019W        W50345  34.167  23.391  13.533
78020W        W50346  18.829  42.312  12.072
78021W        W50347   6.217  12.832  12.921
78022W        W50348   7.727  39.274   4.348
78023W        W50349  44.388  25.678  11.757
78024W        W50350   8.208  33.888   3.245
78025W        W50351  42.766  44.446  14.435
78026W        W50352  17.496  19.662   4.526
78027W        W50353   8.941  39.558  12.048
78028W        W50354  37.778  27.234   4.434
78029W        W50355  12.751  32.006   4.950
78030W        W50356  44.984  23.966  11.137
78031W        W50357  20.314  12.319  13.503
78032W        W50358   0.051  42.455   0.803
78033W        W50359  28.093  15.270   4.100
78034W        W50360   9.710  32.478   1.920
78035W        W50361  30.057  27.985   1.337
78036W        W50362   4.704  40.168   9.946
78037W        W50363  37.558  38.960  12.848
78038W        W50364  14.685  16.984   1.894
78039W        W50365  18.042  13.593  11.149
78040W        W50366  34.327  19.593   0.761
78041W        W50367  20.309  15.042  11.096
78042W        W50368  16.222  37.045   2.464
78043W        W50369  31.519  43.136  12.893
78044W        W50370  27.863  14.243   1.217
78045W        W50371  41.848  39.037   1.333
78046W        W50372  33.315  14.169  13.868
78047W        W50373  13.849   8.834  12.036
78048W        W50374  31.578   4.896  12.006
78049W        W50375  33.141   3.152   2.771
78050W        W50376  39.081  13.715  11.515
78051W        W50377  38.531   7.869  11.950
78052W        W50378  13.734  28.701   2.219
78053W        W50379  17.605  29.744  13.122
78054W        W50380   2.234  39.089  11.919
78055W        W50381  31.674  25.014   3.673
78056W        W50382  38.858  11.569   0.035
78057W        W50383  33.180  16.978  14.308
78058W        W50384  20.656  24.962   4.229
78059W        W50385  30.355  33.513  10.553
78060W        W50386  28.064  42.515   0.740
78061W        W50387  12.267  22.571   3.413
78062W        W50388  29.450   7.725   2.847
78063W        W50389  25.599  27.563  11.887
78064W        W50390  38.545  31.407   0.325
78065W        W50391  26.510  43.215  13.349
78066W        W50392  13.862  10.212   1.400
78067W        W50393  40.763  28.767  14.371
78068W        W50394  39.503  13.789  13.632
78069W        W50395  27.909  20.728  13.822
78070W        W50396   6.845  37.853   0.247
78071W        W50397  24.351  23.978  14.450
78072W        W50398  23.514  21.298   0.448
78073W        W50399  41.121   8.124   1.270
78074W        W50400  37.098   5.686   4.382
78075W        W50401  21.758  18.088   4.028
78076W        W50402  23.626  25.318   4.464
78077W        W50403  19.090   6.124  10.590
78078W        W50404   9.357  40.035   0.829
78079W        W50405   4.183  28.664   1.191
78080W        W50406  17.244  12.116   1.807
78081W        W50407  11.629  14.137   9.883
78082W        W50408  43.636   1.300   1.614
78083W        W50409   5.844  37.236   3.189
78084W        W50410  36.598  32.076   3.690
78085W        W50411   7.654  32.684  11.982
78086W        W50412   6.216  39.594   0.278
78087W        W50413  18.337   7.732  13.763
78088W        W50414  30.683  23.322   0.458
78089W        W50415   5.944  41.291  13.976
78090W        W50416  28.868  16.023  12.064
78091W        W50417  26.713   8.642  12.488
78092W        W50418  19.534  15.187  12.361
78093W        W50419  27.055   1.715   1.731
78094W        W50420  42.109  28.080   1.232
78095W        W50421  31.960  19.100   3.652
78096W        W50422  25.198  20.238  11.888
78097W        W50423   4.416   7.217  14.391
78098W        W50424  18.576  24.957   2.675
78099W        W50425  30.852  10.032  12.424
78100W        W50426  11.276   0.198   2.612
78101W        W50427  20.133  38.647   1.820
78102W        W50428  14.535  29.403   0.909
78103W        W50429  14.692  18.632  13.416
78104W        W50430  43.937  20.050  10.712
78105W        W50431  43.417  33.827   3.188
78106W        W50432  31.441  21.047  10.905
78107W        W50433  18.990  19.118  10.668
78108W        W50434  42.259  36.347   4.698
78109W        W50435  19.217  24.536  10.626
78110W        W50436  21.314   4.159  14.633
78111W        W50437  26.684  25.725  11.651
78112W        W50438  10.103   9.430  13.255
78113W        W50439  23.034  39.053  14.992
78114W        W50440  22.146   9.327  14.514
78115W        W50441  35.255  22.166   2.856
78116W        W50442  23.602  34.845  14.836
78117W        W50443  33.338  36.568   2.819
78118W        W50444  27.031  19.606  11.155
78119W        W50445  21.631   5.659   4.593
78120W        W50446   4.763  22.740   1.836
78121W        W50447  22.777   3.973  13.012
78122W        W50448  36.649  16.225   2.260
78123W        W50449  11.115  38.814   0.748
78124W        W50450   8.316  29.553   2.664
78125W        W50451  10.360  22.509  14.788
78126W        W50452   2.918  10.238  11.137
78127W        W50453  26.419  10.847  13.570
78128W        W50454  40.864   6.141   3.256
78129W        W50455  22.549   5.401   0.874
78130W        W50456  15.674  13.571   3.749
78131W        W50457  13.805  20.867  12.021
78132W        W50458  29.208  32.092   1.731
78133W        W50459  26.292  24.231   4.620
78134W        W50460  42.251  28.156   1.732
78135W        W50461  10.456  19.497   5.141
78136W        W50462   0.441  41.796  13.561
78137W        W50463  18.925  22.398   2.779
78138W        W50464  19.495   0.955   5.135
78139W        W50465  15.392  22.844  13.992
78140W        W50466  13.172  11.071   3.852
78141W        W50467  16.829  30.105  12.948
78142W        W50468  10.325  14.509  11.478
78143W        W50469  17.608  31.933   1.325
78144W        W50470  14.657   4.302   3.621
78145W        W50471  31.923  22.468   3.560
78146W        W50472  13.209  37.029   3.748
78147W        W50473  13.091  44.570  10.572
78148W        W50474  34.079  30.959  13.149
78149W        W50475  37.779  28.060  13.047
78150W        W50476   2.834  44.404   4.634
78151W        W50477  44.495   5.759   4.846
78152W        W50478  20.506   4.400  13.898
78153W        W50479   6.001  23.252  11.702
78154W        W50480  29.653   9.566  14.068
78155W        W50481  20.142  24.273   2.245
78156W        W50482   0.750  16.075  14.014
78157W        W50483  26.910   2.251   0.490
78158W        W50484  14.051  37.874   1.360
78159W        W50485   7.713  25.183   2.775
78160W        W50486  28.989  17.440  14.428
78161W        W50487  31.543  27.995   1.949
78162W        W50488   5.712  42.104  12.497
78163W        W50489   4.211   7.927  12.387
78164W        W50490  19.255  29.532   2.829
78165W        W50491  44.673  12.595  14.542
78166W        W50492  11.705  28.131   2.400
78167W        W50493  33.106  12.123  10.952
78168W        W50494  26.958  25.943  13.402
78169W        W50495  17.107  16.780  12.018
78170W        W50496  39.126  39.820  14.783
78171W        W50497  38.899  18.834  14.926
78172W        W50498  34.480  16.840  14.463
78173W        W50499  25.211  33.841   2.739
78174W        W50500  40.084  27.446  12.360
78175W        W50501  28.714  30.699   3.676
78176W        W50502  41.817  35.914  10.721
78177W        W50503  24.051  12.192  13.884
78178W        W50504  36.835  34.091  10.564
78179W        W50505   1.108  43.488  14.227
78180W        W50506   4.999  27.742   3.790
78181W        W50507  15.741  24.023   0.317
78182W        W50508  18.081  44.955   4.846
78183W        W50509   1.005  11.411   4.225
78184W        W50510  17.157  37.173   4.558
78185W        W50511  29.403  28.559   5.151
78186W        W50512  40.386  29.239  13.521
78187W        W50513   2.125   3.111  13.781
78188W        W50514  20.137  14.902  13.837
78189W        W50515  20.655  31.870  14.305
78190W        W50516  11.258  34.934   3.417
78191W        W50517  27.677   3.805  11.969
78192W        W50518  35.952  19.299  12.531
78193W        W50519  43.268  21.791  14.814
78194W        W50520  40.945   0.075   0.744
78195W        W50521  36.527  30.722   4.509
78196W        W50522   7.414  17.985  12.529
78197W        W50523  43.000  35.181  10.397
78198W        W50524  28.984  16.141   2.271
78199W        W50525   9.737  13.009   2.222
78200W        W50526  38.545  41.909  10.609
78201W        W50527  10.144  25.539   3.377
78202W        W50528  36.376  41.086  11.570
78203W        W50529  29.193  37.858   1.368
78204W        W50530  26.622   0.573   4.873
78205W        W50531  37.434   0.792   3.703
78206W        W50532  25.194  41.046   4.371
78207W        W50533  39.232  17.316  14.794
78208W        W50534  36.905  41.308   3.349
78209W        W50535  42.095  15.587   5.086
78210W        W50536  17.062  33.542  11.980
78211W        W50537   4.667  44.970   3.974
78212W        W50538   7.665  44.111  10.466
78213W        W50539  31.096  35.059  13.390
78214W        W50540  14.653  33.829   2.118
78215W        W50541  16.132   6.853  13.034
78216W        W50542   5.934  36.795  12.942
78217W        W50543  16.610   2.276   2.035
78218W        W50544  17.342  29.172   4.080
78219W        W50545  26.593  36.811   1.705
78220W        W50546   0.362  42.594  12.844
78221W        W50547  12.891  10.027  12.632
78222W        W50548  44.694   5.874  14.527
78223W        W50549  39.563  32.305  13.363
78224W        W50550   8.321  40.442   3.912
78225W        W50551  32.174  40.064  12.570
78226W        W50552  17.595  27.128   1.657
78227W        W50553  16.082   1.726   0.448
78228W        W50554  20.217  12.395   0.425
78229W        W50555  44.698  26.725  10.384
78230W        W50556  12.868  22.844   0.198
78231W        W50557   6.657   2.371   1.335
78232W        W50558   4.675  41.428   2.896
78233W        W50559  29.021  12.887   1.172
78234W        W50560  42.357  21.980  14.505
78235W        W50561   2.704  33.396   2.854
78236W        W50562  25.430   3.787  12.397
78237W        W50563   5.788  18.613   2.703
78238W        W50564  38.400  24.215  13.841
78239W        W50565  18.125  19.213  12.935
78240W        W50566  32.893  31.534  11.599
78241W        W50567  33.063  18.919   4.825
78242W        W50568   5.011  36.873   2.769
78243W        W50569  31.990  13.363  13.850
78244W        W50570   7.617  20.155  11.203
78245W        W50571  41.318  37.396   0.739
78246W        W50572  34.537   7.117   1.965
78247W        W50573  38.626  30.606   3.191
78248W        W50574  16.251  37.099  14.356
78249W        W50575  34.571  41.790   0.326
78250W        W50576  43.781  44.441   0.415
78251W        W50577  40.479  31.463   2.772
78252W        W50578   8.076  39.668   2.382
78253W        W50579  23.307   4.699  12.499
78254W        W50580  15.741  44.245  14.257
78255W        W50581  24.221  24.499  13.509
78256W        W50582  35.933  30.642  14.826
78257W        W50583  10.187   6.688   1.907
78258W        W50584  42.375  44.222  11.632
78259W        W50585   9.478   0.516   1.470
78260W        W50586   1.811  24.007   4.278
78261W        W50587   7.372  44.217  14.765
78262W        W50588  43.851   5.475  11.877
78263W        W50589   8.440  42.213   3.435
78264W        W50590  24.323   6.247   4.660
78265W        W50591  38.695   3.304   1.449
78266W        W50592  34.895  18.084  13.055
78267W        W50593  33.524  32.929   3.227
78268W        W50594  29.819  31.459  12.971
78269W        W50595  33.773  24.576  12.090
78270W        W50596   1.003  23.200  14.899
78271W        W50597  23.647  34.916  11.085
78272W        W50598  43.699  39.089  13.427
78273W        W50599  13.232  44.619   5.021
78274W        W50600  28.169  34.052  11.507
78275W        W50601  13.856   6.209  11.566
78276W        W50602  13.805  32.382   0.308
78277W        W50603  44.857  21.548   0.705
78278W        W50604  10.779  21.956   4.071
78279W        W50605   3.511  35.510   1.359
78280W        W50606  42.089  39.918   1.882
78281W        W50607  21.107  39.632  10.580
78282W        W50608  30.464  27.204   1.232
78283W        W50609  10.787  29.048   2.441
78284W        W50610  36.566  41.276   2.364
78285W        W50611   6.576  22.499  14.777
78286W        W50612  19.788  17.032  11.598
78287W        W50613   4.020  13.640  14.921
78288W        W50614  40.328  24.151   0.527
78289W        W50615  32.693  20.607  10.736
78290W        W50616  34.416  10.286  13.088
78291W        W50617   5.107  29.408   0.246
78292W        W50618  37.501  25.489   4.598
78293W        W50619  40.465  32.761  14.389
78294W        W50620   9.434  23.577   5.190
78295W        W50621  14.288  43.845  10.666
78296W        W50622  27.040  22.659   3.184
78297W        W50623  22.858  22.579   2.037
78298W        W50624  43.684  13.008  13.795
78299W        W50625   7.811  44.370   4.983
78300W        W50626   1.404  11.094  13.485
78301W        W50627  14.707  12.200   3.561
78302W        W50628  22.220  18.594   2.762
78303W        W50629  38.915  27.547  13.516
78304W        W50630  13.570   2.864   3.856
78305W        W50631   1.951   2.193   3.642
78306W        W50632  41.896  37.569   3.085
78307W        W50633  25.978  24.613   0.376
78308W        W50634  26.761   0.566   3.441
78309W        W50635  25.271   7.827  11.587
78310W        W50636   3.892  37.581  14.442
78311W        W50637   2.162  24.048  12.503
78312W        W50638  37.873   3.371  14.371
78313W        W50639  25.662  41.524   0.302
78314W        W50640  25.702  44.549   0.833
78315W        W50641   7.929  38.171  13.255
78316W        W50642  22.586  32.138   0.303
78317W        W50643  20.588  32.282   1.810
78318W        W50644  40.422  33.391   2.965
78319W        W50645   4.878   9.548   1.340
78320W        W50646  40.459  12.865  14.309
78321W        W50647  24.606  34.941  13.516
78322W        W50648  11.093   6.908   4.408
78323W        W50649  39.348  23.596  14.457
78324W        W50650  41.430   5.352  12.013
78325W        W50651  19.077  31.915   1.472
78326W        W50652  20.036  35.856  11.613
78327W        W50653  29.126  32.956  11.580
78328W        W50654  40.370  15.331  12.397
78329W        W50655  11.355  24.322   1.255
78330W        W50656  38.900  32.441   4.554
78331W        W50657   3.277  36.881  13.056
78332W        W50658  11.347  35.268   4.674
78333W        W50659  11.290  43.114  12.343
78334W        W50660  40.412  24.059  11.634
78335W        W50661  28.920  21.478  11.962
78336W        W50662  33.664  38.685   1.878
78337W        W50663  23.396   8.260  11.250
78338W        W50664  39.823  16.848  13.532
78339W        W50665  34.474  27.177   2.792
78340W        W50666   7.683  44.038   3.590
78341W        W50667  38.565  28.315   5.008
78342W        W50668  15.895   3.966  14.371
78343W        W50669   6.249  26.624   0.456
78344W        W50670  25.215  39.835   3.733
78345W        W50671   2.423  44.086   3.328
78346W        W50672  16.647  34.491   1.825
78347W        W50673  32.436  27.868   4.666
78348W        W50674  24.785   4.474  14.718
78349W        W50675  25.765  14.723   3.776
78350W        W50676  33.674  35.169   2.164
78351W        W50677  15.345  30.661  10.604
78352W        W50678  25.456  28.888  13.360
78353W        W50679   8.393  16.513  12.495
78354W        W50680  34.072   9.630   0.150
78355W        W50681  14.528  31.998  12.366
78356W        W50682  31.970  31.421  12.905
78357W        W50683  10.154   5.846  11.584
78358W        W50684  25.637  37.959   4.376
78359W        W50685  15.392  41.976  11.067
78360W        W50686   7.689  19.822   0.272
78361W        W50687  20.811   6.423  14.987
78362W        W50688  29.183   5.781   3.117
78363W        W50689  36.385  19.600   2.147
78364W        W50690   7.737  17.128  13.402
78365W        W50691  16.183  28.163   0.292
78366W        W50692  40.470   4.387   3.249
78367W        W50693  33.491  25.388  12.449
78368W        W50694  28.640  32.439  13.063
78369W        W50695   3.322  28.801   3.696
78370W        W50696  32.304  23.359   1.206
78371W        W50697  29.984  23.998   2.302
78372W        W50698   9.731  23.195  11.730
78373W        W50699  24.549   1.910   4.051
78374W        W50700   3.879  43.898   4.424
78375W        W50701  28.705  20.638   4.614
78376W        W50702  31.882  27.115   1.352
78377W        W50703  10.788  25.230   2.004
78378W        W50704  24.785   2.973   0.530
78379W        W50705   6.546  12.848  13.317
78380W        W50706   6.406  28.400   3.878
78381W        W50707  20.154  22.053  13.056
78382W        W50708  18.741  17.276  12.606
78383W        W50709  42.705  25.546  11.554
78384W        W50710  16.229  20.222   4.273
78385W        W50711  10.216  22.470   3.632
78386W        W50712  40.980  18.124  12.340
78387W        W50713  33.026  34.891   2.932
78388W        W50714  12.573  37.433   0.761
78389W        W50715  28.205  42.964   2.692
78390W        W50716  44.058  35.343   1.751
78391W        W50717  21.007  20.205   4.531
78392W        W50718  14.397  32.109   0.751
78393W        W50719   0.301  21.756   0.922
78394W        W50720  19.222  20.664   2.395
78395W        W50721  43.939  14.107  14.863
78396W        W50722  22.653  17.141   9.986
78397W        W50723  22.058  31.935  11.932
78398W        W50724  19.307  15.660   1.826
78399W        W50725  29.113  14.079   0.924
78400W        W50726  43.525  29.028   1.469
78401W        W50727  43.734  30.144  11.202
78402W        W50728  34.995   1.285  12.942
78403W        W50729  31.546  22.576  14.471
78404W        W50730  23.961  11.113   0.919
78405W        W50731   0.247  43.913   4.076
78406W        W50732  27.557   1.209   4.179
78407W        W50733  29.750  18.751  11.587
78408W        W50734  18.527  23.067   3.200
78409W        W50735  17.443   1.934   3.322
78410W        W50736  22.031  11.704   0.229
78411W        W50737  36.220  27.408   1.746
78412W        W50738  31.981  35.663   0.523
78413W        W50739  32.057   7.727   3.657
78414W        W50740   1.635  22.724   1.822
78415W        W50741  34.499  32.541  14.942
78416W        W50742  23.257  10.923  14.037
78417W        W50743  37.867   5.288  12.848
78418W        W50744   8.842  33.424   4.595
78419W        W50745  40.034  34.219   2.689
78420W        W50746  42.473   0.336   4.527
78421W        W50747  36.794  27.270  12.444
78422W        W50748  37.049  44.641  14.406
78423W        W50749   3.701   4.052   4.263
78424W        W50750  40.440  17.076  10.989
78425W        W50751  15.555  13.002  13.454
78426W        W50752  19.503  30.071  13.132
78427W        W50753  17.559  14.094  11.647
78428W        W50754   4.375  33.279  10.712
78429W        W50755  26.868  25.242   1.916
78430W        W50756  39.984  15.922  14.456
78431W        W50757  36.170  44.354  10.763
78432W        W50758  21.707  14.081  12.073
78433W        W50759  24.082  13.640   3.862
78434W        W50760  26.116   2.634  10.715
78435W        W50761  38.486  20.042  13.240
78436W        W50762  23.428  23.435  13.497
78437W        W50763  37.359  15.838  11.573
78438W        W50764  12.579  40.850  13.347
78439W        W50765  26.556  12.820   2.381
78440W        W50766  10.979  42.058   0.848
78441W        W50767  31.514  36.867   2.551
78442W        W50768   3.329   6.980  12.908
78443W        W50769   9.800  12.848   3.583
78444W        W50770  19.554  27.943   1.897
78445W        W50771   3.805   3.988   1.417
78446W        W50772   4.887   3.257  12.534
78447W        W50773   9.149  41.217   0.069
78448W        W50774  23.051  13.113  11.274
78449W        W50775  10.489  12.320   0.297
78450W        W50776  22.005  37.574   2.365
78451W        W50777  43.500  35.708  13.470
78452W        W50778   3.898  15.595   2.380
78453W        W50779  19.537  18.533   3.390
78454W        W50780  27.171   1.303   0.949
78455W        W50781  42.423  29.956  12.983
78456W        W50782  30.692   7.258   1.752
78457W        W50783  20.659  22.485   3.695
78458W        W50784  23.989  12.740  11.036
78459W        W50785  28.579  34.179  14.956
78460W        W50786   7.439  25.549   1.026
78461W        W50787   1.033  29.966   4.666
78462W        W50788  10.109  24.005   2.697
78463W        W50789  40.121  29.463   2.789
78464W        W50790  28.715  43.013   2.604
78465W        W50791  43.254  17.864   1.387
78466W        W50792  41.714  43.381  12.508
78467W        W50793  24.530   2.397   1.972
78468W        W50794  31.027  36.308  12.201
78469W        W50795   9.256  22.279  11.032
78470W        W50796   9.563  17.276   0.722
78471W        W50797  20.958  44.795   1.249
78472W        W50798  41.100  12.831   2.401
78473W        W50799  15.548  29.685   1.269
78474W        W50800  28.193  24.561   4.756
78475W        W50801  42.570  31.941   2.813
78476W        W50802  13.100   8.425  10.103
78477W        W50803  38.910  38.801  12.291
78478W        W50804  20.807  10.983   4.852
78479W        W50805  24.677  40.463   2.774
78480W        W50806  34.053  30.485  11.896
78481W        W50807  19.311   3.125   1.729
78482W        W50808  25.672  39.090   0.346
78483W        W50809  31.078  32.159  12.957
78484W        W50810  44.477  23.468   0.921
78485W        W50811   1.012  42.552  12.031
78486W        W50812  29.392  37.524   5.051
78487W        W50813  31.374  19.834   3.271
78488W        W50814   8.455  35.592   3.758
78489W        W50815  36.353  33.589  13.442
78490W        W50816  35.575  19.995   2.866
78491W        W50817   5.055   8.238   1.491
78492W        W50818  31.448  42.370  10.667
78493W        W50819   1.037  28.227   1.956
78494W        W50820  25.974  26.071   5.771
78495W        W50821  38.328  32.323   1.786
78496W        W50822  11.375   3.187  13.354
78497W        W50823  35.766  11.082   5.044
78498W        W50824  26.175  12.684  12.984
78499W        W50825  16.343   3.209   2.201
78500W        W50826  41.606  36.821  14.853
78501W        W50827  42.769   7.620  13.972
78502W        W50828   0.723  24.162   2.908
78503W        W50829   7.155   5.871  13.436
78504W        W50830  37.242   2.964  14.642
78505W        W50831  39.382   0.518   0.312
78506W        W50832   1.286  42.711   1.880
78507W        W50833   2.358  16.435   2.931
78508W        W50834   9.155   6.291   3.789
78509W        W50835  12.101   9.200  11.708
78510W        W50836   7.572   7.416  12.071
78511W        W50837  12.097  38.348  11.079
78512W        W50838   1.549  20.615   1.298
78513W        W50839  39.135  42.482   3.852
78514W        W50840  33.108   6.326   3.354
78515W        W50841  13.699  27.045  10.115
78516W        W50842  39.806   1.457   1.829
78517W        W50843   0.694  28.029   4.122
78518W        W50844  44.768   9.283  10.932
78519W        W50845   4.955  44.465   2.226
78520W        W50846   1.968  34.469  10.637
78521W        W50847   7.846  17.651   3.147
78522W        W50848   0.874   6.892  13.793
78523W        W50849  21.570  30.876  11.637
78524W        W50850  19.865  33.858   2.701
78525W        W50851  10.405  36.066   0.875
78526W        W50852  17.199  38.473   0.936
78527W        W50853  14.901  38.015  14.049
78528W        W50854  16.748  14.266  13.983
78529W        W50855  26.109  23.555   3.887
78530W        W50856  17.474  32.111   2.562
78531W        W50857  18.869  25.443   3.285
78532W        W50858  37.314  28.042   3.217
78533W        W50859  27.144  37.994  11.037
78534W        W50860   6.468  18.912   2.896
78535W        W50861  14.066   8.245   1.657
78536W        W50862  26.618  38.163  10.620
78537W        W50863  12.004   4.777   4.014
78538W        W50864  13.395  32.141  10.583
78539W        W50865  41.814  36.774  14.361
78540W        W50866  13.273  23.034  11.743
78541W        W50867   3.371   5.907  12.864
78542W        W50868  43.361  42.405  14.867
78543W        W50869   4.018  26.202  13.584
78544W        W50870  37.478  42.566  11.225
78545W        W50871  34.538  27.398  12.561
78546W        W50872   1.793  18.826  13.172
78547W        W50873  10.184  15.610  10.182
78548W        W50874  38.460  33.887   2.665
78549W        W50875   1.830  21.772   1.898
78550W        W50876  39.304  22.551   0.366
78551W        W50877  44.564  13.138   1.912
78552W        W50878   6.857  26.733  13.536
78553W        W50879  17.018  37.911  13.489
78554W        W50880  34.120  19.568   4.709
78555W        W50881  30.047  29.035   0.463
78556W        W50882   8.741  27.583  11.522
78557W        W50883  20.537  43.864  13.369
78558W        W50884   8.121  28.374  14.203
78559W        W50885  28.491  14.374  14.162
78560W        W50886  30.680   6.303   0.295
78561W        W50887  22.032  34.379   1.663
78562W        W50888  37.592  17.304  14.237
78563W        W50889   6.848   2.798   3.681
78564W        W50890   1.516  22.110  10.544
78565W        W50891  21.680  33.938   1.685
78566W        W50892  20.613   1.404   1.363
78567W        W50893   3.120  13.246  10.731
78568W        W50894  44.705  10.159  11.074
78569W        W50895  17.819  24.132   4.443
78570W        W50896  26.064  39.328   0.745
78571W        W50897  34.889   7.814   0.682
78572W        W50898  40.503   4.174   3.712
78573W        W50899  37.074   2.742  13.191
78574W        W50900  34.041  15.112  10.938
78575W        W50901  20.176  38.088  13.240
78576W        W50902  29.936  21.510   0.840
78577W        W50903  30.606  40.835  10.662
78578W        W50904  20.510  34.914  10.780
78579W        W50905  14.754  36.566  14.937
78580W        W50906  39.498  30.209  14.388
78581W        W50907  20.803  43.114   2.676
78582W        W50908  31.152  13.248  11.031
78583W        W50909   2.465  17.168  10.672
78584W        W50910   6.259  31.921   2.740
78585W        W50911  33.444   2.926  12.452
78586W        W50912  29.448  32.971   4.797
78587W        W50913  36.752  37.061  13.998
78588W        W50914  13.357  12.818  10.812
78589W        W50915  37.480  22.471   3.942
78590W        W50916  20.450  26.498   2.373
78591W        W50917  33.890  24.836   3.915
78592W        W50918  22.762  21.809   2.572
78593W        W50919  25.010   0.942   2.285
78594W        W50920  30.082  17.583  12.629
78595W        W50921  35.446  12.648   4.558
78596W        W50922  10.275  37.492   0.863
78597W        W50923   5.686  22.738  13.539
78598W        W50924  20.505   4.439  12.849
78599W        W50925  30.841   6.867  14.166
78600W        W50926   7.062  41.508  11.696
78601W        W50927  41.017   9.713  13.834
78602W        W50928   6.494  28.455  10.637
78603W        W50929  17.921  21.684  12.383
78604W        W50930   1.534  41.858   1.426
78605W        W50931  14.881  28.102  11.519
78606W        W50932  20.990  21.603   0.973
78607W        W50933  18.186   2.908   2.716
78608W        W50934  39.908   3.702  14.353
78609W        W50935  38.947  23.604   1.493
78610W        W50936  39.480  26.257   1.268
78611W        W50937  10.729   4.641  10.652
78612W        W50938  30.970  40.785  14.022
78613W        W50939  41.907  39.207   0.828
78614W        W50940   0.979   5.225  12.881
78615W        W50941  15.324  38.084  11.130
78616W        W50942  11.914  27.847   1.744
78617W        W50943  39.552  42.798  13.979
78618W        W50944  33.903   7.171  12.038
78619W        W50945  31.897  19.168  12.395
78620W        W50946   7.602  43.382  12.847
78621W        W50947   2.917  23.073  12.070
78622W        W50948  38.937  40.419   3.677
78623W        W50949  16.639  30.424   4.118
78624W        W50950  43.102  21.149   1.413
78625W        W50951   9.827  33.818   0.586
78626W        W50952  34.893  36.064  11.950
78627W        W50953  25.527  15.181   3.819
78628W        W50954  23.213   3.520  12.101
78629W        W50955   9.252  20.747  10.834
78630W        W50956  17.533  39.006   0.920
78631W        W50957  19.564  26.294  13.267
78632W        W50958   4.712   9.553   2.696
78633W        W50959  18.234  12.317   0.780
78634W        W50960  43.552  15.703   4.622
78635W        W50961  15.337   9.365  10.955
78636W        W50962  10.289  23.426  14.373
78637W        W50963  14.675   5.362  11.587
78638W        W50964  43.381  30.034  12.388
78639W        W50965  28.652   1.309   2.735
78640W        W50966  15.592  20.698  13.076
78641W        W50967  13.566   3.980  12.512
78642W        W50968   6.130  41.142  11.947
78643W        W50969  36.783   4.174   4.171
78644W        W50970  12.498   8.946  14.865
78645W        W50971  26.460  40.380   0.441
78646W        W50972  20.483  24.950   3.306
78647W        W50973   6.085   8.716   4.936
78648W        W50974   7.934   0.917   4.619
78649W        W50975  11.246   5.498   3.290
78650W        W50976  33.576  21.603   3.468
78651W        W50977  19.842  38.073   2.729
78652W        W50978   4.723   6.033   2.825
78653W        W50979  33.112  42.811   2.335
78654W        W50980  36.839   1.471  13.798
78655W        W50981  16.543  10.252   0.225
78656W        W50982  24.156  18.605  11.180
78657W        W50983  17.328  37.445   1.210
78658W        W50984  22.167  25.528  11.712
78659W        W50985   8.709  42.285  13.735
78660W        W50986  21.034  44.495  12.021
78661W        W50987   7.407   1.243   3.288
78662W        W50988  17.649  35.454   3.191
78663W        W50989  21.135   1.001   3.132
78664W        W50990  24.691  33.920  11.053
78665W        W50991  44.740  22.186   4.207
78666W        W50992  39.790   2.178  14.467
78667W        W50993   5.313   6.819   2.981
78668W        W50994   3.294  31.444  14.866
78669W        W50995  27.793  14.719  11.527
78670W        W50996  23.827  36.873  12.950
78671W        W50997   4.717  40.024  10.713
78672W        W50998  24.895  36.166  14.134
78673W        W50999  40.095  16.067  11.059
78674W        W51000   3.931   8.027   4.533
78675W        W51001  40.212  24.409  11.241
78676W        W51002  24.235   5.723  11.878
78677W        W51003  30.476  37.519  10.678
78678W        W51004  39.050  36.914  14.480
78679W        W51005  11.103   2.986   2.008
78680W        W51006  41.169   7.214  14.567
78681W        W51007   7.665  31.102  14.523
78682W        W51008   7.734  23.476   1.269
78683W        W51009  23.465  19.035  11.519
78684W        W51010  11.662  29.722   1.131
78685W        W51011   2.680  17.655  12.357
78686W        W51012   1.724  10.483   1.149
78687W        W51013  35.927  14.291  14.323
78688W        W51014   6.390  44.803   3.672
78689W        W51015  14.610   3.724  14.809
78690W        W51016  10.167   6.030   9.571
78691W        W51017  11.682  35.547   3.890
78692W        W51018  44.596   9.696   3.190
78693W        W51019   1.030  36.532  12.533
78694W        W51020  42.894   5.663   2.307
78695W        W51021   0.318  40.788  13.108
78696W        W51022  42.396  33.401  10.720
78697W        W51023  35.078   1.458   2.439
78698W        W51024   2.375   2.535  14.584
78699W        W51025  39.445  30.258   0.003
78700W        W51026   8.809  12.844  10.703
78701W        W51027  12.209  26.927  14.478
78702W        W51028  37.587  26.223   1.495
78703W        W51029  21.001  43.062   0.900
78704W        W51030  20.481  38.918   0.348
78705W        W51031  16.475  35.419   4.104
78706W        W51032  22.074  37.115   2.651
78707W        W51033  26.135  35.477  12.051
78708W        W51034   5.853  19.809   1.788
78709W        W51035  38.402  39.446   1.837
78710W        W51036   0.653  27.132   1.272
78711W        W51037  31.487  13.291   0.044
78712W        W51038   0.674  34.828  11.562
78713W        W51039  21.497  44.787   2.405
78714W        W51040  29.182  19.619   4.220
78715W        W51041  36.523  17.151  14.013
78716W        W51042  13.128  30.112  10.842
78717W        W51043   0.166  43.370  11.652
78718W        W51044  41.829  27.649   2.176
78719W        W51045  17.829  40.050  13.342
78720W        W51046  22.723  23.530  14.660
78721W        W51047   8.190   2.519   2.889
78722W        W51048  41.709  22.283   1.284
78723W        W51049  11.580  38.484   1.821
78724W        W51050  22.058  36.686  13.469
78725W        W51051  12.137   4.824   5.027
78726W        W51052  38.406  35.000  13.799
78727W        W51053  33.191  42.919  12.497
78728W        W51054  22.740  22.573  12.471
78729W        W51055   3.887  22.020  14.912
78730W        W51056  35.089  28.019  14.183
78731W        W51057  22.038  25.705  14.929
78732W        W51058  17.738  14.292   1.678
78733W        W51059  13.705  36.076   3.401
78734W        W51060   1.184  36.080   1.485
78735W        W51061  36.938  36.249   1.490
78736W        W51062   8.777   5.123  10.655
78737W        W51063  22.182  43.559   2.695
78738W        W51064  17.078  15.785  10.908
78739W        W51065  29.707  12.020  11.970
78740W        W51066   3.139  23.978  11.583
78741W        W51067  17.135   4.715   2.674
78742W        W51068  40.796   2.964  10.425
78743W        W51069  30.885   9.666   3.168
78744W        W51070  25.542  43.656   3.754
78745W        W51071   6.260  24.205   3.613
78746W        W51072  19.532  38.451  12.693
78747W        W51073  42.015  13.229   3.785
78748W        W51074  25.802   3.165   1.675
78749W        W51075  38.985  32.441  14.371
78750W        W51076  19.347  28.442  14.964
78751W        W51077  18.348   8.692   4.637
78752W        W51078  28.605  38.320  13.488
78753W        W51079  34.189  24.257   0.502
78754W        W51080  17.626  39.369   1.793
78755W        W51081  29.440  17.860   4.499
78756W        W51082  17.259   5.004   1.388
78757W        W51083  26.299   6.730  14.735
78758W        W51084   9.840  27.724   4.891
78759W        W51085  11.653  18.681  13.358
78760W        W51086  11.126  28.904   3.599
78761W        W51087  29.822  27.647  10.955
78762W        W51088  28.655   8.791  14.017
78763W        W51089  42.534  35.575   4.093
78764W        W51090  24.538  32.910  12.952
78765W        W51091  43.903   6.886   2.613
78766W        W51092  42.932  34.549   2.832
78767W        W51093  15.112  31.666  13.855
78768W        W51094   9.175   4.678  12.107
78769W        W51095  15.249   8.595  14.389
78770W        W51096   1.743  12.633  10.925
78771W        W51097  10.340  29.671  13.898
78772W        W51098  36.933  36.095  11.472
78773W        W51099  15.336  29.658   0.384
78774W        W51100  26.254   8.681   2.130
78775W        W51101  23.802   8.145  13.596
78776W        W51102  24.043   2.456  10.792
78777W        W51103  32.400   7.314  14.763
78778W        W51104  18.731  18.303   0.392
78779W        W51105   1.870  24.637  11.540
78780W        W51106  42.066   9.411  11.934
78781W        W51107   3.834   9.995   4.586
78782W        W51108  15.189  23.687   1.869
78783W        W51109   9.895   8.750  11.961
78784W        W51110  41.860  10.417   2.361
78785W        W51111   3.740   1.853  11.189
78786W        W51112  19.347   7.074   2.694
78787W        W51113  35.488  12.047  11.176
78788W        W51114  13.201  21.052  11.992
78789W        W51115   3.294  22.191  12.353
78790W        W51116  18.614  13.840  11.676
78791W        W51117   2.522  15.267  11.675
78792W        W51118  28.741  36.073   1.230
78793W        W51119  26.369  21.334   3.592
78794W        W51120  35.017  11.181   2.790
78795W        W51121   9.677  44.481  12.998
78796W        W51122  19.548  14.474  11.256
78797W        W51123  30.609  39.818  13.863
78798W        W51124   6.903   2.999   2.262
78799W        W51125   1.968  12.072   5.531
78800W        W51126  18.331  39.755   4.523
78801W        W51127   0.309  44.775   2.615
78802W        W51128  12.159  16.014  13.917
78803W        W51129  17.504   1.140   3.419
78804W        W51130   8.148   7.414  12.259
78805W        W51131  40.807   1.987   1.276
78806W        W51132  33.074  32.431   1.192
78807W        W51133  13.154  35.895  14.809
78808W        W51134   8.803  41.048   3.211
78809W        W51135  27.035  33.991  13.288
78810W        W51136   6.311  14.528  14.506
78811W        W51137  35.830  17.801  12.631
78812W        W51138   7.326  21.001   0.689
78813W        W51139  42.866  21.839  13.334
78814W        W51140   5.832   3.692   3.335
78815W        W51141  19.586   1.301  11.481
78816W        W51142  31.401  23.460   3.239
78817W        W51143   4.742  19.673  11.399
78818W        W51144  38.379  43.938  11.669
78819W        W51145  31.502  16.581   2.269
78820W        W51146  33.096  16.808   1.679
78821W        W51147  31.345  44.377  14.339
78822W        W51148  36.809  25.339  14.574
78823W        W51149  20.807  41.086  14.824
78824W        W51150  31.602  37.888  10.923
78825W        W51151  23.933  31.631  13.580
78826W        W51152  15.853  24.621   1.202
78827W        W51153  28.161   7.627  14.880
78828W        W51154  25.294   4.759   4.055
78829W        W51155  15.776  30.513   4.540
78830W        W51156  14.380  18.634   0.534
78831W        W51157   3.542  27.087   1.286
78832W        W51158  43.842  38.818   3.339
78833W        W51159  30.940  40.275  12.103
78834W        W51160  22.068  31.734  14.969
78835W        W51161  25.112   4.305   0.460
78836W        W51162   5.450  14.847  10.641
78837W        W51163  15.718   8.157  14.533
78838W        W51164  27.610  36.529  13.918
78839W        W51165  14.229  16.177   0.306
78840W        W51166  22.186  30.118   0.755
78841W        W51167   4.332  31.684  11.462
78842W        W51168  25.680  21.210   0.368
78843W        W51169  33.475  39.382   4.263
78844W        W51170  39.845   0.855  14.626
78845W        W51171  37.456  26.571  10.889
78846W        W51172  12.365  12.207   0.679
78847W        W51173  30.522  26.663   0.269
78848W        W51174  32.859   4.337  11.893
78849W        W51175  20.054  29.623  14.745
78850W        W51176  15.816  12.731   2.683
78851W        W51177  10.292  27.874  11.490
78852W        W51178  10.278   7.506  13.795
78853W        W51179  42.477   3.934   2.388
78854W        W51180  12.297  18.637  12.628
78855W        W51181  36.501   8.262  10.640
78856W        W51182  25.967  25.124   3.767
78857W        W51183  25.185  19.700  11.947
78858W        W51184   1.873  33.999  12.587
78859W        W51185  21.190  28.399   0.782
78860W        W51186  43.939  37.281   0.996
78861W        W51187  29.513  27.508   2.919
78862W        W51188   0.997  21.131  10.603
78863W        W51189  34.016  14.063  11.573
78864W        W51190   4.495  37.547  10.622
78865W        W51191  34.123   7.646   3.171
78866W        W51192  24.763  34.513  14.960
78867W        W51193  32.155  33.964  14.902
78868W        W51194  14.918  31.051  11.283
78869W        W51195   8.640  21.729   2.341
78870W        W51196  33.487  24.070   3.659
78871W        W51197  41.306  13.308   1.663
78872W        W51198   8.859  15.683  11.387
78873W        W51199  11.163  29.860   4.074
78874W        W51200  23.576  27.046   1.985
78875W        W51201  42.241   1.860   3.585
78876W        W51202   7.164  24.159  14.561
78877W        W51203  44.745  43.306   0.883
78878W        W51204  38.334   0.549  14.890
78879W        W51205  21.048  13.636  11.652
78880W        W51206   9.329   6.486   2.294
78881W        W51207  31.221  39.311   0.330
78882W        W51208  28.202  40.044   0.439
78883W        W51209  25.567  37.829  10.956
78884W        W51210  11.071  39.077   4.968
78885W        W51211  34.014  31.712  14.011
78886W        W51212   3.874  15.873   1.340
78887W        W51213  38.670   0.446  10.381
78888W        W51214  38.573  23.660   0.533
78889W        W51215  16.081  35.540   3.168
78890W        W51216   1.452  10.581  13.545
78891W        W51217   4.377   1.994  11.498
78892W        W51218  41.182   6.015  14.932
78893W        W51219  14.218   4.912  13.448
78894W        W51220   9.965  37.982  10.792
78895W        W51221  26.012  24.183  11.425
78896W        W51222  33.856   1.498   3.139
78897W        W51223   2.206  10.704   2.455
78898W        W51224  11.722  40.812  11.126
78899W        W51225  18.071  34.821  11.438
78900W        W51226  21.160   2.292   3.892
78901W        W51227  35.346  30.614  12.459
78902W        W51228  32.599   7.668  13.450
78903W        W51229  35.822  36.132   1.670
78904W        W51230  38.880  31.027   9.944
78905W        W51231  20.365  10.452  14.958
78906W        W51232  12.293   5.369   3.796
78907W        W51233  33.505   3.871   4.538
78908W        W51234  13.666  17.980   1.436
78909W        W51235  18.219  22.165  12.452
78910W        W51236  43.024   1.271  13.146
78911W        W51237   3.350   9.327   1.216
78912W        W51238  37.442  24.617   2.781
78913W        W51239  20.727  15.509   3.876
78914W        W51240  10.386  37.632   0.368
78915W        W51241  14.258   8.778  11.244
78916W        W51242  23.007  14.738  10.416
78917W        W51243   7.648  34.406   4.374
78918W        W51244  34.842   9.813   1.596
78919W        W51245  11.278  20.268   0.414
78920W        W51246  41.742  10.906   2.690
78921W        W51247  23.100  10.107  13.528
78922W        W51248  30.653   9.233   0.678
78923W        W51249  39.455  42.161   0.032
78924W        W51250  38.757  15.277  10.259
78925W        W51251  15.096  21.504  14.706
78926W        W51252  24.941  42.398   2.303
78927W        W51253  30.424  31.459   1.353
78928W        W51254   4.205  25.641  10.939
78929W        W51255  43.246  27.539  14.145
78930W        W51256   3.849   6.750  10.679
78931W        W51257  10.811   6.285  14.808
78932W        W51258   1.275  11.840   3.536
78933W        W51259  31.984   4.325   2.461
78934W        W51260  23.987  32.495   4.143
78935W        W51261  20.005  37.861  11.401
78936W        W51262  39.779  43.719  11.567
78937W        W51263  37.924   9.640  11.577
78938W        W51264  35.651  43.819  13.931
78939W        W51265   1.480   3.262  13.459
78940W        W51266  13.039  42.924   4.603
78941W        W51267  39.440  38.182  12.315
78942W        W51268  39.575  34.359   3.615
78943W        W51269  25.461  42.241  14.812
78944W        W51270  36.823  39.093  13.088
78945W        W51271  17.741  13.634  13.901
78946W        W51272   2.230  28.398  11.593
78947W        W51273   1.960  40.380  11.878
78948W        W51274  22.118  28.902  12.993
78949W        W51275   4.458   8.312  13.486
78950W        W51276  40.560   6.099  12.397
78951W        W51277  36.377  17.688   2.242
78952W        W51278  43.693  40.303   4.341
78953W        W51279   5.269  36.800  12.506
78954W        W51280  22.578  43.246   0.398
78955W        W51281  37.214   8.335  10.274
78956W        W51282   3.354  23.271  11.901
78957W        W51283  25.782  18.190  13.383
78958W        W51284  26.712  28.500  13.885
78959W        W51285   6.925  34.496  11.931
78960W        W51286  10.783   1.779  12.135
78961W        W51287  25.213   5.997   4.982
78962W        W51288  39.250  34.081  14.884
78963W        W51289  39.758  42.319  12.865
78964W        W51290  16.745   7.882   2.108
78965W        W51291  30.544  15.105   4.550
78966W        W51292  29.693  28.697  13.396
78967W        W51293  24.016  34.410   4.423
78968W        W51294   6.483  17.366  12.511
78969W        W51295  39.009  11.818   1.245
78970W        W51296  37.178   3.180  12.946
78971W        W51297  37.921  19.495  13.003
78972W        W51298  28.985  13.677   4.119
78973W        W51299  19.611  38.009   3.759
78974W        W51300  26.045  17.599  14.927
78975W        W51301  43.845  21.426   3.722
78976W        W51302   9.606  15.366  13.376
78977W        W51303  42.859  18.923  14.965
78978W        W51304  29.161  22.799   1.205
78979W        W51305  43.959  44.422   2.296
78980W        W51306  26.562  29.056  14.740
78981W        W51307  40.274  23.399  11.106
78982W        W51308  25.141  18.007  12.453
78983W        W51309  41.813  39.467   2.643
78984W        W51310  42.952  28.146  11.665
78985W        W51311   3.255   6.803  13.995
78986W        W51312  28.935  42.223   4.112
78987W        W51313  43.888  11.914   0.451
78988W        W51314   2.853  12.141   0.523
78989W        W51315  36.140  32.141   0.803
78990W        W51316   2.011   8.106   0.777
78991W        W51317   7.235   5.930   1.897
78992W        W51318   3.546  21.550   2.656
78993W        W51319  31.372  23.884  13.467
78994W        W51320  29.624  23.902   1.916
78995W        W51321   0.246  30.408  11.167
78996W        W51322  27.600  35.252   4.121
78997W        W51323  12.813  19.115   4.365
78998W        W51324  26.763   6.186   4.126
78999W        W51325  44.689  36.926   4.056
79000W        W51326  15.808  40.043   4.015
79001W        W51327   7.909  18.956  13.035
79002W        W51328  17.810  18.298   2.859
79003W        W51329  18.423  29.123  10.247
79004W        W51330  18.582  25.110   4.584
79005W        W51331  31.028   0.483   4.864
79006W        W51332  26.728  40.514   1.551
79007W        W51333  43.979  20.772  14.109
79008W        W51334  23.140  14.050   2.331
79009W        W51335  18.347   3.254  14.949
79010W        W51336  37.306  30.094  13.430
79011W        W51337   9.760  37.882   2.828
79012W        W51338   2.621   5.191   4.241
79013W        W51339  17.224  23.532   2.887
79014W        W51340  44.478  19.349  13.581
79015W        W51341  28.708  24.189  12.568
79016W        W51342   5.116  23.973  11.555
79017W        W51343   8.909  16.261  11.636
79018W        W51344   3.798   0.655   2.693
79019W        W51345  36.627  37.782   0.427
79020W        W51346   0.295  43.939  14.331
79021W        W51347  32.924  13.755   2.847
79022W        W51348  26.715  22.772  13.083
79023W        W51349  14.303   5.736  12.640
79024W        W51350   4.640   8.969  10.208
79025W        W51351  34.972  38.102   4.016
79026W        W51352  36.875   3.568   0.881
79027W        W51353  39.108  42.977   0.698
79028W        W51354  14.123   4.875   2.738
79029W        W51355  24.454  29.867  10.924
79030W        W51356  13.790   9.574   3.388
79031W        W51357  10.400  27.792   0.612
79032W        W51358  20.244  16.094   0.273
79033W        W51359  12.007  42.067  10.598
79034W        W51360  22.438  20.708   4.404
79035W        W51361  22.467  30.508  13.475
79036W        W51362  38.611  24.142  14.497
79037W        W51363  34.887  19.654  13.797
79038W        W51364   8.182  34.350  13.096
79039W        W51365  25.541   0.108   3.712
79040W        W51366   5.330   1.854  14.450
79041W        W51367  33.976  40.442  14.019
79042W        W51368  37.530  33.799  12.289
79043W        W51369  42.283  21.662   3.471
79044W        W51370  33.386  34.900  11.524
79045W        W51371  16.836   1.869   1.834
79046W        W51372  28.563  20.656   3.058
79047W        W51373  28.965  24.896   0.836
79048W        W51374  41.039  32.466   0.181
79049W        W51375  43.579  16.486  13.512
79050W        W51376  28.391  31.103   1.686
79051W        W51377  21.009   6.871  12.019
79052W        W51378  15.307  21.045   2.354
79053W        W51379  35.987   9.934   3.519
79054W        W51380   3.452  43.226  13.492
79055W        W51381  35.508  21.649  12.055
79056W        W51382   7.258  26.970  11.630
79057W        W51383   4.113   8.389   1.376
79058W        W51384  27.190  38.938   2.277
79059W        W51385  20.294   8.847  12.855
79060W        W51386  22.983  20.134   1.905
79061W        W51387  11.260   8.189   1.896
79062W        W51388  15.165  32.520   4.293
79063W        W51389  29.152  39.916  11.558
79064W        W51390   8.621  34.975  11.196
79065W        W51391  29.917  44.974   2.211
79066W        W51392   1.047  22.970  14.429
79067W        W51393  40.455  31.674   2.282
79068W        W51394  10.382  39.231   1.925
79069W        W51395  34.568  36.525   3.214
79070W        W51396  32.180  14.711   2.227
79071W        W51397   0.821   7.418  13.857
79072W        W51398   1.943  38.845   2.209
79073W        W51399  12.218   0.862  13.895
79074W        W51400  10.172  35.439   0.575
79075W        W51401  43.002  28.476  10.573
79076W        W51402  15.680  35.875   3.357
79077W        W51403   5.736  26.991  10.673
79078W        W51404  19.909  17.655   1.720
79079W        W51405  33.495   7.257   4.187
79080W        W51406  15.357  34.880   4.603
79081W        W51407  30.173  20.553  12.961
79082W        W51408  26.755  19.718  10.727
79083W        W51409  22.646  40.987   3.231
79084W        W51410  31.015  34.069   4.410
79085W        W51411  33.728  14.384  10.235
79086W        W51412  34.814  30.606  11.132
79087W        W51413  22.346  29.564  11.202
79088W        W51414  14.424   0.715  12.710
79089W        W51415  28.432   8.648   1.414
79090W        W51416  16.177  22.513   2.847
79091W        W51417  31.800  26.590   4.430
79092W        W51418  13.441  33.593   1.829
79093W        W51419  41.481  20.833  13.445
79094W        W51420  10.943   3.617  10.723
79095W        W51421  39.210   6.435  14.971
79096W        W51422  15.145   9.795   4.610
79097W        W51423  23.766  19.278   1.749
79098W        W51424  26.248  32.563  12.849
79099W        W51425  16.643  40.536   2.679
79100W        W51426  40.322  16.299  14.292
79101W        W51427  25.201   5.233   2.693
79102W        W51428  13.644  13.287   4.782
79103W        W51429  19.746  15.107  11.899
79104W        W51430  34.859  29.131   0.660
79105W        W51431  39.229  24.588   2.393
79106W        W51432  11.636  41.893   3.746
79107W        W51433  42.705   6.755   0.151
79108W        W51434  26.864  40.806  14.426
79109W        W51435  11.700  13.241  11.317
79110W        W51436  37.335   0.700  11.638
79111W        W51437  42.830  30.047  14.947
79112W        W51438  11.149   1.987   2.190
79113W        W51439  37.499  23.052   4.602
79114W        W51440  44.356  39.326  10.580
79115W        W51441   7.013  30.116  11.109
79116W        W51442   6.116   3.343  11.804
79117W        W51443   0.631  20.881  10.237
79118W        W51444   3.103  12.623  11.044
79119W        W51445  23.774  27.961   2.733
79120W        W51446  20.201  34.389   4.698
79121W        W51447   4.575   8.235  14.828
79122W        W51448  21.250   8.660   0.886
79123W        W51449  23.031   1.874  13.626
79124W        W51450  12.199   7.151   4.189
79125W        W51451   6.278  43.927   2.097
79126W        W51452  31.395  19.228   2.827
79127W        W51453   3.005   2.728   0.400
79128W        W51454  26.194   4.495   0.441
79129W        W51455  35.859  43.923  12.036
79130W        W51456  29.921  43.353   0.286
79131W        W51457  26.459   1.952   2.922
79132W        W51458   0.854  37.281   4.547
79133W        W51459  38.811  10.157  11.588
79134W        W51460  42.477   5.644   2.627
79135W        W51461  38.346  16.064   0.741
79136W        W51462  43.034   0.382  13.462
79137W        W51463  11.759  12.055  10.675
79138W        W51464  14.745  43.954  13.080
79139W        W51465  30.434  20.182   3.834
79140W        W51466  34.358   7.454  12.739
79141W        W51467  39.032   0.255   2.491
79142W        W51468  22.196   3.447  12.958
79143W        W51469   8.730  29.525  14.956
79144W        W51470  39.678  19.260   4.030
79145W        W51471  20.694  11.224  12.488
79146W        W51472  31.477  41.315   1.036
79147W        W51473  18.752  33.913   4.404
79148W        W51474   4.033   8.231  11.195
79149W        W51475  24.114  37.810  12.541
79150W        W51476  20.024   9.196   4.301
79151W        W51477  17.185  13.348   0.237
79152W        W51478  44.727   3.798   2.721
79153W        W51479   5.250  39.808   0.999
79154W        W51480  25.463  16.895  12.620
79155W        W51481  17.297  30.097  13.998
79156W        W51482  23.766  22.600   5.127
79157W        W51483  23.741  15.241  14.506
79158W        W51484   0.303   8.771   1.759
79159W        W51485  24.514   4.696  10.872
79160W        W51486   5.405  43.308  14.558
79161W        W51487  12.410  42.030   4.072
79162W        W51488  39.047   1.404   0.380
79163W        W51489  32.691  43.456  11.231
79164W        W51490  35.393   1.196  12.266
79165W        W51491  22.913   9.629  10.659
79166W        W51492   3.281  44.808  12.894
79167W        W51493  44.412   5.736  10.944
79168W        W51494  21.472  43.339  13.597
79169W        W51495   3.288  16.352   3.718
79170W        W51496  24.954  13.633   3.783
79171W        W51497  24.442   7.429   3.455
79172W        W51498  34.031  37.810  14.287
79173W        W51499   5.636  34.956   0.296
79174W        W51500   7.880  38.807  14.731
79175W        W51501  11.305  17.063  12.835
79176W        W51502  18.746  33.826   1.944
79177W        W51503   9.697   1.334   0.318
79178W        W51504   4.477   0.418  10.754
79179W        W51505  31.876  27.103  13.399
79180W        W51506  16.100  32.138   3.762
79181W        W51507  24.619  41.156  12.441
79182W        W51508   9.596  35.912  13.453
79183W        W51509  33.985  34.802  12.168
79184W        W51510  31.100  30.443   5.121
79185W        W51511  16.137  11.144   1.399
79186W        W51512  11.890  26.503   9.848
79187W        W51513   2.741  23.972  14.781
79188W        W51514  38.033  36.919   2.326
79189W        W51515  21.769  35.448   3.134
79190W        W51516  28.409  32.662  13.470
79191W        W51517   0.716   4.760   4.548
79192W        W51518  16.774   8.931  12.155
79193W        W51519  17.111  35.192   2.401
79194W        W51520  12.687  27.238   2.636
79195W        W51521  20.677  38.269   3.140
79196W        W51522   5.854  15.657   4.233
79197W        W51523  32.380  29.152   2.150
79198W        W51524  33.085  38.559  11.579
79199W        W51525   3.953   7.656   1.019
79200W        W51526  24.472  16.671  13.718
79201W        W51527  19.246   5.727  13.741
79202W        W51528  40.394  40.976   0.215
79203W        W51529  22.654   0.390   2.387
79204W        W51530   1.708  43.454   2.769
79205W        W51531  25.060  39.438   4.054
79206W        W51532   3.317  22.388   3.426
79207W        W51533  37.815   5.906   1.228
79208W        W51534   4.404  41.072   0.215
79209W        W51535  18.300  38.571  13.726
79210W        W51536   4.784  41.788   4.590
79211W        W51537  25.066  32.486  13.984
79212W        W51538  21.724  10.542   2.800
79213W        W51539  42.941  44.566  11.029
79214W        W51540  11.294  39.487  10.597
79215W        W51541  40.276   4.190  12.083
79216W        W51542  42.289  28.576   1.421
79217W        W51543  38.993   0.348   3.531
79218W        W51544  23.555  28.414  10.777
79219W        W51545   7.241  40.782   1.724
79220W        W51546  24.573  32.646  13.875
79221W        W51547   5.792  25.850   1.844
79222W        W51548  22.764  21.755   0.239
79223W        W51549  29.940  38.686   3.722
79224W        W51550  19.495  41.349   0.895
79225W        W51551  26.208   1.636  13.468
79226W        W51552  38.497  30.337   1.844
79227W        W51553  22.725  22.122   4.396
79228W        W51554  22.879  35.618   2.788
79229W        W51555  37.893  25.939  11.089
79230W        W51556   2.434  34.409   2.244
79231W        W51557  34.975   1.525  12.471
79232W        W51558  40.568   8.983   1.383
79233W        W51559  41.286  33.103  13.410
79234W        W51560   9.713  13.979  11.241
79235W        W51561  16.759  26.750  14.398
79236W        W51562   4.928  31.926  12.096
79237W        W51563  40.517  21.602   1.482
79238W        W51564  19.798  38.309  11.226
79239W        W51565   7.388   2.081   3.699
79240W        W51566  21.967  35.563   2.660
79241W        W51567  36.440  11.576  12.850
79242W        W51568   9.414  40.916   2.202
79243W        W51569   9.342  37.537   5.119
79244W        W51570  23.589  34.642   4.135
79245W        W51571  44.300  26.764   1.832
79246W        W51572  24.044   4.831   1.201
79247W        W51573   2.508   0.529  11.118
79248W        W51574  11.751  27.594   2.392
79249W        W51575   1.803  11.111  12.601
79250W        W51576  41.454  43.498  14.410
79251W        W51577   0.532  12.021   4.946
79252W        W51578   2.213   2.817   0.871
79253W        W51579  32.489   0.338   4.123
79254W        W51580  18.768  13.385   3.738
79255W        W51581   2.844   3.914  12.497
79256W        W51582  18.232  39.967   2.292
79257W        W51583   2.171  21.118   5.417
79258W        W51584  36.364  28.652  13.103
79259W        W51585   4.669  18.196  14.597
79260W        W51586  34.480   5.000   5.013
79261W        W51587  10.483  25.589  10.247
79262W        W51588  10.820  19.539  13.940
79263W        W51589  29.306  32.510   3.663
79264W        W51590  21.014   6.985  14.470
79265W        W51591  22.987  27.795   4.543
79266W        W51592  28.330  29.555   2.244
79267W        W51593  17.877  14.638  13.992
79268W        W51594  26.565  24.733  14.158
79269W        W51595   2.670  30.625   4.267
79270W        W51596  12.349  40.475  14.922
79271W        W51597  11.881  26.064   2.384
79272W        W51598  10.175   8.835   1.395
79273W        W51599  41.037  34.255   4.944
79274W        W51600   5.203  15.333   0.892
79275W        W51601  31.126  24.117  10.595
79276W        W51602  44.311  11.941   3.650
79277W        W51603  37.962  44.891  14.142
79278W        W51604  28.050  40.640   3.401
79279W        W51605  31.948  20.056   1.980
79280W        W51606  30.970  17.625  11.050
79281W        W51607  31.994   4.141   4.252
79282W        W51608  15.341  19.692   4.306
79283W        W51609   2.213  26.756  11.180
79284W        W51610  38.073   8.317  14.705
79285W        W51611  37.151  10.822   4.267
79286W        W51612  33.124   4.091   1.676
79287W        W51613   7.498  38.833   2.367
79288W        W51614  13.090  22.738  12.126
79289W        W51615  11.805  44.749  14.415
79290W        W51616   6.324   3.787  11.941
79291W        W51617  11.930  28.545  11.439
79292W        W51618   4.894  15.772  13.716
79293W        W51619   8.762  26.730   2.329
79294W        W51620   4.421  17.619  12.876
79295W        W51621  35.590  38.527   1.781
79296W        W51622   1.553  12.198   4.193
79297W        W51623  36.332  10.901  14.838
79298W        W51624  15.251  33.460   4.590
79299W        W51625  36.049  39.879  10.818
79300W        W51626  29.996  38.007   1.710
79301W        W51627   1.386   0.244   2.675
79302W        W51628  38.531  37.460  13.010
79303W        W51629  41.716  25.162   2.357
79304W        W51630   1.259  20.192   0.941
79305W        W51631  36.297  35.481  13.035
79306W        W51632   8.862  41.516  12.056
79307W        W51633  38.461   3.328   2.333
79308W        W51634  17.788  30.227  12.794
79309W        W51635  43.752  19.260   4.589
79310W        W51636  25.730  22.015  11.134
79311W        W51637  11.671   1.528  13.976
79312W        W51638  12.628  20.317   3.320
79313W        W51639  19.059  32.799  10.796
79314W        W51640  39.343  13.641   4.083
79315W        W51641   9.974  31.834  14.797
79316W        W51642  40.946   2.716   1.889
79317W        W51643   5.992   2.151   0.809
79318W        W51644   1.022  15.076  10.893
79319W        W51645  20.270   2.388   1.360
79320W        W51646   0.914  31.891  10.540
79321W        W51647  42.570  31.765  10.549
79322W        W51648  39.456  16.782  11.353
79323W        W51649  24.843  25.922  11.780
79324W        W51650  26.553   3.749   1.239
79325W        W51651  35.423  19.275   2.266
79326W        W51652   5.992   3.357   1.265
79327W        W51653  14.294  31.905   4.110
79328W        W51654  22.301   6.733   3.089
79329W        W51655  21.293  25.177  14.456
79330W        W51656  21.610  15.646   3.775
79331W        W51657  13.525   7.731  14.842
79332W        W51658  44.307  12.930  10.616
79333W        W51659  12.110  43.387   2.228
79334W        W51660  24.278  30.070   4.641
79335W        W51661  17.746  33.628  11.250
79336W        W51662  31.993  10.734   1.883
79337W        W51663   0.737  12.832   3.210
79338W        W51664  15.130  44.761  14.437
79339W        W51665  20.962  38.041   5.506
79340W        W51666  12.365  26.555   1.241
79341W        W51667  27.918  34.121   4.593
79342W        W51668  27.073  31.096   2.753
79343W        W51669   5.764  20.069   2.231
79344W        W51670  29.169  19.714   3.144
79345W        W51671   8.373   2.007  10.602
79346W        W51672  29.280  11.852  13.056
79347W        W51673  33.064   1.020   3.810
79348W        W51674   4.933  20.599   0.496
79349W        W51675   0.817  23.113  12.107
79350W        W51676  34.059   6.888   3.861
79351W        W51677  32.210  27.440  14.956
79352W        W51678  24.168  26.137   4.084
79353W        W51679  29.226  28.931   4.334
79354W        W51680  27.185   2.277   4.705
79355W        W51681  16.407  40.950   3.169
79356W        W51682  41.050  25.695  12.501
79357W        W51683  38.764  17.583  12.612
79358W        W51684  12.047   9.289   4.801
79359W        W51685  36.565  31.963  11.554
79360W        W51686  20.342  13.264  13.891
79361W        W51687  41.313  30.632  11.150
79362W        W51688  14.824  26.667  12.076
79363W        W51689  39.506  22.156   1.786
79364W        W51690  26.686  23.307  13.650
79365W        W51691  19.177  44.800  14.926
79366W        W51692  41.347  27.465  10.573
79367W        W51693  20.191  14.069  10.642
79368W        W51694  24.651   4.362   4.660
79369W        W51695  36.915  32.953  12.705
79370W        W51696   9.090  16.157   3.873
79371W        W51697  20.323   3.947  12.831
79372W        W51698  12.048   7.369  14.822
79373W        W51699  34.698  12.097   3.396
79374W        W51700   8.919  27.434  11.063
79375W        W51701  28.609   4.686  13.021
79376W        W51702  29.464  22.165  10.408
79377W        W51703   6.406  30.378   1.859
79378W        W51704  42.423  27.269  12.409
79379W        W51705  13.868   3.393   2.761
79380W        W51706  10.322  15.424  12.119
79381W        W51707  19.600  25.475   0.989
79382W        W51708  44.699  16.095  11.434
79383W        W51709   5.743  19.157  11.197
79384W        W51710  23.149   4.736   0.739
79385W        W51711  10.326  24.260  11.799
79386W        W51712  12.168  37.908  12.711
79387W        W51713  26.689  34.971   2.782
79388W        W51714   6.902  35.046   2.330
79389W        W51715  19.158  15.737  13.234
79390W        W51716  16.656  10.989   4.067
79391W        W51717  27.137  25.430   3.560
79392W        W51718   6.036  23.501  12.157
79393W        W51719  42.433  20.298   0.514
79394W        W51720   0.053  41.479   4.531
79395W        W51721  26.194   5.962  14.040
79396W        W51722   4.401  15.798  13.587
79397W        W51723  26.677   3.729  13.802
79398W        W51724   0.940   1.966  13.791
79399W        W51725  34.816  43.734  14.367
79400W        W51726  24.477   5.423  13.144
79401W        W51727  22.769  20.217   4.082
79402W        W51728  41.323  21.960  14.967
79403W        W51729  32.319  35.756   3.260
79404W        W51730  24.826  37.292  12.424
79405W        W51731   7.276   8.558   4.485
79406W        W51732  12.140   5.263   4.763
79407W        W51733  26.681  22.996   4.384
79408W        W51734   8.590   8.889   1.696
79409W        W51735  18.196  13.835   0.767
79410W        W51736  13.367  41.317  11.687
79411W        W51737  34.930   7.752  14.282
79412W        W51738  22.730  17.003   1.652
79413W        W51739  21.531  27.169  11.431
79414W        W51740  39.780  16.953   4.582
79415W        W51741  38.462   6.732  10.445
79416W        W51742   8.448  17.947   4.621
79417W        W51743  10.969   7.852  12.709
79418W        W51744  43.864  27.674  11.912
79419W        W51745  19.966  14.122   4.191
79420W        W51746  31.868  35.915  12.105
79421W        W51747  13.409  14.266  10.779
79422W        W51748  22.285  24.324  11.124
79423W        W51749   7.879  44.584  10.337
79424W        W51750  14.939   5.737   1.982
79425W        W51751   0.726  15.006   1.152
79426W        W51752  36.451   5.923  13.337
79427W        W51753  32.654  38.343   0.790
79428W        W51754  29.750  38.010   0.896
79429W        W51755   4.842  20.323  12.483
79430W        W51756   1.866  27.409  13.798
79431W        W51757  26.238  40.086   3.546
79432W        W51758  37.664   3.431  11.101
79433W        W51759  17.060  10.328  10.134
79434W        W51760  11.339  15.953   4.636
79435W        W51761   6.980  38.423  12.810
79436W        W51762  36.292  44.931   3.525
79437W        W51763  37.812  10.153  14.169
79438W        W51764  15.946  25.722   3.396
79439W        W51765  33.605  33.445   3.110
79440W        W51766   0.741  41.945  12.933
79441W        W51767  14.531  43.572  14.031
79442W        W51768  42.831  42.761   0.461
79443W        W51769   6.289  25.336  11.108
79444W        W51770  10.171  36.391   0.307
79445W        W51771   7.009  34.593  13.349
79446W        W51772   7.292  38.830  12.834
79447W        W51773   4.131   7.058  13.905
79448W        W51774   8.658  42.508  12.792
79449W        W51775  44.031  15.935   4.657
79450W        W51776  42.665  43.919  10.260
79451W        W51777   1.418  30.325  14.664
79452W        W51778  37.026  10.117  11.942
79453W        W51779  21.115  20.144   0.247
79454W        W51780  14.643  21.910   4.683
79455W        W51781  38.516   8.187   2.353
79456W        W51782   1.949  10.008   1.257
79457W        W51783  33.088  35.224  12.257
79458W        W51784  39.330   0.825  11.987
79459W        W51785  30.700   4.945   3.646
79460W        W51786  41.721  19.101  10.690
79461W        W51787  25.582  44.167  14.135
79462W        W51788  28.153  29.513   3.564
79463W        W51789  41.800   6.981   3.226
79464W        W51790  19.273   8.112   3.654
79465W        W51791  37.139  22.026  11.660
79466W        W51792  43.781   3.982  13.131
79467W        W51793  15.572  24.109  12.451
79468W        W51794   1.643   3.701  14.470
79469W        W51795  10.245  38.485  10.020
79470W        W51796   4.306  36.116   4.252
79471W        W51797  12.678  19.517   3.114
79472W        W51798  20.691  42.571  13.009
79473W        W51799  18.363  42.363   2.198
79474W        W51800  16.864  17.599   3.754
79475W        W51801  11.790  34.873  11.364
79476W        W51802  13.780  19.874  12.152
79477W        W51803  25.580  23.658  14.425
79478W        W51804  34.503  35.878   1.249
79479W        W51805  44.943   1.206  14.054
79480W        W51806  15.726  33.960  13.990
79481W        W51807  24.449  13.421   1.798
79482W        W51808  35.155   9.895  10.838
79483W        W51809  39.721  31.907   0.971
79484W        W51810   2.018   8.944   3.799
79485W        W51811   7.760  33.074  14.359
79486W        W51812   6.170  40.625   0.328
79487W        W51813  44.870   4.517  10.678
79488W        W51814  36.936  12.128   3.705
79489W        W51815  37.802  43.868   3.337
79490W        W51816   8.626  36.062  13.836
79491W        W51817   0.003  42.357   1.740
79492W        W51818  30.159  34.554   4.299
79493W        W51819  28.517  28.024  10.037
79494W        W51820  43.050   3.817   3.801
79495W        W51821  24.218   6.628   3.149
79496W        W51822   0.906   1.013   2.067
79497W        W51823  41.860   0.954   2.446
79498W        W51824  41.882  32.091   3.193
79499W        W51825  36.659  38.614   0.062
79500W        W51826  34.505  35.785   0.289
79501W        W51827  12.611  32.316   0.874
79502W        W51828  13.100  22.837  14.034
79503W        W51829  16.913   8.565  11.838
79504W        W51830  20.603   1.452  14.574
79505W        W51831   2.327  39.485   4.834
79506W        W51832  25.535  12.877   1.293
79507W        W51833  42.278  33.100   3.137
79508W        W51834  27.114  43.708   2.176
79509W        W51835  25.079  39.311  11.922
79510W        W51836  17.508  12.970  14.230
79511W        W51837  18.095  15.167  12.367
79512W        W51838  13.813  39.098   4.615
79513W        W51839  29.900  17.262  13.011
79514W        W51840  13.831  38.033   1.815
79515W        W51841  21.468  41.836   1.809
79516W        W51842  32.148   4.525   5.324
79517W        W51843  14.741  37.607  12.859
79518W        W51844   4.943   6.065  11.042
79519W        W51845  17.527  15.197   1.880
79520W        W51846  28.965  26.206  14.941
79521W        W51847   0.823  37.296   4.029
79522W        W51848  44.816  30.916  12.486
79523W        W51849   8.303  18.030  12.828
79524W        W51850  32.233   1.620  12.520
79525W        W51851  10.410  36.420   3.333
79526W        W51852  28.629  42.924   4.051
79527W        W51853  16.091  39.830   0.942
79528W        W51854  25.774  40.511  13.414
79529W        W51855  20.240  42.879  14.002
79530W        W51856  11.474  33.162   1.216
79531W        W51857  17.485  21.721   2.824
79532W        W51858  25.176  14.100   4.291
79533W        W51859  29.565  20.344   1.313
79534W        W51860   5.788  30.088  13.042
79535W        W51861  12.832  21.636  13.689
79536W        W51862   7.233  15.627   2.460
79537W        W51863  24.195  27.540  13.902
79538W        W51864   6.812  11.219   4.200
79539W        W51865  16.782   9.043  13.021
79540W        W51866  24.521  36.057  14.929
79541W        W51867  13.926  44.932  10.662
79542W        W51868  26.726  13.367   3.264
79543W        W51869  28.023  15.772   2.778
79544W        W51870  21.898  33.896   4.501
79545W        W51871  43.816  32.900  12.018
79546W        W51872   4.459  23.990  10.285
79547W        W51873  23.487  23.984  14.920
79548W        W51874  27.488  25.242  11.349
79549W        W51875   8.858   5.201  13.347
79550W        W51876  22.357  22.769   1.855
79551W        W51877   8.566  37.992  10.686
79552W        W51878  30.231  17.646  13.150
79553W        W51879   6.960  16.739   3.071
79554W        W51880  17.846  16.383   1.365
79555W        W51881  22.712  30.119  12.798
79556W        W51882  28.182  14.852   1.801
79557W        W51883   5.733   8.364   3.167
79558W        W51884   6.674  16.658  14.960
79559W        W51885  17.791  10.767  14.529
79560W        W51886   7.745  23.015   3.831
79561W        W51887   7.189  27.154  13.573
79562W        W51888  22.096   1.914   4.087
79563W        W51889   9.256  40.830  10.887
79564W        W51890  22.237  22.565   3.194
79565W        W51891  13.323  26.608   4.226
79566W        W51892  32.613  32.086   2.279
79567W        W51893   2.482   8.589   2.551
79568W        W51894  25.769  23.704  10.714
79569W        W51895   4.307  35.521   3.102
79570W        W51896  20.662  37.061   0.324
79571W        W51897  37.420   1.917  14.338
79572W        W51898  31.537  14.194  14.067
79573W        W51899  11.225   3.666  12.783
79574W        W51900   3.979  21.060  13.931
79575W        W51901   9.979   9.125   1.008
79576W        W51902  28.122  40.586  11.414
79577W        W51903  20.871   1.312   4.252
79578W        W51904  21.132  29.982   1.747
79579W        W51905  11.091  28.333   3.669
79580W        W51906   0.164  40.469   1.409
79581W        W51907   8.141  25.108   2.358
79582W        W51908  19.466  24.024  10.576
79583W        W51909   5.102   7.611  11.897
79584W        W51910  11.990  22.010   2.410
79585W        W51911  34.481  29.501  12.975
79586W        W51912  38.122  43.862  14.464
79587W        W51913  41.095  36.311  14.067
79588W        W51914  10.696  10.952  11.476
79589W        W51915  30.374  35.489  12.968
79590W        W51916  19.488  23.192  11.544
79591W        W51917  26.247  12.273   0.862
79592W        W51918  23.548  13.141   4.942
79593W        W51919  28.175  13.245  13.047
79594W        W51920  21.183   6.793  12.501
79595W        W51921  12.088  21.752  12.423
79596W        W51922  32.229   5.783  11.563
79597W        W51923  41.491  39.841  14.938
79598W        W51924  43.041  31.855  12.384
79599W        W51925  34.997  18.473   0.403
79600W        W51926  18.598  25.651   3.692
79601W        W51927  39.970   9.647   0.938
79602W        W51928  25.531  20.246   1.411
79603W        W51929  43.333  43.507  10.881
79604W        W51930   2.613  10.392  14.216
79605W        W51931  38.447   3.530   1.863
79606W        W51932   3.856  43.985  14.283
79607W        W51933  26.645  41.269   3.148
79608W        W51934  33.940   6.654   0.413
79609W        W51935   8.148  35.931  13.254
79610W        W51936   4.555  15.128  12.856
79611W        W51937  29.741  34.931   3.446
79612W        W51938  31.399  14.568  10.740
79613W        W51939   9.147   0.272   2.827
79614W        W51940  19.072  38.749   2.810
79615W        W51941  26.245  19.683   3.245
79616W        W51942  41.984  31.408  14.266
79617W        W51943  34.892   0.299   2.271
79618W        W51944  36.716  33.204  10.566
79619W        W51945   1.499  27.603  14.954
79620W        W51946  29.946  17.694   4.474
79621W        W51947  22.275  38.826  11.139
79622W        W51948  23.015  42.890  12.859
79623W        W51949  29.413  19.080  11.922
79624W        W51950  10.909  13.218   2.363
79625W        W51951   9.739  11.726   4.379
79626W        W51952  41.775  16.589  13.272
79627W        W51953  36.786  21.231  12.977
79628W        W51954  35.653  19.794  14.264
79629W        W51955   0.867  12.812   1.803
79630W        W51956  34.929  37.515   0.698
79631W        W51957   7.715  24.064   4.519
79632W        W51958   0.616  40.311  13.506
79633W        W51959  20.993  15.123   2.410
79634W        W51960  19.554  16.395   0.750
79635W        W51961  21.709  23.142   3.841
79636W        W51962  11.796  22.612   3.650
79637W        W51963  27.135   0.395  11.517
79638W        W51964  38.716   0.813   4.919
79639W        W51965  18.960  40.443   3.465
79640W        W51966   8.800  23.830   0.712
79641W        W51967   3.429  21.291  11.993
79642W        W51968   1.742  41.284  10.279
79643W        W51969  29.482  16.330   2.169
79644W        W51970  34.129  18.626   2.082
79645W        W51971  40.863  24.191   2.822
79646W        W51972  19.601  13.745  14.993
79647W        W51973  27.602  41.211   4.064
79648W        W51974  42.600  40.301  11.496
79649W        W51975   9.384  43.201   4.469
79650W        W51976  28.121  29.990   0.732
79651W        W51977  14.109  11.501  13.441
79652W        W51978  20.856  21.729   4.244
79653W        W51979  36.550  10.231  10.389
79654W        W51980  34.044  39.372  12.069
79655W        W51981  18.185  11.121  14.255
79656W        W51982  40.880  23.111  13.935
79657W        W51983   2.778  12.160   1.913
79658W        W51984  19.759   5.193   0.867
79659W        W51985  36.535  14.885  14.950
79660W        W51986  16.110  12.901   0.432
79661W        W51987  34.839  20.075  10.751
79662W        W51988  33.024  19.302   2.425
79663W        W51989  32.714  14.934  14.772
79664W        W51990   9.824   0.908  10.982
79665W        W51991  13.359  18.214  11.600
79666W        W51992  23.988   1.943  11.990
79667W        W51993  11.200  31.437  10.336
79668W        W51994  35.091  38.407  10.549
79669W        W51995  32.894  32.542   2.100
79670W        W51996  39.313   2.099   3.691
79671W        W51997   3.008   5.794  11.044
79672W        W51998   5.469  24.130  13.960
79673W        W51999  16.758  43.796   3.586
79674W        W52000  27.452   5.654   2.018
79675W        W52001  31.223  26.151  14.067
79676W        W52002  11.215   7.681   0.598
79677W        W52003  33.729   7.060   0.033
79678W        W52004  43.955   9.120   0.840
79679W        W52005  29.147  27.684  12.570
79680W        W52006  31.484  14.837  11.193
79681W        W52007  21.546  17.575  12.649
79682W        W52008  35.955  21.123   3.107
79683W        W52009   5.322  25.440  12.006
79684W        W52010  42.931  21.910  12.386
79685W        W52011  24.981  30.979  13.498
79686W        W52012   7.918  39.977  14.388
79687W        W52013   8.495  29.027   4.768
79688W        W52014  34.348   3.433   4.866
79689W        W52015  31.897  23.143   0.946
79690W        W52016  10.344   9.144   4.647
79691W        W52017  40.418  41.808  13.446
79692W        W52018  11.651  16.185   2.666
79693W        W52019  11.194  33.440  12.595
79694W        W52020  29.519  19.836   2.338
79695W        W52021   2.025  20.787   0.395
79696W        W52022  34.117  34.390   1.963
79697W        W52023  23.884  37.908   4.665
79698W        W52024  41.328  12.726   2.845
79699W        W52025  37.085  31.844  10.735
79700W        W52026  37.207  39.632   2.349
79701W        W52027  21.545  25.945   4.323
79702W        W52028   0.621  23.555   3.713
79703W        W52029  14.533   1.210  11.945
79704W        W52030  43.315  20.728   3.594
79705W        W52031  42.332  11.571   4.088
79706W        W52032  43.215  42.273   3.273
79707W        W52033  38.015  24.199  11.616
79708W        W52034  37.352   7.268   3.687
79709W        W52035  28.619  34.419  12.949
79710W        W52036  33.023  23.313   2.715
79711W        W52037  39.395  23.396   2.417
79712W        W52038   1.304  28.046  13.711
79713W        W52039  17.689   1.311  12.077
79714W        W52040  28.631  11.407  14.603
79715W        W52041  27.103  27.771  12.556
79716W        W52042  25.706  21.756   0.360
79717W        W52043  16.877   1.683  12.795
79718W        W52044  11.698  12.992   2.661
79719W        W52045  20.050  37.779   0.611
79720W        W52046  19.195  29.955   4.666
79721W        W52047  28.935   5.344   4.962
79722W        W52048  33.713  41.341  10.785
79723W        W52049  13.078  32.077   1.363
79724W        W52050  26.908  23.978   2.811
79725W        W52051  10.446  34.144  13.448
79726W        W52052  26.675  40.932  13.577
79727W        W52053  10.269  31.364   3.408
79728W        W52054  17.554  35.535   2.277
79729W        W52055   1.526  13.740   4.502
79730W        W52056  44.401  29.898   2.121
79731W        W52057  42.397   9.122  12.789
79732W        W52058   3.925  15.766  13.395
79733W        W52059  29.108  15.282  11.851
79734W        W52060  20.595  27.129  12.938
79735W        W52061  28.687  10.587  12.576
79736W        W52062  37.337  40.999   0.281
79737W        W52063  19.973  26.133   0.452
79738W        W52064  33.521  31.520   4.136
79739W        W52065   9.349  18.269   4.525
79740W        W52066  17.760   4.370  11.616
79741W        W52067   5.891  24.676  11.633
79742W        W52068  28.110   4.888   3.707
79743W        W52069   0.223  41.808  14.400
79744W        W52070  14.342  27.675   4.465
79745W        W52071  31.769  36.799  11.109
79746W        W52072  36.830  32.099   3.237
79747W        W52073  44.463   9.579   4.302
79748W        W52074  36.068  16.850  14.046
79749W        W52075  33.116  26.488  14.288
79750W        W52076   6.114  39.894   1.228
79751W        W52077   1.203  31.980   3.229
79752W        W52078  22.952   8.331   2.364
79753W        W52079  43.533  29.210  12.797
79754W        W52080  12.207  40.508   2.680
79755W        W52081  13.626  14.551  11.295
79756W        W52082  14.337  42.319   0.842
79757W        W52083  39.010  35.726  14.878
79758W        W52084  11.830  14.086   2.820
79759W        W52085   3.294  20.598   4.941
79760W        W52086  12.978   2.291   5.126
79761W        W52087   8.180  12.468   3.298
79762W        W52088  16.011  42.512   0.575
79763W        W52089  27.593  37.950  12.528
79764W        W52090   2.397  24.662   4.998
79765W        W52091  24.605  40.762   3.755
79766W        W52092  28.994   8.423   1.197
79767W        W52093   7.670   2.260   4.136
79768W        W52094  30.801  13.484   3.461
79769W        W52095  33.438  41.336  12.548
79770W        W52096   4.967   2.163  14.698
79771W        W52097  27.023  30.534  10.680
79772W        W52098  33.366   0.690   2.192
79773W        W52099  14.696  41.770   0.325
79774W        W52100  14.377   7.651   0.872
79775W        W52101  43.034   8.688   4.624
79776W        W52102  40.037   1.423  11.504
79777W        W52103  40.344  10.648   1.252
79778W        W52104  29.675  10.488   1.654
79779W        W52105  24.165  43.477  14.402
79780W        W52106   6.609   3.675  12.828
79781W        W52107  27.115  10.685   4.868
79782W        W52108  31.014   5.822  14.660
79783W        W52109  26.743  14.172   0.945
79784W        W52110  30.021  27.179  12.900
79785W        W52111  20.515   0.695  14.011
79786W        W52112  10.327  35.987  14.332
79787W        W52113  30.919  44.517  12.081
79788W        W52114   9.302  30.739  12.961
79789W        W52115   3.528  38.926  14.393
79790W        W52116  14.847   9.102   0.081
79791W        W52117  22.778  25.827  14.426
79792W        W52118  20.213   4.393  12.390
79793W        W52119  12.141   3.242   3.687
79794W        W52120  11.643  20.530   0.688
79795W        W52121  19.081  31.743  10.667
79796W        W52122  20.280   4.926   0.879
79797W        W52123  27.499   4.906  12.207
79798W        W52124  32.392   4.294  12.105
79799W        W52125  42.375  14.045   4.314
79800W        W52126  21.634  24.942  11.161
79801W        W52127  11.851  14.746   2.226
79802W        W52128  39.854  13.548   4.076
79803W        W52129  37.555  36.930   2.103
79804W        W52130  30.296  37.000  12.171
79805W        W52131   6.154  43.701   1.632
79806W        W52132   9.171  31.940   2.201
79807W        W52133   0.344  13.625  14.459
79808W        W52134  42.480  39.859   4.046
79809W        W52135  19.630  23.938   0.230
79810W        W52136  36.495  13.421   0.243
79811W        W52137  42.826  41.064  14.905
79812W        W52138  38.226  33.148   3.720
79813W        W52139  29.461  38.652   4.892
79814W        W52140  23.462  38.959  12.470
79815W        W52141   5.476   5.809   4.385
79816W        W52142  22.084  27.208  14.778
79817W        W52143  20.170  40.926  10.784
79818W        W52144  33.616  11.245   3.274
79819W        W52145  30.495  11.332   2.577
79820W        W52146  15.340  36.902  10.643
79821W        W52147  25.727  21.984   3.216
79822W        W52148  37.964  21.578  12.384
79823W        W52149  36.432  33.155   4.145
79824W        W52150  32.410  36.147  12.943
79825W        W52151   7.464  36.274  14.322
79826W        W52152   5.690   4.841  14.613
79827W        W52153  16.801  10.734   2.407
79828W        W52154   8.903  23.175  12.738
79829W        W52155   3.458  25.055   2.569
79830W        W52156  38.447   6.312   4.246
79831W        W52157  30.817   3.438  13.831
79832W        W52158  21.482  40.579  12.981
79833W        W52159  42.347  11.260  11.884
79834W        W52160  32.134  32.954   2.938
79835W        W52161  27.497   9.678   4.124
79836W        W52162  27.341   0.329   3.742
79837W        W52163  24.289  23.617  11.594
79838W        W52164  38.428  37.860   4.638
79839W        W52165  24.424  43.440  10.442
79840W        W52166  20.554   2.775   3.108
79841W        W52167  36.907  24.500  12.200
79842W        W52168  23.644  25.987   3.812
79843W        W52169  34.117  35.115   2.431
79844W        W52170  23.907  11.880   1.424
79845W        W52171  30.400   6.216   1.751
79846W        W52172  43.963   5.877   4.691
79847W        W52173  30.531  17.678  14.295
79848W        W52174  41.817  19.511   1.460
79849W        W52175  35.419   7.639  14.345
79850W        W52176  17.851  44.455   0.917
79851W        W52177   1.123   8.989   2.850
79852W        W52178  14.582  27.682  11.511
79853W        W52179   0.643  21.396  14.025
79854W        W52180   4.260  24.758  10.804
79855W        W52181   4.282  42.779   1.834
79856W        W52182  41.944  26.603   1.350
79857W        W52183  28.549  34.572   1.186
79858W        W52184  38.412  19.903   3.307
79859W        W52185  21.880  28.970   1.441
79860W        W52186  25.291   7.620   3.408
79861W        W52187  13.368  35.822  10.773
79862W        W52188   2.196  11.315  11.664
79863W        W52189  38.310  42.020  11.084
79864W        W52190  12.665   0.462  14.680
79865W        W52191  40.918  35.374  10.935
79866W        W52192  42.818  38.005   3.662
79867W        W52193   2.870  39.584   1.861
79868W        W52194   9.233  34.132  14.430
79869W        W52195  19.475  14.699  12.114
79870W        W52196  14.051  27.716   0.445
79871W        W52197  34.399  33.601  13.495
79872W        W52198  25.182  25.688   1.277
79873W        W52199   4.250  25.007  14.049
79874W        W52200  33.134   6.080  14.022
79875W        W52201  29.240  23.476  13.664
79876W        W52202  17.475   9.912  12.446
79877W        W52203   5.294  35.869   0.323
79878W        W52204  22.596  15.727   2.663
79879W        W52205   7.922  11.253  10.284
79880W        W52206  34.559   6.849  12.920
79881W        W52207  25.291  26.564   1.226
79882W        W52208  15.156   9.980   2.190
79883W        W52209  36.778  27.171   1.011
79884W        W52210  27.488   6.134  14.931
79885W        W52211  36.301  41.251  13.374
79886W        W52212  26.594  13.585  13.891
79887W        W52213  16.750  26.190   0.708
79888W        W52214  28.911  30.484   0.580
79889W        W52215  27.969   7.935  11.218
79890W        W52216  29.107  41.636  10.948
79891W        W52217  29.981   1.396   3.789
79892W        W52218  25.680   0.828  13.260
79893W        W52219  22.376  39.190  12.008
79894W        W52220   1.211  12.176  11.700
79895W        W52221  42.748  15.766  10.562
79896W        W52222  34.022  41.140   3.447
79897W        W52223  16.413   4.630   1.222
79898W        W52224  14.140  35.893  10.629
79899W        W52225   3.403  42.332  14.867
79900W        W52226  16.890   3.898  10.859
79901W        W52227  26.201   1.511  12.939
79902W        W52228  20.145  24.249   1.394
79903W        W52229  28.862   2.182   0.382
79904W        W52230  25.010  21.956   4.886
79905W        W52231  41.850  37.744   3.571
79906W        W52232  27.541  11.236   0.921
79907W        W52233  32.903  24.104  14.998
79908W        W52234  40.762  12.568   4.538
79909W        W52235  19.378  34.505  11.465
79910W        W52236  34.980  13.205   2.116
79911W        W52237  12.293  41.413   0.293
79912W        W52238  37.524   3.345  12.078
79913W        W52239  24.006  38.802  13.025
79914W        W52240  43.429  40.437   3.510
79915W        W52241  44.907  41.128   2.496
79916W        W52242  30.210  16.844   1.028
79917W        W52243  13.656   5.818  10.877
79918W        W52244  25.683  29.095  11.010
79919W        W52245   6.640  44.794   3.169
79920W        W52246  34.875  12.506  12.042
79921W        W52247  40.524  42.207  10.756
79922W        W52248  17.707  26.967  13.339
79923W        W52249  18.577  16.936   5.091
79924W        W52250  14.230  24.462   4.963
79925W        W52251  13.220  10.734   1.786
79926W        W52252  37.516   8.790  10.360
79927W        W52253   0.584   8.984   1.137
79928W        W52254  24.930   8.981   5.232
79929W        W52255  37.156  39.146  14.505
79930W        W52256   2.838  38.039   2.124
79931W        W52257  17.158  17.191  10.221
79932W        W52258  40.849  43.943  14.623
79933W        W52259   0.742  21.078   0.914
79934W        W52260  10.618  37.383   1.835
79935W        W52261   3.674  21.828  14.475
79936W        W52262  10.266  33.748   4.884
79937W        W52263  38.341   2.312  14.398
79938W        W52264   1.798  43.827  11.662
79939W        W52265  23.111  26.971  13.443
79940W        W52266  19.205   0.945   4.695
79941W        W52267   2.069   0.874  12.719
79942W        W52268  34.518  30.816  14.000
79943W        W52269   0.281  34.885  14.875
79944W        W52270  10.394  17.319   2.859
79945W        W52271  38.930  34.925  13.106
79946W        W52272  16.576  23.007  11.162
79947W        W52273  14.300  16.073   3.235
79948W        W52274  30.472  35.560  12.020
79949W        W52275  21.591  19.296  11.273
79950W        W52276  29.789  35.153  13.514
79951W        W52277  44.320  32.664   2.429
79952W        W52278  40.853  43.938   4.137
79953W        W52279   1.539  34.447   2.281
79954W        W52280  27.067   2.696   4.393
79955W        W52281  15.755  36.378  14.516
79956W        W52282  34.681   6.699  14.915
79957W        W52283  34.027  13.755   1.460
79958W        W52284   8.859   3.321   1.299
79959W        W52285  37.914  36.331   1.417
79960W        W52286  14.794   1.178   0.440
79961W        W52287  13.333  19.168  13.425
79962W        W52288  39.977  28.582  12.049
79963W        W52289  41.337  30.886   1.731
79964W        W52290  30.906   9.205   1.417
79965W        W52291  43.527   0.615  14.858
79966W        W52292  35.101  31.413  13.842
79967W        W52293  32.581  36.363  12.154
79968W        W52294  34.646   6.723   2.583
79969W        W52295  39.871  16.677   5.016
79970W        W52296  38.815  44.780  10.773
79971W        W52297  43.248  13.647  14.825
79972W        W52298  34.601  23.037  10.912
79973W        W52299  34.319  34.571   2.429
79974W        W52300  38.412  21.010  13.414
79975W        W52301  19.599  29.063  12.147
79976W        W52302  44.516  21.624  14.089
79977W        W52303  20.494  30.456   0.462
79978W        W52304  12.079  16.587   2.660
79979W        W52305  35.845  28.533   3.704
79980W        W52306  12.377   9.681  13.825
79981W        W52307  29.443  16.599  11.134
79982W        W52308  36.545   6.782   4.551
79983W        W52309  22.689  42.389   3.592
79984W        W52310  44.979  27.005   2.016
79985W        W52311  29.892  41.285   3.776
79986W        W52312  31.984  36.063   0.829
79987W        W52313  36.608   7.610  12.310
79988W        W52314  16.626  20.241  13.591
79989W        W52315  38.783   1.964   4.414
79990W        W52316   1.534  39.531   2.854
79991W        W52317  18.540   0.008   0.681
79992W        W52318  40.532  17.100   2.423
79993W        W52319  34.963  29.704  12.932
79994W        W52320  20.497   6.805  12.843
79995W        W52321  14.199  39.024  14.588
79996W        W52322  35.195  17.606  11.051
79997W        W52323  23.224   5.489   2.281
79998W        W52324  37.888  20.998   2.875
79999W        W52325   4.507  17.266  12.501
80000W        W52326  38.063   4.475   0.318
80001W        W52327  10.820  27.442  14.031
80002W        W52328  36.728   6.083   4.278
80003W        W52329  43.352  19.702   1.463
80004W        W52330  32.737   5.702  11.534
80005W        W52331  18.599  12.402  13.885
80006W        W52332  39.950  26.734   2.639
80007W        W52333  35.887   1.973   2.405
80008W        W52334   4.430  31.496   2.183
80009W        W52335   1.710  14.338   3.367
80010W        W52336  43.326  20.861  11.894
80011W        W52337  27.274  41.137  12.988
80012W        W52338  33.968  31.512   4.399
80013W        W52339  22.726   5.918  14.014
80014W        W52340  35.319   0.536   0.763
80015W        W52341  37.588  15.584  13.510
80016W        W52342   6.057   6.331   1.656
80017W        W52343  35.256  32.541   0.793
80018W        W52344  37.005  16.578  11.079
80019W        W52345   0.885   4.965  13.789
80020W        W52346  23.290  39.047  11.140
80021W        W52347  25.033  24.702   1.279
80022W        W52348  20.579  26.010   2.184
80023W        W52349  35.465  11.875  10.691
80024W        W52350  38.809   5.757  12.946
80025W        W52351  30.907   2.250  11.483
80026W        W52352   4.875   4.665   3.836
80027W        W52353  43.830  31.917  12.823
80028W        W52354  19.214  17.677  14.407
80029W        W52355  27.161  38.573  14.689
80030W        W52356  21.545  27.051  10.570
80031W        W52357  28.122  41.865   2.837
80032W        W52358   1.554  41.895   2.330
80033W        W52359  33.919  36.558   3.586
80034W        W52360  35.958  44.738  10.502
80035W        W52361   0.742   8.334   5.034
80036W        W52362  25.130  39.943  14.911
80037W        W52363  30.062  34.608  14.367
80038W        W52364  17.145  28.548   3.540
80039W        W52365  36.388  44.983   2.921
80040W        W52366  34.977  25.103   4.581
80041W        W52367  44.297  19.905  14.785
80042W        W52368  39.498  41.973  14.512
80043W        W52369  39.916   7.032  13.910
80044W        W52370  18.962  11.193   2.785
80045W        W52371  11.675  26.023   1.270
80046W        W52372  43.806   3.251  13.886
80047W        W52373  44.870  29.997  11.126
80048W        W52374  23.201  12.855   4.279
80049W        W52375   1.790   0.812  14.548
80050W        W52376  43.567   0.378  12.080
80051W        W52377  14.231   1.631  12.648
80052W        W52378  26.781  30.652  11.161
80053W        W52379  16.558   9.470  11.427
80054W        W52380  33.405  31.592  11.667
80055W        W52381  21.523  20.890  14.961
80056W        W52382  42.564  14.059  10.382
80057W        W52383  34.518  38.700   0.689
80058W        W52384  29.204   0.341   2.959
80059W        W52385   7.423   0.327   3.194
80060W        W52386   0.695  21.200   2.300
80061W        W52387  36.736  10.469   4.463
80062W        W52388  22.203  36.353  12.051
80063W        W52389  42.482  22.767   2.181
80064W        W52390  12.949  27.858  12.326
80065W        W52391  41.896  19.666   2.422
80066W        W52392  14.172  34.040   3.336
80067W        W52393  12.546   3.970  12.821
80068W        W52394  17.685   6.744   1.919
80069W        W52395  14.926  38.647  11.120
80070W        W52396   7.957  24.170   3.671
80071W        W52397   2.221  34.178   3.349
80072W        W52398  30.129  41.956  14.720
80073W        W52399  20.622  39.044  10.624
80074W        W52400  28.642  28.594  10.600
80075W        W52401  43.426  31.642   1.449
80076W        W52402  26.617  17.610   3.015
80077W        W52403  20.367  43.870  12.232
80078W        W52404  33.299  36.900   1.039
80079W        W52405  39.282  17.603   3.359
80080W        W52406  22.739  33.061   3.274
80081W        W52407   4.546   4.005   2.626
80082W        W52408  28.570  15.568  10.417
80083W        W52409  28.996  33.635  14.316
80084W        W52410  29.256  25.206   4.198
80085W        W52411  40.361  29.259  14.860
80086W        W52412  25.066  21.451  10.657
80087W        W52413   9.735  14.268   3.976
80088W        W52414  28.927  37.054   1.956
80089W        W52415  14.523  38.706  13.453
80090W        W52416   9.757  27.068   2.122
80091W        W52417  20.229  25.205  13.413
80092W        W52418   8.788  28.957   1.261
80093W        W52419  35.598  31.225  12.145
80094W        W52420  27.442  44.894   0.730
80095W        W52421  38.105  29.376   2.693
80096W        W52422  13.156  18.005   1.299
80097W        W52423  25.590  21.078  10.915
80098W        W52424   6.166   4.222  12.182
80099W        W52425   3.453  35.197  11.115
80100W        W52426   1.866  14.168   0.034
80101W        W52427   1.521  24.947   0.956
80102W        W52428  37.041  26.715  13.949
80103W        W52429  15.927  10.358  13.869
80104W        W52430   8.413   2.803   1.271
80105W        W52431  37.516  37.359   1.788
80106W        W52432  15.709  27.580   4.833
80107W        W52433  33.932  33.378  13.516
80108W        W52434  43.742  22.076  11.721
80109W        W52435  22.283  14.340   0.175
80110W        W52436   3.324  26.603   1.206
80111W        W52437  20.437  11.827  14.794
80112W        W52438  44.870   2.494   4.124
80113W        W52439   9.103  30.055  14.684
80114W        W52440  26.622  24.014  13.826
80115W        W52441   3.815  44.083  13.288
80116W        W52442  34.300   5.941  12.677
80117W        W52443  15.867   8.866  11.608
80118W        W52444  26.449  42.853  11.900
80119W        W52445  35.041  22.115   1.437
80120W        W52446  32.630   4.333  10.643
80121W        W52447  41.420   7.909   4.763
80122W        W52448  15.508   6.409   0.821
80123W        W52449  25.099   6.154   0.456
80124W        W52450  38.574  39.162  11.156
80125W        W52451  23.142  13.133  14.256
80126W        W52452  14.530  44.392  13.869
80127W        W52453  15.699  44.934  12.490
80128W        W52454  37.881  16.179   4.858
80129W        W52455  13.785  29.552  11.802
80130W        W52456   3.145   5.511   5.023
80131W        W52457  17.565   5.689  14.851
80132W        W52458  30.905  16.500   2.820
80133W        W52459  34.981  12.183   0.638
80134W        W52460  17.517  41.198  12.476
80135W        W52461   4.001  30.665  13.471
80136W        W52462  42.244  10.724   2.662
80137W        W52463  29.658   0.311   4.029
80138W        W52464   6.904   7.194   2.841
80139W        W52465  21.548  12.693  12.006
80140W        W52466  34.348  22.763  12.433
80141W        W52467  19.590   2.178  10.515
80142W        W52468  33.002  39.830   3.663
80143W        W52469  31.972  41.540  13.409
80144W        W52470  37.387  24.643  12.368
80145W        W52471  18.148  34.605  13.276
80146W        W52472  10.133  22.142  14.480
80147W        W52473   8.298  15.366   4.812
80148W        W52474  18.737  17.614   0.717
80149W        W52475  42.592  17.185   1.129
80150W        W52476  30.899  41.961  11.371
80151W        W52477  23.414   2.399  14.459
80152W        W52478  42.527  17.615   0.863
80153W        W52479   9.128  24.920   2.283
80154W        W52480  11.367  43.906  11.511
80155W        W52481  31.283   4.878   2.914
80156W        W52482  41.761  44.590  13.074
80157W        W52483  29.490  31.956  14.835
80158W        W52484  42.448  34.087  11.961
80159W        W52485  11.788  20.812   4.718
80160W        W52486   1.189   3.520   4.554
80161W        W52487  43.374  35.744  14.859
80162W        W52488   9.685  36.469   2.793
80163W        W52489  32.073  39.840  13.756
80164W        W52490  43.265  42.520   2.821
80165W        W52491   8.613   0.571   4.172
80166W        W52492  37.852   8.594  11.681
80167W        W52493   4.783  23.644  10.592
80168W        W52494  20.575   2.236  14.012
80169W        W52495  34.824  23.616  11.184
80170W        W52496  28.636   4.949   0.405
80171W        W52497  17.086  42.422   1.448
80172W        W52498   5.965  26.108  12.478
80173W        W52499  22.273  18.718  10.661
80174W        W52500  16.113  27.466  13.310
80175W        W52501  22.535  31.416   1.390
80176W        W52502  19.184   6.588  12.053
80177W        W52503  29.546  40.031   2.743
80178W        W52504  35.569  36.568  13.424
80179W        W52505  15.176  31.293  12.232
80180W        W52506   8.275  24.168  14.472
80181W        W52507  32.886  27.648  14.031
80182W        W52508  38.937   9.636   2.193
80183W        W52509  27.542  27.908   3.652
80184W        W52510   0.044  23.676   0.259
80185W        W52511  37.034  21.593  12.706
80186W        W52512  44.639   0.830   4.062
80187W        W52513  39.781   2.853  13.310
80188W        W52514  43.473   7.832  12.021
80189W        W52515  29.610  34.477   3.269
80190W        W52516   7.399   2.938  12.936
80191W        W52517  40.326   6.135   4.501
80192W        W52518   8.280  29.822  12.179
80193W        W52519  20.725  30.953   0.376
80194W        W52520   3.699  32.869   0.149
80195W        W52521   1.073   4.394   0.035
80196W        W52522  11.657  12.303  11.125
80197W        W52523  15.326  15.742   1.890
80198W        W52524  12.343  10.612   1.282
80199W        W52525   8.725   0.381  14.787
80200W        W52526  12.303  37.891   3.261
80201W        W52527  16.265  38.897  11.892
80202W        W52528  32.104  42.515   3.247
80203W        W52529  22.189  22.627  12.512
80204W        W52530  28.234  16.152   4.194
80205W        W52531  22.694  38.889   1.264
80206W        W52532  28.204   7.634   3.194
80207W        W52533  10.211  14.739  10.388
80208W        W52534   0.679  36.911   1.799
80209W        W52535  38.705  29.634  14.375
80210W        W52536  36.597  25.035  10.579
80211W        W52537  36.420  11.907  10.254
80212W        W52538  39.483   5.334   1.515
80213W        W52539   3.430  28.916   3.214
80214W        W52540  31.671  29.101   3.179
80215W        W52541   1.674  13.323   2.271
80216W        W52542  18.808   2.176   1.889
80217W        W52543   2.771  36.977   2.320
80218W        W52544  38.879  18.507   0.319
80219W        W52545  29.874  25.135  12.020
80220W        W52546  39.490   7.901   3.217
80221W        W52547  37.532  43.026   1.405
80222W        W52548   3.691  44.955  11.609
80223W        W52549  30.080  22.193   4.771
80224W        W52550  43.476  10.278   3.731
80225W        W52551   0.386  29.119  13.394
80226W        W52552  29.146   9.779  14.938
80227W        W52553  15.309   4.366   4.303
80228W        W52554  27.865  37.243  12.881
80229W        W52555  39.544  43.901   4.184
80230W        W52556  42.717  22.553   3.031
80231W        W52557   0.131  20.212   1.786
80232W        W52558  38.242   5.894   4.031
80233W        W52559   1.574  36.279  14.960
80234W        W52560  16.210  26.524  13.081
80235W        W52561   9.707  36.975  11.560
80236W        W52562  21.697   8.125  12.070
80237W        W52563   4.926  28.398  14.919
80238W        W52564  18.137   6.534   1.855
80239W        W52565  18.144  12.748  10.756
80240W        W52566  35.090   1.970  13.526
80241W        W52567  22.549  13.662   3.623
80242W        W52568  29.937  43.713  13.899
80243W        W52569  35.180   2.625  11.923
80244W        W52570  17.171  38.470  10.664
80245W        W52571  19.870  29.093   3.196
80246W        W52572  24.806  23.586  11.566
80247W        W52573  38.812  11.915   5.165
80248W        W52574  16.318  23.767   3.175
80249W        W52575  22.773   3.436   1.847
80250W        W52576  32.155   3.572  12.051
80251W        W52577  28.632  17.399  10.306
80252W        W52578  15.599  23.352   1.986
80253W        W52579  15.554  43.981  14.918
80254W        W52580  19.285  21.605   4.305
80255W        W52581  19.359  41.764   2.956
80256W        W52582   2.678   4.974  14.860
80257W        W52583  30.540  16.293  14.798
80258W        W52584  44.116  41.329  14.876
80259W        W52585  13.289  25.998  12.158
80260W        W52586  15.234  21.339  11.968
80261W        W52587   3.707  41.460  10.085
80262W        W52588  23.122   4.378   3.628
80263W        W52589  40.943  32.480   4.726
80264W        W52590  29.660  10.911   3.797
80265W        W52591  26.675  31.919   3.711
80266W        W52592  25.398  28.055   2.050
80267W        W52593  31.049  36.073  14.103
80268W        W52594  44.849  42.878   2.826
80269W        W52595  35.611   8.228  13.520
80270W        W52596  34.135  10.580   2.657
80271W        W52597  15.378  40.502  14.687
80272W        W52598  25.927  26.988  10.578
80273W        W52599  13.766  19.041  12.636
80274W        W52600  18.358  38.312  14.292
80275W        W52601  41.797  41.827  11.290
80276W        W52602  21.504  32.977   2.409
80277W        W52603  31.991   2.381   2.413
80278W        W52604  12.267  36.584   2.837
80279W        W52605  22.968  34.567   2.836
80280W        W52606  42.475   6.166   2.654
80281W        W52607  25.389   5.360  14.801
80282W        W52608  30.515  20.123   2.758
80283W        W52609   1.479  37.996   1.438
80284W        W52610  21.679  43.371   2.450
80285W        W52611   7.399  35.625  12.010
80286W        W52612  12.395  22.138  13.719
80287W        W52613  27.032  12.185   2.751
80288W        W52614  10.233   2.941   2.415
80289W        W52615  33.901  26.990   3.923
80290W        W52616   8.248  34.596   1.333
80291W        W52617  30.671  26.544  12.931
80292W        W52618  28.476   0.965  12.589
80293W        W52619  42.334  25.010   1.710
80294W        W52620  44.687  30.616  10.494
80295W        W52621  13.301  44.763   4.404
80296W        W52622  21.223  17.606  11.951
80297W        W52623   3.632  31.290  14.473
80298W        W52624  40.390  30.393  14.422
80299W        W52625  18.699  45.000  12.563
80300W        W52626   5.602   4.114   1.055
80301W        W52627  16.382  15.835   2.209
80302W        W52628  31.342   8.736   3.235
80303W        W52629  20.056  14.543   1.464
80304W        W52630   8.166  24.594  14.091
80305W        W52631   4.295  20.119   3.404
80306W        W52632  10.127  43.802  12.210
80307W        W52633   2.018   1.761  12.876
80308W        W52634  23.136  40.844   1.950
80309W        W52635  40.481  22.297   3.279
80310W        W52636  17.947  30.541  12.400
80311W        W52637  21.709   9.218  11.547
80312W        W52638  11.238  25.229   1.151
80313W        W52639  14.627   5.772  10.755
80314W        W52640  13.190  24.560   1.192
80315W        W52641  29.485  19.569  12.226
80316W        W52642   8.120  22.130   3.666
80317W        W52643  14.645  29.188   4.675
80318W        W52644  22.076  34.788  14.529
80319W        W52645  35.028  26.258  12.877
80320W        W52646  29.472  23.727  12.833
80321W        W52647   9.345  22.706   1.914
80322W        W52648  29.978  31.681   4.171
80323W        W52649  44.400  18.966  10.640
80324W        W52650  42.033  32.328   0.105
80325W        W52651  37.057  23.034   2.355
80326W        W52652  27.887  40.001  12.976
80327W        W52653   3.483   8.859   0.002
80328W        W52654  26.667  26.524  14.914
80329W        W52655  24.164  42.950   1.763
80330W        W52656  21.758  17.083  14.971
80331W        W52657  28.399  33.956   0.801
80332W        W52658  21.312  39.553   0.270
80333W        W52659  21.011  43.862  10.570
80334W        W52660  18.599  25.676   0.929
80335W        W52661  19.624  24.587   0.351
80336W        W52662  14.541  19.764   0.039
80337W        W52663  33.515   6.355   0.338
80338W        W52664   5.817   3.281  12.635
80339W        W52665  39.778  24.613   0.755
80340W        W52666   6.661  21.849  11.212
80341W        W52667   5.315   1.929  12.471
80342W        W52668  32.436  27.678   1.369
80343W        W52669   0.328   8.862  11.974
80344W        W52670   3.890  31.527  13.597
80345W        W52671  11.752  31.051   1.949
80346W        W52672  28.007  36.726  11.017
80347W        W52673  41.886  28.491   3.841
80348W        W52674   5.792  14.091  13.544
80349W        W52675  40.483  31.549  13.823
80350W        W52676   1.359  42.864   5.085
80351W        W52677   4.905  39.151   4.555
80352W        W52678  38.794  25.251  12.596
80353W        W52679  31.553  30.947   3.141
80354W        W52680   1.364  30.877   3.783
80355W        W52681  39.342   0.854   3.927
80356W        W52682  18.651  33.757   4.876
80357W        W52683  28.109   9.097  12.840
80358W        W52684  39.110  30.054  12.917
80359W        W52685  43.026  41.299   3.730
80360W        W52686  20.256  12.099  12.537
80361W        W52687  22.823  31.025  10.862
80362W        W52688  44.332  44.802   2.316
80363W        W52689  15.506  18.731  13.039
80364W        W52690  24.700  15.274  12.983
80365W        W52691  15.341  25.765   3.829
80366W        W52692  16.609   7.733  11.610
80367W        W52693  44.831  12.658   3.776
80368W        W52694  27.020  33.466  13.536
80369W        W52695  27.400   0.314   4.258
80370W        W52696  42.911  21.590  13.850
80371W        W52697  42.056  31.708   4.381
80372W        W52698  18.135  12.930   3.048
80373W        W52699   3.855  15.313  14.360
80374W        W52700  23.498   6.186   1.695
80375W        W52701  27.172  11.186  14.333
80376W        W52702  31.422  16.100  11.939
80377W        W52703  26.732   9.398   1.778
80378W        W52704  26.158  40.537   0.856
80379W        W52705  13.101  28.450   2.862
80380W        W52706  13.822  28.507  10.982
80381W        W52707  36.361  28.036   0.816
80382W        W52708  41.898  27.969   3.074
80383W        W52709  33.719  41.688  12.842
80384W        W52710   2.493   9.253   3.286
80385W        W52711   6.268  43.584   2.720
80386W        W52712  40.438  24.658   0.267
80387W        W52713  31.314  44.816   2.201
80388W        W52714  27.008  25.268   4.513
80389W        W52715   1.763   6.233  13.447
80390W        W52716   5.989   7.305   1.925
80391W        W52717  38.439  27.002  13.316
80392W        W52718   4.344   3.286  12.037
80393W        W52719  26.063   8.884   1.067
80394W        W52720  31.445  32.539  13.042
80395W        W52721  40.522  34.873   1.432
80396W        W52722  25.244   9.274   4.415
80397W        W52723  11.898  23.457  12.508
80398W        W52724  30.494  22.995   2.717
80399W        W52725  26.065  41.209   0.482
80400W        W52726  17.387  28.537   0.741
80401W        W52727  18.224  40.870  14.992
80402W        W52728  44.972  28.649   4.464
80403W        W52729  19.309   5.239  12.008
80404W        W52730  21.316   3.935   3.262
80405W        W52731  23.107  16.996  10.912
80406W        W52732  15.561  12.011  14.627
80407W        W52733  36.259  30.387   3.153
80408W        W52734  30.323   6.898  11.881
80409W        W52735  21.637  23.947  14.537
80410W        W52736  16.391  37.578  14.211
80411W        W52737  33.892  40.921  14.225
80412W        W52738   1.757  27.202  10.753
80413W        W52739  17.096   5.319   4.801
80414W        W52740  27.237  13.132   0.926
80415W        W52741  34.584  21.809  10.980
80416W        W52742   6.452   2.782  13.090
80417W        W52743  44.856   1.538   2.734
80418W        W52744  38.867  44.967  13.921
80419W        W52745  14.296  34.444  14.339
80420W        W52746  31.508  40.945  10.623
80421W        W52747  27.579  39.915   3.566
80422W        W52748   3.311  24.149  10.810
80423W        W52749  37.578   4.873  10.758
80424W        W52750  43.111  29.023  14.375
80425W        W52751  15.959  23.604   1.679
80426W        W52752  19.127   3.687  11.650
80427W        W52753  24.650  14.874   3.764
80428W        W52754  24.526  35.537   0.838
80429W        W52755  37.276  26.263   3.301
80430W        W52756  39.879  19.043  11.150
80431W        W52757  13.749  40.785   1.411
80432W        W52758   8.603   8.157  12.085
80433W        W52759  20.953  15.929   2.375
80434W        W52760  23.002  43.456   0.054
80435W        W52761  32.510  11.852  13.386
80436W        W52762  37.556  20.381  10.064
80437W        W52763  17.224   1.406  11.402
80438W        W52764  42.394  36.167  13.850
80439W        W52765  43.598  24.910  11.127
80440W        W52766  16.061  36.010  11.599
80441W        W52767   1.525  41.366  13.851
80442W        W52768  36.525  34.027  14.097
80443W        W52769   5.219  20.451   1.641
80444W        W52770  13.763   5.177   2.203
80445W        W52771   7.133   9.577   1.841
80446W        W52772  34.245  30.463  13.712
80447W        W52773   7.005  12.885  13.615
80448W        W52774   0.251  21.560  12.041
80449W        W52775   3.754  24.070  13.901
80450W        W52776  11.014  44.808  12.411
80451W        W52777  26.710  24.073  14.981
80452W        W52778   3.860  14.268   4.203
80453W        W52779  21.202  29.695  13.434
80454W        W52780  26.141  16.140  14.957
80455W        W52781  19.934   0.935   1.308
80456W        W52782   9.034  28.193  12.906
80457W        W52783  44.119  28.014   1.307
80458W        W52784   6.055   2.149  10.222
80459W        W52785  33.868   2.350  10.676
80460W        W52786  19.579   7.554   4.291
80461W        W52787   4.426  32.079   1.972
80462W        W52788  36.507  26.065  12.839
80463W        W52789  39.613  18.149  13.373
80464W        W52790  37.296  14.190   2.256
80465W        W52791  35.056  27.953   2.906
80466W        W52792  30.754  25.478   2.157
80467W        W52793   2.972   4.562  14.874
80468W        W52794  18.098   7.522   2.005
80469W        W52795  15.097  17.475  13.869
80470W        W52796  41.210   2.263   4.639
80471W        W52797  35.460   4.212   3.747
80472W        W52798  34.494  20.279   1.455
80473W        W52799  14.270  44.704   1.469
80474W        W52800   2.004  21.639  14.842
80475W        W52801  11.129  26.424  13.052
80476W        W52802   0.029  11.683  13.581
80477W        W52803  31.868  14.548  11.383
80478W        W52804  39.231  28.931  13.607
80479W        W52805  40.989  23.224   0.878
80480W        W52806  37.462  20.770   1.397
80481W        W52807  26.657  35.458  12.113
80482W        W52808  10.598  24.638   3.169
80483W        W52809   8.834  17.994  10.797
80484W        W52810   8.247  36.059   1.909
80485W        W52811  40.124  19.550   2.670
80486W        W52812  41.429  15.116  13.512
80487W        W52813  43.180  43.036   3.001
80488W        W52814  28.499  11.891  12.722
80489W        W52815  39.372  27.957   3.267
80490W        W52816  31.929   1.828  12.916
80491W        W52817  30.439   5.465  14.220
80492W        W52818  37.079  37.945  12.270
80493W        W52819  42.554  40.077  14.399
80494W        W52820  44.316  41.922  12.550
80495W        W52821  34.075  16.538  13.731
80496W        W52822  11.675  13.618   4.548
80497W        W52823  39.296   8.275  13.914
80498W        W52824  39.967  44.307  14.857
80499W        W52825  20.667  13.672  12.853
80500W        W52826  38.428  13.325  13.829
80501W        W52827  12.094  19.756  11.517
80502W        W52828  16.248  33.416   3.177
80503W        W52829  25.975  15.037   9.626
80504W        W52830  36.489  41.806   2.092
80505W        W52831   6.212   9.857  12.532
80506W        W52832  39.979  27.261  10.590
80507W        W52833  34.898   4.857   2.021
80508W        W52834  29.313  20.194   0.399
80509W        W52835  11.604  30.198  11.018
80510W        W52836  13.324  20.544  12.923
80511W        W52837  15.397   6.217   2.743
80512W        W52838   8.157  44.287   3.859
80513W        W52839  18.353   4.800   3.320
80514W        W52840  38.429  25.584   4.159
80515W        W52841  39.646   3.933   2.787
80516W        W52842  23.474  14.788  14.398
80517W        W52843  27.209  10.162  12.125
80518W        W52844  29.953  35.132  14.397
80519W        W52845  13.752  33.817   5.577
80520W        W52846  34.137  20.719  12.837
80521W        W52847  31.526  38.326   2.852
80522W        W52848  32.046  12.860  14.362
80523W        W52849  24.181  26.681  12.868
80524W        W52850  15.454  24.652   2.693
80525W        W52851  13.572   3.370  14.285
80526W        W52852  17.549  19.252  14.965
80527W        W52853  26.951  25.930   2.722
80528W        W52854  44.743  38.066  13.412
80529W        W52855  14.579  30.952   0.485
80530W        W52856   1.968  26.588  12.063
80531W        W52857   9.726   5.191   3.529
80532W        W52858  44.813  39.500  11.884
80533W        W52859  18.600  29.929   1.973
80534W        W52860  25.802  16.758   1.113
80535W        W52861  21.825   2.160   5.011
80536W        W52862  32.367  18.977  13.427
80537W        W52863  15.811  14.696  11.376
80538W        W52864  39.820  35.609   2.930
80539W        W52865  27.476  24.786   2.331
80540W        W52866  26.680  32.034   1.841
80541W        W52867  39.113   8.693   4.455
80542W        W52868  30.537  40.994  11.651
80543W        W52869  39.312  44.502   1.809
80544W        W52870  10.803   5.729  14.077
80545W        W52871  40.142  18.053  10.154
80546W        W52872  10.781  32.125  13.794
80547W        W52873  30.647  22.385  13.082
80548W        W52874  34.489  18.081  14.959
80549W        W52875  22.686  16.636   9.844
80550W        W52876   7.112  32.659   1.337
80551W        W52877  15.809  33.007  13.430
80552W        W52878  15.285  15.649   4.593
80553W        W52879  44.187  14.251   0.765
80554W        W52880  38.487  18.711   0.589
80555W        W52881  44.487  19.591  14.332
80556W        W52882  27.254  32.240  11.465
80557W        W52883   8.154  12.924   4.679
80558W        W52884  43.450  40.531  13.790
80559W        W52885   1.466   7.823  14.427
80560W        W52886   8.265   9.187   4.389
80561W        W52887   4.491  21.509  14.793
80562W        W52888  11.538  10.317   3.930
80563W        W52889  36.327   3.124   3.664
80564W        W52890  36.340  20.140  11.656
80565W        W52891  43.863  31.419   4.844
80566W        W52892  33.839   1.425  12.089
80567W        W52893  39.362   7.052  13.573
80568W        W52894  27.109   9.954   3.718
80569W        W52895   8.319  43.229  14.448
80570W        W52896  18.719   9.981   2.866
80571W        W52897  22.909  44.845  10.399
80572W        W52898  18.223  17.760   1.407
80573W        W52899  11.797  11.584  13.293
80574W        W52900   1.297  14.169  14.331
80575W        W52901   9.380  30.909   4.469
80576W        W52902  35.830  26.643   4.158
80577W        W52903  31.488  22.040  12.125
80578W        W52904  33.646  31.870  12.969
80579W        W52905  15.130   3.212  13.108
80580W        W52906  37.341  13.135  14.732
80581W        W52907  29.580   6.459   2.080
80582W        W52908  39.647  23.709  11.912
80583W        W52909   4.307  11.966  12.849
80584W        W52910  10.345  35.825  11.640
80585W        W52911  34.024  17.036  13.877
80586W        W52912  22.190   0.764  14.309
80587W        W52913  24.606  22.065   1.926
80588W        W52914  26.746   6.692   0.058
80589W        W52915  20.443   8.322  13.524
80590W        W52916  24.056  21.689   2.969
80591W        W52917  21.562  20.327   3.685
80592W        W52918  28.916  26.842   3.712
80593W        W52919  23.687  26.162   4.322
80594W        W52920   3.718  30.586  13.071
80595W        W52921   6.936  36.989  13.092
80596W        W52922  10.811   1.407   2.738
80597W        W52923  30.573   3.371  12.986
80598W        W52924   9.984  22.548  13.476
80599W        W52925  31.140  16.490   1.924
80600W        W52926  34.034  40.720   4.243
80601W        W52927  18.189   0.095   1.943
80602W        W52928  13.107  27.379  10.726
80603W        W52929  35.053  36.634   9.759
80604W        W52930  44.495  29.678   2.974
80605W        W52931  42.991   5.695   3.904
80606W        W52932   9.700  33.079   3.563
80607W        W52933  36.436   2.730   2.305
80608W        W52934  27.013  13.271   4.919
80609W        W52935  21.077  26.132   2.317
80610W        W52936   0.926  39.877  11.113
80611W        W52937  38.536  40.053   1.220
80612W        W52938  22.067  40.490  10.531
80613W        W52939  42.554  22.653  11.925
80614W        W52940  27.145  29.234   0.399
80615W        W52941  22.689  44.313   4.599
80616W        W52942   5.484   7.442  13.847
80617W        W52943   4.691   1.749   3.254
80618W        W52944   4.760  33.926  14.789
80619W        W52945  43.594   2.305  11.928
80620W        W52946  19.784  30.183   1.847
80621W        W52947  18.335  11.168  13.317
80622W        W52948  11.166  24.789   1.428
80623W        W52949  37.524   3.955   2.854
80624W        W52950  12.384  31.369  12.498
80625W        W52951  12.008  27.256   1.999
80626W        W52952  27.667  16.556  14.370
80627W        W52953  30.130   3.606  12.900
80628W        W52954  32.654   3.026  13.421
80629W        W52955  15.937  38.549  11.116
80630W        W52956  32.506  25.984   2.201
80631W        W52957  12.323  36.194   0.061
80632W        W52958  32.536  30.811  11.077
80633W        W52959   1.434  40.716   3.963
80634W        W52960   8.425  32.928  12.547
80635W        W52961  13.834  26.354   4.732
80636W        W52962  24.269  32.075   1.350
80637W        W52963   5.462  11.218   1.850
80638W        W52964  34.089  25.579  11.710
80639W        W52965  10.915   2.073   0.858
80640W        W52966  24.090  40.439   9.868
80641W        W52967   0.733  22.757  13.976
80642W        W52968  33.393  25.133   2.347
80643W        W52969  32.487  36.084   5.070
80644W        W52970  10.301  14.658   0.432
80645W        W52971  20.374  44.810  13.042
80646W        W52972  32.174  36.859  14.065
80647W        W52973  38.175  35.235  11.190
80648W        W52974  11.500  15.509   0.726
80649W        W52975  43.342   2.394   0.434
80650W        W52976  11.710   3.985  12.282
80651W        W52977   6.941  30.402   2.333
80652W        W52978  18.728  26.891   2.777
80653W        W52979  13.108  11.618   2.747
80654W        W52980  35.453  38.659   2.735
80655W        W52981   8.808  22.546  11.119
80656W        W52982  27.223   2.681   0.581
80657W        W52983  41.098   4.193   2.736
80658W        W52984  26.085  13.116  13.632
80659W        W52985  44.008  17.824  13.933
80660W        W52986   0.707  21.423   1.819
80661W        W52987  21.662   6.218   3.587
80662W        W52988  41.918  41.563  11.716
80663W        W52989  10.609  12.708  14.952
80664W        W52990   4.983  15.617   2.337
80665W        W52991   1.272  41.827   1.893
80666W        W52992  35.859  20.532   3.843
80667W        W52993  25.996  40.448  12.692
80668W        W52994  29.420  14.706  12.930
80669W        W52995  12.449  18.837  14.434
80670W        W52996  27.974  18.204  11.603
80671W        W52997  12.026  19.143  14.442
80672W        W52998  20.598  25.646  11.615
80673W        W52999   0.697   2.633   5.069
80674W        W53000  32.972  34.553   3.686
80675W        W53001  14.152  43.825  13.805
80676W        W53002   0.859  12.299   1.435
80677W        W53003  34.388  33.016   2.747
80678W        W53004   9.322  36.949   4.825
80679W        W53005  19.702  10.243   2.885
80680W        W53006  33.064   0.983   2.480
80681W        W53007  40.946  31.550  14.799
80682W        W53008  21.720  44.585  13.842
80683W        W53009   8.678  35.443  10.956
80684W        W53010   3.890   3.813  13.609
80685W        W53011  10.634  41.096   1.788
80686W        W53012  20.222  40.478   3.975
80687W        W53013  29.888  15.203   0.259
80688W        W53014  26.138  23.972  10.437
80689W        W53015  16.613  15.003   0.462
80690W        W53016   5.316  41.450   3.753
80691W        W53017  10.681  39.471   3.406
80692W        W53018  10.771  20.139   1.744
80693W        W53019  12.771  20.562   3.787
80694W        W53020  27.592  22.459   3.229
80695W        W53021  37.960  42.781   1.578
80696W        W53022   4.188  16.988   2.287
80697W        W53023  22.236  32.914  12.556
80698W        W53024  42.869   6.696   2.353
80699W        W53025  44.431  42.034   2.317
80700W        W53026  44.331  30.956   0.435
80701W        W53027  43.682   2.239   2.365
80702W        W53028  39.472  30.464   2.779
80703W        W53029  42.306  17.357  12.950
80704W        W53030  15.756   4.468  13.021
80705W        W53031  42.861  37.824   2.678
80706W        W53032  43.759   3.975  14.480
80707W        W53033  16.779  10.276  12.139
80708W        W53034  24.512  34.816  11.142
80709W        W53035  21.451   6.613   4.549
80710W        W53036  36.547   7.731  11.491
80711W        W53037  32.398  14.570   2.689
80712W        W53038   8.190   2.968  14.756
80713W        W53039   0.180  10.818  13.487
80714W        W53040  41.048  41.006   1.030
80715W        W53041  34.493  44.301  12.374
80716W        W53042  36.595  19.138  10.575
80717W        W53043  21.781  11.193  14.397
80718W        W53044  26.698  40.473  13.318
80719W        W53045  17.746  15.467  14.070
80720W        W53046  13.869  19.996  14.049
80721W        W53047   2.516   0.948   4.524
80722W        W53048  12.706   4.212  14.569
80723W        W53049  17.001  11.857   4.186
80724W        W53050   5.370  19.616  13.767
80725W        W53051  20.697  37.866   2.174
80726W        W53052  33.077  31.472   4.413
80727W        W53053  12.576  22.720  14.352
80728W        W53054  42.920  11.746  12.937
80729W        W53055  39.084  28.898   3.047
80730W        W53056   9.744   8.670   0.787
80731W        W53057  11.592   3.982  13.304
80732W        W53058  10.094  18.208   1.712
80733W        W53059  24.535  16.281  11.056
80734W        W53060   8.806  24.881  14.630
80735W        W53061  27.369  32.553  13.899
80736W        W53062  19.839  38.217   4.194
80737W        W53063   3.783  29.449   2.307
80738W        W53064   7.631  39.692  13.122
80739W        W53065  24.752  23.576   2.608
80740W        W53066  17.030  39.944  12.349
80741W        W53067  14.865  32.193   0.966
80742W        W53068  27.672  15.693  14.397
80743W        W53069  29.410  13.235   4.537
80744W        W53070  19.800  15.141   3.643
80745W        W53071  37.611  13.629   0.453
80746W        W53072  33.840  29.201   4.611
80747W        W53073  43.281  21.831   2.614
80748W        W53074  23.233   2.263   2.737
80749W        W53075   6.652  44.861  11.644
80750W        W53076  17.050   2.349  10.565
80751W        W53077  30.461  40.530  14.509
80752W        W53078   8.381  14.898   0.434
80753W        W53079  36.108  17.446   1.872
80754W        W53080   5.131  16.214  14.056
80755W        W53081  37.517  22.220  12.052
80756W        W53082   6.228  28.682   4.906
80757W        W53083  23.073  26.639   3.768
80758W        W53084  32.154  34.469  10.392
80759W        W53085  42.342  17.075   2.639
80760W        W53086  32.262  31.513  11.536
80761W        W53087   7.892  21.737   0.806
80762W        W53088  11.035  33.006   4.487
80763W        W53089  18.066  37.322   3.197
80764W        W53090  32.138  30.914  13.980
80765W        W53091  22.597  43.059   0.967
80766W        W53092  15.127  37.602  12.518
80767W        W53093  37.995  28.751  11.623
80768W        W53094  33.125  37.891   2.342
80769W        W53095  42.684   8.841  14.907
80770W        W53096  10.399   5.022  10.536
80771W        W53097  31.890  17.875  12.598
80772W        W53098  16.938  43.090   4.131
80773W        W53099   4.457  16.602  12.345
80774W        W53100  32.637   1.321   3.179
80775W        W53101  44.267  18.118  13.046
80776W        W53102   4.493  40.957   1.591
80777W        W53103   8.249  14.887  11.054
80778W        W53104   3.289  23.210   4.521
80779W        W53105  41.280  18.617  11.246
80780W        W53106  13.062  20.641  13.360
80781W        W53107  14.787  43.048  11.579
80782W        W53108   2.306  42.857  10.427
80783W        W53109  43.216  22.018  11.097
80784W        W53110  37.006   7.421  14.453
80785W        W53111   3.099  41.420   4.531
80786W        W53112  38.843  32.056  13.150
80787W        W53113  13.162   5.702   1.774
80788W        W53114  22.118  41.779  13.492
80789W        W53115   7.792  32.256  14.449
80790W        W53116  30.750   7.847  10.924
80791W        W53117  20.772  30.184  11.483
80792W        W53118  41.493   6.611  11.647
80793W        W53119  42.044  34.588   2.397
80794W        W53120  18.803  27.129  11.260
80795W        W53121  18.686  39.356   4.194
80796W        W53122  18.540  15.282  14.705
80797W        W53123   5.630  40.742   3.622
80798W        W53124  26.738  29.647   0.435
80799W        W53125  35.189  19.566  14.205
80800W        W53126  35.775  13.049  14.996
80801W        W53127  24.023  33.370  10.273
80802W        W53128  33.966  42.460   1.462
80803W        W53129  28.543  33.105   0.018
80804W        W53130  27.124  25.538  14.046
80805W        W53131  23.479  12.179   3.701
80806W        W53132   2.191  40.017  14.272
80807W        W53133   8.609  34.778   2.752
80808W        W53134   9.796  44.478   3.346
80809W        W53135  11.156  26.127   0.993
80810W        W53136  10.392   4.601   0.556
80811W        W53137  18.011  34.835   1.020
80812W        W53138  20.072  17.772  13.424
80813W        W53139  17.120  33.530  10.562
80814W        W53140  42.447   9.310  14.883
80815W        W53141  41.964  11.884   3.171
80816W        W53142  25.098  40.570  10.702
80817W        W53143  23.567  37.154  13.388
80818W        W53144  35.618  11.580   1.945
80819W        W53145  18.581   2.753  13.400
80820W        W53146  28.309  20.308   0.100
80821W        W53147   1.893  32.685  11.937
80822W        W53148  14.509  27.228  12.876
80823W        W53149   2.233  40.302  12.572
80824W        W53150  17.302  21.320  11.622
80825W        W53151  20.336  13.613   1.159
80826W        W53152  15.796  42.337   2.791
80827W        W53153   7.311  30.786  11.982
80828W        W53154  27.991  28.642   3.794
80829W        W53155  29.842  16.636   2.410
80830W        W53156  40.465  35.658  13.855
80831W        W53157  17.620   8.367   2.481
80832W        W53158  14.312  23.756   1.697
80833W        W53159   5.489  34.505   0.808
80834W        W53160  37.666  21.514  11.215
80835W        W53161  27.446  44.499   0.370
80836W        W53162  14.194  12.227   3.680
80837W        W53163  18.108  14.659   1.621
80838W        W53164  37.035  41.508   2.363
80839W        W53165   5.169   8.852   0.437
80840W        W53166  39.958  26.948  10.985
80841W        W53167  26.470  33.977  11.168
80842W        W53168   2.875  22.288   3.703
80843W        W53169  29.214  31.105   1.901
80844W        W53170   2.315   5.157   2.226
80845W        W53171   6.960  35.382   0.692
80846W        W53172  13.854  40.878  14.037
80847W        W53173  37.433   8.903   3.343
80848W        W53174  27.458  44.590   1.256
80849W        W53175  24.712  19.553  12.972
80850W        W53176   9.303   5.333   3.773
80851W        W53177   3.758  31.033   0.499
80852W        W53178  33.882  11.764   1.239
80853W        W53179  34.496   6.497   0.361
80854W        W53180  44.069  18.231  11.709
80855W        W53181  11.882  28.989   1.880
80856W        W53182  27.627  33.421   3.378
80857W        W53183   8.894  44.550   4.172
80858W        W53184  33.559   4.924  10.780
80859W        W53185  41.265  41.559   0.435
80860W        W53186  44.473  34.444  13.512
80861W        W53187   5.125  35.881  13.323
80862W        W53188   6.216   7.950  13.261
80863W        W53189   3.440  12.806  14.334
80864W        W53190  42.004  39.936   2.773
80865W        W53191  23.766  41.498  10.726
80866W        W53192   4.976   5.265  13.694
80867W        W53193  36.487   2.206   2.317
80868W        W53194   1.899   3.221  11.097
80869W        W53195   7.625   3.239   4.146
80870W        W53196  16.160  15.563  12.927
80871W        W53197  33.832  34.356  13.714
80872W        W53198  28.842  43.958  13.383
80873W        W53199  37.967  12.100   1.722
80874W        W53200  20.532  39.100   0.889
80875W        W53201  14.342  12.922   4.138
80876W        W53202  41.887  40.751  14.447
80877W        W53203  27.749  27.578  11.927
80878W        W53204  30.568   1.272   0.783
80879W        W53205  25.480  30.497  11.528
80880W        W53206  26.294  21.480  13.591
80881W        W53207   4.521  31.522  10.448
80882W        W53208   3.373   2.029   2.794
80883W        W53209  31.905  44.754   1.196
80884W        W53210  27.673  20.017   2.218
80885W        W53211  22.202  44.056   1.655
80886W        W53212   3.075  21.482   3.288
80887W        W53213  44.456  19.100  14.523
80888W        W53214  11.154  12.799   4.859
80889W        W53215  19.856   1.414  10.498
80890W        W53216  15.703  30.171   4.928
80891W        W53217  24.671  27.919  12.944
80892W        W53218   8.918  12.840   3.132
80893W        W53219  15.782  25.549  14.293
80894W        W53220  19.962  36.122  11.176
80895W        W53221  24.748  36.565  13.603
80896W        W53222  14.047  11.182   0.917
80897W        W53223  35.837  12.637  14.250
80898W        W53224  12.716  19.845  12.845
80899W        W53225  43.796  33.007  12.541
80900W        W53226  27.179   8.816  12.323
80901W        W53227  11.099   4.220  11.110
80902W        W53228  39.889  22.245   0.429
80903W        W53229   6.338  27.979  11.864
80904W        W53230   4.752  42.850  13.472
80905W        W53231   8.524  15.581  12.953
80906W        W53232  25.647  30.020  11.411
80907W        W53233  17.667   2.937   3.349
80908W        W53234  31.416  33.823   3.548
80909W        W53235  44.476   2.039  11.067
80910W        W53236  33.007  38.879   1.359
80911W        W53237   9.271  38.518  13.325
80912W        W53238   6.243  23.644   1.373
80913W        W53239  14.597  15.653  10.169
80914W        W53240  24.812  10.823  11.659
80915W        W53241  31.028  17.962  13.461
80916W        W53242  18.696   7.810   4.127
80917W        W53243   3.737  33.916   1.315
80918W        W53244  33.489  35.876   5.571
80919W        W53245  21.464  24.043   4.814
80920W        W53246  22.434  12.596   0.314
80921W        W53247  33.127  17.558   4.444
80922W        W53248  25.022  14.663   1.430
80923W        W53249  27.982  25.102  12.621
80924W        W53250  19.102   6.608   2.731
80925W        W53251  44.312   5.172   0.880
80926W        W53252  39.415  17.798  11.200
80927W        W53253  29.273  13.817   3.709
80928W        W53254  21.125  25.588  10.862
80929W        W53255   1.211  25.020  11.931
80930W        W53256  27.118   9.907  14.997
80931W        W53257   6.216  14.232  12.428
80932W        W53258  30.507  29.052  10.525
80933W        W53259  23.648  17.024  11.678
80934W        W53260  10.685  34.608  13.460
80935W        W53261  27.114  34.203  14.955
80936W        W53262  15.815  29.655  13.957
80937W        W53263   6.428  29.289   0.597
80938W        W53264  39.795  41.022  13.495
80939W        W53265   8.277   4.141   2.828
80940W        W53266  24.562  40.802  10.795
80941W        W53267   4.179  20.095   0.727
80942W        W53268  42.845  10.629  12.800
80943W        W53269  39.772   0.724   0.569
80944W        W53270  17.416  28.924   2.648
80945W        W53271  15.632   0.308   4.348
80946W        W53272  34.827   4.878  10.282
80947W        W53273  15.935  37.283  10.033
80948W        W53274  38.247  19.160  11.733
80949W        W53275   4.754  26.919   4.971
80950W        W53276  11.102  29.536   4.478
80951W        W53277   2.706   7.354  10.547
80952W        W53278   1.181  23.652   4.938
80953W        W53279  25.152  20.060  14.946
80954W        W53280  28.927   9.221  13.843
80955W        W53281  40.113   2.723   0.671
80956W        W53282  25.570  39.325  14.465
80957W        W53283  38.362  18.949  12.184
80958W        W53284  37.776  33.134   2.451
80959W        W53285   8.419  33.620  14.406
80960W        W53286  32.011   6.944   3.246
80961W        W53287   0.362  42.847   2.858
80962W        W53288   2.002  26.173  14.818
80963W        W53289   9.255  35.101   0.918
80964W        W53290   6.725  44.725  14.985
80965W        W53291   8.152  11.943   3.274
80966W        W53292   6.433  44.121  10.294
80967W        W53293  36.721  35.087   5.331
80968W        W53294   4.943  13.261  12.945
80969W        W53295  13.917  28.517   4.100
80970W        W53296  43.271  25.652   0.025
80971W        W53297  39.676   4.140   1.799
80972W        W53298  44.859  44.780  12.463
80973W        W53299  43.552   9.383  11.975
80974W        W53300  24.737  12.857   0.935
80975W        W53301  18.498   8.124  14.286
80976W        W53302  11.982  32.477   1.674
80977W        W53303  13.366  11.182  12.427
80978W        W53304  11.605  35.304   1.773
80979W        W53305   8.360   2.657   0.147
80980W        W53306  19.940  21.600  12.879
80981W        W53307  41.393  32.915   1.269
80982W        W53308  31.546   8.730  14.107
80983W        W53309  43.315  34.966   3.009
80984W        W53310  16.749  41.375   4.619
80985W        W53311   3.491  39.797  13.856
80986W        W53312  41.772   0.881  14.492
80987W        W53313  11.208  31.378   3.460
80988W        W53314  19.302  34.363   1.322
80989W        W53315  16.579  29.809   2.326
80990W        W53316  27.625   7.647   1.828
80991W        W53317  22.095  32.403   3.719
80992W        W53318   3.145   0.181  12.007
80993W        W53319   5.518  26.689   1.871
80994W        W53320  33.604  27.497  10.781
80995W        W53321  11.159  43.366   0.718
80996W        W53322  33.024  16.501   3.739
80997W        W53323  41.856  31.229  12.526
80998W        W53324  33.356  36.958   1.977
80999W        W53325   1.999  18.244   4.296
81000W        W53326  31.193   5.444   3.343
81001W        W53327  12.357  43.383  14.027
81002W        W53328  12.010   9.149   1.288
81003W        W53329  16.674  33.429  13.799
81004W        W53330   7.181  18.070  13.458
81005W        W53331  20.256  33.844  12.536
81006W        W53332  16.783   5.747   1.726
81007W        W53333  25.272  34.439  14.918
81008W        W53334  37.250  18.896   0.217
81009W        W53335  31.725   7.730  10.375
81010W        W53336  35.916  32.818   9.488
81011W        W53337  15.666  21.759   3.498
81012W        W53338  24.964  10.233   4.247
81013W        W53339  17.525  31.804   2.164
81014W        W53340  12.088  40.066  14.658
81015W        W53341  11.071  15.793   0.705
81016W        W53342  28.878  41.478  12.877
81017W        W53343   1.931  44.479  14.046
81018W        W53344  29.615  30.985  14.611
81019W        W53345   1.749   0.400   3.041
81020W        W53346  44.873  32.773   4.449
81021W        W53347  15.565  37.804  12.380
81022W        W53348  41.680  15.092   1.180
81023W        W53349  39.082   1.281   2.312
81024W        W53350  40.151  42.667   2.127
81025W        W53351  12.719  30.144   1.203
81026W        W53352   3.209  40.247   4.844
81027W        W53353  41.966  42.841  13.168
81028W        W53354  30.592   8.336   0.458
81029W        W53355  17.250   3.689  12.034
81030W        W53356  31.847   1.948  10.606
81031W        W53357   4.572  33.569  14.460
81032W        W53358  39.931  38.283   1.408
81033W        W53359  14.604  30.903   1.014
81034W        W53360  20.360  21.269  12.613
81035W        W53361   0.383  26.733  14.916
81036W        W53362  18.657  39.780   3.854
81037W        W53363  11.417  39.915  10.836
81038W        W53364  20.101  23.512  14.747
81039W        W53365  10.076  32.112   2.433
81040W        W53366   1.987  26.828   4.488
81041W        W53367  17.011  26.304   1.465
81042W        W53368  26.121  13.705   4.526
81043W        W53369  16.396  18.745   0.487
81044W        W53370  17.779  24.748   0.453
81045W        W53371  26.194  12.850   4.935
81046W        W53372  25.955   8.260  13.023
81047W        W53373  40.259  36.006  12.820
81048W        W53374  39.022  31.199   4.131
81049W        W53375   2.049   6.133  11.123
81050W        W53376  15.534  26.175  10.656
81051W        W53377  40.362  24.134   4.787
81052W        W53378   2.988   4.613   0.769
81053W        W53379  22.557  24.644  14.349
81054W        W53380   5.175   0.794  14.438
81055W        W53381   9.492  29.707   2.744
81056W        W53382   6.902  19.181   4.090
81057W        W53383  28.557  24.753   4.413
81058W        W53384  13.655   7.263  12.314
81059W        W53385  17.283   3.722  10.591
81060W        W53386  10.749  26.913  11.905
81061W        W53387   8.345  44.713  10.618
81062W        W53388  20.056  41.498   1.744
81063W        W53389  22.762  39.841  10.022
81064W        W53390  41.778  39.836   0.370
81065W        W53391  18.682  14.028  12.617
81066W        W53392  16.096  30.611   4.947
81067W        W53393  41.765   1.415   2.234
81068W        W53394   2.703  14.039  14.954
81069W        W53395   1.446  32.331  14.199
81070W        W53396  21.230  24.085  12.001
81071W        W53397   7.971   6.930   3.835
81072W        W53398  11.249  41.237   4.317
81073W        W53399  16.333  12.942  13.890
81074W        W53400  10.743   8.714   5.167
81075W        W53401  19.532   7.687  14.981
81076W        W53402  10.898  34.174   4.241
81077W        W53403  22.196  20.920  12.919
81078W        W53404   9.313  37.497  13.379
81079W        W53405   5.229   4.868   4.280
81080W        W53406  22.954  19.158   1.334
81081W        W53407  33.539  31.732   4.604
81082W        W53408   5.889  23.898   2.752
81083W        W53409  10.669  36.382   0.534
81084W        W53410  20.247  44.956  11.623
81085W        W53411   5.131  16.156  12.078
81086W        W53412   0.537   7.263  12.647
81087W        W53413  42.000   6.939   2.770
81088W        W53414  41.488  37.557   2.372
81089W        W53415   2.925   7.787  14.204
81090W        W53416  35.420   8.948   4.172
81091W        W53417  39.408  14.020   1.966
81092W        W53418  16.011  37.252  12.948
81093W        W53419  24.220   8.416  12.562
81094W        W53420  33.003   9.082   1.259
81095W        W53421  36.400  23.707  13.483
81096W        W53422  22.206  35.759   1.704
81097W        W53423   0.103  35.102   0.336
81098W        W53424   6.175  33.201  11.546
81099W        W53425   4.352  37.630   2.823
81100W        W53426  36.426  41.091  12.854
81101W        W53427  40.792  33.436   3.348
81102W        W53428  42.825  38.854  14.864
81103W        W53429  16.705  36.154   4.317
81104W        W53430  38.931   6.307   3.120
81105W        W53431  44.334  34.055   0.906
81106W        W53432  12.442  12.705  11.773
81107W        W53433  42.075  39.533  10.781
81108W        W53434  19.119  16.623   0.519
81109W        W53435   7.098  43.360  12.109
81110W        W53436  24.681  40.760   3.229
81111W        W53437   7.755   0.434   4.709
81112W        W53438   9.777  44.682   0.209
81113W        W53439  42.258   3.951   0.382
81114W        W53440  33.453  33.938  11.436
81115W        W53441   4.459  15.612  12.692
81116W        W53442  10.386   5.466   4.116
81117W        W53443  19.714  25.189   3.697
81118W        W53444  35.642  21.572   4.704
81119W        W53445  19.539  43.087   2.655
81120W        W53446  40.384  19.589  11.928
81121W        W53447  28.916  25.235  10.457
81122W        W53448   1.694  11.813   3.848
81123W        W53449  42.303  42.219  13.927
81124W        W53450  15.173  33.433   4.073
81125W        W53451   3.710  44.349  11.086
81126W        W53452  15.811   0.006  13.439
81127W        W53453  39.090  38.013  10.516
81128W        W53454  13.542   6.327  11.147
81129W        W53455  11.685  39.407   9.992
81130W        W53456  23.479  25.032  10.711
81131W        W53457  12.473   5.960  12.934
81132W        W53458  26.143  18.549   3.228
81133W        W53459  32.685  36.188  10.628
81134W        W53460  10.717   6.771   2.431
81135W        W53461  40.610  38.368   3.678
81136W        W53462  21.554  14.154   3.270
81137W        W53463  31.007   4.807   4.878
81138W        W53464  20.042  15.812  11.073
81139W        W53465  37.432  13.192   3.322
81140W        W53466  16.755  32.360   2.131
81141W        W53467  16.492  21.799  12.474
81142W        W53468  32.939   1.844  13.017
81143W        W53469  17.754  16.287   0.384
81144W        W53470   9.080   7.797   5.109
81145W        W53471  14.571  38.467   1.857
81146W        W53472  42.979  26.444   4.551
81147W        W53473   4.166   1.721   3.238
81148W        W53474  42.734   3.820   1.951
81149W        W53475   8.641  15.657   4.506
81150W        W53476  17.943  36.669  14.545
81151W        W53477   1.765  41.192  13.091
81152W        W53478  19.878  11.817   3.103
81153W        W53479  15.248  33.485   2.649
81154W        W53480   8.702  15.098   2.427
81155W        W53481  24.081  17.895   5.667
81156W        W53482  20.733  30.391   0.949
81157W        W53483  16.819  19.513  11.135
81158W        W53484  34.819  44.500  14.911
81159W        W53485  25.196   3.023   4.696
81160W        W53486  44.281  36.966   4.359
81161W        W53487  16.884  37.855   1.872
81162W        W53488  13.794  22.553   3.677
81163W        W53489   0.889  28.306   3.708
81164W        W53490  40.460  29.966  10.611
81165W        W53491  42.974  14.651  11.054
81166W        W53492  30.445  18.628   5.022
81167W        W53493  15.152  10.797  13.768
81168W        W53494  18.044  32.355   3.287
81169W        W53495  21.037  15.795   4.554
81170W        W53496  25.588  35.997  12.139
81171W        W53497   6.666  37.277  12.072
81172W        W53498  37.000  24.093   0.899
81173W        W53499  34.691  32.982   0.158
81174W        W53500  12.746  44.973  13.307
81175W        W53501  42.887  43.420  11.663
81176W        W53502  33.012  14.436  12.201
81177W        W53503  28.673  31.544  13.652
81178W        W53504  11.080   8.877  14.958
81179W        W53505  31.305  24.376  13.573
81180W        W53506   1.900  20.761   1.677
81181W        W53507  29.446  11.562  13.912
81182W        W53508   9.995  37.812  12.564
81183W        W53509  33.157  37.107   4.637
81184W        W53510   4.142  11.266  11.571
81185W        W53511  24.692  42.451  12.328
81186W        W53512  44.493  20.794   4.139
81187W        W53513  32.456   7.806  11.403
81188W        W53514  19.273  36.097  14.725
81189W        W53515  18.790   6.097  13.420
81190W        W53516   4.662  40.806  12.138
81191W        W53517  16.788  25.263  12.568
81192W        W53518  24.162  27.392  14.856
81193W        W53519  38.049  34.006  13.450
81194W        W53520  12.270   9.797   3.000
81195W        W53521  32.967   0.589  10.578
81196W        W53522  20.515   4.200   3.279
81197W        W53523   2.558  36.083   4.526
81198W        W53524  23.159  18.348   4.782
81199W        W53525  43.998  42.405   0.750
81200W        W53526  29.560  39.962   2.230
81201W        W53527  38.960   3.682   2.196
81202W        W53528  29.929  15.705   2.940
81203W        W53529  26.931  32.471   4.329
81204W        W53530  11.296   8.847  11.948
81205W        W53531  14.902  19.397   5.142
81206W        W53532   8.454  28.521  12.309
81207W        W53533  31.383  41.851  11.196
81208W        W53534  27.747  35.603  10.450
81209W        W53535  41.366  17.638  14.042
81210W        W53536   8.739  40.014   1.435
81211W        W53537  12.644  17.789   0.986
81212W        W53538  35.916  20.989   3.606
81213W        W53539  10.776  35.117   3.484
81214W        W53540  28.110  41.349  13.825
81215W        W53541  15.899   7.432  12.952
81216W        W53542  25.377   3.892   4.975
81217W        W53543  10.891  41.081   1.005
81218W        W53544  29.426  30.512  14.796
81219W        W53545  31.641   7.255  12.518
81220W        W53546   2.296  23.437  11.403
81221W        W53547   4.812  15.268  14.990
81222W        W53548  18.728  42.839  11.137
81223W        W53549  29.726  32.562   3.153
81224W        W53550  40.931   2.720  13.744
81225W        W53551  21.768  21.848  11.614
81226W        W53552   2.766  27.240   4.101
81227W        W53553  28.518  38.563   4.324
81228W        W53554  31.963  30.660  11.865
81229W        W53555  10.842  23.756  12.427
81230W        W53556  17.161  37.446  11.597
81231W        W53557   2.518   6.198   4.620
81232W        W53558  42.080   0.022  13.066
81233W        W53559  11.616   6.700  10.706
81234W        W53560   4.553   6.417  11.105
81235W        W53561  34.824  34.597   3.293
81236W        W53562  33.999  34.571   4.575
81237W        W53563  30.201  41.832  12.044
81238W        W53564  32.145   5.790   1.246
81239W        W53565  23.606  36.397  12.329
81240W        W53566  37.863  42.281  10.962
81241W        W53567  26.835   7.386   1.754
81242W        W53568   5.919   5.245  13.281
81243W        W53569  23.982  32.960  14.859
81244W        W53570   6.480  21.078  12.351
81245W        W53571  25.885  17.776  12.932
81246W        W53572  35.516  17.540  13.596
81247W        W53573  29.780   9.910   2.324
81248W        W53574  33.096  17.826  14.645
81249W        W53575   1.305  24.171  12.398
81250W        W53576  34.597  33.581   2.547
81251W        W53577  13.691  40.016  13.306
81252W        W53578  32.545  21.227   1.659
81253W        W53579  12.610   3.620  10.448
81254W        W53580  35.306  22.805   0.778
81255W        W53581   4.244   1.264   1.088
81256W        W53582  41.739  14.257  11.296
81257W        W53583  34.297   8.291  10.720
81258W        W53584  25.466  24.589   0.527
81259W        W53585   8.327  41.232  14.298
81260W        W53586   4.132   2.542  13.392
81261W        W53587   8.881  21.627   3.702
81262W        W53588  44.946  24.124  12.605
81263W        W53589  31.144  29.852   1.875
81264W        W53590  19.103  11.385   1.401
81265W        W53591   4.286  43.139  14.087
81266W        W53592  22.460  32.556   1.667
81267W        W53593  22.379  28.110  11.973
81268W        W53594  11.910   5.993  13.044
81269W        W53595  36.293  41.343   2.821
81270W        W53596  43.912  20.723  13.091
81271W        W53597  32.915   1.671  11.269
81272W        W53598  34.470  24.712   0.308
81273W        W53599   2.511  26.572  14.562
81274W        W53600  17.549  32.415  13.579
81275W        W53601  28.313   4.895  12.630
81276W        W53602  26.186  10.777   4.590
81277W        W53603  42.724  40.526  11.983
81278W        W53604  23.339   8.778   5.031
81279W        W53605  22.173  10.390   3.267
81280W        W53606  31.118   9.925   3.553
81281W        W53607  33.531  38.447   4.255
81282W        W53608  37.604  39.318   4.640
81283W        W53609  41.064  13.135   0.811
81284W        W53610  37.295  41.941  12.185
81285W        W53611  37.466  19.237  11.064
81286W        W53612  33.319  43.756  12.006
81287W        W53613   2.367   7.815  10.727
81288W        W53614  31.665  34.391   4.168
81289W        W53615  10.909   4.493  12.496
81290W        W53616  31.615  23.738   2.824
81291W        W53617  14.088  23.781  12.537
81292W        W53618  33.816  10.227   4.738
81293W        W53619   8.921  35.542  14.636
81294W        W53620  27.146  42.690   1.845
81295W        W53621  38.496  30.536   0.267
81296W        W53622  40.955  15.605  10.616
81297W        W53623  28.463  30.635   0.294
81298W        W53624  36.383   8.603  12.491
81299W        W53625  14.318  41.990   3.156
81300W        W53626   6.681  22.588  11.938
81301W        W53627  38.906   6.550   4.279
81302W        W53628  41.015  39.589  14.951
81303W        W53629  19.215  37.356   1.428
81304W        W53630  19.530  27.620   0.830
81305W        W53631  22.748  12.780  11.662
81306W        W53632  43.995  41.576   3.721
81307W        W53633   1.502  23.449   2.203
81308W        W53634  11.096  36.347   4.698
81309W        W53635   7.548  14.407  13.938
81310W        W53636  36.048   1.972   0.701
81311W        W53637  37.108  17.941   1.242
81312W        W53638  36.841  26.971   4.745
81313W        W53639   9.903  35.787  13.910
81314W        W53640  32.634   1.071   0.708
81315W        W53641  15.089  27.371   0.391
81316W        W53642  36.578  40.119  13.067
81317W        W53643  20.463  31.214  13.998
81318W        W53644  42.273  22.147   4.190
81319W        W53645   0.108  31.409  12.934
81320W        W53646  34.022  35.058   0.100
81321W        W53647  31.990  11.879  12.994
81322W        W53648  16.257   0.741   3.620
81323W        W53649   5.958  12.726  14.333
81324W        W53650  12.486  36.903  10.819
81325W        W53651  10.167  43.347   0.296
81326W        W53652   7.248  22.347  12.966
81327W        W53653  20.499  12.336  10.685
81328W        W53654  29.556   9.115  11.671
81329W        W53655  31.997  17.825   0.353
81330W        W53656   8.172  16.745  12.937
81331W        W53657  10.879   6.428  13.329
81332W        W53658  43.747  28.106  13.509
81333W        W53659  15.726  24.627  14.638
81334W        W53660   0.943  27.782   3.688
81335W        W53661  41.725  29.661  11.050
81336W        W53662   3.928  16.326  11.629
81337W        W53663  35.982  29.452   4.086
81338W        W53664  41.489  26.469  13.993
81339W        W53665  13.081  20.735   0.761
81340W        W53666  17.194  22.548  13.423
81341W        W53667  38.952  39.490   1.836
81342W        W53668  18.856   1.026   0.611
81343W        W53669   5.461  25.074   0.418
81344W        W53670   8.607  11.385  12.106
81345W        W53671  26.106  29.361   1.820
81346W        W53672  32.069  25.474  13.897
81347W        W53673  10.845  39.944  13.976
81348W        W53674  12.828   5.328  14.495
81349W        W53675  14.060  18.622  14.781
81350W        W53676  24.516  17.684   4.984
81351W        W53677  28.169   5.135   0.325
81352W        W53678  11.724  39.995   3.838
81353W        W53679  20.455  30.822   0.828
81354W        W53680   8.967  44.011   3.608
81355W        W53681  40.646  20.478   0.398
81356W        W53682  33.919  42.202   1.910
81357W        W53683  31.878  19.099   4.571
81358W        W53684   8.365  19.937  11.595
81359W        W53685  28.866   4.448  12.099
81360W        W53686   2.439  22.154   0.760
81361W        W53687  27.270  12.071   4.149
81362W        W53688  26.335  20.189   3.150
81363W        W53689   7.452  11.049   2.028
81364W        W53690  31.966  30.120   2.097
81365W        W53691   5.403  10.308   3.984
81366W        W53692  43.260   0.233  13.933
81367W        W53693  25.773  10.834  11.476
81368W        W53694  14.181   1.656  10.763
81369W        W53695  15.757  34.041  13.025
81370W        W53696  15.597  38.740   2.754
81371W        W53697   2.949  21.070   0.013
81372W        W53698   6.956  28.390   1.039
81373W        W53699   9.384   7.668  14.766
81374W        W53700  20.516   0.921   4.215
81375W        W53701  33.080  12.584  14.385
81376W        W53702  40.763  36.892   0.274
81377W        W53703  30.723  18.607  14.530
81378W        W53704   3.280  38.227   2.428
81379W        W53705  37.500  32.524   0.852
81380W        W53706   5.687  39.957  11.628
81381W        W53707  40.903  35.483   3.949
81382W        W53708  24.768  14.544   2.863
81383W        W53709  11.708  20.967  10.810
81384W        W53710  33.958  38.449  11.913
81385W        W53711  27.515  15.628  13.889
81386W        W53712  10.576  14.070   3.670
81387W        W53713  12.405  14.164  13.391
81388W        W53714  25.706  21.717  12.802
81389W        W53715  40.241  30.751  14.796
81390W        W53716  12.221   9.175   4.329
81391W        W53717  41.322   3.738  14.532
81392W        W53718  13.267  27.521  13.982
81393W        W53719  41.933  18.170   4.889
81394W        W53720  12.769   1.845   3.753
81395W        W53721   1.443   6.997  12.424
81396W        W53722   0.040   3.200   3.390
81397W        W53723  42.351  29.399  13.828
81398W        W53724  22.181   9.181   0.497
81399W        W53725  20.131   2.225   4.529
81400W        W53726  37.552  35.547   3.556
81401W        W53727   6.946  30.584  14.891
81402W        W53728  22.822  41.365   0.343
81403W        W53729   4.690  30.399  14.818
81404W        W53730  31.149  32.579  14.459
81405W        W53731   6.818  29.948   3.144
81406W        W53732  10.276  36.014   4.904
81407W        W53733  21.585  20.277  10.428
81408W        W53734   4.916  30.975  10.621
81409W        W53735  17.325   0.243   2.304
81410W        W53736   8.443   3.471   5.046
81411W        W53737  25.130  22.651   2.944
81412W        W53738   7.673  41.803   2.312
81413W        W53739  28.130  24.493  11.850
81414W        W53740  19.756   4.136   0.733
81415W        W53741  36.851  40.274   3.731
81416W        W53742  24.509  32.148  10.697
81417W        W53743  42.250  38.515  13.970
81418W        W53744  41.742  29.399  13.502
81419W        W53745  24.388  11.796  13.794
81420W        W53746  13.662  38.472  13.781
81421W        W53747  27.988  16.274  10.695
81422W        W53748   6.299  26.946  13.478
81423W        W53749  33.962   8.706   2.194
81424W        W53750  40.783  39.368  13.126
81425W        W53751  40.464   3.759   1.669
81426W        W53752  33.945  16.619   4.685
81427W        W53753  13.190  27.108  14.838
81428W        W53754   0.827  12.109   3.746
81429W        W53755  12.308  24.435   9.779
81430W        W53756   9.461   7.277   0.750
81431W        W53757  37.054  36.273  11.015
81432W        W53758  10.779   5.228  13.968
81433W        W53759  43.307  12.326   0.989
81434W        W53760  28.896   9.919   0.425
81435W        W53761  37.916  39.557   2.054
81436W        W53762  38.573  42.059   1.386
81437W        W53763  26.776  30.057  14.383
81438W        W53764  43.017   9.348   1.452
81439W        W53765  20.462   6.277  11.628
81440W        W53766   6.667   6.519   4.086
81441W        W53767  20.143  16.658  10.314
81442W        W53768  30.883  33.432  10.595
81443W        W53769  24.153  38.450  12.351
81444W        W53770  37.055  39.591   1.834
81445W        W53771  35.415   9.852   0.918
81446W        W53772  16.401   4.741  11.547
81447W        W53773   5.725  22.013   4.738
81448W        W53774  25.461  26.561   4.028
81449W        W53775  11.553  11.720  14.190
81450W        W53776   7.437  43.255  14.953
81451W        W53777   6.531  35.956  10.571
81452W        W53778  18.887   0.927  11.914
81453W        W53779  40.826  30.138  14.734
81454W        W53780  11.273  34.519  11.055
81455W        W53781  31.308  17.373  11.601
81456W        W53782  37.927  28.247  11.649
81457W        W53783  35.437  26.998  14.335
81458W        W53784   1.236  14.012   0.710
81459W        W53785  33.653  25.536   1.708
81460W        W53786  14.271  18.134  14.016
81461W        W53787  24.432  14.557   4.125
81462W        W53788  33.211  23.208   0.773
81463W        W53789   6.850  27.071  11.924
81464W        W53790   6.182  12.838  11.084
81465W        W53791  17.745  22.630   0.269
81466W        W53792  11.612  12.584   0.784
81467W        W53793   8.090  26.464   1.772
81468W        W53794  30.921  38.339   0.348
81469W        W53795   2.775  41.325   4.136
81470W        W53796  17.233  11.359  14.559
81471W        W53797  14.605  44.377  12.328
81472W        W53798   1.542  40.930   0.010
81473W        W53799  27.133   8.376   1.620
81474W        W53800  14.205  43.681   4.137
81475W        W53801   6.158  37.564   2.938
81476W        W53802  25.076  25.132  10.778
81477W        W53803  25.236  41.351  13.939
81478W        W53804  17.402   0.985   1.755
81479W        W53805  22.705   5.144   2.692
81480W        W53806  25.163  40.836   4.852
81481W        W53807   8.424   9.574  12.005
81482W        W53808  26.994  14.035  12.837
81483W        W53809  38.455  12.742   5.262
81484W        W53810  37.889  27.563  12.931
81485W        W53811  15.784  22.125  11.518
81486W        W53812   4.461   4.239  11.732
81487W        W53813  17.198  36.926   1.310
81488W        W53814  17.862  15.187   2.831
81489W        W53815  39.562  43.404  10.609
81490W        W53816  25.183  30.903   4.061
81491W        W53817   4.618  14.245   4.532
81492W        W53818  20.662   6.694  12.363
81493W        W53819  13.142  14.735  14.370
81494W        W53820  15.742  12.345  12.050
81495W        W53821  32.939  16.709   3.283
81496W        W53822  35.604  37.564  13.533
81497W        W53823  34.337   7.766   4.791
81498W        W53824  28.958  37.011   0.468
81499W        W53825  44.377  17.339  11.934
81500W        W53826  28.224   0.346   2.766
81501W        W53827   3.830  30.515   0.763
81502W        W53828  10.164   9.906  13.470
81503W        W53829  17.769  34.910   4.667
81504W        W53830  30.655  36.321  13.375
81505W        W53831  28.073  42.849   1.788
81506W        W53832  44.987   8.363  14.764
81507W        W53833  20.820  36.374  13.925
81508W        W53834  31.463  21.687  14.084
81509W        W53835  37.404  35.648   0.937
81510W        W53836  28.121  14.354  12.298
81511W        W53837  29.052  24.203  14.756
81512W        W53838  28.205  24.608   1.006
81513W        W53839   4.423  40.125   1.261
81514W        W53840   1.833   7.645   1.901
81515W        W53841  11.990  39.964  13.088
81516W        W53842  44.018  41.764  13.767
81517W        W53843  18.769   4.569  12.651
81518W        W53844  34.775  39.065   2.295
81519W        W53845  14.722  26.381   9.529
81520W        W53846  20.734  32.506   4.661
81521W        W53847   5.387  16.591  11.885
81522W        W53848  42.643   7.826   4.168
81523W        W53849  29.570  22.556  11.692
81524W        W53850  33.998   4.672  10.650
81525W        W53851  15.190   4.971   3.245
81526W        W53852  28.235  22.996  11.163
81527W        W53853   4.394  23.757   1.490
81528W        W53854  21.372  32.901   2.939
81529W        W53855  12.513  38.313  14.347
81530W        W53856  43.076   6.463   4.146
81531W        W53857   9.228  35.773   3.154
81532W        W53858  44.336  26.583  11.690
81533W        W53859   7.756  12.465  12.500
81534W        W53860  20.266  34.212   3.410
81535W        W53861  44.081   0.255   0.711
81536W        W53862  44.815  12.725   4.714
81537W        W53863  15.511  25.185   9.884
81538W        W53864  39.427   7.268  14.038
81539W        W53865  14.270  22.767  12.592
81540W        W53866  31.770  25.568   5.065
81541W        W53867  17.245   2.279  13.787
81542W        W53868  41.718  24.222  11.138
81543W        W53869  21.270   6.242   0.214
81544W        W53870  40.331  35.298   1.215
81545W        W53871  25.554   9.384   3.156
81546W        W53872   0.692  36.673   0.845
81547W        W53873  19.632  21.058   0.710
81548W        W53874  22.799  43.812  13.322
81549W        W53875   4.716  17.074  13.851
81550W        W53876   0.905  14.552  14.902
81551W        W53877  43.838  26.419  14.784
81552W        W53878  10.789  30.434  11.527
81553W        W53879   6.226  35.490  14.882
81554W        W53880  30.537  35.033   2.377
81555W        W53881  35.040  41.155  11.636
81556W        W53882   2.792  34.297   4.186
81557W        W53883   4.823   4.152   3.798
81558W        W53884   2.322  33.640  14.384
81559W        W53885  23.007   0.784  12.941
81560W        W53886  31.737  26.138  14.012
81561W        W53887  42.059  33.157  12.027
81562W        W53888  18.315  14.744  13.076
81563W        W53889   9.255  43.272  14.351
81564W        W53890  26.529  36.401   4.685
81565W        W53891  11.762  39.958  11.204
81566W        W53892  31.426  30.936  14.333
81567W        W53893  18.037   8.862   0.234
81568W        W53894  43.717  26.044   2.331
81569W        W53895  30.681  22.130   3.737
81570W        W53896   2.140   4.672   1.814
81571W        W53897  23.562   1.000  11.990
81572W        W53898  35.899  17.968  11.686
81573W        W53899  28.984  15.778  10.175
81574W        W53900   1.319  30.511   0.563
81575W        W53901  38.547   3.854   1.470
81576W        W53902   1.871  39.666  11.137
81577W        W53903   2.142  33.331   1.683
81578W        W53904   9.442  38.599   3.580
81579W        W53905  15.564   1.352  11.503
81580W        W53906  15.461  20.029  10.894
81581W        W53907  19.180  26.636  10.755
81582W        W53908   2.291   9.685   2.197
81583W        W53909  15.076  42.216   0.416
81584W        W53910  18.153  39.219  11.584
81585W        W53911  39.936   1.196   1.415
81586W        W53912  30.944  23.799  12.507
81587W        W53913   5.038  23.072  11.445
81588W        W53914   1.683   1.138  11.462
81589W        W53915  29.054  32.099  13.002
81590W        W53916  12.617   1.997  10.805
81591W        W53917  33.589  16.428  11.474
81592W        W53918  37.519  17.095  11.778
81593W        W53919  29.491  30.185   0.391
81594W        W53920  32.189  36.292   1.285
81595W        W53921  32.306  32.424   0.525
81596W        W53922  37.216   4.907   4.565
81597W        W53923   6.190  32.535  11.277
81598W        W53924  16.487  40.146   1.858
81599W        W53925   7.467  17.706  12.957
81600W        W53926  11.630  40.508   3.388
81601W        W53927  11.298  37.461   4.116
81602W        W53928  31.716   6.835  10.717
81603W        W53929  32.575  43.741  12.467
81604W        W53930  15.622  37.022   3.119
81605W        W53931  41.017  21.752  12.476
81606W        W53932  29.429   5.605  12.389
81607W        W53933  11.612  30.764  14.335
81608W        W53934  15.131   0.668   0.414
81609W        W53935  32.095  13.870  13.780
81610W        W53936  29.344  21.290   4.123
81611W        W53937  14.486  18.249   1.463
81612W        W53938  26.943  14.719   0.292
81613W        W53939  22.827  23.551  10.780
81614W        W53940  12.606   1.265  13.735
81615W        W53941  42.728  39.046   4.991
81616W        W53942  31.714  36.074   1.262
81617W        W53943   8.779  44.835   3.539
81618W        W53944   9.062  28.986  11.616
81619W        W53945  33.361  35.834   3.313
81620W        W53946  18.792   7.479   3.135
81621W        W53947  41.525   0.590  11.943
81622W        W53948  31.885  33.389   2.671
81623W        W53949  16.721  38.776  13.495
81624W        W53950   6.518  32.544   1.267
81625W        W53951  35.631  24.748   1.609
81626W        W53952  14.813  28.145  13.268
81627W        W53953  15.744  13.289  13.029
81628W        W53954   1.213  34.982  10.725
81629W        W53955  28.040  37.931  10.450
81630W        W53956   0.480  33.539  10.877
81631W        W53957  11.348  26.508  14.743
81632W        W53958  25.484  14.908   9.415
81633W        W53959  30.152   7.232   1.703
81634W        W53960  38.495  43.855  13.179
81635W        W53961  30.937  11.301  11.997
81636W        W53962   2.872  39.088   1.267
81637W        W53963  12.927  36.547   5.041
81638W        W53964  36.469   8.434  12.996
81639W        W53965  42.723  20.040   4.544
81640W        W53966  31.056   5.416  13.736
81641W        W53967   1.918  31.718  11.843
81642W        W53968   7.881  29.550  11.988
81643W        W53969  43.908  19.854   1.799
81644W        W53970  33.044   7.197   0.298
81645W        W53971  40.362   0.290   4.175
81646W        W53972  29.034  15.076   0.762
81647W        W53973  39.060  18.149   3.074
81648W        W53974  44.748  39.903  14.903
81649W        W53975   0.443   3.170  12.830
81650W        W53976  36.954  44.663   1.625
81651W        W53977  37.111  15.794   3.843
81652W        W53978  43.533  37.600   5.082
81653W        W53979  23.733  38.448   3.750
81654W        W53980  41.463  17.261  10.758
81655W        W53981  29.458  33.424   2.641
81656W        W53982  20.012  39.129   1.827
81657W        W53983  18.121   1.866   4.300
81658W        W53984  25.720   4.139   2.192
81659W        W53985   0.515   4.767   4.081
81660W        W53986  23.560   2.499   3.107
81661W        W53987  23.955  25.625   3.366
81662W        W53988   1.676   0.077   3.834
81663W        W53989   1.995  40.498  11.399
81664W        W53990  11.151  26.083   9.719
81665W        W53991  36.828  29.944   2.250
81666W        W53992   9.707  18.482   0.825
81667W        W53993  37.071   8.759  11.128
81668W        W53994  20.048  30.545  13.451
81669W        W53995  22.713  15.116   4.399
81670W        W53996  21.862  30.429  11.748
81671W        W53997  39.057  17.869   4.925
81672W        W53998  32.835  18.148  12.315
81673W        W53999  12.117   8.721  12.850
81674W        W54000  36.569  14.657   3.860
81675W        W54001  24.214  17.347   0.316
81676W        W54002  26.787  25.846  12.521
81677W        W54003  31.844   0.514  11.499
81678W        W54004  29.490   2.887  11.199
81679W        W54005  21.110   7.823  13.985
81680W        W54006  33.076  18.395   0.472
81681W        W54007  11.175  19.320   4.236
81682W        W54008  15.435  22.065  13.358
81683W        W54009  34.844  20.694   3.720
81684W        W54010   4.029  27.099  13.321
81685W        W54011  15.731  11.565  13.151
81686W        W54012  22.323  41.281  10.171
81687W        W54013  32.597  18.383   1.334
81688W        W54014  25.464  15.662   5.555
81689W        W54015  27.474  11.790  11.464
81690W        W54016  36.026   3.274   2.696
81691W        W54017  41.800  32.431   2.799
81692W        W54018  19.853  21.191  12.572
81693W        W54019  39.526  11.192  10.526
81694W        W54020  27.094   7.449  11.946
81695W        W54021   9.804  33.798   4.630
81696W        W54022  35.828   1.369  10.886
81697W        W54023  19.897  22.506   1.861
81698W        W54024  37.269   5.109  10.429
81699W        W54025  33.143  35.094   0.520
81700W        W54026  32.853  25.193  11.567
81701W        W54027  15.884  12.103   2.372
81702W        W54028   8.821  41.089   4.367
81703W        W54029  34.643  41.944   2.360
81704W        W54030  36.425  17.681  14.822
81705W        W54031   0.080  10.881  14.024
81706W        W54032  25.086   8.605  10.930
81707W        W54033  39.306  38.656  13.980
81708W        W54034  37.132  43.033  13.835
81709W        W54035  16.652  20.449  14.133
81710W        W54036  33.547  38.351  11.644
81711W        W54037  35.025   9.240  11.225
81712W        W54038  33.827  23.878  10.915
81713W        W54039  38.946  13.512   2.755
81714W        W54040  35.389  23.756   3.869
81715W        W54041  21.166   0.338  11.442
81716W        W54042  25.738   3.995  13.147
81717W        W54043  15.990  13.687  11.985
81718W        W54044  26.533  11.731  11.508
81719W        W54045  34.042   8.767  10.549
81720W        W54046  26.432  33.049  14.718
81721W        W54047  31.813  20.108   4.629
81722W        W54048   4.329  36.637   5.025
81723W        W54049  26.965  18.620   1.664
81724W        W54050  30.854  19.555  14.805
81725W        W54051  23.824  40.401   2.986
81726W        W54052  19.152  25.602  14.695
81727W        W54053  12.798   1.469  10.757
81728W        W54054   2.757  19.295  12.467
81729W        W54055  38.004  20.681   3.635
81730W        W54056   5.261   3.908   4.903
81731W        W54057  17.632  37.540   2.980
81732W        W54058  29.401  38.129  14.745
81733W        W54059  44.335  11.604   1.830
81734W        W54060  42.181  22.097   2.762
81735W        W54061   3.773   6.728  12.990
81736W        W54062   3.702  40.003   2.763
81737W        W54063  31.828   1.488   2.772
81738W        W54064  11.988   0.938  11.678
81739W        W54065  15.678   7.752   0.562
81740W        W54066  17.422  29.983  11.476
81741W        W54067  27.200  44.450   0.824
81742W        W54068   6.729  28.238  11.120
81743W        W54069  30.674  35.347   1.942
81744W        W54070  14.288  33.344  13.599
81745W        W54071  30.676  25.749   1.450
81746W        W54072  18.328  14.344  12.084
81747W        W54073   3.346  22.552   0.430
81748W        W54074  30.388  38.980   2.767
81749W        W54075  12.741  28.997  12.425
81750W        W54076  22.485   3.364   0.702
81751W        W54077  31.684   2.768  13.165
81752W        W54078   7.377  13.254  14.957
81753W        W54079  41.410  10.648   2.259
81754W        W54080   3.064  21.467   4.614
81755W        W54081   5.139  11.653   1.663
81756W        W54082  39.593  19.826   2.651
81757W        W54083  23.169  10.109   0.674
81758W        W54084  16.219  27.931   0.751
81759W        W54085  32.352   5.316   2.707
81760W        W54086   6.114  14.911   0.651
81761W        W54087  44.716  20.196  13.052
81762W        W54088  24.735  42.584  14.195
81763W        W54089  21.137  38.977  12.776
81764W        W54090  27.077  20.652   2.966
81765W        W54091   4.035   9.470   3.840
81766W        W54092  36.426  16.480   1.862
81767W        W54093  41.495  20.214  12.981
81768W        W54094  41.110  24.521   2.294
81769W        W54095  10.897  15.431  14.054
81770W        W54096   3.818   4.500   1.268
81771W        W54097   6.643  38.530  13.696
81772W        W54098  30.480  41.683  10.600
81773W        W54099  35.506  42.726   1.689
81774W        W54100  31.207  28.524  10.737
81775W        W54101  41.232   7.485   2.651
81776W        W54102  27.483   7.679  14.550
81777W        W54103  31.080  30.937   1.962
81778W        W54104   0.435  16.292  14.939
81779W        W54105  27.945  27.489  11.150
81780W        W54106   9.284  40.572  13.576
81781W        W54107   9.921  17.800   2.428
81782W        W54108  16.048  13.628   2.146
81783W        W54109   5.644   9.275  13.514
81784W        W54110  20.671  13.644   4.895
81785W        W54111   5.950  11.791  14.774
81786W        W54112  22.631  11.564  11.967
81787W        W54113  34.054  44.385   2.418
81788W        W54114  22.017  20.997  13.994
81789W        W54115   3.974  25.426  13.076
81790W        W54116  30.839  44.303  14.518
81791W        W54117   5.006  41.038   4.157
81792W        W54118  10.838  39.897   3.174
81793W        W54119  30.583  43.920   4.142
81794W        W54120  43.709  14.311   4.697
81795W        W54121  43.884  36.371   1.192
81796W        W54122  21.771  39.606  12.952
81797W        W54123  33.291   4.431  13.390
81798W        W54124   8.290  14.083  13.966
81799W        W54125   5.623  34.118  13.091
81800W        W54126  36.534   0.781   4.084
81801W        W54127  26.873  38.427  10.166
81802W        W54128   8.784  19.974  12.923
81803W        W54129  15.618   7.866  11.702
81804W        W54130  11.922  39.971  14.133
81805W        W54131   2.235  14.683  12.905
81806W        W54132  13.863   0.932  12.160
81807W        W54133  29.577  36.578  14.402
81808W        W54134  26.894  36.851  10.529
81809W        W54135  37.947  21.969  14.059
81810W        W54136  41.848  13.616  12.480
81811W        W54137  30.007  14.708  13.064
81812W        W54138  20.308  37.405  11.984
81813W        W54139  19.721  36.025  14.484
81814W        W54140  21.720  15.200   3.515
81815W        W54141  10.317  41.823   1.444
81816W        W54142  19.540  39.807  14.486
81817W        W54143  44.476   1.125   0.346
81818W        W54144  22.694  25.197  11.729
81819W        W54145  26.828  27.406  10.264
81820W        W54146  25.459  17.301  11.465
81821W        W54147  41.679  34.509   3.671
81822W        W54148  31.033  11.369   3.969
81823W        W54149  20.265  37.041   0.705
81824W        W54150   5.932  42.323  13.033
81825W        W54151  12.645  16.201   0.503
81826W        W54152  21.205  33.458  13.898
81827W        W54153  33.101  37.943  11.113
81828W        W54154  37.535  34.056  13.192
81829W        W54155  34.643  41.154  14.099
81830W        W54156  27.088  15.350   2.711
81831W        W54157   9.874   3.968  10.426
81832W        W54158  38.534   0.299  12.293
81833W        W54159  17.070  15.826   1.368
81834W        W54160   2.267  20.082  10.910
81835W        W54161   5.089  34.627  11.449
81836W        W54162  23.510  15.331   5.466
81837W        W54163  18.686  19.707  13.896
81838W        W54164   6.266  22.105  11.466
81839W        W54165  26.461  27.104  13.542
81840W        W54166   7.237  24.713  14.602
81841W        W54167  15.160  16.744   2.861
81842W        W54168  43.840  27.564   2.397
81843W        W54169   5.389  42.011  10.699
81844W        W54170  32.611  27.705  13.063
81845W        W54171  38.266  37.606   1.687
81846W        W54172  10.642  25.251  12.539
81847W        W54173  14.880  41.343  14.385
81848W        W54174  39.824  14.497  13.820
81849W        W54175  32.561   6.813  13.973
81850W        W54176  13.192  13.677  14.007
81851W        W54177   2.793  13.252   1.190
81852W        W54178   6.218  41.213  11.154
81853W        W54179  26.012   8.794   1.578
81854W        W54180  21.525  23.062  12.473
81855W        W54181  18.215  16.633   3.227
81856W        W54182   6.981  12.859   2.639
81857W        W54183  30.658  34.104   1.089
81858W        W54184  19.977  12.560  14.916
81859W        W54185  21.812  44.376   2.252
81860W        W54186  33.791  29.624  13.852
81861W        W54187  38.291  25.196  12.533
81862W        W54188  17.070   0.955  10.652
81863W        W54189  23.237   0.816  10.705
81864W        W54190  20.592  42.957  10.785
81865W        W54191  12.355  25.627   4.689
81866W        W54192  23.077  18.102  11.544
81867W        W54193  43.909  40.426   1.969
81868W        W54194  28.400  21.030   3.835
81869W        W54195  14.364  40.440   2.322
81870W        W54196  44.437  36.486  14.005
81871W        W54197  29.698  19.021  12.911
81872W        W54198  34.578   2.910   3.274
81873W        W54199  27.011  33.708  12.027
81874W        W54200  24.510  20.587  11.092
81875W        W54201   1.735  42.443  11.504
81876W        W54202  37.374  23.650   2.921
81877W        W54203  22.492  40.666   0.907
81878W        W54204  42.999  14.670   3.139
81879W        W54205  32.595  10.634   3.222
81880W        W54206   1.919  33.295   0.211
81881W        W54207  14.557   5.431   0.213
81882W        W54208  33.509  18.132  12.652
81883W        W54209  37.852  36.606   0.982
81884W        W54210  31.185  39.253  10.762
81885W        W54211   2.299   0.389   0.746
81886W        W54212   7.330   1.272   4.816
81887W        W54213  34.285  42.207   0.199
81888W        W54214   3.075   9.643   2.629
81889W        W54215  30.536  36.293  12.489
81890W        W54216  11.174  24.924   4.326
81891W        W54217  41.242   1.427   0.733
81892W        W54218   9.178   5.210   1.824
81893W        W54219  14.857  22.188   0.927
81894W        W54220  25.323  13.889  14.879
81895W        W54221  29.077  31.001  14.021
81896W        W54222  35.618  31.533  13.904
81897W        W54223  21.582  32.116   2.058
81898W        W54224  23.118  33.542   1.487
81899W        W54225   8.511  30.364   2.264
81900W        W54226  20.640  29.942  11.940
81901W        W54227   4.289  19.666   2.634
81902W        W54228   7.746  16.615  11.123
81903W        W54229   1.747  10.830   1.806
81904W        W54230  10.152   4.362  12.872
81905W        W54231  35.549  31.128  13.127
81906W        W54232  21.460   0.931  12.995
81907W        W54233  34.052  38.374  12.970
81908W        W54234  40.821  38.562  14.838
81909W        W54235   4.394  26.082  11.143
81910W        W54236  20.768  26.989  13.418
81911W        W54237   7.772  41.993  12.616
81912W        W54238  23.945  32.495  11.280
81913W        W54239  10.186   1.367  13.824
81914W        W54240  43.472  32.371   3.258
81915W        W54241  29.915   0.001   3.624
81916W        W54242  42.758  29.415  14.274
81917W        W54243  11.123   9.747   1.722
81918W        W54244   7.924  12.290   3.691
81919W        W54245   7.175   4.540  12.929
81920W        W54246  22.665   1.390   1.650
81921W        W54247   2.881  18.003  14.772
81922W        W54248  30.607  24.613   4.726
81923W        W54249  35.331  33.025   3.365
81924W        W54250  18.196  39.570   0.502
81925W        W54251   0.379  18.833  14.850
81926W        W54252  11.228  39.203  14.908
81927W        W54253  13.567  25.509   3.211
81928W        W54254  42.509   0.930   0.722
81929W        W54255  23.258  40.922  11.948
81930W        W54256  22.128   0.480   4.663
81931W        W54257  25.324  42.425   4.618
81932W        W54258  14.786  25.600  10.541
81933W        W54259  34.560  38.335  10.611
81934W        W54260  12.053   8.250  13.082
81935W        W54261  21.556  42.304   4.218
81936W        W54262   2.345  22.966   3.892
81937W        W54263  25.075   2.870  13.966
81938W        W54264  17.635  31.955  10.640
81939W        W54265   4.377  35.481   0.244
81940W        W54266  42.743  16.285  12.283
81941W        W54267  19.908  33.567   4.168
81942W        W54268   2.863  23.155  10.189
81943W        W54269  25.638   5.750   3.219
81944W        W54270   7.416  21.441  13.922
81945W        W54271  21.284  27.688   1.314
81946W        W54272  42.455  36.533   1.836
81947W        W54273  33.806  40.277   2.373
81948W        W54274  34.359  31.781   1.524
81949W        W54275   2.663  16.719  12.904
81950W        W54276  35.535  34.223  11.246
81951W        W54277  23.154  19.177  10.691
81952W        W54278  36.463  24.953  11.491
81953W        W54279  34.569  11.640  13.016
81954W        W54280  27.589  41.431   0.949
81955W        W54281  27.464  10.713   2.509
81956W        W54282  27.860   2.244   0.416
81957W        W54283  26.769  38.509   4.172
81958W        W54284  44.478  41.878  12.074
81959W        W54285   8.634  20.751   0.922
81960W        W54286  22.694  14.289  13.478
81961W        W54287  42.404  37.703  14.020
81962W        W54288   8.320  30.770  14.378
81963W        W54289   5.393  40.499  13.089
81964W        W54290   6.038  12.831  13.438
81965W        W54291   6.427  24.385   4.084
81966W        W54292  10.377  41.161   0.870
81967W        W54293  35.941   1.476   0.794
81968W        W54294  21.627  41.344   4.540
81969W        W54295  30.836  20.547   2.774
81970W        W54296  36.832  33.460   1.193
81971W        W54297  11.691   6.563  14.241
81972W        W54298   2.943   6.314  13.364
81973W        W54299  20.967  32.623   1.874
81974W        W54300  30.665  17.220   1.682
81975W        W54301  44.755  16.799   4.501
81976W        W54302  23.194  38.041  10.094
81977W        W54303  42.360  26.800  11.560
81978W        W54304  30.271  10.080   2.339
81979W        W54305   2.470   4.008  10.181
81980W        W54306  10.190  18.011   0.412
81981W        W54307  11.732  32.009   1.769
81982W        W54308  37.770   8.940  13.007
81983W        W54309  30.436   6.770   1.739
81984W        W54310  24.432  25.059  12.869
81985W        W54311  15.073  11.407  14.710
81986W        W54312  39.358   2.391   2.766
81987W        W54313  40.421   4.320   2.321
81988W        W54314  17.625   1.879   2.257
81989W        W54315  30.960  15.732  10.116
81990W        W54316  38.607   6.537   2.632
81991W        W54317  35.338  42.419  12.423
81992W        W54318   5.909  32.736  14.778
81993W        W54319   0.168  21.873  10.157
81994W        W54320  23.161  43.837   2.251
81995W        W54321  40.826  40.939   2.931
81996W        W54322  42.392  27.732  14.868
81997W        W54323  30.165  22.985  13.273
81998W        W54324   6.866  18.755   0.679
81999W        W54325  20.196   6.332   1.305
82000W        W54326   0.448  27.090   3.534
82001W        W54327  25.410  17.359  10.091
82002W        W54328  25.225  43.961  11.457
82003W        W54329  44.967  13.247  12.941
82004W        W54330  42.590  25.504  12.088
82005W        W54331  27.497  35.356  12.785
82006W        W54332  12.673  25.625  14.295
82007W        W54333   8.747   8.181  14.992
82008W        W54334  32.452  16.957   2.403
82009W        W54335   4.017  44.381   2.071
82010W        W54336   0.991   7.076   4.378
82011W        W54337  39.111  33.274   1.297
82012W        W54338  23.001  24.378  14.316
82013W        W54339  12.835   4.975  13.544
82014W        W54340  38.302  34.306   0.013
82015W        W54341  35.495  40.073  11.082
82016W        W54342  18.120  17.329   0.903
82017W        W54343  25.916  41.525  10.457
82018W        W54344   3.841  19.498  12.989
82019W        W54345  24.151  33.683  10.672
82020W        W54346  38.274  12.216   0.830
82021W        W54347   1.619   8.801   2.897
82022W        W54348  19.196   3.433  10.789
82023W        W54349   3.389  31.642  13.503
82024W        W54350  34.274  31.241   1.496
82025W        W54351  43.713  27.166   1.192
82026W        W54352  39.473  18.178  10.710
82027W        W54353  41.355  18.495   2.782
82028W        W54354  19.551  44.803   0.319
82029W        W54355  31.985   5.325  11.480
82030W        W54356  20.823  31.626  10.621
82031W        W54357  20.564  42.903  10.281
82032W        W54358   0.811   3.867   3.105
82033W        W54359  15.065  17.110  13.486
82034W        W54360   6.647  36.569  13.025
82035W        W54361  13.537  27.688   2.327
82036W        W54362  10.522   8.040  12.854
82037W        W54363  41.263   7.144  13.600
82038W        W54364  17.503  13.994   2.631
82039W        W54365  18.091   7.056   1.754
82040W        W54366   5.665  11.385  11.542
82041W        W54367  11.764  35.126   1.304
82042W        W54368  40.009   2.830   1.713
82043W        W54369  16.092   9.123   1.354
82044W        W54370  20.862  24.008   0.872
82045W        W54371  31.509  36.308  11.132
82046W        W54372  12.182  28.784  10.772
82047W        W54373  43.053  27.581   1.920
82048W        W54374  36.068   2.442  12.885
82049W        W54375  38.042  17.849   3.766
82050W        W54376  24.970  36.783  12.929
82051W        W54377   6.465  13.428   1.186
82052W        W54378  30.104  30.188   0.331
82053W        W54379   5.855  13.782   5.101
82054W        W54380  27.056  20.966  13.971
82055W        W54381  18.240  37.431   1.245
82056W        W54382  28.620  40.522  12.024
82057W        W54383  15.995  26.295   4.326
82058W        W54384  15.976  44.255   3.741
82059W        W54385   0.616  40.243  10.196
82060W        W54386  41.352  29.186   4.141
82061W        W54387   5.072  25.402   0.305
82062W        W54388  34.402  11.812   1.392
82063W        W54389   9.245  33.399  14.826
82064W        W54390  16.564  34.465   2.330
82065W        W54391  42.026  23.543  13.494
82066W        W54392   2.153  23.576   0.015
82067W        W54393  43.189  11.320  13.034
82068W        W54394  37.913  17.340   3.905
82069W        W54395   4.329  39.896  13.335
82070W        W54396  37.409  43.002  10.500
82071W        W54397  36.353   8.935   4.162
82072W        W54398  29.536   6.696   4.662
82073W        W54399  15.819   9.144   3.121
82074W        W54400   2.821  43.865  14.832
82075W        W54401  28.610  42.019   2.781
82076W        W54402  18.556  24.728  12.793
82077W        W54403  23.593  31.580  13.996
82078W        W54404  24.839  11.719  11.579
82079W        W54405  10.711  36.079  12.446
82080W        W54406  38.547  27.394   1.250
82081W        W54407  36.636  37.932   3.379
82082W        W54408  12.346  36.267   3.319
82083W        W54409   1.299  44.924  13.242
82084W        W54410   4.175  30.612   2.551
82085W        W54411  12.775  20.700  12.874
82086W        W54412   5.876  21.618   0.006
82087W        W54413  26.831  29.647   2.390
82088W        W54414  19.582  41.907   1.149
82089W        W54415  13.066  24.023  11.672
82090W        W54416   3.318  32.430  11.036
82091W        W54417   3.867  24.096  12.089
82092W        W54418   6.507   8.254  11.159
82093W        W54419  26.071   9.815   1.382
82094W        W54420  38.835  22.598   1.484
82095W        W54421   3.930  20.285   2.387
82096W        W54422  31.524  18.278   3.739
82097W        W54423  26.439  37.032   2.159
82098W        W54424  18.710  38.474   0.886
82099W        W54425  24.484  37.510  11.577
82100W        W54426  11.711  31.079   2.496
82101W        W54427  20.454   4.205   0.392
82102W        W54428  43.751   9.905   1.703
82103W        W54429   2.068  16.838  14.950
82104W        W54430  25.001  41.511  11.175
82105W        W54431  25.167  15.293   0.273
82106W        W54432  42.985  34.245  10.662
82107W        W54433   0.932  19.550   5.047
82108W        W54434  15.393  23.626  13.004
82109W        W54435   0.986  30.531  14.324
82110W        W54436  44.406  40.445  14.313
82111W        W54437  35.954  34.953   0.011
82112W        W54438  44.764  29.121   4.324
82113W        W54439  44.898  24.587  12.391
82114W        W54440  21.767  39.937   9.658
82115W        W54441  15.814  38.737   4.112
82116W        W54442   8.261  16.674   0.045
82117W        W54443  10.620  29.653  11.166
82118W        W54444  37.046   4.399   4.592
82119W        W54445  31.377  40.070  11.744
82120W        W54446   0.336   3.214  10.351
82121W        W54447  44.938  14.097  12.323
82122W        W54448  33.867  27.016  10.795
82123W        W54449  19.726  14.684   2.302
82124W        W54450   0.234  24.045  10.685
82125W        W54451  38.371  14.794  13.998
82126W        W54452  31.028  15.795   4.186
82127W        W54453  20.447   4.741   2.262
82128W        W54454  37.373  13.656   4.219
82129W        W54455   5.168   3.355  11.424
82130W        W54456   3.363  22.251  14.279
82131W        W54457  14.538  41.353   1.155
82132W        W54458  10.116   4.440  10.349
82133W        W54459   9.225  26.416   4.825
82134W        W54460  15.539   5.722  13.284
82135W        W54461  33.542  18.803   1.263
82136W        W54462  27.976   5.225   4.261
82137W        W54463  21.927  11.748   2.297
82138W        W54464  44.694  27.600   0.350
82139W        W54465  35.079  32.219   4.594
82140W        W54466  23.239  29.381   1.896
82141W        W54467  31.712  24.196   2.649
82142W        W54468   0.522  20.733   4.136
82143W        W54469  38.384   9.537   1.986
82144W        W54470  40.861  20.890   4.244
82145W        W54471  21.521  20.815   0.889
82146W        W54472  13.074  11.798   2.272
82147W        W54473  13.864  14.769   3.160
82148W        W54474   2.953  14.230  13.089
82149W        W54475  10.621  20.513   4.143
82150W        W54476  14.684   5.963  12.918
82151W        W54477  38.613  30.848   2.748
82152W        W54478  34.279  15.145  12.430
82153W        W54479  40.510  38.061  12.105
82154W        W54480   0.260  23.217   5.131
82155W        W54481   0.906  25.476   2.730
82156W        W54482  11.686  11.212  14.484
82157W        W54483  18.497   7.529   2.367
82158W        W54484  18.581   7.421   1.844
82159W        W54485  32.712   6.416   4.607
82160W        W54486   4.652   7.198  10.635
82161W        W54487  35.034   3.483   3.595
82162W        W54488  38.176  31.946  12.484
82163W        W54489  38.610  11.092   1.458
82164W        W54490  13.012  35.528  12.012
82165W        W54491  14.842  16.560  14.510
82166W        W54492  44.283  30.729   4.495
82167W        W54493  15.682  31.560   4.743
82168W        W54494  26.521  44.075  11.043
82169W        W54495  36.398  42.745  11.898
82170W        W54496  17.678  33.711   0.694
82171W        W54497  21.555  44.252   2.882
82172W        W54498   3.133   8.067  11.223
82173W        W54499   3.509  35.854  14.235
82174W        W54500  43.687   9.764   0.039
82175W        W54501  18.036  38.862   0.765
82176W        W54502  19.614   3.510  11.107
82177W        W54503   8.707  29.505   4.515
82178W        W54504  26.287  16.800   2.291
82179W        W54505  39.099  24.661  10.247
82180W        W54506  16.434   7.162  14.393
82181W        W54507  43.511  33.315  12.089
82182W        W54508  17.610  24.523  11.513
82183W        W54509   1.233  19.802  11.541
82184W        W54510  16.271  12.260  13.112
82185W        W54511  29.452  13.348  12.488
82186W        W54512   5.895  29.548  12.143
82187W        W54513  18.687  11.890   5.075
82188W        W54514  15.262  32.704  11.814
82189W        W54515  44.966  44.973  12.929
82190W        W54516  36.275   4.419  11.059
82191W        W54517  31.059   4.166  12.068
82192W        W54518   0.866  11.584   2.213
82193W        W54519   4.848  19.850   2.204
82194W        W54520   1.243   9.252  11.590
82195W        W54521  29.682  17.208   3.768
82196W        W54522  35.571  35.114  11.101
82197W        W54523  18.237  22.300  14.299
82198W        W54524  10.520  26.066  13.916
82199W        W54525  32.075  39.921  10.671
82200W        W54526   3.862  22.680  12.985
82201W        W54527  30.799  32.627  11.238
82202W        W54528  23.733  13.254  11.949
82203W        W54529   8.954  34.868  13.911
82204W        W54530  20.615  28.762   1.417
82205W        W54531  32.359   1.979  14.795
82206W        W54532   2.707  11.371  11.658
82207W        W54533  21.782  34.440  10.652
82208W        W54534  20.241  29.627  13.335
82209W        W54535  15.734  31.504   2.175
82210W        W54536  16.781  18.904  10.501
82211W        W54537   7.252  27.638   4.215
82212W        W54538   8.826  13.832  10.554
82213W        W54539  20.389   4.908  12.438
82214W        W54540  32.503   2.204  12.115
82215W        W54541   3.746  34.162   1.822
82216W        W54542  29.998  10.774  14.375
82217W        W54543  12.380  24.265   3.317
82218W        W54544  29.060  40.874   4.641
82219W        W54545  29.706  36.378   1.789
82220W        W54546  13.611  24.005  10.967
82221W        W54547  35.952  20.726  11.123
82222W        W54548  34.060  42.452   2.354
82223W        W54549   2.622  35.817   3.597
82224W        W54550  24.208   0.978   0.817
82225W        W54551  15.331  31.828  11.547
82226W        W54552  42.967  18.191  14.315
82227W        W54553   7.428  41.837  11.480
82228W        W54554  18.726   1.228   4.741
82229W        W54555  41.476  21.591  13.998
82230W        W54556  33.829  27.463   0.912
82231W        W54557  27.171  26.054  13.889
82232W        W54558  37.453  28.863  10.953
82233W        W54559  20.750  28.482  11.449
82234W        W54560   1.881  18.156  11.372
82235W        W54561   6.435  21.182  11.631
82236W        W54562  36.872  21.084  11.075
82237W        W54563   5.327  22.971  13.853
82238W        W54564  32.390  42.175   1.986
82239W        W54565  38.260  35.917   3.225
82240W        W54566   3.221  38.048  13.744
82241W        W54567  12.300   8.360   4.655
82242W        W54568  14.100  42.967  12.660
82243W        W54569  44.879   7.643   4.455
82244W        W54570  36.339  27.685  12.056
82245W        W54571  39.577  15.567  14.441
82246W        W54572  25.937  21.606   1.799
82247W        W54573  15.856   3.751  10.671
82248W        W54574   2.701   4.400  11.524
82249W        W54575  23.033  12.171  13.311
82250W        W54576  41.780  23.397   0.253
82251W        W54577  19.516  11.360  14.884
82252W        W54578   2.260   9.622  14.074
82253W        W54579  26.104   1.832  10.634
82254W        W54580  13.942  15.677  11.866
82255W        W54581   6.698  36.485   1.752
82256W        W54582  29.499  19.484  12.738
82257W        W54583  12.138  23.125   4.651
82258W        W54584  34.114  10.452  13.499
82259W        W54585  20.671  10.999   0.847
82260W        W54586  33.975  28.189  11.063
82261W        W54587  27.781  11.665   5.002
82262W        W54588  42.325   4.466  12.557
82263W        W54589  38.047  30.646   1.848
82264W        W54590   1.682  24.137  14.454
82265W        W54591  38.800   2.949  11.588
82266W        W54592   3.482   6.320  12.103
82267W        W54593  44.482  28.954   5.215
82268W        W54594  14.191  40.273  11.132
82269W        W54595  13.763  34.157   5.005
82270W        W54596  44.399  24.694  13.558
82271W        W54597  32.258  14.629  11.703
82272W        W54598  17.072  15.220   4.575
82273W        W54599  35.523   5.402  14.854
82274W        W54600  15.790   7.990   1.015
82275W        W54601   1.357   1.300  12.652
82276W        W54602  42.771  36.424   2.814
82277W        W54603  35.558  25.026  14.923
82278W        W54604  31.727  27.216   2.363
82279W        W54605  24.232   7.015   0.741
82280W        W54606  26.100  28.252  13.386
82281W        W54607   4.188  19.224  12.024
82282W        W54608  32.033   7.443  10.703
82283W        W54609   5.901   9.622  10.349
82284W        W54610  30.617  44.931   0.700
82285W        W54611  44.265   8.400  12.543
82286W        W54612  29.720  14.064  14.120
82287W        W54613  24.864  25.872  12.300
82288W        W54614  24.638  11.147   3.167
82289W        W54615  28.124   0.021   3.915
82290W        W54616  43.354  39.542  14.017
82291W        W54617  27.605  26.060  11.388
82292W        W54618  29.121  43.440  11.536
82293W        W54619  27.065  40.200   2.870
82294W        W54620   3.656  34.504  13.394
82295W        W54621  12.134  35.548   2.932
82296W        W54622   0.832  22.813  11.681
82297W        W54623   3.172   3.797  12.103
82298W        W54624  18.773  22.002   3.104
82299W        W54625  39.230  10.152   3.388
82300W        W54626  31.459  13.218   0.924
82301W        W54627  10.642  13.800  11.875
82302W        W54628  33.086   7.173  10.811
82303W        W54629  20.109   4.022  13.894
82304W        W54630  11.113  36.596   2.465
82305W        W54631  16.244  37.415  11.555
82306W        W54632  26.016  23.645  11.162
82307W        W54633  28.580  41.123   1.259
82308W        W54634  31.994   0.213  11.100
82309W        W54635  24.238   5.728   0.155
82310W        W54636  32.612   8.754  13.961
82311W        W54637   7.774  38.936   0.239
82312W        W54638   2.742  26.690  11.115
82313W        W54639  11.324  44.471   2.175
82314W        W54640  19.533  21.018  12.938
82315W        W54641  41.635  16.668   0.079
82316W        W54642   7.643   2.529  13.136
82317W        W54643  33.575  32.060   3.710
82318W        W54644  27.335  25.795  10.612
82319W        W54645  37.444  21.702  12.981
82320W        W54646  10.197  26.163   4.474
82321W        W54647  37.846  26.207  13.302
82322W        W54648   2.552   2.252  10.140
82323W        W54649   1.890  27.144   4.085
82324W        W54650  39.753  34.002   2.277
82325W        W54651   9.850  30.234  13.435
82326W        W54652  27.579   9.449   3.662
82327W        W54653  37.399   7.685  13.130
82328W        W54654  41.314  14.120  14.498
82329W        W54655  20.523  43.483  14.657
82330W        W54656  26.568  19.116   3.727
82331W        W54657  12.196  19.566   2.795
82332W        W54658   6.658  18.998  11.936
82333W        W54659  25.636  35.158   0.315
82334W        W54660  32.377  22.703   3.722
82335W        W54661  35.397  40.020   4.540
82336W        W54662  30.182  14.246  14.007
82337W        W54663  32.548   4.678   3.241
82338W        W54664  25.000  16.818  13.644
82339W        W54665   0.249  21.962  11.025
82340W        W54666  40.504  36.378  11.002
82341W        W54667  32.059  27.282   3.987
82342W        W54668  34.077  13.187   2.796
82343W        W54669  39.725  43.460  14.613
82344W        W54670  17.767  20.062  11.132
82345W        W54671  23.603  40.576  12.844
82346W        W54672  17.033  16.155  12.543
82347W        W54673  23.515  13.903  13.347
82348W        W54674   1.070   5.735   2.782
82349W        W54675   1.046  41.776   3.238
82350W        W54676   3.152  30.161   1.309
82351W        W54677   5.506  27.145   1.354
82352W        W54678  10.179  11.922   4.617
82353W        W54679   6.640   5.457   4.114
82354W        W54680   3.447  10.911   0.759
82355W        W54681  23.940   8.316   3.612
82356W        W54682  30.373  10.396   2.785
82357W        W54683  42.613  31.903  12.087
82358W        W54684   5.234  35.407  12.488
82359W        W54685  19.006  33.385  14.325
82360W        W54686  29.593  27.700  14.478
82361W        W54687   4.523  43.207  14.925
82362W        W54688  16.157  16.488   4.269
82363W        W54689  19.292  44.312  12.525
82364W        W54690  33.045  14.633  11.623
82365W        W54691  43.785  25.234   2.610
82366W        W54692  35.649   2.477  12.170
82367W        W54693   8.451  39.107  13.356
82368W        W54694  13.668  25.952  13.571
82369W        W54695  14.852  13.760   2.066
82370W        W54696  15.959  24.385   4.224
82371W        W54697   4.642   7.027  13.982
82372W        W54698  22.267  41.987  14.408
82373W        W54699  41.392  21.962   0.823
82374W        W54700  40.961  17.052  12.500
82375W        W54701  29.811  40.727  14.000
82376W        W54702  18.482   9.209   2.266
82377W        W54703  29.159  26.463  13.331
82378W        W54704  38.419  10.494  11.553
82379W        W54705   4.905  39.877  12.541
82380W        W54706  15.835   5.853   1.644
82381W        W54707  21.225  23.170   2.562
82382W        W54708  42.075  20.687   0.571
82383W        W54709  11.595   8.807  12.611
82384W        W54710  22.470  17.608   4.272
82385W        W54711  14.233  18.265   3.598
82386W        W54712  35.774  30.817  10.893
82387W        W54713   9.668  10.919   2.124
82388W        W54714   4.247  31.761   0.789
82389W        W54715   4.388   9.400   3.051
82390W        W54716   8.284  25.986  11.603
82391W        W54717  20.582  10.391   3.522
82392W        W54718  23.037  18.294  12.387
82393W        W54719  16.937  33.155  13.400
82394W        W54720  12.431   6.372   0.852
82395W        W54721   4.807  19.551  13.056
82396W        W54722  44.583   1.980   0.360
82397W        W54723  15.031  35.051   1.782
82398W        W54724  40.369  16.720  13.509
82399W        W54725  38.047  10.153  11.981
82400W        W54726  20.378  15.723   4.189
82401W        W54727  23.725  27.481  12.959
82402W        W54728  10.617  42.872   1.813
82403W        W54729  12.963  13.591   2.872
82404W        W54730   9.866  34.369  10.603
82405W        W54731  35.931  33.400   1.317
82406W        W54732  35.121  22.643   4.157
82407W        W54733   1.550  37.238  12.040
82408W        W54734  17.593  10.564  12.016
82409W        W54735  17.765  20.572   0.943
82410W        W54736  21.477  42.016  11.100
82411W        W54737  25.757   7.405  13.856
82412W        W54738  39.359  28.104  11.508
82413W        W54739  43.155   1.460   1.409
82414W        W54740  17.186  42.877   1.703
82415W        W54741  42.825  17.583   1.476
82416W        W54742  31.351  23.224  14.612
82417W        W54743   0.050  31.619   3.368
82418W        W54744   1.956  14.785  11.733
82419W        W54745   9.463  26.736   0.846
82420W        W54746  20.188   4.851   4.550
82421W        W54747  37.359  31.324   2.167
82422W        W54748  41.222  14.988  12.926
82423W        W54749  33.614   6.844   1.439
82424W        W54750   3.703  34.642  13.892
82425W        W54751  34.045  42.314  11.258
82426W        W54752  39.499  40.659   0.375
82427W        W54753  43.174   5.793  11.497
82428W        W54754  17.298   6.343  14.268
82429W        W54755   0.314  44.148   4.544
82430W        W54756  14.799  26.400   1.496
82431W        W54757  11.799  22.592  12.562
82432W        W54758   4.865  18.106  10.153
82433W        W54759  19.058   9.748   1.256
82434W        W54760  42.938   6.944   2.838
82435W        W54761   1.688  12.399  13.491
82436W        W54762  10.916  25.316  13.395
82437W        W54763  20.215  42.403   1.669
82438W        W54764  18.538   3.993  10.618
82439W        W54765  25.708  18.619  11.916
82440W        W54766  26.701   2.391   4.856
82441W        W54767  33.137  20.156  11.981
82442W        W54768  44.607  41.877   0.522
82443W        W54769  14.310  42.007   2.136
82444W        W54770  11.849  12.770   2.216
82445W        W54771  42.255   3.938  12.586
82446W        W54772   1.575  23.474  12.043
82447W        W54773   0.390  13.834  12.428
82448W        W54774  37.586   7.229   0.796
82449W        W54775  33.597  30.261  10.671
82450W        W54776  31.518  36.193  12.372
82451W        W54777  16.486  28.368   1.514
82452W        W54778  28.278  31.035   2.748
82453W        W54779  33.054   5.650   1.549
82454W        W54780  44.285  32.709   0.826
82455W        W54781  33.605  43.855  12.469
82456W        W54782  33.167   6.764   1.788
82457W        W54783  41.773   3.853  12.041
82458W        W54784   2.908  10.695   1.794
82459W        W54785  35.950  42.556   2.352
82460W        W54786  15.773  37.385  11.838
82461W        W54787  17.312  36.903  14.365
82462W        W54788  18.694  19.975   4.178
82463W        W54789   4.727  18.868   2.457
82464W        W54790  38.878   1.883   3.907
82465W        W54791   4.375  24.119  12.024
82466W        W54792  35.333  24.938  14.262
82467W        W54793  16.976  43.956   1.795
82468W        W54794  40.293   1.275  13.005
82469W        W54795  34.877  15.157   2.406
82470W        W54796  23.743  21.194  14.984
82471W        W54797  25.170  28.420   1.622
82472W        W54798  28.627  40.005   2.742
82473W        W54799  30.474  44.379   2.257
82474W        W54800  24.141   6.898  13.632
82475W        W54801  34.370  20.789  11.840
82476W        W54802  44.063  11.686   2.274
82477W        W54803  27.634   9.663   0.246
82478W        W54804  30.913  26.426   2.184
82479W        W54805  15.798  15.778   3.654
82480W        W54806  31.664  12.702  13.395
82481W        W54807   2.320  37.693  10.668
82482W        W54808  41.580  11.584  12.585
82483W        W54809  41.832  11.894   2.156
82484W        W54810  30.108   0.187   0.455
82485W        W54811  28.243  20.972   3.330
82486W        W54812  24.271   9.234  13.756
82487W        W54813  44.744  36.670  11.094
82488W        W54814   7.657  21.745  11.427
82489W        W54815   6.252  38.281  13.350
82490W        W54816  34.532  17.698   2.780
82491W        W54817  24.023  22.783  10.033
82492W        W54818  43.765  34.929  14.827
82493W        W54819   3.375  28.547  11.281
82494W        W54820   5.461   3.153  13.008
82495W        W54821  38.258  29.466  12.975
82496W        W54822  20.870   1.389   3.364
82497W        W54823  39.638  24.301   3.700
82498W        W54824  36.962  27.512   4.720
82499W        W54825  26.625  23.039   3.310
82500W        W54826   8.426  30.004   4.567
82501W        W54827  18.130  32.065  12.591
82502W        W54828  19.951   4.273   0.264
82503W        W54829   0.007  44.249  13.367
82504W        W54830  25.363  28.714  11.149
82505W        W54831  11.593   5.847  13.424
82506W        W54832   7.014   8.408   1.254
82507W        W54833  11.479  39.035   4.620
82508W        W54834  16.287   3.162  12.950
82509W        W54835  34.873  12.106  12.893
82510W        W54836  38.012  32.459   3.412
82511W        W54837  35.604   4.806  14.302
82512W        W54838   4.426  40.999  13.462
82513W        W54839  26.409  22.364  12.784
82514W        W54840  29.024  16.584   0.904
82515W        W54841   9.428  42.045   0.899
82516W        W54842  23.559  33.618   0.493
82517W        W54843  39.345  23.983   0.853
82518W        W54844  42.439  37.142   4.229
82519W        W54845  29.174  12.255  14.462
82520W        W54846  43.981  23.360  13.371
82521W        W54847  22.323  16.119   2.422
82522W        W54848   6.233  32.634  10.781
82523W        W54849  33.491  12.101  14.479
82524W        W54850   6.334  26.973   1.738
82525W        W54851  20.138  43.236  14.417
82526W        W54852  39.213  42.018   4.102
82527W        W54853  15.217  16.766  10.909
82528W        W54854  22.658  23.477  13.313
82529W        W54855   8.721  20.637   2.369
82530W        W54856  15.058  17.011  12.576
82531W        W54857   1.135  36.078   2.793
82532W        W54858  11.338   9.003   3.728
82533W        W54859  13.780  43.921   1.472
82534W        W54860   1.407   3.399   2.624
82535W        W54861  21.687  17.079  13.993
82536W        W54862  29.169   6.661   0.109
82537W        W54863   7.617  19.181  14.363
82538W        W54864  37.880  31.199   0.682
82539W        W54865  40.595  29.450   1.883
82540W        W54866  41.568   6.707   2.186
82541W        W54867  29.670  16.776   3.522
82542W        W54868  26.051  10.763  13.942
82543W        W54869  41.595   5.831  12.083
82544W        W54870  27.460   6.195   2.211
82545W        W54871  34.205  25.915  14.938
82546W        W54872  35.275  36.320   4.955
82547W        W54873  12.053  27.000   9.718
82548W        W54874  15.921   7.967   3.779
82549W        W54875  26.645  25.575   4.787
82550W        W54876  11.212  30.534  13.534
82551W        W54877  22.054   2.696   3.282
82552W        W54878  25.981  35.363  13.955
82553W        W54879  37.498  34.505   4.584
82554W        W54880  34.384  29.377  11.038
82555W        W54881  12.320  24.320  10.647
82556W        W54882  24.168   9.353   4.622
82557W        W54883  27.424  11.321  14.771
82558W        W54884  34.951  14.898  14.851
82559W        W54885   9.348   1.418   4.507
82560W        W54886  22.972  34.159  12.262
82561W        W54887  23.487  20.694  13.877
82562W        W54888  34.476  20.918  14.044
82563W        W54889  20.213  30.213   0.886
82564W        W54890   4.529  36.245  10.015
82565W        W54891   0.318  15.876  11.942
82566W        W54892  27.218  20.122   0.876
82567W        W54893   6.406   3.017   3.580
82568W        W54894  12.810  22.778  12.894
82569W        W54895  41.564  32.910   2.688
82570W        W54896  16.546  43.376   1.356
82571W        W54897   4.188   7.425   2.104
82572W        W54898  30.586  29.566  12.855
82573W        W54899  19.002  12.369  11.966
82574W        W54900  40.368  32.009   5.145
82575W        W54901   1.921  22.523   3.267
82576W        W54902  44.725  21.595  10.813
82577W        W54903   3.771  43.818   3.366
82578W        W54904  29.590  37.226  10.933
82579W        W54905  42.002  40.940   1.409
82580W        W54906  28.537   9.161   1.447
82581W        W54907  38.286  40.310   0.818
82582W        W54908   4.855  10.103  10.880
82583W        W54909  33.374  41.822  11.628
82584W        W54910  30.538  15.297   1.725
82585W        W54911  23.126  28.015  12.519
82586W        W54912   1.099  32.328   1.850
82587W        W54913  42.220  38.450   0.252
82588W        W54914  42.944  26.708   2.221
82589W        W54915  31.156   7.697  10.631
82590W        W54916  13.573  25.225  11.104
82591W        W54917  28.133  19.464   0.334
82592W        W54918  24.978  42.047  11.177
82593W        W54919  25.573  32.951  13.098
82594W        W54920  22.328  43.898   2.247
82595W        W54921  39.982  38.298  10.338
82596W        W54922  10.095  18.566   0.459
82597W        W54923   5.913   4.531   0.992
82598W        W54924   7.795   9.574   4.204
82599W        W54925   6.098   7.192   3.788
82600W        W54926  30.065  40.010   0.060
82601W        W54927  27.634  34.641   2.752
82602W        W54928  44.604   5.595   2.788
82603W        W54929  32.279  14.286  13.304
82604W        W54930  28.249  27.059   3.148
82605W        W54931  33.403  18.762  12.031
82606W        W54932  43.801  30.876   0.949
82607W        W54933  35.435  40.989   1.337
82608W        W54934  22.080  11.265   4.338
82609W        W54935  11.812  23.482   3.616
82610W        W54936  24.927  42.411  12.842
82611W        W54937   8.322  25.063  11.394
82612W        W54938  10.437   3.356  11.961
82613W        W54939  27.047   0.726   2.265
82614W        W54940  16.455  24.571  13.993
82615W        W54941   4.673  13.308   0.241
82616W        W54942  38.772  13.398   5.120
82617W        W54943   1.175  43.291  10.589
82618W        W54944  36.065   2.164  14.380
82619W        W54945   7.786  28.177   2.112
82620W        W54946  23.536  10.692  12.658
82621W        W54947  32.128  35.161  12.536
82622W        W54948  30.071  44.951   3.129
82623W        W54949   1.219  16.288  13.351
82624W        W54950  35.078   8.573  14.672
82625W        W54951  15.149  35.134  12.010
82626W        W54952   7.647   7.219   4.157
82627W        W54953  21.517   6.760  12.113
82628W        W54954  18.125   2.913  12.058
82629W        W54955  36.129  21.262   0.406
82630W        W54956  21.754  24.959  14.471
82631W        W54957   8.225  36.876   3.528
82632W        W54958  21.524  21.729   1.815
82633W        W54959  26.721  22.987   1.275
82634W        W54960  36.714   4.064   0.943
82635W        W54961  13.750   8.171  10.766
82636W        W54962  20.288  10.929   4.216
82637W        W54963  42.297  44.012   0.340
82638W        W54964  34.471  38.091   4.574
82639W        W54965   8.274   6.770  13.935
82640W        W54966  21.710   8.891  11.103
82641W        W54967  23.660  35.387  11.387
82642W        W54968  16.877   9.901   9.882
82643W        W54969  34.952  32.406   5.076
82644W        W54970   9.365  32.987   4.706
82645W        W54971  17.614   5.553   3.339
82646W        W54972  41.977  29.509   3.767
82647W        W54973  30.958  43.567   1.316
82648W        W54974  10.406  13.044   2.214
82649W        W54975  22.222  40.895   1.455
82650W        W54976  19.202   2.728   4.275
82651W        W54977  29.502   1.970  11.172
82652W        W54978  18.676   3.227  11.016
82653W        W54979  40.906  28.702   2.379
82654W        W54980  35.834  28.484  14.436
82655W        W54981  24.004  20.808  12.835
82656W        W54982  24.747  31.333  14.318
82657W        W54983  25.751  42.416   2.755
82658W        W54984  36.653   1.509  10.688
82659W        W54985  26.654  33.659  13.923
82660W        W54986  32.448  18.655  13.864
82661W        W54987  40.331   1.573  13.414
82662W        W54988  24.730  35.810  14.517
82663W        W54989  18.043   9.865  11.519
82664W        W54990   0.059   9.829  11.190
82665W        W54991  22.453  16.651  10.713
82666W        W54992  14.517  39.394  14.422
82667W        W54993   6.670   7.304  14.965
82668W        W54994  22.058   4.823   0.451
82669W        W54995   6.564   6.486   4.928
82670W        W54996  20.989  43.331  13.873
82671W        W54997   1.216  32.951  11.938
82672W        W54998   8.740   4.329   1.927
82673W        W54999  21.712  37.001   2.228
82674W        W55000  14.274  15.259  10.971
82675W        W55001  20.684  24.473  13.358
82676W        W55002  37.393  19.405   0.231
82677W        W55003  38.797  17.781   3.360
82678W        W55004  15.667  10.292  10.474
82679W        W55005  12.286  22.200   4.238
82680W        W55006  33.130  16.290  13.440
82681W        W55007  38.888   8.644  11.366
82682W        W55008   3.943  38.838   2.264
82683W        W55009  43.790  43.340  14.879
82684W        W55010  42.468  36.024   2.679
82685W        W55011  44.877  27.785  11.411
82686W        W55012  38.588  43.938   1.768
82687W        W55013  26.548  28.523   0.914
82688W        W55014  10.800  34.006   1.683
82689W        W55015  30.266   4.314   2.321
82690W        W55016   9.472  11.006   0.858
82691W        W55017  28.731  12.663   0.199
82692W        W55018  41.734   0.012  13.916
82693W        W55019  43.353   9.846   0.838
82694W        W55020  43.870  32.619   1.191
82695W        W55021   2.922  40.845   4.045
82696W        W55022  32.519   5.705  12.845
82697W        W55023   6.273  25.025  13.765
82698W        W55024   6.321   5.802  11.456
82699W        W55025   8.674   3.510  11.705
82700W        W55026   6.911  43.117  13.483
82701W        W55027  34.201  42.908  14.261
82702W        W55028  18.146  38.331  11.164
82703W        W55029  12.793  29.090   0.250
82704W        W55030  23.053  30.643   2.293
82705W        W55031  13.381   9.807   2.173
82706W        W55032  39.886   5.187  10.593
82707W        W55033  27.245  20.111  14.979
82708W        W55034   6.670  36.626  11.784
82709W        W55035  20.311  41.510  10.636
82710W        W55036  25.832  17.407  13.968
82711W        W55037  31.566  32.581   1.905
82712W        W55038  29.682  16.434   3.148
82713W        W55039  20.281   5.384   4.418
82714W        W55040  17.516   4.638   2.997
82715W        W55041  15.804  12.680  14.745
82716W        W55042   9.204  43.774  14.337
82717W        W55043   5.267  21.937   3.137
82718W        W55044  26.625  24.683   0.986
82719W        W55045   7.226  20.502   0.758
82720W        W55046  18.566   4.300  14.383
82721W        W55047  17.367  33.449   1.230
82722W        W55048   6.351   9.285  14.508
82723W        W55049  44.433  42.900  13.111
82724W        W55050  31.775  22.292   4.542
82725W        W55051  35.998  23.483  14.383
82726W        W55052   0.406  18.327   1.920
82727W        W55053  20.604  18.132  14.382
82728W        W55054  28.096  14.092   3.180
82729W        W55055  17.097  30.646   2.763
82730W        W55056  40.777  16.124  12.415
82731W        W55057  41.670  37.972  11.149
82732W        W55058  12.637  40.576   2.952
82733W        W55059  24.551  20.755   3.590
82734W        W55060  17.613  23.126   4.657
82735W        W55061  23.475  15.640   0.449
82736W        W55062  27.152   4.303   4.305
82737W        W55063  18.844  20.120   0.499
82738W        W55064  40.505  26.662  14.297
82739W        W55065  14.567  41.382  10.929
82740W        W55066  22.658   9.587   3.120
82741W        W55067  39.455  43.003   3.244
82742W        W55068   9.638  38.154   3.896
82743W        W55069   4.833   1.891   2.759
82744W        W55070  27.948  34.444  11.211
82745W        W55071  27.592  13.973  13.868
82746W        W55072  21.762  10.363  11.050
82747W        W55073   0.565  10.608   3.391
82748W        W55074   3.669  13.173  14.909
82749W        W55075   9.242   7.809  10.930
82750W        W55076  40.804  36.346  14.514
82751W        W55077  24.244  10.527   3.643
82752W        W55078   4.004  38.917  10.566
82753W        W55079  14.133  19.948  14.752
82754W        W55080  10.764  19.502  11.642
82755W        W55081  29.050   0.380  12.219
82756W        W55082  40.535  44.612  11.930
82757W        W55083  25.982  23.883   3.112
82758W        W55084  44.839  28.487  11.010
82759W        W55085   9.121  10.885  11.620
82760W        W55086  20.267   6.305   2.372
82761W        W55087  19.786   5.462  12.095
82762W        W55088  44.977  27.490   3.727
82763W        W55089  43.240  35.976   1.923
82764W        W55090   1.246  38.783   4.257
82765W        W55091  25.909  37.886   2.283
82766W        W55092   0.526  11.757  13.447
82767W        W55093  30.670   7.744  12.766
82768W        W55094  21.876  15.372  12.151
82769W        W55095   5.439  12.625  14.305
82770W        W55096  29.612  29.854   0.816
82771W        W55097  39.437  16.185   1.663
82772W        W55098  23.157  39.918   5.562
82773W        W55099  35.152  20.568   0.865
82774W        W55100  24.461  33.515   1.700
82775W        W55101   4.206  31.442   3.175
82776W        W55102   7.143   0.490   2.770
82777W        W55103  15.834  43.461  13.559
82778W        W55104  40.773  13.233   3.148
82779W        W55105  44.108  23.816  13.604
82780W        W55106  20.151  25.766   4.352
82781W        W55107  30.437  19.634   2.148
82782W        W55108  36.508  12.168  13.608
82783W        W55109  11.295   2.183  12.480
82784W        W55110  43.572  33.587  12.518
82785W        W55111   0.456   7.209   2.885
82786W        W55112  12.272  19.283   1.933
82787W        W55113  28.252  37.142   4.655
82788W        W55114  31.143  17.762   0.332
82789W        W55115  39.105  27.166  12.347
82790W        W55116  25.508  39.584   5.769
82791W        W55117   0.022   9.646   2.300
82792W        W55118  39.272  14.293  11.913
82793W        W55119   1.228   8.770  11.850
82794W        W55120  21.620  30.802   2.310
82795W        W55121  10.818  32.635  11.991
82796W        W55122  34.043  18.774   3.055
82797W        W55123  25.410  12.662  12.513
82798W        W55124  17.972   5.454   4.681
82799W        W55125  40.379   2.870  10.701
82800W        W55126  13.597   8.331  12.137
82801W        W55127   8.211  39.858   1.415
82802W        W55128   0.445  42.449   4.555
82803W        W55129  37.803  11.320  10.477
82804W        W55130  27.935  26.016  12.410
82805W        W55131  44.613   5.371   2.073
82806W        W55132   0.477   2.652  12.791
82807W        W55133   0.432  43.680   1.780
82808W        W55134   4.071   5.269  13.589
82809W        W55135  34.591   1.824  13.513
82810W        W55136   2.687  16.181   1.341
82811W        W55137   9.438  15.509   2.745
82812W        W55138  29.469  28.875  11.066
82813W        W55139  20.520  38.526  10.682
82814W        W55140   5.893  42.270  10.705
82815W        W55141  41.706  11.349   0.376
82816W        W55142  36.421  24.264  12.065
82817W        W55143  40.042   9.803   2.827
82818W        W55144  42.976  26.129   2.880
82819W        W55145   2.445  14.851  12.454
82820W        W55146  11.254  23.782  13.316
82821W        W55147  40.786  12.113  14.715
82822W        W55148  18.124  29.922   2.243
82823W        W55149  32.608   3.809  12.897
82824W        W55150  41.878   7.909   4.524
82825W        W55151  12.535   6.290  12.491
82826W        W55152  13.781  33.408   2.831
82827W        W55153  23.139  21.493  12.902
82828W        W55154  26.693   1.554  12.355
82829W        W55155  12.195  19.199   2.424
82830W        W55156  22.196  30.338   3.403
82831W        W55157  14.690  10.810  10.975
82832W        W55158  40.275  23.744  14.793
82833W        W55159  42.837  29.980  11.695
82834W        W55160  22.052   4.525   2.891
82835W        W55161  19.796  35.161   2.198
82836W        W55162   8.811  12.657   2.636
82837W        W55163  37.204  30.140   2.903
82838W        W55164  14.038   6.461  11.133
82839W        W55165  18.519  26.775   2.237
82840W        W55166  12.675  13.093   4.820
82841W        W55167  36.582  10.900   4.243
82842W        W55168   9.992  26.055  10.610
82843W        W55169  20.388  37.149  10.818
82844W        W55170   3.461  22.933   3.581
82845W        W55171   1.898  25.205  14.619
82846W        W55172  38.758  41.389   4.805
82847W        W55173  11.594  30.849  13.349
82848W        W55174  32.076  29.217  14.941
82849W        W55175   0.355  21.611   4.533
82850W        W55176   2.944  31.425  13.629
82851W        W55177   8.405  43.870   0.440
82852W        W55178  28.140  38.102  14.400
82853W        W55179  19.626  36.945   0.219
82854W        W55180  32.478  24.721   0.230
82855W        W55181   3.414  32.528   0.403
82856W        W55182  13.614  30.944   1.733
82857W        W55183  19.763  23.490   2.756
82858W        W55184  28.143  30.711  11.618
82859W        W55185  22.672  38.161  12.574
82860W        W55186   0.798  18.190  13.054
82861W        W55187  36.320  10.483  11.761
82862W        W55188   0.942  35.032  13.020
82863W        W55189  36.873  23.754   2.700
82864W        W55190  40.662  21.179  14.178
82865W        W55191  44.563  32.551  12.166
82866W        W55192  23.482  21.274  11.420
82867W        W55193  42.482  18.278  14.526
82868W        W55194  35.785   9.344   0.704
82869W        W55195  41.331  16.365   0.904
82870W        W55196  14.734   2.260  11.064
82871W        W55197  42.549  24.937  14.922
82872W        W55198  40.913  21.012   2.390
82873W        W55199  27.522   3.778   2.267
82874W        W55200   8.106   8.100  12.864
82875W        W55201  20.812  31.968   0.159
82876W        W55202   1.242  18.197   3.385
82877W        W55203  25.117  34.578   4.586
82878W        W55204  37.227  14.573   3.246
82879W        W55205  24.787  35.388  12.418
82880W        W55206   0.830   9.699   3.818
82881W        W55207  30.520  16.707   3.700
82882W        W55208  33.128   5.681   0.305
82883W        W55209  11.773  21.662  14.193
82884W        W55210  22.979  25.571   3.172
82885W        W55211  20.805  23.506   2.657
82886W        W55212  31.246  41.454   2.096
82887W        W55213  10.719  19.507  14.463
82888W        W55214  34.366  39.890  10.681
82889W        W55215  38.549  39.815   2.755
82890W        W55216  15.038  17.778  14.276
82891W        W55217  42.345  44.416   2.314
82892W        W55218  34.514   1.738  12.447
82893W        W55219  21.656  11.778  10.579
82894W        W55220  12.389  44.932  11.603
82895W        W55221  30.223  33.114  12.457
82896W        W55222  44.212   9.618  14.411
82897W        W55223  31.008   8.855  14.250
82898W        W55224  18.502  44.817  14.290
82899W        W55225  41.744  17.345  12.137
82900W        W55226  40.086  12.056  11.515
82901W        W55227   2.962  43.391   4.050
82902W        W55228  44.174   0.251   1.221
82903W        W55229  10.537  41.785   4.316
82904W        W55230  14.320  23.502   2.207
82905W        W55231  14.699   6.489   0.275
82906W        W55232   3.192   4.149  11.518
82907W        W55233   6.446  22.690   4.569
82908W        W55234   0.358  30.349  12.092
82909W        W55235   0.114  23.636   4.829
82910W        W55236  37.422   1.855  11.411
82911W        W55237  23.649   6.326  14.807
82912W        W55238  22.044  31.988   4.690
82913W        W55239  12.206  26.992   4.291
82914W        W55240  28.543  41.000   3.792
82915W        W55241  20.066  37.800  12.323
82916W        W55242   3.502  41.484  11.881
82917W        W55243  32.357  21.931  13.574
82918W        W55244  39.499  31.610  11.435
82919W        W55245  38.229   6.880   2.545
82920W        W55246  17.619  41.954   0.802
82921W        W55247  28.531   3.412   0.451
82922W        W55248  22.946  34.265  13.516
82923W        W55249  11.114  32.657   1.996
82924W        W55250  21.211  32.135   3.305
82925W        W55251   7.021  43.092   0.246
82926W        W55252  20.151  12.381   1.979
82927W        W55253  28.123  14.322   5.091
82928W        W55254  24.940  16.798   3.181
82929W        W55255  35.617  20.026  11.229
82930W        W55256  44.736  39.258  11.443
82931W        W55257  29.809  20.034   1.685
82932W        W55258  26.786  12.247   3.830
82933W        W55259  16.819  15.100   2.811
82934W        W55260  14.958  29.138   1.104
82935W        W55261  24.723  40.805   4.567
82936W        W55262  29.509  16.668   0.731
82937W        W55263  21.238  23.935  12.884
82938W        W55264   7.150  12.789  14.986
82939W        W55265  40.465  29.867  14.473
82940W        W55266  14.218  29.874  13.794
82941W        W55267  13.868  23.066  12.494
82942W        W55268  30.715  33.885  10.424
82943W        W55269  20.764  35.323  12.550
82944W        W55270  40.973  36.411   0.923
82945W        W55271  16.069   0.426   2.663
82946W        W55272  43.441  30.235   2.123
82947W        W55273   9.325   9.655   0.880
82948W        W55274  17.637  19.823  12.519
82949W        W55275  39.515  35.560  13.796
82950W        W55276  14.637  32.109   3.773
82951W        W55277  34.562  43.319   1.110
82952W        W55278  15.895  28.574  13.409
82953W        W55279  41.359  14.586  11.123
82954W        W55280  21.019  39.863  11.807
82955W        W55281  40.774   6.978   1.029
82956W        W55282  14.760  14.242  12.911
82957W        W55283  37.602  10.356  14.934
82958W        W55284   2.636  17.547   3.255
82959W        W55285   6.221  32.962   1.432
82960W        W55286  37.438   2.772  13.888
82961W        W55287   1.038  17.228   4.838
82962W        W55288  15.249  21.811   3.184
82963W        W55289   4.237  17.037  12.096
82964W        W55290  20.902  36.525   4.558
82965W        W55291  27.971  39.102   3.302
82966W        W55292  25.519  40.490   0.332
82967W        W55293  28.966  38.522   3.682
82968W        W55294  32.081  43.421  13.011
82969W        W55295  38.906  29.054   2.593
82970W        W55296  20.135  20.277   3.349
82971W        W55297  44.286  30.197   1.717
82972W        W55298  14.323  25.675  10.740
82973W        W55299   0.671  34.934  13.472
82974W        W55300   3.963   9.353   3.354
82975W        W55301  36.470  12.765   2.949
82976W        W55302  42.835  26.524  13.477
82977W        W55303  34.834  26.855   1.702
82978W        W55304  31.863  28.530  13.432
82979W        W55305   7.877   5.451   3.749
82980W        W55306  38.530  16.223  12.654
82981W        W55307   8.162  27.073  10.540
82982W        W55308  21.782  24.092  12.068
82983W        W55309   3.508  20.080   2.124
82984W        W55310  19.704  22.128   3.734
82985W        W55311   6.816  38.946  14.983
82986W        W55312  30.676  43.539   0.020
82987W        W55313  22.986  32.474   0.217
82988W        W55314  11.384   2.945  10.466
82989W        W55315  11.851  34.109   0.317
82990W        W55316   6.709  15.272  14.309
82991W        W55317   7.976  22.702   9.875
82992W        W55318  36.414   6.875  12.897
82993W        W55319   9.874  24.084   4.622
82994W        W55320  42.486   5.224   3.211
82995W        W55321  26.170  37.361  10.172
82996W        W55322  39.006  17.135   0.278
82997W        W55323  12.663  44.359  14.767
82998W        W55324  19.018  35.320  14.443
82999W        W55325  32.408  17.912  11.467
83000W        W55326  20.101  18.334  10.201
83001W        W55327  20.562  28.182   2.741
83002W        W55328  32.110  29.973  11.110
83003W        W55329  30.870  24.449  13.874
83004W        W55330  28.925   2.938  12.888
83005W        W55331  21.808  11.164   1.127
83006W        W55332  21.238  13.932   1.685
83007W        W55333  43.019   2.256  14.117
83008W        W55334  18.201  30.333   2.605
83009W        W55335   9.822  24.114  14.522
83010W        W55336  30.478  18.900  12.611
83011W        W55337  11.787  30.378   0.197
83012W        W55338   3.717  29.966   2.258
83013W        W55339  28.010   7.358  14.425
83014W        W55340   8.169  10.302  11.004
83015W        W55341   8.620  15.867   0.754
83016W        W55342  37.898  31.154   1.752
83017W        W55343   0.902   7.564   3.624
83018W        W55344  30.211   2.736  12.522
83019W        W55345   0.932  37.767   4.309
83020W        W55346  44.339  44.694  10.332
83021W        W55347  24.626   9.279  12.683
83022W        W55348   4.860  43.905   1.609
83023W        W55349  32.931  14.119  14.634
83024W        W55350   4.250  10.415   2.855
83025W        W55351  35.546  20.819  13.136
83026W        W55352  17.308  29.346   1.769
83027W        W55353  19.729  35.140  14.356
83028W        W55354  10.262   6.986  13.771
83029W        W55355  19.260  21.015  14.195
83030W        W55356  13.892  14.296  10.941
83031W        W55357   9.941  38.587   4.094
83032W        W55358  27.760  18.650   3.839
83033W        W55359   2.231  42.999  13.943
83034W        W55360  19.697  28.454  14.103
83035W        W55361  17.198  21.765  11.863
83036W        W55362  23.798  17.848   9.450
83037W        W55363  35.067  20.039  11.971
83038W        W55364  25.027  11.102  14.931
83039W        W55365   7.959  14.365  14.233
83040W        W55366  40.337  27.498   1.237
83041W        W55367  31.720   1.220  11.129
83042W        W55368   9.729  14.862  12.192
83043W        W55369  18.720  42.592  12.524
83044W        W55370   6.207  40.445   4.671
83045W        W55371  44.752  21.576  13.576
83046W        W55372  12.398   1.571  14.128
83047W        W55373  10.202  28.057   0.192
83048W        W55374   3.070   5.951   2.916
83049W        W55375   3.656  34.907   3.252
83050W        W55376   4.409  25.415  11.364
83051W        W55377   9.028  31.475   0.419
83052W        W55378   7.299  10.118  14.809
83053W        W55379  38.758  19.788   0.076
83054W        W55380  33.194  43.553   2.782
83055W        W55381  14.587  37.546   4.582
83056W        W55382  34.326  32.052   2.775
83057W        W55383  27.843   8.807   3.214
83058W        W55384  14.375  14.127  11.066
83059W        W55385  35.033  11.073  13.707
83060W        W55386  11.732   2.383  11.520
83061W        W55387  16.103  39.342  12.941
83062W        W55388  15.005  16.326  13.260
83063W        W55389   7.289  20.540  12.474
83064W        W55390  22.283  16.070   3.264
83065W        W55391  22.646  37.562   3.714
83066W        W55392  13.897  23.713   0.425
83067W        W55393   5.109  28.207  10.849
83068W        W55394  35.602  22.514   0.253
83069W        W55395  40.033   5.891   2.180
83070W        W55396  32.859  11.848   2.889
83071W        W55397  36.963  12.766   2.149
83072W        W55398  38.513   4.991  13.530
83073W        W55399   8.855  11.298   3.292
83074W        W55400  20.162  35.962   3.616
83075W        W55401  10.081  14.677   0.916
83076W        W55402  18.233  36.621   4.846
83077W        W55403   5.951   3.881  13.463
83078W        W55404  35.296  29.944   4.482
83079W        W55405  25.011  23.279  14.948
83080W        W55406  39.462  26.773   3.668
83081W        W55407  16.181   5.649   2.353
83082W        W55408   7.107  13.895   4.202
83083W        W55409  37.060  30.164  11.182
83084W        W55410  16.236  41.037   4.648
83085W        W55411  14.751  14.509  12.467
83086W        W55412   2.506  29.344  13.432
83087W        W55413  13.390  29.673  12.461
83088W        W55414  27.001   8.985   4.214
83089W        W55415   1.495   7.878   4.830
83090W        W55416  16.775  33.958  13.929
83091W        W55417   6.847  33.450  13.927
83092W        W55418  28.540  37.846   4.123
83093W        W55419   8.534  25.951  13.617
83094W        W55420  41.477   0.855  13.533
83095W        W55421  10.208  19.274   1.883
83096W        W55422  28.399  13.734   4.100
83097W        W55423  29.379  17.416  11.534
83098W        W55424  30.159  42.785   0.894
83099W        W55425  32.161   3.230   4.149
83100W        W55426   1.939   1.762   1.837
83101W        W55427   9.705   5.834  14.878
83102W        W55428  13.338  11.784   3.215
83103W        W55429  42.328  27.858   2.168
83104W        W55430  40.113   4.038   3.115
83105W        W55431  29.681  13.821   0.369
83106W        W55432  40.770  11.751   0.434
83107W        W55433  25.296  15.069   1.155
83108W        W55434  14.264  25.546   2.471
83109W        W55435  42.356   8.772  10.668
83110W        W55436   8.611  38.823  11.286
83111W        W55437  23.273  30.596  12.217
83112W        W55438   7.827  22.708   1.785
83113W        W55439  39.085  21.334  11.044
83114W        W55440  13.561  12.159   1.017
83115W        W55441  25.195  30.664   1.339
83116W        W55442  44.898  21.346   3.678
83117W        W55443   6.181  25.837  12.075
83118W        W55444  21.540  38.310   0.331
83119W        W55445   9.823  33.523   3.281
83120W        W55446  34.699  12.648   0.951
83121W        W55447  31.950   3.850   2.271
83122W        W55448  13.578  34.514  11.646
83123W        W55449  39.834   8.349   4.807
83124W        W55450  36.625   7.334   1.795
83125W        W55451  21.645  41.097  11.370
83126W        W55452   7.332  33.897  13.111
83127W        W55453  15.763  32.597  14.447
83128W        W55454  44.717  36.905   0.191
83129W        W55455  10.670  30.117   1.418
83130W        W55456  23.099   7.728   4.330
83131W        W55457   5.235  31.150  13.374
83132W        W55458  17.161  12.138  11.239
83133W        W55459  35.914  11.884  10.976
83134W        W55460  33.724  14.965  12.379
83135W        W55461  22.899  26.544  12.209
83136W        W55462   4.220  42.389  12.848
83137W        W55463  27.385   6.437   2.669
83138W        W55464   2.852  36.312  10.639
83139W        W55465   0.277   9.250   2.539
83140W        W55466  35.014  30.943  11.462
83141W        W55467  20.540  15.199  14.451
83142W        W55468  18.805  20.584   4.704
83143W        W55469  14.591  36.393  11.544
83144W        W55470  27.924  39.360   2.871
83145W        W55471  40.370  18.264   4.610
83146W        W55472   7.358   8.409   3.096
83147W        W55473  12.866  36.674  11.897
83148W        W55474   4.823  34.784   5.058
83149W        W55475  31.985  33.886   2.930
83150W        W55476  36.584  33.048   0.232
83151W        W55477  25.065  25.893  12.800
83152W        W55478  26.858  24.582  13.147
83153W        W55479  25.197   8.721  13.346
83154W        W55480  24.674  35.092  11.570
83155W        W55481  17.578  43.434   1.017
83156W        W55482   8.305  10.305   9.987
83157W        W55483  17.512  13.667   4.177
83158W        W55484  33.503  29.192  11.491
83159W        W55485  44.321   8.346   3.173
83160W        W55486  10.113  31.909  10.239
83161W        W55487  39.383  28.602   3.715
83162W        W55488  34.003  28.175   4.598
83163W        W55489  42.917  17.247  11.451
83164W        W55490  40.771   4.772  11.645
83165W        W55491  38.799  43.327   1.875
83166W        W55492  20.367  18.371  13.009
83167W        W55493  27.560   8.393   2.258
83168W        W55494  24.217  38.426   1.865
83169W        W55495  28.691  39.579   1.260
83170W        W55496  35.088  26.197   0.530
83171W        W55497  37.332  16.227  14.775
83172W        W55498  27.055  43.959  12.805
83173W        W55499  20.258  17.811   3.529
83174W        W55500  12.832   8.203   1.503
83175W        W55501  30.177  42.037   3.671
83176W        W55502  32.974  21.704   0.626
83177W        W55503  17.623  18.188  13.425
83178W        W55504  14.401  35.084  11.494
83179W        W55505  13.619  27.284   4.569
83180W        W55506  10.814  16.531   0.761
83181W        W55507  39.000  38.947   5.096
83182W        W55508  14.788  27.528   2.972
83183W        W55509   4.724   3.033   0.017
83184W        W55510  28.096  28.478  14.533
83185W        W55511  23.257  26.661  11.196
83186W        W55512  12.580  37.179  12.585
83187W        W55513  28.965   9.886  13.554
83188W        W55514  43.494   4.561   2.605
83189W        W55515   2.215  15.903  11.438
83190W        W55516  40.083  38.922  12.548
83191W        W55517  26.501  27.108  11.969
83192W        W55518   1.408  37.905   0.931
83193W        W55519  21.217  10.170   2.136
83194W        W55520   9.157  32.387   0.802
83195W        W55521  26.068  33.851  14.938
83196W        W55522   0.202  35.808   3.718
83197W        W55523   8.427  25.011   1.916
83198W        W55524  18.041   6.779  11.677
83199W        W55525  43.933  22.690   1.814
83200W        W55526   0.249  25.527  10.447
83201W        W55527  21.177  20.071  12.020
83202W        W55528  30.405  44.824   0.237
83203W        W55529  38.511   6.106   2.921
83204W        W55530  43.567  30.188   0.386
83205W        W55531  22.043  15.807   1.401
83206W        W55532  37.086   9.380  13.321
83207W        W55533  24.437  16.164  13.542
83208W        W55534  14.576  44.675   2.733
83209W        W55535   7.398  22.608  13.428
83210W        W55536  44.884  15.353  10.323
83211W        W55537  17.556   6.026   4.100
83212W        W55538  23.138   9.173  14.772
83213W        W55539  21.666  19.331   1.764
83214W        W55540  42.419  41.827   3.360
83215W        W55541   4.118   3.961  12.101
83216W        W55542  13.372  13.378  13.038
83217W        W55543  24.985  36.508  11.663
83218W        W55544  22.397  13.079  12.481
83219W        W55545  13.310   8.420   1.023
83220W        W55546   6.324  41.757   4.228
83221W        W55547  32.516  34.700   2.106
83222W        W55548   5.990  35.101  12.860
83223W        W55549  38.120  27.073  12.915
83224W        W55550  29.611  20.052  14.973
83225W        W55551   1.284  31.065   0.347
83226W        W55552   1.007  15.258   1.944
83227W        W55553  34.395  20.015  14.804
83228W        W55554  15.073  10.328  13.501
83229W        W55555  31.435  40.722   3.181
83230W        W55556  38.828  34.540   4.084
83231W        W55557  39.065  18.756   0.737
83232W        W55558  21.716  31.924  12.535
83233W        W55559  32.059  17.295  11.161
83234W        W55560  12.409  28.610  12.501
83235W        W55561   4.834  33.335   2.202
83236W        W55562   5.176   7.192   2.245
83237W        W55563  24.712  13.918   4.936
83238W        W55564   7.250   8.215  14.118
83239W        W55565  32.910  20.844   3.391
83240W        W55566  23.318  18.637  10.755
83241W        W55567  15.329  12.802  13.875
83242W        W55568   0.907  26.765   3.667
83243W        W55569   2.397  19.194   2.632
83244W        W55570  35.870   5.770   4.077
83245W        W55571  11.204  23.801  14.257
83246W        W55572  24.497  21.049   1.853
83247W        W55573   2.457  20.212   4.191
83248W        W55574  37.627  43.464  10.721
83249W        W55575   8.092  36.829  12.342
83250W        W55576  19.797   1.958   2.720
83251W        W55577   1.333  17.103  11.662
83252W        W55578  38.062  20.933  14.859
83253W        W55579  44.588  18.505  12.561
83254W        W55580  36.331   6.412   2.243
83255W        W55581  29.065  12.231   0.509
83256W        W55582   0.927  22.939   2.975
83257W        W55583  20.717  26.503   1.937
83258W        W55584   4.251  16.073  14.578
83259W        W55585  42.411  18.765  13.611
83260W        W55586  19.813  20.607  10.811
83261W        W55587  30.791  41.708   0.472
83262W        W55588  14.609   8.221   4.279
83263W        W55589  32.065   2.359   0.510
83264W        W55590  16.487  27.255  10.692
83265W        W55591  39.279  23.886   2.451
83266W        W55592  40.833  16.165   0.861
83267W        W55593   0.317  14.525  14.227
83268W        W55594  20.727  20.548  14.389
83269W        W55595  42.108  34.521  12.356
83270W        W55596  30.654  33.101   0.937
83271W        W55597  36.301  29.703   4.820
83272W        W55598  20.720   3.709  11.053
83273W        W55599  31.498  28.688   2.326
83274W        W55600  29.201  31.346   1.204
83275W        W55601  31.878  15.691  14.707
83276W        W55602  20.025  19.339  13.501
83277W        W55603  38.958  17.135  14.336
83278W        W55604  37.903  44.037  13.725
83279W        W55605  43.353  25.680   4.221
83280W        W55606  13.687  15.678  10.634
83281W        W55607  35.944  38.441  11.411
83282W        W55608  37.343  31.650  12.575
83283W        W55609  31.188  14.046  12.542
83284W        W55610  10.380  39.773   2.242
83285W        W55611  33.567  21.619   3.985
83286W        W55612  38.639  17.918   2.868
83287W        W55613  24.612  41.731  13.841
83288W        W55614   3.839  39.381  13.931
83289W        W55615  42.396   4.146   0.854
83290W        W55616  15.233  38.826   3.140
83291W        W55617  42.840  29.638  12.988
83292W        W55618   1.910  11.725  11.476
83293W        W55619  44.026  24.980  13.862
83294W        W55620   8.599   3.685  14.411
83295W        W55621  26.764  35.316   1.769
83296W        W55622  23.594  37.949   2.784
83297W        W55623  43.267  30.943  11.428
83298W        W55624  11.790  34.958  12.823
83299W        W55625  15.426  11.085   3.391
83300W        W55626   7.724   1.563   2.502
83301W        W55627   7.853  19.750  11.537
83302W        W55628  38.774  42.858   4.210
83303W        W55629  17.475  32.854  11.607
83304W        W55630   2.623  13.300  10.830
83305W        W55631  41.846  31.551   3.393
83306W        W55632  14.199  12.149   1.799
83307W        W55633  31.315  40.383  14.045
83308W        W55634  39.799  21.252   3.055
83309W        W55635  37.974  27.744  11.567
83310W        W55636  35.589  39.809  12.471
83311W        W55637  14.325  41.792   5.202
83312W        W55638  11.552  40.304   0.840
83313W        W55639   2.347  43.472   1.487
83314W        W55640   9.448  17.589  12.908
83315W        W55641  21.613   3.140  13.564
83316W        W55642  23.816  17.972  14.781
83317W        W55643  30.504  35.557  10.666
83318W        W55644   8.227   2.474   3.951
83319W        W55645  12.316   4.791  10.944
83320W        W55646   2.322  16.936  14.209
83321W        W55647  33.943  29.682  11.019
83322W        W55648  33.496  38.837  11.502
83323W        W55649  35.456  41.652   2.915
83324W        W55650  19.379  31.604   3.715
83325W        W55651  33.970  39.286  11.544
83326W        W55652  19.276  33.237   3.948
83327W        W55653  13.107  14.736  11.992
83328W        W55654  42.941  43.875   4.573
83329W        W55655  43.288  11.850   4.531
83330W        W55656  13.724  35.378  14.497
83331W        W55657  17.728  40.089   2.415
83332W        W55658  12.800  15.410   4.121
83333W        W55659  40.615  19.501  10.757
83334W        W55660   0.130  25.553  12.516
83335W        W55661  12.876  24.249   3.133
83336W        W55662  34.129   6.448  13.797
83337W        W55663  15.763   3.457   0.517
83338W        W55664  16.503  10.688  11.957
83339W        W55665  16.908   4.879   3.779
83340W        W55666  29.477   9.410  12.969
83341W        W55667  29.339   2.356   2.637
83342W        W55668   7.450  10.665  10.645
83343W        W55669  16.821  28.472   4.474
83344W        W55670  39.664  28.953  11.177
83345W        W55671  12.587  37.438  10.041
83346W        W55672  24.555  34.553  13.883
83347W        W55673  38.827  17.752  10.658
83348W        W55674  21.740  17.145  12.414
83349W        W55675  30.689  21.166  13.866
83350W        W55676  21.016  13.888  11.171
83351W        W55677   4.943  13.835   4.559
83352W        W55678  24.499  40.614  14.846
83353W        W55679  43.272  31.651   0.973
83354W        W55680  29.588  29.499   1.778
83355W        W55681  31.428  10.609  14.187
83356W        W55682  13.686  10.052   3.197
83357W        W55683  12.647  36.431  10.688
83358W        W55684  39.402   5.931   3.369
83359W        W55685   8.381   3.738  12.073
83360W        W55686  11.469  24.934   9.471
83361W        W55687   1.255  14.815   1.828
83362W        W55688  37.433  12.406  14.011
83363W        W55689  12.715  34.709   1.526
83364W        W55690   8.817  34.855  13.405
83365W        W55691   9.138  32.643  14.518
83366W        W55692  11.375  33.102  12.990
83367W        W55693   0.659  12.255  13.578
83368W        W55694  20.258   2.864   0.013
83369W        W55695  11.311  16.718  14.355
83370W        W55696  36.478  39.432   0.253
83371W        W55697  39.348  24.671  12.823
83372W        W55698  20.118   6.742  12.525
83373W        W55699  28.743   7.862   2.353
83374W        W55700  10.701  34.126   0.759
83375W        W55701   1.338  26.026   1.826
83376W        W55702  41.049  29.435  12.507
83377W        W55703  38.033  17.776   1.221
83378W        W55704  31.912   7.429  13.875
83379W        W55705  36.370   2.192  11.125
83380W        W55706  14.702  43.288   1.902
83381W        W55707  21.775   8.835  12.479
83382W        W55708  30.172  11.585   3.343
83383W        W55709  36.809  18.709  14.941
83384W        W55710  27.752  17.206   0.039
83385W        W55711  12.586  20.634  11.536
83386W        W55712  44.880  18.406  13.758
83387W        W55713  21.241   6.408  12.859
83388W        W55714  29.637  30.596   4.561
83389W        W55715  44.567  44.291  12.465
83390W        W55716  19.092   6.356   0.363
83391W        W55717  39.067   6.970  14.437
83392W        W55718  42.338  43.734  14.135
83393W        W55719  39.359  27.105  11.523
83394W        W55720  10.370  39.475   1.481
83395W        W55721  36.933   7.659   1.298
83396W        W55722  12.471  35.270   4.159
83397W        W55723   3.901  15.694   0.327
83398W        W55724   7.146  12.716  13.148
83399W        W55725  30.416  19.102  12.065
83400W        W55726  12.173  18.139   4.568
83401W        W55727   8.476  42.035   2.712
83402W        W55728  35.316   3.303  10.592
83403W        W55729  39.933  23.542   3.119
83404W        W55730  34.836  16.800   0.140
83405W        W55731  25.203  16.352  11.804
83406W        W55732  33.681  34.156   1.701
83407W        W55733  29.164  43.216  13.814
83408W        W55734  24.250  20.829   1.456
83409W        W55735  11.720   9.159  10.390
83410W        W55736  44.130   3.924  11.781
83411W        W55737  44.431  41.431  12.516
83412W        W55738  13.737  25.059   4.168
83413W        W55739  23.785  28.180   4.839
83414W        W55740   3.001   6.652   3.699
83415W        W55741  14.538  16.243  13.024
83416W        W55742  10.816  12.784  12.588
83417W        W55743  27.484  22.968   3.187
83418W        W55744  39.048  20.207   1.886
83419W        W55745  39.819   2.412  12.419
83420W        W55746   3.863  35.380   3.332
83421W        W55747  11.840   2.101  11.966
83422W        W55748  16.092  31.407   0.808
83423W        W55749  43.477  30.058  12.907
83424W        W55750  43.288  25.302   1.317
83425W        W55751  36.960  28.691  13.488
83426W        W55752   2.190   3.424   4.612
83427W        W55753  11.163  20.683   2.233
83428W        W55754  21.462  25.357  10.235
83429W        W55755  40.589  35.392   1.655
83430W        W55756  40.264  27.523  11.539
83431W        W55757  33.576  39.421  10.700
83432W        W55758  27.006  35.956   0.356
83433W        W55759  22.737  38.819  11.993
83434W        W55760  30.373  36.759   3.954
83435W        W55761  39.611  26.860  12.803
83436W        W55762   8.169  20.612  12.032
83437W        W55763  14.197  29.038   4.865
83438W        W55764  21.672  23.583   3.600
83439W        W55765  21.184   9.888  11.102
83440W        W55766  23.999  25.165  12.001
83441W        W55767  20.489   9.551   3.787
83442W        W55768   7.751  37.010   3.625
83443W        W55769  11.426   7.868  12.108
83444W        W55770  29.453  11.753  12.507
83445W        W55771  37.839  25.350   3.176
83446W        W55772  14.337   4.138  13.006
83447W        W55773  20.625  16.621   4.490
83448W        W55774  23.013  44.386   4.200
83449W        W55775  40.907  40.825  13.145
83450W        W55776  13.631  22.486   4.545
83451W        W55777   8.383  30.205   3.118
83452W        W55778  28.074  21.273  11.692
83453W        W55779  36.840  23.938  12.962
83454W        W55780  13.378  38.864  13.994
83455W        W55781  39.349  35.439   0.232
83456W        W55782   0.425  38.111   0.027
83457W        W55783  32.116  11.717  11.550
83458W        W55784  24.619  44.912  13.113
83459W        W55785  41.316  25.903  13.921
83460W        W55786  14.554   7.008  12.051
83461W        W55787   5.778   4.240  13.796
83462W        W55788  40.370   6.142  10.667
83463W        W55789  29.977   5.715   0.493
83464W        W55790   0.874  13.660  12.166
83465W        W55791  34.519  20.848  11.008
83466W        W55792  24.421  27.095  13.801
83467W        W55793  18.081   2.225   0.291
83468W        W55794  42.987   5.046  11.097
83469W        W55795  23.570  33.496  14.083
83470W        W55796  12.144  21.225   0.788
83471W        W55797  41.897  15.096   3.631
83472W        W55798  16.307  12.261  12.587
83473W        W55799  32.084  12.819   5.084
83474W        W55800  34.876  43.683  10.980
83475W        W55801  14.219  36.206   5.117
83476W        W55802  15.578  21.680  11.389
83477W        W55803  38.601   6.388  10.801
83478W        W55804  42.751  29.486   1.253
83479W        W55805  30.192  28.110   2.880
83480W        W55806  17.008   1.206   3.217
83481W        W55807   1.263  11.916   5.493
83482W        W55808  26.567   5.147   2.347
83483W        W55809  40.983  38.329  14.389
83484W        W55810   6.924  16.120   2.803
83485W        W55811  18.883   6.204   0.813
83486W        W55812  14.197  13.113  12.028
83487W        W55813  24.222  44.936   3.043
83488W        W55814  37.464  30.597   2.652
83489W        W55815  28.791  32.580   3.610
83490W        W55816  40.558  40.606  12.856
83491W        W55817  27.486  24.122   1.453
83492W        W55818  13.448  13.246  13.839
83493W        W55819  12.408  31.029   3.706
83494W        W55820  12.563  38.918   2.650
83495W        W55821  24.739   6.281  13.410
83496W        W55822   1.184  24.188   1.385
83497W        W55823  17.572  42.572   0.301
83498W        W55824  34.880  24.115   1.162
83499W        W55825  19.239   0.991   0.226
83500W        W55826   7.390  23.717   4.910
83501W        W55827   3.527  38.768  10.473
83502W        W55828  40.425  18.538  13.862
83503W        W55829  40.385  37.955   4.462
83504W        W55830  14.212   5.775   4.412
83505W        W55831  26.582   7.624  12.628
83506W        W55832  15.929  10.123  10.875
83507W        W55833  14.343   4.641  13.007
83508W        W55834  12.327  29.835  14.866
83509W        W55835  41.721  34.949  13.401
83510W        W55836  39.569  35.448   4.253
83511W        W55837  31.811  17.309  11.635
83512W        W55838   1.431  38.866   2.133
83513W        W55839  35.983  34.402  11.437
83514W        W55840   1.908   8.387  13.203
83515W        W55841  43.474  17.065   3.395
83516W        W55842   0.880  20.034  14.491
83517W        W55843  17.210  29.426  14.704
83518W        W55844   6.606  20.477   3.761
83519W        W55845  22.984  21.573  13.820
83520W        W55846  25.762  42.964   4.445
83521W        W55847  39.839  24.216  14.828
83522W        W55848  13.851   9.954  14.615
83523W        W55849  16.325   1.857   1.765
83524W        W55850  42.004  14.210  10.108
83525W        W55851  40.627   7.744  11.637
83526W        W55852  40.540  25.651   4.726
83527W        W55853   3.252  18.334   4.895
83528W        W55854   9.516   3.990   2.413
83529W        W55855   9.528  29.462   3.197
83530W        W55856  40.791  20.580   3.426
83531W        W55857  32.561  17.631  13.315
83532W        W55858  22.462  33.016  13.951
83533W        W55859  36.509   8.868   2.902
83534W        W55860  32.506  44.864   3.832
83535W        W55861  32.534  29.178   1.661
83536W        W55862  32.028   2.671   1.359
83537W        W55863  17.666   6.140  11.043
83538W        W55864  21.683  22.207   4.135
83539W        W55865  16.381  44.853   4.482
83540W        W55866  35.971  24.500   4.995
83541W        W55867  40.921  29.567   1.067
83542W        W55868  39.414  28.527  12.362
83543W        W55869  33.686  17.900  10.299
83544W        W55870   0.397  14.401  12.460
83545W        W55871  21.778  42.456  11.424
83546W        W55872  26.075  21.731   4.269
83547W        W55873   6.322  42.575  10.680
83548W        W55874  15.776  30.939  10.704
83549W        W55875  35.961   9.551  12.593
83550W        W55876  37.929  15.676  12.981
83551W        W55877  23.642  30.016  13.892
83552W        W55878  15.733  11.279   4.380
83553W        W55879   8.224  24.790  13.039
83554W        W55880  24.676  15.047   2.718
83555W        W55881  28.091  17.628  11.037
83556W        W55882  10.229  33.442  12.454
83557W        W55883  34.223  25.204   4.120
83558W        W55884  28.408  13.690   0.473
83559W        W55885  43.328  15.962  14.821
83560W        W55886  26.739  28.612   5.546
83561W        W55887  21.840   9.890   4.529
83562W        W55888  27.182  17.674  14.227
83563W        W55889  34.009  10.644  14.971
83564W        W55890  43.527  38.869  11.099
83565W        W55891  23.743  34.723   2.298
83566W        W55892  38.538  34.345   0.921
83567W        W55893  14.144  32.958   1.799
83568W        W55894  29.158  15.757  11.686
83569W        W55895  20.674  35.815  12.565
83570W        W55896  39.655   9.771  12.988
83571W        W55897  15.548  38.771  10.653
83572W        W55898  40.647  22.715  11.819
83573W        W55899  24.666  14.929   5.083
83574W        W55900  43.735  20.613   2.632
83575W        W55901   6.205   9.382   2.644
83576W        W55902  11.412  20.303  13.914
83577W        W55903  10.097   1.657   0.388
83578W        W55904   1.236  38.984  12.087
83579W        W55905  26.415   3.996  13.409
83580W        W55906  20.051  21.300   4.590
83581W        W55907  36.269  18.715   4.575
83582W        W55908   2.731  24.017   2.326
83583W        W55909  36.983  15.592  10.658
83584W        W55910  31.344   2.888   1.938
83585W        W55911  19.730  29.484   1.240
83586W        W55912  40.541  34.440  14.123
83587W        W55913   2.535  18.855   1.314
83588W        W55914   3.304  18.464  10.991
83589W        W55915  27.419  43.541  11.223
83590W        W55916   5.205   8.918   2.085
83591W        W55917  34.366  32.662   0.926
83592W        W55918  30.420  13.326   2.014
83593W        W55919  27.233  33.014  10.393
83594W        W55920  12.176  22.267   4.753
83595W        W55921  28.317   1.895   4.221
83596W        W55922  10.669  27.893  12.984
83597W        W55923  40.942  42.982  13.018
83598W        W55924  39.456   3.433  11.112
83599W        W55925  34.098   0.984   1.744
83600W        W55926  10.801  35.328  12.935
83601W        W55927  21.152  27.696  14.844
83602W        W55928  16.643  28.193  13.011
83603W        W55929  28.724  44.651  14.125
83604W        W55930  25.102  38.180  12.615
83605W        W55931  16.160   1.663  14.039
83606W        W55932  31.577  27.998  13.782
83607W        W55933  32.846  30.823  14.538
83608W        W55934  13.603  15.108  12.940
83609W        W55935  22.202  28.611   3.029
83610W        W55936  40.575   8.892   4.522
83611W        W55937   9.123  43.087  13.885
83612W        W55938  19.600  23.031   0.066
83613W        W55939  13.209  32.559   0.062
83614W        W55940  42.286   3.644   3.332
83615W        W55941  23.277  29.109   4.584
83616W        W55942  18.256   7.519   0.569
83617W        W55943  44.955   0.376  10.609
83618W        W55944  14.217  42.863   2.610
83619W        W55945  30.219  24.078  14.393
83620W        W55946  30.457  40.019  14.720
83621W        W55947  38.858  19.468  11.231
83622W        W55948  28.398  18.414   0.680
83623W        W55949  25.818  31.923   0.496
83624W        W55950  26.357   8.538   3.469
83625W        W55951  29.595  35.071   1.021
83626W        W55952  36.409  24.759  10.967
83627W        W55953  23.236   9.391  14.319
83628W        W55954  33.714  24.270   1.149
83629W        W55955  15.679   2.925   0.479
83630W        W55956  35.124  13.654  12.934
83631W        W55957  36.600  16.286  10.506
83632W        W55958  16.784  28.335  11.746
83633W        W55959   0.063   5.854   2.767
83634W        W55960  34.903  26.973  14.268
83635W        W55961   4.983  28.021   1.639
83636W        W55962  17.861   9.337   0.867
83637W        W55963  37.394  20.969   0.258
83638W        W55964   0.411  31.586  12.481
83639W        W55965  43.291  18.063   0.895
83640W        W55966  41.245   0.886   3.995
83641W        W55967   3.938  24.544   1.000
83642W        W55968  37.006  29.037  10.650
83643W        W55969  28.496  31.662   0.569
83644W        W55970  34.558  24.483  10.553
83645W        W55971   7.672   9.735  13.569
83646W        W55972  18.119  39.819  13.969
83647W        W55973  25.135  30.380  14.824
83648W        W55974  24.267  38.795   3.331
83649W        W55975   7.779  18.497  14.820
83650W        W55976  36.026   8.414   4.525
83651W        W55977  34.873  24.470  11.099
83652W        W55978  35.954  42.411   1.358
83653W        W55979  40.032  16.332   0.189
83654W        W55980   6.601  40.764   2.648
83655W        W55981  17.228  13.178  10.436
83656W        W55982   9.717  37.532  12.189
83657W        W55983  28.465  30.825   1.232
83658W        W55984   3.728  28.632   0.398
83659W        W55985  11.470  32.470   1.672
83660W        W55986   5.958  40.350  14.886
83661W        W55987  17.643  22.570   1.220
83662W        W55988  34.019   5.873  14.874
83663W        W55989  14.244  16.357  13.452
83664W        W55990  38.874  22.036   1.479
83665W        W55991  37.841  18.182  14.397
83666W        W55992  10.098  42.820  14.063
83667W        W55993  28.859  12.938  13.866
83668W        W55994  43.734  38.819   4.134
83669W        W55995   0.437  35.363   1.840
83670W        W55996  10.886  38.974   0.288
83671W        W55997  39.862   6.864   1.714
83672W        W55998  43.916  11.742  12.553
83673W        W55999  35.023   2.914  14.712
83674W        W56000   7.717  30.004   1.404
83675W        W56001  42.713  34.989  13.324
83676W        W56002  39.443  14.728  11.704
83677W        W56003  14.688   6.935   3.758
83678W        W56004  19.782  23.622   4.583
83679W        W56005  18.802   7.327   4.390
83680W        W56006  33.172   8.903  11.939
83681W        W56007  17.761  20.438  10.559
83682W        W56008  40.358  26.439   2.366
83683W        W56009   8.778  42.588  10.608
83684W        W56010  29.383   9.348   3.811
83685W        W56011  38.362  31.105   2.384
83686W        W56012  27.107  31.579  12.670
83687W        W56013  15.654   8.901   1.194
83688W        W56014   5.741   9.633  12.599
83689W        W56015   6.360  21.661   2.567
83690W        W56016  10.824   9.096  11.198
83691W        W56017   1.390  43.796   4.798
83692W        W56018  35.329  27.477  13.134
83693W        W56019  24.476  12.076   0.734
83694W        W56020  33.224  10.064   4.164
83695W        W56021  40.305   8.977   9.768
83696W        W56022   2.775  12.917  12.458
83697W        W56023  19.263   4.457   4.243
83698W        W56024  38.230  22.941   4.554
83699W        W56025  28.659  24.460   0.834
83700W        W56026  44.541   8.154  14.569
83701W        W56027  38.286  22.664  10.709
83702W        W56028  30.154   0.506  14.358
83703W        W56029  17.466  12.935  13.123
83704W        W56030  43.231  22.747  14.370
83705W        W56031  37.143   7.949  14.467
83706W        W56032   5.687   3.101   0.903
83707W        W56033  10.340  31.959  13.572
83708W        W56034  36.914   2.797  12.715
83709W        W56035   6.674  19.529  11.897
83710W        W56036  16.795  29.245   0.540
83711W        W56037  10.104  20.214  12.745
83712W        W56038  19.855  25.961  13.582
83713W        W56039   4.856  43.589   4.146
83714W        W56040  41.095  12.673  11.161
83715W        W56041  26.455  22.620   3.065
83716W        W56042  13.355  17.450  11.246
83717W        W56043  24.063   1.931  13.344
83718W        W56044  44.938  37.840  14.250
83719W        W56045  11.669  13.641  12.023
83720W        W56046  17.253   3.127  11.247
83721W        W56047  11.127  11.344   1.818
83722W        W56048  17.651  16.409  14.873
83723W        W56049  39.561  22.236  12.436
83724W        W56050   7.228  44.773  13.564
83725W        W56051   3.848  20.968   4.239
83726W        W56052   1.258  30.177   1.011
83727W        W56053  39.079  30.196   4.257
83728W        W56054  16.512  21.823   3.203
83729W        W56055  44.253  35.129  14.836
83730W        W56056  41.849  37.556  14.803
83731W        W56057  21.991  40.954  14.074
83732W        W56058  31.692  21.816   1.333
83733W        W56059  34.850  18.850   3.507
83734W        W56060  23.938  30.214   1.257
83735W        W56061  24.073  26.172  14.078
83736W        W56062  35.967  35.105   0.541
83737W        W56063  15.973  16.089  13.481
83738W        W56064  11.013  41.123  12.639
83739W        W56065   6.386   6.246  11.214
83740W        W56066   7.681  39.454   0.404
83741W        W56067  16.347  19.159  14.278
83742W        W56068  18.615  30.464   0.782
83743W        W56069  35.545   9.730   3.770
83744W        W56070  24.386  19.932  10.261
83745W        W56071   5.738   2.857  11.116
83746W        W56072   0.954   4.289   2.817
83747W        W56073   4.841  39.349  14.415
83748W        W56074   6.430  11.438  11.107
83749W        W56075  26.234   8.199  10.491
83750W        W56076  40.392  14.014   0.438
83751W        W56077  25.158  40.154   4.203
83752W        W56078   3.415  21.877   3.348
83753W        W56079   1.690  38.302   2.819
83754W        W56080  10.117  42.798   2.785
83755W        W56081  31.993  19.825  13.622
83756W        W56082  41.482  18.865  12.107
83757W        W56083  27.716  10.353  11.337
83758W        W56084  28.402  30.075  10.482
83759W        W56085  20.333  42.023   2.879
83760W        W56086  32.354  40.621  11.937
83761W        W56087  37.652  10.750  12.958
83762W        W56088   8.016   4.643   5.393
83763W        W56089  41.435  34.433   1.701
83764W        W56090  42.974  13.716  10.547
83765W        W56091  17.631  25.224   2.319
83766W        W56092   0.765  36.436   3.501
83767W        W56093   3.263  30.229   2.243
83768W        W56094  21.363   5.922  10.174
83769W        W56095  23.963  12.305   2.764
83770W        W56096  43.820  26.945  13.014
83771W        W56097  38.776  32.997   2.134
83772W        W56098  22.210  12.754  11.673
83773W        W56099  15.066  25.495  12.803
83774W        W56100  25.046  21.562   4.524
83775W        W56101  26.498   8.240   2.254
83776W        W56102   1.755  36.673   4.767
83777W        W56103  38.632  31.553   2.315
83778W        W56104   3.947   8.400  13.471
83779W        W56105  43.277   5.841   3.143
83780W        W56106  43.282  24.732   3.999
83781W        W56107  22.145  23.416   3.798
83782W        W56108   5.990   0.708  12.634
83783W        W56109   8.972  23.777   4.399
83784W        W56110   7.865  39.455   1.446
83785W        W56111  38.787  33.580   2.876
83786W        W56112  13.360  40.583   3.660
83787W        W56113  25.482  33.610   4.070
83788W        W56114  19.769  23.060   3.354
83789W        W56115  11.263  20.313   1.830
83790W        W56116  40.795  38.280  10.860
83791W        W56117  10.206  40.726   4.521
83792W        W56118   4.995  34.483   0.971
83793W        W56119  35.979  30.616  12.096
83794W        W56120  38.764  18.734  10.561
83795W        W56121  28.075  22.609  13.959
83796W        W56122   1.259  25.417  10.566
83797W        W56123   1.067  21.813  11.153
83798W        W56124  11.689  10.054  14.964
83799W        W56125  19.482  10.699   0.277
83800W        W56126  19.574  27.418  14.782
83801W        W56127   9.095  22.992   2.307
83802W        W56128   3.767  22.511   3.180
83803W        W56129   2.701  10.593  12.170
83804W        W56130  15.286   4.701  12.979
83805W        W56131  26.116   4.736  14.987
83806W        W56132  28.491  42.342   0.979
83807W        W56133  26.405   2.246  14.102
83808W        W56134  39.520   5.666   2.955
83809W        W56135  20.281  20.575  11.026
83810W        W56136   0.261  31.108  13.353
83811W        W56137  29.145  21.285   4.778
83812W        W56138  28.971  35.521  13.556
83813W        W56139   0.145  35.943  11.926
83814W        W56140   2.274  34.866  13.061
83815W        W56141  13.272  12.193   4.836
83816W        W56142  30.126  23.231  10.852
83817W        W56143  29.167  25.637   0.470
83818W        W56144   0.882   3.778   0.636
83819W        W56145  22.679  33.580   0.182
83820W        W56146  29.837  43.836   2.694
83821W        W56147  17.109   3.724  13.834
83822W        W56148  27.571  17.699  14.577
83823W        W56149  24.473  34.829  14.465
83824W        W56150  23.139  14.849  12.432
83825W        W56151  13.105  37.834  14.336
83826W        W56152  39.907  10.301   2.799
83827W        W56153  44.237  12.705   0.984
83828W        W56154   1.731   9.873  11.997
83829W        W56155  30.601  28.679  12.875
83830W        W56156   3.249  30.394  13.087
83831W        W56157   3.840  10.611  13.826
83832W        W56158  29.731  22.439  10.756
83833W        W56159   2.948   3.293  10.932
83834W        W56160   0.473  23.932  13.839
83835W        W56161  24.505  16.627   1.818
83836W        W56162  21.291  22.596   0.492
83837W        W56163  32.928  26.025  14.449
83838W        W56164   9.197   2.568  11.085
83839W        W56165  22.929  40.913   9.615
83840W        W56166  11.750   5.771  11.685
83841W        W56167  15.848   0.889   2.661
83842W        W56168  20.248   1.902  11.571
83843W        W56169  34.531  14.143  11.500
83844W        W56170  12.906  30.247   2.155
83845W        W56171   6.580  18.990  14.286
83846W        W56172  18.438  15.930  12.120
83847W        W56173   4.382   7.846   4.757
83848W        W56174  23.657   2.848   1.698
83849W        W56175  21.803  14.769   0.759
83850W        W56176  10.489  33.599  11.908
83851W        W56177  12.173  10.123  11.632
83852W        W56178  42.238  42.732  12.471
83853W        W56179  12.236   3.816  11.187
83854W        W56180  15.046  40.252  10.585
83855W        W56181  36.803   6.719   0.895
83856W        W56182  38.424  41.339  14.015
83857W        W56183   7.395  23.049  14.894
83858W        W56184  18.049  19.225   3.719
83859W        W56185  36.889  36.999   1.778
83860W        W56186  10.167   3.249  10.706
83861W        W56187  32.142  41.259   1.743
83862W        W56188   0.385  23.658  14.305
83863W        W56189   5.451  22.202  13.494
83864W        W56190  18.602  15.611  10.764
83865W        W56191  17.180  33.592   3.241
83866W        W56192  14.592   6.752  11.579
83867W        W56193  38.177  12.091   4.494
83868W        W56194   9.888  17.753  11.057
83869W        W56195  20.037  27.985   0.376
83870W        W56196   3.264   4.142  14.884
83871W        W56197   6.779  28.822  14.326
83872W        W56198  19.154  13.429  11.079
83873W        W56199  39.016  36.991   2.680
83874W        W56200  11.330  10.637   4.711
83875W        W56201  21.190  43.269  11.549
83876W        W56202  43.450   7.279   0.996
83877W        W56203  20.889  32.177   2.453
83878W        W56204  15.810  42.317   1.933
83879W        W56205  32.471   3.113   4.554
83880W        W56206   9.591  26.695   1.778
83881W        W56207   7.114  39.006   0.877
83882W        W56208  20.707  23.995  12.920
83883W        W56209  12.466  36.352   2.166
83884W        W56210  16.881  13.151  12.570
83885W        W56211  15.499  29.066  11.937
83886W        W56212  15.191  24.672   4.593
83887W        W56213  21.744   0.770  13.402
83888W        W56214  14.067   7.719  13.007
83889W        W56215  29.691   1.588   3.413
83890W        W56216  44.487  38.914   4.598
83891W        W56217  42.310  11.710  11.620
83892W        W56218  41.071  33.355   4.716
83893W        W56219  15.256  35.249   0.765
83894W        W56220   3.522  15.368  10.711
83895W        W56221  20.107  33.871  10.547
83896W        W56222   4.349  15.556  14.576
83897W        W56223  31.437  37.913  11.413
83898W        W56224  27.480  44.260   3.419
83899W        W56225  13.160   2.771   2.387
83900W        W56226  17.847  44.346   3.202
83901W        W56227  12.939  31.037  13.231
83902W        W56228  14.078   3.910  12.520
83903W        W56229  41.295  11.870  11.664
83904W        W56230  27.393  11.891  12.667
83905W        W56231  33.981  23.968   1.466
83906W        W56232  38.490   8.218   4.898
83907W        W56233  36.193  28.196  11.446
83908W        W56234  38.459  17.604   1.544
83909W        W56235  32.517  41.594   4.090
83910W        W56236  39.485   4.999  13.427
83911W        W56237  24.643  44.172  12.100
83912W        W56238  16.170  12.736   5.209
83913W        W56239  41.558   5.501   0.677
83914W        W56240  21.751  31.643   2.168
83915W        W56241  42.473   8.142   0.621
83916W        W56242   0.403  24.205  12.858
83917W        W56243  28.423  43.652   2.326
83918W        W56244  16.695  36.008   1.877
83919W        W56245  42.541  14.876   3.237
83920W        W56246  12.290  28.686   3.280
83921W        W56247  29.143  44.550   0.031
83922W        W56248  38.524   1.913  12.403
83923W        W56249  19.110  16.175   1.799
83924W        W56250  26.643  29.070   1.203
83925W        W56251  23.215  27.062   0.361
83926W        W56252   1.654  31.457   1.441
83927W        W56253   1.818  21.271  11.557
83928W        W56254  18.549  11.203  12.291
83929W        W56255   6.661   4.477   0.391
83930W        W56256   0.884   7.810   4.434
83931W        W56257  43.157  19.767   3.309
83932W        W56258  17.667   2.029  11.549
83933W        W56259  44.178   5.998  14.450
83934W        W56260  20.514  16.092   2.157
83935W        W56261  36.287   1.721   2.199
83936W        W56262  40.013  30.030  10.916
83937W        W56263  39.257  17.764  12.605
83938W        W56264  35.851   5.278  14.188
83939W        W56265  24.241  10.337   0.339
83940W        W56266  15.215  40.556  13.805
83941W        W56267  21.669  22.588  14.633
83942W        W56268  17.151  25.980  14.387
83943W        W56269  33.537  39.984   2.930
83944W        W56270  36.947  37.721  10.640
83945W        W56271  19.077   6.167  13.962
83946W        W56272  16.803  35.839  13.545
83947W        W56273  25.893  18.820   0.407
83948W        W56274  35.035  23.142  10.657
83949W        W56275  30.037  21.515  10.554
83950W        W56276   1.367   1.256  14.362
83951W        W56277  42.324  26.490  10.481
83952W        W56278   2.135   5.401   5.520
83953W        W56279  40.234  14.678   1.390
83954W        W56280  16.083  18.650  13.957
83955W        W56281  13.725   3.933  11.532
83956W        W56282  44.700  15.098   4.395
83957W        W56283   6.437   6.397   1.983
83958W        W56284  16.196  12.718   3.704
83959W        W56285  25.051   0.178  13.015
83960W        W56286  32.129  15.249  13.342
83961W        W56287  20.675   2.326   0.578
83962W        W56288  14.479   7.668   3.222
83963W        W56289   8.622  24.303   0.858
83964W        W56290  11.236  41.581   0.387
83965W        W56291  31.079  17.818   2.362
83966W        W56292  24.141   8.428  10.552
83967W        W56293  36.886  30.753  12.584
83968W        W56294  25.636  10.334  11.341
83969W        W56295  42.656  20.142   2.683
83970W        W56296  29.869   4.682   2.311
83971W        W56297  13.238  16.166  10.389
83972W        W56298  15.679  34.067   4.532
83973W        W56299  12.000  14.904   1.220
83974W        W56300   0.368  21.614  14.405
83975W        W56301  30.288  31.498   0.699
83976W        W56302  22.450   9.213  12.098
83977W        W56303  44.372  10.798  10.623
83978W        W56304  42.974  24.173   4.528
83979W        W56305  37.094  34.993  12.017
83980W        W56306  32.958   2.617  11.428
83981W        W56307  38.518  42.110  12.504
83982W        W56308  29.206  16.956   3.738
83983W        W56309  13.418  34.506   2.804
83984W        W56310  19.602  24.951   1.781
83985W        W56311  11.196  12.777   3.822
83986W        W56312   3.702   0.990   3.686
83987W        W56313  22.089  13.519   1.199
83988W        W56314  41.024   6.324   0.366
83989W        W56315  16.750  15.394   1.440
83990W        W56316  37.031  27.565   0.189
83991W        W56317  34.015  15.091  11.454
83992W        W56318   7.428  16.574  11.536
83993W        W56319  14.647   9.438  10.700
83994W        W56320  33.688  23.593  13.584
83995W        W56321  38.372   6.999  11.963
83996W        W56322  13.722  27.458   1.857
83997W        W56323  26.420  34.691   2.406
83998W        W56324  40.571  14.755   3.190
83999W        W56325   7.603  35.025  14.098
84000W        W56326   0.936  41.247  14.147
84001W        W56327   9.184  33.924  14.894
84002W        W56328  13.704   4.588  10.972
84003W        W56329  26.449  35.010   1.460
84004W        W56330  32.371  20.737   2.755
84005W        W56331  40.373  11.922  14.389
84006W        W56332   2.240   3.465   2.666
84007W        W56333  17.311  23.024  11.578
84008W        W56334  10.824  30.640  10.839
84009W        W56335  25.491  13.420   1.288
84010W        W56336  23.707  16.476  12.945
84011W        W56337  44.305  21.691   1.923
84012W        W56338  21.176  12.315   2.828
84013W        W56339  36.722  29.031  13.810
84014W        W56340   5.191  15.369   2.745
84015W        W56341  11.111  43.266   2.055
84016W        W56342   2.872  27.460   3.647
84017W        W56343  13.087  38.435   0.670
84018W        W56344  28.550  24.250  11.164
84019W        W56345  43.235  28.744   0.202
84020W        W56346  18.793  32.022   4.571
84021W        W56347  12.059  33.722  14.742
84022W        W56348  31.605  33.436   3.097
84023W        W56349  25.636   3.832  13.939
84024W        W56350   0.255   8.503   4.228
84025W        W56351   6.200  25.346   2.494
84026W        W56352   7.619  16.996   0.786
84027W        W56353  32.096   1.597  13.387
84028W        W56354  17.161  39.840   1.219
84029W        W56355  20.921  14.374  11.080
84030W        W56356  11.273   3.174   3.685
84031W        W56357  14.579  16.087   2.799
84032W        W56358  13.803  42.833   3.429
84033W        W56359  39.376  12.876  11.440
84034W        W56360  27.947  31.627  14.354
84035W        W56361  34.156   8.118  11.208
84036W        W56362   0.485   0.234   1.725
84037W        W56363   8.704  15.732  10.883
84038W        W56364  41.315   7.385   0.413
84039W        W56365  24.224  44.421   2.936
84040W        W56366   4.353  21.910   0.163
84041W        W56367  24.901   5.084  11.530
84042W        W56368  22.073  40.162  14.447
84043W        W56369   1.920  24.124   5.164
84044W        W56370  37.295  29.986  11.619
84045W        W56371  28.609  40.191  14.716
84046W        W56372   3.738  25.988   3.774
84047W        W56373  20.717   7.170  12.535
84048W        W56374  20.250  20.396  13.666
84049W        W56375  42.564  33.020   2.723
84050W        W56376   5.250  44.788  10.403
84051W        W56377  24.505  14.861   2.269
84052W        W56378  19.704  40.261  12.058
84053W        W56379  31.122   2.528  13.986
84054W        W56380  18.557  25.464  10.544
84055W        W56381  18.419  39.065  10.875
84056W        W56382  17.538  39.073   2.731
84057W        W56383   6.175  11.192  14.012
84058W        W56384   4.249  10.875  14.121
84059W        W56385  34.133  37.075   0.498
84060W        W56386  36.890  26.277  12.538
84061W        W56387   7.874  17.320   0.470
84062W        W56388   7.190   0.322   1.870
84063W        W56389  24.668  38.678   1.760
84064W        W56390  24.687   2.750  14.291
84065W        W56391  39.565  25.176  13.696
84066W        W56392  31.995  44.497   4.377
84067W        W56393   0.771  25.999   0.989
84068W        W56394   6.989  12.791  10.588
84069W        W56395   6.745  35.490   2.082
84070W        W56396  39.024  15.609   1.159
84071W        W56397   3.417  31.205   4.520
84072W        W56398  34.428   8.701   1.890
84073W        W56399   2.470  16.720  12.412
84074W        W56400   8.376   2.032   3.156
84075W        W56401  18.508  35.892  10.329
84076W        W56402   0.158  31.861   5.040
84077W        W56403  17.594  12.755   1.400
84078W        W56404  33.368  42.255   2.801
84079W        W56405   3.324  43.382  12.997
84080W        W56406  38.541  40.933   0.853
84081W        W56407  42.797   4.325   4.134
84082W        W56408  42.858  27.984  10.310
84083W        W56409  40.499  14.014   2.064
84084W        W56410  11.662  13.125  12.140
84085W        W56411  22.468  35.329  11.975
84086W        W56412   1.971  10.066  14.833
84087W        W56413  35.060  14.857  11.521
84088W        W56414  30.502  39.844  12.022
84089W        W56415   6.531   5.547   2.842
84090W        W56416  17.649  18.578   0.173
84091W        W56417   9.799  39.475  12.998
84092W        W56418  28.847  35.563   1.249
84093W        W56419  14.090  14.029  14.149
84094W        W56420  41.787  17.795   2.234
84095W        W56421   2.797  33.516   4.618
84096W        W56422  19.038  34.078  14.844
84097W        W56423   1.515  37.693  11.220
84098W        W56424  28.571   6.340   0.690
84099W        W56425  29.755  44.579   1.795
84100W        W56426  20.207  15.335   2.788
84101W        W56427  40.061  29.613  12.632
84102W        W56428  18.616  44.291  14.342
84103W        W56429   1.776  30.116  11.917
84104W        W56430  26.190  21.976  13.491
84105W        W56431  27.623  13.165   2.332
84106W        W56432  17.355   7.897   3.787
84107W        W56433  17.537   5.696  10.716
84108W        W56434  28.369  41.856  12.510
84109W        W56435  38.059   6.733  11.620
84110W        W56436  19.852  31.502   1.906
84111W        W56437  11.236  26.849   5.020
84112W        W56438   9.424  33.523   0.816
84113W        W56439  41.351  10.278  13.933
84114W        W56440  15.550  40.249  10.657
84115W        W56441  14.694  29.934  14.284
84116W        W56442   2.962   9.695   1.331
84117W        W56443  31.101  20.117  11.195
84118W        W56444  20.024   9.039  12.438
84119W        W56445  23.175   4.163  12.424
84120W        W56446  20.602  20.077   3.698
84121W        W56447  29.288  30.981   0.015
84122W        W56448  35.687  24.543  14.390
84123W        W56449  10.910  13.122  13.588
84124W        W56450  30.189  25.490   1.475
84125W        W56451  31.648  28.070  11.157
84126W        W56452  17.575   3.207   4.468
84127W        W56453  42.959  30.693   3.747
84128W        W56454  29.704  42.858  14.334
84129W        W56455  28.703  38.369  12.043
84130W        W56456  40.119  27.863   0.849
84131W        W56457   7.263  37.363   4.135
84132W        W56458  42.736  15.083  11.932
84133W        W56459   8.720  14.086  10.089
84134W        W56460  29.618  13.542  11.198
84135W        W56461  35.722  33.992   1.828
84136W        W56462  25.072  29.945  12.202
84137W        W56463  27.764   9.761   2.328
84138W        W56464  39.840  16.521  11.102
84139W        W56465  10.338  28.384  14.781
84140W        W56466  37.554  38.583   0.153
84141W        W56467   1.284  17.333   2.280
84142W        W56468  40.299  34.917  14.841
84143W        W56469  31.631  29.557  13.846
84144W        W56470  14.102   4.054  13.937
84145W        W56471  22.400  35.787   2.787
84146W        W56472   5.482   8.180  13.525
84147W        W56473  36.319  12.350   4.278
84148W        W56474  25.345  24.824  11.132
84149W        W56475   5.222  18.391   0.014
84150W        W56476   2.023   6.269  12.004
84151W        W56477  10.917   1.397  13.357
84152W        W56478  30.965  10.701   1.407
84153W        W56479  36.540  17.343   5.069
84154W        W56480   3.232  14.931  10.811
84155W        W56481   3.437  14.893  12.589
84156W        W56482  10.694   7.849  10.682
84157W        W56483  42.391  43.555  12.874
84158W        W56484  40.388  39.793  11.693
84159W        W56485   6.179  26.619   3.416
84160W        W56486  24.352  13.372  12.868
84161W        W56487  39.304  34.474  14.304
84162W        W56488  20.642   4.272   2.183
84163W        W56489  39.574  27.460   2.407
84164W        W56490  33.139   2.128  11.412
84165W        W56491  13.914  44.991   4.581
84166W        W56492  29.753   7.567  12.593
84167W        W56493  44.957  40.287   0.768
84168W        W56494  36.533  30.151  11.155
84169W        W56495  31.184  32.016   2.761
84170W        W56496  19.332  21.431  14.514
84171W        W56497  24.144  22.491  11.269
84172W        W56498   9.853  20.629  11.583
84173W        W56499   4.715  37.003   1.476
84174W        W56500  18.128  28.695   1.649
84175W        W56501  25.728  33.549  11.448
84176W        W56502  12.626  19.025  13.548
84177W        W56503  29.980   7.359   4.599
84178W        W56504  37.100   4.982   1.873
84179W        W56505   9.186  37.238   2.987
84180W        W56506  13.784   5.029  13.974
84181W        W56507   7.825  16.203  14.537
84182W        W56508  22.425   4.905   4.485
84183W        W56509  36.338   8.198   0.846
84184W        W56510  16.269  22.264   0.003
84185W        W56511  20.851  29.373   0.424
84186W        W56512   9.248  14.783  13.907
84187W        W56513  27.031   8.315  14.273
84188W        W56514  35.977  36.262  13.458
84189W        W56515  12.729   7.577  13.494
84190W        W56516  22.651  17.739   1.036
84191W        W56517  21.223  22.172  11.280
84192W        W56518  28.582  14.390   1.716
84193W        W56519  30.633  25.113   3.361
84194W        W56520  39.613  24.845  11.945
84195W        W56521  44.056  34.990   2.747
84196W        W56522  43.974  32.500   3.282
84197W        W56523   5.725  24.902  14.991
84198W        W56524  33.086  27.442  13.141
84199W        W56525   3.487  35.485  12.785
84200W        W56526  20.425  37.781  14.920
84201W        W56527  17.341   1.902   1.836
84202W        W56528  29.030  38.634  12.848
84203W        W56529  11.446  28.783  12.280
84204W        W56530  33.210   9.783  14.056
84205W        W56531   6.548   3.934  12.388
84206W        W56532  34.673  43.255   2.409
84207W        W56533  16.210  43.522  12.088
84208W        W56534  20.199  20.103  11.747
84209W        W56535  16.193   7.099   4.587
84210W        W56536  37.471  10.872   4.717
84211W        W56537  29.307  19.834  14.365
84212W        W56538  11.252   9.106  11.488
84213W        W56539  42.783  25.582   2.688
84214W        W56540  17.213   1.289  14.786
84215W        W56541  19.102  13.675   0.213
84216W        W56542   2.574   5.651   0.552
84217W        W56543  23.698  41.030   3.508
84218W        W56544  42.865   2.872   1.268
84219W        W56545  39.119  12.896  11.870
84220W        W56546  17.585  43.803  11.476
84221W        W56547  41.973  36.914   4.086
84222W        W56548  10.618  26.545  11.077
84223W        W56549  13.649   5.809  11.873
84224W        W56550  33.100   7.705   0.374
84225W        W56551  37.219   1.123   1.894
84226W        W56552  41.389  16.860   0.974
84227W        W56553  38.488   1.014  13.650
84228W        W56554  13.088   8.626   1.936
84229W        W56555  24.867  38.866   5.588
84230W        W56556   0.334  28.087  11.521
84231W        W56557  37.813  19.676  12.495
84232W        W56558   1.040  23.580  12.130
84233W        W56559  30.036   4.331  11.643
84234W        W56560   2.979  38.039   4.017
84235W        W56561  12.340  36.522   9.844
84236W        W56562  26.451   4.867  11.440
84237W        W56563   1.865  28.308  12.549
84238W        W56564  30.047  18.768   0.809
84239W        W56565  28.275  40.908  11.019
84240W        W56566  20.237  38.647  11.178
84241W        W56567  26.730  38.017   3.920
84242W        W56568  43.107  36.237   5.099
84243W        W56569   1.750  36.041  14.425
84244W        W56570  29.908  19.480  11.485
84245W        W56571  27.897  44.331  14.500
84246W        W56572   2.071   8.112   2.671
84247W        W56573  11.469  10.733   0.288
84248W        W56574   1.727   6.725   4.464
84249W        W56575  32.033  19.007  12.884
84250W        W56576  13.983  42.918   4.482
84251W        W56577  39.073  44.468  13.876
84252W        W56578  28.260   1.833  14.701
84253W        W56579  18.468   6.516  11.550
84254W        W56580  29.430  11.775  10.133
84255W        W56581  27.508  18.263   4.694
84256W        W56582  43.850  13.740   4.183
84257W        W56583  29.656  38.981   0.934
84258W        W56584   7.280   1.990  14.820
84259W        W56585   4.831   4.263  13.964
84260W        W56586  14.770  11.349   3.128
84261W        W56587  39.761  44.974   3.423
84262W        W56588  31.883  13.425   1.144
84263W        W56589  16.631  37.965   3.225
84264W        W56590  43.266  19.708   2.336
84265W        W56591  15.225  42.035   1.147
84266W        W56592  28.518   5.770   4.335
84267W        W56593  35.407  32.013   0.351
84268W        W56594  38.304  22.805   2.755
84269W        W56595  20.486   9.710   4.310
84270W        W56596  43.059   2.987  13.498
84271W        W56597  27.625   3.355   1.973
84272W        W56598  18.599  33.482  11.174
84273W        W56599  32.125  30.374  14.030
84274W        W56600   5.814  13.083   1.053
84275W        W56601  16.721  23.682   3.610
84276W        W56602  41.211  33.496   2.425
84277W        W56603  31.493  21.325   1.328
84278W        W56604  31.067  17.003   1.935
84279W        W56605  13.621  43.453  12.938
84280W        W56606   3.681  18.177   4.618
84281W        W56607  10.379  16.397   2.832
84282W        W56608  16.603  33.623  14.288
84283W        W56609   2.879  34.636   2.399
84284W        W56610  31.478  26.531  11.946
84285W        W56611   5.722  24.159   3.219
84286W        W56612  24.051   8.134  12.985
84287W        W56613  41.234  16.533  13.201
84288W        W56614   5.757   8.133   4.657
84289W        W56615  20.132  32.819   4.630
84290W        W56616  41.820   2.068  10.136
84291W        W56617   2.964  14.938   3.423
84292W        W56618   1.874   2.336   4.123
84293W        W56619  19.015  30.861   1.650
84294W        W56620  38.306  30.523   1.308
84295W        W56621  39.357   4.947   2.073
84296W        W56622   5.929  31.252  14.964
84297W        W56623  19.780  34.942  13.436
84298W        W56624  37.464   4.267   2.385
84299W        W56625  11.274  11.813  10.638
84300W        W56626   0.568  25.326   4.226
84301W        W56627  18.253  39.608  13.521
84302W        W56628  36.059  40.043   3.971
84303W        W56629  23.283  22.518  13.075
84304W        W56630   1.806  39.728  13.004
84305W        W56631  19.141  39.274  13.055
84306W        W56632  23.198  36.000   0.649
84307W        W56633   3.367  35.003   2.821
84308W        W56634   7.189  40.788  13.571
84309W        W56635  11.716   0.491  12.888
84310W        W56636  22.110   0.189   4.217
84311W        W56637  37.502  35.002  12.938
84312W        W56638  21.276  32.474   2.295
84313W        W56639  43.470  20.270   0.930
84314W        W56640  12.399  23.316  12.482
84315W        W56641   9.955  22.724   0.026
84316W        W56642   8.149  44.276  11.669
84317W        W56643  10.454  39.618  12.184
84318W        W56644  42.003  18.305  14.790
84319W        W56645  24.630  26.174   1.724
84320W        W56646  25.452  42.747   0.956
84321W        W56647  41.470  35.392  13.309
84322W        W56648  37.433  25.621  13.872
84323W        W56649  12.786   1.025  12.322
84324W        W56650  22.581  32.574  11.346
84325W        W56651  31.001  10.205   4.355
84326W        W56652   4.715   6.696   1.696
84327W        W56653   1.010  33.476  13.594
84328W        W56654  37.949  21.948  12.017
84329W        W56655   4.934  27.895  14.839
84330W        W56656  25.633   4.502  13.201
84331W        W56657   4.534  28.734  11.732
84332W        W56658  19.342  35.380   2.272
84333W        W56659  34.933  29.149  13.671
84334W        W56660  19.941  42.034   1.945
84335W        W56661  31.968  12.120   2.267
84336W        W56662   6.737  39.534  14.465
84337W        W56663  31.398   3.753  10.734
84338W        W56664  24.112  44.420   0.910
84339W        W56665   6.364  31.200   3.231
84340W        W56666   8.246  43.489   1.241
84341W        W56667  31.720   1.767  12.455
84342W        W56668   5.327  24.552   0.423
84343W        W56669  42.283  13.366  11.068
84344W        W56670  42.858   1.195   1.033
84345W        W56671  41.376  11.588   1.294
84346W        W56672  30.103  18.089   3.192
84347W        W56673  11.130  42.735   1.868
84348W        W56674  34.171   3.531   3.737
84349W        W56675  13.070  24.713  10.481
84350W        W56676   0.828  19.355  12.562
84351W        W56677   8.999  27.377   3.921
84352W        W56678  14.850  24.248  10.547
84353W        W56679  23.596  41.861   4.625
84354W        W56680   0.956  10.406  14.780
84355W        W56681  13.636  34.501   3.688
84356W        W56682  34.643  42.506   0.714
84357W        W56683  24.686  11.816   3.954
84358W        W56684  20.969  29.309   4.347
84359W        W56685  31.484  33.063   1.323
84360W        W56686  17.541   1.030  11.584
84361W        W56687  18.181  42.013  13.964
84362W        W56688  14.730  35.080  13.881
84363W        W56689  25.893  28.523  14.448
84364W        W56690  21.611  36.471  13.276
84365W        W56691   6.242  30.510  10.992
84366W        W56692  22.126  22.938   3.557
84367W        W56693   6.848   7.927   3.115
84368W        W56694  41.908  13.199   3.258
84369W        W56695  39.954   6.404  10.510
84370W        W56696  33.576  36.080  11.132
84371W        W56697  32.670   1.361   1.902
84372W        W56698  21.805   0.737  10.718
84373W        W56699  39.876  41.430  13.795
84374W        W56700  37.586   5.695   0.305
84375W        W56701  29.575   4.798   3.231
84376W        W56702  31.879  22.776  11.132
84377W        W56703  36.129   9.186   3.160
84378W        W56704  16.131  29.272  11.085
84379W        W56705  30.630   3.512  11.454
84380W        W56706  22.274   3.585  13.919
84381W        W56707   1.893  10.903   4.305
84382W        W56708  20.693  38.412   2.244
84383W        W56709  24.653  17.067  13.104
84384W        W56710  41.422  17.502   2.781
84385W        W56711  27.669  41.030  13.846
84386W        W56712  29.481  33.094  14.924
84387W        W56713  21.588  17.788   1.769
84388W        W56714  25.736  23.164   3.949
84389W        W56715  25.175  30.837   4.555
84390W        W56716   7.819  40.302  12.504
84391W        W56717  32.694  30.875  14.042
84392W        W56718  38.557  35.113  11.518
84393W        W56719  38.134  13.207   2.676
84394W        W56720  41.830   7.198   0.284
84395W        W56721  44.146  12.219   2.188
84396W        W56722  34.061  11.737  13.147
84397W        W56723  19.131  22.124   0.295
84398W        W56724   1.371   4.870  12.873
84399W        W56725  31.100  35.903  12.564
84400W        W56726  18.700  40.826   5.200
84401W        W56727  21.234  31.869   0.450
84402W        W56728  43.079  14.170  14.910
84403W        W56729  36.457  22.456   5.306
84404W        W56730  26.036  37.522  10.652
84405W        W56731   2.982  16.766  12.520
84406W        W56732   0.382  39.644   2.436
84407W        W56733  43.393  34.629  13.441
84408W        W56734  26.216  14.796   1.684
84409W        W56735  34.994  29.909   2.789
84410W        W56736  25.581  14.297  11.407
84411W        W56737  29.473  44.812   3.841
84412W        W56738  25.660  37.261   1.790
84413W        W56739  18.664  37.460  14.803
84414W        W56740  18.553  36.895  13.583
84415W        W56741   8.434  18.355  10.689
84416W        W56742  23.716  41.769   2.242
84417W        W56743  26.980  32.193   1.316
84418W        W56744   4.339   7.494  12.873
84419W        W56745  36.889  35.310  10.296
84420W        W56746  33.461  10.125   3.333
84421W        W56747  27.622   5.786   4.652
84422W        W56748  19.009  40.583   2.350
84423W        W56749  11.372  17.783   0.389
84424W        W56750   3.709  14.690   2.890
84425W        W56751  13.788  31.827  10.422
84426W        W56752   9.980   4.275   0.664
84427W        W56753  34.667  35.344   4.415
84428W        W56754  22.744  42.889  12.418
84429W        W56755  35.891  27.008   3.196
84430W        W56756  14.635   7.716   1.385
84431W        W56757  10.081  26.377  14.981
84432W        W56758  37.555  27.612   3.126
84433W        W56759  11.621   3.236  12.865
84434W        W56760   0.956  34.702  14.494
84435W        W56761  44.360  12.087  13.267
84436W        W56762  17.609  19.396  10.720
84437W        W56763   7.264  26.917  10.999
84438W        W56764  43.901  33.942  13.137
84439W        W56765  41.080  41.550   2.264
84440W        W56766  21.170   8.676   3.420
84441W        W56767  33.015  19.779   2.195
84442W        W56768  20.389  12.864   0.280
84443W        W56769   0.428  22.180   0.164
84444W        W56770  36.641  19.788  11.397
84445W        W56771  33.540  14.619  14.750
84446W        W56772  20.290  30.002   0.326
84447W        W56773  32.390   9.871  14.390
84448W        W56774   3.457  19.436  10.618
84449W        W56775  31.455  29.979  13.554
84450W        W56776   1.785  37.019   4.361
84451W        W56777  12.360  22.669   1.028
84452W        W56778  20.969   1.770  14.753
84453W        W56779  21.062  24.936  14.040
84454W        W56780   8.226  21.480   2.139
84455W        W56781  31.071   8.797   4.713
84456W        W56782  42.390  37.600  14.514
84457W        W56783   1.044  20.700  11.601
84458W        W56784  18.462  30.012   4.326
84459W        W56785  44.282   4.627   1.795
84460W        W56786  36.947  29.715  14.872
84461W        W56787  29.922  24.524  10.495
84462W        W56788  12.905   6.158   0.798
84463W        W56789   6.738   6.958   1.216
84464W        W56790  14.643  18.152  11.911
84465W        W56791  11.185  21.923   1.685
84466W        W56792  13.451   1.249   2.805
84467W        W56793   4.668  21.324  12.274
84468W        W56794  28.551  33.970   4.596
84469W        W56795  10.105   5.179  10.941
84470W        W56796  36.119  33.467   3.882
84471W        W56797  20.542  21.057   3.661
84472W        W56798  44.462  25.550   0.776
84473W        W56799  33.494  18.555  12.925
84474W        W56800  18.259  38.679   2.587
84475W        W56801   0.549  10.250  10.660
84476W        W56802  34.692  13.229   1.263
84477W        W56803  25.051  12.841   1.948
84478W        W56804  27.711   8.763  11.939
84479W        W56805   8.709   0.252   3.793
84480W        W56806  22.758   7.705  13.350
84481W        W56807  20.267   2.454  10.708
84482W        W56808  36.007  16.609  13.099
84483W        W56809   7.777  41.704   0.018
84484W        W56810  14.418   3.519   0.259
84485W        W56811  34.151   0.644  13.982
84486W        W56812   1.515   5.435   1.131
84487W        W56813  39.905  39.807  11.523
84488W        W56814  12.912   9.379   2.939
84489W        W56815  21.858  42.234   4.655
84490W        W56816  29.442  39.830   1.744
84491W        W56817  36.446  20.084  12.530
84492W        W56818  19.270  37.929   2.398
84493W        W56819  20.107  44.886  12.103
84494W        W56820  35.292  21.278  13.101
84495W        W56821  28.091  28.214  11.571
84496W        W56822  35.875  14.837  12.661
84497W        W56823  42.393   2.682  12.232
84498W        W56824  29.885  15.726   1.430
84499W        W56825   6.349  15.367  11.176
84500W        W56826  11.982  27.378   3.361
84501W        W56827   5.576  32.171  10.280
84502W        W56828   7.191  17.734   1.851
84503W        W56829  29.820  41.074   1.722
84504W        W56830  17.166  41.049  11.958
84505W        W56831  10.804   5.049  13.437
84506W        W56832  18.183   3.939   0.783
84507W        W56833   2.530  17.736   2.241
84508W        W56834  36.929  13.655   2.849
84509W        W56835  38.161  39.852  11.204
84510W        W56836   2.729  15.492   5.087
84511W        W56837  15.563  36.031  10.692
84512W        W56838   3.140   8.005   5.044
84513W        W56839  42.457  29.072   1.371
84514W        W56840  17.554  44.321   4.484
84515W        W56841   7.111   1.729  10.785
84516W        W56842  20.436  40.989   4.174
84517W        W56843  16.671   4.018  12.079
84518W        W56844  44.036  17.822   4.238
84519W        W56845  18.619  38.517   2.905
84520W        W56846  17.640  15.747   4.996
84521W        W56847  25.995  33.782  11.094
84522W        W56848  10.113  13.332  12.981
84523W        W56849  17.669  15.882  12.933
84524W        W56850  33.392   5.270   1.297
84525W        W56851  14.052   5.434  13.811
84526W        W56852  18.746  16.676   2.346
84527W        W56853  37.407   5.346  12.496
84528W        W56854  18.338   7.798   1.545
84529W        W56855  41.824  25.973   4.475
84530W        W56856  20.225  20.068   2.879
84531W        W56857  39.721   2.485   3.637
84532W        W56858  22.221   2.452  10.980
84533W        W56859  42.694  31.613  14.066
84534W        W56860  21.735  11.988   4.459
84535W        W56861  34.351  10.422   2.218
84536W        W56862  39.782  24.576   2.305
84537W        W56863  41.762   9.801   0.385
84538W        W56864  29.520  33.920  13.089
84539W        W56865  18.697  29.029  13.506
84540W        W56866  27.548   8.218  11.174
84541W        W56867  37.022  22.412  11.027
84542W        W56868   8.728  40.718   0.861
84543W        W56869  39.315  16.146   3.707
84544W        W56870  37.633  18.558   2.755
84545W        W56871   6.358   7.273   3.341
84546W        W56872   3.424   1.792   0.976
84547W        W56873   5.632   4.242  10.932
84548W        W56874  23.128  10.808   1.798
84549W        W56875  29.951  28.972   2.686
84550W        W56876   8.345  29.511   1.791
84551W        W56877  39.770  32.924  12.426
84552W        W56878  32.548  23.094  12.825
84553W        W56879  12.316  43.409  14.539
84554W        W56880  10.152  21.314   0.498
84555W        W56881   4.204  10.456  14.432
84556W        W56882  20.475  26.191  11.045
84557W        W56883   7.496  41.967  10.535
84558W        W56884   6.752  28.351  12.513
84559W        W56885  35.000  37.116  12.980
84560W        W56886  35.128  16.826   2.697
84561W        W56887  37.820  20.702   0.293
84562W        W56888  26.191  20.699  12.457
84563W        W56889   1.885  40.117  13.330
84564W        W56890  19.674  13.457   4.706
84565W        W56891  44.479  40.926  12.108
84566W        W56892  41.026  26.604   0.993
84567W        W56893   3.330   7.296   1.157
84568W        W56894  19.590  27.366   3.710
84569W        W56895  15.193  32.470  14.505
84570W        W56896  12.018  41.845  12.508
84571W        W56897  40.811   3.791  10.648
84572W        W56898   9.927  34.327   2.737
84573W        W56899  44.951  35.144   3.184
84574W        W56900  42.762   8.307  14.773
84575W        W56901   7.840   6.397   4.585
84576W        W56902  37.074  12.702   1.667
84577W        W56903  38.947  25.557   3.067
84578W        W56904   5.463  10.424  12.044
84579W        W56905  10.881   4.505  11.468
84580W        W56906  22.218  36.081   4.495
84581W        W56907  39.125  21.274   1.921
84582W        W56908  23.229  20.794  11.620
84583W        W56909  10.879  23.987   0.419
84584W        W56910  28.137  44.398   2.778
84585W        W56911  18.696  23.460   1.876
84586W        W56912  34.607  11.818  14.439
84587W        W56913  31.471   3.169  13.432
84588W        W56914  37.551   1.309  10.688
84589W        W56915  10.853  44.487  14.436
84590W        W56916   0.856  10.596  11.897
84591W        W56917  40.397  20.333  14.427
84592W        W56918  44.036  19.610  10.449
84593W        W56919  39.462  34.449   2.303
84594W        W56920  31.946  41.931  12.298
84595W        W56921  22.004  35.606   3.600
84596W        W56922   5.926   6.466   2.138
84597W        W56923  40.413  20.129   0.856
84598W        W56924  14.202  16.561  14.859
84599W        W56925  20.608  27.053   1.884
84600W        W56926  35.256  32.178  11.144
84601W        W56927  22.098  13.287  10.944
84602W        W56928  33.104  10.462   3.156
84603W        W56929  20.904  17.434   4.600
84604W        W56930   5.701  19.668   1.315
84605W        W56931  12.886   9.318  14.973
84606W        W56932   1.049  43.914   3.907
84607W        W56933   6.366   9.535  10.098
84608W        W56934  19.334  40.099   3.248
84609W        W56935  16.704  22.298   3.087
84610W        W56936  19.102  20.235  10.953
84611W        W56937  22.820   1.438  12.342
84612W        W56938  13.040  26.477   0.375
84613W        W56939   6.244  23.098   4.341
84614W        W56940   4.698   2.451   1.646
84615W        W56941  36.116   8.182   2.277
84616W        W56942  21.134  28.928   3.616
84617W        W56943  38.424  36.432   3.241
84618W        W56944   9.681  10.764  10.542
84619W        W56945  44.374  25.924   2.649
84620W        W56946  23.965   4.837   1.946
84621W        W56947   4.396  34.212   4.618
84622W        W56948  15.528  40.095  11.959
84623W        W56949   2.799  36.064   4.040
84624W        W56950   4.689  17.626  13.327
84625W        W56951  21.126   9.536  13.407
84626W        W56952  34.468  25.083  12.393
84627W        W56953   6.861  30.442   1.353
84628W        W56954   4.171  27.569   4.595
84629W        W56955  17.474  41.725  12.566
84630W        W56956  19.702  21.722   5.137
84631W        W56957  34.364  38.192   0.779
84632W        W56958  22.693   9.474  14.951
84633W        W56959  22.196   4.764   3.357
84634W        W56960  43.951   4.341  13.915
84635W        W56961  21.219  16.123   0.919
84636W        W56962  36.084  33.895   3.196
84637W        W56963  19.533  20.938   3.645
84638W        W56964  30.941  10.365  14.345
84639W        W56965  31.977   6.921  13.321
84640W        W56966   8.405   3.883  13.088
84641W        W56967   3.736  26.748  11.704
84642W        W56968   9.415  19.768   0.903
84643W        W56969   2.812   7.978   1.967
84644W        W56970   1.367  35.822  14.925
84645W        W56971  28.191  33.576  13.894
84646W        W56972  12.788  18.682   3.554
84647W        W56973  27.966  12.282  13.656
84648W        W56974  12.851  17.268  11.260
84649W        W56975  41.492  39.101   0.394
84650W        W56976  10.303  24.479  12.683
84651W        W56977  21.314   7.204  14.809
84652W        W56978   9.720  13.939  11.745
84653W        W56979  38.629  10.879  13.029
84654W        W56980   3.414  41.295   2.260
84655W        W56981   5.644   4.110  12.284
84656W        W56982  19.032   0.381  12.228
84657W        W56983  40.267  17.553  10.221
84658W        W56984  25.184  21.245   1.649
84659W        W56985  18.776   0.366  11.283
84660W        W56986  26.680  20.646  14.453
84661W        W56987   8.145  41.345   4.899
84662W        W56988  17.257  27.271   0.358
84663W        W56989   1.524   2.766  10.093
84664W        W56990  17.685  35.092  13.906
84665W        W56991  22.405  21.512  14.713
84666W        W56992  34.278   0.785  13.492
84667W        W56993   5.801  36.393   0.822
84668W        W56994  20.288  12.790  12.082
84669W        W56995   1.009  33.666  11.132
84670W        W56996  40.224   1.353   4.550
84671W        W56997  29.363  21.777  12.000
84672W        W56998   9.264  26.173  14.742
84673W        W56999  18.782  14.098  12.095
84674W        W57000  43.025   5.744  12.379
84675W        W57001  19.643   9.864   1.000
84676W        W57002  10.162  42.418  12.935
84677W        W57003  24.592  28.339  11.002
84678W        W57004   8.543  30.817  12.509
84679W        W57005  19.271  43.707   3.845
84680W        W57006  34.422  32.883   3.358
84681W        W57007   0.253  33.547   4.805
84682W        W57008  23.996  25.981  10.607
84683W        W57009  42.725  16.505  11.037
84684W        W57010  23.210  21.179  14.952
84685W        W57011  30.395  11.246   2.090
84686W        W57012  43.320  34.301   1.225
84687W        W57013   0.895  23.969   3.771
84688W        W57014   3.197  34.655   3.196
84689W        W57015  14.069  23.122  13.993
84690W        W57016  17.344  12.477  10.909
84691W        W57017  28.693  20.245   0.724
84692W        W57018  28.926  22.129   3.986
84693W        W57019   9.787  34.614   0.494
84694W        W57020   9.915  19.191   2.305
84695W        W57021  28.000  44.131   4.067
84696W        W57022  15.254  29.612  13.318
84697W        W57023  31.143  16.101  11.496
84698W        W57024  30.101  28.067   4.389
84699W        W57025  13.523  44.416  13.922
84700W        W57026  28.510  42.810   0.777
84701W        W57027   3.521   6.078  10.166
84702W        W57028  24.188   3.898  14.750
84703W        W57029  35.511   6.368  10.703
84704W        W57030  15.113  16.647  14.961
84705W        W57031  22.769  29.410   1.664
84706W        W57032   2.563  15.389   1.833
84707W        W57033   9.151  21.247   1.828
84708W        W57034  28.170  28.450   3.354
84709W        W57035  11.722  19.632   4.501
84710W        W57036  28.537   9.727  11.466
84711W        W57037  13.919  37.189  13.860
84712W        W57038  44.030  43.032   2.292
84713W        W57039  42.288  29.555  11.902
84714W        W57040  14.261  22.987   2.167
84715W        W57041   0.821  15.684   4.983
84716W        W57042   1.995  14.033   4.240
84717W        W57043   6.381  23.119   3.856
84718W        W57044  32.911  24.541   4.197
84719W        W57045  26.369  24.308  14.502
84720W        W57046  26.463   3.806  10.990
84721W        W57047   3.841  25.563   1.697
84722W        W57048  16.567   9.796  12.344
84723W        W57049  26.799  21.453  14.844
84724W        W57050  34.377  41.511   2.174
84725W        W57051   2.184  35.409  13.763
84726W        W57052  14.260  18.664   4.821
84727W        W57053  21.365  21.300   2.713
84728W        W57054  41.799   0.411   1.879
84729W        W57055  42.615  39.618  10.677
84730W        W57056  36.164  17.780   4.512
84731W        W57057  13.729  30.472  12.107
84732W        W57058  17.337  39.293  13.333
84733W        W57059  20.527  33.907   0.551
84734W        W57060  38.514  34.315   1.830
84735W        W57061  40.264  24.284   1.022
84736W        W57062   9.174  15.306   2.305
84737W        W57063   6.764  35.645  10.919
84738W        W57064  10.294  35.151   2.308
84739W        W57065   3.012   3.374  12.342
84740W        W57066   2.871  20.221  11.689
84741W        W57067  21.337  16.106  13.054
84742W        W57068  34.649  19.798   1.363
84743W        W57069   4.652  17.561   3.601
84744W        W57070  38.796  14.263  14.519
84745W        W57071  38.937   7.424  14.122
84746W        W57072   8.442  41.430  12.383
84747W        W57073  16.533  17.124  11.182
84748W        W57074  30.618  44.339   1.735
84749W        W57075  17.285   6.337  11.706
84750W        W57076  17.621  12.352   4.122
84751W        W57077  33.801  16.281   0.812
84752W        W57078  35.316   4.704   3.706
84753W        W57079   5.639  44.409   1.151
84754W        W57080   3.185   0.480   0.399
84755W        W57081  40.382   5.728  14.334
84756W        W57082  43.019  12.706  13.053
84757W        W57083  19.138  40.642  14.121
84758W        W57084  14.255  11.399   3.257
84759W        W57085  32.986  21.358   4.203
84760W        W57086  37.446  12.679   3.348
84761W        W57087  44.527  18.935   4.968
84762W        W57088  30.175  10.864   2.609
84763W        W57089  17.176  17.773   4.267
84764W        W57090   5.822  24.420  11.212
84765W        W57091  24.490  21.632  13.909
84766W        W57092  15.506   7.194   1.307
84767W        W57093  28.497  33.935   1.849
84768W        W57094   2.502  15.244  10.664
84769W        W57095  43.890  21.637   4.190
84770W        W57096  20.931  40.496   2.362
84771W        W57097  23.536   0.269   4.116
84772W        W57098  35.976   8.236  12.318
84773W        W57099  21.775   1.809   3.683
84774W        W57100   2.103  39.082   2.652
84775W        W57101  39.400   3.482   2.872
84776W        W57102  24.765  39.845   2.399
84777W        W57103  25.311  42.300  10.547
84778W        W57104   3.532  12.675   0.799
84779W        W57105  35.458  20.705   4.653
84780W        W57106  24.124  37.116  14.775
84781W        W57107  29.050   4.681   1.637
84782W        W57108  27.620   8.423   3.798
84783W        W57109  40.886  43.684   2.787
84784W        W57110  29.418  28.112   0.479
84785W        W57111   2.641  13.693  11.574
84786W        W57112  20.522  35.024  13.890
84787W        W57113   9.731  14.419  13.763
84788W        W57114  43.434  40.829   0.703
84789W        W57115  43.427   9.320   3.192
84790W        W57116  13.295  32.182   4.052
84791W        W57117  23.100   9.818   3.366
84792W        W57118  38.184   8.150  10.660
84793W        W57119   0.012   5.502   2.390
84794W        W57120  21.826   8.906   0.761
84795W        W57121  19.761  41.905   4.257
84796W        W57122  38.724  20.324   2.612
84797W        W57123  39.785  10.434  13.401
84798W        W57124  27.630  21.101   0.812
84799W        W57125  23.162  43.928   0.348
84800W        W57126  15.118  41.587   2.190
84801W        W57127   7.137  25.505   3.249
84802W        W57128   4.403  38.116   1.848
84803W        W57129   3.855  42.381   4.156
84804W        W57130  38.311   2.857   2.146
84805W        W57131  14.759  42.776   1.746
84806W        W57132  41.232  22.768  12.478
84807W        W57133   4.086  24.134  11.597
84808W        W57134  10.631  29.685  12.036
84809W        W57135   9.369  26.471  13.519
84810W        W57136  36.412  39.998   1.725
84811W        W57137  29.398  13.280  11.604
84812W        W57138  31.535  14.451   4.289
84813W        W57139  16.195  21.097  13.941
84814W        W57140  10.397  19.290   3.741
84815W        W57141  14.177  14.643  12.136
84816W        W57142   5.565  22.015  12.799
84817W        W57143  22.122  13.976   1.458
84818W        W57144  42.069  40.264  14.415
84819W        W57145   1.929   7.191  11.438
84820W        W57146  11.789  22.476   3.158
84821W        W57147  28.101  18.730   0.944
84822W        W57148  26.618  18.337   3.332
84823W        W57149  20.296  18.762   1.231
84824W        W57150  11.292   6.940   4.913
84825W        W57151   3.415  26.692  14.588
84826W        W57152  35.572  16.240  11.481
84827W        W57153  14.832  15.968   1.842
84828W        W57154  39.585  43.751  14.097
84829W        W57155   3.261  11.874   0.366
84830W        W57156  29.516  40.429   0.478
84831W        W57157   5.632  23.674   3.525
84832W        W57158  27.449  17.293   4.209
84833W        W57159   5.809   1.914  14.276
84834W        W57160  32.551   0.004  14.098
84835W        W57161  38.995  17.644  12.141
84836W        W57162  42.217  18.082   2.177
84837W        W57163  18.273   7.454   3.753
84838W        W57164  42.988  30.399   1.177
84839W        W57165  12.544  33.796  10.273
84840W        W57166  43.871  34.844  13.443
84841W        W57167  29.572  31.431  10.969
84842W        W57168  18.353  10.700  11.602
84843W        W57169  43.106  43.834  11.436
84844W        W57170  17.932  26.852  13.764
84845W        W57171   1.973   4.285   4.898
84846W        W57172  29.175  27.213   4.914
84847W        W57173  32.635   4.340  12.569
84848W        W57174   5.750  21.915  11.514
84849W        W57175  41.923  25.432  12.649
84850W        W57176  26.521  11.329   3.754
84851W        W57177  39.029  25.914  11.546
84852W        W57178   9.783  12.141   0.802
84853W        W57179  31.379  19.812   2.396
84854W        W57180  38.844  15.908  14.864
84855W        W57181  19.081  11.753   2.007
84856W        W57182  27.182  14.016   4.989
84857W        W57183  11.611   6.053  14.257
84858W        W57184   9.717   5.269   1.580
84859W        W57185   3.299  18.236  13.083
84860W        W57186  43.336  17.812  13.344
84861W        W57187  23.630  17.308   4.343
84862W        W57188  28.748  18.183  10.635
84863W        W57189  43.516  30.921  10.981
84864W        W57190   7.364  33.370  13.092
84865W        W57191  35.650  38.246   0.777
84866W        W57192  18.480  30.502  12.374
84867W        W57193   9.781   2.932  10.787
84868W        W57194   1.820  24.054  14.950
84869W        W57195  37.826  15.084   2.284
84870W        W57196  39.016   3.980  14.268
84871W        W57197  33.479   4.639   2.382
84872W        W57198   4.671  43.708  12.375
84873W        W57199   3.663  22.004   2.907
84874W        W57200  14.086  33.817   2.898
84875W        W57201  22.662  14.819   3.588
84876W        W57202  36.636  12.891   3.882
84877W        W57203  40.404  26.280   2.874
84878W        W57204   8.292   1.577   3.713
84879W        W57205   1.018  29.064   1.414
84880W        W57206  38.938  20.252  13.394
84881W        W57207  30.394  43.922  14.788
84882W        W57208  36.631  19.516  10.958
84883W        W57209  20.804  14.214   1.802
84884W        W57210  44.395  24.235  13.783
84885W        W57211  11.988  10.403   1.627
84886W        W57212   6.821  20.998  14.258
84887W        W57213   9.492  34.457  14.779
84888W        W57214   4.509  43.744   1.180
84889W        W57215  11.289  36.470  14.302
84890W        W57216  34.735   5.151  13.482
84891W        W57217   4.937   5.971   3.272
84892W        W57218  34.865   7.169   4.069
84893W        W57219  38.008  35.592   0.834
84894W        W57220  33.448  22.022   4.769
84895W        W57221  27.132  33.957  11.564
84896W        W57222  34.754  24.084  11.418
84897W        W57223  43.679  28.036   2.250
84898W        W57224  12.855  40.984   3.200
84899W        W57225   1.500  28.669  12.483
84900W        W57226   6.274   3.494   0.795
84901W        W57227  28.584   6.715   2.991
84902W        W57228   5.460  29.973   4.295
84903W        W57229  10.426   1.545   1.157
84904W        W57230   2.741  29.799   0.429
84905W        W57231  22.295  40.007  11.136
84906W        W57232  27.740  25.897   0.841
84907W        W57233   8.163  44.653  14.787
84908W        W57234  11.849  35.531   3.369
84909W        W57235  23.664  35.580  13.502
84910W        W57236  17.019  20.528   3.117
84911W        W57237  17.587   8.853   0.739
84912W        W57238  13.533  23.092   0.679
84913W        W57239  42.904  34.061   0.347
84914W        W57240  23.959  29.021   1.820
84915W        W57241  43.534   6.271  14.034
84916W        W57242  19.264  27.637  10.673
84917W        W57243  12.187  17.609   4.628
84918W        W57244  30.388   0.413  10.262
84919W        W57245   0.798  11.867   1.767
84920W        W57246  27.028  35.309   0.859
84921W        W57247  24.585  22.782   4.845
84922W        W57248  36.642  22.127   4.918
84923W        W57249  36.228  12.909  14.437
84924W        W57250  24.022   5.909   4.432
84925W        W57251   1.033  16.751  14.756
84926W        W57252  18.690  35.918   4.602
84927W        W57253  21.655  16.730   2.211
84928W        W57254  41.445  21.893   4.523
84929W        W57255  37.607  35.435  10.752
84930W        W57256  40.224  10.890   2.699
84931W        W57257  15.681   0.359  14.670
84932W        W57258  40.628  28.748   1.699
84933W        W57259  15.686  16.536  14.403
84934W        W57260   8.004  22.007   2.808
84935W        W57261  18.487  26.429   4.870
84936W        W57262  37.051  28.709  14.995
84937W        W57263  40.456  37.518  10.705
84938W        W57264  20.623  28.953   3.648
84939W        W57265   3.786  31.170   3.299
84940W        W57266  19.486  17.059   2.850
84941W        W57267  22.200   6.883  11.050
84942W        W57268  12.504  26.230  13.916
84943W        W57269  35.541   7.502  13.839
84944W        W57270  23.042  44.506  13.771
84945W        W57271  22.193  27.096   1.204
84946W        W57272  42.797   4.729  12.486
84947W        W57273  34.607  34.928   1.042
84948W        W57274  42.984   7.357   3.751
84949W        W57275  10.274  39.909   5.058
84950W        W57276  14.355  29.699   0.223
84951W        W57277  43.107  14.437  14.437
84952W        W57278  19.596  27.578  12.427
84953W        W57279   7.322  41.951   0.570
84954W        W57280  28.794  19.749  14.267
84955W        W57281  36.560  22.140   2.214
84956W        W57282   7.696   9.762  13.040
84957W        W57283   9.579   5.837   2.213
84958W        W57284  21.469  13.228   3.142
84959W        W57285  26.207  14.149  14.518
84960W        W57286   1.737  43.712  14.773
84961W        W57287  40.553  12.244  11.490
84962W        W57288   7.759   5.441  13.022
84963W        W57289  29.421  29.548   3.119
84964W        W57290  32.408  24.486  12.360
84965W        W57291  21.015  19.201  14.195
84966W        W57292  40.273  42.049  11.999
84967W        W57293  23.644  24.495  14.903
84968W        W57294   9.058   7.250  14.908
84969W        W57295  21.576   3.654  13.427
84970W        W57296  11.724  42.130   2.429
84971W        W57297  30.747  24.231   3.207
84972W        W57298  24.940  17.763  13.456
84973W        W57299  27.997  34.082  13.963
84974W        W57300   3.223  33.025   0.304
84975W        W57301   3.530  17.591   0.847
84976W        W57302  26.664  20.781  13.076
84977W        W57303  32.834  42.983  12.047
84978W        W57304  29.032  24.792   2.702
84979W        W57305  43.528  33.985   4.471
84980W        W57306  21.783   9.272   4.651
84981W        W57307  20.423   2.311  13.495
84982W        W57308  26.808   1.653  11.143
84983W        W57309  36.581   4.010  11.804
84984W        W57310   6.108  40.573   3.743
84985W        W57311  43.312  10.054  11.454
84986W        W57312  18.645   6.793  14.707
84987W        W57313  12.878  29.420   1.797
84988W        W57314   9.767  28.948   0.315
84989W        W57315  40.797  11.783  11.615
84990W        W57316  22.481  44.219   0.477
84991W        W57317  41.457  14.699  12.569
84992W        W57318  38.951  15.604   4.161
84993W        W57319  27.023   5.416   1.745
84994W        W57320  29.495  18.563  13.991
84995W        W57321  17.608  10.286   1.224
84996W        W57322  42.751  39.635   3.663
84997W        W57323  16.693  18.731  14.246
84998W        W57324   5.346  24.076  12.093
84999W        W57325  22.673  16.599   1.325
85000W        W57326  10.107  29.728  12.072
85001W        W57327  22.747  38.536  14.033
85002W        W57328  32.581  44.525  12.055
85003W        W57329  22.767  36.931   2.249
85004W        W57330  10.570  43.735   4.061
85005W        W57331  44.329   7.687   3.709
85006W        W57332  31.995  11.091  10.978
85007W        W57333  36.084   8.583   0.474
85008W        W57334  16.858  16.526   0.372
85009W        W57335  12.656  11.857   2.634
85010W        W57336  12.605   6.878   4.881
85011W        W57337   5.309   6.588  14.237
85012W        W57338  21.123  21.211  10.425
85013W        W57339  16.814  19.407  12.534
85014W        W57340   9.585  29.944  13.836
85015W        W57341  25.680  30.204   2.597
85016W        W57342  16.702  26.595   1.814
85017W        W57343   0.216  24.718   2.367
85018W        W57344  15.058  31.159  13.745
85019W        W57345  28.513  12.544  13.806
85020W        W57346   4.376  26.006  13.943
85021W        W57347  37.995  30.737   0.912
85022W        W57348  20.079  31.342  12.182
85023W        W57349  33.112   1.924   0.767
85024W        W57350   6.892  30.113  13.917
85025W        W57351  38.503  36.634   0.350
85026W        W57352  23.665  44.328  11.862
85027W        W57353  31.822  20.398   4.222
85028W        W57354   7.253  20.045   2.945
85029W        W57355  23.480  42.085  13.029
85030W        W57356  33.517   8.783   1.910
85031W        W57357  20.458  12.306   3.788
85032W        W57358  22.992  40.509  14.811
85033W        W57359  32.143  26.417  14.193
85034W        W57360  38.532  16.602   4.862
85035W        W57361  37.463  16.094  12.977
85036W        W57362  13.825   9.421  12.960
85037W        W57363   7.855  26.621  11.626
85038W        W57364  21.299  26.587   0.539
85039W        W57365  22.167  19.835   2.464
85040W        W57366  38.368  21.930  12.424
85041W        W57367   4.375  15.837   0.026
85042W        W57368  31.562  43.367  13.332
85043W        W57369   4.680  36.630   3.788
85044W        W57370   4.036  26.403   2.004
85045W        W57371  39.091  15.671  10.353
85046W        W57372  16.659  33.995   1.652
85047W        W57373   1.332  39.033   0.393
85048W        W57374  43.234  25.232   3.203
85049W        W57375   5.252   8.690  14.498
85050W        W57376  37.855  34.045  14.888
85051W        W57377  36.256  19.675   0.691
85052W        W57378  34.484  33.530  10.201
85053W        W57379  37.909  26.989   2.745
85054W        W57380   3.688   5.861  14.362
85055W        W57381  10.486  34.903  10.648
85056W        W57382  29.030  32.442  11.633
85057W        W57383  14.254  20.300  13.845
85058W        W57384  29.651  37.507   3.065
85059W        W57385  17.652   8.189   1.995
85060W        W57386   5.466  44.397   3.696
85061W        W57387  33.781   6.482  11.047
85062W        W57388   6.392  18.506   1.966
85063W        W57389  22.956  33.466   3.650
85064W        W57390  43.217  14.207   3.238
85065W        W57391  19.284   2.934  10.620
85066W        W57392  33.829  44.536   1.348
85067W        W57393  11.704  16.623  12.582
85068W        W57394  20.338  26.117   3.843
85069W        W57395  35.448   4.274  14.237
85070W        W57396  38.380  26.496   1.203
85071W        W57397  39.160  43.771  14.430
85072W        W57398  33.988   6.499   1.354
85073W        W57399  13.256  29.972   3.417
85074W        W57400  39.410   5.714  14.850
85075W        W57401  24.914  37.354   4.464
85076W        W57402  17.347  37.545   0.683
85077W        W57403  23.509  31.423   1.937
85078W        W57404   6.981  39.898   4.523
85079W        W57405   1.243  11.343   1.335
85080W        W57406  22.937  33.440   1.966
85081W        W57407  34.430   4.318   4.403
85082W        W57408  23.960  26.105   1.433
85083W        W57409  21.832  14.123   1.873
85084W        W57410   7.765  42.313   3.320
85085W        W57411  26.629   4.453  13.307
85086W        W57412  29.548  34.871   2.919
85087W        W57413  35.858   8.347   3.593
85088W        W57414   4.553  44.529  14.236
85089W        W57415  29.461  19.270   0.240
85090W        W57416  18.828  22.590   0.380
85091W        W57417  43.867  13.583   3.667
85092W        W57418  25.629   1.787   9.942
85093W        W57419  19.853   7.840  11.109
85094W        W57420  18.120  33.498   3.750
85095W        W57421  11.788  12.655   4.522
85096W        W57422  23.509  34.038  10.400
85097W        W57423  22.101  26.921  12.812
85098W        W57424  12.568  36.221  13.318
85099W        W57425   9.770   0.938   3.728
85100W        W57426  38.678  22.402  12.846
85101W        W57427  33.368   6.616  12.262
85102W        W57428  17.320  32.566  12.482
85103W        W57429  18.363  41.866  14.452
85104W        W57430  44.766  30.481   0.863
85105W        W57431  21.844  42.648   0.396
85106W        W57432  16.872  21.830   0.770
85107W        W57433   8.603  24.088   4.214
85108W        W57434  44.839   8.842  12.081
85109W        W57435   8.594  25.719   5.128
85110W        W57436  39.088  18.560   2.682
85111W        W57437  15.926  19.052   1.779
85112W        W57438  38.888  32.259   2.794
85113W        W57439   7.767  34.360  12.341
85114W        W57440   8.958  29.471   4.010
85115W        W57441  17.453  41.997   4.090
85116W        W57442  38.394  41.950   0.891
85117W        W57443   4.856  11.806   0.262
85118W        W57444   4.502  29.558  12.431
85119W        W57445   2.322  41.162   1.280
85120W        W57446   1.483  37.985   0.416
85121W        W57447  38.948  38.306  12.534
85122W        W57448  28.491  14.665   0.210
85123W        W57449  23.139  16.270  11.054
85124W        W57450   3.712  39.430  12.468
85125W        W57451   8.883   2.171  10.560
85126W        W57452   0.797  14.389  14.407
85127W        W57453  27.168  21.847   1.221
85128W        W57454  25.574  15.936  13.480
85129W        W57455   0.993  22.071  12.210
85130W        W57456   6.620  19.242  13.236
85131W        W57457   8.633  44.243  11.493
85132W        W57458  17.044   2.853   0.308
85133W        W57459  41.348  24.900  13.717
85134W        W57460  38.315   1.987   1.954
85135W        W57461  41.432  29.523  14.123
85136W        W57462  35.644  31.061   2.337
85137W        W57463  39.953   6.403  14.524
85138W        W57464  12.216  39.276   2.446
85139W        W57465  13.596  21.599  13.455
85140W        W57466   5.428  22.564   4.563
85141W        W57467   0.306   9.193  14.224
85142W        W57468  19.767  42.521   0.761
85143W        W57469  38.016  29.288  11.551
85144W        W57470   8.594  18.703  13.210
85145W        W57471  16.679  33.646   0.810
85146W        W57472  36.889   7.608   2.191
85147W        W57473  42.424  42.747  13.960
85148W        W57474  22.051  14.653  11.435
85149W        W57475   9.074  22.472   2.299
85150W        W57476  19.175  19.348   2.190
85151W        W57477  26.597  20.206   4.527
85152W        W57478  11.668  11.243   0.448
85153W        W57479   4.082   8.851  12.837
85154W        W57480   7.118  32.243   4.334
85155W        W57481  43.981  42.988  13.605
85156W        W57482   8.556  26.690   1.819
85157W        W57483  25.039  42.190  13.309
85158W        W57484   5.004  14.282   0.254
85159W        W57485  15.514  10.717   1.911
85160W        W57486   1.733  29.770   2.735
85161W        W57487  34.623  27.574  10.683
85162W        W57488   8.407  15.292   2.806
85163W        W57489   7.695  22.288  12.030
85164W        W57490  21.491  36.037  12.985
85165W        W57491  18.882  23.498   3.744
85166W        W57492  17.566   0.868  14.245
85167W        W57493  19.249  31.973  11.126
85168W        W57494  22.123   4.510  11.288
85169W        W57495  27.588  39.622   4.010
85170W        W57496  18.054  32.848   3.155
85171W        W57497  10.813  15.021  12.902
85172W        W57498  22.850  40.811   2.389
85173W        W57499  23.840  10.632  11.694
85174W        W57500  26.723  44.492   4.047
85175W        W57501   0.514  22.304  14.671
85176W        W57502  33.665   2.266   1.824
85177W        W57503  12.331  23.026  12.920
85178W        W57504  44.209  43.706  14.042
85179W        W57505   9.297  22.341   3.197
85180W        W57506   3.475  10.953  13.365
85181W        W57507  18.265  10.815  14.754
85182W        W57508  37.815  41.715   4.197
85183W        W57509  16.692   7.733  14.023
85184W        W57510  30.187  12.704  13.331
85185W        W57511  18.333  16.721   4.691
85186W        W57512  44.677   7.234  14.312
85187W        W57513  37.119  41.570  14.883
85188W        W57514  18.876  34.417   4.048
85189W        W57515  20.578  21.760  14.221
85190W        W57516  41.657  16.709  14.133
85191W        W57517  29.564   3.240  10.834
85192W        W57518   4.692  44.061   4.172
85193W        W57519   4.577  12.280   3.657
85194W        W57520   3.743   4.024   5.112
85195W        W57521  27.265  20.446   3.958
85196W        W57522  15.132  27.664  12.424
85197W        W57523   1.388  35.587   0.786
85198W        W57524  22.474  29.619  10.504
85199W        W57525  27.201  10.090  13.873
85200W        W57526  31.914  18.794   0.215
85201W        W57527  26.965  17.789  11.489
85202W        W57528  15.381  32.097   4.065
85203W        W57529  44.239  18.640  14.465
85204W        W57530  29.047  42.867   1.961
85205W        W57531  41.991  25.453  14.463
85206W        W57532   8.929  31.030  12.773
85207W        W57533  24.989  21.685  14.043
85208W        W57534   2.965  42.615   2.626
85209W        W57535  29.884   0.855   3.215
85210W        W57536   7.353   1.727   0.389
85211W        W57537  28.193  19.363  14.795
85212W        W57538  36.805  13.220  13.043
85213W        W57539  35.447  21.831  14.076
85214W        W57540  38.324  42.381  13.500
85215W        W57541  14.730  27.991   2.620
85216W        W57542   0.890  19.969   1.415
85217W        W57543  23.664  29.929   2.620
85218W        W57544   2.425  34.130   2.694
85219W        W57545  18.650  39.797  11.991
85220W        W57546  28.664  19.976  12.895
85221W        W57547  31.091  20.178  12.955
85222W        W57548   6.238  37.294  14.983
85223W        W57549  44.232   4.824   0.084
85224W        W57550  39.656  20.265   0.349
85225W        W57551  11.660  35.186  14.417
85226W        W57552  37.031  23.756  14.521
85227W        W57553   1.650  24.498  11.986
85228W        W57554  17.382  13.572   2.345
85229W        W57555  15.297  30.949   3.438
85230W        W57556  38.947  12.592   9.565
85231W        W57557   1.042  20.240   3.168
85232W        W57558   7.055   8.592  12.443
85233W        W57559  34.908  26.018   2.769
85234W        W57560  41.326  43.210  14.855
85235W        W57561  36.410  35.122  14.827
85236W        W57562   9.251  23.722   1.804
85237W        W57563   5.483  37.505  12.952
85238W        W57564  41.745   4.846  10.656
85239W        W57565  29.599  13.075  12.042
85240W        W57566  22.544  13.872  13.777
85241W        W57567  21.511  15.877   2.224
85242W        W57568  22.040   3.384   1.049
85243W        W57569   9.465  27.512   4.589
85244W        W57570   5.735  27.724  13.698
85245W        W57571  29.054   9.237   2.244
85246W        W57572  25.671   6.442  13.391
85247W        W57573  22.509  25.451  12.125
85248W        W57574  14.225  19.193  11.428
85249W        W57575  29.087  30.906  12.477
85250W        W57576  26.495  36.132  14.040
85251W        W57577   5.199  39.328  13.486
85252W        W57578  43.248  15.082  13.625
85253W        W57579  18.749  37.535  11.158
85254W        W57580  30.719  35.265  12.532
85255W        W57581  18.714  36.312  10.631
85256W        W57582  37.639  11.346   4.874
85257W        W57583  13.236  31.537  14.804
85258W        W57584  12.647  23.242   3.051
85259W        W57585  17.775   4.864   2.136
85260W        W57586  41.780  32.110  14.700
85261W        W57587  15.820  41.316   3.572
85262W        W57588  24.734  29.771  13.947
85263W        W57589   1.773   7.727  11.205
85264W        W57590  31.286  32.029   9.907
85265W        W57591  18.982  20.562   2.843
85266W        W57592  44.796  14.900   1.695
85267W        W57593  24.976  30.643   1.865
85268W        W57594  11.695  15.743   3.321
85269W        W57595   8.325   8.400  11.500
85270W        W57596  41.624   5.246   2.239
85271W        W57597  10.360  23.100  12.912
85272W        W57598  17.798  29.068  12.443
85273W        W57599  13.418  40.978  14.327
85274W        W57600  17.686  40.971  11.608
85275W        W57601  42.735  13.874   3.024
85276W        W57602   6.388  28.040   3.517
85277W        W57603  39.084  38.743  10.909
85278W        W57604   3.625  32.467  12.987
85279W        W57605  27.866  38.960  11.296
85280W        W57606  17.482  20.801  11.452
85281W        W57607  35.889  44.177   3.997
85282W        W57608  39.768  29.929   1.671
85283W        W57609  21.844  31.147  13.833
85284W        W57610  33.257   4.689  11.150
85285W        W57611  34.351  12.036  12.783
85286W        W57612  36.330  25.576  12.519
85287W        W57613  27.522  35.411  13.787
85288W        W57614  42.921  14.694   4.503
85289W        W57615  38.953   0.807   0.197
85290W        W57616  13.249  25.804   4.557
85291W        W57617  41.512  17.769   1.808
85292W        W57618  43.739  34.965  12.482
85293W        W57619  20.213  11.055   0.281
85294W        W57620  10.948  37.406  12.012
85295W        W57621  43.822  35.065   1.309
85296W        W57622   0.203  31.238   1.989
85297W        W57623   5.843  22.847  13.065
85298W        W57624  11.251  43.657  13.599
85299W        W57625   1.436   3.452  11.126
85300W        W57626  42.102   0.524   3.242
85301W        W57627  31.050  44.362   0.965
85302W        W57628  24.469  41.532  13.378
85303W        W57629   7.314   9.769  10.359
85304W        W57630   0.011  19.728  13.013
85305W        W57631  43.369   5.418  11.138
85306W        W57632  42.955  28.287   0.300
85307W        W57633   8.801  30.904   3.757
85308W        W57634  26.257  13.319   3.504
85309W        W57635  21.248   8.221  12.322
85310W        W57636   1.460  25.552   2.055
85311W        W57637   6.132  14.163   2.326
85312W        W57638  12.130  11.946   2.470
85313W        W57639  20.610  21.003  11.141
85314W        W57640  14.392  23.650   4.107
85315W        W57641  41.308  21.014   1.196
85316W        W57642  44.368  25.604   4.524
85317W        W57643  39.801  28.707  11.594
85318W        W57644  40.293  11.589  11.683
85319W        W57645  41.883  25.284   1.803
85320W        W57646  30.441  29.169   2.611
85321W        W57647  24.127  42.178   4.603
85322W        W57648  11.413  18.210  13.407
85323W        W57649   3.919  29.644   3.231
85324W        W57650  43.919  16.038   3.951
85325W        W57651  41.913  24.206  14.018
85326W        W57652  40.961  36.426   4.207
85327W        W57653  23.499  30.623  12.686
85328W        W57654  14.670  14.590   4.024
85329W        W57655  39.202  14.022   4.614
85330W        W57656  23.988   6.673  13.170
85331W        W57657  41.786  37.670  10.731
85332W        W57658  14.649   1.870  10.741
85333W        W57659   0.906  41.068   2.297
85334W        W57660  18.581  17.429  14.398
85335W        W57661   0.765  38.567   4.422
85336W        W57662   0.986  41.500   5.032
85337W        W57663   4.220  15.300   1.823
85338W        W57664  31.568  35.902  11.439
85339W        W57665  18.775  17.730   2.459
85340W        W57666  38.829  37.413  11.516
85341W        W57667  43.511  41.857   1.287
85342W        W57668  11.317  10.823   1.199
85343W        W57669  27.613  21.273  10.200
85344W        W57670  36.020   0.270  11.631
85345W        W57671  10.198  10.210   1.978
85346W        W57672  27.591  34.596  12.064
85347W        W57673   1.491   6.408   2.242
85348W        W57674  31.615   2.257  11.879
85349W        W57675  19.031  16.728  12.025
85350W        W57676  38.946  43.503   3.438
85351W        W57677  33.138  33.172  11.785
85352W        W57678   2.404  17.815   4.286
85353W        W57679   9.410  21.797  13.741
85354W        W57680   1.045  16.615   2.538
85355W        W57681  37.387  36.324  11.664
85356W        W57682  32.705  29.986   1.259
85357W        W57683  24.745  29.609  12.032
85358W        W57684  43.856   9.140  11.545
85359W        W57685  33.791  39.043  13.830
85360W        W57686  27.009  25.739  12.073
85361W        W57687  33.204  19.046   2.848
85362W        W57688   3.415   8.800  14.483
85363W        W57689  36.484  40.890  11.097
85364W        W57690  26.071  10.437  12.076
85365W        W57691   8.659  41.781   3.622
85366W        W57692   1.958  44.333   3.286
85367W        W57693  19.785  40.349  14.387
85368W        W57694  29.159  32.792   2.315
85369W        W57695  26.977  30.543  13.366
85370W        W57696   0.726  22.189   1.366
85371W        W57697  11.964  25.460  10.168
85372W        W57698   2.834  13.057   4.596
85373W        W57699   6.113  33.322   0.430
85374W        W57700  36.923  38.051   1.743
85375W        W57701  17.390  28.525  14.898
85376W        W57702   3.247   1.751   5.033
85377W        W57703  28.871  29.054   0.940
85378W        W57704   9.248  26.273  10.926
85379W        W57705   2.199  20.739  13.429
85380W        W57706  37.020  44.996  13.438
85381W        W57707  13.772  32.061   3.637
85382W        W57708  30.481  40.381  12.943
85383W        W57709  13.895  38.764   0.418
85384W        W57710  44.889  25.645   4.707
85385W        W57711   4.974  32.144  14.333
85386W        W57712  16.029  38.484   3.112
85387W        W57713  22.472  18.722  14.756
85388W        W57714  15.157  20.642   1.869
85389W        W57715  20.965  17.547   3.000
85390W        W57716  23.672   3.892   0.948
85391W        W57717  33.312  30.430   4.529
85392W        W57718  13.201  44.948   2.819
85393W        W57719  43.591  35.767   3.160
85394W        W57720  26.029  35.979  11.856
85395W        W57721  26.854  18.705   0.276
85396W        W57722  34.333  11.139   0.812
85397W        W57723   7.624  35.782  12.474
85398W        W57724  39.043   8.510   0.455
85399W        W57725  26.180  16.795  12.884
85400W        W57726  12.312  25.141   3.299
85401W        W57727  18.195  20.351  11.185
85402W        W57728  36.812  17.486  12.460
85403W        W57729  44.045  17.577   1.972
85404W        W57730  35.416  21.042   1.795
85405W        W57731  11.270  13.940   4.622
85406W        W57732  27.994   6.212  12.337
85407W        W57733  15.099  31.483   4.801
85408W        W57734  40.876  11.352  13.406
85409W        W57735  42.924   6.423   2.795
85410W        W57736  18.249  41.990   4.667
85411W        W57737   4.378  26.197  10.643
85412W        W57738  28.545  33.028   3.747
85413W        W57739  30.092   1.884   3.680
85414W        W57740  17.962   4.192   3.576
85415W        W57741   9.330  17.952   0.224
85416W        W57742  27.600  23.766   0.958
85417W        W57743  27.773  16.647  12.529
85418W        W57744  38.458  44.677   4.225
85419W        W57745   2.263   3.377   1.267
85420W        W57746  34.161  19.760  14.425
85421W        W57747  39.489  15.766   3.403
85422W        W57748  35.210  11.028   5.082
85423W        W57749  25.241   7.217   3.723
85424W        W57750  41.499   6.654   3.726
85425W        W57751  10.106  41.419  12.182
85426W        W57752  41.449  24.089   1.303
85427W        W57753  10.041  24.461  13.660
85428W        W57754  15.062  20.646  11.462
85429W        W57755  35.156  41.422   1.502
85430W        W57756  17.587  23.466  10.749
85431W        W57757   6.103  39.401   3.852
85432W        W57758  15.638   6.915  13.158
85433W        W57759   8.265  42.214  13.357
85434W        W57760  26.089  20.435  11.999
85435W        W57761  21.070  24.373  11.595
85436W        W57762  11.749  34.024  10.678
85437W        W57763  43.057  12.318  10.709
85438W        W57764  19.842  40.340   2.430
85439W        W57765  42.211   8.237  14.816
85440W        W57766  27.754  44.831  11.949
85441W        W57767  24.107  14.122  12.256
85442W        W57768  34.041  21.472   0.692
85443W        W57769  21.791   8.140  11.233
85444W        W57770  31.871  23.278   1.457
85445W        W57771  12.241  36.938  13.704
85446W        W57772   4.958  11.639  12.466
85447W        W57773  12.688  28.997   3.202
85448W        W57774  43.283   7.177   4.544
85449W        W57775  33.925  21.526   0.164
85450W        W57776  14.177  18.327  12.569
85451W        W57777  42.204   7.708   2.905
85452W        W57778  10.232  41.031  14.421
85453W        W57779  23.399  38.492   4.191
85454W        W57780  24.657  37.433  14.016
85455W        W57781   1.501  28.638   3.117
85456W        W57782  29.034  37.775   4.223
85457W        W57783  25.098  35.327   1.491
85458W        W57784  20.671   8.601   3.534
85459W        W57785   9.167   9.228   2.294
85460W        W57786  31.831   6.499  13.579
85461W        W57787  11.680   4.153  13.818
85462W        W57788   6.988  16.150  10.742
85463W        W57789   4.430  19.511  13.477
85464W        W57790  42.778  26.754  14.561
85465W        W57791  44.598   8.762   1.257
85466W        W57792  40.653   9.419   2.920
85467W        W57793   8.403  24.964  12.401
85468W        W57794  34.894  43.357   0.719
85469W        W57795  35.049   9.276   2.272
85470W        W57796   5.340  28.884   0.968
85471W        W57797   3.959   0.797   0.112
85472W        W57798  35.964  26.949   4.586
85473W        W57799  36.606  22.470   3.164
85474W        W57800  41.750  38.477  11.088
85475W        W57801   4.120  26.891   1.223
85476W        W57802  18.987   9.925   3.652
85477W        W57803   6.826  25.648   0.362
85478W        W57804  38.788  15.090  14.359
85479W        W57805   8.776  11.842   0.871
85480W        W57806  35.003  35.370  11.550
85481W        W57807  34.838  17.729  13.934
85482W        W57808  26.729  33.615   1.321
85483W        W57809  22.724  13.722   2.234
85484W        W57810  30.444   2.291   0.395
85485W        W57811  29.521  34.784  11.507
85486W        W57812  39.634   9.128  14.346
85487W        W57813  17.124  44.704   9.967
85488W        W57814  28.084  30.710  14.461
85489W        W57815  13.951  24.676   2.847
85490W        W57816  43.742   2.993   1.489
85491W        W57817  33.125  37.450   4.139
85492W        W57818  40.853  38.910  12.134
85493W        W57819  10.345  21.279  13.981
85494W        W57820   1.133   0.793  10.260
85495W        W57821  18.610   5.280  14.726
85496W        W57822   1.959  44.517   2.469
85497W        W57823  37.627  40.444  14.411
85498W        W57824  13.659  25.510  13.306
85499W        W57825  29.942  19.693   1.290
85500W        W57826  15.217  30.292  11.478
85501W        W57827  15.283  32.605  12.346
85502W        W57828  38.546   5.096   3.300
85503W        W57829  41.421  16.974   2.749
85504W        W57830  29.636  34.292  14.436
85505W        W57831  41.913  21.753   2.180
85506W        W57832  16.748  37.320   0.126
85507W        W57833  12.211  34.302   4.940
85508W        W57834  38.650  11.783  10.564
85509W        W57835  42.647  22.312   0.215
85510W        W57836  25.117  34.577   0.897
85511W        W57837  35.851  20.088   4.099
85512W        W57838  37.472  13.560  11.889
85513W        W57839   5.293  18.052  13.484
85514W        W57840   1.798   7.443  12.132
85515W        W57841  19.583  33.583   0.230
85516W        W57842  10.286  44.167   4.128
85517W        W57843  32.832  28.864  13.311
85518W        W57844  43.476   3.365  11.519
85519W        W57845  28.084  15.958   3.283
85520W        W57846  41.523   7.433  14.924
85521W        W57847   1.014   3.009   4.615
85522W        W57848  24.727  24.789   2.313
85523W        W57849  14.333  34.793   3.698
85524W        W57850   3.852  13.584   3.725
85525W        W57851  18.527  13.120  11.933
85526W        W57852  31.338   2.220   1.319
85527W        W57853  44.865   8.357  13.736
85528W        W57854  18.160   8.783   1.893
85529W        W57855  17.192  15.673   2.814
85530W        W57856  35.654   4.527   1.749
85531W        W57857  35.053  34.404  10.693
85532W        W57858  10.875  31.913   3.757
85533W        W57859  24.567   8.821   1.348
85534W        W57860  39.441  36.936   1.801
85535W        W57861   5.812  25.710   2.343
85536W        W57862  40.563  27.547  14.199
85537W        W57863  22.468  27.540   2.329
85538W        W57864  44.209   7.239  11.179
85539W        W57865   9.583  43.761   1.269
85540W        W57866  42.771  15.346  12.370
85541W        W57867   9.427   3.373  12.353
85542W        W57868  36.895  18.118  11.844
85543W        W57869  25.716  42.053  14.408
85544W        W57870  23.990  31.120   4.128
85545W        W57871  30.871   1.961   1.330
85546W        W57872  16.011  34.509  13.748
85547W        W57873   1.375  10.871   1.163
85548W        W57874  44.153  19.022   3.640
85549W        W57875  44.098   1.462  11.618
85550W        W57876  15.420  23.367  11.489
85551W        W57877  28.125   4.803  14.907
85552W        W57878  26.607  37.408  13.464
85553W        W57879  27.588  29.041  14.716
85554W        W57880  29.962   7.783   2.893
85555W        W57881  38.832  32.575  11.804
85556W        W57882  28.990  37.831  14.855
85557W        W57883  28.111   0.201  13.582
85558W        W57884   8.423  41.364   3.357
85559W        W57885   1.481  31.152   2.219
85560W        W57886  12.313  28.768  11.662
85561W        W57887  31.552  13.574  10.779
85562W        W57888   3.890  39.528  10.926
85563W        W57889  30.365  25.225   0.648
85564W        W57890  42.245  25.713   2.697
85565W        W57891  20.781  42.537   2.319
85566W        W57892  42.790   2.106   2.160
85567W        W57893   5.327  32.911  11.459
85568W        W57894  11.049  21.470  12.541
85569W        W57895  22.374  38.306   2.067
85570W        W57896  17.792  17.681  12.367
85571W        W57897  16.944  37.503  13.135
85572W        W57898   3.346  43.479   3.403
85573W        W57899  19.516  19.565   3.408
85574W        W57900  14.653  27.445  12.412
85575W        W57901  12.072  13.538  13.816
85576W        W57902  18.632   6.847  12.967
85577W        W57903  21.804   0.342   1.265
85578W        W57904  26.115  25.892   2.795
85579W        W57905   2.401  33.982  10.875
85580W        W57906  38.316  23.555   2.256
85581W        W57907  11.362  21.648  13.852
85582W        W57908   2.458  44.449   0.728
85583W        W57909  33.830  23.262   1.846
85584W        W57910  23.074  38.899   2.224
85585W        W57911  41.062  30.855  12.548
85586W        W57912   5.382  41.038   1.367
85587W        W57913  20.709  43.329   0.172
85588W        W57914  32.372  15.669   3.764
85589W        W57915  42.316  40.375   4.859
85590W        W57916  37.124  17.119  12.120
85591W        W57917  17.081  16.185   4.233
85592W        W57918  38.536   1.035   0.001
85593W        W57919  29.639  11.480   2.785
85594W        W57920   4.191  14.756   2.722
85595W        W57921  40.740  25.644   3.887
85596W        W57922  23.489   0.215  13.529
85597W        W57923  18.117  37.049   2.742
85598W        W57924   8.196   5.376  11.753
85599W        W57925   1.192   9.793  12.521
85600W        W57926   1.242  38.627   2.933
85601W        W57927  10.625  18.224  11.098
85602W        W57928   6.418  23.494  13.594
85603W        W57929  24.139   6.871  14.375
85604W        W57930  40.860  27.978  11.939
85605W        W57931   1.652   4.317   2.180
85606W        W57932  32.429  35.023  13.781
85607W        W57933  21.574  26.378  12.077
85608W        W57934  21.301   3.152   4.168
85609W        W57935   0.835  27.844   0.124
85610W        W57936   4.282  22.727   3.080
85611W        W57937  38.572  34.989   4.076
85612W        W57938   8.250  28.096   2.365
85613W        W57939  18.803  41.033   2.607
85614W        W57940  14.592  14.542  10.777
85615W        W57941  44.350  35.792   1.864
85616W        W57942  40.886  13.044  14.029
85617W        W57943   3.114  36.071   2.268
85618W        W57944  23.332  22.506   3.022
85619W        W57945  33.390  39.280   0.203
85620W        W57946  12.814   2.059  13.482
85621W        W57947  14.858  27.170   2.227
85622W        W57948  15.881  15.518  14.327
85623W        W57949  13.889  31.484   1.935
85624W        W57950  42.025  42.274  12.419
85625W        W57951  44.229  36.240  12.183
85626W        W57952   6.140   7.631   0.440
85627W        W57953   7.522  30.897   4.215
85628W        W57954  38.568  33.515   5.029
85629W        W57955   0.504   6.971   0.894
85630W        W57956  14.676   2.511   0.433
85631W        W57957   8.976   5.823   1.854
85632W        W57958  38.334  38.206  14.689
85633W        W57959   8.661  12.816   3.649
85634W        W57960   4.905   0.535   5.022
85635W        W57961   9.899  30.966   4.572
85636W        W57962  10.550  12.550   2.152
85637W        W57963  30.287  21.292   0.252
85638W        W57964  16.969  40.573   4.301
85639W        W57965  36.000  35.752   1.221
85640W        W57966  13.896  29.999   5.022
85641W        W57967  12.793  42.920   1.750
85642W        W57968  43.752  37.374   2.869
85643W        W57969  40.459   0.461   2.286
85644W        W57970  14.890  25.111  10.629
85645W        W57971  22.561  29.518   3.111
85646W        W57972  17.163  25.926   3.131
85647W        W57973  20.856  40.825  12.357
85648W        W57974  32.730  28.420   0.824
85649W        W57975  33.936  39.027  10.690
85650W        W57976   7.295  20.975  13.393
85651W        W57977  21.607  34.601   0.383
85652W        W57978  29.531   5.147  14.792
85653W        W57979  30.587  37.111   4.885
85654W        W57980   4.224   4.227   5.063
85655W        W57981  18.629  23.246  12.788
85656W        W57982   1.460  20.401   1.931
85657W        W57983  30.061   3.078  12.910
85658W        W57984  13.685   2.037   3.279
85659W        W57985  15.711  12.532  13.312
85660W        W57986  39.293  32.976   2.226
85661W        W57987  21.777  31.881  11.496
85662W        W57988  37.623  12.246   4.678
85663W        W57989  17.633  19.997   3.190
85664W        W57990  20.307  44.178   4.593
85665W        W57991  34.645  19.023  14.873
85666W        W57992  20.006  22.136   4.252
85667W        W57993  41.995   8.616  11.587
85668W        W57994  42.058  33.961  10.717
85669W        W57995  27.074  16.157   2.409
85670W        W57996  31.645  17.827  11.751
85671W        W57997  22.459   7.015   1.763
85672W        W57998  17.136   9.394  12.902
85673W        W57999  43.049  29.417  13.399
85674W        W58000   9.826  35.804  12.966
85675W        W58001  25.570  29.011  14.800
85676W        W58002   8.690  27.912  11.114
85677W        W58003  35.576  42.830  14.747
85678W        W58004  27.254  21.572   0.041
85679W        W58005  13.220  21.972  12.525
85680W        W58006  36.405  36.848   0.421
85681W        W58007  13.870  35.071   3.667
85682W        W58008  11.184  42.457  10.689
85683W        W58009   3.822  43.087   4.699
85684W        W58010  38.136  25.793  13.119
85685W        W58011  37.338  44.861   4.153
85686W        W58012   9.241   4.680   0.031
85687W        W58013  42.820  34.945  13.829
85688W        W58014  31.672   2.763   0.473
85689W        W58015  11.093  12.623   0.793
85690W        W58016   6.996  13.281   1.828
85691W        W58017  12.711   2.447  13.107
85692W        W58018  13.245  30.147  11.351
85693W        W58019  36.512   4.197  13.667
85694W        W58020  42.875   5.284  11.531
85695W        W58021   3.759  29.447  14.012
85696W        W58022  36.499  44.264   2.702
85697W        W58023  42.775  38.422  14.089
85698W        W58024  34.950  23.893  12.761
85699W        W58025  24.705   4.664   2.173
85700W        W58026  40.829  30.657   4.788
85701W        W58027   0.336  39.276   2.848
85702W        W58028  25.984  30.916  12.525
85703W        W58029   5.052  16.644   3.190
85704W        W58030  39.441  19.241   1.870
85705W        W58031  44.068  35.750  12.086
85706W        W58032  32.470  42.261  11.675
85707W        W58033  42.343  16.597  10.665
85708W        W58034  41.903  31.075   2.612
85709W        W58035   6.279  39.541   3.395
85710W        W58036  31.193  30.138  11.221
85711W        W58037   8.094  41.781  12.996
85712W        W58038  33.402   1.543  13.993
85713W        W58039   7.377  15.793   3.852
85714W        W58040  30.896   8.909   1.849
85715W        W58041  24.282   5.783  10.408
85716W        W58042  36.962  29.098   3.981
85717W        W58043   0.361  17.344   1.826
85718W        W58044  11.958  10.076   4.256
85719W        W58045  34.568  26.330  11.055
85720W        W58046  28.501   7.664   2.768
85721W        W58047  31.673  24.044  11.603
85722W        W58048  42.997  41.036   1.232
85723W        W58049  44.874  13.382  14.343
85724W        W58050  21.559   2.867   4.652
85725W        W58051   8.654  28.173   1.745
85726W        W58052  23.196  28.361  11.609
85727W        W58053   9.631  10.380   0.282
85728W        W58054   5.433  27.420   4.633
85729W        W58055  18.679  27.396   3.746
85730W        W58056   6.533  22.517   2.744
85731W        W58057  44.081   2.756   4.433
85732W        W58058  28.246  27.595  12.073
85733W        W58059  26.743  16.704   2.588
85734W        W58060  36.170  19.713  11.159
85735W        W58061  39.175  32.192  12.545
85736W        W58062  16.357   1.742   0.925
85737W        W58063  14.531  28.575  12.994
85738W        W58064  32.126  36.020  10.068
85739W        W58065   6.715  10.703   2.026
85740W        W58066  41.520  19.515   2.767
85741W        W58067   6.210  42.946  11.634
85742W        W58068   7.803   8.818   2.781
85743W        W58069   1.694  13.063   3.285
85744W        W58070  44.684  33.441   3.680
85745W        W58071  23.603  40.901  10.405
85746W        W58072  40.941  28.585  14.824
85747W        W58073  21.517  38.032  11.525
85748W        W58074   8.830  12.871   0.803
85749W        W58075  25.602  34.645  11.144
85750W        W58076  43.497  43.774  14.783
85751W        W58077  32.206  26.925   4.329
85752W        W58078  23.083  18.176  10.700
85753W        W58079  29.352  28.605  12.553
85754W        W58080  36.837  11.095   0.254
85755W        W58081  11.234  28.241   0.400
85756W        W58082  43.914  33.010  13.068
85757W        W58083   1.000  44.386   2.195
85758W        W58084  15.767  21.076   1.812
85759W        W58085  37.551  32.939   0.061
85760W        W58086  26.170  12.191  12.682
85761W        W58087  10.336   6.835   4.383
85762W        W58088  13.547  41.479   3.173
85763W        W58089  34.892  28.213   2.127
85764W        W58090   8.363  32.503  13.341
85765W        W58091  32.678   2.148  11.201
85766W        W58092  26.151  27.109  14.009
85767W        W58093  23.805  11.524  14.975
85768W        W58094  19.769  41.888   0.680
85769W        W58095  25.183  39.196  12.419
85770W        W58096   9.882  43.459  11.923
85771W        W58097  20.597  14.157   2.265
85772W        W58098  22.103  35.111   2.915
85773W        W58099   7.076  13.829   2.226
85774W        W58100   3.233  37.723   2.393
85775W        W58101  36.495  25.703   0.313
85776W        W58102  30.945  33.374   2.236
85777W        W58103   4.780  32.368   4.618
85778W        W58104  32.707  37.862   0.968
85779W        W58105  33.979   8.575  12.971
85780W        W58106  14.391  37.983  12.853
85781W        W58107  12.468  36.239   1.224
85782W        W58108  25.469  28.156   4.543
85783W        W58109  37.675   8.282  10.511
85784W        W58110  21.953   9.690   1.740
85785W        W58111  18.312   3.676  11.250
85786W        W58112  13.517  32.785  11.224
85787W        W58113  16.269  38.634   2.686
85788W        W58114  27.806  19.068  11.069
85789W        W58115  41.573  36.182   2.796
85790W        W58116  26.417  20.502  14.875
85791W        W58117   9.313   0.235   0.874
85792W        W58118  18.250  22.083  10.474
85793W        W58119  13.254  16.066   1.802
85794W        W58120  12.700   0.171  14.242
85795W        W58121  36.031  26.817  12.559
85796W        W58122  18.896  17.847  14.767
85797W        W58123  14.123  43.665  14.334
85798W        W58124   5.468  29.431  14.333
85799W        W58125   3.789  23.644  13.049
85800W        W58126  33.830  37.141  13.538
85801W        W58127  12.168  22.331   2.784
85802W        W58128   2.804  27.925   2.305
85803W        W58129  42.479  40.577  10.562
85804W        W58130  28.467   4.739  14.475
85805W        W58131  17.092  39.968   3.647
85806W        W58132   2.208  28.927  13.278
85807W        W58133  34.495   2.243   4.548
85808W        W58134  10.610  38.671   1.496
85809W        W58135  35.428   0.829   3.394
85810W        W58136  43.916  36.551  10.472
85811W        W58137  33.415   2.321   0.368
85812W        W58138  25.691  13.191   4.169
85813W        W58139  35.327  22.042   3.466
85814W        W58140   4.180  38.891   1.312
85815W        W58141  13.056  25.451   1.183
85816W        W58142  38.364  14.249  13.748
85817W        W58143  31.471  18.149   4.580
85818W        W58144   8.314   5.102  13.417
85819W        W58145  36.025  42.898  13.107
85820W        W58146   0.965  10.778   5.158
85821W        W58147   1.345  23.932   4.050
85822W        W58148  43.745   8.301   1.011
85823W        W58149  36.179  43.941   1.703
85824W        W58150  22.104  26.496   2.501
85825W        W58151   1.015  34.996   2.334
85826W        W58152  32.978   3.439  13.406
85827W        W58153   1.015  44.031   3.393
85828W        W58154  13.025  42.716   2.699
85829W        W58155  34.931  13.755   1.333
85830W        W58156  25.221  12.363   3.318
85831W        W58157   3.410  16.497   0.038
85832W        W58158  22.711   4.543  13.764
85833W        W58159  28.069  11.277   2.787
85834W        W58160  10.037  20.142   2.974
85835W        W58161  16.350  43.942  11.139
85836W        W58162  41.787   8.467  10.691
85837W        W58163  12.623   2.941  13.319
85838W        W58164  30.772   6.847   4.975
85839W        W58165  24.799  17.215   4.922
85840W        W58166  27.470  33.078   2.281
85841W        W58167  17.124  42.101   0.911
85842W        W58168  28.878  10.316   4.774
85843W        W58169  14.148   6.337  13.421
85844W        W58170  32.838  20.783  13.986
85845W        W58171  42.416  22.434   0.669
85846W        W58172  33.042  41.798  14.818
85847W        W58173  13.173  17.002   4.579
85848W        W58174  22.654  32.565  10.842
85849W        W58175  40.644  43.940   3.624
85850W        W58176  34.047   2.640   4.694
85851W        W58177   7.746  44.802   4.598
85852W        W58178  13.752   1.622  13.502
85853W        W58179  11.358   8.246  13.789
85854W        W58180  27.684   0.189   3.208
85855W        W58181   8.338  35.180   4.529
85856W        W58182  13.314   0.436   2.922
85857W        W58183  24.059  24.592   3.409
85858W        W58184  29.159  15.191  14.671
85859W        W58185   0.326  16.050   0.400
85860W        W58186  19.615   0.231  13.715
85861W        W58187   7.363  12.406   2.257
85862W        W58188  41.623  29.917  13.541
85863W        W58189  18.379  23.147   0.951
85864W        W58190  35.534  27.925  14.458
85865W        W58191   4.088  18.521   1.311
85866W        W58192   2.822  37.867   4.818
85867W        W58193  33.970   7.306  10.746
85868W        W58194  27.825  18.999   2.146
85869W        W58195   3.072  10.595  13.312
85870W        W58196  34.474  22.461  12.849
85871W        W58197  18.923   6.285   5.027
85872W        W58198   1.087  17.142  10.034
85873W        W58199  42.249   0.844   2.141
85874W        W58200  26.670  39.296  13.927
85875W        W58201  31.370  37.605  10.063
85876W        W58202   9.823  27.609  10.700
85877W        W58203  25.614  44.012   2.208
85878W        W58204  12.239  20.273  13.487
85879W        W58205  38.580  24.005  10.720
85880W        W58206   4.863  33.448   4.607
85881W        W58207  26.925  20.453  14.028
85882W        W58208  25.512  36.111   2.616
85883W        W58209  28.626  39.952   0.726
85884W        W58210  41.611  33.801   3.201
85885W        W58211  25.208  13.399  12.995
85886W        W58212  11.027  41.694   4.173
85887W        W58213  37.189   5.217  12.053
85888W        W58214   7.231   4.237  10.245
85889W        W58215  19.693  44.972  11.620
85890W        W58216  41.402  26.451  14.788
85891W        W58217   6.843  10.158   2.736
85892W        W58218  26.132  29.070  11.251
85893W        W58219  17.528  18.574   1.713
85894W        W58220   2.324  44.845  14.118
85895W        W58221  36.393  40.856  13.770
85896W        W58222   9.728  21.004  11.146
85897W        W58223   2.428   2.693  13.696
85898W        W58224  10.323  20.189   1.988
85899W        W58225  29.030  34.660  14.197
85900W        W58226  35.592  23.010   2.457
85901W        W58227  19.122  28.507   1.468
85902W        W58228   7.567  22.098  14.887
85903W        W58229   9.369  41.307  10.713
85904W        W58230   3.617   2.311   3.995
85905W        W58231   4.255  16.345   3.694
85906W        W58232  10.605  25.721   2.532
85907W        W58233  26.216  11.227   3.340
85908W        W58234  42.030   4.261  11.888
85909W        W58235  13.742  43.293   3.663
85910W        W58236  36.439  29.618   3.840
85911W        W58237  28.988  42.275   0.844
85912W        W58238  23.936   5.895  14.722
85913W        W58239  13.334   0.793   2.503
85914W        W58240  27.094   8.270   3.080
85915W        W58241  32.414  38.807   3.765
85916W        W58242   8.107   4.790   4.149
85917W        W58243  38.044  29.481   3.598
85918W        W58244   7.127  32.436   2.288
85919W        W58245   8.944   7.037   1.302
85920W        W58246  31.602  21.139   0.855
85921W        W58247  28.223  16.708   1.460
85922W        W58248   7.731  21.340  10.595
85923W        W58249  18.098  26.036   2.148
85924W        W58250  19.932  11.589  12.030
85925W        W58251  34.511  41.677  11.155
85926W        W58252  25.159  10.296  12.038
85927W        W58253  38.925  23.749  13.350
85928W        W58254   5.482  43.851  12.057
85929W        W58255   5.858  22.288   1.262
85930W        W58256   0.657  38.352  12.469
85931W        W58257   3.802  44.034  12.488
85932W        W58258   5.475  30.914   2.752
85933W        W58259  11.670  35.689   2.785
85934W        W58260   8.930  25.786  13.341
85935W        W58261  23.792  20.167  12.047
85936W        W58262  18.410  37.359  13.868
85937W        W58263  33.420  17.089  13.517
85938W        W58264  25.939  27.765  13.320
85939W        W58265  16.059  18.735   0.876
85940W        W58266  27.116  16.162  13.500
85941W        W58267  40.692   7.273  13.475
85942W        W58268  28.551  10.729  11.285
85943W        W58269  22.938  10.364  13.950
85944W        W58270   6.971  12.070   2.353
85945W        W58271   0.764  25.220   0.368
85946W        W58272  41.045  21.184   0.020
85947W        W58273  24.937   2.792   1.906
85948W        W58274  32.913  42.481  10.602
85949W        W58275  22.592   6.125   1.432
85950W        W58276   5.543   3.270   3.126
85951W        W58277  24.667  14.433   4.978
85952W        W58278  28.843  40.520   4.918
85953W        W58279  38.368  20.265   2.966
85954W        W58280  23.455   2.394  11.606
85955W        W58281  34.040  33.089   4.662
85956W        W58282  29.210  22.185   0.774
85957W        W58283  19.991   5.372   3.547
85958W        W58284   7.834  26.579   4.559
85959W        W58285  11.208   0.479   4.471
85960W        W58286  11.253  32.881  11.059
85961W        W58287  19.970   6.260   4.356
85962W        W58288  39.447  44.435  13.503
85963W        W58289  35.823  10.708   3.765
85964W        W58290  33.950  34.842  13.616
85965W        W58291  35.422   7.741   0.677
85966W        W58292  41.841   3.275  13.341
85967W        W58293  41.052   5.370  12.942
85968W        W58294  35.017   5.669   0.455
85969W        W58295   9.185  17.658   3.757
85970W        W58296  39.476   7.376   1.337
85971W        W58297  28.472   8.079  12.155
85972W        W58298   9.211  20.177  13.220
85973W        W58299  21.663  35.481   4.899
85974W        W58300  19.013  35.607   1.918
85975W        W58301   1.930  25.282   4.577
85976W        W58302   6.980  19.726   3.310
85977W        W58303   1.230  22.679  13.995
85978W        W58304  17.635  35.125  11.298
85979W        W58305  15.219  39.590   2.670
85980W        W58306  39.980  43.408  13.561
85981W        W58307  29.516  31.938  11.058
85982W        W58308   9.844  29.222  13.498
85983W        W58309  22.191  31.494  13.985
85984W        W58310   6.419   7.296  14.096
85985W        W58311  38.055   9.943   9.844
85986W        W58312  33.404   0.309   3.337
85987W        W58313  15.687  26.780   1.736
85988W        W58314  11.795  34.419  12.826
85989W        W58315  37.606  16.446   3.144
85990W        W58316  18.730  32.938   3.372
85991W        W58317  19.557   0.473   4.724
85992W        W58318   8.046  31.618   3.705
85993W        W58319  16.967  25.155  11.831
85994W        W58320   9.688  13.454  11.973
85995W        W58321  10.800  29.187  12.103
85996W        W58322  14.641  10.776  13.949
85997W        W58323   7.902  40.824   2.215
85998W        W58324  14.335   3.652  12.070
85999W        W58325  44.776  41.579   3.236
86000W        W58326  35.971  21.418  11.972
86001W        W58327  11.734  27.514  14.011
86002W        W58328  25.087  35.905   4.690
86003W        W58329   5.264  24.250  13.415
86004W        W58330   3.787   7.343   1.445
86005W        W58331  38.427  23.650  14.540
86006W        W58332  34.606  15.775   0.477
86007W        W58333  35.176  30.551   1.500
86008W        W58334  18.257  18.787  11.088
86009W        W58335  35.993  20.327   0.480
86010W        W58336  38.130   1.519   2.327
86011W        W58337  27.046  15.038  13.024
86012W        W58338  16.292  24.009   4.209
86013W        W58339  22.758   7.702   2.956
86014W        W58340  10.688  14.713  14.036
86015W        W58341  16.293  41.051  13.894
86016W        W58342  37.089  35.944  12.141
86017W        W58343  40.517  41.827  11.599
86018W        W58344  12.361  23.497   4.342
86019W        W58345  43.751   4.454   2.157
86020W        W58346  12.282  27.492   2.387
86021W        W58347  41.449   2.285   4.179
86022W        W58348  11.527  11.841   4.388
86023W        W58349  17.898  22.519   0.750
86024W        W58350  36.853  33.352   2.615
86025W        W58351  23.589  41.765  11.663
86026W        W58352  21.974  38.551  10.580
86027W        W58353  33.535   9.430   1.360
86028W        W58354  24.111  15.119  12.191
86029W        W58355  23.154  28.007   1.381
86030W        W58356   5.351   4.907   3.778
86031W        W58357  13.779  33.447   4.208
86032W        W58358  24.658  20.173  14.972
86033W        W58359  42.895  22.616   0.577
86034W        W58360  15.992  36.902  14.982
86035W        W58361  38.589  34.858   0.956
86036W        W58362   7.915  29.390   0.864
86037W        W58363  36.629  23.174   1.461
86038W        W58364  13.382  33.690   0.365
86039W        W58365  30.339  19.261   0.850
86040W        W58366  29.023   1.942   2.657
86041W        W58367  25.616   7.821   0.127
86042W        W58368   7.267   9.821  13.922
86043W        W58369  24.089  35.601  13.895
86044W        W58370  22.645  15.597   4.547
86045W        W58371  28.203  14.246   0.414
86046W        W58372  39.494  40.918  10.889
86047W        W58373  12.778  20.426   1.557
86048W        W58374  42.303  18.081   0.924
86049W        W58375  24.452   8.749  12.888
86050W        W58376  40.438  28.726   0.732
86051W        W58377   5.037  42.427  13.563
86052W        W58378  37.770  15.227  11.652
86053W        W58379  36.334  43.227  11.054
86054W        W58380  37.101  18.036  10.388
86055W        W58381  18.662  18.982   1.867
86056W        W58382  21.409  26.029  12.977
86057W        W58383  42.092  39.373  14.781
86058W        W58384  22.185   0.303   2.613
86059W        W58385  23.247   2.794  12.434
86060W        W58386  13.284  30.422   3.109
86061W        W58387  10.368   7.143   1.720
86062W        W58388  36.478  15.744   1.223
86063W        W58389  44.727  41.975  14.349
86064W        W58390  37.426   0.995   2.392
86065W        W58391  31.656  40.469  11.445
86066W        W58392  20.128  25.685  13.241
86067W        W58393   1.847   0.799   0.066
86068W        W58394  12.193  11.735   0.444
86069W        W58395  25.048  20.803   3.295
86070W        W58396  16.568  44.850   3.213
86071W        W58397  33.038   9.622   4.870
86072W        W58398  10.916  38.430  13.568
86073W        W58399  11.667  10.278  11.855
86074W        W58400  40.023  22.270   0.913
86075W        W58401  40.862  38.551   2.148
86076W        W58402  44.262   2.772  11.507
86077W        W58403   6.942   5.169   3.771
86078W        W58404  28.926  16.068   3.530
86079W        W58405  32.377  18.690   1.867
86080W        W58406  39.465   1.765  14.365
86081W        W58407  21.024  27.360   1.847
86082W        W58408  29.534  36.080   4.777
86083W        W58409  35.922  26.306  12.518
86084W        W58410  29.381   6.247   5.109
86085W        W58411  24.475  37.248   4.115
86086W        W58412   9.109  40.845   1.753
86087W        W58413  25.108   2.291  10.732
86088W        W58414   4.338  37.592  12.688
86089W        W58415  14.292  26.748  12.779
86090W        W58416  16.259   2.668   2.998
86091W        W58417  32.066  14.363  14.308
86092W        W58418   7.904  37.896   3.103
86093W        W58419  27.727  44.731  13.886
86094W        W58420  30.643  33.654   0.854
86095W        W58421   9.191  36.084   3.592
86096W        W58422   3.942  22.706   1.237
86097W        W58423  37.662  32.874  12.100
86098W        W58424  26.055   1.886   0.268
86099W        W58425  19.775   9.230   3.141
86100W        W58426  10.695   8.367   3.754
86101W        W58427   2.724  38.433  13.463
86102W        W58428  15.041  16.148   4.606
86103W        W58429   2.530   3.019   0.402
86104W        W58430  19.513  38.039  11.589
86105W        W58431  15.319  40.413  11.094
86106W        W58432   1.216  35.845   3.814
86107W        W58433   1.421  21.506   9.759
86108W        W58434  35.821   2.332   4.775
86109W        W58435  22.503  22.137   3.382
86110W        W58436  23.734  35.880  13.061
86111W        W58437   4.450   3.443  14.805
86112W        W58438  18.645  15.860  13.932
86113W        W58439  35.112  13.755   3.288
86114W        W58440  12.897  31.377  12.540
86115W        W58441  19.110   3.965   4.291
86116W        W58442  25.548   4.649  11.865
86117W        W58443  24.176  30.350   0.747
86118W        W58444  30.145   8.705   3.807
86119W        W58445  27.220  30.719   3.545
86120W        W58446  43.233  15.715   0.585
86121W        W58447   8.821  21.753  11.663
86122W        W58448  11.400   5.737  11.032
86123W        W58449  12.840  25.141   2.081
86124W        W58450   7.685   3.666  14.486
86125W        W58451  11.706  19.138   0.270
86126W        W58452  17.114  31.083  14.333
86127W        W58453   0.891  34.503   4.499
86128W        W58454   8.672  44.046  11.960
86129W        W58455  17.074  28.492  12.870
86130W        W58456  18.997  22.284  13.560
86131W        W58457  20.544   1.858   0.437
86132W        W58458  38.508  39.561   3.615
86133W        W58459  13.556  34.920  14.388
86134W        W58460  15.955  28.086   4.879
86135W        W58461  41.948  25.020  11.659
86136W        W58462  23.579  36.055  14.472
86137W        W58463  12.618   2.014  12.479
86138W        W58464   6.713   9.166   3.495
86139W        W58465  24.452  42.405  11.872
86140W        W58466  32.146  32.180   0.972
86141W        W58467   5.357  37.010  14.952
86142W        W58468  36.099   4.006   1.305
86143W        W58469  40.601  44.535   2.233
86144W        W58470  39.593  16.748   1.464
86145W        W58471  41.766  36.060  12.982
86146W        W58472  43.121  39.545  10.620
86147W        W58473  25.047   8.740  11.430
86148W        W58474  41.040   6.778  12.066
86149W        W58475  35.082  36.382  13.480
86150W        W58476   3.426   9.838  11.517
86151W        W58477  41.993  19.149  13.113
86152W        W58478  24.973  39.526   0.745
86153W        W58479  24.260  44.864  14.823
86154W        W58480  26.694  18.597  11.955
86155W        W58481  43.221  38.053  14.799
86156W        W58482  19.299  26.178   4.380
86157W        W58483   5.209   8.434  14.031
86158W        W58484  21.782  17.740   4.781
86159W        W58485  36.958  28.031  10.439
86160W        W58486  26.411   8.378  12.115
86161W        W58487  33.726  36.066   2.382
86162W        W58488  40.900  19.251  11.169
86163W        W58489  35.179  15.429   0.530
86164W        W58490   3.657  40.983   0.865
86165W        W58491  28.570  19.283  14.422
86166W        W58492  13.661  36.603   3.266
86167W        W58493  18.343   7.655  10.729
86168W        W58494  15.513   7.757  13.017
86169W        W58495  21.491  22.093  14.612
86170W        W58496  39.562  18.665  11.555
86171W        W58497  22.469  42.961  11.093
86172W        W58498  29.901  35.179  11.386
86173W        W58499   8.706  32.376   5.006
86174W        W58500  36.658  12.689   9.747
86175W        W58501   4.191  11.562  14.762
86176W        W58502  38.739  12.914  14.538
86177W        W58503  39.970  29.971  13.353
86178W        W58504  13.101  27.735   0.683
86179W        W58505  43.001  16.952   3.206
86180W        W58506  31.724   2.760   3.633
86181W        W58507  29.518  44.756  14.353
86182W        W58508  40.834  30.437  11.731
86183W        W58509  31.999  21.045   2.927
86184W        W58510  40.517   2.808   1.090
86185W        W58511  23.309  34.425   1.763
86186W        W58512   7.144   8.913   1.233
86187W        W58513  38.291  13.205   5.019
86188W        W58514  41.985  44.047   0.755
86189W        W58515  30.552  10.674  10.766
86190W        W58516  25.080  26.940   4.733
86191W        W58517  30.006  40.471   3.399
86192W        W58518  35.105  12.852  13.455
86193W        W58519   1.004   1.493   1.917
86194W        W58520  28.227   7.131   3.142
86195W        W58521  22.210  24.207   1.211
86196W        W58522  41.366  36.617   1.204
86197W        W58523   3.611  31.971   2.263
86198W        W58524  30.798  14.785  14.160
86199W        W58525  40.312   5.369   0.464
86200W        W58526  36.250  31.525  10.695
86201W        W58527  26.325  35.850   1.157
86202W        W58528   6.194  35.118  10.492
86203W        W58529  37.005  25.175  11.554
86204W        W58530  12.820  32.535   2.779
86205W        W58531  16.243  33.329   0.771
86206W        W58532  20.776  36.835   2.293
86207W        W58533   2.384  38.007   0.145
86208W        W58534  11.667  21.168   0.490
86209W        W58535  24.524   5.178  11.061
86210W        W58536  24.992   7.811  13.745
86211W        W58537   0.908   2.765   4.139
86212W        W58538  33.939  33.278   4.202
86213W        W58539  31.600  11.782   0.223
86214W        W58540   7.111  33.532  13.488
86215W        W58541   9.657  15.064   3.232
86216W        W58542  18.757  35.482  14.884
86217W        W58543  36.064  23.514   3.217
86218W        W58544  32.130  15.179   3.873
86219W        W58545  13.048  22.816   2.354
86220W        W58546  40.743   6.318  14.916
86221W        W58547  10.146  11.730   3.119
86222W        W58548   1.092  36.273   5.106
86223W        W58549  29.740   7.294   0.277
86224W        W58550  40.279   9.059  10.749
86225W        W58551  13.839   2.885  13.251
86226W        W58552  32.878   5.240   1.215
86227W        W58553  24.382  16.022   2.770
86228W        W58554  31.082   4.785  12.895
86229W        W58555  38.622  32.168  13.607
86230W        W58556  21.954  39.524   5.119
86231W        W58557   7.954  41.007  11.679
86232W        W58558  36.338  32.756   4.495
86233W        W58559   2.758  14.541   4.811
86234W        W58560  27.964   0.923   0.045
86235W        W58561  42.486  39.740  14.797
86236W        W58562  19.961  42.824  13.504
86237W        W58563  12.839  40.048  13.976
86238W        W58564  25.712  41.939   2.559
86239W        W58565  30.980   3.852   4.828
86240W        W58566   5.331  40.806   0.889
86241W        W58567  10.904   4.526  14.726
86242W        W58568  35.025   9.074  14.633
86243W        W58569  35.763  35.451  12.154
86244W        W58570  32.450  32.853  12.447
86245W        W58571   4.385  42.454  12.314
86246W        W58572  35.883  36.526  14.853
86247W        W58573   6.715  30.517   4.277
86248W        W58574  22.669   8.962  14.902
86249W        W58575  24.124  34.518  12.083
86250W        W58576  12.237  20.463  11.170
86251W        W58577  42.312   4.718  13.724
86252W        W58578  29.310  16.876   9.850
86253W        W58579  43.875  14.754   3.413
86254W        W58580  41.829  34.676   1.439
86255W        W58581  34.969   0.816   9.926
86256W        W58582  10.448  34.510   1.028
86257W        W58583  32.795   5.728  14.343
86258W        W58584   0.780   7.209  12.048
86259W        W58585  24.789  38.134  12.201
86260W        W58586  15.283  17.717  11.861
86261W        W58587  25.735  30.875   0.511
86262W        W58588  40.808  20.783  10.494
86263W        W58589  27.018  44.251   3.146
86264W        W58590  18.819  20.080   2.702
86265W        W58591  42.839  27.487   3.183
86266W        W58592  41.885  33.155   1.305
86267W        W58593  13.938  10.357   4.840
86268W        W58594   0.921  30.883   4.071
86269W        W58595  17.419  27.344  13.544
86270W        W58596  33.062   2.741   1.471
86271W        W58597  16.530  12.223  14.886
86272W        W58598  15.165  32.501   0.563
86273W        W58599  10.107   0.457  14.309
86274W        W58600   9.626   0.879  11.456
86275W        W58601  13.805  13.438   2.818
86276W        W58602  37.907  31.618   1.434
86277W        W58603   4.523   2.311   9.824
86278W        W58604  16.787  11.863   3.316
86279W        W58605  36.924  10.850   4.721
86280W        W58606  10.415   4.260  12.393
86281W        W58607  37.802  32.892  14.285
86282W        W58608  37.603  26.197   2.324
86283W        W58609  36.088  25.092  11.162
86284W        W58610  33.995  11.289  14.090
86285W        W58611  41.753  10.226  11.028
86286W        W58612  18.569   4.809   2.804
86287W        W58613   6.903  11.571   3.784
86288W        W58614  15.124  32.136   2.331
86289W        W58615  25.432  44.818  10.771
86290W        W58616  13.582  20.941   4.301
86291W        W58617  13.784  43.966   4.367
86292W        W58618   0.855  18.333  12.006
86293W        W58619   5.928   0.013   0.388
86294W        W58620  13.739  31.609   0.973
86295W        W58621  17.019   9.846  12.686
86296W        W58622   7.799   9.067   4.232
86297W        W58623   4.171  28.103  14.352
86298W        W58624   3.375   9.895   3.652
86299W        W58625  13.156  28.015   2.197
86300W        W58626  19.557  15.298   4.092
86301W        W58627  19.707  37.389   0.767
86302W        W58628  27.586  44.451   3.904
86303W        W58629  23.755  19.482  11.519
86304W        W58630  16.080   3.009   3.828
86305W        W58631  22.687  24.228   1.934
86306W        W58632  10.155  39.328  11.269
86307W        W58633  20.027  31.944   2.718
86308W        W58634   9.092  14.228   5.043
86309W        W58635  29.893  12.818   1.353
86310W        W58636  30.048  10.690   3.088
86311W        W58637   3.435  11.802   4.589
86312W        W58638  44.903   2.308  14.372
86313W        W58639  26.447  26.498   3.820
86314W        W58640  44.419  38.518   3.217
86315W        W58641  38.528   9.132   0.594
86316W        W58642  14.132  36.916   1.432
86317W        W58643  27.620  31.614  14.788
86318W        W58644  35.103  24.010  11.015
86319W        W58645  29.535  33.932   4.166
86320W        W58646  28.606  21.731   0.420
86321W        W58647  39.994  12.392   2.691
86322W        W58648  14.705   5.621   4.481
86323W        W58649  17.122  44.262   1.406
86324W        W58650  24.504  25.159  12.071
86325W        W58651  16.819  42.966  11.516
86326W        W58652  37.003  29.198  14.685
86327W        W58653  15.228  43.857  12.832
86328W        W58654  33.282  17.264   0.332
86329W        W58655   8.722  21.231  13.416
86330W        W58656  16.764  24.434  14.415
86331W        W58657  20.823  23.803  14.355
86332W        W58658  10.426  32.220   3.692
86333W        W58659  21.530   7.015   4.857
86334W        W58660  43.770  23.636  10.607
86335W        W58661  22.241   1.264   1.381
86336W        W58662  11.736  19.346   2.227
86337W        W58663  27.248   0.442   1.484
86338W        W58664  41.396  33.959  12.575
86339W        W58665   5.368  10.584   0.547
86340W        W58666  13.305   3.449   4.996
86341W        W58667   1.989   5.553  13.297
86342W        W58668  31.906  38.837   3.739
86343W        W58669  43.270   6.207   1.823
86344W        W58670  14.770  44.729   5.043
86345W        W58671  29.091   4.636  10.835
86346W        W58672  26.014  23.382   3.189
86347W        W58673  15.711  40.245  11.513
86348W        W58674   0.319   1.497  11.127
86349W        W58675  43.766  31.157  12.555
86350W        W58676  37.971  33.983   0.409
86351W        W58677  30.762  24.877   5.237
86352W        W58678   3.017  24.640  14.598
86353W        W58679  40.109  40.489  13.078
86354W        W58680  12.250   9.623  13.328
86355W        W58681  17.247  21.223   4.259
86356W        W58682  33.061  40.366   3.109
86357W        W58683  29.476  15.233   4.953
86358W        W58684  17.777  25.377  11.057
86359W        W58685  31.486  33.173  13.950
86360W        W58686  20.174  44.812   0.781
86361W        W58687  37.274   4.135   0.322
86362W        W58688  32.199  31.551  13.344
86363W        W58689  44.912  36.948   0.658
86364W        W58690  43.442  35.068   4.792
86365W        W58691  21.833   5.884  12.425
86366W        W58692  24.003  32.595  13.353
86367W        W58693  44.507  32.237  12.619
86368W        W58694  23.117  15.879   4.658
86369W        W58695  14.849  38.669   2.264
86370W        W58696  28.562   9.834   2.752
86371W        W58697  27.263  10.000  11.520
86372W        W58698  11.755  33.510  14.382
86373W        W58699  30.084  20.253   1.284
86374W        W58700  23.088   6.619  12.435
86375W        W58701  38.394  17.207  14.066
86376W        W58702  11.862  35.835  10.500
86377W        W58703  39.916  34.601  10.999
86378W        W58704  26.130  41.882  11.557
86379W        W58705  29.088  14.288   3.618
86380W        W58706  11.762   3.955   2.121
86381W        W58707   9.618   1.852   0.497
86382W        W58708  15.076  12.251   0.778
86383W        W58709  13.107  26.194  12.582
86384W        W58710  23.395  38.002  13.794
86385W        W58711  12.635   3.284  14.406
86386W        W58712  31.712  16.184  12.397
86387W        W58713  14.899  25.005   4.883
86388W        W58714  39.325   0.438  13.509
86389W        W58715  27.560   7.161  14.628
86390W        W58716  41.836  19.647  13.054
86391W        W58717  40.513  16.077  11.933
86392W        W58718  36.834  43.390  11.182
86393W        W58719   2.389   9.880   3.690
86394W        W58720  29.764  38.424   2.356
86395W        W58721   4.420  20.633  11.697
86396W        W58722  23.037  15.369  11.537
86397W        W58723   9.849  43.922   4.194
86398W        W58724   2.267   0.021  12.865
86399W        W58725  12.727  17.245  14.082
86400W        W58726  34.453  42.519  12.520
86401W        W58727  10.900  17.692  13.890
86402W        W58728  12.587   4.799   4.202
86403W        W58729  27.911  22.225   3.813
86404W        W58730  17.100  39.979   3.114
86405W        W58731  43.436   4.839   1.237
86406W        W58732   5.472  31.342   0.696
86407W        W58733  40.444  12.237   2.408
86408W        W58734   9.893  10.376  11.638
86409W        W58735  35.583  18.020   1.278
86410W        W58736  32.973  40.087   0.747
86411W        W58737  11.338  17.521   2.378
86412W        W58738   8.366  14.824   4.634
86413W        W58739  20.065  42.928  12.579
86414W        W58740   8.665  18.856   0.214
86415W        W58741  20.480  35.585  12.119
86416W        W58742  24.019   6.155  12.115
86417W        W58743  27.704   8.440  12.335
86418W        W58744  16.540  22.022   0.394
86419W        W58745   5.165  37.738   4.395
86420W        W58746  20.035  41.330   3.091
86421W        W58747   6.166  29.804  11.776
86422W        W58748  15.568  36.993  13.085
86423W        W58749  30.877  27.562  14.455
86424W        W58750  36.517  12.623  10.232
86425W        W58751  25.747   2.702   2.316
86426W        W58752  24.443  21.367   2.773
86427W        W58753  30.030   9.433   1.226
86428W        W58754   3.743  18.018   5.116
86429W        W58755  27.540  26.922  12.421
86430W        W58756  22.116  40.870  13.564
86431W        W58757   4.022  41.839   4.105
86432W        W58758  32.848  13.195   2.290
86433W        W58759   7.426   0.612  11.984
86434W        W58760   0.427   3.550   5.078
86435W        W58761  33.137  35.425  10.613
86436W        W58762  32.492   0.210   2.185
86437W        W58763  11.333  21.607  14.940
86438W        W58764  39.587  44.011   1.907
86439W        W58765  40.562   8.040   4.280
86440W        W58766  40.001  10.852   4.935
86441W        W58767  39.523  18.282   2.801
86442W        W58768  13.117  44.967  14.492
86443W        W58769   4.409  13.927  12.462
86444W        W58770   4.633  37.847   1.493
86445W        W58771  28.020  21.843   1.119
86446W        W58772  18.992  14.322  12.960
86447W        W58773  20.138  17.576  14.034
86448W        W58774  10.926  41.507   5.115
86449W        W58775  25.163  29.152  14.484
86450W        W58776   3.618  25.249  12.512
86451W        W58777  16.460  43.424   2.770
86452W        W58778   5.182  17.547  13.485
86453W        W58779  22.483  29.161  13.911
86454W        W58780  44.387  39.039  12.531
86455W        W58781  18.540  27.319  12.057
86456W        W58782  43.606  17.551   4.146
86457W        W58783  29.566  12.526  11.963
86458W        W58784   2.205  14.368  14.264
86459W        W58785  12.875  15.721   2.367
86460W        W58786  44.342   0.019  13.388
86461W        W58787   4.992   8.657   4.522
86462W        W58788  41.272   5.402   4.534
86463W        W58789  44.323  14.649   1.097
86464W        W58790   3.659  20.172  11.284
86465W        W58791  40.975  30.494   1.772
86466W        W58792  18.651  42.036  10.675
86467W        W58793  11.799  33.449  11.495
86468W        W58794  41.950  19.271  11.548
86469W        W58795   6.286  43.844  12.182
86470W        W58796  39.538  29.971   1.015
86471W        W58797  23.136   8.237  14.036
86472W        W58798  40.582  16.115   1.337
86473W        W58799   4.769  35.967  13.985
86474W        W58800  30.151  44.909  13.012
86475W        W58801  26.057  28.056  14.334
86476W        W58802  44.939  24.201  11.617
86477W        W58803  29.954   6.219   3.168
86478W        W58804   7.890  18.256  14.016
86479W        W58805  36.584  30.074  14.721
86480W        W58806  19.460  20.548  14.885
86481W        W58807  27.509   6.241   3.585
86482W        W58808  36.451  30.572  14.492
86483W        W58809  27.215  36.610  14.268
86484W        W58810  20.588  14.306   0.001
86485W        W58811  30.206  29.014  14.475
86486W        W58812  41.909  20.810   2.363
86487W        W58813  22.210  11.735   1.850
86488W        W58814  20.484  20.617  13.257
86489W        W58815  17.741  28.450   1.433
86490W        W58816  28.995  43.283   4.134
86491W        W58817   1.909  35.549  14.553
86492W        W58818  38.027  12.580   4.536
86493W        W58819  41.477  27.609   0.812
86494W        W58820  15.498  17.807  13.848
86495W        W58821   6.698  26.694   2.743
86496W        W58822  12.189  20.407   0.307
86497W        W58823  41.932  11.806  13.230
86498W        W58824  35.637  26.633  10.754
86499W        W58825  23.663  31.938   3.524
86500W        W58826  13.250  34.991   2.692
86501W        W58827   3.416  31.933   3.314
86502W        W58828  44.573  42.470  14.455
86503W        W58829  10.142  24.980  13.681
86504W        W58830  20.244  32.439  14.008
86505W        W58831  26.862   2.521  13.939
86506W        W58832  16.883  12.373   3.346
86507W        W58833  25.221   0.485   2.275
86508W        W58834  44.317   0.959   3.269
86509W        W58835  30.361  33.888   1.996
86510W        W58836  35.201  29.954   0.811
86511W        W58837  26.823  30.730   5.003
86512W        W58838   5.827  32.832  11.621
86513W        W58839   0.705  31.984   1.752
86514W        W58840   4.851   6.610   4.630
86515W        W58841  42.003  13.080  11.584
86516W        W58842  27.376  16.881   3.272
86517W        W58843  44.891  19.220   4.672
86518W        W58844  11.722  44.543  14.907
86519W        W58845   3.283   3.906   1.299
86520W        W58846  27.548   7.681  12.046
86521W        W58847  33.110  15.301  13.544
86522W        W58848  37.352  41.376   2.763
86523W        W58849   3.524  38.119   3.310
86524W        W58850  42.096  38.616  10.671
86525W        W58851  27.019  22.976   0.355
86526W        W58852  11.225  16.373   2.864
86527W        W58853   6.230   3.962  13.927
86528W        W58854  36.718  23.050  12.955
86529W        W58855   2.520  12.504  14.043
86530W        W58856   8.877   2.851   3.443
86531W        W58857  44.745  23.814   3.804
86532W        W58858  24.711   9.989  12.102
86533W        W58859  22.920  39.074   9.637
86534W        W58860   4.518  27.068  11.618
86535W        W58861  16.659   0.774  12.553
86536W        W58862   6.727  21.579  13.922
86537W        W58863  23.462  27.501   3.656
86538W        W58864  30.544  26.294  14.848
86539W        W58865  41.046   2.116  11.018
86540W        W58866  25.197   2.808   3.377
86541W        W58867  17.069  30.708   4.139
86542W        W58868   9.787  40.020  11.065
86543W        W58869   0.240  23.197   1.481
86544W        W58870  22.765  25.003  12.194
86545W        W58871  26.749  26.273  11.078
86546W        W58872   0.768  37.593  13.993
86547W        W58873  16.823  43.922  12.865
86548W        W58874  20.656  30.603  12.059
86549W        W58875  18.164  42.559   4.533
86550W        W58876   4.492  35.544  13.834
86551W        W58877  28.427   5.251  11.482
86552W        W58878  19.157  36.809   2.779
86553W        W58879  44.105   0.090   1.807
86554W        W58880  20.560  13.732  13.855
86555W        W58881   5.899  39.873   3.242
86556W        W58882   1.367  40.587  12.369
86557W        W58883  13.620   1.277  13.861
86558W        W58884  10.042  40.529  12.882
86559W        W58885  31.288  19.583  11.107
86560W        W58886  39.682   3.419   4.426
86561W        W58887  30.094  37.364  11.495
86562W        W58888   8.243   9.809   4.229
86563W        W58889   1.707  42.448   4.660
86564W        W58890  27.678   5.218   3.649
86565W        W58891  28.689   7.828  10.504
86566W        W58892  32.918   8.339  14.895
86567W        W58893  14.905  24.714  10.262
86568W        W58894  30.895   1.979   1.858
86569W        W58895  21.680   6.001  14.981
86570W        W58896   6.320  33.019  13.644
86571W        W58897   8.286  29.042  10.436
86572W        W58898   4.867   7.766  11.451
86573W        W58899   5.992  30.501  12.837
86574W        W58900  36.076  28.491  11.847
86575W        W58901   4.222   1.259  13.151
86576W        W58902  38.426  12.855   4.266
86577W        W58903   7.705  25.015  13.112
86578W        W58904   8.939  32.487   2.913
86579W        W58905   1.877  15.024   4.145
86580W        W58906  19.730  27.636   1.471
86581W        W58907  31.981  41.246  11.154
86582W        W58908  26.021  40.599   1.777
86583W        W58909  32.846   7.612   4.130
86584W        W58910   0.026  28.539  12.386
86585W        W58911  21.066  44.661   2.103
86586W        W58912   3.251  37.810  11.927
86587W        W58913  28.151  15.844  10.465
86588W        W58914  36.969  13.223   5.546
86589W        W58915   6.733  19.726   1.421
86590W        W58916  23.679  25.471  11.510
86591W        W58917  14.262  24.970   0.078
86592W        W58918   7.850   2.248   0.750
86593W        W58919  25.596   7.610   1.519
86594W        W58920  29.243  15.114   3.138
86595W        W58921  33.091   4.686  10.621
86596W        W58922  30.945  13.609  14.368
86597W        W58923   5.784   9.007   0.829
86598W        W58924  13.716  37.517   5.135
86599W        W58925  10.136  14.735  11.896
86600W        W58926  14.235  25.502   4.229
86601W        W58927  42.778   7.942   1.960
86602W        W58928   7.297  43.247  10.582
86603W        W58929   5.925   5.780   1.439
86604W        W58930  26.485  38.461   3.714
86605W        W58931  40.210  36.112   1.016
86606W        W58932  18.140  25.005  12.654
86607W        W58933  14.640  13.124  11.140
86608W        W58934   9.700  22.093  10.875
86609W        W58935  12.343  38.534  12.405
86610W        W58936  26.925  28.931  12.943
86611W        W58937  34.921   1.684  13.942
86612W        W58938  40.598  30.164   2.423
86613W        W58939  16.313  29.123  11.543
86614W        W58940  32.474  12.863  10.617
86615W        W58941  19.601  35.915   2.801
86616W        W58942  17.793  33.441  12.626
86617W        W58943  12.451  20.089  12.142
86618W        W58944   2.465  24.415   3.248
86619W        W58945   4.968  32.939  11.067
86620W        W58946   1.930  13.120   4.269
86621W        W58947  15.777  30.606  10.300
86622W        W58948  40.060  29.474  14.506
86623W        W58949  32.618   1.821   3.272
86624W        W58950  39.521  37.528  14.959
86625W        W58951  16.105  15.657   2.684
86626W        W58952  17.342  22.109  10.710
86627W        W58953   1.655  24.006   5.613
86628W        W58954  27.429  17.764   2.610
86629W        W58955  20.209  24.233  10.706
86630W        W58956  30.421   5.342   3.847
86631W        W58957   6.184  33.869   1.652
86632W        W58958  44.494  42.846   1.416
86633W        W58959  27.481  24.726  11.462
86634W        W58960  10.840  36.409   4.253
86635W        W58961  12.161   0.406  10.590
86636W        W58962  34.570  32.346   4.595
86637W        W58963  22.476   9.717  14.514
86638W        W58964  35.853  30.635  12.614
86639W        W58965  15.047  10.405  14.856
86640W        W58966  39.461  20.094   2.221
86641W        W58967   1.347  14.133  13.824
86642W        W58968   3.801  17.023   1.899
86643W        W58969  31.289  23.537  10.208
86644W        W58970  34.920  17.959   0.453
86645W        W58971  27.507  36.972  12.381
86646W        W58972  44.697  37.592   2.475
86647W        W58973  32.484  42.036  14.030
86648W        W58974  20.072  32.482   0.021
86649W        W58975  33.207   8.931  11.069
86650W        W58976  34.435  16.786   3.885
86651W        W58977  24.209  25.619   3.821
86652W        W58978   3.952  14.169  12.848
86653W        W58979  28.008   3.007  12.980
86654W        W58980   4.609  22.624   3.800
86655W        W58981  11.761  14.160   0.918
86656W        W58982  14.801  29.929   2.078
86657W        W58983  17.567  30.047   0.915
86658W        W58984   9.193  25.708  14.065
86659W        W58985   5.603  42.027   0.391
86660W        W58986  25.433  18.286   4.636
86661W        W58987  16.874   2.922  11.572
86662W        W58988  18.177  21.612  13.552
86663W        W58989   9.585  19.258  14.358
86664W        W58990  21.225  41.291  13.423
86665W        W58991  42.994  32.670   1.237
86666W        W58992  39.545   0.323  10.861
86667W        W58993  35.875  31.166   2.779
86668W        W58994  19.037  18.942  14.944
86669W        W58995  35.949  33.623  11.854
86670W        W58996   5.785  40.789   1.118
86671W        W58997   4.313  36.793  14.330
86672W        W58998  13.631  21.342  12.029
86673W        W58999  13.172  16.686   0.890
86674W        W59000  40.388  10.698   0.187
86675W        W59001  19.833  32.100   0.735
86676W        W59002   4.505  11.873   4.639
86677W        W59003  10.268  28.703  11.131
86678W        W59004  32.539  27.202   1.921
86679W        W59005  42.936  22.121   1.844
86680W        W59006  44.903  38.354   3.105
86681W        W59007  17.716  31.524  12.049
86682W        W59008  17.340  22.047   0.951
86683W        W59009  24.632  35.583   4.720
86684W        W59010  40.511   6.297   1.308
86685W        W59011  17.691   1.307  13.005
86686W        W59012  18.718   6.250   1.307
86687W        W59013   2.210  11.982  10.624
86688W        W59014  43.919  11.243   1.307
86689W        W59015  40.892  42.038  14.256
86690W        W59016  44.980   0.219   0.003
86691W        W59017  20.767  43.992   0.444
86692W        W59018  44.071  26.671  10.341
86693W        W59019  28.126  39.357   4.235
86694W        W59020  22.542  17.143  10.485
86695W        W59021  23.461  28.123  11.192
86696W        W59022   2.286  40.371   3.748
86697W        W59023  16.721  32.441  10.760
86698W        W59024   0.555  43.387   0.282
86699W        W59025   4.384   3.539   0.740
86700W        W59026   9.139  31.302  11.911
86701W        W59027  37.988  40.717   0.923
86702W        W59028  30.623  38.426   3.595
86703W        W59029  42.428  41.298  12.336
86704W        W59030  21.655  24.397   1.387
86705W        W59031  42.452  23.765   4.107
86706W        W59032  43.396  33.431  14.354
86707W        W59033  13.602  39.981  11.550
86708W        W59034  33.155  36.454   1.261
86709W        W59035  18.714  28.539  14.325
86710W        W59036  15.159   6.276   0.297
86711W        W59037  28.052  30.059  12.342
86712W        W59038   1.844  26.885  11.588
86713W        W59039  26.660  36.939  12.099
86714W        W59040   0.154   3.853  13.356
86715W        W59041  18.742   2.508   4.196
86716W        W59042  30.663  25.570   2.650
86717W        W59043  43.863  21.587  11.826
86718W        W59044   9.220  16.815  11.949
86719W        W59045  11.582  32.223  13.577
86720W        W59046  31.545  33.958  14.267
86721W        W59047  31.107  39.914  13.970
86722W        W59048  41.600   6.159  12.494
86723W        W59049  37.318  20.385  11.464
86724W        W59050   6.246  22.685   1.121
86725W        W59051   8.997  42.877  12.561
86726W        W59052  31.703  33.458   1.700
86727W        W59053  16.310  24.001   2.272
86728W        W59054  31.038  40.031   4.131
86729W        W59055  42.576  28.488   1.946
86730W        W59056  34.827  42.851  13.870
86731W        W59057  37.840  18.219   0.746
86732W        W59058  33.460  38.184   4.696
86733W        W59059  41.297   8.564   0.201
86734W        W59060  22.840  32.008   4.102
86735W        W59061  28.874  24.100   1.149
86736W        W59062  17.030  12.146  14.996
86737W        W59063  15.834  10.810   3.272
86738W        W59064  23.862  13.265  12.850
86739W        W59065   4.409   9.326   2.121
86740W        W59066  21.674  34.595   1.265
86741W        W59067   0.672  42.962  14.093
86742W        W59068  25.583   4.048   3.189
86743W        W59069   1.692  22.916  13.236
86744W        W59070  18.853  10.612   4.093
86745W        W59071  43.896   8.609  11.701
86746W        W59072  42.984  34.581   0.954
86747W        W59073   4.906  34.509   2.936
86748W        W59074  12.914  19.966  13.325
86749W        W59075   8.819  31.892   1.567
86750W        W59076  16.220  29.910  12.113
86751W        W59077  18.516  14.563   1.228
86752W        W59078  40.980  10.410  11.466
86753W        W59079  43.318  44.310  11.262
86754W        W59080  28.155  15.048  11.662
86755W        W59081  23.757   8.856   1.795
86756W        W59082  37.447  34.364   1.377
86757W        W59083   3.449  12.638  11.422
86758W        W59084  31.541  19.184  13.103
86759W        W59085  32.183  40.310  11.479
86760W        W59086  22.856  36.000   3.638
86761W        W59087  14.770   7.713   4.058
86762W        W59088  11.657   9.795  11.670
86763W        W59089   4.208   1.827  11.001
86764W        W59090  17.576  27.510  14.465
86765W        W59091  37.052  19.194  14.860
86766W        W59092  31.399  26.681   4.077
86767W        W59093  19.538   9.079  11.202
86768W        W59094  28.562  23.188   2.123
86769W        W59095  15.161   1.695  11.618
86770W        W59096  20.779  36.811  10.731
86771W        W59097  44.180  16.160   3.361
86772W        W59098  26.600  31.122   0.493
86773W        W59099   0.266  25.022   4.559
86774W        W59100   6.845   5.239  14.904
86775W        W59101  11.280   1.750   1.657
86776W        W59102  34.567  24.786   3.304
86777W        W59103  41.765  29.401   1.283
86778W        W59104  16.387  30.167   1.431
86779W        W59105  15.719  14.180  11.548
86780W        W59106  40.958  42.490  14.735
86781W        W59107  14.181   1.764  11.666
86782W        W59108   4.800   1.126  11.694
86783W        W59109  28.612  12.155   0.166
86784W        W59110   3.944   3.544  11.847
86785W        W59111   9.026   0.188  11.485
86786W        W59112  41.510  33.664   4.676
86787W        W59113  30.167  42.421   1.500
86788W        W59114  32.583  36.107  13.985
86789W        W59115  15.616  40.123   4.510
86790W        W59116  33.567  42.054  11.189
86791W        W59117  16.201   9.581  12.638
86792W        W59118  37.960  22.705   9.524
86793W        W59119  27.940  20.388  11.954
86794W        W59120   3.675  21.263  10.021
86795W        W59121  16.087   6.120  10.996
86796W        W59122  42.301   7.378  14.436
86797W        W59123  33.409  38.446   1.184
86798W        W59124   2.813  44.416   1.586
86799W        W59125  16.190  30.637  11.545
86800W        W59126   8.310  29.341  11.227
86801W        W59127  39.327  15.458   3.785
86802W        W59128  15.663   6.178   0.366
86803W        W59129  37.141  30.922   3.329
86804W        W59130  22.275  15.785  14.062
86805W        W59131   8.109  41.618   2.605
86806W        W59132  23.885  34.490  14.554
86807W        W59133  10.735   0.807   3.255
86808W        W59134  30.160   4.801  13.816
86809W        W59135  23.492  20.093  10.711
86810W        W59136   2.475  17.186  12.651
86811W        W59137  32.663  35.442  12.453
86812W        W59138  18.305  31.530   2.456
86813W        W59139  13.195  24.156   3.930
86814W        W59140  29.715  23.585   4.529
86815W        W59141  28.032  20.708   2.893
86816W        W59142  28.936  43.449   0.378
86817W        W59143  35.189  33.386  10.633
86818W        W59144  13.193  25.468   4.131
86819W        W59145  22.949  17.119   5.410
86820W        W59146  14.850  12.160   4.460
86821W        W59147  16.871  38.002  12.275
86822W        W59148   4.806  38.354   3.425
86823W        W59149   1.027  19.694  12.957
86824W        W59150  19.493  16.577  11.902
86825W        W59151  31.532  23.470  13.723
86826W        W59152  18.061  38.017   0.398
86827W        W59153  20.930  24.691  11.199
86828W        W59154   1.458  29.776   0.724
86829W        W59155  21.719  18.507  12.487
86830W        W59156  11.714  28.988  10.594
86831W        W59157  11.769  37.878   3.290
86832W        W59158   8.923  16.818   3.753
86833W        W59159   2.941  14.802   4.407
86834W        W59160  30.397  24.271  13.422
86835W        W59161   1.555  35.597   4.139
86836W        W59162  18.278  31.619  11.651
86837W        W59163  29.925  16.525   1.904
86838W        W59164  40.050  22.529  11.131
86839W        W59165   8.208  34.874  10.914
86840W        W59166  34.439  38.533  12.434
86841W        W59167  29.933  15.490  10.684
86842W        W59168   5.521   9.502  11.101
86843W        W59169  25.331  17.068   1.874
86844W        W59170  22.274  35.379   1.351
86845W        W59171  18.744  12.735  12.260
86846W        W59172  26.214  30.663  12.926
86847W        W59173  15.264   8.041   4.739
86848W        W59174   4.629  12.238   2.712
86849W        W59175  28.483  31.671  13.144
86850W        W59176  42.357  32.538  11.147
86851W        W59177   6.391  25.462  14.518
86852W        W59178  34.065  35.404  10.344
86853W        W59179  37.549  18.247   2.352
86854W        W59180  26.864  24.977  10.696
86855W        W59181  13.647  23.972   0.844
86856W        W59182  27.791  15.526  10.255
86857W        W59183  30.119  38.353   3.340
86858W        W59184  37.124  12.785  12.545
86859W        W59185  36.672  21.279   1.303
86860W        W59186  29.249   6.000   1.144
86861W        W59187   6.880  18.038  13.894
86862W        W59188   8.782   2.725   4.770
86863W        W59189  25.048  16.553   2.740
86864W        W59190  20.235  22.280  10.950
86865W        W59191  40.494  10.830   3.192
86866W        W59192  13.954  15.117  13.306
86867W        W59193  20.776   2.960  11.495
86868W        W59194  35.518   7.874  11.695
86869W        W59195  17.622  26.139  14.419
86870W        W59196   0.238  25.823  11.974
86871W        W59197  24.416  35.003   2.198
86872W        W59198  44.566  26.510   9.931
86873W        W59199  11.396  28.563  10.613
86874W        W59200  43.722  17.266  11.887
86875W        W59201  10.406  32.779  10.849
86876W        W59202  30.419  39.480   2.884
86877W        W59203  21.661  27.975  10.697
86878W        W59204  37.758  17.695  12.494
86879W        W59205  38.519  20.227   0.255
86880W        W59206   5.045  18.541   3.185
86881W        W59207  25.970   0.448  12.080
86882W        W59208  15.101  22.659   1.690
86883W        W59209  41.623  36.283  14.174
86884W        W59210  21.712  35.491  13.672
86885W        W59211  34.518  34.518   4.745
86886W        W59212  13.158  23.836   2.934
86887W        W59213  27.949  29.648   2.668
86888W        W59214  17.652  21.616  14.433
86889W        W59215  25.642   9.550  12.127
86890W        W59216  25.995  22.722  14.539
86891W        W59217  27.514  18.586  14.898
86892W        W59218   7.255  36.832   1.523
86893W        W59219  21.063  24.955  11.641
86894W        W59220  32.440  10.842  12.557
86895W        W59221   1.323  19.114  13.234
86896W        W59222  40.806   2.952   0.130
86897W        W59223  22.131   7.918   2.022
86898W        W59224  38.505  29.135  14.307
86899W        W59225  31.387  26.948  12.281
86900W        W59226  23.943   8.644  12.984
86901W        W59227  19.812  25.059  11.585
86902W        W59228   8.246  40.500  14.967
86903W        W59229  23.577  12.942  14.504
86904W        W59230  43.263  34.388  12.984
86905W        W59231  29.319  15.290   2.235
86906W        W59232  38.375  14.353   1.251
86907W        W59233  12.558  27.505  10.684
86908W        W59234  16.811  19.569   1.884
86909W        W59235  14.385   2.430   1.900
86910W        W59236  34.375  13.671   0.174
86911W        W59237  36.857  22.651   4.347
86912W        W59238  34.480  13.162   0.245
86913W        W59239   3.810  44.160  14.791
86914W        W59240   7.383   5.703  10.405
86915W        W59241   6.939   6.697  13.591
86916W        W59242   0.955  22.429   3.018
86917W        W59243   9.379  24.703   4.329
86918W        W59244  32.558  39.719  10.656
86919W        W59245  43.857  21.972  12.199
86920W        W59246  34.882   3.013  11.642
86921W        W59247  15.564  38.579  11.946
86922W        W59248   8.222   8.878   3.114
86923W        W59249  28.196  13.398  13.718
86924W        W59250   6.426   4.970  14.750
86925W        W59251  11.114  39.530   3.666
86926W        W59252   3.199  23.965  12.552
86927W        W59253  26.731  15.303  11.695
86928W        W59254   5.980   3.200  13.875
86929W        W59255   0.892  44.034  13.530
86930W        W59256  23.204  35.840  13.491
86931W        W59257  21.122  29.487   1.898
86932W        W59258  29.766  32.620   4.554
86933W        W59259  30.051  21.049  12.919
86934W        W59260  22.455   5.987   0.015
86935W        W59261  21.133  31.528  14.299
86936W        W59262  39.841  34.395  10.532
86937W        W59263  14.145  32.176  14.379
86938W        W59264   5.783  20.889  11.581
86939W        W59265   2.922  19.489  13.547
86940W        W59266  33.185   3.253   1.311
86941W        W59267  19.545   7.241  14.417
86942W        W59268  31.120  31.892  13.896
86943W        W59269  29.135  16.709  10.709
86944W        W59270  41.285  16.472   2.847
86945W        W59271  35.442  43.894   4.115
86946W        W59272  19.035  18.876   0.746
86947W        W59273  25.320  28.933  11.882
86948W        W59274  43.845   2.848   0.075
86949W        W59275  14.121  35.353   2.758
86950W        W59276  34.158  27.974  13.911
86951W        W59277   2.819  27.648   0.915
86952W        W59278   8.853  18.288  10.350
86953W        W59279   2.985   2.725   4.657
86954W        W59280   1.420   2.371   2.919
86955W        W59281  40.239  17.383   0.983
86956W        W59282  15.525  42.286   1.496
86957W        W59283  15.351  22.236   0.798
86958W        W59284   1.244  40.761   4.815
86959W        W59285  33.551   3.833  14.101
86960W        W59286   0.055  19.095  12.375
86961W        W59287  42.880  32.403   0.323
86962W        W59288  29.025  23.830   3.823
86963W        W59289  15.841  38.765   5.016
86964W        W59290  43.059  32.922   4.048
86965W        W59291  44.243  44.038  14.430
86966W        W59292  27.654   7.175  12.992
86967W        W59293  33.699  33.437  10.581
86968W        W59294  31.031  27.965   1.914
86969W        W59295  40.601  39.888   3.832
86970W        W59296  26.436   9.678   2.758
86971W        W59297   7.247   0.207  12.766
86972W        W59298   2.399  42.330   0.429
86973W        W59299   7.504   0.248  13.792
86974W        W59300   1.877   8.006  11.877
86975W        W59301   5.778  14.534  14.232
86976W        W59302  30.062  44.005  10.333
86977W        W59303   5.118  34.862  14.609
86978W        W59304  39.832  37.436  10.255
86979W        W59305  16.082   6.521  11.307
86980W        W59306   3.233  32.405   3.315
86981W        W59307  30.076  27.919   2.359
86982W        W59308  17.750  44.976  13.921
86983W        W59309  39.627  10.657   5.620
86984W        W59310  11.861  32.662   1.180
86985W        W59311  17.264  19.548   3.202
86986W        W59312  34.937  36.612   4.123
86987W        W59313  43.424   5.506   0.250
86988W        W59314   9.191  13.299  14.497
86989W        W59315   3.952  20.112   1.368
86990W        W59316  27.625  34.448  13.799
86991W        W59317   1.369   5.239  13.805
86992W        W59318  41.397   0.466  11.147
86993W        W59319   1.488  27.379   2.265
86994W        W59320  26.692  27.844   2.303
86995W        W59321   5.624  30.354  13.804
86996W        W59322  38.738  17.580   2.459
86997W        W59323  34.245   3.360  10.869
86998W        W59324   4.316  16.525   4.173
86999W        W59325  12.172  11.255   4.758
87000W        W59326  18.124  35.615  12.038
87001W        W59327   5.895   5.749  13.158
87002W        W59328  25.316  33.711  11.164
87003W        W59329   4.381  17.525   0.505
87004W        W59330   9.287  23.297   3.172
87005W        W59331  28.128  16.418   0.962
87006W        W59332   1.747  34.232  14.119
87007W        W59333   9.255  18.729  10.499
87008W        W59334  33.938  36.358   4.569
87009W        W59335   1.257  38.463   1.314
87010W        W59336   6.065  19.640   5.188
87011W        W59337  28.016   9.901   1.422
87012W        W59338  18.635  39.769  12.993
87013W        W59339  13.765  10.810   4.605
87014W        W59340   8.325  41.102  12.018
87015W        W59341  34.038   2.486   3.782
87016W        W59342  25.643  15.014  13.917
87017W        W59343   6.215   9.232  10.483
87018W        W59344  30.185  11.189  14.996
87019W        W59345  31.064  31.391   1.653
87020W        W59346  26.431  27.410   2.385
87021W        W59347  37.044   9.378   1.836
87022W        W59348  30.117  33.632   4.662
87023W        W59349  10.877  19.704  14.970
87024W        W59350   3.485  36.869   2.069
87025W        W59351  44.502  18.132   1.404
87026W        W59352  37.346   6.002  12.946
87027W        W59353  29.859   7.330   2.127
87028W        W59354  21.288  32.903  11.779
87029W        W59355   1.272  17.773   2.593
87030W        W59356  37.928   3.658  14.790
87031W        W59357   9.817   2.076  10.642
87032W        W59358   7.750  35.894   4.618
87033W        W59359  24.763   4.814   4.103
87034W        W59360  15.695  24.089   2.486
87035W        W59361  19.487  44.074   4.564
87036W        W59362  29.125  24.562   3.648
87037W        W59363  22.733  21.482  13.373
87038W        W59364   5.469   2.406  13.780
87039W        W59365   2.415  41.357   3.740
87040W        W59366   8.971  38.736   3.757
87041W        W59367  24.668  27.266   4.661
87042W        W59368   5.320  33.868   4.336
87043W        W59369   3.667  41.527   3.121
87044W        W59370  19.576  42.808  12.561
87045W        W59371  32.890  13.760   4.272
87046W        W59372  14.817  22.759  12.070
87047W        W59373   0.022   9.684   0.333
87048W        W59374   1.372  23.602  12.532
87049W        W59375  10.841  10.752   3.667
87050W        W59376  35.475  16.214  12.901
87051W        W59377  10.709  33.733   2.517
87052W        W59378  31.545  38.604  11.510
87053W        W59379  22.959  34.958   2.507
87054W        W59380  33.358   6.284  12.901
87055W        W59381  10.177  19.973   0.230
87056W        W59382   4.889  37.963   3.798
87057W        W59383  14.571  30.661   2.915
87058W        W59384  16.526   9.647   3.385
87059W        W59385   0.484   1.183  11.548
87060W        W59386  31.420  15.763   0.827
87061W        W59387  42.788   3.315   1.724
87062W        W59388  14.309  12.660   0.047
87063W        W59389  26.523  41.350   4.444
87064W        W59390  32.952  41.757  13.940
87065W        W59391   4.953  13.967   0.675
87066W        W59392  31.709  23.646   9.955
87067W        W59393  30.732  17.270  14.755
87068W        W59394   2.585   6.299   1.390
87069W        W59395  21.533  28.673  13.736
87070W        W59396  28.593   2.345   4.143
87071W        W59397   0.357  41.628   0.834
87072W        W59398   9.486  36.483   4.364
87073W        W59399  13.622  40.018   2.238
87074W        W59400  10.115  12.557   2.423
87075W        W59401  44.494   8.175   2.720
87076W        W59402   9.752  13.613  13.370
87077W        W59403  42.348  27.508  14.377
87078W        W59404  34.093  39.456  13.674
87079W        W59405  21.592  14.718  13.843
87080W        W59406  37.263   0.435   1.284
87081W        W59407  33.130  11.833  11.703
87082W        W59408  35.943  18.049  12.197
87083W        W59409  18.126  25.648   0.318
87084W        W59410  40.850  11.343  11.898
87085W        W59411   2.680  13.723   2.333
87086W        W59412  21.770  40.735   2.927
87087W        W59413  42.206  16.642  11.158
87088W        W59414  32.466  36.552  12.617
87089W        W59415   0.741  16.649   0.199
87090W        W59416  34.998  36.107   4.092
87091W        W59417  26.927  32.962  10.817
87092W        W59418  16.138  35.931   1.635
87093W        W59419  30.826  25.135  13.452
87094W        W59420  21.671  28.573   0.664
87095W        W59421  28.200   0.359  13.105
87096W        W59422  13.711  21.060   1.415
87097W        W59423  13.575  42.400   2.114
87098W        W59424   8.108  38.556  12.550
87099W        W59425   0.643  33.383   3.882
87100W        W59426  36.872  20.649  11.433
87101W        W59427  44.019   7.946   0.739
87102W        W59428  40.929   7.668   1.421
87103W        W59429  38.471  12.935   1.776
87104W        W59430   2.317  37.133   3.798
87105W        W59431  32.691  21.179  12.979
87106W        W59432   1.590  29.948  14.315
87107W        W59433  12.737  34.030  12.639
87108W        W59434   2.894   3.713  10.012
87109W        W59435  43.268  36.833   0.469
87110W        W59436  43.147   1.971   1.538
87111W        W59437  21.272  25.024   1.413
87112W        W59438  17.847   6.781  11.164
87113W        W59439   5.396  38.719  14.490
87114W        W59440  29.476  18.313  11.697
87115W        W59441   0.011  42.549  12.442
87116W        W59442  22.475  44.220   3.696
87117W        W59443   0.860  13.622   3.608
87118W        W59444  35.386   3.683   4.596
87119W        W59445  16.701  12.633  13.624
87120W        W59446   8.041  39.898   0.918
87121W        W59447   3.896  20.629   1.218
87122W        W59448  34.107  38.042   2.546
87123W        W59449  14.527  31.936  13.311
87124W        W59450  10.304  15.562   4.184
87125W        W59451   2.746  39.288   4.097
87126W        W59452  20.331  15.789   1.773
87127W        W59453  38.459  22.289   1.240
87128W        W59454  19.098  10.882  11.125
87129W        W59455  13.645  24.922   5.363
87130W        W59456  29.928  42.196  13.155
87131W        W59457  40.594  21.618  13.906
87132W        W59458  42.282  36.458  13.428
87133W        W59459  36.790  28.899   2.234
87134W        W59460  22.697  10.857   2.776
87135W        W59461  19.368   0.550  13.386
87136W        W59462   2.522  21.453  10.286
87137W        W59463  17.134  19.342   3.665
87138W        W59464  19.183  27.017   1.946
87139W        W59465   0.248  34.394   2.795
87140W        W59466  23.794  21.230   0.888
87141W        W59467  20.503  40.042   0.760
87142W        W59468   4.183  31.107   1.966
87143W        W59469  30.366   2.855   2.147
87144W        W59470  26.999  18.645   3.171
87145W        W59471  20.859  34.504  11.536
87146W        W59472   6.191  21.246   0.509
87147W        W59473  23.671   8.323   1.796
87148W        W59474  20.025   9.264  11.164
87149W        W59475   5.100  22.517   4.134
87150W        W59476  12.552   8.647  12.477
87151W        W59477  19.074   2.652  12.487
87152W        W59478  41.930  34.449   1.902
87153W        W59479  33.992  28.225   3.645
87154W        W59480  35.006   3.794  14.659
87155W        W59481   6.117  25.626  12.539
87156W        W59482  20.670   6.052   4.327
87157W        W59483  19.743  33.506  13.002
87158W        W59484  35.865  41.496   4.197
87159W        W59485   9.097   2.534  13.829
87160W        W59486   1.689  11.233  11.673
87161W        W59487   2.403  39.527   0.326
87162W        W59488  22.696  11.332   1.184
87163W        W59489  28.008  38.085  14.900
87164W        W59490  44.235  33.627   2.262
87165W        W59491  29.330  31.399  12.832
87166W        W59492  44.009  30.238  13.427
87167W        W59493  23.023  29.413   4.921
87168W        W59494   3.813  17.646   3.697
87169W        W59495   0.888  42.086   4.573
87170W        W59496   0.524  10.434  13.474
87171W        W59497   6.834  30.837  11.640
87172W        W59498  22.048  36.285   1.634
87173W        W59499  20.785  17.169  13.934
87174W        W59500  23.293   9.175  13.837
87175W        W59501   4.440  36.289   2.280
87176W        W59502   0.878  24.200   4.225
87177W        W59503  32.943  32.005   5.155
87178W        W59504   0.101  39.481  12.317
87179W        W59505  43.794  15.087  14.774
87180W        W59506  14.267   5.392   4.766
87181W        W59507   5.171   0.282  14.507
87182W        W59508  38.337  42.087  14.869
87183W        W59509  32.487  12.837   0.652
87184W        W59510   9.639  21.704   1.297
87185W        W59511   9.361   2.360  10.639
87186W        W59512  20.136  38.340  11.592
87187W        W59513  14.732   3.496   1.876
87188W        W59514  12.811  44.897   3.626
87189W        W59515  38.700   5.996   4.950
87190W        W59516  44.391  22.989  13.943
87191W        W59517   4.448  14.827  11.915
87192W        W59518  28.455   4.300  13.376
87193W        W59519   4.116  28.022   4.252
87194W        W59520  11.268  16.995   3.781
87195W        W59521  33.037  13.975   0.547
87196W        W59522  40.828   9.809   0.297
87197W        W59523  17.673   5.445  12.682
87198W        W59524  29.103  39.001  11.943
87199W        W59525   0.567  33.994  11.088
87200W        W59526  39.721  39.975   4.064
87201W        W59527  10.951  21.049   0.754
87202W        W59528  16.719   5.195  11.597
87203W        W59529   4.123  32.085  14.074
87204W        W59530   3.473  34.709   4.507
87205W        W59531  22.960  11.310  12.429
87206W        W59532   5.448  24.701   0.917
87207W        W59533  27.101   5.809  12.422
87208W        W59534  25.988  29.638  13.150
87209W        W59535  24.714  41.591   4.118
87210W        W59536  29.226  24.256   0.239
87211W        W59537  25.666  30.808  12.917
87212W        W59538  30.433  36.012  11.525
87213W        W59539   5.231  34.979  14.119
87214W        W59540  13.676   2.687   0.905
87215W        W59541   9.668  12.798   2.695
87216W        W59542   0.499  33.520   2.852
87217W        W59543   2.214   2.845  14.205
87218W        W59544   4.888   7.819   0.918
87219W        W59545   7.173   2.938   2.832
87220W        W59546  30.299  22.158  11.431
87221W        W59547  23.285  33.943  13.783
87222W        W59548  25.481  12.194  11.925
87223W        W59549  44.493   2.884   2.728
87224W        W59550  13.675  32.906   5.638
87225W        W59551  42.280  14.109   1.688
87226W        W59552  15.634  38.721   1.342
87227W        W59553  36.985  13.184   0.319
87228W        W59554  25.504  38.507   3.076
87229W        W59555  19.261  36.089  12.050
87230W        W59556  39.909  40.219   1.261
87231W        W59557  18.621   7.236   0.347
87232W        W59558  17.230  11.938   5.081
87233W        W59559  20.576  18.543  14.730
87234W        W59560  10.670  29.187  13.557
87235W        W59561  19.140  33.332   0.362
87236W        W59562  27.641   6.626  11.086
87237W        W59563   7.294  13.096   2.969
87238W        W59564  15.558  10.306   2.217
87239W        W59565  13.010  35.503  10.556
87240W        W59566   9.213  44.954  12.221
87241W        W59567  38.120   0.884  13.062
87242W        W59568  19.228   5.925  11.464
87243W        W59569  10.581  31.191   5.133
87244W        W59570  24.770   8.009  10.900
87245W        W59571  20.392  36.357   2.366
87246W        W59572  41.137  16.729  11.921
87247W        W59573  35.131  38.520   4.283
87248W        W59574  42.913   4.317   0.238
87249W        W59575  44.292   5.769  12.944
87250W        W59576  17.447   5.743  14.349
87251W        W59577  43.263   6.648  11.352
87252W        W59578  37.937  44.690  10.995
87253W        W59579   1.882  40.835   4.200
87254W        W59580   2.609  32.203  13.075
87255W        W59581  21.712   7.565   0.225
87256W        W59582  16.123  42.380  14.227
87257W        W59583   9.141  26.626  14.493
87258W        W59584  34.387  18.485  10.642
87259W        W59585   6.613  44.028   2.775
87260W        W59586  28.608  18.709  13.769
87261W        W59587   6.121  35.477  12.086
87262W        W59588  27.445  29.004  11.427
87263W        W59589  28.191   1.251   2.446
87264W        W59590  30.122  13.728  13.876
87265W        W59591  10.904  20.682   1.793
87266W        W59592   0.966   4.614  10.181
87267W        W59593   5.329   0.444  14.976
87268W        W59594  34.551   9.217  14.465
87269W        W59595  22.980  43.051   2.922
87270W        W59596  36.841  36.524   0.839
87271W        W59597  27.674  19.697  12.467
87272W        W59598  13.278  25.099   3.393
87273W        W59599   9.781  41.443   1.782
87274W        W59600  28.898   9.672   3.110
87275W        W59601   0.255  21.230   0.807
87276W        W59602  16.257  22.129  14.507
87277W        W59603  12.449  20.603   1.958
87278W        W59604  35.335  18.567  11.551
87279W        W59605  29.060  34.686  10.707
87280W        W59606  29.118  30.529   2.313
87281W        W59607  42.737  17.785   3.364
87282W        W59608   2.983  33.518  11.379
87283W        W59609  32.472  22.069   3.365
87284W        W59610  24.517  10.519  13.685
87285W        W59611  12.636   5.793  12.026
87286W        W59612  16.602  41.444   2.702
87287W        W59613  36.545  17.793  12.851
87288W        W59614  40.424  34.193  11.485
87289W        W59615  15.565  40.744   1.253
87290W        W59616  10.700   3.432   2.698
87291W        W59617  24.146  41.935   1.863
87292W        W59618  23.726  23.153  13.001
87293W        W59619  42.811  28.512  11.060
87294W        W59620  37.373   5.798  14.838
87295W        W59621   3.113  24.737   4.677
87296W        W59622  18.716  44.617  14.732
87297W        W59623  40.002  43.573   3.138
87298W        W59624  31.444  44.065  13.947
87299W        W59625  41.466  36.310   4.079
87300W        W59626   5.905  40.806  11.631
87301W        W59627   3.962   2.842   2.603
87302W        W59628   9.313  41.842  10.616
87303W        W59629  23.657  39.976  10.227
87304W        W59630   5.842   6.262  14.730
87305W        W59631  40.080   4.996  14.034
87306W        W59632  26.726  23.086  11.140
87307W        W59633   2.498  19.056  10.715
87308W        W59634  32.475  34.898   2.997
87309W        W59635   1.922  12.529   3.291
87310W        W59636  11.934  14.949   4.131
87311W        W59637  44.608   0.855  12.660
87312W        W59638  43.487  37.938   0.262
87313W        W59639   9.329  41.809   3.147
87314W        W59640   7.081  24.079   4.140
87315W        W59641  35.377   5.373  11.896
87316W        W59642   8.660  36.449  11.616
87317W        W59643  31.586  10.420  12.897
87318W        W59644  19.994  23.103  12.417
87319W        W59645  38.879  24.287   3.202
87320W        W59646  40.462   1.269   2.643
87321W        W59647   6.379  25.033  12.849
87322W        W59648   6.609   9.056  10.177
87323W        W59649   0.754  21.952  14.365
87324W        W59650   5.645   1.551   0.232
87325W        W59651  44.014  32.764  11.152
87326W        W59652  43.676  16.294  14.426
87327W        W59653  29.757  35.546   1.260
87328W        W59654  35.809  33.053   3.192
87329W        W59655  19.540  14.661   3.686
87330W        W59656   1.868  42.475   0.223
87331W        W59657  23.234  44.878  12.493
87332W        W59658  14.391  24.740  10.245
87333W        W59659  18.734  16.751  12.483
87334W        W59660  26.096  15.846   3.874
87335W        W59661  19.979  16.854   2.741
87336W        W59662  35.518  42.553   3.865
87337W        W59663   4.375  18.643  12.910
87338W        W59664  22.468  17.774   1.933
87339W        W59665  39.802   7.916  14.187
87340W        W59666   3.739  14.688   0.235
87341W        W59667   2.297  40.074   3.226
87342W        W59668  39.064  39.884   2.786
87343W        W59669  29.228  33.862   3.371
87344W        W59670  35.414  13.335  10.898
87345W        W59671  22.644   6.812  12.604
87346W        W59672  14.225  42.162  10.711
87347W        W59673  11.830  29.544  11.735
87348W        W59674  10.607  10.198  13.804
87349W        W59675   0.510  22.136   3.682
87350W        W59676  36.278  15.078   2.166
87351W        W59677  24.126  11.714  11.141
87352W        W59678  40.979   2.478   4.215
87353W        W59679  16.290  20.731   4.107
87354W        W59680  35.619  43.261  12.856
87355W        W59681   6.812  38.645   4.122
87356W        W59682  33.660  17.148  14.456
87357W        W59683  17.064  10.675   0.788
87358W        W59684   2.149   0.894   4.858
87359W        W59685  20.469  37.692   3.804
87360W        W59686  38.480  18.104   3.786
87361W        W59687  37.138  39.987   0.404
87362W        W59688  26.988  29.173   4.945
87363W        W59689  25.891   5.972   0.231
87364W        W59690  15.058   2.349  12.955
87365W        W59691  20.776  35.123  14.381
87366W        W59692  11.573  32.386   0.798
87367W        W59693   7.431  38.964   3.698
87368W        W59694  28.946  21.445   1.711
87369W        W59695  32.418  18.127  13.507
87370W        W59696  21.181  39.299   1.186
87371W        W59697  22.525  13.330   1.934
87372W        W59698  16.752  27.180  13.414
87373W        W59699  11.639  26.580  11.643
87374W        W59700  35.359  15.407   1.826
87375W        W59701  22.534  32.912   2.435
87376W        W59702   8.563  28.093  14.373
87377W        W59703   5.700  26.967   0.894
87378W        W59704   2.908  24.184  12.937
87379W        W59705   6.565  43.822  12.611
87380W        W59706   1.037  36.661  11.294
87381W        W59707  43.405  31.108   2.181
87382W        W59708   8.001  10.127  12.820
87383W        W59709  27.629  26.276  10.003
87384W        W59710  10.680  15.147  14.427
87385W        W59711  37.131  21.095   1.173
87386W        W59712  20.402  40.062   1.730
87387W        W59713  40.450  14.739   4.354
87388W        W59714  27.874  21.095  13.455
87389W        W59715   9.439  42.278  14.302
87390W        W59716   6.205  24.449   4.567
87391W        W59717  22.348   8.835   0.836
87392W        W59718  36.472  19.608   4.560
87393W        W59719  26.594   2.818  11.125
87394W        W59720  21.824  25.404  13.435
87395W        W59721  13.006  18.782  13.320
87396W        W59722  24.084  18.865  13.089
87397W        W59723   4.814  41.294  12.155
87398W        W59724  40.872  14.380  11.111
87399W        W59725   0.894  27.745   5.070
87400W        W59726   7.277  43.406   2.689
87401W        W59727  29.909  40.481  12.076
87402W        W59728  44.989   3.191   5.721
87403W        W59729  32.906  21.792  11.893
87404W        W59730  34.558   8.485  11.114
87405W        W59731  30.556  13.352   3.026
87406W        W59732  22.000  32.365  13.062
87407W        W59733  29.186  21.286  13.906
87408W        W59734  32.309   3.261  13.746
87409W        W59735  36.081  29.405  13.287
87410W        W59736  36.626  44.226  11.100
87411W        W59737  34.421  39.294   3.727
87412W        W59738  22.772  28.650  11.145
87413W        W59739  19.559  40.759  12.178
87414W        W59740  42.637  29.668  10.563
87415W        W59741  21.721  14.158  11.570
87416W        W59742  40.876  19.610   3.182
87417W        W59743  36.101  23.168  14.801
87418W        W59744  44.834   5.718   0.488
87419W        W59745  20.576  15.234  10.665
87420W        W59746  26.912  36.329   0.715
87421W        W59747   8.343  32.196  14.048
87422W        W59748   0.801  40.414   0.422
87423W        W59749  32.949   0.506   3.871
87424W        W59750  37.739   9.520   0.913
87425W        W59751   5.586  15.148   4.448
87426W        W59752   4.004  14.569  14.788
87427W        W59753  33.897   9.703   4.586
87428W        W59754  38.573  15.196   4.180
87429W        W59755  14.625  41.373  13.947
87430W        W59756  14.907  28.901  12.879
87431W        W59757  17.285  11.050   1.635
87432W        W59758   1.491   8.289   3.474
87433W        W59759  23.779  10.640   4.549
87434W        W59760  18.660  20.921   1.657
87435W        W59761  13.592  31.388  12.961
87436W        W59762  35.636  37.063  13.419
87437W        W59763   7.647  31.329   1.908
87438W        W59764  20.793   6.739   2.292
87439W        W59765  40.276  44.750  10.883
87440W        W59766   4.312  34.604  11.101
87441W        W59767  39.523  12.675  12.133
87442W        W59768  27.915  18.243  12.439
87443W        W59769  42.413  43.391   0.998
87444W        W59770  35.439  14.403   2.317
87445W        W59771   5.029  15.691  14.207
87446W        W59772  21.327  36.503   4.153
87447W        W59773  38.994  23.873  11.644
87448W        W59774  35.541  21.013  11.250
87449W        W59775  35.926  21.067  13.849
87450W        W59776  13.145   4.309   3.837
87451W        W59777   6.315  19.816  14.349
87452W        W59778  30.931  32.651  12.903
87453W        W59779  24.444  19.028   2.857
87454W        W59780  28.300  19.070  14.045
87455W        W59781  29.596  29.373   4.519
87456W        W59782   1.391   1.759  13.560
87457W        W59783   7.803   7.300   4.645
87458W        W59784   4.276  21.882  13.912
87459W        W59785  12.512   9.653  11.150
87460W        W59786   2.949  42.500  14.650
87461W        W59787   2.619  29.512  12.448
87462W        W59788  12.351  14.762   0.083
87463W        W59789   5.348  43.598   0.442
87464W        W59790  19.507  35.291  12.110
87465W        W59791  22.576  30.951   2.286
87466W        W59792  22.685  31.658  13.856
87467W        W59793  44.579  12.402   2.419
87468W        W59794  11.416  21.131   2.187
87469W        W59795  27.657   3.895  10.470
87470W        W59796  42.529  24.185   1.430
87471W        W59797  20.757   1.925  12.207
87472W        W59798  15.730  33.446  11.261
87473W        W59799  14.136  33.591  12.465
87474W        W59800   1.238  39.114   2.767
87475W        W59801  25.942  31.432  10.693
87476W        W59802  18.478  26.668   0.400
87477W        W59803   3.692   3.647   9.850
87478W        W59804  23.981  30.483  14.908
87479W        W59805  29.075  16.605   4.257
87480W        W59806  28.548  22.061  10.953
87481W        W59807  19.308   3.051  12.724
87482W        W59808  39.456  38.863   3.351
87483W        W59809  11.390  28.384   3.239
87484W        W59810  33.634  30.063   4.682
87485W        W59811  28.707  25.017  14.213
87486W        W59812  32.042  29.826   4.652
87487W        W59813  32.614  28.652   4.290
87488W        W59814  22.546  37.309   4.990
87489W        W59815  12.714   6.820   1.767
87490W        W59816  24.958  39.047   4.726
87491W        W59817  33.448  43.222   3.089
87492W        W59818  18.247  20.583   0.712
87493W        W59819   2.787  39.460  11.070
87494W        W59820   1.211  17.667  13.478
87495W        W59821  38.111  24.107  14.408
87496W        W59822  31.423  43.890  13.315
87497W        W59823  28.499  28.260   3.701
87498W        W59824   2.592  34.467  12.965
87499W        W59825  10.224   7.930   0.281
87500W        W59826  41.594  41.502  10.939
87501W        W59827  11.205  32.319  14.876
87502W        W59828  10.956  35.603   3.234
87503W        W59829   6.219   5.865  10.420
87504W        W59830  22.165  16.525  14.999
87505W        W59831   0.748  44.882   3.730
87506W        W59832  14.703  18.305  12.516
87507W        W59833  16.601  17.140  12.060
87508W        W59834   6.882  29.896   2.204
87509W        W59835   9.295  22.514  14.474
87510W        W59836  14.206  27.652  12.964
87511W        W59837  37.377  22.712  11.224
87512W        W59838  24.096  43.499   0.358
87513W        W59839  27.906   5.668  11.107
87514W        W59840  23.667  29.258   1.269
87515W        W59841  10.732  34.978  14.765
87516W        W59842  44.449  39.439   0.853
87517W        W59843  21.691  20.150   4.146
87518W        W59844  42.763  27.073   0.880
87519W        W59845   1.764   9.249  14.696
87520W        W59846   2.750  30.987   3.708
87521W        W59847   4.319  19.314  12.982
87522W        W59848  23.069   8.894  14.257
87523W        W59849   7.098  10.694  13.975
87524W        W59850  39.599  22.699  12.903
87525W        W59851   6.375  24.883   4.925
87526W        W59852   9.379  41.833  13.337
87527W        W59853  44.239  29.070  10.057
87528W        W59854   8.235  39.914  11.696
87529W        W59855   8.710  30.442   4.598
87530W        W59856  25.842  14.101   2.697
87531W        W59857  43.952   6.299   1.326
87532W        W59858  27.524  39.170  10.599
87533W        W59859  44.296  25.692   4.004
87534W        W59860  37.468  33.710   3.734
87535W        W59861  43.281  37.340   0.388
87536W        W59862   4.045  31.275  11.090
87537W        W59863   2.336  12.926   2.772
87538W        W59864  19.649  20.934   4.620
87539W        W59865  11.964  31.190  13.491
87540W        W59866  17.612  20.949  10.504
87541W        W59867  27.589  12.749  13.668
87542W        W59868   7.152   6.793   2.999
87543W        W59869   3.464  25.347   4.006
87544W        W59870  38.942  30.883  11.697
87545W        W59871  30.662  32.639  13.759
87546W        W59872  27.206  23.717  12.828
87547W        W59873  25.211  26.706  14.235
87548W        W59874  30.530  42.191  10.666
87549W        W59875  15.733  16.089   1.816
87550W        W59876  13.321  19.684   0.803
87551W        W59877  18.422   8.685   4.110
87552W        W59878   1.447  15.752  13.457
87553W        W59879  44.551  34.905   2.897
87554W        W59880  33.362   6.829   0.979
87555W        W59881  17.635   5.491   2.822
87556W        W59882  11.935  41.262   0.659
87557W        W59883   0.225  11.206  12.397
87558W        W59884  10.339   2.001   4.735
87559W        W59885  35.809  14.292  11.934
87560W        W59886  11.830  21.629   3.237
87561W        W59887  10.943  34.548   1.823
87562W        W59888   1.802   8.606   1.816
87563W        W59889  26.641  44.985   2.212
87564W        W59890   0.735  18.539   1.410
87565W        W59891  44.579  22.281  12.823
87566W        W59892  35.528  23.180  13.290
87567W        W59893  32.869  44.557  13.350
87568W        W59894  26.446  20.665   3.313
87569W        W59895  44.389  38.994   9.946
87570W        W59896  44.832  20.239   0.440
87571W        W59897  36.795  18.338   0.860
87572W        W59898  11.789  36.363  12.982
87573W        W59899  19.800  11.225  13.301
87574W        W59900  13.950  14.206  10.010
87575W        W59901  23.065  10.851   3.156
87576W        W59902  15.149  14.317   3.377
87577W        W59903  33.324  25.356  10.152
87578W        W59904  22.218  25.451   0.771
87579W        W59905  26.026  43.735  11.720
87580W        W59906  36.339   0.296   1.168
87581W        W59907  22.238  39.815   9.820
87582W        W59908  21.864  44.551   3.233
87583W        W59909  23.634  10.786  10.863
87584W        W59910  36.834  10.279   0.342
87585W        W59911  25.504  37.314  11.662
87586W        W59912  18.752  12.592  12.959
87587W        W59913  15.296  35.795  12.898
87588W        W59914  25.238  26.579  11.204
87589W        W59915  44.732  42.869  11.780
87590W        W59916   5.251  33.957   3.605
87591W        W59917  27.932  10.424   3.746
87592W        W59918  22.086  39.844  12.625
87593W        W59919  22.557  34.989   4.277
87594W        W59920  37.888  13.611  12.651
87595W        W59921  25.932   8.268   3.661
87596W        W59922  38.427   8.908  10.450
87597W        W59923   8.562  15.988  12.572
87598W        W59924  32.933  43.483   4.331
87599W        W59925  22.260  40.370   1.297
87600W        W59926  27.685  25.035   1.705
87601W        W59927  28.817  21.321   3.986
87602W        W59928  12.809  32.685  13.377
87603W        W59929  18.752  13.691   2.717
87604W        W59930   3.999  41.448  13.304
87605W        W59931  39.981  24.635   1.247
87606W        W59932  14.408   1.792   0.867
87607W        W59933   9.743   5.410  13.928
87608W        W59934  23.063  42.346   0.030
87609W        W59935  35.150  32.921  11.469
87610W        W59936  33.634  25.027  13.725
87611W        W59937  43.086  12.296   0.530
87612W        W59938  44.433  43.826   1.795
87613W        W59939   5.632  22.755   4.119
87614W        W59940  41.421  19.244   2.332
87615W        W59941   8.001  32.618  11.070
87616W        W59942  33.247  27.029  11.452
87617W        W59943  43.870  39.397   2.634
87618W        W59944   9.929   2.952   0.907
87619W        W59945  44.967  24.600   4.436
87620W        W59946  44.030  22.025   4.498
87621W        W59947   0.140  13.416   4.167
87622W        W59948  27.098   6.809   0.930
87623W        W59949  20.687  32.411  14.288
87624W        W59950  28.362   2.054   0.463
87625W        W59951  23.125  37.269   4.284
87626W        W59952  26.702  14.663   0.791
87627W        W59953  44.422  39.390   2.839
87628W        W59954  31.142  22.023   1.777
87629W        W59955  40.319  37.498   3.728
87630W        W59956   1.445  39.963  13.563
87631W        W59957  41.859  19.612  13.583
87632W        W59958  40.003  11.181   0.209
87633W        W59959   7.098   6.829  13.119
87634W        W59960  21.621  40.292  10.330
87635W        W59961  44.631  16.370   3.185
87636W        W59962  19.206   1.438   2.110
87637W        W59963  39.138   6.484   3.788
87638W        W59964   3.499   1.808   5.482
87639W        W59965  12.106  22.124  14.784
87640W        W59966  17.597  22.994  14.426
87641W        W59967  40.032  18.895  13.986
87642W        W59968  36.819  18.138   2.866
87643W        W59969  15.276  40.201   4.132
87644W        W59970  29.597   6.902  10.402
87645W        W59971   3.814  17.841   4.197
87646W        W59972  13.651  18.549  14.029
87647W        W59973  33.404  12.179   1.880
87648W        W59974  40.494  20.285   1.342
87649W        W59975  30.053  35.965   1.745
87650W        W59976  29.686   6.742  13.857
87651W        W59977  41.762  16.402  12.461
87652W        W59978   5.244  40.011   3.714
87653W        W59979  12.784  43.739   2.346
87654W        W59980  11.819  32.927   3.710
87655W        W59981  22.075   0.491  13.836
87656W        W59982  18.715  15.911   5.006
87657W        W59983  37.339   0.436  10.285
87658W        W59984  18.333  25.555   4.685
87659W        W59985  43.245   4.715  10.419
87660W        W59986  23.384  37.212   5.750
87661W        W59987  34.614   8.927   0.427
87662W        W59988  28.117  23.977  11.320
87663W        W59989   6.433   2.702   2.275
87664W        W59990   3.169  31.499   1.265
87665W        W59991  33.946  12.569   2.361
87666W        W59992  24.513  27.651  13.386
87667W        W59993  32.096  10.039  10.171
87668W        W59994  12.683  26.192   0.153
87669W        W59995  43.544  23.658   0.781
87670W        W59996  32.138   6.640   1.909
87671W        W59997  39.832  33.486  10.417
87672W        W59998  34.143  12.226   1.189
87673W        W59999  26.706  27.004   3.256
87674W        W60000  14.358   5.357   2.878
87675W        W60001   7.167  11.117  10.570
87676W        W60002  14.160  17.251  12.071
87677W        W60003  28.090  22.690   4.049
87678W        W60004  27.371  14.675  12.075
87679W        W60005  24.430  39.963  14.367
87680W        W60006  29.516  43.563  13.637
87681W        W60007  44.880  18.742   4.418
87682W        W60008  40.859  29.678   4.598
87683W        W60009  37.602  29.906   2.064
87684W        W60010  19.744  21.565   2.429
87685W        W60011  17.108  18.282  13.394
87686W        W60012  22.494   7.303   3.930
87687W        W60013  37.336  43.519  11.196
87688W        W60014  24.221  33.383   4.127
87689W        W60015  11.660  39.213  14.428
87690W        W60016  36.616  43.502  11.635
87691W        W60017  18.874  10.211  13.615
87692W        W60018  11.146   6.503   4.701
87693W        W60019  28.823  44.007   2.408
87694W        W60020  28.676  31.305  11.077
87695W        W60021  16.188  31.568   3.771
87696W        W60022  26.035  18.956   1.897
87697W        W60023  13.290   0.073   2.007
87698W        W60024  38.982  23.543   0.227
87699W        W60025  19.985  25.037  14.965
87700W        W60026  39.040  39.807  13.055
87701W        W60027  44.927  18.049  14.671
87702W        W60028   4.946  28.386  14.085
87703W        W60029  10.205   3.260  13.434
87704W        W60030  41.236  36.539  11.725
87705W        W60031  21.246  11.813   4.401
87706W        W60032   7.900  40.206  10.695
87707W        W60033  38.068   0.339  12.497
87708W        W60034  16.424  22.056   1.738
87709W        W60035  25.227  10.116   0.510
87710W        W60036  30.177   7.939   1.347
87711W        W60037  17.694   8.770  14.378
87712W        W60038  43.046  27.390   3.657
87713W        W60039  24.965   5.095   3.149
87714W        W60040   7.614  17.095   5.020
87715W        W60041  28.484  36.329   2.207
87716W        W60042  29.644  14.430  13.306
87717W        W60043  38.883  11.691  13.762
87718W        W60044   3.396  10.221   3.217
87719W        W60045  11.815  30.977   0.824
87720W        W60046   0.701  30.001   2.311
87721W        W60047  29.984  24.565  14.378
87722W        W60048   2.708  26.239   2.887
87723W        W60049  12.425  26.236   3.661
87724W        W60050  19.251   5.238   0.983
87725W        W60051  41.250  33.798   5.115
87726W        W60052   8.063  17.683   2.188
87727W        W60053  44.101  43.504   4.508
87728W        W60054  35.164  32.953   0.362
87729W        W60055  35.041  23.869   1.875
87730W        W60056  32.887  36.514  10.986
87731W        W60057  38.460  22.186  10.425
87732W        W60058   0.192  40.402  11.137
87733W        W60059  12.450  43.658   1.955
87734W        W60060   5.663  36.901  12.172
87735W        W60061  25.925   3.274   3.365
87736W        W60062  42.919  15.122   2.843
87737W        W60063  39.528  24.930  10.944
87738W        W60064  12.703  27.551  11.937
87739W        W60065  11.169  29.724  13.913
87740W        W60066  14.463   8.846   2.806
87741W        W60067   3.917  16.019   4.123
87742W        W60068   0.829  33.636   2.451
87743W        W60069  29.393   6.263   3.002
87744W        W60070  30.954  37.643   5.022
87745W        W60071  36.993  24.623  13.971
87746W        W60072  44.784  15.449   3.509
87747W        W60073   0.319   4.137   3.361
87748W        W60074  24.500   5.236   3.919
87749W        W60075  26.955  19.997  12.003
87750W        W60076   3.878   1.905   0.673
87751W        W60077  19.261  10.095  12.026
87752W        W60078  17.142   1.909  13.417
87753W        W60079   2.444  36.415   1.362
87754W        W60080  41.265  23.118  14.588
87755W        W60081  26.935  14.146   4.095
87756W        W60082   2.430  14.643   2.261
87757W        W60083  33.565  37.455   0.021
87758W        W60084   7.849  35.936   3.246
87759W        W60085  15.284  41.389  11.650
87760W        W60086  21.158  36.088   4.387
87761W        W60087  22.568  19.658  12.208
87762W        W60088  12.138  31.171   4.746
87763W        W60089  27.620  40.895   0.811
87764W        W60090  31.037  18.863   4.469
87765W        W60091  28.567  35.530  13.915
87766W        W60092  18.556   4.708  10.300
87767W        W60093  21.253  20.144  14.738
87768W        W60094  35.062  33.609   1.433
87769W        W60095  31.900  36.400  10.808
87770W        W60096   7.442   4.883   1.363
87771W        W60097  12.832  12.724  13.442
87772W        W60098  21.789   6.816   3.102
87773W        W60099   3.121  24.918   0.735
87774W        W60100   2.574  38.778  12.655
87775W        W60101   4.835   9.509   1.870
87776W        W60102  20.021  17.125   4.111
87777W        W60103  22.011   1.764   1.410
87778W        W60104  39.510  14.252  12.753
87779W        W60105  24.321   1.840  11.579
87780W        W60106  36.874  15.790   4.320
87781W        W60107   2.934  24.489   9.663
87782W        W60108  34.566  25.587  11.471
87783W        W60109   0.737   8.455  14.799
87784W        W60110  34.282  37.619   4.645
87785W        W60111  25.129  21.073  11.599
87786W        W60112  19.135  11.143  14.324
87787W        W60113  28.619  25.652  11.138
87788W        W60114  38.953  15.045  12.639
87789W        W60115  13.064  41.733  11.572
87790W        W60116  27.191  17.212   3.767
87791W        W60117  32.195  31.774   3.915
87792W        W60118  41.017  43.520   0.890
87793W        W60119   6.091   8.944  11.581
87794W        W60120   8.600  16.147   1.384
87795W        W60121  17.863  35.568  12.486
87796W        W60122  31.995   4.394  14.817
87797W        W60123  33.924  37.778   1.616
87798W        W60124  33.028  29.656   0.493
87799W        W60125  37.095  35.406  10.758
87800W        W60126  32.579  15.804  10.618
87801W        W60127  30.177  37.307  14.279
87802W        W60128  41.378  13.208   4.603
87803W        W60129  30.542  26.208   1.754
87804W        W60130  21.160  20.558  14.009
87805W        W60131  30.211  36.848  14.981
87806W        W60132  10.291  11.104  14.008
87807W        W60133  39.051  13.047  14.115
87808W        W60134   4.598  28.904   4.078
87809W        W60135  24.916  29.495  14.795
87810W        W60136  29.348  38.056   2.297
87811W        W60137   9.204  21.132  14.819
87812W        W60138  42.014  19.051   0.772
87813W        W60139  13.937  19.131  14.699
87814W        W60140   9.322  39.504   3.628
87815W        W60141  30.490  36.031   2.117
87816W        W60142  22.495  22.979  14.734
87817W        W60143  36.012  10.206   1.679
87818W        W60144  35.226  21.602   1.438
87819W        W60145  24.973   2.698  14.953
87820W        W60146  42.393  39.436   0.657
87821W        W60147   8.269  24.011  11.572
87822W        W60148   0.474  22.714   2.828
87823W        W60149  25.480   2.999  13.011
87824W        W60150  17.133  29.571  12.920
87825W        W60151  36.366  16.820   0.880
87826W        W60152  31.212  36.944   1.282
87827W        W60153  25.761   1.300   3.240
87828W        W60154   6.049   4.932   1.870
87829W        W60155  38.706  42.840  13.641
87830W        W60156  21.524  24.681  14.099
87831W        W60157   0.916  27.216  13.991
87832W        W60158  37.620  26.292   4.189
87833W        W60159  21.196  39.316  14.817
87834W        W60160  25.491   5.325   0.417
87835W        W60161  26.446  22.773   1.674
87836W        W60162  14.858  25.701  10.043
87837W        W60163  28.687  29.114   1.441
87838W        W60164  44.342  30.863   3.711
87839W        W60165   9.849  39.184   2.811
87840W        W60166   3.579  41.765   1.441
87841W        W60167  15.161   0.972  13.102
87842W        W60168  24.743  40.916   1.608
87843W        W60169  40.451  42.215   0.447
87844W        W60170  32.458  30.152   0.809
87845W        W60171  35.630   8.124   3.167
87846W        W60172  36.981  10.410  11.091
87847W        W60173  40.760  38.973  10.459
87848W        W60174  18.034  28.860   0.656
87849W        W60175  28.086   6.846   3.724
87850W        W60176  27.385  13.839   4.103
87851W        W60177  27.865  13.044   4.514
87852W        W60178  40.003  13.002   4.137
87853W        W60179  40.351   7.472  13.112
87854W        W60180  10.669   4.998   4.105
87855W        W60181  33.902  41.945   3.285
87856W        W60182   0.249   4.107   0.385
87857W        W60183  41.385   8.116  14.702
87858W        W60184  27.678  37.568   4.185
87859W        W60185  23.351   4.749  11.534
87860W        W60186  14.153  38.913   0.875
87861W        W60187   4.814  34.082   2.643
87862W        W60188  12.363  23.280   2.194
87863W        W60189   0.449   4.610  13.795
87864W        W60190  28.120  36.728   2.725
87865W        W60191  13.398  21.532   1.335
87866W        W60192  28.465  43.911   2.775
87867W        W60193  26.409   4.097  11.981
87868W        W60194  20.077  15.125  12.404
87869W        W60195  13.052   1.338  12.014
87870W        W60196  32.396  11.855   2.398
87871W        W60197  10.353  12.803   4.351
87872W        W60198  35.402  14.173  11.154
87873W        W60199  36.758  12.823  14.418
87874W        W60200  17.180  17.651   9.945
87875W        W60201  33.658  34.754   0.356
87876W        W60202  14.542  14.234  13.757
87877W        W60203  14.659  22.809  12.957
87878W        W60204  39.944   1.347   2.606
87879W        W60205  11.647  37.623  13.551
87880W        W60206  17.148  42.517  10.485
87881W        W60207   3.688  28.232  14.415
87882W        W60208  44.753  32.927  12.978
87883W        W60209  22.225  22.206  10.052
87884W        W60210  15.664   5.028  14.061
87885W        W60211  13.257  25.203   2.887
87886W        W60212  16.524   9.589  14.483
87887W        W60213  22.634  26.384   0.833
87888W        W60214  16.246  37.479  12.056
87889W        W60215  16.092   2.868  12.502
87890W        W60216   7.629  21.007  12.974
87891W        W60217  14.369  34.499  12.995
87892W        W60218  16.110   9.277  11.896
87893W        W60219  18.222   0.971   4.794
87894W        W60220  34.600   6.887   3.079
87895W        W60221  35.082  25.488  11.552
87896W        W60222  12.686   4.181  10.577
87897W        W60223   9.632  38.967  13.880
87898W        W60224  11.622   6.360   4.649
87899W        W60225  12.217  44.839   1.086
87900W        W60226  16.265   3.633  13.854
87901W        W60227  40.286  43.791  11.677
87902W        W60228   8.221  35.271  11.231
87903W        W60229  19.063   6.119   1.700
87904W        W60230   8.917  12.831   4.180
87905W        W60231  34.807   0.029   4.210
87906W        W60232  20.633  31.476   4.560
87907W        W60233  39.086   9.871  14.466
87908W        W60234   3.208  16.242   1.242
87909W        W60235  41.916  35.957   4.686
87910W        W60236   2.135  37.049   4.720
87911W        W60237  34.026   4.878   0.818
87912W        W60238   0.264  22.653   4.663
87913W        W60239  12.515   6.894   0.620
87914W        W60240  29.078  39.452   4.713
87915W        W60241  16.858  34.405   1.372
87916W        W60242  44.465  10.903  13.994
87917W        W60243  28.451  34.434   1.669
87918W        W60244  13.145  32.305  13.471
87919W        W60245  33.328  26.966  11.967
87920W        W60246  23.377  42.818  11.533
87921W        W60247   8.001  22.706  11.936
87922W        W60248  13.077  43.835  14.921
87923W        W60249  22.495  41.941   4.650
87924W        W60250  39.638   6.897   1.252
87925W        W60251  25.462  31.056  12.055
87926W        W60252  34.711  33.199  13.339
87927W        W60253   9.410   3.186   2.864
87928W        W60254   7.428  36.910  11.641
87929W        W60255  25.709   9.178   4.635
87930W        W60256   2.886  30.540   4.772
87931W        W60257  31.600  29.182  14.708
87932W        W60258   4.776   2.770   3.587
87933W        W60259  16.276   2.643  12.940
87934W        W60260  43.403  37.449   4.210
87935W        W60261  31.414  15.730  13.892
87936W        W60262  17.607  31.027   3.543
87937W        W60263   7.398   3.363  10.691
87938W        W60264  11.115  26.692  10.427
87939W        W60265  32.056   4.989   3.371
87940W        W60266   9.128  21.226   4.509
87941W        W60267   8.370  37.966   2.857
87942W        W60268  30.942  20.100   3.068
87943W        W60269  38.985  30.515   0.036
87944W        W60270   0.808  26.164  11.198
87945W        W60271  42.979  39.128   3.704
87946W        W60272  19.754  43.222   0.274
87947W        W60273  31.565  32.069   4.347
87948W        W60274   5.888  28.607   1.847
87949W        W60275  18.663  32.444  11.616
87950W        W60276   4.371  32.371  10.274
87951W        W60277  16.681  34.970   0.637
87952W        W60278   4.074  36.370   1.395
87953W        W60279  38.122  40.523  14.329
87954W        W60280  43.779  42.373  12.967
87955W        W60281   4.793  25.464   1.342
87956W        W60282  29.830  15.228   1.289
87957W        W60283  35.610  11.569  12.429
87958W        W60284  21.509   9.658  14.282
87959W        W60285  19.708  38.770  13.491
87960W        W60286  10.633  43.561  11.624
87961W        W60287  35.524  27.063  12.037
87962W        W60288   1.615  44.570   0.189
87963W        W60289  34.109   5.193  12.538
87964W        W60290   9.878  34.899  14.013
87965W        W60291  29.129  35.556   3.253
87966W        W60292  19.267  26.915  11.205
87967W        W60293   8.362   4.792  11.533
87968W        W60294   6.579  18.110  14.329
87969W        W60295   1.526  16.035   4.549
87970W        W60296  17.803   8.184  12.540
87971W        W60297   9.891  33.171  13.902
87972W        W60298  18.713  11.794  13.525
87973W        W60299  14.787  13.598  11.532
87974W        W60300  31.366   8.231  12.971
87975W        W60301  37.960  18.741   3.971
87976W        W60302  31.305   6.431   1.833
87977W        W60303   9.754   0.478   0.746
87978W        W60304  23.667  26.067   1.858
87979W        W60305  33.574  21.051  14.400
87980W        W60306  33.578  32.907   1.300
87981W        W60307  18.115   0.351   0.588
87982W        W60308  13.865  33.878   0.616
87983W        W60309  42.887  35.055  10.917
87984W        W60310   6.249  12.589   4.076
87985W        W60311  15.609  34.404  14.986
87986W        W60312   8.714  28.549   4.544
87987W        W60313  19.137   2.821  13.160
87988W        W60314   6.337  38.373  11.351
87989W        W60315  29.647  18.319  11.208
87990W        W60316  40.002  17.458   4.600
87991W        W60317  44.810  35.539  14.311
87992W        W60318  35.128  40.532   2.701
87993W        W60319  28.313  15.191   2.219
87994W        W60320  31.801  42.814  12.078
87995W        W60321  32.881  30.309  14.459
87996W        W60322  26.931  32.310  12.441
87997W        W60323   1.904   1.791   3.322
87998W        W60324  13.225  17.165   0.651
87999W        W60325   1.885  16.699  11.696
88000W        W60326  40.284  32.362   3.756
88001W        W60327  36.344  12.295  13.127
88002W        W60328   1.160  12.431  13.506
88003W        W60329  44.808  12.708  11.725
88004W        W60330  39.409  32.134   2.209
88005W        W60331  44.422  14.045  14.326
88006W        W60332  23.585  24.411   2.836
88007W        W60333  42.727   8.303   3.372
88008W        W60334  43.512  11.170   2.784
88009W        W60335   4.840  25.722   1.809
88010W        W60336  21.725  12.823   0.046
88011W        W60337  12.227  30.230  13.307
88012W        W60338  33.547  23.957  12.408
88013W        W60339  43.285   4.766  12.302
88014W        W60340  24.176  31.414   0.776
88015W        W60341   1.038  23.185   5.657
88016W        W60342  15.302  13.571  11.465
88017W        W60343   8.927  26.137   3.320
88018W        W60344  12.328  38.423   3.889
88019W        W60345  38.991   2.927   1.271
88020W        W60346  31.908  37.915   3.880
88021W        W60347   0.010  15.809   1.973
88022W        W60348  23.110  41.357   1.809
88023W        W60349  28.589  37.988  11.204
88024W        W60350   9.880   0.520  13.817
88025W        W60351   2.826  22.433  13.256
88026W        W60352   9.063  16.578  13.435
88027W        W60353  19.650  32.525   2.933
88028W        W60354   8.232   7.462  14.224
88029W        W60355   9.251   3.752   2.810
88030W        W60356  11.313   2.219  14.382
88031W        W60357   4.033  33.906   3.844
88032W        W60358  21.606  26.147  13.937
88033W        W60359  30.483  33.989   3.934
88034W        W60360  26.744  26.515   1.350
88035W        W60361  38.141  44.707  14.592
88036W        W60362  26.158  29.676   4.674
88037W        W60363  26.057  16.854   2.759
88038W        W60364   4.417  25.650  14.908
88039W        W60365   2.303   0.764  10.218
88040W        W60366   5.131  16.239  11.141
88041W        W60367  16.051  12.212   3.618
88042W        W60368  37.156  20.606   0.963
88043W        W60369   0.535  21.573   3.372
88044W        W60370  29.581  34.684  13.541
88045W        W60371  27.699  18.268  10.842
88046W        W60372  40.497   2.387   1.393
88047W        W60373  14.762   4.659  10.921
88048W        W60374  27.450  20.268   1.807
88049W        W60375  18.837  38.948  10.597
88050W        W60376  10.411  22.264   3.205
88051W        W60377  30.053  42.434   4.573
88052W        W60378  41.550  24.619   3.080
88053W        W60379  11.709  30.168  14.326
88054W        W60380  12.529  41.486  13.959
88055W        W60381  31.128  14.828  12.562
88056W        W60382  28.041  36.245  10.889
88057W        W60383  30.531   0.830  11.589
88058W        W60384  15.634   7.468  12.510
88059W        W60385  24.916  19.703   3.258
88060W        W60386  36.047   6.637   1.312
88061W        W60387  35.613  17.751   2.773
88062W        W60388  16.168  44.082   4.207
88063W        W60389  10.396  21.710  14.684
88064W        W60390  27.292  22.467  12.504
88065W        W60391  16.520  37.760  14.972
88066W        W60392  24.065  16.882   1.274
88067W        W60393   2.702   0.204  12.564
88068W        W60394  25.531  35.403  11.856
88069W        W60395  24.812  37.088  11.547
88070W        W60396   3.496   8.718   3.697
88071W        W60397   5.127  12.785  11.616
88072W        W60398  22.609  12.634   3.120
88073W        W60399   1.357  29.824  14.792
88074W        W60400   1.744  12.184  10.615
88075W        W60401  41.321  11.441   3.223
88076W        W60402  29.600  42.600  13.326
88077W        W60403  43.877  10.911   1.783
88078W        W60404  21.013  25.546   4.587
88079W        W60405   1.439   2.865   2.111
88080W        W60406  26.386  31.894  11.840
88081W        W60407  16.619  34.130  12.992
88082W        W60408  34.364  18.157  13.074
88083W        W60409  11.387  25.136  13.319
88084W        W60410  11.509   9.829   4.164
88085W        W60411  24.941  25.118   3.867
88086W        W60412  28.185  20.653  13.381
88087W        W60413  37.457  28.196   0.903
88088W        W60414  41.877  26.496  10.731
88089W        W60415  39.333  32.032   0.092
88090W        W60416  33.412  37.521  13.648
88091W        W60417   1.423   2.695  11.579
88092W        W60418  38.180  13.790  13.968
88093W        W60419  19.272  27.240  13.610
88094W        W60420  27.852   2.395  10.825
88095W        W60421  44.506  11.737   1.364
88096W        W60422   8.472  34.332  14.965
88097W        W60423   9.225  12.807   0.319
88098W        W60424  28.746  18.965  12.609
88099W        W60425  27.520  13.865   1.296
88100W        W60426  15.216  33.002   0.391
88101W        W60427  42.697   5.762  14.095
88102W        W60428   6.302  14.642   2.195
88103W        W60429  37.347  16.309   2.708
88104W        W60430  41.437  16.299  14.768
88105W        W60431  19.151  37.375  14.569
88106W        W60432   0.514  30.614   4.235
88107W        W60433  26.994  43.186  14.254
88108W        W60434  30.562   4.507   3.361
88109W        W60435   7.942  44.454  13.469
88110W        W60436  38.297  33.445   2.854
88111W        W60437  26.485   2.397   1.148
88112W        W60438  42.273  41.938  14.432
88113W        W60439  33.699   8.401   0.404
88114W        W60440  37.690  41.592   3.704
88115W        W60441  19.221   7.893  12.627
88116W        W60442  36.020  24.275  12.452
88117W        W60443  35.603   5.873   3.663
88118W        W60444  22.148   8.214   1.159
88119W        W60445  11.173  17.545  13.070
88120W        W60446  13.730  17.280   0.698
88121W        W60447  36.427  20.409   3.065
88122W        W60448  25.866  27.672   0.743
88123W        W60449   9.244  40.737   4.175
88124W        W60450  38.091   8.175  11.389
88125W        W60451  20.265  10.917  14.731
88126W        W60452  42.383  25.934  14.501
88127W        W60453   3.384  21.507   0.368
88128W        W60454   6.910   7.029   0.735
88129W        W60455  23.030   9.349   2.287
88130W        W60456  34.127  20.799  10.663
88131W        W60457  33.392  13.052  14.463
88132W        W60458  32.025  30.685   1.265
88133W        W60459  27.779  28.476   5.480
88134W        W60460  36.978  29.642  13.366
88135W        W60461   8.277  13.055   2.363
88136W        W60462  36.628  36.950   4.674
88137W        W60463   9.486  35.069  12.427
88138W        W60464  14.706   8.970  12.014
88139W        W60465  22.689  44.119  14.086
88140W        W60466  31.610   4.255   4.615
88141W        W60467  16.998  44.794   2.290
88142W        W60468  34.391   2.696  11.207
88143W        W60469  23.836  10.695   1.248
88144W        W60470   1.901  28.635  12.139
88145W        W60471  43.510  18.139  14.531
88146W        W60472  35.088  16.212  10.740
88147W        W60473   2.731  26.657  13.274
88148W        W60474  43.497  17.734   2.210
88149W        W60475  21.054   6.853   4.293
88150W        W60476   5.434  19.243  10.777
88151W        W60477  31.683   9.912  12.834
88152W        W60478   7.644  20.187  12.570
88153W        W60479   6.053   4.709   2.380
88154W        W60480  43.666  19.196   3.740
88155W        W60481  34.345  17.896  13.900
88156W        W60482   9.433  40.411  10.649
88157W        W60483  25.161  25.485  12.486
88158W        W60484  17.241  23.561   4.281
88159W        W60485  34.145   9.789   3.605
88160W        W60486  33.059  38.327  13.903
88161W        W60487  44.213  29.665   1.706
88162W        W60488  39.176  15.717  11.216
88163W        W60489  14.619  23.212   1.409
88164W        W60490  23.675   8.745   2.630
88165W        W60491   5.025  33.782  11.928
88166W        W60492  40.334   0.290   1.796
88167W        W60493   7.217  20.099   4.776
88168W        W60494  42.825  36.165  12.687
88169W        W60495  17.132  39.506   1.856
88170W        W60496  34.900  10.228  12.855
88171W        W60497  26.226   2.081  11.565
88172W        W60498  21.013  29.998   1.235
88173W        W60499   5.718   6.106  11.730
88174W        W60500  23.716  24.613  13.386
88175W        W60501  34.963  44.372  12.603
88176W        W60502   6.153  42.237   1.870
88177W        W60503  11.441  15.038  11.125
88178W        W60504  21.305  28.484   0.255
88179W        W60505  16.319   1.231  12.394
88180W        W60506   7.716  44.854   3.227
88181W        W60507  21.120  38.382   2.890
88182W        W60508  20.172   8.662  10.546
88183W        W60509  16.076   1.201   3.413
88184W        W60510  29.522  14.827  13.597
88185W        W60511  31.566  17.625   4.541
88186W        W60512   6.702  39.903   3.619
88187W        W60513  22.695  35.621  14.086
88188W        W60514  30.916   4.217   3.598
88189W        W60515  35.373   9.368  11.587
88190W        W60516  30.782   8.342  11.107
88191W        W60517  36.910  44.820  10.670
88192W        W60518   2.878  32.337  12.669
88193W        W60519  43.331  15.583   3.288
88194W        W60520  10.431  30.632   2.323
88195W        W60521  23.012  13.611  11.993
88196W        W60522   5.578  33.618  11.035
88197W        W60523  15.733   4.179  13.455
88198W        W60524  42.913   8.290   0.312
88199W        W60525  32.456  30.393   0.353
88200W        W60526  39.024  27.155   1.323
88201W        W60527  19.619  25.751  13.167
88202W        W60528  43.297  16.338  12.185
88203W        W60529  40.023  11.120  11.521
88204W        W60530   8.629  24.344  14.837
88205W        W60531  10.278  23.657   3.749
88206W        W60532  38.051  32.874  12.823
88207W        W60533  20.078  24.051   4.865
88208W        W60534   9.203  26.508  12.992
88209W        W60535  39.632  20.741  14.000
88210W        W60536  44.441   0.522  14.333
88211W        W60537  32.016  44.916  11.872
88212W        W60538  31.144  15.175   0.827
88213W        W60539  22.510  11.443  11.485
88214W        W60540  23.421  43.979   2.715
88215W        W60541  42.394  44.073  12.900
88216W        W60542  19.955  11.946   0.564
88217W        W60543  41.597  27.931  10.780
88218W        W60544   5.190   2.985  14.795
88219W        W60545   5.725  19.036   0.280
88220W        W60546  39.457   6.201  14.034
88221W        W60547   6.865  36.621   3.838
88222W        W60548  11.368  43.855  10.491
88223W        W60549   1.438  42.212   0.385
88224W        W60550   2.901  18.510  12.147
88225W        W60551  31.081  16.344  10.643
88226W        W60552   7.731  42.912   4.623
88227W        W60553   7.254  19.054   0.850
88228W        W60554  21.003  32.821  10.771
88229W        W60555  11.302  24.064  12.410
88230W        W60556  38.545  36.494  10.696
88231W        W60557  20.205   9.553   0.285
88232W        W60558   3.672  43.822   2.351
88233W        W60559  21.062   8.712  14.045
88234W        W60560   4.776   7.031   3.716
88235W        W60561  38.770  11.387   3.537
88236W        W60562   6.090  35.894   2.059
88237W        W60563  37.936  25.920   3.548
88238W        W60564  34.869  22.633  12.507
88239W        W60565   4.487  28.981  11.068
88240W        W60566  36.694  16.829  12.082
88241W        W60567  32.626  20.749  11.583
88242W        W60568  41.619  39.039  13.489
88243W        W60569  32.167  14.365   3.196
88244W        W60570  27.991  21.556   2.101
88245W        W60571  12.194   3.515  12.911
88246W        W60572   8.169  19.069   0.209
88247W        W60573  20.571   3.104   4.694
88248W        W60574  37.092  22.154  13.453
88249W        W60575  27.626  27.904   5.023
88250W        W60576   9.121  22.622  10.685
88251W        W60577  13.641  42.794   0.339
88252W        W60578  35.824  39.854  14.820
88253W        W60579  25.182   2.865   0.847
88254W        W60580   4.238  25.855   3.689
88255W        W60581  30.099  26.108   2.014
88256W        W60582  32.045  23.142   4.584
88257W        W60583   5.913  20.122  12.093
88258W        W60584   8.159  36.158   2.832
88259W        W60585  24.243  30.980  12.763
88260W        W60586  17.245  30.133   1.395
88261W        W60587  15.842  33.375  14.904
88262W        W60588   7.893  36.355  12.392
88263W        W60589  22.658  39.611   1.763
88264W        W60590  18.472  20.592   2.875
88265W        W60591  42.084  42.612  13.596
88266W        W60592  44.320  14.297  10.633
88267W        W60593  24.316  39.245  14.636
88268W        W60594  21.594  34.151  14.244
88269W        W60595  44.430   9.170  12.101
88270W        W60596  35.570  16.678   1.758
88271W        W60597  42.145  34.272   3.740
88272W        W60598  29.389  33.509   1.235
88273W        W60599  41.762   9.906   2.373
88274W        W60600  37.199  31.568   2.755
88275W        W60601  26.534  31.864   2.310
88276W        W60602  12.242  41.833  11.198
88277W        W60603   1.788  28.742   4.169
88278W        W60604  17.287  16.084   4.727
88279W        W60605  36.724  31.147  11.207
88280W        W60606   6.337   1.728  11.639
88281W        W60607   7.426  30.871   0.351
88282W        W60608  16.245   8.297  14.798
88283W        W60609   3.689   8.785   4.162
88284W        W60610  43.745  27.690  14.276
88285W        W60611   9.474  39.819  14.876
88286W        W60612  24.340  41.919   2.834
88287W        W60613  23.997   5.395  14.793
88288W        W60614  16.311  36.481   4.169
88289W        W60615  15.629  39.075  14.369
88290W        W60616   3.442  34.131  14.464
88291W        W60617  10.942  23.023   3.327
88292W        W60618  17.193  36.009  14.266
88293W        W60619  41.505  39.410  13.835
88294W        W60620  37.680  22.712  13.547
88295W        W60621  32.405  34.174   2.128
88296W        W60622  34.619  19.325  12.081
88297W        W60623  44.192  33.427  14.960
88298W        W60624  34.686  41.120  12.011
88299W        W60625   0.440  15.635   2.710
88300W        W60626  10.385  10.739   3.382
88301W        W60627  23.572  24.805   4.612
88302W        W60628   7.283  44.782  10.940
88303W        W60629  44.552  37.610  14.556
88304W        W60630   2.142  38.967  14.846
88305W        W60631  20.642  20.534   0.245
88306W        W60632  41.908  12.595  11.694
88307W        W60633  11.340  12.050   2.442
88308W        W60634  27.704  17.176   3.774
88309W        W60635  27.945  26.561  11.166
88310W        W60636  29.858  20.810   2.742
88311W        W60637  42.024   2.734   3.674
88312W        W60638  40.803  14.694  10.692
88313W        W60639  44.486  26.473   5.034
88314W        W60640   3.659   1.437  11.480
88315W        W60641  10.283  41.950   3.890
88316W        W60642  32.284  37.111   9.953
88317W        W60643  21.294  20.498  11.174
88318W        W60644  21.020  13.578  10.755
88319W        W60645  27.626  41.310   1.458
88320W        W60646  31.050  32.176  11.984
88321W        W60647  29.263  12.674   0.301
88322W        W60648  21.241  40.967  11.095
88323W        W60649  27.177  40.958  14.819
88324W        W60650  38.852   3.002   0.210
88325W        W60651  36.307  33.315   3.277
88326W        W60652  12.308  15.564   1.749
88327W        W60653  28.892  40.809   4.123
88328W        W60654  40.894  19.995   1.444
88329W        W60655   7.329   0.174   4.603
88330W        W60656  32.451  32.889  11.566
88331W        W60657  40.596   6.419   2.841
88332W        W60658   8.397  30.155  11.493
88333W        W60659  25.060   3.945  12.030
88334W        W60660  44.893  18.351  12.957
88335W        W60661   7.731  19.600   2.249
88336W        W60662  38.387   5.957   3.535
88337W        W60663   1.004  11.680  14.726
88338W        W60664   4.968   6.197  14.147
88339W        W60665  34.816  22.068   3.390
88340W        W60666  30.496  22.445   5.095
88341W        W60667   8.086  10.391  14.213
88342W        W60668  12.807  43.323  13.781
88343W        W60669  39.432   4.947  10.488
88344W        W60670   6.369  44.357   3.374
88345W        W60671  40.707  36.577  13.808
88346W        W60672  10.831  39.324  10.715
88347W        W60673   6.414   3.282   3.035
88348W        W60674  12.582   4.092   0.082
88349W        W60675  33.560  44.559   4.296
88350W        W60676  23.725  32.170  13.343
88351W        W60677  21.649  30.173  13.074
88352W        W60678  25.277  39.572   1.599
88353W        W60679  21.786  11.843  14.785
88354W        W60680  25.716  44.468   2.648
88355W        W60681  44.211  36.483   4.525
88356W        W60682  34.359  35.494  13.942
88357W        W60683  36.527  43.466   0.576
88358W        W60684  31.396  28.021  11.632
88359W        W60685  41.035  14.811  13.363
88360W        W60686  32.938   3.005  12.327
88361W        W60687  23.231   2.504   3.799
88362W        W60688  14.300  20.415   3.225
88363W        W60689   3.348  40.771  14.909
88364W        W60690  25.597  29.898   1.603
88365W        W60691   5.553  43.288   3.065
88366W        W60692  25.130  14.411  13.072
88367W        W60693  37.305  42.225  14.935
88368W        W60694  18.482  24.173   4.659
88369W        W60695   5.470  11.380   3.290
88370W        W60696   5.163  18.761  14.020
88371W        W60697   5.271  43.332   0.910
88372W        W60698  19.622  44.184   1.163
88373W        W60699  39.087   5.294  14.961
88374W        W60700  27.914  21.751  10.445
88375W        W60701  27.702   0.032   1.156
88376W        W60702  11.821  26.262  10.328
88377W        W60703  42.002   3.981  14.885
88378W        W60704  42.917  41.395   1.818
88379W        W60705  40.101  14.617   3.409
88380W        W60706  38.423   8.202   4.354
88381W        W60707  10.781   7.631   1.336
88382W        W60708   7.644   4.352  14.118
88383W        W60709  13.870  14.241   4.756
88384W        W60710   3.698  16.995   2.399
88385W        W60711  27.563  28.210  14.294
88386W        W60712  10.307  27.537  10.478
88387W        W60713  14.792  42.318   4.636
88388W        W60714  23.599  13.579  13.990
88389W        W60715   8.392  27.545  13.381
88390W        W60716  16.617  38.982  12.629
88391W        W60717  40.351  38.660  13.903
88392W        W60718   6.456  41.880  14.849
88393W        W60719  34.399   2.797  14.521
88394W        W60720  12.295   5.030  11.875
88395W        W60721  13.823  18.652   3.185
88396W        W60722   9.724  14.281   0.882
88397W        W60723  41.719  29.421   2.354
88398W        W60724  37.029  11.821  12.047
88399W        W60725  34.449   9.458  10.982
88400W        W60726  12.684  25.707  10.919
88401W        W60727  28.125  22.868   1.454
88402W        W60728   4.257   3.724   3.315
88403W        W60729  44.730  37.056  11.939
88404W        W60730  14.350  10.730  13.116
88405W        W60731   6.782   3.237  14.489
88406W        W60732  25.870  22.741   3.686
88407W        W60733   4.876  25.603   0.753
88408W        W60734   3.346  30.637  11.290
88409W        W60735  28.491   0.831  14.963
88410W        W60736  42.754   9.712   0.040
88411W        W60737  25.115  24.287   4.095
88412W        W60738   1.802  36.319  12.922
88413W        W60739  18.172  31.734  10.737
88414W        W60740  43.384  32.525  14.961
88415W        W60741  26.460  10.734   2.777
88416W        W60742  37.579   1.490  12.041
88417W        W60743  27.492  43.236  12.547
88418W        W60744  33.957  44.754  12.878
88419W        W60745  29.536  12.659  10.367
88420W        W60746   3.164  43.886  13.011
88421W        W60747  38.948  43.646  11.965
88422W        W60748  12.830  40.249  10.616
88423W        W60749  16.124  31.925  11.084
88424W        W60750  18.060  31.195   1.400
88425W        W60751  26.971  21.136  12.176
88426W        W60752  11.436  38.554   3.706
88427W        W60753  24.622  35.285  12.935
88428W        W60754   6.283  39.563   1.944
88429W        W60755  15.551  43.646   9.986
88430W        W60756  35.878  17.937  10.740
88431W        W60757  14.027  39.044   2.296
88432W        W60758  43.016  38.897   0.371
88433W        W60759  20.755  15.246  13.050
88434W        W60760  25.407   4.290  10.655
88435W        W60761  20.573  44.603   2.756
88436W        W60762  42.556  29.624   4.959
88437W        W60763  34.504  22.086  11.730
88438W        W60764  16.267  26.048  11.385
88439W        W60765  38.979  30.614  10.237
88440W        W60766  25.194  21.726  13.315
88441W        W60767  36.964  42.568   4.697
88442W        W60768  28.407  19.665   4.640
88443W        W60769   7.459   8.350   0.397
88444W        W60770   0.088  15.161   3.159
88445W        W60771  18.745  15.160   3.729
88446W        W60772   2.343  13.886   3.739
88447W        W60773  37.832  38.079   4.065
88448W        W60774   7.271  26.563   1.429
88449W        W60775  42.943   2.164   0.697
88450W        W60776  36.076  14.650  10.665
88451W        W60777   7.385  20.968  14.879
88452W        W60778  35.440  28.954   0.945
88453W        W60779  33.638  29.921   4.164
88454W        W60780   4.258  41.451  13.733
88455W        W60781   2.827  40.347   3.904
88456W        W60782  40.967   3.464  11.699
88457W        W60783  13.506  42.321   1.206
88458W        W60784   2.509  11.605   2.374
88459W        W60785  33.058  10.395  13.359
88460W        W60786   2.410   1.081   1.260
88461W        W60787   8.195   9.162   2.505
88462W        W60788  43.049  27.487  10.407
88463W        W60789  19.171  39.376   4.390
88464W        W60790  18.585   3.045   2.217
88465W        W60791  11.757  35.404  13.113
88466W        W60792  27.950  43.494   0.261
88467W        W60793  15.206   2.011  13.897
88468W        W60794   3.279   8.971  12.440
88469W        W60795  17.658   2.247  12.192
88470W        W60796  23.280  29.504  10.843
88471W        W60797  38.880  34.970  13.599
88472W        W60798   4.295  13.566  11.062
88473W        W60799  13.134  35.050   4.778
88474W        W60800  43.327  42.675  10.704
88475W        W60801   5.923  41.411   3.122
88476W        W60802   2.013  24.221   0.460
88477W        W60803  13.668  35.603  14.962
88478W        W60804   2.326   7.949  12.118
88479W        W60805   5.333  28.586   3.164
88480W        W60806  12.406   2.373   1.818
88481W        W60807  37.969  35.063  10.748
88482W        W60808   4.167  18.997  11.026
88483W        W60809  34.851  33.174   3.361
88484W        W60810  17.986   4.134  13.087
88485W        W60811  30.356  38.641  13.202
88486W        W60812   2.180   2.683   5.126
88487W        W60813  30.457  16.371  13.818
88488W        W60814  42.975   1.761  12.994
88489W        W60815  43.033  24.535  14.545
88490W        W60816  32.167  14.198   1.702
88491W        W60817  16.901  35.071   4.114
88492W        W60818  32.899  19.609   4.185
88493W        W60819  26.688  12.586   2.838
88494W        W60820  40.018  26.948   4.360
88495W        W60821   6.272  22.784  11.660
88496W        W60822  24.924  20.131  14.487
88497W        W60823  24.175  29.617   3.198
88498W        W60824  44.361  21.654   0.870
88499W        W60825  22.967  36.760   1.764
88500W        W60826  26.473  20.767  11.996
88501W        W60827  33.179  16.497  13.995
88502W        W60828  17.300  29.252   0.305
88503W        W60829  35.609  36.011  11.290
88504W        W60830  36.342  24.220  13.508
88505W        W60831  40.549  32.096  13.456
88506W        W60832  16.981   7.150   4.160
88507W        W60833  42.735  15.142   3.706
88508W        W60834  44.570  33.567  14.037
88509W        W60835  29.994  10.352   1.262
88510W        W60836   7.396  26.695  13.572
88511W        W60837  33.005  25.926   3.771
88512W        W60838  10.185  10.731  12.612
88513W        W60839  15.222  28.030  12.918
88514W        W60840  26.494   1.771  13.874
88515W        W60841  31.520  28.532  13.811
88516W        W60842   8.161  39.964   3.231
88517W        W60843  39.819  26.439  13.410
88518W        W60844   0.384  22.390  13.852
88519W        W60845  41.934  37.838  14.346
88520W        W60846  34.190  41.375  14.246
88521W        W60847  19.111  16.855   4.621
88522W        W60848   9.569   9.601  14.805
88523W        W60849  23.212  27.492  11.934
88524W        W60850   1.302  36.276  12.911
88525W        W60851  11.821  33.571  13.427
88526W        W60852   3.085  39.924   3.689
88527W        W60853  28.070  26.582   3.211
88528W        W60854  43.551  14.105   1.415
88529W        W60855  30.621  19.259   3.349
88530W        W60856   8.961  10.815   3.778
88531W        W60857  42.303  36.872  13.008
88532W        W60858  36.775  20.699  12.388
88533W        W60859  32.725  18.154  14.515
88534W        W60860  34.926  41.455   1.031
88535W        W60861  32.968  24.449  12.566
88536W        W60862   3.289  20.445  11.465
88537W        W60863  25.270  20.111   2.340
88538W        W60864  41.607  42.450   3.241
88539W        W60865  37.811  11.618  11.033
88540W        W60866  40.286  32.499   2.797
88541W        W60867  35.463  36.763   4.039
88542W        W60868  34.583  35.348   1.355
88543W        W60869  31.030  19.269  12.901
88544W        W60870   4.829  12.791   1.162
88545W        W60871  44.765  41.838   3.720
88546W        W60872  21.988   6.328   3.173
88547W        W60873  24.274   4.849   2.368
88548W        W60874   5.742  29.172   2.866
88549W        W60875   2.162  13.183  14.989
88550W        W60876  15.736   7.337   4.492
88551W        W60877   4.919  13.196  11.855
88552W        W60878  10.359  44.510  12.339
88553W        W60879  44.755  36.094  11.611
88554W        W60880   7.232   7.014  14.408
88555W        W60881  22.870   1.205  13.216
88556W        W60882  28.040  17.548   0.365
88557W        W60883  24.823  31.043   2.283
88558W        W60884   8.168  43.352   4.116
88559W        W60885  32.515  40.684  14.441
88560W        W60886   8.439  27.567   4.684
88561W        W60887  31.502  14.284  11.156
88562W        W60888   4.296  42.031   3.683
88563W        W60889  26.029  25.062  10.561
88564W        W60890  11.764  12.239   2.189
88565W        W60891   5.134  22.106  13.869
88566W        W60892  10.633  26.581  10.547
88567W        W60893  17.091  37.590  14.754
88568W        W60894   6.769   3.895  11.415
88569W        W60895  40.282  10.299  11.185
88570W        W60896  40.323  18.773   4.576
88571W        W60897   5.191  28.075  14.409
88572W        W60898  22.936  18.886  14.572
88573W        W60899  25.836  18.482   3.909
88574W        W60900  38.552  15.870  14.383
88575W        W60901   6.960  15.257  13.776
88576W        W60902  36.482  30.656   2.740
88577W        W60903  19.299   5.867   0.236
88578W        W60904  16.131  41.328  12.892
88579W        W60905   3.375  21.437  12.834
88580W        W60906  18.463  33.343   4.593
88581W        W60907  36.215  17.304   0.144
88582W        W60908  13.317   9.171   3.303
88583W        W60909  24.414  25.146   3.789
88584W        W60910  24.046  33.163   0.340
88585W        W60911  24.074  13.836  14.072
88586W        W60912  32.558  32.588   4.141
88587W        W60913  17.053  34.600   0.658
88588W        W60914  34.097   0.467   1.557
88589W        W60915  36.904  23.992  11.104
88590W        W60916  26.392  15.167  14.460
88591W        W60917  17.194  23.049   4.162
88592W        W60918  25.027   6.376   4.196
88593W        W60919   7.428  18.039   3.016
88594W        W60920  10.876  25.034  12.967
88595W        W60921  33.148  25.009   3.340
88596W        W60922  22.111   9.136   4.278
88597W        W60923  40.756  20.172   4.663
88598W        W60924   1.051  34.870   0.366
88599W        W60925  41.291  10.655   2.768
88600W        W60926  37.161  30.727   0.079
88601W        W60927   5.655  32.605  12.085
88602W        W60928  36.556   3.710   0.060
88603W        W60929  36.796   6.682   2.894
88604W        W60930  18.300  28.605   2.711
88605W        W60931  20.492  37.022  11.657
88606W        W60932  36.404  41.882   4.109
88607W        W60933  36.887  40.965  13.040
88608W        W60934  25.635  36.588   3.730
88609W        W60935  38.320  44.343  12.392
88610W        W60936  36.661   1.743   0.378
88611W        W60937  16.204  36.048   2.126
88612W        W60938  26.365   6.752   3.290
88613W        W60939  38.035  32.873   1.465
88614W        W60940   0.511  22.206   9.686
88615W        W60941  20.297  27.527  10.650
88616W        W60942   2.960  18.557  13.975
88617W        W60943   0.858   2.344  12.995
88618W        W60944  29.218  21.159  10.637
88619W        W60945  23.808   6.314   2.090
88620W        W60946   0.388  17.536  12.825
88621W        W60947  19.755  41.241  13.906
88622W        W60948   6.447  16.520   1.880
88623W        W60949   0.895  39.449   1.338
88624W        W60950   9.446   4.845  13.033
88625W        W60951  22.664  10.489   0.058
88626W        W60952  34.118  22.848   4.117
88627W        W60953  29.455  10.900   0.681
88628W        W60954  14.034   1.897   1.213
88629W        W60955  14.438  39.847   4.169
88630W        W60956  26.659  23.717   1.845
88631W        W60957  35.856  29.247   2.204
88632W        W60958  11.585  43.436  11.364
88633W        W60959  34.354  11.182  12.924
88634W        W60960   9.619  36.016  14.888
88635W        W60961  12.323   6.492   1.891
88636W        W60962  19.491  44.910  14.362
88637W        W60963  35.746  11.847  12.001
88638W        W60964  36.827  41.989  14.876
88639W        W60965   3.677   1.936  13.583
88640W        W60966   6.380  32.776  11.692
88641W        W60967  25.942  19.077  11.607
88642W        W60968   2.344  29.870   4.909
88643W        W60969   1.273  29.539   4.834
88644W        W60970  18.273   5.883   0.389
88645W        W60971  29.638   9.218  11.169
88646W        W60972  31.156  12.585   0.398
88647W        W60973  40.245   9.298  11.199
88648W        W60974  32.952   2.498  10.935
88649W        W60975   9.253  20.570  12.383
88650W        W60976  37.499   3.446   2.819
88651W        W60977  10.879  31.399   0.900
88652W        W60978  11.803  36.998   1.974
88653W        W60979  31.578   1.740  11.946
88654W        W60980  25.997  42.332  13.885
88655W        W60981  35.075  40.266  11.954
88656W        W60982  42.244  20.902  12.438
88657W        W60983  22.696  16.661   4.610
88658W        W60984   7.483  15.254  13.816
88659W        W60985  42.868  40.245   2.256
88660W        W60986  37.163  15.632  11.136
88661W        W60987   7.401  18.587   4.784
88662W        W60988  34.303  28.882   2.820
88663W        W60989  44.400  27.995  10.582
88664W        W60990  20.181  15.604  10.622
88665W        W60991  10.205  41.731   2.315
88666W        W60992  35.290  11.516  13.501
88667W        W60993  38.539   9.711   9.823
88668W        W60994  29.266  30.381   3.205
88669W        W60995  14.326  27.075   2.350
88670W        W60996  18.046  14.338   4.339
88671W        W60997  11.946  32.109  11.677
88672W        W60998  26.035   2.510   0.925
88673W        W60999  32.127  14.321   0.698
88674W        W61000  12.160  29.343  10.796
88675W        W61001   3.794  33.283  11.256
88676W        W61002  22.768  15.563   4.047
88677W        W61003   1.009   5.832   3.693
88678W        W61004  14.099  43.167  14.515
88679W        W61005  40.378  41.777   1.402
88680W        W61006  23.674  33.696   3.267
88681W        W61007  20.959  31.022  14.259
88682W        W61008   3.792  13.302   3.021
88683W        W61009   8.870  26.203   4.200
88684W        W61010  11.844  15.728   1.413
88685W        W61011  35.213  21.228  10.326
88686W        W61012  17.073  36.434   4.083
88687W        W61013  18.711  42.830  14.010
88688W        W61014   6.395  31.479  14.897
88689W        W61015  27.688  30.057  13.108
88690W        W61016   2.048  32.972   4.909
88691W        W61017  28.122  35.858  12.280
88692W        W61018  15.522  44.204  13.103
88693W        W61019  28.620  16.787   2.414
88694W        W61020   5.151   3.241  13.413
88695W        W61021  28.716   6.251   4.288
88696W        W61022  27.750  43.452  12.982
88697W        W61023  11.582  12.318   4.180
88698W        W61024  23.088  13.071   2.355
88699W        W61025  16.017   9.654  14.445
88700W        W61026  30.943  20.694  13.913
88701W        W61027   1.186  21.196  14.866
88702W        W61028  42.934  17.242  14.293
88703W        W61029  25.144  19.260  12.956
88704W        W61030  18.020  17.971  13.701
88705W        W61031  15.756   8.290   0.568
88706W        W61032  15.084   1.969   2.713
88707W        W61033  10.262  27.619   2.240
88708W        W61034  42.597  32.837   1.870
88709W        W61035   2.302  10.190  10.319
88710W        W61036  35.540  14.635   0.280
88711W        W61037   9.831  28.684  12.638
88712W        W61038  31.827  27.706  11.925
88713W        W61039  22.688  12.385   4.545
88714W        W61040   9.856   9.797   3.220
88715W        W61041  19.623  27.944  13.917
88716W        W61042  33.626   1.822   5.125
88717W        W61043   7.762  19.627   3.799
88718W        W61044  30.492  39.590  14.432
88719W        W61045   7.332   0.721   4.510
88720W        W61046  19.572  32.972  11.494
88721W        W61047   6.511  42.574  11.860
88722W        W61048  31.619   7.422  14.363
88723W        W61049   7.835  32.562  13.454
88724W        W61050  17.077  10.834  10.912
88725W        W61051  33.879  35.506   0.766
88726W        W61052  31.175  23.122   3.620
88727W        W61053  26.903  25.670   1.303
88728W        W61054  25.611   2.469  10.599
88729W        W61055  31.169  29.738  12.855
88730W        W61056  39.782  19.088  14.396
88731W        W61057  19.166  25.674  10.577
88732W        W61058  26.520  23.109   0.366
88733W        W61059   3.875  29.519   0.053
88734W        W61060  24.033  19.494   0.854
88735W        W61061  13.759  30.934  12.744
88736W        W61062  13.156  32.998  10.206
88737W        W61063  35.078  18.227  14.371
88738W        W61064  16.300  14.621  11.083
88739W        W61065  26.236  36.972  14.899
88740W        W61066  22.204  39.428   1.959
88741W        W61067   9.675  13.115  14.460
88742W        W61068  43.931  15.604   4.264
88743W        W61069  32.861  25.163   1.958
88744W        W61070  21.756  43.366  14.027
88745W        W61071  35.520  42.019   4.781
88746W        W61072  14.565   8.249  12.422
88747W        W61073  13.019   6.384  11.170
88748W        W61074  22.596  22.059  11.549
88749W        W61075  26.444  23.306  12.342
88750W        W61076  34.529   4.744  10.688
88751W        W61077  36.604  39.912   0.460
88752W        W61078  25.677  29.340  12.568
88753W        W61079   2.957  13.186  12.066
88754W        W61080  30.327  10.364  13.501
88755W        W61081   7.846  16.925   3.540
88756W        W61082  24.521  13.846   3.575
88757W        W61083  21.225   9.624   2.965
88758W        W61084  27.521  19.991   1.350
88759W        W61085  29.098  36.907  10.965
88760W        W61086  16.041  31.029   4.153
88761W        W61087  44.328  31.049  10.461
88762W        W61088  21.137  16.770   1.215
88763W        W61089  16.873  28.487   0.812
88764W        W61090   1.359  29.444   2.887
88765W        W61091  44.825  39.506   1.313
88766W        W61092   1.733  31.622   4.405
88767W        W61093  23.721  34.763  13.014
88768W        W61094  31.449  37.402  11.100
88769W        W61095  16.098  19.433  10.701
88770W        W61096   4.844  32.628  10.172
88771W        W61097  39.761   2.992  11.757
88772W        W61098  19.568  20.763  11.664
88773W        W61099  28.040  27.149  14.059
88774W        W61100  43.903  29.441   0.644
88775W        W61101  11.367  17.040   1.307
88776W        W61102  16.183  22.834  13.382
88777W        W61103   8.319  12.376   1.485
88778W        W61104  31.136  21.094  12.061
88779W        W61105   1.421  40.235  11.883
88780W        W61106  34.181  38.896   3.122
88781W        W61107  28.992  16.518   4.771
88782W        W61108  38.691  14.830   3.492
88783W        W61109  22.934  39.544   2.842
88784W        W61110  26.935   0.188  11.941
88785W        W61111  20.061  31.949  14.920
88786W        W61112  41.026  36.925  13.306
88787W        W61113  21.987  22.985  14.836
88788W        W61114  18.129  18.408   0.128
88789W        W61115  12.007  14.120  13.033
88790W        W61116   8.621  11.521  13.476
88791W        W61117  38.422  16.680  12.466
88792W        W61118   1.419   0.680  11.454
88793W        W61119   6.714  23.623   2.298
88794W        W61120   1.431  28.886  10.621
88795W        W61121   9.437   0.710   2.871
88796W        W61122  15.823  19.642  12.218
88797W        W61123  39.280  36.156   1.451
88798W        W61124  15.785   2.319   1.387
88799W        W61125  10.704   5.778   1.556
88800W        W61126  22.762  15.674   9.978
88801W        W61127  27.065  16.683   0.323
88802W        W61128  18.758  42.804  10.241
88803W        W61129  14.585  15.644   2.553
88804W        W61130  10.863   1.932  14.461
88805W        W61131  33.788  40.778   2.641
88806W        W61132  15.654  18.171  12.515
88807W        W61133   7.157   4.229  11.230
88808W        W61134   0.662  10.120   4.088
88809W        W61135  22.048  15.607  13.599
88810W        W61136   4.182  24.166   0.673
88811W        W61137   1.403  33.918   3.167
88812W        W61138  15.352  21.435   1.316
88813W        W61139  17.640   0.463  13.775
88814W        W61140  17.637   7.829   1.043
88815W        W61141  18.994  44.881  11.063
88816W        W61142  11.374  22.732   3.384
88817W        W61143  44.480  33.458   1.835
88818W        W61144  11.296  30.067   0.331
88819W        W61145   0.010  24.757   4.960
88820W        W61146  10.757  15.998   1.067
88821W        W61147  25.960  28.773  13.491
88822W        W61148  30.514  16.120   4.749
88823W        W61149  24.421  17.905  13.461
88824W        W61150  10.385  24.045   1.334
88825W        W61151  36.426  31.948  12.944
88826W        W61152  32.070   6.972   1.372
88827W        W61153  10.403  27.812   2.706
88828W        W61154  19.139  30.548   0.756
88829W        W61155  19.009  21.540   1.135
88830W        W61156  24.521  14.605   0.344
88831W        W61157  22.972   3.191  13.372
88832W        W61158   5.676  30.157  14.891
88833W        W61159  33.020   5.795   2.512
88834W        W61160   3.839  13.401  14.481
88835W        W61161   8.267   0.171  14.957
88836W        W61162  31.350  42.933   1.429
88837W        W61163  20.911  16.523  14.993
88838W        W61164  17.390  35.004   3.338
88839W        W61165  42.658  34.544   1.938
88840W        W61166   1.212  23.564   1.031
88841W        W61167  44.889  22.557   1.930
88842W        W61168   8.753  37.436   0.698
88843W        W61169  37.164   5.561  11.268
88844W        W61170  40.762  31.191  13.424
88845W        W61171  29.954  22.942   1.881
88846W        W61172   7.823  40.082   1.697
88847W        W61173  16.120   5.739   4.223
88848W        W61174  21.573  16.798  11.631
88849W        W61175  14.638   8.738   3.296
88850W        W61176  16.707  14.280   4.141
88851W        W61177  26.502  36.338  14.508
88852W        W61178   2.336  15.809  10.530
88853W        W61179  14.560  18.521  10.798
88854W        W61180   7.433   1.903  13.470
88855W        W61181  18.286  35.653  10.738
88856W        W61182  41.045   3.551   1.352
88857W        W61183   8.856  26.769  11.684
88858W        W61184   2.321  32.377   3.644
88859W        W61185   1.538  31.057  11.565
88860W        W61186  44.961  21.263   4.569
88861W        W61187  44.981  37.943  10.640
88862W        W61188   2.228  33.503   1.210
88863W        W61189   0.983   0.826   1.068
88864W        W61190  23.715  39.133   5.406
88865W        W61191   2.017  44.818  14.948
88866W        W61192   8.694   5.209  11.548
88867W        W61193  44.088  28.523  13.564
88868W        W61194  18.348  37.640   0.197
88869W        W61195  39.323  12.329  12.533
88870W        W61196  31.065   2.909  14.925
88871W        W61197  16.139  30.032   3.106
88872W        W61198  17.101   5.002  13.334
88873W        W61199  29.450  33.386   0.367
88874W        W61200  17.902  29.607  10.742
88875W        W61201  19.655  42.213   2.391
88876W        W61202  38.914  16.929   5.132
88877W        W61203  36.106  27.081   4.100
88878W        W61204   5.725  11.315  14.988
88879W        W61205  34.204  29.401  12.550
88880W        W61206   6.738  44.556  12.437
88881W        W61207  17.737  28.518   1.963
88882W        W61208  36.984   2.175  14.472
88883W        W61209   1.301  37.489   1.459
88884W        W61210   9.072  20.615  14.778
88885W        W61211  13.306   7.926  12.902
88886W        W61212  10.406  16.265  11.299
88887W        W61213  40.963  10.156   4.492
88888W        W61214  32.880  17.039  11.620
88889W        W61215  28.936  33.407   0.257
88890W        W61216  32.411  34.051   2.641
88891W        W61217  29.533  37.283   1.714
88892W        W61218  34.812  13.370   4.223
88893W        W61219  39.032   0.247  10.884
88894W        W61220  33.630  21.143   3.759
88895W        W61221   1.825  11.312  11.177
88896W        W61222  33.580  21.492  10.223
88897W        W61223   6.445  20.000   1.120
88898W        W61224  11.803  12.271   3.706
88899W        W61225  37.336  27.058   0.145
88900W        W61226  43.936  38.600   0.840
88901W        W61227   2.290   3.399   3.183
88902W        W61228  37.167  21.229   4.420
88903W        W61229   9.906  22.274   3.051
88904W        W61230  18.959  24.087  10.612
88905W        W61231  18.607  35.558  13.779
88906W        W61232  16.681  30.435   4.659
88907W        W61233   8.061  37.865  10.701
88908W        W61234  36.015   7.696  10.571
88909W        W61235  29.490   0.009   1.732
88910W        W61236   4.828  34.533  10.567
88911W        W61237  27.540   6.801  11.558
88912W        W61238   0.853  39.857   2.514
88913W        W61239  21.813   3.877   4.536
88914W        W61240  33.116  37.910  13.439
88915W        W61241  18.752   9.926   1.652
88916W        W61242  34.856  40.646  10.255
88917W        W61243  27.021  18.604  11.105
88918W        W61244  30.396  17.065   4.052
88919W        W61245  33.091  35.515  10.050
88920W        W61246  20.688  16.464  12.060
88921W        W61247   1.772  37.362  11.516
88922W        W61248  26.120  20.694   2.269
88923W        W61249  35.968  24.814  11.590
88924W        W61250  32.638  40.847   1.387
88925W        W61251  29.921  19.751  12.429
88926W        W61252   1.739   2.445  11.896
88927W        W61253  34.618  34.596   0.243
88928W        W61254  28.098  16.575   0.442
88929W        W61255  33.414   6.689   2.281
88930W        W61256  22.225  43.506  11.913
88931W        W61257  28.369  24.059   0.673
88932W        W61258  23.311  22.017  14.538
88933W        W61259   4.575  12.596   0.755
88934W        W61260   1.196  21.081   2.182
88935W        W61261  13.089   3.270  12.565
88936W        W61262  25.791  27.438  13.738
88937W        W61263   7.199   0.717  10.563
88938W        W61264  33.422   9.444  11.200
88939W        W61265  25.910   2.839   3.677
88940W        W61266  31.643  19.265  13.599
88941W        W61267  23.724   0.854   4.759
88942W        W61268  26.608   6.240  14.859
88943W        W61269  30.489  41.448  14.319
88944W        W61270  18.614  12.777   1.359
88945W        W61271  24.102   0.809   2.392
88946W        W61272  14.930   8.588   4.121
88947W        W61273  38.763  21.654   2.242
88948W        W61274  15.345  34.326  13.064
88949W        W61275  21.751   1.535   4.139
88950W        W61276  41.922  16.876   2.272
88951W        W61277  24.878  25.871  14.072
88952W        W61278  17.256  44.459   4.076
88953W        W61279  38.556  15.131   1.871
88954W        W61280  16.060   4.751  11.108
88955W        W61281  43.234   3.894  10.654
88956W        W61282  27.658  33.521  14.854
88957W        W61283  37.565  23.604   1.271
88958W        W61284  23.428  33.144   2.744
88959W        W61285   4.801  37.505   4.682
88960W        W61286  33.475  38.801  10.681
88961W        W61287   2.276   6.321  14.023
88962W        W61288  24.690  28.004   2.912
88963W        W61289  21.144   7.385   3.052
88964W        W61290  31.010   9.827  13.560
88965W        W61291  25.119  15.824   4.309
88966W        W61292  36.823  35.827  10.392
88967W        W61293  24.381  25.436   4.280
88968W        W61294  19.881  12.042  11.740
88969W        W61295  36.585  19.804  11.959
88970W        W61296  13.131  36.044  10.366
88971W        W61297  24.493  15.104   0.235
88972W        W61298   0.451   1.795   4.980
88973W        W61299   0.509  37.705  13.563
88974W        W61300  27.231  27.436  13.529
88975W        W61301  21.175  29.967  11.181
88976W        W61302   5.214  13.620   2.170
88977W        W61303  12.915  37.202   5.492
88978W        W61304  22.689  35.378  11.222
88979W        W61305  43.503  14.765   1.788
88980W        W61306   4.360  44.424   2.981
88981W        W61307  25.575  39.556  14.003
88982W        W61308   2.234  25.031  10.466
88983W        W61309  25.693  13.413   4.653
88984W        W61310  37.584  25.563   3.677
88985W        W61311  44.764   3.271   2.402
88986W        W61312   1.747  40.061   4.516
88987W        W61313   9.627  13.666   4.601
88988W        W61314  31.659  26.597   2.706
88989W        W61315   5.579  29.501  10.654
88990W        W61316   9.139   0.548  12.875
88991W        W61317  34.591  43.638  10.525
88992W        W61318  27.990  28.258   5.003
88993W        W61319  36.070  16.047   2.271
88994W        W61320  26.478  28.040  10.665
88995W        W61321  14.264  35.874  11.127
88996W        W61322  35.839  35.884   0.325
88997W        W61323  10.687  20.229   0.004
88998W        W61324  39.784  31.403   0.769
88999W        W61325  32.554  33.782   0.778
89000W        W61326  42.513   3.685  12.998
89001W        W61327  23.730  37.907  11.336
89002W        W61328  27.512   4.798   2.217
89003W        W61329  27.982  10.308  12.199
89004W        W61330  14.864  42.802   0.860
89005W        W61331  33.321   4.178   2.701
89006W        W61332   0.083  42.328  14.448
89007W        W61333  38.782  19.883  11.516
89008W        W61334  34.364  15.724  12.074
89009W        W61335  27.287  31.186   3.692
89010W        W61336  24.279  30.736   2.736
89011W        W61337  18.462  23.343  11.910
89012W        W61338  33.590  18.281   0.370
89013W        W61339  11.392  13.233  12.876
89014W        W61340  32.120   8.941  14.018
89015W        W61341  11.201  35.569  11.902
89016W        W61342  39.541   2.198   2.325
89017W        W61343  35.068   9.333   1.684
89018W        W61344  13.731  34.299   3.180
89019W        W61345  22.498  21.583   0.683
89020W        W61346  11.630   5.891   1.321
89021W        W61347  28.586   4.025   2.831
89022W        W61348  35.708   9.251   0.204
89023W        W61349  28.757  29.846  11.956
89024W        W61350  44.073  12.043  11.484
89025W        W61351  35.894  26.440   4.646
89026W        W61352  34.461   7.642   1.925
89027W        W61353  23.924  22.536   3.667
89028W        W61354  37.802  22.694  13.027
89029W        W61355  29.584  28.483  11.393
89030W        W61356  18.001  43.507   2.638
89031W        W61357  23.252   9.678  11.041
89032W        W61358  19.782  11.414  11.126
89033W        W61359  39.162  11.926  14.283
89034W        W61360  42.015   4.016  13.349
89035W        W61361  30.598   5.834  10.727
89036W        W61362  12.583   2.402  11.150
89037W        W61363  19.024  18.246  10.790
89038W        W61364  37.559   5.703  14.327
89039W        W61365  20.528   3.305   2.359
89040W        W61366  28.552  30.127  12.323
89041W        W61367  21.752   0.227  10.766
89042W        W61368   7.737  20.110   4.598
89043W        W61369  34.098   7.032  12.901
89044W        W61370  21.620   2.708  10.629
89045W        W61371   8.670  20.275   2.798
89046W        W61372  42.004  27.741   0.815
89047W        W61373  35.932  28.941  13.112
89048W        W61374   4.771  15.625  13.230
89049W        W61375  44.751  32.032  10.628
89050W        W61376   8.674   8.937   4.182
89051W        W61377  10.384  34.131   1.395
89052W        W61378  19.556   5.460   3.250
89053W        W61379  22.328  13.951   1.950
89054W        W61380  25.155   3.176  11.582
89055W        W61381  15.367  15.526  14.393
89056W        W61382   0.498  40.053  12.523
89057W        W61383  18.723   7.698   0.159
89058W        W61384  24.921  34.873   1.291
89059W        W61385  30.190  34.939   4.910
89060W        W61386  10.647  41.758  13.334
89061W        W61387  20.762   8.560  14.440
89062W        W61388   2.930  13.876   3.147
89063W        W61389  14.763  37.127  11.980
89064W        W61390  11.124  26.545   3.324
89065W        W61391  39.783  28.160   1.169
89066W        W61392  41.946  15.174  13.346
89067W        W61393  16.313  29.076  14.486
89068W        W61394  23.171   1.821   1.932
89069W        W61395   2.532  25.971   2.474
89070W        W61396  18.425  22.228   2.788
89071W        W61397  16.668  23.087   1.300
89072W        W61398  18.152   5.192  11.476
89073W        W61399  32.858  29.016  14.250
89074W        W61400  11.472   9.212   1.253
89075W        W61401  17.458   4.717  10.578
89076W        W61402  43.367  35.177  10.785
89077W        W61403  29.559  26.794  12.511
89078W        W61404  43.309  27.954  14.452
89079W        W61405  33.614   1.466   0.902
89080W        W61406  29.193   9.001   1.744
89081W        W61407  27.771  29.400  11.395
89082W        W61408  14.992   9.193  13.595
89083W        W61409  44.313  42.418   4.239
89084W        W61410   9.245   2.491   1.256
89085W        W61411   2.500  16.594   1.582
89086W        W61412  25.543   6.983  14.054
89087W        W61413  14.710   5.017   2.153
89088W        W61414  23.416   9.852   1.686
89089W        W61415  20.064  40.972  13.019
89090W        W61416  17.491  42.015   3.248
89091W        W61417  43.758  34.909   1.794
89092W        W61418  16.598  14.674  10.633
89093W        W61419   1.995   9.227  13.838
89094W        W61420  44.865  20.437   2.184
89095W        W61421  27.673  16.416   3.155
89096W        W61422  32.031   0.440   0.388
89097W        W61423  18.048   5.850   3.305
89098W        W61424  32.915   7.679  10.687
89099W        W61425  16.890  31.071  10.990
89100W        W61426  35.103  36.539  11.998
89101W        W61427  36.342   0.797  10.289
89102W        W61428  34.572  37.147   0.822
89103W        W61429   8.663  40.954   2.691
89104W        W61430   9.640  36.453   0.498
89105W        W61431  25.847   1.864  12.797
89106W        W61432   6.318  18.537  14.408
89107W        W61433  15.773  37.954   4.613
89108W        W61434  37.497  31.097   1.191
89109W        W61435  33.607  13.048   1.853
89110W        W61436  10.824  44.802  13.043
89111W        W61437  30.234  41.945   4.479
89112W        W61438  32.000   6.358   2.368
89113W        W61439   7.462  28.651  12.175
89114W        W61440  11.258  28.425  11.106
89115W        W61441  12.228  21.698   0.540
89116W        W61442   5.213  39.949   0.478
89117W        W61443  35.600  35.426   1.292
89118W        W61444  28.542   0.181   3.151
89119W        W61445   0.827  30.574  13.297
89120W        W61446  30.669  37.544  12.969
89121W        W61447   9.385  39.561  13.465
89122W        W61448  42.995  36.786   3.151
89123W        W61449  39.211  11.022  10.146
89124W        W61450   6.627  32.272   4.126
89125W        W61451  25.687  27.510  12.892
89126W        W61452  11.064  13.105   1.016
89127W        W61453  21.228  40.539  14.020
89128W        W61454  41.857  43.500   3.281
89129W        W61455  28.346  17.739   3.757
89130W        W61456  31.610  39.030   0.603
89131W        W61457  21.518   2.900  14.032
89132W        W61458  36.270  21.246  12.915
89133W        W61459  13.918  21.534   1.411
89134W        W61460  31.193  14.185   4.559
89135W        W61461  15.195  24.192   1.681
89136W        W61462  35.964   6.689   3.444
89137W        W61463  17.654  16.530   1.832
89138W        W61464  25.011  44.775  14.387
89139W        W61465  34.873   8.594  13.690
89140W        W61466   9.299  24.634  10.946
89141W        W61467  17.875  24.715  13.665
89142W        W61468  18.739   9.424   3.106
89143W        W61469   8.862  25.729   0.348
89144W        W61470   0.216   2.180   0.518
89145W        W61471  38.955  42.840  12.616
89146W        W61472  24.042  18.964   3.198
89147W        W61473  26.036  21.057  10.654
89148W        W61474   4.232   9.263   1.175
89149W        W61475  35.057  21.694  13.277
89150W        W61476  20.979   4.857   2.795
89151W        W61477  19.588  26.258   2.293
89152W        W61478  26.664   6.884   2.892
89153W        W61479   5.180  36.260  14.646
89154W        W61480  39.464  38.589   2.887
89155W        W61481  39.819  14.077  14.589
89156W        W61482  38.950  40.488   2.152
89157W        W61483  15.520  44.294  13.758
89158W        W61484  33.515   0.823   3.148
89159W        W61485  16.638   1.624   4.865
89160W        W61486  14.890  32.049   4.227
89161W        W61487  27.723   3.765  12.840
89162W        W61488  42.902   1.846   3.243
89163W        W61489  33.465  23.091  12.861
89164W        W61490  31.654  32.057   2.173
89165W        W61491  11.640  36.047  12.427
89166W        W61492  37.396  38.875  13.770
89167W        W61493  32.113   1.347   3.202
89168W        W61494  22.021  13.637   3.678
89169W        W61495  30.003  39.263   0.265
89170W        W61496   5.160   7.626  11.068
89171W        W61497  27.130  10.310   2.182
89172W        W61498  34.069   8.146   4.551
89173W        W61499  12.739   4.487  11.365
89174W        W61500  42.438   9.766   0.928
89175W        W61501   3.316  43.719  12.533
89176W        W61502   0.439  29.491  12.739
89177W        W61503   5.213  18.693   2.716
89178W        W61504  29.611  16.923  11.508
89179W        W61505  17.098  25.760   2.287
89180W        W61506   9.880  18.603   3.335
89181W        W61507  12.259   0.288  14.914
89182W        W61508  30.930  40.561   3.220
89183W        W61509  17.525   4.836   0.684
89184W        W61510  41.275  38.916  13.975
89185W        W61511  11.271   5.303   0.487
89186W        W61512  12.081  13.699  13.331
89187W        W61513   7.073   2.319  11.619
89188W        W61514  44.144  10.188  13.543
89189W        W61515   2.593  23.521   9.809
89190W        W61516  26.880  36.426   4.067
89191W        W61517  33.463  17.771   1.224
89192W        W61518  26.933  13.612  11.555
89193W        W61519  23.263  36.583  14.850
89194W        W61520  17.389   6.574  11.045
89195W        W61521   9.011   0.157  13.245
89196W        W61522  44.923  15.099  13.479
89197W        W61523   3.610   3.221   0.744
89198W        W61524  41.379  42.898  11.911
89199W        W61525  12.898  29.127  14.237
89200W        W61526  27.033   4.775   5.132
89201W        W61527  23.462  37.015  10.173
89202W        W61528  39.222   5.266  12.160
89203W        W61529  19.961  16.227  14.739
89204W        W61530  35.144  25.029   1.502
89205W        W61531  21.201  10.796   2.773
89206W        W61532   1.445  39.346  12.373
89207W        W61533  22.092  44.787  14.596
89208W        W61534  35.169  22.718   2.266
89209W        W61535  30.281  30.519   1.235
89210W        W61536  44.544  26.038  12.974
89211W        W61537  36.349   6.834  13.400
89212W        W61538  14.192  12.639  11.781
89213W        W61539  25.524  33.966  13.065
89214W        W61540  41.457  16.208  12.862
89215W        W61541  25.157  39.823   2.703
89216W        W61542  35.608  44.474  14.380
89217W        W61543   8.232  23.715  13.365
89218W        W61544  31.517  33.722  13.786
89219W        W61545  29.325  12.280   1.765
89220W        W61546  44.914   2.304  11.062
89221W        W61547  10.246  40.100   0.923
89222W        W61548  38.784  44.455   2.049
89223W        W61549   0.213   8.910   5.121
89224W        W61550  21.077  35.073   2.409
89225W        W61551   2.383   2.866   4.224
89226W        W61552  26.405  10.480   3.286
89227W        W61553   7.801  26.773  14.362
89228W        W61554  21.667  32.221  12.139
89229W        W61555  11.156   5.751  12.507
89230W        W61556  44.087   1.499   0.333
89231W        W61557  36.919  18.673   1.765
89232W        W61558  10.115  43.315  14.237
89233W        W61559  28.769  24.048   3.049
89234W        W61560  10.631   7.783  11.552
89235W        W61561  37.637  32.268  10.826
89236W        W61562  41.979  38.071  13.866
89237W        W61563  15.226  11.198   2.851
89238W        W61564  33.992  44.536  14.899
89239W        W61565  43.220  34.367   4.306
89240W        W61566   7.017   6.681  11.263
89241W        W61567  17.180  11.769  10.606
89242W        W61568  17.843  36.551  12.322
89243W        W61569   8.357  20.440  11.579
89244W        W61570  43.539  35.344   0.158
89245W        W61571  22.946  20.754   1.196
89246W        W61572   6.440   1.424  13.005
89247W        W61573  10.938   4.710   4.474
89248W        W61574  15.983  43.963  13.332
89249W        W61575  21.875  20.788   3.057
89250W        W61576  36.870   6.325   1.523
89251W        W61577  10.794  37.597   3.589
89252W        W61578   7.296  37.403  12.919
89253W        W61579  26.576  34.047  13.549
89254W        W61580  17.512   2.661  13.536
89255W        W61581  13.639  32.338  14.308
89256W        W61582  18.031  41.539   4.490
89257W        W61583  22.265  17.123  14.142
89258W        W61584  30.115   1.295   1.343
89259W        W61585  33.093  23.167  12.121
89260W        W61586  12.215  28.973   1.345
89261W        W61587  13.988   9.791  11.934
89262W        W61588  31.530  42.819   4.529
89263W        W61589  39.371   3.945  10.997
89264W        W61590  40.366  25.555   4.219
89265W        W61591  37.283  11.913  13.092
89266W        W61592  33.964   2.140   4.561
89267W        W61593  42.482  43.313  14.424
89268W        W61594  30.517  28.596  14.296
89269W        W61595  27.159  24.830   4.197
89270W        W61596  10.207   8.499   2.868
89271W        W61597  16.617  42.273   2.344
89272W        W61598  11.693  42.730   4.878
89273W        W61599  20.089  31.612   0.907
89274W        W61600   0.629  27.371  12.026
89275W        W61601  43.255  20.430  11.606
89276W        W61602   5.925   4.987   2.802
89277W        W61603  42.931  14.834  12.399
89278W        W61604  41.974  27.702  11.151
89279W        W61605   6.776   4.974  10.649
89280W        W61606  36.215  29.183  13.949
89281W        W61607   1.172   9.425  14.088
89282W        W61608   2.382  22.102  12.586
89283W        W61609  26.005  42.328   1.366
89284W        W61610  14.731   2.217  13.376
89285W        W61611  19.002  26.527   2.280
89286W        W61612   3.159  17.988  11.668
89287W        W61613  29.601   6.921   0.677
89288W        W61614  27.394  42.816   2.291
89289W        W61615  41.830  37.024   4.567
89290W        W61616  43.465  26.301   0.890
89291W        W61617   4.759  23.118   1.458
89292W        W61618  38.789  33.804  13.901
89293W        W61619  11.596   4.732   2.672
89294W        W61620  42.977  19.105  10.499
89295W        W61621  24.272   2.324  11.227
89296W        W61622   0.474  44.648   4.530
89297W        W61623  38.206   6.391  11.167
89298W        W61624  29.070  38.101  11.453
89299W        W61625  32.255   4.832  11.422
89300W        W61626  26.760  39.094   4.176
89301W        W61627   1.336  11.598  13.592
89302W        W61628  25.128  38.450   1.667
89303W        W61629   6.709  18.544  14.043
89304W        W61630  24.639   2.192   0.083
89305W        W61631  43.853  15.234   1.179
89306W        W61632  21.759  23.573   1.008
89307W        W61633  11.428  14.823   2.835
89308W        W61634  30.696  25.075   2.861
89309W        W61635  23.028  17.307   3.095
89310W        W61636  42.911  26.251   0.991
89311W        W61637   5.853  39.827  12.092
89312W        W61638  20.772  39.788   1.121
89313W        W61639   5.338  43.224  12.340
89314W        W61640  22.215  43.838   0.746
89315W        W61641  29.421  41.247  10.027
89316W        W61642  19.980  40.867   4.844
89317W        W61643  28.959   5.848  12.076
89318W        W61644  20.748  23.202  14.165
89319W        W61645  43.121  19.340   3.674
89320W        W61646  30.302  40.045   3.130
89321W        W61647  33.605  30.120  11.511
89322W        W61648   4.551  22.182   9.792
89323W        W61649  30.965   0.391  10.929
89324W        W61650  40.341  32.040  14.803
89325W        W61651   9.755   8.629  14.828
89326W        W61652  29.853  14.590   0.913
89327W        W61653   3.850  40.555  10.558
89328W        W61654  27.998  10.137  13.588
89329W        W61655  41.287  20.571  12.423
89330W        W61656  30.397  37.760   4.263
89331W        W61657  34.725  14.110   1.697
89332W        W61658  19.326   0.831  12.171
89333W        W61659  39.051  12.260   4.195
89334W        W61660  37.828  22.568   1.730
89335W        W61661  38.678   1.891  14.895
89336W        W61662   0.021  13.295   2.786
89337W        W61663  31.199  24.977  10.656
89338W        W61664   9.058  30.934  14.900
89339W        W61665  43.932   0.234  14.902
89340W        W61666  31.518  32.075   0.351
89341W        W61667  13.434  15.798  12.457
89342W        W61668  40.599  12.739   2.383
89343W        W61669  15.350  38.053   1.811
89344W        W61670  39.411  29.541  10.400
89345W        W61671  42.253  30.087   0.820
89346W        W61672  23.679   3.819  11.724
89347W        W61673  29.319  40.007   3.311
89348W        W61674   5.505  16.276  12.414
89349W        W61675  42.482  23.548  12.942
89350W        W61676  23.617   7.861  11.543
89351W        W61677  28.502  41.363   0.797
89352W        W61678  30.600   5.673  13.730
89353W        W61679  16.822  20.704   0.526
89354W        W61680  37.358  13.112   9.879
89355W        W61681   2.476  18.089   0.044
89356W        W61682  42.802  42.352  13.982
89357W        W61683  42.990  32.672   0.731
89358W        W61684  24.548  41.334   4.563
89359W        W61685  26.351   6.957   0.233
89360W        W61686  44.771   7.141   4.578
89361W        W61687   2.921  10.628   1.215
89362W        W61688  32.684  18.086   5.042
89363W        W61689  22.231   6.186  12.315
89364W        W61690   2.254  34.467  12.587
89365W        W61691  29.697  23.114   0.367
89366W        W61692  13.805  28.048  10.658
89367W        W61693  16.157  14.095   4.976
89368W        W61694  39.132  36.599   3.603
89369W        W61695  17.599  22.217  14.972
89370W        W61696  34.342  40.328   3.546
89371W        W61697  34.366  19.236  13.566
89372W        W61698  16.246  30.546  14.726
89373W        W61699  30.083   0.284   4.380
89374W        W61700  12.905  17.553   0.461
89375W        W61701  11.600  37.836  14.410
89376W        W61702  10.117  15.628  12.546
89377W        W61703   3.625  17.448   2.677
89378W        W61704   3.354  40.917   1.333
89379W        W61705   8.359  15.910   4.871
89380W        W61706  10.944  35.143  10.675
89381W        W61707  14.261  37.049  12.477
89382W        W61708   7.936  10.759   2.794
89383W        W61709   3.231  22.053  13.312
89384W        W61710  29.675  22.520  12.629
89385W        W61711  35.334  13.275  14.290
89386W        W61712  15.892  14.285  11.070
89387W        W61713  31.401  11.281   0.285
89388W        W61714  39.828  35.992   0.182
89389W        W61715  15.880  11.665   1.790
89390W        W61716  34.071  23.849   3.248
89391W        W61717  22.215  43.201  14.759
89392W        W61718   8.112  28.598   2.299
89393W        W61719   6.246  29.661  10.776
89394W        W61720   9.897  15.522   1.470
89395W        W61721  32.164  38.578   4.161
89396W        W61722  22.480   3.375   4.917
89397W        W61723  23.733   8.777  11.145
89398W        W61724  36.333  38.869  14.456
89399W        W61725  21.487  42.966   4.233
89400W        W61726  25.458  32.149  13.953
89401W        W61727   4.950  19.683   0.945
89402W        W61728  26.513   8.730   2.924
89403W        W61729  11.682  29.665  10.410
89404W        W61730  28.141  44.558  14.954
89405W        W61731  10.764  19.604  12.156
89406W        W61732  14.568  16.817   1.403
89407W        W61733  23.622  12.046  12.717
89408W        W61734  32.336  32.093  11.101
89409W        W61735  15.783  24.145  14.442
89410W        W61736  41.893  12.799   1.153
89411W        W61737  40.212  40.334  12.550
89412W        W61738   2.186  18.127  13.110
89413W        W61739  44.247  23.114  11.468
89414W        W61740  30.153   4.851   4.547
89415W        W61741  30.573   4.480   3.879
89416W        W61742   7.791  18.739   4.242
89417W        W61743  35.630  33.038   1.769
89418W        W61744  44.514  20.596  14.444
89419W        W61745  30.927   8.667  14.736
89420W        W61746  16.302  25.567   0.008
89421W        W61747  39.554  13.844  11.740
89422W        W61748  33.422  40.821  14.421
89423W        W61749  10.615  41.456   3.241
89424W        W61750  35.026  10.643  11.949
89425W        W61751   1.600  28.022   1.467
89426W        W61752  32.447  30.821   4.650
89427W        W61753  26.145  18.235  13.023
89428W        W61754  10.850   3.245   4.529
89429W        W61755  44.966  19.225  10.701
89430W        W61756   8.290  32.194   4.662
89431W        W61757  14.719   0.481   4.089
89432W        W61758  21.540  21.153   2.225
89433W        W61759  17.284  39.596  11.193
89434W        W61760  42.283   7.477  11.161
89435W        W61761  32.132  27.619  11.520
89436W        W61762  13.199   0.180   3.398
89437W        W61763  30.914  42.310  13.049
89438W        W61764   9.990  30.375   2.190
89439W        W61765   3.514  40.040   3.262
89440W        W61766  20.744   9.517  14.060
89441W        W61767  14.174   4.969   1.906
89442W        W61768  25.633  21.486  11.723
89443W        W61769   2.446  20.982   3.705
89444W        W61770  17.679  19.727  14.701
89445W        W61771  34.329  27.472   1.586
89446W        W61772  25.300   0.454   0.455
89447W        W61773  29.690   5.479  14.419
89448W        W61774   4.749  27.445  12.789
89449W        W61775  20.113   6.185  11.255
89450W        W61776  43.353  41.960   4.401
89451W        W61777  15.057  13.297   3.161
89452W        W61778  28.617  30.643  11.449
89453W        W61779   2.374  19.816   1.369
89454W        W61780   9.079  13.175  13.118
89455W        W61781   6.396   0.232   3.355
89456W        W61782  13.848  39.826   2.672
89457W        W61783  33.646  27.767  14.394
89458W        W61784   4.422  14.300  14.051
89459W        W61785  32.036  40.628  13.335
89460W        W61786  19.713   8.418  10.519
89461W        W61787   0.877  33.318  12.107
89462W        W61788   3.497  36.069  14.752
89463W        W61789  44.980  28.669  10.547
89464W        W61790  20.224  14.746   2.195
89465W        W61791  29.050  16.465  12.574
89466W        W61792   4.198  15.274  12.428
89467W        W61793  36.907   2.716  11.698
89468W        W61794  40.810  19.749   0.901
89469W        W61795  37.606  15.594  11.977
89470W        W61796  39.429  23.481   0.860
89471W        W61797   0.835   9.609  12.182
89472W        W61798  28.431   7.762   1.322
89473W        W61799  31.476  12.759  14.243
89474W        W61800  15.611  26.574  11.049
89475W        W61801  34.472  31.848  13.134
89476W        W61802  38.911  35.196   5.147
89477W        W61803  37.290  39.729   4.771
89478W        W61804  39.783  25.990   1.594
89479W        W61805  19.816  38.512   3.758
89480W        W61806   7.623  15.545   2.869
89481W        W61807  23.615   1.920  14.342
89482W        W61808  37.278  43.616  14.422
89483W        W61809  33.024  34.822  12.576
89484W        W61810   0.972   1.468  11.458
89485W        W61811  44.857  10.137   0.994
89486W        W61812  22.199  42.497  11.155
89487W        W61813  15.631  18.763   2.735
89488W        W61814  41.357  34.461  12.732
89489W        W61815  22.003  22.730  14.267
89490W        W61816  42.023  14.097  14.000
89491W        W61817  22.000  30.488  12.323
89492W        W61818  38.890  33.988   1.685
89493W        W61819  21.039  11.575   1.418
89494W        W61820  15.592   6.923   0.823
89495W        W61821  22.026  22.471   3.846
89496W        W61822  22.299  16.043   0.078
89497W        W61823  41.462  44.697   2.679
89498W        W61824  21.055  25.292   4.119
89499W        W61825   9.827  32.734  13.606
89500W        W61826  43.222   7.259  13.316
89501W        W61827  39.244   9.137  13.918
89502W        W61828  44.302  30.039   4.007
89503W        W61829  25.648  25.560   3.845
89504W        W61830  43.843  23.005  13.794
89505W        W61831  21.132   0.078   0.274
89506W        W61832  12.821  34.902   3.933
89507W        W61833  24.817  12.617  14.078
89508W        W61834  43.310  15.779  10.656
89509W        W61835  13.850  26.862   4.767
89510W        W61836  20.582  18.850  13.040
89511W        W61837  31.121  32.444  13.936
89512W        W61838  40.469  24.881  13.880
89513W        W61839   7.923  29.961  10.705
89514W        W61840  38.967  27.470  13.008
89515W        W61841  25.262  33.577   5.017
89516W        W61842  42.731   1.001   2.059
89517W        W61843   0.382  18.370   0.914
89518W        W61844  30.512   2.354  12.284
89519W        W61845  22.968  27.664   3.555
89520W        W61846  14.779  35.835   4.009
89521W        W61847   4.740  23.406   0.344
89522W        W61848   2.421  40.367   2.829
89523W        W61849  13.874  20.776   2.339
89524W        W61850  17.104  38.933   1.203
89525W        W61851   8.315  37.346   0.402
89526W        W61852  14.714  44.732  11.981
89527W        W61853  11.608  32.893   0.793
89528W        W61854  24.067  37.537   2.924
89529W        W61855   1.825  22.415  13.169
89530W        W61856  31.483  23.700   4.089
89531W        W61857  36.028  18.807  13.512
89532W        W61858   2.680   5.454  10.250
89533W        W61859  33.498   7.077   3.527
89534W        W61860  21.465  24.918   4.217
89535W        W61861  43.900  28.903  13.043
89536W        W61862  26.982  31.454  14.551
89537W        W61863   6.333   4.015  10.986
89538W        W61864  42.514  18.363   0.456
89539W        W61865  44.581   1.356   1.315
89540W        W61866  15.724   3.218   0.036
89541W        W61867  25.674   5.745   0.647
89542W        W61868  31.945  35.039  11.633
89543W        W61869  33.130  18.508  11.418
89544W        W61870  32.932  42.560  11.719
89545W        W61871  44.204   0.027  10.726
89546W        W61872  27.921   1.945  11.622
89547W        W61873  43.836  18.102  13.400
89548W        W61874  10.208   3.872  14.726
89549W        W61875  41.577  26.512   4.925
89550W        W61876   8.174  29.883  13.861
89551W        W61877  32.045  23.703  14.492
89552W        W61878   0.870   9.253   0.803
89553W        W61879  25.095  17.569  11.179
89554W        W61880  37.791   5.911  13.901
89555W        W61881  21.681  44.088   3.370
89556W        W61882  14.573  35.823   0.201
89557W        W61883  24.616  37.434  10.003
89558W        W61884   6.801  31.451   3.250
89559W        W61885  37.020  12.629   3.657
89560W        W61886  29.544  42.950   9.757
89561W        W61887   0.875  29.079  12.213
89562W        W61888   0.441  42.006  12.191
89563W        W61889  16.161  22.505   1.837
89564W        W61890  22.736  42.463   4.589
89565W        W61891   0.465  27.689  14.780
89566W        W61892   9.689  38.322   3.146
89567W        W61893  24.203  32.319  11.702
89568W        W61894  30.976  10.666   1.981
89569W        W61895  41.366  40.612   3.223
89570W        W61896  38.235   4.307   3.585
89571W        W61897  17.281  20.549   0.743
89572W        W61898   1.676  26.601  11.183
89573W        W61899  16.737  14.147   1.885
89574W        W61900  43.811  10.641   4.622
89575W        W61901  28.023  11.401   2.259
89576W        W61902  40.467  30.403  10.882
89577W        W61903   9.310  14.666   1.635
89578W        W61904  27.075  32.229   3.566
89579W        W61905  23.214   3.855  11.457
89580W        W61906  40.000  23.442   0.117
89581W        W61907  29.554  31.096   0.904
89582W        W61908  21.081  14.655   3.778
89583W        W61909  26.099  24.675   0.888
89584W        W61910  40.227  33.571  12.693
89585W        W61911  17.579  33.573  12.112
89586W        W61912  13.663  16.840   0.992
89587W        W61913  35.552   5.560  10.425
89588W        W61914  21.530  41.895   3.865
89589W        W61915  37.649  25.061   1.045
89590W        W61916   0.956  35.949  10.849
89591W        W61917  43.359  41.280   4.142
89592W        W61918  14.890  36.005   9.932
89593W        W61919  23.705  11.728   0.980
89594W        W61920  40.181  41.757  14.063
89595W        W61921  22.665  34.896   4.823
89596W        W61922  41.485   9.000   0.439
89597W        W61923  36.419  18.821  12.887
89598W        W61924   3.344  38.336  10.670
89599W        W61925   0.565  11.722  14.975
89600W        W61926  36.602  34.986  11.116
89601W        W61927   7.940  25.702   3.792
89602W        W61928  31.730  16.233   4.749
89603W        W61929   1.893  30.098  12.810
89604W        W61930  18.325  43.917   3.714
89605W        W61931  21.593   3.236   5.031
89606W        W61932  15.550   6.536   4.042
89607W        W61933  37.754  11.968  13.313
89608W        W61934   7.795  29.385   0.350
89609W        W61935  10.284   2.833   4.797
89610W        W61936   3.627   7.175  13.889
89611W        W61937  11.217   0.817  14.165
89612W        W61938   3.916  20.280  13.444
89613W        W61939  35.684  20.298  12.064
89614W        W61940  39.737  21.991  14.829
89615W        W61941  43.215  37.914   0.733
89616W        W61942  29.172  44.912  14.006
89617W        W61943  32.870  15.339   0.577
89618W        W61944  33.907   0.267  14.286
89619W        W61945  10.299  24.223  14.064
89620W        W61946  35.659  11.338  11.936
89621W        W61947  20.162   6.406  12.967
89622W        W61948  44.979   4.293  14.963
89623W        W61949  38.249   1.475  13.787
89624W        W61950  22.430  19.181  11.529
89625W        W61951  37.651  15.222  12.335
89626W        W61952  27.690  10.403  13.219
89627W        W61953  26.679  33.719  12.526
89628W        W61954  35.017   3.431  11.403
89629W        W61955  32.412  30.908   0.355
89630W        W61956  42.237  16.520   0.793
89631W        W61957  30.897   2.460   3.074
89632W        W61958  20.289  28.481   3.967
89633W        W61959  10.503  30.327   3.633
89634W        W61960  38.006  36.011  14.965
89635W        W61961   0.749  32.944   4.249
89636W        W61962   9.848  38.913   1.181
89637W        W61963  30.096  30.442   2.624
89638W        W61964   4.487  30.634  14.390
89639W        W61965   2.713  29.631   3.635
89640W        W61966   7.579  38.578   3.366
89641W        W61967  32.793  31.880  11.192
89642W        W61968  21.975  42.777  14.634
89643W        W61969  13.341   9.249  13.141
89644W        W61970  43.035  37.601  12.127
89645W        W61971  39.580  25.039   2.390
89646W        W61972  38.873  17.006  10.872
89647W        W61973  30.402  31.219  13.775
89648W        W61974  29.601   4.750   1.445
89649W        W61975  13.674  34.932   2.276
89650W        W61976  26.242  11.326  12.832
89651W        W61977   5.893  10.691  12.028
89652W        W61978  31.133  22.753  10.709
89653W        W61979  41.339   5.714  12.520
89654W        W61980   9.477   8.123  13.871
89655W        W61981  31.129  14.198  14.994
89656W        W61982   7.193  21.624   0.381
89657W        W61983  36.333   9.434   4.272
89658W        W61984  28.552  42.500   4.327
89659W        W61985  37.024  44.414   2.652
89660W        W61986  26.570   4.274  13.812
89661W        W61987   7.208  14.237   4.595
89662W        W61988  33.618   6.806   2.783
89663W        W61989   2.324   6.779  11.514
89664W        W61990  17.862   9.447   3.022
89665W        W61991  42.537   2.745   3.764
89666W        W61992  43.032  41.003  10.820
89667W        W61993  25.566  32.231   0.832
89668W        W61994  10.636  42.749  14.908
89669W        W61995  11.833   4.759  10.674
89670W        W61996  24.727  33.912  13.607
89671W        W61997  23.017   5.700   1.811
89672W        W61998   0.266  29.960  14.904
89673W        W61999  18.839  34.082  11.889
89674W        W62000  19.203  12.142   0.894
89675W        W62001   9.384   1.110   2.504
89676W        W62002  41.832  19.416  11.078
89677W        W62003   7.343  10.801   0.352
89678W        W62004  28.595  14.071   2.912
89679W        W62005   8.215   3.738   0.785
89680W        W62006  44.094  18.487  12.709
89681W        W62007  21.312   9.106   3.715
89682W        W62008  32.682  41.470   4.943
89683W        W62009  20.831  10.346   1.800
89684W        W62010  40.987  39.543   2.726
89685W        W62011  21.511  19.604   1.353
89686W        W62012  35.526  41.954  11.588
89687W        W62013  25.493  18.586   3.509
89688W        W62014   5.973  39.084  14.487
89689W        W62015   0.256  39.575   3.295
89690W        W62016   1.799  19.784  10.615
89691W        W62017  33.993  20.018   3.784
89692W        W62018   9.589  30.454  12.012
89693W        W62019  27.010  23.661   2.356
89694W        W62020   2.328   7.789  14.988
89695W        W62021  12.691  39.527  14.807
89696W        W62022  33.384  13.443  12.600
89697W        W62023   0.962  19.148   4.552
89698W        W62024  18.348  21.538  13.082
89699W        W62025  39.767   2.914  12.284
89700W        W62026   7.953  12.638   4.301
89701W        W62027   5.387  12.696   2.726
89702W        W62028  29.195  26.701   3.321
89703W        W62029  35.410  32.999   2.853
89704W        W62030  17.117  23.521  12.413
89705W        W62031  27.412  29.713  12.181
89706W        W62032  28.098   3.576   1.332
89707W        W62033  23.053  17.247   0.264
89708W        W62034  41.888  40.442   2.613
89709W        W62035  17.222  21.696  10.402
89710W        W62036  28.386  29.905   2.685
89711W        W62037  15.104  35.423   9.839
89712W        W62038  12.836  25.383  14.748
89713W        W62039  23.290  25.394   0.173
89714W        W62040  28.852   8.237  12.963
89715W        W62041  38.896  15.267  11.653
89716W        W62042  30.385  22.108   4.329
89717W        W62043  37.753  20.481  12.651
89718W        W62044  24.064   5.018   0.692
89719W        W62045   8.666  19.510   4.083
89720W        W62046  32.539   1.955   2.773
89721W        W62047  33.629   6.392   0.841
89722W        W62048  32.908  15.805  14.767
89723W        W62049   2.169  12.535   1.980
89724W        W62050  10.804  17.714   3.622
89725W        W62051  41.148  18.201   4.260
89726W        W62052   5.302  36.993   2.356
89727W        W62053  36.397  18.262  12.034
89728W        W62054  30.420  24.229   0.364
89729W        W62055  11.218  22.902   1.902
89730W        W62056  19.631  28.682   4.308
89731W        W62057  14.103   5.845  10.598
89732W        W62058  35.152  20.690  13.431
89733W        W62059   2.255  21.838   1.128
89734W        W62060  21.446   3.946   1.704
89735W        W62061  24.212  22.886   0.342
89736W        W62062  27.025   8.754   0.803
89737W        W62063  40.814   2.616   4.695
89738W        W62064  10.140  17.331  11.533
89739W        W62065   5.929  30.888  13.694
89740W        W62066  12.203  11.004  12.984
89741W        W62067   3.406   7.193  11.596
89742W        W62068  17.545  18.784  12.318
89743W        W62069  38.843  36.726  14.975
89744W        W62070   2.787  44.348   3.071
89745W        W62071  32.574  26.850   0.941
89746W        W62072   9.874   0.385   4.588
89747W        W62073  31.595   4.234   0.120
89748W        W62074  16.861  41.580  14.520
89749W        W62075  38.694   7.219   9.966
89750W        W62076  23.257  38.738  13.294
89751W        W62077  42.257  43.973  11.153
89752W        W62078  43.725   7.140  11.200
89753W        W62079  15.414  10.176  10.958
89754W        W62080  36.933  37.647  13.011
89755W        W62081  30.204  31.882  14.018
89756W        W62082  22.450   2.389   1.892
89757W        W62083  30.654  15.247  13.958
89758W        W62084  21.694  11.725   1.856
89759W        W62085   0.782  22.587  12.151
89760W        W62086   1.224  40.982   0.949
89761W        W62087  39.353  23.951  14.965
89762W        W62088  23.701  29.370   2.128
89763W        W62089  24.424  32.396  11.148
89764W        W62090   5.343  29.457   4.597
89765W        W62091  38.748  40.318  13.055
89766W        W62092  15.770  21.099  14.900
89767W        W62093  21.545  10.856   1.904
89768W        W62094  17.841  23.661  12.637
89769W        W62095  20.239  36.359  10.482
89770W        W62096  12.581  40.527   1.947
89771W        W62097   3.245   6.465   0.311
89772W        W62098  21.191  13.093   1.281
89773W        W62099  29.136  33.828   3.873
89774W        W62100   6.631   8.917   1.234
89775W        W62101  12.804   1.166   4.325
89776W        W62102   4.687  12.810  12.912
89777W        W62103  24.591  36.918   0.519
89778W        W62104  40.067  36.523   1.354
89779W        W62105   1.203   8.729   4.172
89780W        W62106   7.875  12.176   2.164
89781W        W62107  37.933  26.715   4.534
89782W        W62108  19.742  43.883   2.884
89783W        W62109   1.020  28.314  11.109
89784W        W62110   9.888   6.092   4.894
89785W        W62111  42.582  27.930  12.889
89786W        W62112   9.940  13.387  10.713
89787W        W62113  25.177  32.328   4.455
89788W        W62114  12.730  39.482   2.443
89789W        W62115  42.855  30.692   2.808
89790W        W62116  20.077  14.774   2.746
89791W        W62117  35.992  39.115  14.173
89792W        W62118  43.368  32.523   4.216
89793W        W62119  16.660  43.546   4.014
89794W        W62120   4.969   1.951   1.057
89795W        W62121  15.818  20.521   4.135
89796W        W62122  11.268  23.661   3.636
89797W        W62123  29.038   3.247  10.730
89798W        W62124   7.852  28.888   0.917
89799W        W62125  24.595  43.797  10.831
89800W        W62126  26.000  42.492   2.247
89801W        W62127   1.250  16.387   0.808
89802W        W62128  21.577   4.752  13.579
89803W        W62129  33.855  12.296   4.371
89804W        W62130  15.743   9.878   4.883
89805W        W62131  13.180  36.462   2.736
89806W        W62132   4.066  12.515   0.828
89807W        W62133   2.928  32.578   0.226
89808W        W62134  24.286  31.585  14.388
89809W        W62135   5.824  22.672  10.916
89810W        W62136   4.198   9.637  12.000
89811W        W62137  12.840  19.047   0.935
89812W        W62138  10.146  34.571  13.474
89813W        W62139  13.678  17.423  11.899
89814W        W62140  11.854  34.297  11.897
89815W        W62141  30.002  32.641  13.265
89816W        W62142  22.954  36.423  11.189
89817W        W62143   6.410  42.096  11.986
89818W        W62144  36.922  41.559  12.147
89819W        W62145  12.062  11.186   2.068
89820W        W62146  26.945  10.278  10.704
89821W        W62147   8.226  23.083   4.067
89822W        W62148  31.326  25.019   1.809
89823W        W62149  20.276  23.748   0.172
89824W        W62150  34.830  35.624  14.900
89825W        W62151  44.486   1.305  12.430
89826W        W62152  13.821  20.510   4.042
89827W        W62153  36.153   3.377  12.956
89828W        W62154  40.686  21.466   2.325
89829W        W62155   0.882   5.358   0.231
89830W        W62156  21.092  44.309   3.712
89831W        W62157  30.607  25.670   3.636
89832W        W62158  39.001   3.046   3.342
89833W        W62159  43.037  44.869  14.258
89834W        W62160  37.566  43.012  11.492
89835W        W62161  26.157  40.253  13.149
89836W        W62162  32.537   6.692   1.365
89837W        W62163  40.624  25.055   4.114
89838W        W62164  36.286  17.135  13.560
89839W        W62165  27.925  26.839   4.505
89840W        W62166   3.982  35.138  10.702
89841W        W62167   7.658   2.805   1.683
89842W        W62168  22.040   8.820   1.807
89843W        W62169  29.449  12.574   1.233
89844W        W62170   4.528   6.034   3.581
89845W        W62171   0.290  17.275   2.330
89846W        W62172  16.692  41.744   2.281
89847W        W62173  43.011  44.276  14.849
89848W        W62174   5.851  17.891  10.828
89849W        W62175  40.266   3.279   1.840
89850W        W62176  36.859  37.803   2.195
89851W        W62177  22.604  32.410  14.748
89852W        W62178   3.425  40.308   1.338
89853W        W62179  27.541   3.452   3.876
89854W        W62180  15.128  40.982  13.492
89855W        W62181  28.674   8.856   1.849
89856W        W62182   2.515  34.073   3.788
89857W        W62183  19.357  35.453   2.799
89858W        W62184  38.456  17.560   1.017
89859W        W62185   2.882  29.592  10.446
89860W        W62186   4.751   2.453  12.949
89861W        W62187  21.112  30.480  11.142
89862W        W62188   9.916  20.638   2.781
89863W        W62189   4.915  21.682  10.517
89864W        W62190   9.336   9.808   0.275
89865W        W62191  44.305   7.263  12.933
89866W        W62192  27.486  18.307  11.590
89867W        W62193  38.856   6.915  13.453
89868W        W62194  10.196   8.322  14.944
89869W        W62195  34.149   5.322  11.628
89870W        W62196  41.082  10.123  12.830
89871W        W62197   2.251  17.619  11.417
89872W        W62198   4.783  10.763   5.010
89873W        W62199  31.068  39.320  11.684
89874W        W62200  13.362  29.716   0.948
89875W        W62201  16.353  11.320  13.919
89876W        W62202  13.241  21.331   5.078
89877W        W62203  20.978  24.557  12.054
89878W        W62204  30.614   2.404   2.091
89879W        W62205  10.474  11.419  11.563
89880W        W62206   9.148  28.412  11.037
89881W        W62207   0.202  44.863  10.522
89882W        W62208  36.122  36.562   1.671
89883W        W62209  40.409  14.590  11.005
89884W        W62210  22.541   7.633  14.438
89885W        W62211   4.875  35.064  10.578
89886W        W62212   0.495  33.626  11.888
89887W        W62213  21.749  36.922  13.041
89888W        W62214  40.861  41.561  13.333
89889W        W62215  18.508   2.503  10.656
89890W        W62216  15.671  29.528   3.618
89891W        W62217  26.894   2.490   1.481
89892W        W62218  26.766  16.174  13.098
89893W        W62219  28.085  36.660   4.603
89894W        W62220  29.666  18.141   0.333
89895W        W62221   0.396  15.625   3.223
89896W        W62222  30.684  19.074  14.257
89897W        W62223   6.875  25.602  13.228
89898W        W62224  17.770  13.673   2.916
89899W        W62225  19.677  37.616   1.244
89900W        W62226   2.061   8.601  12.378
89901W        W62227   0.883  36.060  12.726
89902W        W62228  24.934  18.162   5.692
89903W        W62229   7.427   2.367  10.804
89904W        W62230  25.170  44.632   2.625
89905W        W62231  26.930  16.581   1.736
89906W        W62232   6.240  33.163  10.775
89907W        W62233   7.109  12.831  14.111
89908W        W62234  25.882   7.385   1.006
89909W        W62235  24.015  23.043  12.583
89910W        W62236  17.765  18.662  13.253
89911W        W62237  43.028  15.324  10.660
89912W        W62238  40.858  21.948   1.289
89913W        W62239  30.039   7.748  12.159
89914W        W62240  32.486  33.970   5.047
89915W        W62241  10.512  15.857   2.285
89916W        W62242  23.235  44.585   3.763
89917W        W62243  42.118  16.744  12.935
89918W        W62244  36.252  26.658   3.849
89919W        W62245  28.992   1.592  10.608
89920W        W62246  28.374  21.578  14.159
89921W        W62247   7.694  27.172  10.816
89922W        W62248  15.256  16.127   0.640
89923W        W62249  44.363  33.048   4.356
89924W        W62250  21.423  22.303   0.081
89925W        W62251  18.588  13.557  14.425
89926W        W62252  10.774   3.413   3.666
89927W        W62253  23.710  11.189   1.433
89928W        W62254  30.074   3.338  12.462
89929W        W62255  41.339  15.083   0.372
89930W        W62256  24.484  39.455   2.694
89931W        W62257  17.101   9.768   0.786
89932W        W62258   1.306  32.897   1.343
89933W        W62259   3.179   2.116  13.455
89934W        W62260  13.716  11.631   4.198
89935W        W62261  31.842  43.037  11.616
89936W        W62262  33.633  21.088   5.215
89937W        W62263  25.722  39.938   2.393
89938W        W62264   3.263  18.828   5.016
89939W        W62265  44.944   9.444  14.889
89940W        W62266   6.409   2.973  11.601
89941W        W62267  32.343   4.793  13.916
89942W        W62268  41.983  11.821   1.660
89943W        W62269  34.905   5.086   4.604
89944W        W62270  21.057  43.471  14.747
89945W        W62271  11.022  10.294   3.818
89946W        W62272  37.821  43.325  11.176
89947W        W62273  34.948  44.605   3.929
89948W        W62274  34.962  32.394   1.470
89949W        W62275  39.935  31.410  13.224
89950W        W62276  37.381  27.326   4.084
89951W        W62277  10.395  30.731  12.842
89952W        W62278   0.780   8.051   2.805
89953W        W62279  21.865  14.324   1.049
89954W        W62280  23.172  21.995  13.089
89955W        W62281   9.316  40.877  11.882
89956W        W62282  17.675   0.825   4.681
89957W        W62283  39.415   4.599   0.757
89958W        W62284  20.802   5.757  14.799
89959W        W62285  30.870  41.415   1.146
89960W        W62286  31.512  30.357   0.369
89961W        W62287  40.931  11.318   1.189
89962W        W62288  15.693  44.279   5.162
89963W        W62289  17.915  31.620   1.683
89964W        W62290  27.423  33.517  10.372
89965W        W62291   2.362  12.797  14.438
89966W        W62292  18.350  32.578   1.288
89967W        W62293  14.063   0.285  11.033
89968W        W62294  14.791  11.099  14.393
89969W        W62295  40.535  26.205   3.406
89970W        W62296  20.998  14.646  14.838
89971W        W62297  16.243  18.561  10.257
89972W        W62298  10.403  42.923  11.055
89973W        W62299  27.475  35.606  11.791
89974W        W62300  41.581   3.849   2.101
89975W        W62301  35.750  27.601   1.709
89976W        W62302  10.064   1.951  14.947
89977W        W62303  10.473  16.104  14.566
89978W        W62304  31.692   2.310  11.013
89979W        W62305  20.864  34.096  13.589
89980W        W62306   9.290  22.116   1.249
89981W        W62307  25.193   2.919  13.437
89982W        W62308  12.777  44.627  14.295
89983W        W62309  16.752  23.850  10.620
89984W        W62310   5.090  29.666   1.001
89985W        W62311   9.598  21.632   4.278
89986W        W62312  34.106  11.678   4.225
89987W        W62313  30.958   6.458   4.654
89988W        W62314  25.502  37.000  12.128
89989W        W62315  26.697  30.092  13.429
89990W        W62316  42.942  18.187   2.593
89991W        W62317  20.882  36.822  14.864
89992W        W62318  26.961  17.083   4.222
89993W        W62319  37.904  26.500  11.131
89994W        W62320  34.262   5.365  13.424
89995W        W62321  42.395  39.211  13.193
89996W        W62322  44.444  39.451   0.346
89997W        W62323  16.289  42.775  14.979
89998W        W62324  42.468   6.709   2.685
89999W        W62325  24.256   5.308  12.698
90000W        W62326  39.721  10.406  12.485
90001W        W62327  18.646  19.308  14.842
90002W        W62328  19.068   5.122  11.582
90003W        W62329   1.818  42.594  12.579
90004W        W62330  32.300  15.724  13.492
90005W        W62331  43.288  19.668  12.952
90006W        W62332   9.666  14.420  13.120
90007W        W62333  19.269   4.713   0.885
90008W        W62334   6.480  17.124   0.192
90009W        W62335   9.922  17.543   0.473
90010W        W62336  28.488  39.371   1.707
90011W        W62337   5.742  35.263  12.358
90012W        W62338  28.969  17.092   2.176
90013W        W62339  41.826   0.901   3.927
90014W        W62340  10.250  30.787   2.793
90015W        W62341   2.015  17.669   1.191
90016W        W62342  44.100  34.649   1.501
90017W        W62343  44.342   0.901   1.439
90018W        W62344  22.561  40.084  13.924
90019W        W62345   1.813  34.496   0.711
90020W        W62346  36.495  31.730   4.692
90021W        W62347  42.600  38.361  14.897
90022W        W62348  38.795  39.454  14.927
90023W        W62349  25.114  43.363   2.150
90024W        W62350   2.189  21.801  14.332
90025W        W62351   4.108  37.258  14.994
90026W        W62352   8.458  22.093   1.871
90027W        W62353  43.242  18.197  10.569
90028W        W62354  37.533  28.511  14.962
90029W        W62355  41.960  21.634  14.330
90030W        W62356  17.335  26.516  11.232
90031W        W62357  19.086  23.691   0.590
90032W        W62358  20.698  34.500   2.301
90033W        W62359  36.006  10.769   2.204
90034W        W62360   2.350   6.656  12.007
90035W        W62361  14.820  37.631  11.095
90036W        W62362  13.309  15.298   2.770
90037W        W62363  32.892  31.499   1.111
90038W        W62364  30.930   3.887  12.477
90039W        W62365  23.332   7.472   3.918
90040W        W62366  18.252  39.558   2.882
90041W        W62367  31.397  37.686  14.892
90042W        W62368  25.965  11.662  13.944
90043W        W62369   7.911  34.920   0.594
90044W        W62370   3.411   3.133  11.085
90045W        W62371  41.789  40.870  10.987
90046W        W62372  44.415  28.985   0.462
90047W        W62373  26.255  39.745   0.473
90048W        W62374  10.060  26.901   3.162
90049W        W62375  41.518  16.838   1.879
90050W        W62376  37.903  12.088   3.755
90051W        W62377  23.175   7.820  12.009
90052W        W62378  20.591  22.736  12.676
90053W        W62379   0.647  20.104   2.691
90054W        W62380  22.250   4.334   1.387
90055W        W62381  42.374   2.266   3.892
90056W        W62382  41.736  39.446   4.989
90057W        W62383  32.346   6.900  14.442
90058W        W62384  11.200  16.243   0.954
90059W        W62385  22.119  43.886   0.228
90060W        W62386  17.506  44.808  14.362
90061W        W62387  15.224  25.449  10.295
90062W        W62388   6.190  19.244   0.120
90063W        W62389   8.844   8.183   0.507
90064W        W62390  15.159   0.799  12.619
90065W        W62391  19.486  14.317  14.288
90066W        W62392  35.336   2.385  13.339
90067W        W62393   3.835  15.282  11.544
90068W        W62394  18.198  38.561   3.197
90069W        W62395   4.014  32.005   4.364
90070W        W62396  42.602  17.715  12.654
90071W        W62397  32.386  28.590   1.291
90072W        W62398  30.601   5.380   2.139
90073W        W62399  43.370  26.142  13.994
90074W        W62400  29.663  36.460   3.212
90075W        W62401  38.018  39.418  14.355
90076W        W62402  39.037  18.134  13.483
90077W        W62403  14.385  35.031  12.538
90078W        W62404  28.211  32.211   0.177
90079W        W62405  44.750  43.275   3.241
90080W        W62406  38.454  34.590   2.266
90081W        W62407  24.011  29.473  11.700
90082W        W62408  35.526  12.282  11.628
90083W        W62409  34.055  24.260   3.651
90084W        W62410   0.985  33.446  12.616
90085W        W62411  31.884  32.595  11.800
90086W        W62412   5.293  38.547  11.606
90087W        W62413   9.185   3.052  11.224
90088W        W62414  23.686  17.254  14.093
90089W        W62415  41.560  17.231   2.311
90090W        W62416  38.494  12.771  14.976
90091W        W62417  19.231  22.044   1.815
90092W        W62418  38.857  38.326   1.405
90093W        W62419  19.299  35.393  11.566
90094W        W62420  15.831  17.797   2.426
90095W        W62421  31.372  14.753  13.819
90096W        W62422  33.398   1.664  12.143
90097W        W62423  15.644  16.264  13.908
90098W        W62424   1.288   0.827   4.597
90099W        W62425  29.518  32.448   4.149
90100W        W62426  23.414  37.666  13.351
90101W        W62427  21.217  43.849   0.118
90102W        W62428   1.291  33.980   1.264
90103W        W62429  24.551  18.474  10.236
90104W        W62430   9.627  12.619  11.558
90105W        W62431  40.876   9.209   1.819
90106W        W62432   9.220  42.272   4.578
90107W        W62433  17.730  34.856  13.438
90108W        W62434  36.558  12.047   4.981
90109W        W62435  24.970  39.347   2.548
90110W        W62436  12.391  21.783   4.799
90111W        W62437  30.137  30.707   3.876
90112W        W62438  42.478   5.686  14.964
90113W        W62439  25.813   8.150   0.787
90114W        W62440  21.085  21.440  12.474
90115W        W62441   7.972  14.334   2.778
90116W        W62442  41.431   5.304  10.602
90117W        W62443  26.636  26.304   0.406
90118W        W62444  38.069  23.100   3.920
90119W        W62445  33.133  32.564  13.878
90120W        W62446   6.775   2.273  13.577
90121W        W62447  40.508  33.537   1.622
90122W        W62448  26.625  35.423   1.195
90123W        W62449   5.384   4.863   2.839
90124W        W62450  21.666  44.082  13.910
90125W        W62451  23.470  24.253  14.482
90126W        W62452   1.512   2.157   3.394
90127W        W62453  14.141  39.805  12.332
90128W        W62454  22.427   8.716   0.312
90129W        W62455  31.748  13.337   0.510
90130W        W62456  32.269   7.238  11.139
90131W        W62457  12.100  35.306   5.059
90132W        W62458  34.899  10.372  10.674
90133W        W62459  41.444  21.097   1.711
90134W        W62460  31.924  22.284   1.316
90135W        W62461  23.236  25.625   3.643
90136W        W62462  36.592  15.050   1.326
90137W        W62463  32.593  41.466  14.966
90138W        W62464  29.597  40.961   4.701
90139W        W62465   3.330  40.777  10.635
90140W        W62466  24.306   8.304   0.671
90141W        W62467  34.108   7.870   4.103
90142W        W62468  28.505  15.338  12.564
90143W        W62469   5.489  25.577  10.511
90144W        W62470  35.558  37.565  11.754
90145W        W62471  38.397  35.498   4.101
90146W        W62472   5.629  15.279  12.052
90147W        W62473  36.317  30.518   1.369
90148W        W62474  11.308  36.277   1.719
90149W        W62475  31.991  16.691  14.947
90150W        W62476  26.268   9.876   2.318
90151W        W62477  42.276  19.064  12.460
90152W        W62478  10.577   9.656  14.984
90153W        W62479   0.454  37.578   3.187
90154W        W62480  33.515  40.727  11.561
90155W        W62481  38.883  35.393   1.296
90156W        W62482  20.881   1.888   9.957
90157W        W62483  14.705  30.290  12.932
90158W        W62484  25.930  25.434   2.917
90159W        W62485   6.222  30.427   4.989
90160W        W62486  18.617  36.273  12.915
90161W        W62487   4.023  10.685   4.138
90162W        W62488  33.212   0.833  13.931
90163W        W62489  37.497  31.148   0.269
90164W        W62490   7.248  18.466  14.844
90165W        W62491   4.924  25.019   2.735
90166W        W62492   1.426  36.947   0.692
90167W        W62493  19.391  13.429  14.083
90168W        W62494  36.082  14.479  13.602
90169W        W62495  18.165  17.475  13.566
90170W        W62496  29.161  27.384  11.903
90171W        W62497  28.675   5.359  11.038
90172W        W62498  38.437  39.473   1.300
90173W        W62499  33.994  13.771   4.468
90174W        W62500  10.422  18.997   0.401
90175W        W62501  24.975  14.641   2.394
90176W        W62502  31.961  22.316   2.149
90177W        W62503  27.103  18.513  10.218
90178W        W62504  43.519  38.491  14.739
90179W        W62505  28.329  19.069   2.007
90180W        W62506   7.256  32.003  12.408
90181W        W62507  38.913   1.282  13.477
90182W        W62508  12.696   4.134   1.345
90183W        W62509  11.418   3.891  11.825
90184W        W62510   5.672  19.657  11.926
90185W        W62511   4.306   4.033  12.576
90186W        W62512  29.537  44.828  12.469
90187W        W62513  17.750   2.886   1.947
90188W        W62514  39.585  16.791   3.384
90189W        W62515   1.606  35.581   0.308
90190W        W62516   5.231   3.602  10.353
90191W        W62517  21.745  12.529   4.233
90192W        W62518  30.154  11.697   2.394
90193W        W62519  22.697   9.909  13.829
90194W        W62520  10.642  20.010  11.602
90195W        W62521  31.286  17.575   4.116
90196W        W62522  33.013  32.916   2.458
90197W        W62523  33.038  38.509  12.982
90198W        W62524  39.708  30.804  12.226
90199W        W62525  37.906  38.496  14.771
90200W        W62526   2.185  30.353   4.159
90201W        W62527  35.387  29.580   4.861
90202W        W62528  42.315   9.264   4.530
90203W        W62529  14.673  12.623  10.480
90204W        W62530  27.118   2.752   1.093
90205W        W62531  42.898  12.624   1.294
90206W        W62532   7.777   9.842   3.689
90207W        W62533  38.488  11.182   4.641
90208W        W62534  41.390  14.313   1.657
90209W        W62535  25.035  33.981   1.464
90210W        W62536  10.167   4.699  14.521
90211W        W62537  19.803  44.086   2.397
90212W        W62538   1.352  27.013   0.309
90213W        W62539  17.122  40.567  12.813
90214W        W62540  16.247  41.632  12.048
90215W        W62541  34.011  34.801   4.098
90216W        W62542  12.191  40.101   0.223
90217W        W62543  36.985  40.739  12.584
90218W        W62544  40.941  30.916   3.010
90219W        W62545  33.863  36.082  12.049
90220W        W62546   8.534  19.268  10.572
90221W        W62547  18.117  37.390  14.794
90222W        W62548   8.339  28.582   1.021
90223W        W62549  37.153  37.749   0.466
90224W        W62550  27.892   1.678  12.059
90225W        W62551   9.167  29.084  13.957
90226W        W62552  44.795  13.788  14.006
90227W        W62553  35.061  39.383   1.954
90228W        W62554  44.573  11.490   4.570
90229W        W62555  42.349   3.705   4.528
90230W        W62556  10.071   4.635  12.318
90231W        W62557  16.361  17.338   0.362
90232W        W62558  33.574  21.591  13.360
90233W        W62559   4.250   5.868   2.683
90234W        W62560  10.868   9.078  12.113
90235W        W62561  32.410  37.420  12.119
90236W        W62562  10.733   3.724   2.252
90237W        W62563  20.840  13.665   1.914
90238W        W62564   2.250  15.279   4.412
90239W        W62565  34.432  26.261  13.879
90240W        W62566  22.051  39.300  14.000
90241W        W62567  28.986  26.428  10.917
90242W        W62568  42.069  10.667  14.927
90243W        W62569   7.698  26.507  14.799
90244W        W62570  27.579  15.892   3.162
90245W        W62571  15.572  38.378   3.833
90246W        W62572  37.929  32.041  12.041
90247W        W62573  20.107   6.147   0.418
90248W        W62574  37.321  25.080  13.918
90249W        W62575  26.771   3.165  13.318
90250W        W62576  17.944  37.860  14.908
90251W        W62577   8.270  13.948   4.087
90252W        W62578   6.869  31.995  10.959
90253W        W62579  26.094   1.179   1.916
90254W        W62580  44.809  17.839  12.076
90255W        W62581  41.314  30.476   4.637
90256W        W62582  14.570  12.501  12.451
90257W        W62583  22.752  31.495  12.889
90258W        W62584  18.700  34.415  14.123
90259W        W62585  20.214  24.893  13.008
90260W        W62586  35.289  12.877  12.512
90261W        W62587  25.533  37.555  12.120
90262W        W62588   2.767  33.601   1.219
90263W        W62589   5.865  16.539   1.863
90264W        W62590  10.208  21.500  10.609
90265W        W62591  31.512  35.862  14.778
90266W        W62592  14.482  28.741   5.150
90267W        W62593  36.121  40.125   0.488
90268W        W62594  31.190   9.337  13.420
90269W        W62595   9.496  31.728   0.361
90270W        W62596   8.393   6.399   3.287
90271W        W62597  27.616  34.176   1.486
90272W        W62598  35.504   1.288  11.278
90273W        W62599   6.915   3.723  14.466
90274W        W62600  31.111   4.430  12.494
90275W        W62601  30.163  44.396   4.197
90276W        W62602  36.312  36.078   1.841
90277W        W62603  34.441  44.770  12.184
90278W        W62604  41.280   1.331   4.654
90279W        W62605  17.665  20.600   1.969
90280W        W62606   5.470  36.287  12.472
90281W        W62607  24.652  22.739   0.663
90282W        W62608  13.415  35.982  11.253
90283W        W62609  10.606  12.287  12.579
90284W        W62610  19.129  17.067   1.844
90285W        W62611  39.966  17.902  13.909
90286W        W62612  26.373  27.725  11.111
90287W        W62613  18.078  21.166   4.544
90288W        W62614  36.445  31.926   0.438
90289W        W62615  38.376  10.653   3.770
90290W        W62616  11.243  11.129   4.579
90291W        W62617  25.379  32.710  13.555
90292W        W62618  44.326  10.260  12.199
90293W        W62619  21.188  27.194  14.553
90294W        W62620  40.286  30.725  13.300
90295W        W62621   2.346  41.371  12.452
90296W        W62622  26.113  14.787  13.865
90297W        W62623   4.231  10.163  10.714
90298W        W62624  28.974  10.533  14.535
90299W        W62625  23.785  18.774   2.785
90300W        W62626  40.950  42.457   0.919
90301W        W62627  22.775  24.594  12.490
90302W        W62628  22.593   0.802   3.418
90303W        W62629  40.399  33.930  12.362
90304W        W62630  15.373  42.983   0.938
90305W        W62631  33.120  13.861   1.041
90306W        W62632  25.407  12.900   3.234
90307W        W62633  42.681  19.980  11.350
90308W        W62634   0.186  24.769  12.017
90309W        W62635   2.911  35.159  13.533
90310W        W62636  19.775  29.918   0.988
90311W        W62637  28.729  18.104  14.857
90312W        W62638  43.906   1.867   3.363
90313W        W62639  42.997  17.688   2.397
90314W        W62640  15.351  39.291  11.679
90315W        W62641  19.527   1.844   4.577
90316W        W62642  14.191  21.290  13.929
90317W        W62643  42.869  25.279  10.715
90318W        W62644  28.366  39.010   0.352
90319W        W62645  17.321  20.163   0.382
90320W        W62646  16.051  30.202  12.487
90321W        W62647  26.178  10.107   0.493
90322W        W62648  22.828  23.193   0.443
90323W        W62649   7.766  24.678   1.750
90324W        W62650  10.477  24.571   0.925
90325W        W62651  37.795  20.040   4.297
90326W        W62652  36.478   8.242  11.533
90327W        W62653  12.255  33.826   2.754
90328W        W62654  11.331  27.218   0.452
90329W        W62655  34.848  40.804  14.438
90330W        W62656  25.710   4.656   2.400
90331W        W62657  24.176  41.348  14.334
90332W        W62658  26.070  21.073  13.909
90333W        W62659  19.312  29.944  11.802
90334W        W62660   4.073  41.212   4.360
90335W        W62661   4.851   4.366   2.871
90336W        W62662   4.892  17.533   3.149
90337W        W62663  35.508  44.467   2.183
90338W        W62664   1.352  32.497  12.162
90339W        W62665   5.482  10.697   2.969
90340W        W62666  44.831  39.868   3.251
90341W        W62667   5.732  44.898  10.542
90342W        W62668  10.942  42.850   3.687
90343W        W62669  22.243   4.536   4.164
90344W        W62670   4.691  23.650   9.947
90345W        W62671  20.949  11.225  14.787
90346W        W62672  17.092  14.298  11.650
90347W        W62673  39.878  15.268   2.256
90348W        W62674   5.504  29.061   3.346
90349W        W62675   6.842  34.338   0.003
90350W        W62676  44.150  25.673  10.332
90351W        W62677  26.933  18.208  14.538
90352W        W62678  18.683   5.895  12.652
90353W        W62679  41.328   2.169   1.317
90354W        W62680  25.467  21.858  14.208
90355W        W62681  14.658  21.440   3.765
90356W        W62682  32.068  14.279  10.965
90357W        W62683  34.027  42.733   4.117
90358W        W62684  31.006  22.106   2.268
90359W        W62685  42.734  32.578  12.811
90360W        W62686   0.244  17.619  14.482
90361W        W62687   3.511  24.527  13.841
90362W        W62688  42.919  16.705  11.475
90363W        W62689  30.747  19.771  11.350
90364W        W62690  15.492  14.378   1.896
90365W        W62691   5.980   4.406   1.960
90366W        W62692  22.630  18.234  13.856
90367W        W62693   4.143   3.347  13.498
90368W        W62694  36.810  37.603  11.495
90369W        W62695   2.905  35.471   4.749
90370W        W62696  20.691   0.786   0.839
90371W        W62697  38.686   2.986   2.911
90372W        W62698  40.350  20.564  10.353
90373W        W62699  41.927  38.263   3.630
90374W        W62700  19.297  43.028   4.986
90375W        W62701  15.183  24.458   4.076
90376W        W62702  23.011   5.293  14.951
90377W        W62703  10.869  29.879   3.633
90378W        W62704  41.635  22.993   2.725
90379W        W62705  15.081   8.515   4.762
90380W        W62706  21.954   2.812  11.238
90381W        W62707  32.572   4.806   1.887
90382W        W62708  41.213  28.929   0.733
90383W        W62709  18.264   4.639  14.666
90384W        W62710   2.459  40.373  11.240
90385W        W62711  19.084   3.546  14.255
90386W        W62712  35.857  38.407   2.978
90387W        W62713  34.180  39.615  14.166
90388W        W62714  44.340   1.309   2.280
90389W        W62715  21.485  31.038   2.781
90390W        W62716   4.366  18.733  14.619
90391W        W62717  35.040   8.150   4.106
90392W        W62718  27.539  30.358   3.726
90393W        W62719   2.334  29.603   2.252
90394W        W62720  41.103  23.913  14.458
90395W        W62721  18.158  13.061   0.261
90396W        W62722  44.751  26.557   0.410
90397W        W62723  36.004  35.153   4.203
90398W        W62724   3.530   9.410   2.686
90399W        W62725  35.530  11.079  12.349
90400W        W62726   2.247  39.991   4.685
90401W        W62727  15.737   3.129   5.023
90402W        W62728  14.085  33.083  12.634
90403W        W62729   1.351  43.343  11.381
90404W        W62730  27.550  32.557   0.958
90405W        W62731  12.301  23.977   4.208
90406W        W62732  17.609  15.057   0.941
90407W        W62733  40.426  10.938   1.778
90408W        W62734  19.111   1.958  10.619
90409W        W62735  13.317  10.825   4.303
90410W        W62736  25.099  21.900   0.081
90411W        W62737  32.189  19.632   2.826
90412W        W62738  21.222   9.286  11.607
90413W        W62739   4.408  23.584   4.140
90414W        W62740  30.515  14.592  11.844
90415W        W62741  29.041  23.743   0.070
90416W        W62742  24.135  15.475  11.151
90417W        W62743  35.863  31.430  13.434
90418W        W62744   1.418   4.792  14.963
90419W        W62745  21.525  11.282  10.688
90420W        W62746  30.678  11.075  14.845
90421W        W62747  33.090  10.212  11.241
90422W        W62748  23.126  36.643  13.960
90423W        W62749   6.775  11.408  12.421
90424W        W62750  37.818   7.354   1.250
90425W        W62751  32.954  13.036  10.703
90426W        W62752  39.646  14.336  14.996
90427W        W62753  44.420  44.576   3.556
90428W        W62754  26.250  31.907  12.326
90429W        W62755  22.004   3.527   3.683
90430W        W62756  33.907  30.687  10.939
90431W        W62757   5.432  34.454  14.814
90432W        W62758  33.906  20.023   0.930
90433W        W62759   2.979   6.390   4.489
90434W        W62760   4.496   9.364   4.083
90435W        W62761   7.609  12.693  14.087
90436W        W62762  14.626  11.858  13.242
90437W        W62763  39.687  35.189   2.677
90438W        W62764  13.340   6.884  14.938
90439W        W62765  33.585  30.944   2.232
90440W        W62766  38.866  22.233  11.130
90441W        W62767  43.439  21.603   3.439
90442W        W62768  36.855   0.816  11.441
90443W        W62769   9.324  32.933  12.542
90444W        W62770  11.887  39.710   2.390
90445W        W62771  23.026  42.524   2.899
90446W        W62772  18.278  11.573  11.515
90447W        W62773  38.414  15.676   4.896
90448W        W62774  15.540  20.210   0.856
90449W        W62775  23.899  34.076   4.796
90450W        W62776  28.777  18.052   2.670
90451W        W62777  42.077  16.262   4.216
90452W        W62778   1.671  35.635  11.944
90453W        W62779  21.067  37.351   4.961
90454W        W62780  14.566  19.789  11.654
90455W        W62781   7.172  20.979   2.504
90456W        W62782   5.838  41.232  10.791
90457W        W62783   0.496  20.499   0.278
90458W        W62784  21.922   8.707  10.658
90459W        W62785  21.293  27.723  13.405
90460W        W62786  12.843  40.725   0.595
90461W        W62787  31.609  37.849  14.358
90462W        W62788   8.334  20.705  12.527
90463W        W62789   3.644   0.296  14.345
90464W        W62790   3.915   0.165  13.921
90465W        W62791  38.371  35.125   3.639
90466W        W62792  34.989  28.739  12.459
90467W        W62793  43.865  36.420   4.916
90468W        W62794  30.980   3.431  10.657
90469W        W62795  24.376  31.417   0.299
90470W        W62796  22.693   0.244  11.709
90471W        W62797  32.891  30.489   2.873
90472W        W62798  13.859  40.272   0.438
90473W        W62799  17.108   4.721  12.905
90474W        W62800  38.388  22.120  10.944
90475W        W62801  37.607  32.514  10.385
90476W        W62802  18.026  17.689  11.689
90477W        W62803  43.409   0.356   2.354
90478W        W62804  39.888   0.469   3.588
90479W        W62805   2.960  15.804  11.681
90480W        W62806  15.669  20.607   0.023
90481W        W62807  19.770  35.498  14.810
90482W        W62808  22.601   7.924  13.998
90483W        W62809  15.619  25.452   2.103
90484W        W62810   2.934  42.962   0.915
90485W        W62811  35.638  43.279   4.616
90486W        W62812  44.453  28.755   4.533
90487W        W62813  34.853  36.337   4.615
90488W        W62814  12.334   0.947   4.300
90489W        W62815  13.051   9.102   1.657
90490W        W62816  10.125  27.162   0.216
90491W        W62817  12.125  33.218  12.460
90492W        W62818  18.784  23.691   2.836
90493W        W62819  21.201  38.972   4.392
90494W        W62820  34.960  19.098   2.646
90495W        W62821  17.367   1.383  13.399
90496W        W62822  37.042   4.315  12.501
90497W        W62823  15.328  31.133  12.747
90498W        W62824  13.781  17.061  14.367
90499W        W62825  31.592  31.046  11.026
90500W        W62826  29.318   5.098  12.479
90501W        W62827  13.892   3.937   1.512
90502W        W62828  44.746   0.470  12.334
90503W        W62829  21.473  39.044  13.875
90504W        W62830  36.084   6.849   3.913
90505W        W62831  15.305  10.183   1.198
90506W        W62832   8.228  42.435   0.161
90507W        W62833  28.561   5.889  13.376
90508W        W62834  25.716  28.013   4.126
90509W        W62835  43.876  17.557   2.895
90510W        W62836  43.290  11.645   2.786
90511W        W62837  43.852  30.363   4.669
90512W        W62838   5.244  11.833   3.157
90513W        W62839  38.310  38.397  13.833
90514W        W62840  23.705   3.957   3.343
90515W        W62841  33.139  29.004  14.715
90516W        W62842  21.009  12.376   1.862
90517W        W62843  28.005  13.742   1.324
90518W        W62844  21.240  23.713   1.767
90519W        W62845  25.997  17.485   1.499
90520W        W62846  10.611  15.162   0.292
90521W        W62847  15.397  20.940  13.514
90522W        W62848  26.695   2.031   1.439
90523W        W62849   2.379  38.494   3.694
90524W        W62850   3.289  22.775  10.161
90525W        W62851  37.099  23.263  11.599
90526W        W62852  32.225  13.601  14.721
90527W        W62853   0.595  37.105   2.282
90528W        W62854  26.168   1.291  13.835
90529W        W62855  28.450  17.996  11.518
90530W        W62856  13.289  22.342  13.953
90531W        W62857  31.943  12.419  13.003
90532W        W62858  13.154  25.547   3.603
90533W        W62859  32.530  23.871  14.410
90534W        W62860  21.660   3.309   2.814
90535W        W62861   1.437  21.800   3.085
90536W        W62862  26.023  23.795   0.740
90537W        W62863  24.324  40.752   4.231
90538W        W62864   1.503  23.815   9.786
90539W        W62865  25.140  22.046   1.126
90540W        W62866  18.948   5.396  10.636
90541W        W62867  38.682  35.369   1.774
90542W        W62868  24.735   1.303   3.350
90543W        W62869  24.190  22.064   1.036
90544W        W62870   5.171  29.527  10.982
90545W        W62871  22.787   1.719  10.683
90546W        W62872   6.018  17.525  12.071
90547W        W62873  20.775  32.984  14.638
90548W        W62874   6.924   5.753   1.103
90549W        W62875  16.278  26.075   2.677
90550W        W62876   4.453  23.692  14.401
90551W        W62877  41.962  20.163  11.848
90552W        W62878  44.882  34.400  13.823
90553W        W62879   6.349  42.260   3.133
90554W        W62880  31.089  13.695  12.913
90555W        W62881  10.069  29.564   0.205
90556W        W62882   3.243  24.142  13.577
90557W        W62883  21.397   7.276  11.984
90558W        W62884  17.693  41.466   1.468
90559W        W62885  43.365  13.682   3.846
90560W        W62886  13.582   7.846   4.548
90561W        W62887  17.282  36.495   1.834
90562W        W62888  44.820  21.439   2.776
90563W        W62889  34.537  22.440  13.781
90564W        W62890  20.628  40.294  10.054
90565W        W62891  40.543  18.784  11.673
90566W        W62892   0.762  39.181   1.766
90567W        W62893  13.205  37.777   3.206
90568W        W62894  37.349   0.390   0.714
90569W        W62895   7.774  29.390   4.409
90570W        W62896   0.233  14.955  11.094
90571W        W62897  41.884  33.804   2.743
90572W        W62898  36.040   2.466   2.458
90573W        W62899   6.729  12.322   1.698
90574W        W62900  10.176  40.668   0.866
90575W        W62901  40.438  37.245  12.514
90576W        W62902  19.136  18.091   4.591
90577W        W62903  28.588  26.532  10.591
90578W        W62904  16.561  11.188   2.312
90579W        W62905  25.056  24.046  11.569
90580W        W62906  35.325  28.369  14.616
90581W        W62907  16.555  44.796  10.787
90582W        W62908  14.029  18.559   4.367
90583W        W62909   5.715  22.804  14.472
90584W        W62910  32.469  42.777   4.477
90585W        W62911  36.717  24.744   1.423
90586W        W62912  12.127  24.337   0.725
90587W        W62913  27.742  28.559  11.472
90588W        W62914  43.032  13.763   3.457
90589W        W62915  34.937  11.375   4.129
90590W        W62916  23.529  20.797  11.214
90591W        W62917  14.301  31.023  12.502
90592W        W62918   4.211   3.161   4.267
90593W        W62919  31.549  31.062   1.193
90594W        W62920  32.870  23.494   3.206
90595W        W62921  29.739   4.749  11.628
90596W        W62922   9.167  29.525  13.142
90597W        W62923  44.445  13.055  12.900
90598W        W62924  43.300  33.149  12.612
90599W        W62925   6.345  30.708  11.456
90600W        W62926  42.033  10.400  13.092
90601W        W62927  26.613   8.847  11.056
90602W        W62928   3.542  40.470   4.525
90603W        W62929  17.377   7.616   2.864
90604W        W62930   6.222  27.011  12.196
90605W        W62931   2.187  10.374  14.496
90606W        W62932   1.264  44.519  12.101
90607W        W62933  21.612  32.540   2.692
90608W        W62934   4.473  15.762  10.621
90609W        W62935   9.263  21.930  11.421
90610W        W62936  17.682  16.786  13.355
90611W        W62937  16.748  38.450  12.500
90612W        W62938  18.822  11.828   0.014
90613W        W62939  36.557   5.280  12.038
90614W        W62940  12.090  22.217   3.762
90615W        W62941  32.607  29.517   2.468
90616W        W62942  36.530   4.028   2.730
90617W        W62943   2.014   1.310  13.491
90618W        W62944  13.087  41.409  12.104
90619W        W62945  39.869  20.009   4.413
90620W        W62946   9.387   6.255  14.907
90621W        W62947  30.701  37.834   1.596
90622W        W62948  23.581  12.546   2.098
90623W        W62949  20.649  14.126  13.108
90624W        W62950  40.780   7.177   1.508
90625W        W62951  20.341  18.012  13.838
90626W        W62952   5.187   4.878  10.539
90627W        W62953   7.846  10.369   3.664
90628W        W62954  24.357  29.883  14.270
90629W        W62955   9.806  26.323  10.201
90630W        W62956   2.368  19.409  13.812
90631W        W62957  38.921  19.035  10.941
90632W        W62958  21.403   8.475  11.131
90633W        W62959  37.481  35.710   4.440
90634W        W62960  33.579  43.035  12.846
90635W        W62961  32.990  10.508   4.189
90636W        W62962   5.266  12.125  14.329
90637W        W62963  20.496  43.490  14.115
90638W        W62964   5.820   6.641  14.322
90639W        W62965  17.850  44.525  10.491
90640W        W62966  23.972  20.729   0.752
90641W        W62967  29.192  42.591  11.153
90642W        W62968  32.286  38.871  11.864
90643W        W62969  11.936   0.310  12.465
90644W        W62970  17.783  31.085   3.064
90645W        W62971   8.406  36.669  14.552
90646W        W62972  25.079  11.588   2.322
90647W        W62973  36.534   1.934  14.457
90648W        W62974   4.351  40.399  12.041
90649W        W62975  29.124   3.318  14.611
90650W        W62976  12.742   4.765  12.122
90651W        W62977  38.033  20.449   1.653
90652W        W62978  27.923   2.725  12.087
90653W        W62979   5.506  30.515  13.016
90654W        W62980  19.065  25.128  14.845
90655W        W62981  39.709  22.686   1.318
90656W        W62982  33.506   7.097  10.255
90657W        W62983  33.326  33.659  11.875
90658W        W62984  11.707  21.614   3.810
90659W        W62985   7.741  30.655   4.670
90660W        W62986   9.722  20.267  14.582
90661W        W62987   1.757  37.584   1.230
90662W        W62988   4.868   7.654   4.661
90663W        W62989  29.054   4.962  13.062
90664W        W62990  34.892   2.494   0.257
90665W        W62991  16.846  20.030  10.976
90666W        W62992  27.030  24.183  11.093
90667W        W62993  17.248  17.672  14.886
90668W        W62994   7.552  27.679  10.798
90669W        W62995  13.601  34.655   1.828
90670W        W62996  17.231  24.623   4.740
90671W        W62997   7.662   3.679  13.534
90672W        W62998  34.958  18.542   3.128
90673W        W62999  33.474  11.774  10.292
90674W        W63000  29.819  28.640   9.646
90675W        W63001  43.522  24.643  14.776
90676W        W63002  12.650  36.394   4.612
90677W        W63003  11.176  21.434   2.558
90678W        W63004  21.594  33.498   3.263
90679W        W63005  41.365  21.985   1.548
90680W        W63006  28.544  35.900  12.648
90681W        W63007  23.488  42.571   0.288
90682W        W63008   7.225  34.583   4.148
90683W        W63009  39.460  32.601  11.935
90684W        W63010  23.056  29.058  10.950
90685W        W63011  25.507  26.652  12.395
90686W        W63012  10.124  13.209  11.178
90687W        W63013  42.701  29.927  13.425
90688W        W63014  24.079   2.869   4.317
90689W        W63015   6.918  30.149   0.922
90690W        W63016  43.027  33.977  14.497
90691W        W63017  43.504  23.987   1.358
90692W        W63018  40.090  24.145   3.879
90693W        W63019  30.516  16.715  10.468
90694W        W63020  27.075   0.838   1.176
90695W        W63021  24.727  36.456   1.948
90696W        W63022   4.276   8.895  11.162
90697W        W63023  29.776  39.359  13.605
90698W        W63024  20.745  38.820  11.069
90699W        W63025   8.727  30.679   1.880
90700W        W63026  32.628   3.420  11.610
90701W        W63027   2.826  13.062   2.731
90702W        W63028  29.841  38.663   4.232
90703W        W63029  43.057  30.422   4.186
90704W        W63030  40.974  26.936   2.840
90705W        W63031  37.568  10.875   3.359
90706W        W63032   3.605  37.006  13.442
90707W        W63033  23.441   1.482  14.758
90708W        W63034  20.700  40.821   0.251
90709W        W63035  29.769   9.331  12.075
90710W        W63036  22.007  28.053   4.299
90711W        W63037  37.810   4.260  13.121
90712W        W63038   0.311   0.636   3.386
90713W        W63039   8.211   9.709   2.688
90714W        W63040  29.051  37.449   3.831
90715W        W63041   3.665  13.093   4.379
90716W        W63042  30.404   9.830   1.871
90717W        W63043  18.616   0.896   1.121
90718W        W63044  43.874   3.725  11.386
90719W        W63045  29.075  23.496  13.183
90720W        W63046  32.171  32.485  11.398
90721W        W63047  27.033   7.924  11.795
90722W        W63048  34.458  20.259   3.725
90723W        W63049   3.298  18.158   4.271
90724W        W63050  24.356  18.653  14.032
90725W        W63051  35.427  31.693  11.145
90726W        W63052  14.745   2.392   4.542
90727W        W63053  32.569  15.179  14.298
90728W        W63054  37.559   8.166   3.160
90729W        W63055  30.983   4.182  14.313
90730W        W63056  12.809  10.612   2.080
90731W        W63057  17.150  17.800   1.315
90732W        W63058  43.456  30.164   3.092
90733W        W63059  17.780  11.728   4.780
90734W        W63060  15.982  24.709  13.743
90735W        W63061  44.707   4.966  10.907
90736W        W63062   3.932  13.626  10.652
90737W        W63063  32.701  23.095   3.968
90738W        W63064  25.170  43.443  11.657
90739W        W63065  12.331   7.286  12.958
90740W        W63066  17.681   8.965   3.057
90741W        W63067   2.698  32.699  13.009
90742W        W63068   5.366   7.852  11.523
90743W        W63069  38.237  25.606   0.352
90744W        W63070   8.872  18.059   4.330
90745W        W63071  29.573  36.572  13.028
90746W        W63072  31.058  32.807   1.053
90747W        W63073  31.171  44.727  13.943
90748W        W63074  38.316  36.960   4.235
90749W        W63075  21.121  17.098  11.597
90750W        W63076   4.720  32.627  14.376
90751W        W63077  32.853  33.267   2.813
90752W        W63078  17.087   3.855   1.527
90753W        W63079  42.907  11.065   4.804
90754W        W63080  19.197  20.729   3.266
90755W        W63081   3.692  11.270  14.757
90756W        W63082  25.612  31.217   2.645
90757W        W63083  15.811  21.610  14.961
90758W        W63084  19.271  34.884   2.164
90759W        W63085  25.580  41.262   4.111
90760W        W63086  19.181  26.446  13.957
90761W        W63087  21.930  36.818   3.068
90762W        W63088   9.631   2.350   3.444
90763W        W63089  40.030   9.284  11.766
90764W        W63090  40.921  19.727  12.661
90765W        W63091   1.143  22.302  12.657
90766W        W63092   2.024  17.794   2.114
90767W        W63093   5.672  18.654  13.991
90768W        W63094  28.174  40.790   4.058
90769W        W63095  10.408   0.508  13.889
90770W        W63096  14.320   8.512  14.102
90771W        W63097   1.474  30.474   2.827
90772W        W63098  40.414  39.824  13.611
90773W        W63099  24.502  27.079  14.306
90774W        W63100   0.314  25.019  12.488
90775W        W63101  44.052   9.320   4.496
90776W        W63102  18.214  27.840  12.433
90777W        W63103   0.054  35.934  10.480
90778W        W63104  44.658  32.631   0.392
90779W        W63105  32.967  15.595  12.860
90780W        W63106  41.879  35.932   3.701
90781W        W63107  21.958  35.072   3.439
90782W        W63108   7.272  20.991  11.575
90783W        W63109  29.643   9.612   2.705
90784W        W63110  19.777  36.252  14.030
90785W        W63111  36.508   4.380   1.429
90786W        W63112   5.347  27.053  13.454
90787W        W63113   1.105   9.906  10.358
90788W        W63114  43.364   4.335   3.528
90789W        W63115  42.422  12.755  11.638
90790W        W63116  30.353   1.625   4.100
90791W        W63117  24.128  34.398  13.053
90792W        W63118  30.176  31.016   1.443
90793W        W63119   1.441   1.053  14.867
90794W        W63120  29.945  26.636   5.018
90795W        W63121  22.566  34.897  10.685
90796W        W63122  41.298  37.793  14.846
90797W        W63123   8.747  19.461   3.271
90798W        W63124   2.836   7.785  13.705
90799W        W63125  22.972   2.274  10.668
90800W        W63126  18.117  33.534   2.774
90801W        W63127   1.424  14.493   0.775
90802W        W63128  24.541  15.479   1.266
90803W        W63129  12.676  27.922  13.767
90804W        W63130  37.759   1.409  13.894
90805W        W63131  26.055   2.298   2.416
90806W        W63132  38.923  23.977  12.895
90807W        W63133  27.957   7.149  10.735
90808W        W63134  26.129  28.666   3.161
90809W        W63135  36.312  39.768   2.175
90810W        W63136  33.645  38.541   3.748
90811W        W63137  28.601  44.904  12.344
90812W        W63138   4.635  10.124   2.447
90813W        W63139  40.243  30.456   2.835
90814W        W63140  18.209  33.711   0.190
90815W        W63141  34.878  37.376   2.642
90816W        W63142  37.892  14.846  12.014
90817W        W63143   5.035  34.397   0.474
90818W        W63144  18.817  29.072  14.454
90819W        W63145  39.186   9.551   0.478
90820W        W63146  14.216  40.048  13.219
90821W        W63147  26.995  21.426   3.796
90822W        W63148   9.132  44.895  14.960
90823W        W63149  21.618   7.808   1.205
90824W        W63150  31.423   1.246  10.701
90825W        W63151  10.757  12.893   0.422
90826W        W63152   2.743   9.362  10.576
90827W        W63153  22.609  29.092   0.742
90828W        W63154  23.494  14.880   2.333
90829W        W63155   5.058  12.071   3.589
90830W        W63156   7.359  42.831  13.411
90831W        W63157   9.403  27.967  12.334
90832W        W63158  10.897  33.893  13.410
90833W        W63159  32.636  25.044   3.217
90834W        W63160   4.925   5.316   1.710
90835W        W63161   4.397  27.867  13.955
90836W        W63162  20.156  31.953   1.820
90837W        W63163  23.075  27.538  13.390
90838W        W63164  35.493   4.770   2.706
90839W        W63165  36.407  22.367  14.757
90840W        W63166  43.406   0.889   0.295
90841W        W63167   3.209  39.037   4.116
90842W        W63168  21.328  28.165  12.100
90843W        W63169  28.884   2.876  14.781
90844W        W63170  14.726  20.683   3.300
90845W        W63171  13.230  25.032   4.432
90846W        W63172  26.630   2.275  11.924
90847W        W63173  19.502  17.257  14.484
90848W        W63174  12.839   9.908  13.937
90849W        W63175  26.188  41.847   3.901
90850W        W63176  33.770   7.221   3.106
90851W        W63177   3.927   5.433  14.490
90852W        W63178   5.833  15.621  11.051
90853W        W63179  22.246   2.804   4.078
90854W        W63180  10.413  18.716  13.841
90855W        W63181  43.850  26.105  12.394
90856W        W63182  43.589  21.085   1.305
90857W        W63183  12.766  18.795  11.177
90858W        W63184  25.073   9.613  13.694
90859W        W63185  18.464  22.210   2.256
90860W        W63186  27.186  38.284   3.896
90861W        W63187   3.434  13.582   4.308
90862W        W63188  13.415  16.677  14.461
90863W        W63189  41.193  27.954  13.517
90864W        W63190   7.181  24.274  12.194
90865W        W63191  38.473  16.308   1.675
90866W        W63192  12.339  24.418   3.830
90867W        W63193  10.776  18.587  14.221
90868W        W63194  35.792   0.266   2.718
90869W        W63195  16.793  13.084  10.706
90870W        W63196   5.535  18.712   3.154
90871W        W63197  21.579  10.765   1.382
90872W        W63198  32.074  40.978  14.332
90873W        W63199   9.898  11.976  12.959
90874W        W63200  28.735  10.876   4.184
90875W        W63201  21.587   2.486   3.132
90876W        W63202  18.193  26.609  14.959
90877W        W63203  12.829   4.294   3.421
90878W        W63204  20.029  34.599   1.812
90879W        W63205  40.061   0.906  11.534
90880W        W63206  21.493  35.638   3.596
90881W        W63207  36.987  28.515  10.639
90882W        W63208  23.133  38.871  14.264
90883W        W63209  44.307   8.263   2.252
90884W        W63210  24.635  19.659  12.054
90885W        W63211  15.016   7.364   1.323
90886W        W63212  12.267  33.165  13.808
90887W        W63213  28.279  39.095  12.161
90888W        W63214  17.399  14.723   1.669
90889W        W63215  23.149  16.216  12.048
90890W        W63216   5.996  11.325  14.530
90891W        W63217  10.215  10.454  14.537
90892W        W63218  44.289  39.522  12.778
90893W        W63219   1.840  43.368  11.934
90894W        W63220  14.374  31.616  11.602
90895W        W63221  14.070  13.782   3.676
90896W        W63222  15.685  44.848   0.422
90897W        W63223  18.664  43.767   1.341
90898W        W63224  22.303  28.183   2.754
90899W        W63225  28.511  38.644   2.807
90900W        W63226  43.753  36.303  13.013
90901W        W63227  19.879  29.555   0.287
90902W        W63228   8.861  21.035  13.895
90903W        W63229  31.987  11.558   3.681
90904W        W63230  32.027  10.651  12.260
90905W        W63231  17.110  40.260  13.337
90906W        W63232  18.711  26.495  14.958
90907W        W63233  30.027   1.390   0.814
90908W        W63234  23.528  14.543   3.225
90909W        W63235  27.435  44.306  10.883
90910W        W63236   0.528  44.197  13.924
90911W        W63237   9.650  42.928  10.269
90912W        W63238  20.840   4.010  12.838
90913W        W63239  11.449  29.523  13.512
90914W        W63240  11.555  27.463   0.036
90915W        W63241  43.394  28.457  11.846
90916W        W63242  13.318  22.156   2.639
90917W        W63243  44.806   7.703  11.384
90918W        W63244  23.172  21.107  14.018
90919W        W63245  18.481   0.932   2.489
90920W        W63246  41.289  39.148  12.977
90921W        W63247   6.964  16.970   2.548
90922W        W63248  33.932  10.512  12.462
90923W        W63249  33.241  30.544   0.788
90924W        W63250   0.081  37.454  11.898
90925W        W63251  31.448  40.522   3.698
90926W        W63252  22.208  19.121   0.817
90927W        W63253  32.086  38.383   4.657
90928W        W63254  38.047  39.558   4.466
90929W        W63255  17.041  32.382   2.558
90930W        W63256  29.924  13.323   4.552
90931W        W63257  28.308  27.462   1.335
90932W        W63258  34.483   0.045   2.467
90933W        W63259  11.776   5.283   0.628
90934W        W63260  18.263   8.622   1.405
90935W        W63261  20.496  22.690  13.207
90936W        W63262  30.239  23.678   4.424
90937W        W63263  15.502  30.620   0.259
90938W        W63264   0.565   8.942  11.044
90939W        W63265  38.835   9.460  12.353
90940W        W63266  32.893  25.558   1.259
90941W        W63267  42.336  34.591   1.539
90942W        W63268  14.984  40.800  14.556
90943W        W63269  43.738  22.642  10.842
90944W        W63270  20.886   9.836   1.536
90945W        W63271  24.739  25.140   0.185
90946W        W63272   7.346  21.834  12.987
90947W        W63273  25.599  44.549  11.180
90948W        W63274  38.939  39.765   1.382
90949W        W63275  26.453  30.174   3.077
90950W        W63276   6.434  27.506  12.591
90951W        W63277  14.143   4.695  12.019
90952W        W63278  27.477   1.450  10.482
90953W        W63279  36.918   3.277  12.430
90954W        W63280  44.255  25.163  13.419
90955W        W63281  43.350  23.564   3.817
90956W        W63282  30.182  32.971  11.570
90957W        W63283  30.012  31.240  13.411
90958W        W63284  37.121  34.671   3.831
90959W        W63285   2.861  26.935   3.678
90960W        W63286  15.348   8.635  12.890
90961W        W63287  34.042  21.685  10.944
90962W        W63288   3.474  43.511  13.922
90963W        W63289  29.001   3.402   5.017
90964W        W63290  33.514  16.620   3.884
90965W        W63291   9.253  40.913  10.367
90966W        W63292  43.331  27.522   1.496
90967W        W63293  31.033   5.212  11.937
90968W        W63294   7.207  17.293   0.668
90969W        W63295  13.650  25.230  10.127
90970W        W63296  36.805  10.756   0.724
90971W        W63297   9.678  34.554   3.130
90972W        W63298  23.260  14.740   1.875
90973W        W63299   9.163  22.988   3.576
90974W        W63300  22.444  24.239   3.643
90975W        W63301  13.361  21.253   1.760
90976W        W63302   1.348  10.833   3.182
90977W        W63303  32.858  20.574  12.077
90978W        W63304  10.733  41.858  12.840
90979W        W63305  36.310  16.340  14.951
90980W        W63306  37.452  31.894   4.732
90981W        W63307  23.583  38.368  11.552
90982W        W63308  43.815   0.944   3.435
90983W        W63309  40.509  33.194  11.140
90984W        W63310   4.604  27.750  10.003
90985W        W63311   0.164  37.837   0.795
90986W        W63312  14.214  39.399  12.678
90987W        W63313  26.608   5.826  13.116
90988W        W63314  11.242  22.059   4.278
90989W        W63315  27.440  30.623  12.377
90990W        W63316  36.699  17.262   0.015
90991W        W63317   5.737  39.883  11.079
90992W        W63318  25.338  32.475  13.077
90993W        W63319  15.771  30.660   2.660
90994W        W63320  25.339  14.678  12.665
90995W        W63321   6.272   3.295  12.908
90996W        W63322  40.022   1.984  11.555
90997W        W63323  13.799  27.494  12.640
90998W        W63324   6.518   1.437   3.575
90999W        W63325  16.000  38.055  12.478
91000W        W63326  10.676  37.092   2.276
91001W        W63327  21.221  42.551  12.727
91002W        W63328   4.525  26.196  13.470
91003W        W63329  44.787  28.251   4.184
91004W        W63330  41.388  25.316   1.981
91005W        W63331  36.104  11.687  12.445
91006W        W63332  23.681  34.216   3.288
91007W        W63333  19.875  23.954   3.177
91008W        W63334  19.152  11.830  12.904
91009W        W63335  13.123  26.509   2.348
91010W        W63336  21.711  20.782  14.367
91011W        W63337   4.650  13.249  11.377
91012W        W63338  44.386  42.725   0.478
91013W        W63339  12.105  18.733  10.761
91014W        W63340  10.250  30.514  13.590
91015W        W63341  30.332  24.277   2.605
91016W        W63342  30.327  26.371   4.260
91017W        W63343  33.514  38.364  12.159
91018W        W63344  37.258  38.337   2.750
91019W        W63345  13.841  21.005   2.811
91020W        W63346  33.235  34.400  12.318
91021W        W63347   7.022  27.714   1.755
91022W        W63348  37.405  29.822  12.106
91023W        W63349  41.808  16.546   4.559
91024W        W63350  12.755  14.750  10.723
91025W        W63351  11.633  29.408   0.261
91026W        W63352  31.432  37.873  13.487
91027W        W63353  26.291  22.839  11.467
91028W        W63354  37.487  29.037  14.471
91029W        W63355  36.256  23.655   3.721
91030W        W63356  35.528   4.499   4.162
91031W        W63357  37.032  21.509   1.924
91032W        W63358   0.398   4.065  13.765
91033W        W63359   2.869  17.538   4.672
91034W        W63360  21.317  28.256  13.426
91035W        W63361  32.120  16.454  11.500
91036W        W63362  10.808  12.515   4.560
91037W        W63363   6.069  19.761  14.803
91038W        W63364  13.312  10.384   0.439
91039W        W63365  35.314  25.770   4.130
91040W        W63366  32.010  14.812  12.145
91041W        W63367  17.572   5.491   4.115
91042W        W63368  31.666  44.305   4.023
91043W        W63369   7.641   7.686   0.491
91044W        W63370  12.690  13.809  11.277
91045W        W63371  34.137   9.003  14.277
91046W        W63372  24.074  27.469   0.880
91047W        W63373  44.541  20.285   4.141
91048W        W63374   6.123  44.789   3.206
91049W        W63375  35.658   4.500  13.001
91050W        W63376   3.388  38.321   3.807
91051W        W63377  38.537  21.403   3.563
91052W        W63378   2.328   2.539   0.396
91053W        W63379  11.681  16.098   2.170
91054W        W63380  24.990  18.647  11.626
91055W        W63381  19.647  19.048  13.318
91056W        W63382   1.482  14.674   4.170
91057W        W63383  30.382  19.760  12.622
91058W        W63384  35.694  44.331  10.931
91059W        W63385  39.316  31.021  14.992
91060W        W63386  11.681  29.292   1.431
91061W        W63387  42.585  35.629  11.977
91062W        W63388  29.370  41.574  12.249
91063W        W63389  30.725   8.724   2.329
91064W        W63390  20.385   5.453  10.715
91065W        W63391  18.753  14.734   2.260
91066W        W63392  18.038   0.710  14.397
91067W        W63393  29.214  13.160  14.339
91068W        W63394  41.333  33.026   2.229
91069W        W63395   7.611  27.923   0.223
91070W        W63396   6.176  15.484   3.257
91071W        W63397  17.619  20.318  11.551
91072W        W63398  30.048   7.163   0.928
91073W        W63399  16.844  16.275  14.927
91074W        W63400   5.722  22.626   3.279
91075W        W63401   7.309  13.237  13.358
91076W        W63402   0.246  16.453   0.976
91077W        W63403  20.823  15.674   1.681
91078W        W63404  24.067  17.641   5.218
91079W        W63405  26.276  23.797  12.413
91080W        W63406  12.871   9.742   2.145
91081W        W63407  37.949  20.975   1.489
91082W        W63408  26.504  39.857   1.739
91083W        W63409  38.025  11.491  14.270
91084W        W63410  12.580   4.730   0.869
91085W        W63411   3.881  15.175   0.419
91086W        W63412  26.155  11.811  14.942
91087W        W63413   4.787   4.273  12.553
91088W        W63414  18.198  39.840   0.025
91089W        W63415  13.056  33.613   1.213
91090W        W63416   0.796  35.457   4.755
91091W        W63417  40.905  13.039  10.835
91092W        W63418  18.915   8.866   4.028
91093W        W63419   2.664  25.113  14.315
91094W        W63420   4.958  42.873  12.434
91095W        W63421  18.126  13.418   3.193
91096W        W63422  38.504  44.486   2.803
91097W        W63423   7.234  18.569   0.388
91098W        W63424  24.924  39.788   1.277
91099W        W63425  35.035  39.987   2.621
91100W        W63426  14.685   9.475  11.906
91101W        W63427   9.826  35.297  12.859
91102W        W63428  44.432  38.148   1.315
91103W        W63429  30.456  21.649  13.856
91104W        W63430  12.215  10.888  13.932
91105W        W63431  32.505   2.705   4.271
91106W        W63432  31.267   6.709   0.023
91107W        W63433   7.807  12.936   5.081
91108W        W63434   4.708  17.327   0.852
91109W        W63435   5.597  29.909  14.445
91110W        W63436  44.858  34.847  14.057
91111W        W63437   3.299  32.388  14.917
91112W        W63438  19.320  34.887   1.295
91113W        W63439  21.514  29.172   4.553
91114W        W63440  36.568   6.737   1.405
91115W        W63441  30.924   1.772  11.124
91116W        W63442   5.747  24.170  14.469
91117W        W63443   2.289   7.317   3.797
91118W        W63444  21.320  28.946  12.606
91119W        W63445  13.061  40.544   1.361
91120W        W63446  38.902  42.331  12.823
91121W        W63447   5.419  44.929  12.318
91122W        W63448  15.722  36.153   1.819
91123W        W63449  17.325  20.810  12.413
91124W        W63450   4.380   1.839   1.894
91125W        W63451   2.187  19.791  11.893
91126W        W63452  22.282  41.080  11.017
91127W        W63453  34.603   9.880  12.303
91128W        W63454   8.701  32.416   1.693
91129W        W63455  27.342  18.663  12.925
91130W        W63456  42.087  37.529  12.020
91131W        W63457   7.844  19.212   2.912
91132W        W63458  39.537   1.827   2.847
91133W        W63459  27.947  28.989   0.988
91134W        W63460  11.227  27.375  14.637
91135W        W63461  33.620  20.798  10.840
91136W        W63462  23.244  28.669   4.215
91137W        W63463  40.110   4.359   1.367
91138W        W63464  27.449  36.223  13.521
91139W        W63465  26.677  24.989   2.698
91140W        W63466   4.479  40.768  11.650
91141W        W63467   3.054  34.568   1.514
91142W        W63468  20.833   9.002  12.091
91143W        W63469  43.213  31.555   1.913
91144W        W63470  13.638   6.880  14.426
91145W        W63471  32.911  36.016   1.208
91146W        W63472  22.942  36.783   4.150
91147W        W63473  38.294  36.427  14.341
91148W        W63474  16.510  26.469  14.022
91149W        W63475  34.433  15.859   3.774
91150W        W63476  44.621  27.165   1.013
91151W        W63477  16.051  10.836   2.817
91152W        W63478  21.795  21.600   2.234
91153W        W63479   9.289  27.072  14.194
91154W        W63480  30.622  26.498  14.365
91155W        W63481  30.090  19.581   1.767
91156W        W63482  17.993  32.939  11.592
91157W        W63483  24.062  32.228   0.283
91158W        W63484  36.164   1.637   0.342
91159W        W63485   1.527  38.623  13.849
91160W        W63486   4.958  24.793  11.168
91161W        W63487   7.957  25.595   2.486
91162W        W63488   2.342  37.357  10.270
91163W        W63489  20.160  25.316   3.460
91164W        W63490  30.723  18.018  12.933
91165W        W63491   3.202  41.310  13.290
91166W        W63492   6.643  20.990   0.625
91167W        W63493   2.230   7.630   4.180
91168W        W63494  43.087   0.081  11.074
91169W        W63495  33.861   8.353   1.822
91170W        W63496   0.497  22.854  10.243
91171W        W63497  21.177  19.546  12.940
91172W        W63498  19.619  17.049  12.103
91173W        W63499  13.549  19.633   4.539
91174W        W63500  39.489  21.481  12.413
91175W        W63501  17.699  10.692   4.613
91176W        W63502   7.244  36.612  10.649
91177W        W63503  22.053  24.555  14.301
91178W        W63504   0.901  28.531   3.218
91179W        W63505  35.126  25.136   2.899
91180W        W63506  40.402  44.914   1.453
91181W        W63507   0.860  28.259  10.548
91182W        W63508  21.942  40.121   3.672
91183W        W63509  23.693   9.722   1.275
91184W        W63510  44.798  10.436  11.481
91185W        W63511  39.059  14.468  11.173
91186W        W63512  34.208  19.044  12.229
91187W        W63513  11.820   4.321   2.927
91188W        W63514  40.562  14.644  11.489
91189W        W63515   8.430   2.060   3.701
91190W        W63516   6.745  40.840   1.620
91191W        W63517  12.418  24.596  12.024
91192W        W63518   6.185  39.813  10.715
91193W        W63519  26.833  37.281  12.821
91194W        W63520  44.419  12.920  12.376
91195W        W63521  21.599  43.149  10.189
91196W        W63522   0.547  40.410  11.528
91197W        W63523   4.243  20.156  13.886
91198W        W63524  23.530  22.423  13.541
91199W        W63525   0.345  24.510  13.293
91200W        W63526  18.602  17.262   3.599
91201W        W63527  19.556  15.570   4.534
91202W        W63528  44.411  42.893   5.153
91203W        W63529   3.496  33.061   2.730
91204W        W63530  16.617  13.869   1.355
91205W        W63531   2.539  34.520   1.455
91206W        W63532  38.384  17.085   0.818
91207W        W63533   3.421   5.441  14.641
91208W        W63534  42.304   3.927   1.306
91209W        W63535  30.605   5.490  11.103
91210W        W63536  19.069  19.162   4.867
91211W        W63537  28.185  25.543  11.370
91212W        W63538  34.242  10.305   4.093
91213W        W63539  37.616  17.832   2.702
91214W        W63540   4.827  33.955   4.487
91215W        W63541   4.680  14.816  11.246
91216W        W63542   4.478   2.499  12.504
91217W        W63543  37.909  37.687  10.168
91218W        W63544  35.403  15.324  13.356
91219W        W63545  12.200  43.727   3.602
91220W        W63546   3.055   3.652  14.914
91221W        W63547  32.038  44.371   2.432
91222W        W63548  23.952  24.483  14.490
91223W        W63549   3.170  29.684   2.752
91224W        W63550  22.616   8.345  12.146
91225W        W63551  23.151  23.364  14.353
91226W        W63552   0.234  28.340   0.537
91227W        W63553  14.823   2.966  11.771
91228W        W63554  29.719  26.378   3.650
91229W        W63555   7.663   4.546   0.030
91230W        W63556  42.096  14.749  10.712
91231W        W63557  34.823  33.347  14.371
91232W        W63558   5.085   8.780  12.774
91233W        W63559  38.383  16.892  14.485
91234W        W63560  38.110  43.407   0.366
91235W        W63561   2.532  37.524  13.023
91236W        W63562   5.684  32.841   1.277
91237W        W63563  12.763  23.704   4.058
91238W        W63564  27.049  11.294   0.747
91239W        W63565  24.284  24.687  11.445
91240W        W63566  26.858  23.508   0.360
91241W        W63567  10.838  20.814   1.302
91242W        W63568  25.129  33.647   4.457
91243W        W63569  19.721  17.380   0.891
91244W        W63570  36.989  19.570   4.692
91245W        W63571  30.862  22.457  12.004
91246W        W63572   7.899  26.112   2.665
91247W        W63573  11.292  18.292   0.878
91248W        W63574   9.215  26.028   3.845
91249W        W63575  42.719  34.191   4.327
91250W        W63576  39.274  41.158   0.433
91251W        W63577  13.775  34.607  13.992
91252W        W63578  12.843   6.665   0.947
91253W        W63579  40.411  30.457  10.371
91254W        W63580  20.604  30.948   4.708
91255W        W63581  25.705  25.703   2.539
91256W        W63582  21.680  33.857   2.879
91257W        W63583  39.792  43.865  10.705
91258W        W63584  23.031  36.799  10.408
91259W        W63585  32.177   3.285  14.744
91260W        W63586  42.551  15.677   4.607
91261W        W63587  30.538   2.853   1.195
91262W        W63588  14.685  26.912   3.293
91263W        W63589  19.462  21.122   2.281
91264W        W63590  11.287   7.259   3.522
91265W        W63591  31.496  36.091  12.859
91266W        W63592  29.275  29.638  11.926
91267W        W63593  21.719  18.315   0.297
91268W        W63594  41.533  24.030  10.706
91269W        W63595   5.337  39.087   3.315
91270W        W63596   3.559   9.769   4.959
91271W        W63597  22.278  24.987  11.979
91272W        W63598  17.311  28.733   4.860
91273W        W63599  14.342  10.219   2.804
91274W        W63600   9.655   5.397  13.030
91275W        W63601  31.584  17.342   0.776
91276W        W63602  18.140   1.342  14.904
91277W        W63603  32.907  37.514  12.164
91278W        W63604  15.304  10.176   3.680
91279W        W63605  30.632   8.259   0.998
91280W        W63606   3.194   1.105   5.042
91281W        W63607  39.965  30.194  10.441
91282W        W63608  23.495   0.271   1.803
91283W        W63609  25.477   7.352  11.599
91284W        W63610  15.683  21.604   1.842
91285W        W63611  43.984  25.187  12.970
91286W        W63612  22.170  22.158  12.316
91287W        W63613   5.848  23.989  12.148
91288W        W63614  34.308  40.787   2.713
91289W        W63615   0.360  39.976   2.010
91290W        W63616   2.774   9.700   0.854
91291W        W63617  43.561  10.054   4.167
91292W        W63618  39.214  19.760  14.800
91293W        W63619  42.690  31.448   2.013
91294W        W63620   2.039  27.806   1.339
91295W        W63621   4.403  31.528  13.582
91296W        W63622  37.210  31.572  13.091
91297W        W63623   5.483  29.109  10.985
91298W        W63624  42.042  43.733  10.734
91299W        W63625  25.573   5.706   2.233
91300W        W63626  39.531   6.628  11.672
91301W        W63627  40.765   6.852  14.271
91302W        W63628   7.472  15.159  10.634
91303W        W63629  36.848  15.802  11.527
91304W        W63630  43.054  30.223   2.775
91305W        W63631  20.067  35.589   0.531
91306W        W63632  31.141  25.642  10.873
91307W        W63633  39.760   8.407   3.852
91308W        W63634   4.367  17.871  11.585
91309W        W63635  14.181  41.769   0.250
91310W        W63636  18.219   6.307   1.408
91311W        W63637  18.253   0.043   1.435
91312W        W63638  28.035  33.112   0.302
91313W        W63639  22.082  11.258   2.912
91314W        W63640   3.591  42.038   3.197
91315W        W63641   0.368  18.787   1.705
91316W        W63642  34.644   2.048   1.992
91317W        W63643   0.179  26.150   4.416
91318W        W63644  38.126   9.659   5.050
91319W        W63645  12.156   9.192  11.193
91320W        W63646  11.815  25.628  14.760
91321W        W63647  24.974  25.394  14.251
91322W        W63648  36.906   2.204  11.558
91323W        W63649  44.442  10.733  12.456
91324W        W63650   1.600  16.254   2.179
91325W        W63651  33.372  17.594   0.726
91326W        W63652  14.122  23.223   3.566
91327W        W63653  32.337  37.040  14.511
91328W        W63654  14.348   3.266   2.626
91329W        W63655   2.889  18.627   2.235
91330W        W63656  25.745  15.727  10.316
91331W        W63657  43.344  40.612   4.565
91332W        W63658  36.480  24.456  13.953
91333W        W63659  16.180  38.458  11.587
91334W        W63660  34.776   2.765   2.807
91335W        W63661  42.186  22.952  14.485
91336W        W63662   3.500  11.364  10.607
91337W        W63663  13.089   0.481  13.996
91338W        W63664  36.161  17.658  11.071
91339W        W63665  42.602  25.047  11.121
91340W        W63666  34.028  42.749  13.040
91341W        W63667  10.415  40.424  10.328
91342W        W63668  14.705  23.031  12.490
91343W        W63669  42.476  10.712   3.187
91344W        W63670  19.569  14.759  13.679
91345W        W63671  38.327  23.117   3.176
91346W        W63672  21.844  23.128  13.950
91347W        W63673  14.856  18.816  14.942
91348W        W63674  14.722  44.484   3.213
91349W        W63675  30.928   1.390   2.717
91350W        W63676  25.013  37.135  14.494
91351W        W63677   7.206  33.130  12.455
91352W        W63678  42.801  15.192   4.542
91353W        W63679  23.308  32.004   0.981
91354W        W63680   4.315   4.470  11.282
91355W        W63681  33.035  26.997  14.329
91356W        W63682  26.709  38.493  14.975
91357W        W63683  20.634  25.196   3.772
91358W        W63684   9.183  11.086  13.403
91359W        W63685  11.445  23.623   2.715
91360W        W63686  17.128  15.118   0.621
91361W        W63687  25.107   7.743   1.347
91362W        W63688  14.745   0.924  10.997
91363W        W63689  22.065   3.202   3.169
91364W        W63690   4.258  10.317  11.672
91365W        W63691  39.743  36.908   1.376
91366W        W63692  25.885  37.347  14.824
91367W        W63693  18.724  24.275  11.020
91368W        W63694  33.544  33.578   4.067
91369W        W63695  29.483  42.652   2.137
91370W        W63696  10.807  18.060   2.832
91371W        W63697  44.497  18.059  13.870
91372W        W63698  42.312  12.101  13.007
91373W        W63699   8.450  35.156  12.503
91374W        W63700  28.636   5.392  13.430
91375W        W63701  39.420  22.436  13.427
91376W        W63702  42.807   9.208  12.447
91377W        W63703  23.561  19.080   1.266
91378W        W63704  33.278   0.984   1.423
91379W        W63705   0.872  11.784  11.541
91380W        W63706  27.586  12.137  12.118
91381W        W63707   6.228  16.441  13.607
91382W        W63708   1.185  11.847   4.020
91383W        W63709   4.498  26.041   2.708
91384W        W63710  26.638   4.022   5.153
91385W        W63711  29.527  37.043   4.036
91386W        W63712   9.079  18.904  13.446
91387W        W63713  15.814   4.547   2.431
91388W        W63714  15.646  40.029   3.118
91389W        W63715  19.087  28.625  10.618
91390W        W63716  19.025   9.321  13.109
91391W        W63717  44.742  12.749   1.136
91392W        W63718  30.995  33.988  11.783
91393W        W63719  23.695   4.410   4.735
91394W        W63720  14.265  10.729  11.572
91395W        W63721   4.834  27.044  14.500
91396W        W63722   8.463  27.750   1.173
91397W        W63723  27.376  25.176  13.784
91398W        W63724   6.902  32.193   1.881
91399W        W63725  21.180  17.197   4.171
91400W        W63726   7.851  22.513   4.636
91401W        W63727  39.972  19.473   1.312
91402W        W63728  22.217   0.241   0.319
91403W        W63729  39.402  24.200   3.264
91404W        W63730  34.686   7.754  10.586
91405W        W63731  22.577  38.518  11.598
91406W        W63732   0.040  10.195  11.884
91407W        W63733  35.506   9.807   2.802
91408W        W63734  38.352  39.570  12.582
91409W        W63735  34.421   9.666   4.685
91410W        W63736  33.435  43.733   3.234
91411W        W63737   8.223  33.499   2.317
91412W        W63738  21.747  43.487   1.415
91413W        W63739  40.792   3.343   1.760
91414W        W63740  30.083  11.324  13.555
91415W        W63741   5.882   9.244  12.935
91416W        W63742  34.347   1.423  10.662
91417W        W63743  30.196  19.336  13.396
91418W        W63744  22.164  19.186  14.796
91419W        W63745   2.391  27.183   4.564
91420W        W63746   2.258  33.082  11.302
91421W        W63747  27.137  14.374   0.669
91422W        W63748  19.685  35.632  10.536
91423W        W63749   6.786  31.862   0.496
91424W        W63750  22.627  11.867   4.644
91425W        W63751  29.678  41.931   1.334
91426W        W63752   8.291  22.617   0.447
91427W        W63753  33.352   4.687   3.931
91428W        W63754  21.499  15.688   4.810
91429W        W63755  20.582  25.983   1.278
91430W        W63756   3.226  10.697   3.086
91431W        W63757   8.875   4.612  10.677
91432W        W63758   8.208  32.084   2.874
91433W        W63759  34.965  28.089  12.035
91434W        W63760  15.939  12.426   0.289
91435W        W63761   8.789  26.085  11.069
91436W        W63762  34.485  25.291   4.594
91437W        W63763   7.598  32.613  10.751
91438W        W63764  29.242   8.762   2.209
91439W        W63765  18.603   6.822  13.839
91440W        W63766  13.395  31.083  12.074
91441W        W63767  14.728   9.167   2.459
91442W        W63768  35.546  38.812  11.507
91443W        W63769  24.588  10.145   2.399
91444W        W63770  26.565  14.255  11.143
91445W        W63771  17.027  17.201  14.814
91446W        W63772  14.374  24.466   0.236
91447W        W63773   8.134  43.305  11.990
91448W        W63774  28.137  39.761  13.914
91449W        W63775   7.465  38.824   2.888
91450W        W63776  31.816  25.050  13.290
91451W        W63777  41.929  43.536   0.831
91452W        W63778  14.152  39.421   4.094
91453W        W63779  19.671   2.984   5.174
91454W        W63780   5.297  14.636  12.912
91455W        W63781  22.516  34.812   2.758
91456W        W63782  24.584   9.683   4.646
91457W        W63783  37.982  32.030   2.632
91458W        W63784  16.238  10.842  13.388
91459W        W63785  18.286  37.442   0.688
91460W        W63786  20.667  39.323   1.332
91461W        W63787  19.161  13.587   3.499
91462W        W63788  21.640  21.723   3.808
91463W        W63789   4.275  17.775   3.912
91464W        W63790  31.044   1.927   4.886
91465W        W63791  21.859  24.391  13.831
91466W        W63792  17.641  24.667  12.954
91467W        W63793  25.078  43.069  12.140
91468W        W63794   4.826   4.403   2.324
91469W        W63795  11.713  41.595  10.947
91470W        W63796  24.786  15.045   1.165
91471W        W63797  23.969  18.582   2.272
91472W        W63798  11.301  36.911   3.369
91473W        W63799  29.060  25.905   0.906
91474W        W63800   7.904   8.753  10.291
91475W        W63801  10.227   7.212   4.021
91476W        W63802  22.971  12.890  10.796
91477W        W63803  16.691  40.323   1.393
91478W        W63804  26.232  13.287  14.109
91479W        W63805  16.653  23.940  14.472
91480W        W63806  19.966   4.857  11.088
91481W        W63807   5.805  23.753  13.910
91482W        W63808  34.015   2.043   4.049
91483W        W63809  13.907  34.423   2.725
91484W        W63810  10.413   1.708  12.566
91485W        W63811  15.322  19.044  12.638
91486W        W63812   7.298  22.947  13.813
91487W        W63813  16.808  10.440   3.859
91488W        W63814  38.511   4.355  11.862
91489W        W63815  20.932  26.138  12.773
91490W        W63816  29.159   6.627   2.355
91491W        W63817   7.845  29.637  11.455
91492W        W63818  44.745   4.287   2.301
91493W        W63819  34.508   7.844  12.416
91494W        W63820   9.719  43.574  12.473
91495W        W63821  22.072   5.818  11.958
91496W        W63822   9.676  25.200   4.050
91497W        W63823   3.379  41.807   0.113
91498W        W63824  15.533  12.160   0.499
91499W        W63825   6.322  27.402   3.306
91500W        W63826  17.120  42.403   2.395
91501W        W63827  17.743  36.421  12.799
91502W        W63828  16.274   1.571   3.756
91503W        W63829  38.490  32.811   0.014
91504W        W63830  23.553  25.259   0.922
91505W        W63831  11.849  11.262  13.989
91506W        W63832  29.688  10.937  10.634
91507W        W63833  41.814   6.353   0.822
91508W        W63834  29.467  33.968   1.444
91509W        W63835  29.026   6.442   4.793
91510W        W63836   1.905  29.698  10.534
91511W        W63837  35.327  35.435  14.825
91512W        W63838  28.201  17.282   1.793
91513W        W63839  27.686  42.572  13.383
91514W        W63840  19.951   7.175   2.367
91515W        W63841  19.586  11.661   2.711
91516W        W63842  30.386  10.727   4.880
91517W        W63843   7.264  33.555   2.448
91518W        W63844  12.239   3.852   2.861
91519W        W63845  10.537  22.273  13.531
91520W        W63846  29.226   6.175  11.016
91521W        W63847  13.541  10.157   0.925
91522W        W63848  34.563  40.251   0.229
91523W        W63849  37.538  35.663  12.464
91524W        W63850  37.698  41.094   1.813
91525W        W63851  16.091  38.998   1.315
91526W        W63852  36.670  31.020  14.685
91527W        W63853  12.667   7.280   3.367
91528W        W63854  27.204  28.398   1.477
91529W        W63855  44.839  16.289   4.347
91530W        W63856   4.689  23.637  14.866
91531W        W63857   4.006  23.124   2.684
91532W        W63858  42.616  29.038  14.575
91533W        W63859  41.389  20.551   0.959
91534W        W63860  34.994  40.647   0.979
91535W        W63861  12.644  37.789   3.674
91536W        W63862  32.395  23.616  12.727
91537W        W63863  17.072   6.646   0.701
91538W        W63864  12.001   5.587   4.159
91539W        W63865  17.093  21.267  11.168
91540W        W63866  11.694   7.730   3.464
91541W        W63867  12.594  41.371   2.957
91542W        W63868   0.048  12.041   3.228
91543W        W63869  39.283  43.994  13.728
91544W        W63870  28.874   3.393   3.289
91545W        W63871  19.622  22.587  12.115
91546W        W63872  17.126  40.034  12.844
91547W        W63873   4.736  33.945   1.654
91548W        W63874  17.206  18.596  13.847
91549W        W63875  11.382   7.955   2.359
91550W        W63876   3.486   5.588  10.962
91551W        W63877  25.452  15.649   1.599
91552W        W63878  28.040  29.700  10.553
91553W        W63879  24.552   6.595   4.273
91554W        W63880  23.146  16.740   2.274
91555W        W63881   6.899  23.799   0.802
91556W        W63882  28.162  20.546   3.892
91557W        W63883   4.630  32.567  11.185
91558W        W63884  34.654  18.530  13.333
91559W        W63885   4.670  12.288   5.013
91560W        W63886  20.153  33.338   2.392
91561W        W63887   8.414  30.667   0.384
91562W        W63888  18.172  16.235   2.829
91563W        W63889  11.193  30.746  14.034
91564W        W63890  43.903   3.985   4.828
91565W        W63891  16.440  41.776   3.109
91566W        W63892  36.842  43.860  11.938
91567W        W63893   2.297  30.088  10.615
91568W        W63894  30.517   4.847  11.182
91569W        W63895   0.833  20.007   4.377
91570W        W63896  40.935  13.270  14.480
91571W        W63897  10.069  12.740   1.937
91572W        W63898  37.484  43.380  14.901
91573W        W63899  39.385   1.028   0.412
91574W        W63900  26.337  26.006   4.976
91575W        W63901  20.010  17.035   0.403
91576W        W63902   5.496  23.623   0.702
91577W        W63903  15.195  27.032   3.112
91578W        W63904  41.870  14.590   3.818
91579W        W63905  14.187  27.178  12.457
91580W        W63906  41.021  26.938   2.319
91581W        W63907   0.183  13.647   1.514
91582W        W63908   6.433  23.749   2.716
91583W        W63909  36.795  16.467  12.436
91584W        W63910  20.121   6.889   4.660
91585W        W63911  40.440  27.537  13.286
91586W        W63912  32.937  22.906  13.479
91587W        W63913   3.738   9.295   5.113
91588W        W63914  13.883  42.785   1.880
91589W        W63915  25.568  14.348  14.975
91590W        W63916   2.650  29.951   1.174
91591W        W63917  13.902  15.124  14.885
91592W        W63918   0.299  12.114  14.163
91593W        W63919  35.450  24.214  13.473
91594W        W63920  42.149  36.216  14.324
91595W        W63921  11.206  15.773  13.766
91596W        W63922   0.985  14.851  14.417
91597W        W63923   9.896  36.136  11.064
91598W        W63924  38.782   0.284   1.504
91599W        W63925  14.110  36.610  11.580
91600W        W63926  26.302  11.629   2.771
91601W        W63927  21.551  36.520  12.769
91602W        W63928  16.766  42.086  11.596
91603W        W63929  24.967  11.204  11.332
91604W        W63930  25.236  22.102  13.792
91605W        W63931  10.293  18.377   0.014
91606W        W63932   4.519  38.037   3.149
91607W        W63933  22.744   4.477   4.276
91608W        W63934  20.368  32.649  11.216
91609W        W63935  39.394  38.886  13.083
91610W        W63936   5.651   0.960   1.950
91611W        W63937  39.977  27.773   2.338
91612W        W63938  17.024  19.251   0.031
91613W        W63939  20.184  19.271  11.247
91614W        W63940  18.046  28.966  13.885
91615W        W63941  32.167  15.431   5.172
91616W        W63942  36.754  32.928   3.827
91617W        W63943   6.732  26.192  11.096
91618W        W63944  41.870   8.964  10.668
91619W        W63945   3.215   2.728  14.921
91620W        W63946  33.737  39.036  12.955
91621W        W63947  25.113  31.827   3.792
91622W        W63948   9.688  20.464   3.782
91623W        W63949  33.084  34.906  10.602
91624W        W63950   9.653   0.929  14.056
91625W        W63951  26.625  34.295  10.723
91626W        W63952   9.188  12.223  14.961
91627W        W63953  41.390  20.721  12.921
91628W        W63954  44.926   6.301  14.311
91629W        W63955  36.151  44.399  14.255
91630W        W63956  24.630  35.146   3.688
91631W        W63957  28.717  13.770  14.994
91632W        W63958  33.629  22.230  12.011
91633W        W63959  25.595   5.199  11.004
91634W        W63960  14.089  11.667   0.287
91635W        W63961  32.665  11.834   0.726
91636W        W63962  30.454  20.740  14.935
91637W        W63963  11.593  11.298   3.618
91638W        W63964  26.678  18.293  14.978
91639W        W63965  36.910  11.634  10.689
91640W        W63966  41.368   4.453   0.977
91641W        W63967  41.590   5.780   2.264
91642W        W63968  11.224  14.315  11.599
91643W        W63969  18.504   3.562   4.986
91644W        W63970  17.594  22.496  12.161
91645W        W63971  37.813  23.669  10.659
91646W        W63972   9.137  20.715   1.794
91647W        W63973  43.907  35.210   3.627
91648W        W63974  17.278  38.937  14.667
91649W        W63975  18.627  18.255   9.722
91650W        W63976  21.668  10.298   3.249
91651W        W63977  39.716  15.272   2.775
91652W        W63978  36.112  17.061  11.971
91653W        W63979  15.796  34.403   0.497
91654W        W63980   6.967  12.086   3.679
91655W        W63981   6.664  26.462   3.188
91656W        W63982   4.507   9.902   1.989
91657W        W63983  41.195  17.791   1.374
91658W        W63984  33.525  44.765  13.498
91659W        W63985  31.448   1.545  14.996
91660W        W63986  15.821  33.860   3.169
91661W        W63987  22.757  22.657  11.116
91662W        W63988   2.865  16.659   1.195
91663W        W63989  37.926  18.812   1.440
91664W        W63990  12.242  14.684  12.557
91665W        W63991  25.734   8.285  13.926
91666W        W63992  38.067  27.768  13.369
91667W        W63993  19.811  13.760   2.389
91668W        W63994  20.543  44.303  13.050
91669W        W63995  27.702  25.583  12.521
91670W        W63996  37.321  42.872   0.509
91671W        W63997  34.623  25.008  13.641
91672W        W63998  39.309   9.082  12.621
91673W        W63999   8.404   3.418  10.385
91674W        W64000   2.698  22.022  11.081
91675W        W64001  12.130  32.889   0.800
91676W        W64002  33.216  21.265   3.352
91677W        W64003   3.249  18.932   1.611
91678W        W64004  44.921  42.711  14.762
91679W        W64005   5.096  32.082  11.622
91680W        W64006  42.834  25.993   4.330
91681W        W64007   9.805  36.456   1.890
91682W        W64008  14.905  42.772   4.919
91683W        W64009  17.305  43.424  14.454
91684W        W64010  19.874  15.339  10.971
91685W        W64011  44.320  23.584  12.565
91686W        W64012  20.701  31.144  12.805
91687W        W64013  35.889  30.070  11.949
91688W        W64014  23.224   9.968   1.159
91689W        W64015  16.746  15.879  13.035
91690W        W64016  34.191  41.217  12.075
91691W        W64017  42.440  18.649   4.205
91692W        W64018  13.877  34.039   9.891
91693W        W64019  16.307  36.564  13.379
91694W        W64020  26.653  14.399  13.440
91695W        W64021  38.355  10.103  13.384
91696W        W64022  17.812   0.013  12.498
91697W        W64023  34.518  30.645   2.686
91698W        W64024  14.878  11.666  12.856
91699W        W64025   1.486  30.151   2.431
91700W        W64026  39.534  11.343   2.429
91701W        W64027  39.325  25.542   4.882
91702W        W64028  37.896   9.092   3.226
91703W        W64029  37.569  42.102  14.459
91704W        W64030  35.527  30.257  11.554
91705W        W64031  18.208  12.302   2.341
91706W        W64032  23.043  42.016  10.999
91707W        W64033  10.795   0.886   2.675
91708W        W64034  29.926  41.910   0.197
91709W        W64035  36.599  25.994   0.729
91710W        W64036   5.151  16.191   2.224
91711W        W64037  36.686  15.240   0.332
91712W        W64038  38.139  37.440  12.655
91713W        W64039  17.621  39.153   3.979
91714W        W64040  25.383  34.538   4.115
91715W        W64041  19.460  41.474  12.561
91716W        W64042  21.206   1.416  10.650
91717W        W64043   3.477  19.024   0.233
91718W        W64044  24.630  37.724   4.218
91719W        W64045  22.648  31.169  14.409
91720W        W64046  37.507  22.245   0.818
91721W        W64047   4.773  42.969  14.123
91722W        W64048  22.637  20.660   4.895
91723W        W64049  16.826  12.614   1.791
91724W        W64050   4.064  39.419  10.455
91725W        W64051   0.800  39.481   2.172
91726W        W64052  44.259  40.461  11.036
91727W        W64053  26.913  19.161  14.603
91728W        W64054   6.838  29.904  10.668
91729W        W64055  33.582  27.129   4.298
91730W        W64056   0.407  36.330   4.847
91731W        W64057  22.173   2.786  11.706
91732W        W64058  23.523  12.919  13.530
91733W        W64059  30.935   1.777  12.792
91734W        W64060  41.680  18.394  13.003
91735W        W64061  14.821  12.991   0.688
91736W        W64062   0.853  16.450   1.565
91737W        W64063  42.440  23.808  13.376
91738W        W64064  44.909  13.706  11.460
91739W        W64065  10.051   0.043   3.174
91740W        W64066  14.738  25.226   2.397
91741W        W64067  18.250  34.083  13.404
91742W        W64068  41.476  35.473   3.304
91743W        W64069  42.835   6.131   3.224
91744W        W64070  26.870  23.129   2.364
91745W        W64071   4.129  15.638  10.144
91746W        W64072  37.817   6.212   4.271
91747W        W64073  37.557  22.143   4.733
91748W        W64074  29.563  14.262   3.387
91749W        W64075  18.533  32.658  13.380
91750W        W64076  30.997   0.212   2.281
91751W        W64077  36.518  15.129   3.101
91752W        W64078   8.738  30.887   2.736
91753W        W64079   1.134  44.332  11.267
91754W        W64080  25.611  16.054   0.660
91755W        W64081  23.129  33.928   1.855
91756W        W64082   2.906  30.019  14.000
91757W        W64083  35.526  10.211   1.838
91758W        W64084  10.602  27.402  12.836
91759W        W64085  40.275  32.149   2.427
91760W        W64086  13.797  22.222   0.185
91761W        W64087   5.891   4.367  13.279
91762W        W64088  41.353  33.267   3.859
91763W        W64089  28.418  14.204  13.635
91764W        W64090  32.909  29.100   2.062
91765W        W64091  32.229  26.439   0.932
91766W        W64092  10.375   8.463  12.470
91767W        W64093  26.156  10.930  10.473
91768W        W64094  24.701  29.718  12.569
91769W        W64095  44.846   3.065   1.498
91770W        W64096  32.993  29.447   4.688
91771W        W64097  14.751  17.328  14.276
91772W        W64098  22.096  14.111  14.258
91773W        W64099  44.497  34.583   3.317
91774W        W64100  17.555  31.112  13.351
91775W        W64101  32.160  40.826   4.758
91776W        W64102   4.232  37.646   3.338
91777W        W64103  33.019  33.040   1.969
91778W        W64104  33.868  35.768   3.339
91779W        W64105  25.898  22.662  11.120
91780W        W64106  23.150  12.388  10.802
91781W        W64107   0.867   9.390  12.624
91782W        W64108  21.570  14.749   3.784
91783W        W64109  23.049  23.081   4.067
91784W        W64110  39.521  23.051   4.308
91785W        W64111  32.310   9.158   1.942
91786W        W64112   3.843  38.970   0.917
91787W        W64113  22.641   3.870   3.078
91788W        W64114  18.273  40.951  13.888
91789W        W64115   1.489  33.188  13.485
91790W        W64116  38.248  39.845   2.297
91791W        W64117  34.456  11.274  13.861
91792W        W64118  13.685  17.580   2.416
91793W        W64119   3.963  18.076  13.589
91794W        W64120  16.714  28.840  11.703
91795W        W64121  34.617  33.429  14.890
91796W        W64122   7.694  18.699   1.649
91797W        W64123  36.296  30.651   0.418
91798W        W64124   3.220  27.548   4.035
91799W        W64125   4.222  35.074  11.627
91800W        W64126  24.246  20.281  13.492
91801W        W64127  27.662  24.638   4.613
91802W        W64128   3.266  20.745  12.817
91803W        W64129   0.505  32.333  11.171
91804W        W64130   9.021  26.096  13.778
91805W        W64131   9.567   7.688   4.957
91806W        W64132  26.892   9.415  14.917
91807W        W64133  26.405  25.098   0.756
91808W        W64134  15.268  16.613   3.737
91809W        W64135   5.984   1.826  13.302
91810W        W64136  39.396  19.626   0.283
91811W        W64137  22.301   1.379  12.382
91812W        W64138  42.566  39.930   2.726
91813W        W64139  20.339  19.588  11.828
91814W        W64140  11.682  34.127   1.225
91815W        W64141  37.448  11.181   0.423
91816W        W64142  37.913  14.266  13.480
91817W        W64143  19.583  27.555   4.641
91818W        W64144  19.265  44.429  11.039
91819W        W64145   9.394   9.947  11.525
91820W        W64146   7.024  37.930  13.015
91821W        W64147  18.835  25.993   1.898
91822W        W64148  18.774   1.223  14.216
91823W        W64149  39.051  14.549  12.751
91824W        W64150   8.630  32.448   0.849
91825W        W64151   2.990   7.422   4.073
91826W        W64152  11.252  33.581   2.452
91827W        W64153  36.584  28.444   3.209
91828W        W64154  30.743  39.910  12.995
91829W        W64155  37.002  40.411  11.596
91830W        W64156   3.852  16.918  10.248
91831W        W64157  14.192   5.228  11.503
91832W        W64158  12.883  21.794   2.270
91833W        W64159   5.504  40.508  14.303
91834W        W64160  17.516  19.915  13.331
91835W        W64161  26.027  25.707   4.658
91836W        W64162  18.428  40.066   1.807
91837W        W64163  23.900   1.703  13.849
91838W        W64164  30.945  28.770  12.010
91839W        W64165  33.119   8.572   1.316
91840W        W64166   8.776  42.255   1.864
91841W        W64167  25.530  40.581  12.471
91842W        W64168   8.395   2.101   2.619
91843W        W64169  15.910  22.213   0.750
91844W        W64170  10.562   8.918  13.784
91845W        W64171  12.227  38.534   1.316
91846W        W64172  29.088  24.672  11.994
91847W        W64173  39.332  31.120  12.009
91848W        W64174  28.503  43.378  12.316
91849W        W64175  34.111  32.517   2.769
91850W        W64176  40.065  20.693  11.057
91851W        W64177   3.005  36.608  14.481
91852W        W64178  23.590  10.315   0.908
91853W        W64179  22.927   2.951  14.878
91854W        W64180  40.540  18.800   3.079
91855W        W64181  21.077  34.692  11.123
91856W        W64182  15.288  42.707  13.634
91857W        W64183  14.375  22.486  11.563
91858W        W64184   5.559  19.566   3.601
91859W        W64185  40.347  15.458   2.312
91860W        W64186  11.292  25.182  14.306
91861W        W64187  11.115  14.566   0.799
91862W        W64188  16.086  24.151   1.224
91863W        W64189  33.892   2.505   0.855
91864W        W64190  19.726  28.698  14.579
91865W        W64191  28.910  15.604   3.279
91866W        W64192  23.148  29.526  11.331
91867W        W64193  19.848  25.542   4.717
91868W        W64194  18.547  19.278   3.647
91869W        W64195  19.060  26.423  11.215
91870W        W64196  28.826  32.941  13.346
91871W        W64197  39.058   2.713   3.753
91872W        W64198  13.774  25.788  14.292
91873W        W64199  28.339  35.066  13.866
91874W        W64200   8.910  33.255  13.254
91875W        W64201  20.265   9.574   2.241
91876W        W64202  25.807   1.014   3.683
91877W        W64203  25.484   0.817   3.217
91878W        W64204   6.402  27.989  12.389
91879W        W64205  44.500  44.305   1.081
91880W        W64206  32.397  25.400   4.219
91881W        W64207  22.010  37.861   3.278
91882W        W64208  19.222  20.091  11.437
91883W        W64209  38.653  23.639  12.026
91884W        W64210   0.894  17.658   4.561
91885W        W64211  41.030   6.773  12.891
91886W        W64212  28.377   4.340  10.523
91887W        W64213  21.631  19.101   2.247
91888W        W64214  42.970   6.426  12.998
91889W        W64215  26.417  37.113  10.552
91890W        W64216  24.036   9.219  11.149
91891W        W64217  14.877  26.067   0.259
91892W        W64218  12.356   6.357   3.709
91893W        W64219  29.817  33.266   3.540
91894W        W64220  44.411  34.544  11.070
91895W        W64221  13.807  29.088   0.486
91896W        W64222  31.393   2.427  11.443
91897W        W64223  43.272  11.286  12.162
91898W        W64224  39.360  28.993  12.568
91899W        W64225  35.373  32.516   3.258
91900W        W64226  44.143  19.422  14.754
91901W        W64227  43.736  14.669  13.081
91902W        W64228  32.686   3.850   1.577
91903W        W64229  30.388  33.023   1.825
91904W        W64230  33.356  40.787   0.396
91905W        W64231  26.470  31.490  14.421
91906W        W64232  39.892  33.112   1.291
91907W        W64233  11.354   9.418   2.270
91908W        W64234  16.901  23.274  13.564
91909W        W64235   2.115  27.660  14.169
91910W        W64236  12.680  27.382   5.074
91911W        W64237  38.462  25.137   0.434
91912W        W64238   6.838  18.624  14.552
91913W        W64239   0.670  24.638  12.002
91914W        W64240   8.167   6.003   0.821
91915W        W64241   5.435  17.744  13.940
91916W        W64242   4.561  28.566   3.680
91917W        W64243  37.403  39.851   0.855
91918W        W64244  42.207  34.347  12.897
91919W        W64245  40.872  23.336   4.781
91920W        W64246  37.910  37.952   4.566
91921W        W64247  14.843  19.572   4.304
91922W        W64248  27.553  25.103  11.818
91923W        W64249  41.547   5.736   4.042
91924W        W64250  28.451  30.829  10.993
91925W        W64251  10.575  25.095   3.756
91926W        W64252  25.074  29.406  11.586
91927W        W64253   3.195  35.828  11.852
91928W        W64254   1.805  21.492   4.176
91929W        W64255  32.415  12.752   1.153
91930W        W64256  21.238  24.479  14.954
91931W        W64257  31.104   9.698  14.560
91932W        W64258  29.405  40.112  13.595
91933W        W64259  34.491   7.332   3.325
91934W        W64260  12.524  16.854   3.161
91935W        W64261  28.957  31.030  11.439
91936W        W64262  43.730   8.323   1.533
91937W        W64263  42.874  44.103   2.152
91938W        W64264   6.705   3.001   4.208
91939W        W64265   5.364  14.525  11.475
91940W        W64266  17.267  33.014   0.923
91941W        W64267  34.611  38.711  14.057
91942W        W64268  11.364  42.098   4.266
91943W        W64269  29.929  28.946   0.945
91944W        W64270   7.391  37.450  12.387
91945W        W64271   6.407  37.976   2.726
91946W        W64272  33.451  21.042  13.438
91947W        W64273  37.892  12.359  11.561
91948W        W64274  17.771  35.958  14.090
91949W        W64275  40.498  32.016   2.888
91950W        W64276  23.823  16.030  11.571
91951W        W64277   6.272  20.664   2.802
91952W        W64278  21.302   3.828   0.476
91953W        W64279  25.745   8.733   4.905
91954W        W64280   0.282  39.058  11.403
91955W        W64281  22.174   6.356   0.251
91956W        W64282  42.860  27.066  12.610
91957W        W64283   5.669   0.807  13.107
91958W        W64284  37.320  40.262  13.856
91959W        W64285  32.085  19.106  13.838
91960W        W64286  43.934  27.454   4.553
91961W        W64287  14.337  34.208   0.303
91962W        W64288  11.419  44.408  14.457
91963W        W64289  17.238   3.209  13.825
91964W        W64290  29.663   9.779   3.771
91965W        W64291  29.601   6.233   2.545
91966W        W64292  36.393  44.253   3.752
91967W        W64293   1.473   2.217  14.483
91968W        W64294  14.855  33.578  12.891
91969W        W64295  14.690  24.350   3.153
91970W        W64296  40.775  24.105  14.040
91971W        W64297   6.691  44.824   2.285
91972W        W64298   3.558  17.803   2.292
91973W        W64299  44.032   0.904   2.450
91974W        W64300  20.159  10.603  13.441
91975W        W64301  19.114   1.057   2.945
91976W        W64302   7.164  39.634  12.362
91977W        W64303  34.843  15.900   4.070
91978W        W64304  39.616  13.540  10.686
91979W        W64305  22.698  19.323   3.703
91980W        W64306  23.674  18.569  12.874
91981W        W64307  37.808   4.378   2.761
91982W        W64308   7.092  40.404   3.739
91983W        W64309  16.778  31.074   1.809
91984W        W64310  35.585  42.573   0.606
91985W        W64311  18.022   8.139   1.294
91986W        W64312  23.720  30.160  12.881
91987W        W64313  33.788   3.512   0.867
91988W        W64314  39.327  14.163  14.457
91989W        W64315   9.755  27.906   4.337
91990W        W64316  24.982  37.864  12.994
91991W        W64317  31.405  44.828  10.872
91992W        W64318  43.447  11.781  14.732
91993W        W64319   2.665   2.683   0.016
91994W        W64320   9.755  34.437  13.773
91995W        W64321  31.844  25.728  11.589
91996W        W64322  17.887  34.837  10.943
91997W        W64323  11.837  36.690  13.441
91998W        W64324  23.769   7.818   3.624
91999W        W64325  39.365  12.208   1.226
92000W        W64326  10.820  39.549  14.887
92001W        W64327  41.344  15.630  10.077
92002W        W64328  15.728  16.334  12.093
92003W        W64329  36.914  36.000  14.393
92004W        W64330   9.145  23.813  13.874
92005W        W64331   8.129  16.181  14.969
92006W        W64332  38.100  31.062   2.827
92007W        W64333   6.269  23.102   4.878
92008W        W64334  20.627  43.457  13.075
92009W        W64335  27.230   1.809  13.490
92010W        W64336  34.371  33.827  11.022
92011W        W64337  32.977  43.546   3.819
92012W        W64338  11.803  14.065  13.539
92013W        W64339  24.102  18.348  13.051
92014W        W64340  26.636  28.065  12.563
92015W        W64341   0.545  26.499   0.909
92016W        W64342  18.555  18.183  14.030
92017W        W64343  37.553   7.251  11.175
92018W        W64344  35.361   9.247   3.752
92019W        W64345  20.484  18.543   1.658
92020W        W64346  23.484  43.066  12.890
92021W        W64347  38.589  16.811   2.401
92022W        W64348   9.377  10.744   1.288
92023W        W64349   1.863   7.605   3.514
92024W        W64350  28.027  34.974  13.445
92025W        W64351   1.950  15.777   0.825
92026W        W64352  33.395   9.816  12.135
92027W        W64353  16.934  20.052   1.758
92028W        W64354   1.516  26.093   4.310
92029W        W64355  25.374  13.727  13.571
92030W        W64356  29.580  21.008  12.156
92031W        W64357  40.073  40.766   3.669
92032W        W64358  24.264   3.303   4.095
92033W        W64359   9.279  18.566   3.415
92034W        W64360  39.280  38.049   3.662
92035W        W64361  15.064  21.234  14.266
92036W        W64362  30.453  38.320  13.576
92037W        W64363  18.485   1.631  14.088
92038W        W64364  21.190  42.870   2.411
92039W        W64365  12.552  17.458  14.508
92040W        W64366   5.514   3.610  13.536
92041W        W64367  44.997  11.484   4.278
92042W        W64368   3.657  40.319  11.815
92043W        W64369   3.311   1.345   0.687
92044W        W64370  34.947  13.426  11.168
92045W        W64371  39.791   4.804  14.815
92046W        W64372   7.174  34.700   0.503
92047W        W64373  43.187  43.721   0.242
92048W        W64374  32.922   2.352  11.838
92049W        W64375  10.669   4.273  12.949
92050W        W64376  33.903  35.584   2.402
92051W        W64377  37.573  33.458   4.663
92052W        W64378  28.996   7.471   1.642
92053W        W64379  14.134   0.682  14.387
92054W        W64380  29.476  37.626  14.960
92055W        W64381  18.194  17.309   1.780
92056W        W64382  38.988  39.768  10.824
92057W        W64383  17.314  30.497   3.722
92058W        W64384  15.008  19.509  14.815
92059W        W64385  38.405  31.677   3.917
92060W        W64386   5.378   3.658   0.187
92061W        W64387  17.734  33.792   1.924
92062W        W64388   8.293  17.756  11.634
92063W        W64389   4.774  40.074  12.082
92064W        W64390  16.348   2.955  11.641
92065W        W64391  19.111  18.646   1.677
92066W        W64392  26.194  31.539   0.460
92067W        W64393  38.336  33.627  12.609
92068W        W64394   2.171  32.959  12.312
92069W        W64395  21.274  17.373  14.865
92070W        W64396  41.735  24.213   4.287
92071W        W64397   2.798  30.029  10.727
92072W        W64398  22.682  28.803   2.963
92073W        W64399  26.400  17.676  13.047
92074W        W64400  17.668   7.156   0.163
92075W        W64401  44.470  44.950   0.895
92076W        W64402  22.609  44.493   0.893
92077W        W64403   3.731  38.042  10.528
92078W        W64404  18.263  18.235   1.692
92079W        W64405  40.159  14.669  12.570
92080W        W64406   4.325  38.165   2.704
92081W        W64407  30.629  35.454   3.322
92082W        W64408   5.007   5.270   2.823
92083W        W64409  27.872  25.516   1.381
92084W        W64410  11.667  20.723  11.250
92085W        W64411   6.628  29.617  11.597
92086W        W64412  41.580  34.887   3.266
92087W        W64413  26.710  17.276  14.921
92088W        W64414  29.142  28.939   0.028
92089W        W64415  39.913  33.426   3.193
92090W        W64416  32.025  28.173   4.686
92091W        W64417  13.290   9.666  14.878
92092W        W64418  44.089  22.430  11.621
92093W        W64419  23.914   6.908   4.113
92094W        W64420  24.680   9.277   4.330
92095W        W64421   0.597  10.196   2.686
92096W        W64422   3.467  13.366   1.978
92097W        W64423  43.752   2.773  11.698
92098W        W64424  35.150   7.356  11.216
92099W        W64425   3.982  24.596  14.234
92100W        W64426   4.669  16.172   0.304
92101W        W64427  33.641  22.460   0.433
92102W        W64428   7.884  15.168  11.996
92103W        W64429  26.741  38.507   2.233
92104W        W64430  33.657  18.562  12.421
92105W        W64431  27.631  38.064   4.087
92106W        W64432  42.312  39.499   2.799
92107W        W64433  15.760  14.046  12.538
92108W        W64434   0.748  40.909  14.569
92109W        W64435  36.718   4.797   4.625
92110W        W64436  18.219  12.765   3.980
92111W        W64437  22.572  38.388  13.342
92112W        W64438  20.790  14.194   3.804
92113W        W64439  16.018   1.981  14.470
92114W        W64440  18.467   8.623  14.914
92115W        W64441   2.242  28.001   4.121
92116W        W64442  26.418  36.623   4.201
92117W        W64443  34.593  25.009  14.816
92118W        W64444   2.997  23.561   2.195
92119W        W64445  32.982   9.674   2.502
92120W        W64446  40.803  23.333  12.546
92121W        W64447   8.395   4.742  13.058
92122W        W64448  44.375  31.487  12.058
92123W        W64449   6.952  31.683  14.413
92124W        W64450  32.412   1.343  10.500
92125W        W64451   5.382  10.601  14.013
92126W        W64452  40.156  28.916  13.864
92127W        W64453   8.598  28.429   3.657
92128W        W64454   2.293   5.754  10.623
92129W        W64455  21.956  37.822   5.185
92130W        W64456  18.707  10.855  14.467
92131W        W64457  10.219  41.051  11.561
92132W        W64458  42.232  38.498   2.731
92133W        W64459  27.551  28.612   9.692
92134W        W64460  15.231  22.187  11.999
92135W        W64461  35.018  21.099   1.497
92136W        W64462  30.113  24.370  14.865
92137W        W64463  41.721  41.380  13.872
92138W        W64464   7.937   3.457   4.996
92139W        W64465  33.108  36.278   3.271
92140W        W64466  37.054  36.746  14.858
92141W        W64467   6.896  22.882   0.010
92142W        W64468  44.692  11.696  13.203
92143W        W64469  29.117  38.532  11.747
92144W        W64470  30.040   9.402  12.499
92145W        W64471  37.365  24.293   0.609
92146W        W64472  11.800  41.312   2.873
92147W        W64473  40.947  15.577  14.240
92148W        W64474  24.465  35.996   1.956
92149W        W64475  24.562  37.454   5.215
92150W        W64476   3.234   7.277   2.840
92151W        W64477   7.683  38.350  14.523
92152W        W64478   4.173  30.193  10.726
92153W        W64479  42.801  19.508  10.206
92154W        W64480  42.305   3.677  11.189
92155W        W64481  20.085  40.470   1.813
92156W        W64482  22.630  31.930  11.075
92157W        W64483   7.668  40.544   1.855
92158W        W64484  33.405  43.396  10.709
92159W        W64485  31.236  44.883  11.848
92160W        W64486  29.131  25.717   1.400
92161W        W64487  20.116   7.714  10.660
92162W        W64488  41.851   5.839   0.964
92163W        W64489   9.309  27.434   3.081
92164W        W64490  22.599   9.261  12.620
92165W        W64491  12.063  26.000   4.077
92166W        W64492  40.459  25.144   5.094
92167W        W64493  19.461  19.143  11.560
92168W        W64494  18.608  15.644   2.380
92169W        W64495  27.549  23.168   3.660
92170W        W64496  20.649  21.232  10.648
92171W        W64497  14.638   9.404   0.459
92172W        W64498   3.365  20.383  12.450
92173W        W64499   2.621  35.952   2.280
92174W        W64500  18.765  23.751  11.674
92175W        W64501  41.143  32.446  14.676
92176W        W64502   5.933  31.328  12.539
92177W        W64503  11.575  19.933  12.736
92178W        W64504   1.451   4.407  11.907
92179W        W64505   7.661  32.526  12.974
92180W        W64506  35.417  14.709  14.789
92181W        W64507   9.603  43.993  14.610
92182W        W64508   2.510  22.610  12.652
92183W        W64509  40.008  22.205  11.526
92184W        W64510  29.956  35.912   4.528
92185W        W64511  40.386   5.128   2.708
92186W        W64512  31.849  21.689  11.942
92187W        W64513  36.102  26.570   0.347
92188W        W64514  18.017   1.198   3.535
92189W        W64515  39.277   0.704  11.150
92190W        W64516   0.949  34.187   3.288
92191W        W64517  14.192  17.081  14.867
92192W        W64518  43.758  42.640   2.078
92193W        W64519  29.640  42.224  14.802
92194W        W64520  40.762  32.347  11.040
92195W        W64521  27.753  13.093   0.828
92196W        W64522  30.818  22.211  11.522
92197W        W64523  40.702  18.559  12.104
92198W        W64524   3.708  18.531   5.056
92199W        W64525   2.777  21.584  14.257
92200W        W64526  28.035  25.149   3.548
92201W        W64527  34.868  34.935   4.608
92202W        W64528  30.606  25.647  12.606
92203W        W64529  41.434  30.065   0.259
92204W        W64530   4.238  38.321  11.128
92205W        W64531  25.175  18.135   4.206
92206W        W64532  36.721  24.241   1.296
92207W        W64533   5.853   9.232  10.835
92208W        W64534  36.154  13.914  12.069
92209W        W64535  40.477   0.015  14.491
92210W        W64536   0.778  11.899   0.406
92211W        W64537  14.264  25.480  11.722
92212W        W64538   8.466  10.166   2.765
92213W        W64539  39.972  32.492   3.336
92214W        W64540  39.923  31.109   1.180
92215W        W64541   3.370  14.555   0.974
92216W        W64542   9.240   3.251  13.568
92217W        W64543  22.715  26.704   4.132
92218W        W64544   5.216  42.532  12.915
92219W        W64545  11.542  30.627   1.680
92220W        W64546  41.771   7.431   2.731
92221W        W64547  37.143  18.538  11.186
92222W        W64548   2.918  43.447   1.634
92223W        W64549  34.825   7.670  12.790
92224W        W64550  43.534  42.328  13.463
92225W        W64551  25.737   6.230   4.969
92226W        W64552   6.500   9.275   4.387
92227W        W64553  39.509  24.191   4.528
92228W        W64554  16.356   4.760  12.078
92229W        W64555   4.699  31.889   2.392
92230W        W64556   4.224  43.790  11.579
92231W        W64557  36.921  16.749  13.059
92232W        W64558  15.784  33.368  12.292
92233W        W64559  31.491  38.954   1.652
92234W        W64560  14.768  15.700   4.691
92235W        W64561  20.633   6.930   1.812
92236W        W64562  40.840  42.109  13.336
92237W        W64563  33.029  30.702  11.204
92238W        W64564  41.823   0.757  11.152
92239W        W64565   9.118  17.317   3.322
92240W        W64566  29.433   2.735  13.730
92241W        W64567  25.557   5.890  12.440
92242W        W64568  17.702   2.989  13.913
92243W        W64569  32.579  13.717  10.702
92244W        W64570  43.580  16.752   3.793
92245W        W64571   4.301  39.271   0.914
92246W        W64572  38.462   8.632  12.494
92247W        W64573  22.375   2.160   0.343
92248W        W64574  30.654   1.089  12.784
92249W        W64575  39.633  25.230   4.480
92250W        W64576  33.182  29.635   1.890
92251W        W64577   8.721  34.120  10.424
92252W        W64578  27.522  12.307  11.574
92253W        W64579  42.507  11.605   0.479
92254W        W64580  18.311  36.701  12.184
92255W        W64581  44.643   8.293   1.052
92256W        W64582  15.699   6.292  12.390
92257W        W64583  12.132   3.432  10.350
92258W        W64584  25.575  15.956   5.069
92259W        W64585  12.043   4.335   2.441
92260W        W64586  30.435  18.676   0.002
92261W        W64587  27.085  27.458  14.941
92262W        W64588  42.531   4.513  14.533
92263W        W64589  24.699   4.743  11.856
92264W        W64590  26.774   6.776   1.975
92265W        W64591   9.194  10.234  13.476
92266W        W64592  19.062   7.722  14.779
92267W        W64593   7.447  33.495  14.778
92268W        W64594   1.902  26.911   2.131
92269W        W64595  23.528   4.849   2.922
92270W        W64596  20.672  28.548   3.243
92271W        W64597   0.837  28.639   4.104
92272W        W64598  21.264  18.767  12.568
92273W        W64599   5.943  25.258   0.289
92274W        W64600  15.040  29.426  12.877
92275W        W64601  15.791  18.752  11.139
92276W        W64602  26.439  12.942   0.314
92277W        W64603  31.438   8.770  12.571
92278W        W64604  10.827  37.767  14.932
92279W        W64605  19.903  30.817  10.792
92280W        W64606   2.916  31.490   3.617
92281W        W64607  10.134  12.507  14.859
92282W        W64608   7.234  14.826  14.034
92283W        W64609  43.732  22.631  14.463
92284W        W64610  21.761  27.105   4.250
92285W        W64611  24.449  29.507   0.196
92286W        W64612  23.708  38.417   1.990
92287W        W64613   5.841  21.078   2.700
92288W        W64614  33.100  34.289   9.780
92289W        W64615  11.838   3.816  10.053
92290W        W64616   8.178  20.540   0.318
92291W        W64617  20.034  42.898   2.854
92292W        W64618  34.952   2.929   2.314
92293W        W64619   6.634  13.564   2.307
92294W        W64620  43.543  26.567  10.599
92295W        W64621   8.191   8.615   1.853
92296W        W64622  13.783  42.010   4.402
92297W        W64623  30.016  20.110   3.042
92298W        W64624  38.573  33.593   1.317
92299W        W64625  10.224  40.956  11.049
92300W        W64626  25.360   7.594  12.788
92301W        W64627  15.648  43.457  11.009
92302W        W64628  30.676  14.206   4.610
92303W        W64629  16.288   5.951  13.778
92304W        W64630  33.608  34.689  10.155
92305W        W64631  34.878  20.288  11.564
92306W        W64632  41.307  10.522   0.412
92307W        W64633  33.800   7.678   4.475
92308W        W64634  27.475  28.900   1.731
92309W        W64635  43.872   9.851   3.064
92310W        W64636  44.900   6.903   1.757
92311W        W64637  11.220   9.907  11.938
92312W        W64638  14.140   9.257  10.622
92313W        W64639  12.204  35.049  12.091
92314W        W64640  29.586  26.941   4.247
92315W        W64641  27.101   8.405   4.605
92316W        W64642  12.629  12.594  12.927
92317W        W64643  18.617  19.703   0.283
92318W        W64644  20.961  11.768   0.547
92319W        W64645  20.985  10.878   0.462
92320W        W64646  38.635  20.168   1.162
92321W        W64647  13.298  10.652   0.885
92322W        W64648  31.876   8.807  11.714
92323W        W64649   6.131  16.082  11.746
92324W        W64650  40.852   4.910   2.512
92325W        W64651  39.820  29.402   0.879
92326W        W64652  34.509  21.634   3.534
92327W        W64653   9.300   6.340  11.663
92328W        W64654  40.431  44.249   4.225
92329W        W64655  25.725  37.080   4.548
92330W        W64656   3.401  10.875   1.289
92331W        W64657  40.982  17.727   1.876
92332W        W64658   2.769  35.533  11.964
92333W        W64659   1.988  20.551  11.042
92334W        W64660  32.583  36.629  13.796
92335W        W64661   4.802  18.553   3.639
92336W        W64662  34.531  39.356  12.865
92337W        W64663  19.793  12.103   4.734
92338W        W64664   8.194  18.778  13.986
92339W        W64665  22.555  27.014   3.199
92340W        W64666   2.268   6.678   1.187
92341W        W64667  33.472  44.054  13.821
92342W        W64668  31.178   0.811   4.446
92343W        W64669  25.064   5.891   3.933
92344W        W64670  39.086  24.065  10.756
92345W        W64671  38.952  32.954   4.445
92346W        W64672  24.993  15.111   2.155
92347W        W64673  38.488  29.587   4.592
92348W        W64674   1.283  23.547  11.558
92349W        W64675   6.958  15.139  12.485
92350W        W64676  38.947  24.977  13.038
92351W        W64677  27.149  24.471  10.670
92352W        W64678  21.350  36.065  13.512
92353W        W64679  24.762  27.108   3.225
92354W        W64680  35.322  12.119   2.547
92355W        W64681  19.023  31.025  12.897
92356W        W64682  39.379  19.190  12.341
92357W        W64683   5.833   7.169   4.696
92358W        W64684  36.839   7.096   2.229
92359W        W64685  22.694  16.820   0.279
92360W        W64686  28.871  12.857  12.925
92361W        W64687   5.623  15.368  11.431
92362W        W64688  16.316  10.161  13.020
92363W        W64689  19.597   1.449   4.955
92364W        W64690  44.548  18.238  14.354
92365W        W64691   0.356  35.585   2.356
92366W        W64692   5.888  37.244  13.168
92367W        W64693  21.703  33.682  14.048
92368W        W64694  31.929  26.986  12.902
92369W        W64695  40.839  10.294   0.477
92370W        W64696  24.811  16.648  14.778
92371W        W64697  21.804  15.247   0.927
92372W        W64698  33.842  40.427  12.991
92373W        W64699  27.672  40.687   4.072
92374W        W64700  28.413  25.128  12.353
92375W        W64701  12.337  33.444  13.358
92376W        W64702   3.115  22.033  11.890
92377W        W64703  39.503  39.957  12.009
92378W        W64704  29.372  23.732  10.867
92379W        W64705  42.452  17.210   1.630
92380W        W64706  29.157  26.474  11.801
92381W        W64707  17.872   0.843   2.667
92382W        W64708  29.356  13.245  14.854
92383W        W64709   3.990   0.013  11.146
92384W        W64710  34.185  24.980  12.827
92385W        W64711  18.223  42.524   1.722
92386W        W64712  41.945  32.019   2.122
92387W        W64713  11.871  23.204  10.244
92388W        W64714  41.120  42.852  13.841
92389W        W64715  24.408   5.538   1.756
92390W        W64716  23.660   4.935  13.262
92391W        W64717  35.746  31.515  11.573
92392W        W64718  43.288  26.935  12.903
92393W        W64719  44.998  26.264  13.333
92394W        W64720  24.730  25.159   3.376
92395W        W64721  13.348   6.664  13.383
92396W        W64722   0.263  27.655   3.329
92397W        W64723  12.891  16.189  14.446
92398W        W64724  19.765  35.625   4.669
92399W        W64725  16.331  24.581   2.852
92400W        W64726  18.328  36.872  11.721
92401W        W64727   6.271  10.100   3.192
92402W        W64728  38.394  12.627  10.333
92403W        W64729  23.634  26.732  13.384
92404W        W64730  11.326   1.892   3.311
92405W        W64731   6.641  43.989  11.189
92406W        W64732   5.642   7.804  11.106
92407W        W64733  36.649   6.250   0.714
92408W        W64734  34.241  38.997   4.156
92409W        W64735  17.663  42.530  10.478
92410W        W64736  17.670  34.882  11.750
92411W        W64737  30.839  27.921   2.901
92412W        W64738  23.688   1.301   1.325
92413W        W64739  34.380  35.623   0.790
92414W        W64740   6.743  44.296  11.987
92415W        W64741  43.854  12.140   3.538
92416W        W64742  42.701   1.963  14.417
92417W        W64743  22.801  16.270  10.653
92418W        W64744  31.600  32.900   3.317
92419W        W64745   3.380  16.311   4.742
92420W        W64746  37.465   5.866  12.476
92421W        W64747  20.574  20.117  11.410
92422W        W64748  31.463  35.841  10.934
92423W        W64749  29.410  37.242   0.324
92424W        W64750  39.835   0.230  12.331
92425W        W64751  41.509   6.436   4.547
92426W        W64752  20.144  20.070   0.548
92427W        W64753  17.677  24.571  14.494
92428W        W64754  32.754  22.063   4.975
92429W        W64755   8.664  42.942  13.064
92430W        W64756  25.686  36.380  13.466
92431W        W64757   7.467  25.462  11.147
92432W        W64758   9.785  16.775   3.580
92433W        W64759  10.679  33.102  11.137
92434W        W64760  14.771   0.051  11.524
92435W        W64761   7.312   5.393  14.705
92436W        W64762  22.885  24.714  11.638
92437W        W64763   5.319  10.855   1.455
92438W        W64764  15.197  28.785   4.052
92439W        W64765   0.252  30.317   4.572
92440W        W64766  14.387   3.858   1.426
92441W        W64767   4.496   8.424  11.120
92442W        W64768  21.510  30.610  12.100
92443W        W64769  27.698  16.652  10.915
92444W        W64770   7.881  27.586   4.572
92445W        W64771  44.993  13.125  12.440
92446W        W64772  13.252  30.852   2.795
92447W        W64773  17.630  15.983  12.045
92448W        W64774   3.207  36.721   0.274
92449W        W64775  44.997  31.456   3.890
92450W        W64776   7.443   2.833   0.274
92451W        W64777  43.946  39.981  11.616
92452W        W64778  38.352  41.358   0.248
92453W        W64779  41.819  38.948   2.783
92454W        W64780   2.461   1.771   1.670
92455W        W64781  33.723   8.758   4.141
92456W        W64782  26.395  11.337  14.868
92457W        W64783  18.550  17.378   2.154
92458W        W64784  30.275  17.787   0.834
92459W        W64785  22.256  16.915   4.674
92460W        W64786   4.934  10.288   2.035
92461W        W64787  20.756  35.982  10.970
92462W        W64788  24.198  26.879  14.731
92463W        W64789  23.426  34.633  14.339
92464W        W64790  12.791  39.443  11.904
92465W        W64791  13.694  33.578  14.246
92466W        W64792   4.822  39.456   1.761
92467W        W64793  40.858  29.615  10.754
92468W        W64794  34.861  10.724  11.050
92469W        W64795  28.970  28.122   4.530
92470W        W64796   7.467  10.193  12.876
92471W        W64797  29.711  38.004   2.678
92472W        W64798  16.105  42.690  13.209
92473W        W64799  40.403  12.325   5.006
92474W        W64800  42.923  16.028  10.954
92475W        W64801  34.151  22.968   3.103
92476W        W64802  39.611  35.721   3.401
92477W        W64803  24.822   0.991  14.250
92478W        W64804  20.894  29.141   1.118
92479W        W64805  22.114  39.195   3.719
92480W        W64806   9.171   0.829  10.463
92481W        W64807   0.727  18.714   4.926
92482W        W64808  13.889   7.740  11.016
92483W        W64809  16.521  26.377   1.345
92484W        W64810  40.127  24.652  14.831
92485W        W64811   4.318  15.079  11.477
92486W        W64812  35.008  16.442   4.089
92487W        W64813   6.361  24.624   1.747
92488W        W64814  23.012  21.367   1.381
92489W        W64815  10.707   4.367   0.202
92490W        W64816  17.753  25.329   1.718
92491W        W64817  13.786  42.343   1.636
92492W        W64818  13.147  29.559   1.383
92493W        W64819   6.329  13.364  10.853
92494W        W64820  43.826  40.853  14.035
92495W        W64821   3.981  30.671  10.632
92496W        W64822  40.109  44.972   0.657
92497W        W64823  17.621  39.892  14.776
92498W        W64824   6.847  41.843   0.832
92499W        W64825  11.835  14.669  14.266
92500W        W64826  44.393   3.946  11.344
92501W        W64827  34.362  23.444   3.094
92502W        W64828  29.523  12.461  14.808
92503W        W64829  38.278  26.944  13.818
92504W        W64830  34.780   5.396   3.781
92505W        W64831  41.392  39.494   3.829
92506W        W64832  23.991   5.300  11.736
92507W        W64833  21.691  43.824   4.190
92508W        W64834  38.012  34.160   2.702
92509W        W64835   4.216  27.552  13.544
92510W        W64836  27.061  16.975  13.045
92511W        W64837  24.685  14.262   4.485
92512W        W64838   7.205  10.747   1.678
92513W        W64839  27.027   2.979   1.562
92514W        W64840  22.540   5.472   1.744
92515W        W64841  32.635  33.572  10.936
92516W        W64842  26.323  43.276   1.924
92517W        W64843  37.544  36.347  10.779
92518W        W64844  28.084   1.849   3.739
92519W        W64845  21.540  25.401  14.848
92520W        W64846  38.022   0.502   2.188
92521W        W64847  35.598  15.830  13.257
92522W        W64848   1.870  10.076   4.699
92523W        W64849  17.949   1.826   3.206
92524W        W64850  33.147  28.825  11.443
92525W        W64851  39.397  10.775   4.577
92526W        W64852   2.414  43.151  12.942
92527W        W64853   2.816   2.003   3.279
92528W        W64854   4.797   8.554   0.238
92529W        W64855  19.017   2.028   3.316
92530W        W64856  41.456  10.317   4.570
92531W        W64857  15.561  30.125  10.322
92532W        W64858   0.969  31.164   2.241
92533W        W64859  33.963  17.621   1.347
92534W        W64860  31.492  24.484   4.547
92535W        W64861  15.035   2.044   1.293
92536W        W64862  21.072  32.985   4.311
92537W        W64863  38.043   2.651  14.671
92538W        W64864   8.774   8.600  11.683
92539W        W64865  16.009  40.971   4.163
92540W        W64866   9.946  34.608   0.002
92541W        W64867   2.731  43.506  12.344
92542W        W64868  40.327   4.578  13.841
92543W        W64869   6.512   0.686   0.762
92544W        W64870  12.052   3.490   4.147
92545W        W64871  41.948   9.355  14.738
92546W        W64872  25.511  15.060   9.912
92547W        W64873   7.417  42.572  13.867
92548W        W64874  31.906  18.597  13.830
92549W        W64875  37.428   8.158   1.225
92550W        W64876  39.669  22.175  12.954
92551W        W64877  20.488  39.256  11.104
92552W        W64878   2.447   2.956  11.871
92553W        W64879  34.301  17.824   2.318
92554W        W64880  41.547  30.149  11.205
92555W        W64881   9.833  41.368   0.046
92556W        W64882  36.086  26.562  11.065
92557W        W64883  28.800  41.558   0.369
92558W        W64884   7.670   6.200  14.536
92559W        W64885  10.206  13.037  14.873
92560W        W64886  23.118  32.527   1.031
92561W        W64887   7.073  35.068  13.576
92562W        W64888  12.548  17.278   3.803
92563W        W64889   4.444   3.216   5.021
92564W        W64890  39.271   7.726  10.885
92565W        W64891  26.305  13.148  14.819
92566W        W64892   6.654  32.024   2.390
92567W        W64893  10.876  20.281  11.154
92568W        W64894  22.671  41.338  12.502
92569W        W64895  11.601  22.738  14.510
92570W        W64896   0.180  34.415   3.727
92571W        W64897  28.964   1.231   4.708
92572W        W64898  16.779  24.058  13.145
92573W        W64899  18.744  38.496  14.760
92574W        W64900  41.518  32.058  11.847
92575W        W64901   1.740  25.202  10.484
92576W        W64902  33.013  24.126  10.667
92577W        W64903  15.947  34.902  12.458
92578W        W64904  38.335  18.260   0.342
92579W        W64905  17.739  42.315  13.953
92580W        W64906  10.936  21.035  12.160
92581W        W64907  28.500  36.830  12.363
92582W        W64908  42.007  29.935  12.094
92583W        W64909  40.097  40.802   0.969
92584W        W64910   4.655  16.936   4.109
92585W        W64911  31.952   4.450  11.687
92586W        W64912  43.304  19.716   0.931
92587W        W64913  31.576  10.196  13.803
92588W        W64914  36.526   7.342  13.723
92589W        W64915  39.503  11.719   1.398
92590W        W64916   9.667  14.573   5.000
92591W        W64917  31.812  37.054   0.431
92592W        W64918  17.888  17.281  12.672
92593W        W64919  13.260  35.846  11.706
92594W        W64920  25.571  33.151   0.954
92595W        W64921  23.276  33.328  14.500
92596W        W64922  12.838  41.322  13.406
92597W        W64923  33.675  20.745  13.065
92598W        W64924   6.818  27.159  11.410
92599W        W64925   4.976  27.152   4.550
92600W        W64926  31.994   9.898  13.997
92601W        W64927  13.834  17.384   1.188
92602W        W64928  21.004  41.015   4.738
92603W        W64929  31.458  10.366   0.743
92604W        W64930  44.784  21.947   1.028
92605W        W64931  18.072  40.108  10.652
92606W        W64932  29.617   9.716   1.347
92607W        W64933  13.411  35.472  11.365
92608W        W64934  19.104  25.447  12.541
92609W        W64935  22.236  29.366   3.794
92610W        W64936  40.454  11.286   2.921
92611W        W64937  39.511  26.189   0.327
92612W        W64938  34.788  12.285   4.123
92613W        W64939  35.957  36.728  12.063
92614W        W64940  38.551  39.576  14.359
92615W        W64941  38.352  14.626   3.856
92616W        W64942   6.258  13.132   0.791
92617W        W64943  28.384  33.007   3.266
92618W        W64944  19.782  40.130   1.406
92619W        W64945  40.315  14.337  13.878
92620W        W64946  27.112  41.521  11.624
92621W        W64947  39.391  29.370   4.177
92622W        W64948  15.640   4.893   2.767
92623W        W64949  29.942  19.566   2.250
92624W        W64950  28.975  12.741  10.438
92625W        W64951  22.304  16.282   5.491
92626W        W64952  34.859  43.527  14.872
92627W        W64953   5.715   0.101   3.255
92628W        W64954  44.853  22.724  12.590
92629W        W64955  37.512  14.847  14.583
92630W        W64956  39.933  18.404  14.006
92631W        W64957  14.679   6.365  13.526
92632W        W64958   4.727   5.240   2.226
92633W        W64959  13.706  28.229   2.755
92634W        W64960   1.448  27.004   3.837
92635W        W64961  15.104  37.990  12.116
92636W        W64962  30.553  28.699   0.942
92637W        W64963  15.196  39.805   3.183
92638W        W64964  41.778   5.297  10.984
92639W        W64965   5.681  22.245   2.917
92640W        W64966  32.573  21.255  12.489
92641W        W64967  17.770  14.673   2.032
92642W        W64968  42.359  34.558   2.902
92643W        W64969   3.662  23.046  13.988
92644W        W64970   4.415  31.154  13.949
92645W        W64971  29.164   9.842  12.171
92646W        W64972   2.251   2.880  10.920
92647W        W64973  16.656  20.711   1.864
92648W        W64974  33.401   8.189  13.557
92649W        W64975   9.875  22.087   4.313
92650W        W64976  42.575  13.046   0.328
92651W        W64977  39.829  32.132  10.870
92652W        W64978   9.230   4.249   2.857
92653W        W64979  12.758  20.041   3.749
92654W        W64980   4.354   0.354   3.152
92655W        W64981  29.506  10.191   1.227
92656W        W64982  11.728  11.720   2.210
92657W        W64983   8.761  30.372   2.746
92658W        W64984   7.263  22.860  12.920
92659W        W64985   9.185  42.317  10.876
92660W        W64986  17.588  36.888   3.689
92661W        W64987  11.540  27.553   1.928
92662W        W64988  30.723  31.419   3.399
92663W        W64989  31.971  39.065   1.420
92664W        W64990  37.117  34.534   0.253
92665W        W64991   4.513  22.780  10.591
92666W        W64992  34.532  27.346  11.202
92667W        W64993  33.123  27.538   1.918
92668W        W64994  34.520  42.478   4.121
92669W        W64995  38.037   3.440  10.713
92670W        W64996  37.391  17.753   3.177
92671W        W64997  14.380  26.791  11.642
92672W        W64998  29.560  30.783   3.263
92673W        W64999  20.672  22.280  12.948
92674W        W65000  40.007  10.336  12.044
92675W        W65001  30.859  16.492  13.491
92676W        W65002   6.093  33.532   4.666
92677W        W65003  41.540  14.671  14.472
92678W        W65004  41.734  39.401  14.388
92679W        W65005   1.464  39.727   4.234
92680W        W65006   7.331  39.276   2.078
92681W        W65007  35.879  17.331  12.431
92682W        W65008  30.675  20.262  13.965
92683W        W65009  16.302  43.912  12.865
92684W        W65010  28.309  19.815   2.847
92685W        W65011  17.691  17.260  14.246
92686W        W65012   9.461   3.175   3.598
92687W        W65013  36.938   7.997  10.571
92688W        W65014  33.155  43.975  11.544
92689W        W65015   0.284   5.630  12.814
92690W        W65016  12.756  34.054  13.914
92691W        W65017  36.383  25.203  13.300
92692W        W65018  22.693  17.603  12.566
92693W        W65019   1.957  12.165  11.075
92694W        W65020  19.652  19.087  13.853
92695W        W65021  24.235  19.768  11.495
92696W        W65022  38.552  39.033   1.014
92697W        W65023  18.532   0.230   4.777
92698W        W65024  26.044   7.821   1.748
92699W        W65025   3.772  14.571   3.786
92700W        W65026  24.033  10.651   4.098
92701W        W65027   1.757   8.212   1.231
92702W        W65028  22.743  43.312  11.879
92703W        W65029  44.507  21.675   3.220
92704W        W65030  20.129   6.381   4.856
92705W        W65031  29.052  10.823  11.160
92706W        W65032  14.813  28.396  12.027
92707W        W65033  42.827  23.050  11.725
92708W        W65034  33.962  16.793   3.644
92709W        W65035  27.805  38.853  10.254
92710W        W65036  30.948  41.924  10.857
92711W        W65037  34.079  26.142   1.403
92712W        W65038  37.793   8.664   1.925
92713W        W65039  40.171  19.650   5.029
92714W        W65040  38.902  28.833   4.510
92715W        W65041  13.949  18.480  10.141
92716W        W65042   9.483   5.525   0.298
92717W        W65043  13.697   3.308   3.593
92718W        W65044  30.976  43.038   2.257
92719W        W65045   6.920  11.139   1.846
92720W        W65046  24.174  29.285   3.636
92721W        W65047   6.589  21.517   2.119
92722W        W65048   2.877  34.119   2.410
92723W        W65049  12.591  20.890  11.096
92724W        W65050  10.024  39.025  10.829
92725W        W65051   3.553   1.063  14.335
92726W        W65052   4.809  32.126  10.995
92727W        W65053  43.331  16.514   2.874
92728W        W65054  20.674  30.907   3.197
92729W        W65055   7.166  40.745   1.181
92730W        W65056  42.772  27.500  11.225
92731W        W65057  14.391  38.048  14.003
92732W        W65058  38.565  14.803   0.412
92733W        W65059  41.586  27.796  14.160
92734W        W65060  22.507   6.361  14.067
92735W        W65061  28.685  39.996   0.200
92736W        W65062  14.481  17.850   3.759
92737W        W65063  19.825  14.653  10.439
92738W        W65064  36.479  25.230   1.448
92739W        W65065  44.914  29.036  12.573
92740W        W65066  18.677  35.177   3.847
92741W        W65067   8.154   0.104   4.763
92742W        W65068  16.047   9.595   3.147
92743W        W65069  34.104  22.481   1.332
92744W        W65070  44.551   9.247   1.967
92745W        W65071  17.158  14.261  14.301
92746W        W65072  36.799  15.163  12.177
92747W        W65073  18.996   2.437  11.565
92748W        W65074  29.033  18.010  11.038
92749W        W65075   5.228  20.672  12.539
92750W        W65076  33.541  24.988  10.580
92751W        W65077  34.343  23.121   1.782
92752W        W65078   3.364   1.294  12.838
92753W        W65079  12.053  31.201  11.636
92754W        W65080  31.511  11.370   3.700
92755W        W65081  10.853   0.351  14.850
92756W        W65082  34.823   1.464  14.865
92757W        W65083  38.159   5.533   2.329
92758W        W65084  16.242  21.611   2.285
92759W        W65085  25.020  17.830  10.720
92760W        W65086  39.797  40.560   1.679
92761W        W65087  41.868  25.963  14.454
92762W        W65088  28.026  35.963  12.774
92763W        W65089  19.666  34.863   0.905
92764W        W65090  14.777  23.650   0.211
92765W        W65091   6.746   5.715   4.556
92766W        W65092  28.269  34.560  14.822
92767W        W65093  42.330  19.715   4.388
92768W        W65094   7.636  23.216   2.308
92769W        W65095  27.140  30.434  14.287
92770W        W65096  20.396  36.419  13.384
92771W        W65097  21.319  39.519  12.709
92772W        W65098  42.401  12.329   4.661
92773W        W65099  16.418  43.327  11.563
92774W        W65100  14.033  30.113   0.302
92775W        W65101  20.718   1.100   3.776
92776W        W65102  11.606  20.655  11.740
92777W        W65103  19.757  17.133  14.051
92778W        W65104  32.328  25.113   4.666
92779W        W65105  20.719  28.954  11.649
92780W        W65106  36.021  18.524   4.111
92781W        W65107  10.082  22.647   2.328
92782W        W65108  29.151  22.599   3.296
92783W        W65109   9.400  31.618  10.605
92784W        W65110  10.087  28.921  11.579
92785W        W65111  30.501   4.905   4.152
92786W        W65112   0.639   2.800  14.940
92787W        W65113  12.388  36.079   5.475
92788W        W65114  25.609  16.205  14.783
92789W        W65115  34.986  10.862   4.102
92790W        W65116  38.790  12.240  11.741
92791W        W65117  44.693  31.182   2.126
92792W        W65118  40.609  25.410   1.268
92793W        W65119   0.513  24.706   1.935
92794W        W65120  13.603  26.926   0.927
92795W        W65121  37.003  30.038   4.196
92796W        W65122  33.087  12.797  14.865
92797W        W65123  28.081  14.520  14.913
92798W        W65124  17.867  26.150  14.884
92799W        W65125  14.856  41.477  12.441
92800W        W65126  42.896  31.830   1.582
92801W        W65127   6.830  25.982  14.033
92802W        W65128  28.898  38.144   0.271
92803W        W65129  43.301  41.266  14.351
92804W        W65130  29.552  37.877  12.830
92805W        W65131   1.324  29.680   1.365
92806W        W65132  10.285   1.346   2.666
92807W        W65133  26.198  30.094   3.671
92808W        W65134  11.851  16.192   1.703
92809W        W65135  15.491  17.660  10.495
92810W        W65136  12.285   4.199  11.557
92811W        W65137  12.805   1.309  11.520
92812W        W65138  35.622   1.368  14.532
92813W        W65139  24.968  43.518   0.806
92814W        W65140  16.756   0.754  11.024
92815W        W65141  40.767  17.387  11.242
92816W        W65142  44.141  16.656   2.199
92817W        W65143   7.417   4.303   0.683
92818W        W65144   5.363  39.907   4.734
92819W        W65145  27.079  37.687  11.526
92820W        W65146  23.094  30.478   4.423
92821W        W65147  32.095  13.410   1.677
92822W        W65148  27.467  11.633  11.960
92823W        W65149  19.056  12.224   3.378
92824W        W65150  26.824  26.037  14.924
92825W        W65151  15.561  10.110  13.516
92826W        W65152  30.602  14.316  10.943
92827W        W65153  41.748   8.413  14.990
92828W        W65154  16.575  38.527  12.995
92829W        W65155  14.591   8.447  12.995
92830W        W65156   2.091  22.721   0.444
92831W        W65157  18.259   0.058   4.343
92832W        W65158   6.486  20.699  13.928
92833W        W65159  34.636  24.587  12.276
92834W        W65160  14.376   4.714   3.551
92835W        W65161  26.671   6.187   4.650
92836W        W65162   1.869  40.425  14.103
92837W        W65163   3.244  29.537   4.552
92838W        W65164  15.065  20.543  13.458
92839W        W65165  12.777   7.525   2.925
92840W        W65166  29.474  10.057  12.641
92841W        W65167  34.861  39.546   2.415
92842W        W65168  32.971  16.354   1.478
92843W        W65169   0.822   5.881  10.793
92844W        W65170  14.924  19.091  14.513
92845W        W65171  28.605  39.413  14.415
92846W        W65172  23.694   7.685  12.027
92847W        W65173  42.004   4.424  10.391
92848W        W65174  36.808  34.974   1.898
92849W        W65175  17.058  28.942   4.461
92850W        W65176  31.455  41.406   3.730
92851W        W65177  28.493  36.979  10.294
92852W        W65178  16.783  38.676   4.206
92853W        W65179  43.840   2.224  13.133
92854W        W65180  34.953  29.115  11.193
92855W        W65181  43.331   8.089   1.267
92856W        W65182  29.827  26.485   4.152
92857W        W65183  21.077   9.138   0.942
92858W        W65184  41.589  34.578  14.223
92859W        W65185   6.706  16.577   1.345
92860W        W65186  27.589   1.463  11.293
92861W        W65187  30.610  44.993   2.919
92862W        W65188  26.446   2.010   3.930
92863W        W65189  34.480  35.710   1.740
92864W        W65190  21.173   6.896  11.198
92865W        W65191  11.326  32.481  12.196
92866W        W65192  40.627  33.295   0.292
92867W        W65193  13.124   4.058  12.180
92868W        W65194  44.534  10.403   4.982
92869W        W65195  22.468  12.678  12.114
92870W        W65196  32.307  30.522  11.482
92871W        W65197  30.535  35.780   1.671
92872W        W65198   2.838  29.352   2.259
92873W        W65199  32.796  18.487  10.613
92874W        W65200   3.880  25.507   3.758
92875W        W65201  32.388   6.691  13.043
92876W        W65202  19.986  16.391  12.940
92877W        W65203  19.782   1.713  11.774
92878W        W65204  25.250  38.525  13.873
92879W        W65205   4.711  10.416   4.552
92880W        W65206  37.282  20.292  12.890
92881W        W65207   7.188  10.610   2.175
92882W        W65208   2.909  21.742  12.506
92883W        W65209  13.732  28.208   4.791
92884W        W65210  24.161  40.718   3.425
92885W        W65211   6.094  37.270   5.127
92886W        W65212  41.469  34.941  12.078
92887W        W65213   8.134   9.434  10.718
92888W        W65214  34.275  18.366  14.165
92889W        W65215  29.208  18.647   3.183
92890W        W65216  14.289   9.410  11.093
92891W        W65217  10.040   0.574  11.619
92892W        W65218  17.531  25.645  12.914
92893W        W65219   4.687   5.396  11.782
92894W        W65220  44.298  30.698   0.886
92895W        W65221  24.587  31.186  12.412
92896W        W65222  37.006  28.032  12.759
92897W        W65223  21.446  27.635   3.579
92898W        W65224   1.391  23.578   4.431
92899W        W65225   9.784  14.218  12.644
92900W        W65226  38.646  13.277   9.892
92901W        W65227  32.032   5.743   2.696
92902W        W65228  43.428  25.705  11.516
92903W        W65229  42.851  11.619  10.687
92904W        W65230  14.404  38.010   0.741
92905W        W65231  14.314   7.806   4.353
92906W        W65232  22.004  39.033  11.587
92907W        W65233   2.001  35.491   2.839
92908W        W65234  17.032  21.250   3.801
92909W        W65235  40.847   9.807  14.763
92910W        W65236  36.797  38.439  12.381
92911W        W65237  33.154  43.814  10.515
92912W        W65238  28.979  30.378  14.568
92913W        W65239  30.654   2.543   0.790
92914W        W65240   4.195   3.338  11.454
92915W        W65241   1.502  17.715   1.192
92916W        W65242  33.975  17.071   4.979
92917W        W65243  38.879  26.663   2.809
92918W        W65244  24.715  38.431  10.934
92919W        W65245  41.290  35.102   0.952
92920W        W65246  22.386  35.468  14.926
92921W        W65247  21.359  21.497   1.355
92922W        W65248  29.457  17.732  14.628
92923W        W65249  27.978  18.508   4.604
92924W        W65250  10.629  14.257   0.553
92925W        W65251  12.717  43.793   1.449
92926W        W65252  34.355  19.368  11.102
92927W        W65253  13.787  10.611   1.051
92928W        W65254  14.827  17.614  14.730
92929W        W65255  36.206   8.665   2.121
92930W        W65256  39.558  12.808  14.048
92931W        W65257  15.073   1.238  14.546
92932W        W65258   3.983  25.684   2.192
92933W        W65259  39.729  43.896  13.397
92934W        W65260  17.314   3.212   2.378
92935W        W65261   3.983  19.788  14.426
92936W        W65262  17.304  34.992  12.112
92937W        W65263  32.575  33.995  11.212
92938W        W65264   7.356  17.624   3.310
92939W        W65265   5.360  18.651   4.596
92940W        W65266  31.569   2.466  14.215
92941W        W65267  14.512   7.414   3.662
92942W        W65268  11.700   7.234  10.573
92943W        W65269  17.573  40.055   4.185
92944W        W65270  34.128  15.435  13.271
92945W        W65271   2.271  41.071  13.056
92946W        W65272  23.079  20.533  11.154
92947W        W65273  22.271  39.947   1.748
92948W        W65274  19.151   4.889  14.254
92949W        W65275   2.191  37.872  12.825
92950W        W65276   6.143  43.908  13.443
92951W        W65277   1.410   7.861  12.035
92952W        W65278  42.832  36.458  10.447
92953W        W65279  11.528  15.642   2.371
92954W        W65280  28.722  35.620  10.707
92955W        W65281   9.629   2.368  13.889
92956W        W65282  37.390  17.907  13.433
92957W        W65283   4.511   7.045  11.649
92958W        W65284  21.212  38.150   2.310
92959W        W65285  28.179  35.130   0.395
92960W        W65286  27.851  30.617  10.155
92961W        W65287  14.948  39.752   4.171
92962W        W65288  16.871  34.440  14.232
92963W        W65289   6.470  43.388  14.408
92964W        W65290  34.283  11.763  14.031
92965W        W65291  42.950   0.143   2.363
92966W        W65292  19.971   8.392   4.730
92967W        W65293  15.875  23.416  13.455
92968W        W65294  44.789  44.711  13.315
92969W        W65295  42.226  25.070   3.217
92970W        W65296  21.555  11.696  12.927
92971W        W65297   5.466  37.567   1.264
92972W        W65298   4.687  37.214  11.938
92973W        W65299  11.222  35.929  14.909
92974W        W65300   0.253  35.296  13.541
92975W        W65301  20.623  40.154  12.910
92976W        W65302  36.904  27.910  13.248
92977W        W65303  34.566  43.254   2.914
92978W        W65304   0.184   3.665  14.436
92979W        W65305  10.251  14.919   2.641
92980W        W65306   6.331  12.592   0.275
92981W        W65307  36.279  34.728   0.838
92982W        W65308  28.723  15.140   3.103
92983W        W65309   9.564   5.346  14.768
92984W        W65310  23.533  11.423  11.703
92985W        W65311  38.513  18.218  11.017
92986W        W65312   7.660  17.421   9.881
92987W        W65313  14.188   0.033   0.497
92988W        W65314  41.333   8.555  12.778
92989W        W65315  17.007   8.542  12.964
92990W        W65316   1.039   2.738   2.916
92991W        W65317   2.637  14.066   1.861
92992W        W65318  25.981  19.047  14.919
92993W        W65319  15.173  38.685  13.469
92994W        W65320  23.961   0.973  10.350
92995W        W65321   6.758  24.714  14.054
92996W        W65322   5.053  10.853   4.051
92997W        W65323  12.418  25.673   0.919
92998W        W65324  12.870  41.838   2.212
92999W        W65325  33.459  25.861  14.314
93000W        W65326  28.079   8.336   3.320
93001W        W65327  24.579  27.736   2.453
93002W        W65328  29.536  19.990  13.604
93003W        W65329  25.541  19.227  14.722
93004W        W65330  22.192  26.648   0.948
93005W        W65331   8.141  41.418  10.252
93006W        W65332  21.921   4.983  11.992
93007W        W65333  14.307  35.590  11.592
93008W        W65334  21.213  14.075  13.453
93009W        W65335  16.290   9.121  12.892
93010W        W65336  39.033   3.228   3.836
93011W        W65337  19.913  38.557  14.456
93012W        W65338  20.607  32.183  12.894
93013W        W65339  44.100  44.560   1.810
93014W        W65340  14.846  10.243   2.895
93015W        W65341  12.944  31.094  11.886
93016W        W65342   9.428  17.733   3.314
93017W        W65343  30.520  27.992   4.097
93018W        W65344  41.893  28.363  13.380
93019W        W65345  20.004  35.595  14.362
93020W        W65346  30.201  17.142   3.577
93021W        W65347  18.818  14.780  11.459
93022W        W65348  41.796  37.145  10.734
93023W        W65349   1.920   8.449   3.837
93024W        W65350  31.497   9.665  11.331
93025W        W65351  15.894  16.618   0.311
93026W        W65352  40.407  28.716  13.452
93027W        W65353  42.993  38.447  14.554
93028W        W65354  19.043  26.839   0.150
93029W        W65355  32.038  39.247  12.900
93030W        W65356  31.495  30.580  13.469
93031W        W65357   4.741  43.149   4.999
93032W        W65358  15.612  37.285   5.119
93033W        W65359  29.640  25.506  10.636
93034W        W65360  19.523  12.655   1.271
93035W        W65361  23.298  30.809  10.913
93036W        W65362  13.577   9.422   0.395
93037W        W65363  18.174  40.471  14.094
93038W        W65364  23.201  39.707   5.077
93039W        W65365  30.108  20.047   2.123
93040W        W65366   5.904  35.410  11.072
93041W        W65367  26.695  16.934  10.114
93042W        W65368  43.796   5.928  12.885
93043W        W65369  21.526  11.787   1.395
93044W        W65370  33.340  10.828  13.290
93045W        W65371  40.032  17.245   2.267
93046W        W65372  26.066  38.053   3.663
93047W        W65373  28.039  23.207   3.827
93048W        W65374  21.218  29.692  10.723
93049W        W65375  13.237  11.133  13.852
93050W        W65376  20.271  30.089  11.595
93051W        W65377  40.659  12.199   0.213
93052W        W65378  39.045  19.757  11.982
93053W        W65379  19.309  12.375  11.145
93054W        W65380  30.846  14.184   0.522
93055W        W65381  36.399   2.321  14.755
93056W        W65382  43.358   0.342  13.006
93057W        W65383  41.369  24.567   0.832
93058W        W65384  31.102  40.583   1.388
93059W        W65385  44.349  27.184  14.586
93060W        W65386  32.192   2.082  13.278
93061W        W65387  35.494  12.072   0.433
93062W        W65388  29.923  28.627  11.055
93063W        W65389  36.357  15.809  10.593
93064W        W65390  22.097   7.346  10.738
93065W        W65391  21.865  36.936   9.925
93066W        W65392  34.863  30.810   4.816
93067W        W65393  26.632  23.831  14.528
93068W        W65394  31.522  42.431   1.331
93069W        W65395  36.615  23.497  11.598
93070W        W65396  36.545   2.083   4.169
93071W        W65397  37.415  34.711  14.338
93072W        W65398  20.727   9.768   2.423
93073W        W65399  13.595  28.357  12.950
93074W        W65400   8.537   6.263  14.222
93075W        W65401  26.773  41.877  14.427
93076W        W65402  30.439  23.729  10.799
93077W        W65403   9.879  24.913   5.056
93078W        W65404  39.590  38.540   1.111
93079W        W65405  31.030  44.372   2.410
93080W        W65406  17.482   7.713  14.911
93081W        W65407  14.017   2.424   3.210
93082W        W65408  25.471   8.065  12.996
93083W        W65409  16.135  20.250   4.792
93084W        W65410  35.999  17.205   1.142
93085W        W65411  37.353   3.400   0.809
93086W        W65412   5.584  18.331   1.332
93087W        W65413  31.895   4.413  13.095
93088W        W65414   0.370  39.379   1.469
93089W        W65415  16.073  24.781   1.672
93090W        W65416  38.567  20.949  12.359
93091W        W65417  37.750  12.588   0.412
93092W        W65418  29.397  28.972   2.765
93093W        W65419  18.595  28.380  10.790
93094W        W65420  40.488  38.304  11.651
93095W        W65421  12.764  43.303   0.329
93096W        W65422  31.758  27.397   0.882
93097W        W65423   4.010  14.561  12.014
93098W        W65424  37.339   0.949  14.392
93099W        W65425   3.915  32.110   1.814
93100W        W65426  41.804  11.192   4.103
93101W        W65427  28.132   0.531   3.243
93102W        W65428  20.965  22.635   1.785
93103W        W65429   8.732  19.673   4.921
93104W        W65430  26.149  11.429  10.319
93105W        W65431  19.194  32.840   4.266
93106W        W65432  24.263   9.795   2.236
93107W        W65433  40.949  44.106  11.097
93108W        W65434  13.044  19.512   1.234
93109W        W65435   9.351  44.354   3.110
93110W        W65436   1.554  12.207   5.819
93111W        W65437   6.250  44.948  10.590
93112W        W65438  38.163  10.612   0.444
93113W        W65439  32.506  32.027   4.353
93114W        W65440  14.731  36.143  10.972
93115W        W65441  40.304  17.062  12.927
93116W        W65442  42.432  18.918   2.078
93117W        W65443  24.966  22.575   3.995
93118W        W65444  31.977  18.564   3.675
93119W        W65445  43.073   0.155   1.838
93120W        W65446   1.524  27.122  11.223
93121W        W65447  34.059  18.019   4.590
93122W        W65448  11.737  42.510  10.762
93123W        W65449  44.692  28.675  11.452
93124W        W65450  34.107  34.945   1.095
93125W        W65451  36.379   9.815  12.425
93126W        W65452  35.824  43.905  13.425
93127W        W65453  33.163  12.609  13.569
93128W        W65454  44.473  44.319   2.107
93129W        W65455  36.148  42.278   2.760
93130W        W65456  39.965  26.191   2.065
93131W        W65457  32.586  26.643  10.449
93132W        W65458   6.978  13.409   4.051
93133W        W65459  41.973   4.235  12.880
93134W        W65460  14.195  22.622   1.064
93135W        W65461  30.054  31.235   3.872
93136W        W65462  31.872  31.207   4.084
93137W        W65463  15.463  23.551   4.098
93138W        W65464  35.690  25.426   0.705
93139W        W65465  41.815   3.936   1.159
93140W        W65466  35.295   0.754  11.501
93141W        W65467   3.251  36.796   1.539
93142W        W65468  27.466   7.756   2.728
93143W        W65469  38.030  21.546   3.739
93144W        W65470   8.636  33.316   2.624
93145W        W65471  20.015  30.297  10.749
93146W        W65472  33.627  37.888   5.133
93147W        W65473  22.865   7.411   4.749
93148W        W65474   6.677  31.930   4.586
93149W        W65475  32.803   6.009  14.817
93150W        W65476  33.400  38.474   3.046
93151W        W65477  44.188  42.047   3.704
93152W        W65478   5.644  37.914   4.621
93153W        W65479  23.666  34.262  13.901
93154W        W65480   2.241  30.604  14.385
93155W        W65481  43.349  42.775   2.373
93156W        W65482  12.084   9.768  10.460
93157W        W65483  16.296  26.505  14.532
93158W        W65484   8.548  16.407  13.390
93159W        W65485  25.703  27.502  14.710
93160W        W65486  27.162  27.673   2.075
93161W        W65487  43.379  41.649  10.203
93162W        W65488  41.494   4.274   0.066
93163W        W65489   3.665  36.334  11.100
93164W        W65490  20.548  14.410   1.378
93165W        W65491  10.251  20.710  13.926
93166W        W65492  41.535  37.425   4.909
93167W        W65493  10.777  33.016   1.803
93168W        W65494  43.830  32.287  14.340
93169W        W65495  12.848  11.234  11.040
93170W        W65496  24.753   0.258   1.315
93171W        W65497  23.111  16.876   4.825
93172W        W65498   8.663  18.299  14.523
93173W        W65499  35.245   4.245  12.477
93174W        W65500  23.357   9.791   2.195
93175W        W65501   9.916  24.536  12.337
93176W        W65502  44.801  28.132   0.307
93177W        W65503  21.225  37.787  10.610
93178W        W65504  33.534  33.844  14.742
93179W        W65505  22.462  20.032   2.842
93180W        W65506   1.416   9.127  11.078
93181W        W65507  43.724   6.709  11.555
93182W        W65508  21.046  29.449  13.899
93183W        W65509  35.845   5.783   0.021
93184W        W65510  21.025   6.852   4.839
93185W        W65511   3.274   8.343  11.666
93186W        W65512  35.639  40.648  12.794
93187W        W65513   3.149  29.965  12.059
93188W        W65514  29.053  10.941   0.345
93189W        W65515   0.793  13.349   2.279
93190W        W65516  43.866  32.564  10.706
93191W        W65517  43.853  13.373   4.566
93192W        W65518   4.708  25.970  12.005
93193W        W65519  11.279  16.802  13.300
93194W        W65520  19.161   8.136   0.744
93195W        W65521  19.330  14.643   0.960
93196W        W65522  23.082  19.636  13.131
93197W        W65523  22.590  33.504  13.810
93198W        W65524   3.965  31.787  11.905
93199W        W65525  25.490  36.405  11.569
93200W        W65526  26.538   7.239  13.391
93201W        W65527  43.528  13.736  13.495
93202W        W65528  20.625  16.321   3.149
93203W        W65529  17.650  20.742  14.942
93204W        W65530  26.624   6.747  10.687
93205W        W65531  30.514  44.535  10.901
93206W        W65532   3.327  18.451   0.923
93207W        W65533  32.587   5.582   2.306
93208W        W65534  36.566  34.982  11.994
93209W        W65535  21.808  13.052  12.674
93210W        W65536  10.667  18.848   1.286
93211W        W65537  37.103  43.831  12.411
93212W        W65538  25.640  20.701   0.482
93213W        W65539  31.587  44.187   1.655
93214W        W65540  24.508  20.943   4.085
93215W        W65541  32.126  21.991   2.578
93216W        W65542   0.125  26.763   0.683
93217W        W65543  32.526   5.317  14.022
93218W        W65544  19.637  20.567  13.865
93219W        W65545  25.241   6.679   0.483
93220W        W65546  20.698  31.118  10.550
93221W        W65547  40.717  43.578  14.964
93222W        W65548  24.036  43.103  14.743
93223W        W65549  22.211  15.101  11.229
93224W        W65550   2.224  24.045   2.264
93225W        W65551   9.414   2.761   0.815
93226W        W65552  17.116  21.598   2.351
93227W        W65553  40.843  33.235  11.546
93228W        W65554   9.785  17.040  12.074
93229W        W65555   0.308   9.725  14.332
93230W        W65556  13.758   6.123   1.233
93231W        W65557  39.879   2.948   3.892
93232W        W65558  18.061  40.046  14.496
93233W        W65559  17.035  27.146   4.080
93234W        W65560  28.725   3.054  12.415
93235W        W65561  40.756   2.259   3.766
93236W        W65562  33.988   9.146   3.369
93237W        W65563  30.604  31.060   4.664
93238W        W65564  40.212  23.658   3.986
93239W        W65565  18.319  44.457   0.081
93240W        W65566   6.883  35.062   1.802
93241W        W65567  18.390  43.000   3.301
93242W        W65568  31.424  25.750  13.759
93243W        W65569  23.033  43.434   0.563
93244W        W65570  24.981   1.137   4.557
93245W        W65571  22.061   0.143   3.355
93246W        W65572  11.183   6.256  12.572
93247W        W65573  16.709  31.173  14.691
93248W        W65574  28.717  16.261  13.773
93249W        W65575   0.199  36.812  11.965
93250W        W65576  35.947  38.832  10.601
93251W        W65577  30.402  25.728   1.877
93252W        W65578  21.835  14.651  14.303
93253W        W65579  43.712   0.989  14.410
93254W        W65580  24.059  10.131  11.104
93255W        W65581  25.613  39.252  11.472
93256W        W65582  43.428  24.206  11.555
93257W        W65583  23.797  28.514  12.891
93258W        W65584  20.691  32.905  11.565
93259W        W65585   1.201   0.503  11.888
93260W        W65586  30.118  13.117   0.224
93261W        W65587  16.109   9.982  14.841
93262W        W65588  25.726  15.830   0.208
93263W        W65589   8.034   3.263   0.887
93264W        W65590  17.088  20.763   4.025
93265W        W65591  30.502   8.850  14.332
93266W        W65592   6.736  33.650  11.898
93267W        W65593  28.142  12.399   3.783
93268W        W65594   1.530   2.692   3.306
93269W        W65595   0.462   5.613  14.830
93270W        W65596  17.805  43.706   1.404
93271W        W65597  42.661   8.689  12.696
93272W        W65598  27.306   5.364  10.673
93273W        W65599  43.520  12.591  12.945
93274W        W65600   2.757  36.962   1.347
93275W        W65601  27.558  14.190  13.045
93276W        W65602   9.815  28.708  13.522
93277W        W65603  37.449  31.078  10.497
93278W        W65604  23.525   8.857   4.046
93279W        W65605   3.453   6.093  11.095
93280W        W65606   2.399  38.490  14.858
93281W        W65607  34.549  30.065  12.448
93282W        W65608  23.300  43.273  14.051
93283W        W65609  32.030  15.599   1.657
93284W        W65610  44.885  41.702  14.759
93285W        W65611   0.211  14.683   3.745
93286W        W65612  29.173  39.393   1.299
93287W        W65613  15.120  10.703   0.311
93288W        W65614  13.697   7.439   1.708
93289W        W65615  14.851  28.554   1.799
93290W        W65616   9.102  34.511   2.276
93291W        W65617  18.040  10.659   0.587
93292W        W65618   7.811  13.542   1.868
93293W        W65619  33.234  15.125  13.079
93294W        W65620   5.935  32.693  13.852
93295W        W65621  32.949   6.950   2.243
93296W        W65622  25.888  37.563   3.714
93297W        W65623  32.545  28.701  12.039
93298W        W65624  13.351  18.491   0.277
93299W        W65625  38.004   0.656   1.674
93300W        W65626  15.441   8.153  10.719
93301W        W65627  39.589  14.623   0.424
93302W        W65628  23.249  15.097   5.083
93303W        W65629   0.278  19.399  11.071
93304W        W65630  12.389  27.363   1.352
93305W        W65631  37.137   7.928  11.481
93306W        W65632  28.964  41.941   3.172
93307W        W65633   3.115  23.458  11.503
93308W        W65634  30.582  28.248   0.326
93309W        W65635  26.464  13.802   3.320
93310W        W65636  27.521  39.661   3.097
93311W        W65637  27.770  25.829  14.321
93312W        W65638  34.456  12.695  14.510
93313W        W65639  34.873  18.742   3.995
93314W        W65640  38.821  44.852   5.195
93315W        W65641  39.063  12.759   0.872
93316W        W65642  35.042  40.096  10.795
93317W        W65643  14.800  35.489   0.985
93318W        W65644  14.579  30.465   0.213
93319W        W65645  23.694  36.307  14.974
93320W        W65646   2.932  17.086  13.927
93321W        W65647  20.257  31.369   3.848
93322W        W65648  29.108   5.926  14.519
93323W        W65649  23.528   0.844   2.855
93324W        W65650  43.545  14.651  13.559
93325W        W65651  21.198  27.887   0.826
93326W        W65652  16.857  39.566   0.250
93327W        W65653  44.717  18.079  13.370
93328W        W65654  23.689  14.745  13.872
93329W        W65655  16.731   2.392  12.118
93330W        W65656  30.783   2.888  12.133
93331W        W65657  44.370  43.846   2.829
93332W        W65658  33.928  21.033  12.488
93333W        W65659  16.114  19.753   4.569
93334W        W65660   3.480  23.228   1.817
93335W        W65661  35.838  13.573  14.955
93336W        W65662  28.570  19.227   3.225
93337W        W65663   2.793  14.036   4.670
93338W        W65664   7.438  16.012   2.741
93339W        W65665  34.999  32.341   1.986
93340W        W65666  15.698   9.661  14.925
93341W        W65667  24.615  21.041  11.838
93342W        W65668  25.646  12.656  13.276
93343W        W65669  26.683   1.318  13.746
93344W        W65670  14.589  31.208   1.427
93345W        W65671  13.183  28.874  10.733
93346W        W65672   7.805  27.912   0.731
93347W        W65673   0.881  20.980  14.273
93348W        W65674  32.872  24.579   3.309
93349W        W65675   0.516  25.038   3.351
93350W        W65676  20.144   7.261  10.417
93351W        W65677  37.687  10.722   0.283
93352W        W65678  33.380  27.710  13.965
93353W        W65679  26.188  18.299   4.280
93354W        W65680  29.574   1.546  14.920
93355W        W65681  24.259  32.135  12.534
93356W        W65682  25.978  23.047   2.703
93357W        W65683  43.442   6.435   0.426
93358W        W65684  41.573   8.201   1.498
93359W        W65685   3.283   5.944   2.259
93360W        W65686  18.042   0.319  10.967
93361W        W65687   2.970  34.561   4.595
93362W        W65688   7.000  13.844  11.563
93363W        W65689  44.227  29.586  14.828
93364W        W65690  32.694  38.918  12.863
93365W        W65691   3.412  17.714  12.953
93366W        W65692  40.661  21.820  13.423
93367W        W65693   3.383  20.874  11.714
93368W        W65694  12.576  32.622  12.141
93369W        W65695  32.076  15.284   0.661
93370W        W65696  17.105  34.982   0.997
93371W        W65697  40.316   2.964   4.156
93372W        W65698  24.211   6.221   1.204
93373W        W65699  26.524  42.491   2.246
93374W        W65700  39.500  14.781  14.080
93375W        W65701   2.873  29.476   1.264
93376W        W65702  38.326   8.682  13.862
93377W        W65703  38.852   8.939   4.066
93378W        W65704  39.778  40.075  13.971
93379W        W65705  43.057  37.053  11.082
93380W        W65706  43.662  39.478  10.579
93381W        W65707  37.838  13.995   4.261
93382W        W65708  23.020   5.507  13.883
93383W        W65709  44.812   4.302  13.314
93384W        W65710   8.008  26.519   4.065
93385W        W65711  29.635  27.911   3.236
93386W        W65712  15.817  30.582  14.378
93387W        W65713  34.109  11.666   1.788
93388W        W65714  25.074  22.670   1.816
93389W        W65715  35.040   7.805   3.702
93390W        W65716  32.890   9.731  14.467
93391W        W65717  23.940  11.017   1.913
93392W        W65718   9.670  13.754   4.100
93393W        W65719  43.513  23.923   2.813
93394W        W65720  15.776  25.171  13.925
93395W        W65721  28.673  17.162   0.854
93396W        W65722  35.949   5.929   0.787
93397W        W65723  40.267  22.431  13.993
93398W        W65724   7.411  31.493   0.910
93399W        W65725  23.268  38.730   3.085
93400W        W65726  30.371  38.826  10.650
93401W        W65727   0.872  10.202  13.782
93402W        W65728   8.252  10.576  12.775
93403W        W65729  24.928  25.953   5.024
93404W        W65730   1.171  25.595  11.040
93405W        W65731   2.813  20.812  12.515
93406W        W65732  42.739   4.316   2.131
93407W        W65733  25.263  19.829  10.562
93408W        W65734  36.553  39.846  12.568
93409W        W65735  35.440  11.984   0.932
93410W        W65736  34.832  31.485   2.405
93411W        W65737  24.328  26.515   0.845
93412W        W65738   1.233   8.282   2.995
93413W        W65739  44.430   7.690  11.027
93414W        W65740  30.128   2.963  11.634
93415W        W65741  39.285  16.278   0.760
93416W        W65742   8.140   2.652  11.969
93417W        W65743  40.612  31.630   0.968
93418W        W65744  11.221   3.965  13.710
93419W        W65745  10.958  11.248   0.810
93420W        W65746  35.036   8.624   4.262
93421W        W65747  14.740  10.311   1.734
93422W        W65748  21.693  40.909   0.174
93423W        W65749  18.760   9.709  14.351
93424W        W65750   5.642  38.245   3.150
93425W        W65751   5.829  29.642   4.597
93426W        W65752   7.416  14.696   4.736
93427W        W65753  25.701  12.133  11.450
93428W        W65754  11.599  18.005  11.069
93429W        W65755  36.183  13.404   4.602
93430W        W65756  42.142  40.861  12.474
93431W        W65757   5.979  12.374   3.271
93432W        W65758  19.872  15.569  12.530
93433W        W65759  18.131  27.679  14.515
93434W        W65760  16.161   4.903  14.313
93435W        W65761  40.817  37.404  13.352
93436W        W65762  41.310   2.255  10.594
93437W        W65763  20.245  35.150  11.156
93438W        W65764  12.197  25.545  13.233
93439W        W65765  31.953  28.586  12.089
93440W        W65766  14.109  21.198  12.888
93441W        W65767  25.270  25.622  11.573
93442W        W65768   1.413  43.287   4.799
93443W        W65769   1.877  44.879  12.552
93444W        W65770  41.120  26.686  11.182
93445W        W65771   3.576  22.484   5.196
93446W        W65772  16.895   5.104  13.799
93447W        W65773  10.903   4.999  12.362
93448W        W65774  27.699  10.175   1.949
93449W        W65775   1.410  17.766   3.675
93450W        W65776  37.817   4.480   1.426
93451W        W65777  14.532  15.635   3.083
93452W        W65778  25.169  36.912   4.601
93453W        W65779  42.891  25.747   0.816
93454W        W65780  23.001  26.286   1.209
93455W        W65781  37.690  17.220  10.273
93456W        W65782  37.347  13.720  12.403
93457W        W65783  14.453  26.182   5.541
93458W        W65784  10.003  11.343  10.848
93459W        W65785  44.251  25.090  14.394
93460W        W65786  30.831  26.068  10.999
93461W        W65787   5.339   9.763   0.332
93462W        W65788   0.809  21.142   3.252
93463W        W65789  25.926  18.302  14.377
93464W        W65790   9.487  26.039  10.523
93465W        W65791  32.114  24.423   2.884
93466W        W65792  30.407  29.804   0.162
93467W        W65793  29.210  14.056  14.220
93468W        W65794   8.796  40.955  11.165
93469W        W65795   7.200   3.453   4.363
93470W        W65796  34.515   7.002  11.094
93471W        W65797   5.060  26.687   2.783
93472W        W65798  28.936  23.050   3.441
93473W        W65799  33.887   6.814   0.949
93474W        W65800  28.957   7.905   1.307
93475W        W65801  23.051  36.015   3.139
93476W        W65802  23.765   9.465  11.553
93477W        W65803  20.726   7.125   3.220
93478W        W65804  25.094  23.044  12.600
93479W        W65805  42.051  14.087  11.710
93480W        W65806  22.778   5.583   2.969
93481W        W65807  26.030  36.901  13.810
93482W        W65808   4.335  28.501  11.245
93483W        W65809   6.485  37.524   0.393
93484W        W65810  15.263   3.551  12.228
93485W        W65811  41.589  38.785  12.673
93486W        W65812  13.154  14.606   2.402
93487W        W65813   0.074  10.585   3.265
93488W        W65814  19.063  24.880  12.696
93489W        W65815  18.230  34.600  10.623
93490W        W65816   2.939  40.056  14.599
93491W        W65817  21.910   8.741   0.261
93492W        W65818   2.968  39.439   2.694
93493W        W65819  30.435  26.116  12.782
93494W        W65820  13.347  15.229  10.681
93495W        W65821  17.770   4.307  10.713
93496W        W65822  35.365  21.549   0.370
93497W        W65823  27.003  26.787  12.624
93498W        W65824  13.853   6.778  13.413
93499W        W65825  23.968   0.388   4.838
93500W        W65826   8.731  11.310   2.148
93501W        W65827  25.617   9.713  14.895
93502W        W65828  41.776  26.432   0.363
93503W        W65829  38.502  14.648   4.875
93504W        W65830  12.144   7.723   1.271
93505W        W65831   6.264  29.344   2.837
93506W        W65832  32.963  20.980  13.520
93507W        W65833  16.394  13.914   0.139
93508W        W65834  42.134   7.830   4.091
93509W        W65835  24.658  36.312   2.468
93510W        W65836  24.098  10.301  12.000
93511W        W65837  38.055  17.287  14.448
93512W        W65838   0.011  21.589   3.240
93513W        W65839  37.050  35.978   4.218
93514W        W65840  10.262  10.168   4.540
93515W        W65841  17.169  21.645   3.511
93516W        W65842  16.260  25.235  14.184
93517W        W65843   9.150   3.771  13.553
93518W        W65844  22.655   0.257  10.704
93519W        W65845  23.236  12.842   0.448
93520W        W65846  27.895  21.790   4.133
93521W        W65847   0.582  34.801   2.568
93522W        W65848   2.377   4.833   0.259
93523W        W65849  38.908  20.735   1.910
93524W        W65850  38.040  23.427  12.872
93525W        W65851  13.747  16.308  14.778
93526W        W65852  37.564  20.224   1.823
93527W        W65853  37.323  37.432  14.374
93528W        W65854   7.681  14.754   2.719
93529W        W65855  13.178  37.588   3.788
93530W        W65856  41.204  21.055  12.590
93531W        W65857  22.934  33.014   2.794
93532W        W65858  43.796  22.144   3.207
93533W        W65859  29.846  40.407  12.589
93534W        W65860  37.914   2.218   1.719
93535W        W65861  19.502  41.033   1.317
93536W        W65862  15.167  36.900   1.447
93537W        W65863  30.368  29.377  11.249
93538W        W65864  24.984   6.384   1.821
93539W        W65865  14.470  37.931  10.397
93540W        W65866  13.633  42.185  14.333
93541W        W65867  36.084  21.922   4.041
93542W        W65868  17.323  24.462   0.428
93543W        W65869  15.227   3.411  13.576
93544W        W65870   4.513  20.637   4.619
93545W        W65871  35.854  13.154  14.025
93546W        W65872  16.173  37.291   3.756
93547W        W65873  37.513  21.264  14.834
93548W        W65874  36.236  42.471  10.680
93549W        W65875  15.581  22.593  14.403
93550W        W65876  35.409  32.619   1.288
93551W        W65877  26.611   1.012   3.211
93552W        W65878   1.428  16.280  12.857
93553W        W65879  31.068  13.793   3.775
93554W        W65880  25.554  12.666  10.275
93555W        W65881  34.376  33.064   0.585
93556W        W65882   6.523  24.070  12.853
93557W        W65883  11.449   7.919  12.614
93558W        W65884  33.869  27.628   1.421
93559W        W65885  24.155  24.464  12.570
93560W        W65886   3.993  36.032   2.614
93561W        W65887   7.891   2.361  11.037
93562W        W65888  26.897  26.251   4.158
93563W        W65889  10.180  11.593   3.646
93564W        W65890  12.127  41.891  13.534
93565W        W65891  16.700   2.367   2.939
93566W        W65892  24.735  40.359  13.470
93567W        W65893  23.969  34.966  14.324
93568W        W65894  36.297  13.932  10.086
93569W        W65895  18.699  24.269   1.206
93570W        W65896  16.737  13.068   0.362
93571W        W65897  25.654   0.443  11.640
93572W        W65898  25.684  17.091   9.736
93573W        W65899  21.211  24.171  14.303
93574W        W65900  28.168  13.726   2.799
93575W        W65901  18.778  15.247   1.686
93576W        W65902  10.638  39.022   0.738
93577W        W65903  16.650   6.752  13.832
93578W        W65904   2.374  22.501   2.267
93579W        W65905  40.911  20.251  11.018
93580W        W65906  32.569  22.310  11.235
93581W        W65907  39.678  29.091  13.770
93582W        W65908  31.906  39.220  11.091
93583W        W65909  16.195  15.158   1.397
93584W        W65910  30.906  18.320  13.816
93585W        W65911  34.506   2.911  13.981
93586W        W65912   1.779  40.253  12.320
93587W        W65913  22.959   7.618  14.758
93588W        W65914  15.440  33.095   9.574
93589W        W65915  21.191  41.102   3.362
93590W        W65916  32.566  15.090  13.723
93591W        W65917  15.742  24.967  13.359
93592W        W65918  35.547  11.796   5.480
93593W        W65919   7.758  32.154   4.530
93594W        W65920  19.892  26.404  11.819
93595W        W65921   8.179  34.583   1.876
93596W        W65922  32.018  38.327   1.926
93597W        W65923  27.557  16.347   2.231
93598W        W65924  14.740   0.793  13.815
93599W        W65925  26.160   6.284   3.379
93600W        W65926  13.769  27.051  13.416
93601W        W65927  17.619  17.379  10.047
93602W        W65928   8.599   4.325  11.546
93603W        W65929  20.066  44.382  14.977
93604W        W65930   7.900  18.261   1.480
93605W        W65931  22.392   3.045   4.516
93606W        W65932  19.891  18.122  10.639
93607W        W65933  19.019   5.208   3.874
93608W        W65934  36.475  15.845  13.346
93609W        W65935  32.838  27.588  10.967
93610W        W65936  22.510  32.111  14.043
93611W        W65937  31.181   6.367  11.073
93612W        W65938  28.126  39.084   0.817
93613W        W65939  28.570  25.228  10.853
93614W        W65940  15.155  14.335   0.577
93615W        W65941   9.188  30.419   4.375
93616W        W65942  25.686  25.926   0.362
93617W        W65943  13.641  25.784  11.832
93618W        W65944  17.820   3.129  14.843
93619W        W65945  27.082  43.352   2.961
93620W        W65946  15.794   5.964   2.175
93621W        W65947  20.009  26.037   1.343
93622W        W65948  14.353  23.674  10.676
93623W        W65949  26.060  35.073   1.842
93624W        W65950  20.229  17.210  10.694
93625W        W65951   5.808  39.758  12.600
93626W        W65952   6.813  23.379   4.143
93627W        W65953  43.901   1.737   1.812
93628W        W65954  24.580   8.258   2.776
93629W        W65955  20.997  27.575   4.399
93630W        W65956  44.924   5.909  12.591
93631W        W65957  14.707  24.238   2.327
93632W        W65958  33.784  36.019   4.186
93633W        W65959  34.890  24.726   3.730
93634W        W65960   4.528  42.934   0.417
93635W        W65961  14.260  44.889   0.990
93636W        W65962  20.726  33.464  14.435
93637W        W65963  34.310   4.465   2.802
93638W        W65964  28.468   4.414  11.513
93639W        W65965   0.377  26.376  12.897
93640W        W65966  12.334  33.623   4.233
93641W        W65967  17.172   3.463   1.927
93642W        W65968  43.044  12.071  14.534
93643W        W65969   8.811  37.894   4.082
93644W        W65970  12.605  22.787  12.008
93645W        W65971  33.048  44.785  12.830
93646W        W65972  33.354  11.211   2.794
93647W        W65973  37.098  41.058  12.183
93648W        W65974  21.400  36.869   1.756
93649W        W65975  26.611   7.328  14.372
93650W        W65976   4.938  42.810   3.531
93651W        W65977  35.626  41.021  12.399
93652W        W65978   4.991  21.235   4.087
93653W        W65979   6.647  33.985   1.008
93654W        W65980  24.607   8.693  11.983
93655W        W65981  13.880  35.995   4.366
93656W        W65982  16.353  18.473  12.012
93657W        W65983  30.884  24.067  13.444
93658W        W65984  25.039  10.922  14.415
93659W        W65985  33.559  26.682   0.444
93660W        W65986  13.797  12.540   0.199
93661W        W65987  13.163  31.185  14.419
93662W        W65988  31.996  33.145  11.586
93663W        W65989  12.545  36.044   9.828
93664W        W65990   0.252  15.566   0.609
93665W        W65991   0.077  32.662   1.863
93666W        W65992  44.037  36.349   0.247
93667W        W65993  22.125  10.935   0.786
93668W        W65994  14.678  23.191  14.951
93669W        W65995   4.679   5.725  13.416
93670W        W65996  22.655   1.621  11.896
93671W        W65997   3.191   5.899  14.240
93672W        W65998  23.587  38.493  13.601
93673W        W65999  23.032  28.136   3.272
93674W        W66000  44.756  22.461   2.868
93675W        W66001  33.465   0.801  10.731
93676W        W66002  16.202   3.951  13.409
93677W        W66003  35.115  15.139  12.000
93678W        W66004  28.623  10.149   1.426
93679W        W66005  32.787  32.205  13.751
93680W        W66006  33.497  44.912  11.446
93681W        W66007  18.678  16.567   0.816
93682W        W66008  13.523  11.250  13.369
93683W        W66009  31.437  23.107  14.108
93684W        W66010  18.029  23.577  11.461
93685W        W66011  32.957  24.343   2.861
93686W        W66012  21.010  21.738   1.879
93687W        W66013   9.863   6.785  11.582
93688W        W66014  43.444  18.350   3.230
93689W        W66015  43.744   3.675   0.380
93690W        W66016  16.799  30.401  13.480
93691W        W66017  10.205  25.068   1.293
93692W        W66018  24.232  35.264   5.009
93693W        W66019  20.616   0.826  11.044
93694W        W66020  41.005   7.651   3.104
93695W        W66021   4.718   4.826   1.927
93696W        W66022  24.511   2.921  11.995
93697W        W66023  41.450  23.227   1.186
93698W        W66024   1.503   8.777   3.762
93699W        W66025  41.279  22.462  12.918
93700W        W66026  25.445  13.805  10.748
93701W        W66027  39.898  20.812  10.546
93702W        W66028  42.072   5.184  13.781
93703W        W66029  26.222  19.871   9.963
93704W        W66030  24.618  44.748   1.325
93705W        W66031   7.846  34.392   3.680
93706W        W66032  25.966  25.903   4.148
93707W        W66033  43.551  42.827  13.363
93708W        W66034  25.402  14.713  12.152
93709W        W66035   3.064  10.794  11.417
93710W        W66036  39.354  42.998  10.842
93711W        W66037  18.669  11.888   3.766
93712W        W66038  22.257   0.743  13.396
93713W        W66039  14.907  22.226   1.453
93714W        W66040  20.661  39.964  14.780
93715W        W66041   0.224  21.153  12.883
93716W        W66042  12.115   4.299   0.292
93717W        W66043  20.120  33.858  11.452
93718W        W66044  31.061  23.323  12.341
93719W        W66045  19.746   6.245   2.712
93720W        W66046  19.043  12.448   1.309
93721W        W66047   3.125  15.279  13.802
93722W        W66048  14.097  43.977   3.165
93723W        W66049   8.792  14.570   0.278
93724W        W66050  32.157  36.582   0.387
93725W        W66051  15.739  23.254   2.492
93726W        W66052  19.086  42.355  14.303
93727W        W66053   6.468  29.873   3.715
93728W        W66054  21.316  19.709  14.449
93729W        W66055  36.466   7.393  14.252
93730W        W66056   2.800  21.240   1.951
93731W        W66057  19.781   5.196   4.530
93732W        W66058  40.870  17.239   4.563
93733W        W66059   1.052  37.322   2.121
93734W        W66060  40.853  14.865   0.336
93735W        W66061  20.680   7.458   2.803
93736W        W66062   8.161  23.166   3.567
93737W        W66063  22.271  35.433   4.128
93738W        W66064   2.291  36.700  13.371
93739W        W66065   3.844  33.060   2.316
93740W        W66066  23.926  30.369  11.527
93741W        W66067  14.326  10.122   4.599
93742W        W66068  43.540  22.194  14.999
93743W        W66069  17.806  17.265  11.501
93744W        W66070   4.472  10.769  11.404
93745W        W66071  43.005  16.184   0.695
93746W        W66072  31.020  24.765  12.402
93747W        W66073  37.130  24.958  10.590
93748W        W66074   8.315  14.377  10.990
93749W        W66075   9.817  43.417  10.439
93750W        W66076  20.888  18.105   0.919
93751W        W66077   6.726  39.045  10.723
93752W        W66078  37.100  31.069  10.875
93753W        W66079  27.482  33.906   1.928
93754W        W66080   4.268   4.193   1.292
93755W        W66081   3.873  20.775  12.491
93756W        W66082  13.708   7.635   2.650
93757W        W66083  41.664  41.823   1.560
93758W        W66084  44.551  13.121   2.769
93759W        W66085  32.275  44.735   2.180
93760W        W66086  28.671  37.438  10.476
93761W        W66087  37.930  26.840  14.872
93762W        W66088  43.789  26.253   1.326
93763W        W66089   7.147  20.283  12.884
93764W        W66090  16.676  19.995   4.140
93765W        W66091  42.243  43.231   3.109
93766W        W66092   0.178  42.064  13.967
93767W        W66093  41.977  26.921  12.488
93768W        W66094  10.578   4.289   1.412
93769W        W66095  42.076   8.857  13.101
93770W        W66096  15.502  15.645  10.700
93771W        W66097  17.424   1.402   4.911
93772W        W66098   4.388   9.067  14.700
93773W        W66099  16.498  17.689  11.278
93774W        W66100   5.895   8.568   3.654
93775W        W66101  26.981  34.510   0.361
93776W        W66102  44.847   5.834  11.240
93777W        W66103   5.333  18.897   0.898
93778W        W66104   0.323  25.969  14.295
93779W        W66105  12.859  33.098   1.258
93780W        W66106  42.479  39.556  12.376
93781W        W66107  34.476  16.051  14.900
93782W        W66108  31.971  33.039  12.480
93783W        W66109   3.906  39.521  12.986
93784W        W66110   2.642   7.381  14.913
93785W        W66111   3.610  16.534  13.049
93786W        W66112  43.436   5.352   0.754
93787W        W66113  10.756  34.672   3.240
93788W        W66114  18.740  16.504  14.548
93789W        W66115   3.548  41.005  14.027
93790W        W66116  33.871  14.317   0.006
93791W        W66117   0.868  19.194   0.147
93792W        W66118  25.779  31.546   2.989
93793W        W66119  23.773  30.380   0.377
93794W        W66120  12.730  27.420   2.139
93795W        W66121  23.764  26.583  11.088
93796W        W66122  34.337  33.854  11.942
93797W        W66123  37.964  24.462  13.024
93798W        W66124  37.892  38.714  13.868
93799W        W66125  24.445  17.475   4.075
93800W        W66126  35.243  33.441  11.557
93801W        W66127  21.973  12.289  11.600
93802W        W66128   7.952  28.851   2.725
93803W        W66129  22.242  25.942  10.809
93804W        W66130  15.112  13.619   3.990
93805W        W66131  37.962  38.428   3.463
93806W        W66132   5.098   3.915   2.780
93807W        W66133  11.952  36.383   1.279
93808W        W66134  39.753   0.081   0.294
93809W        W66135   2.450   9.087  13.582
93810W        W66136  36.434  27.124  10.481
93811W        W66137  23.969  16.577   3.030
93812W        W66138  35.523  13.349   2.393
93813W        W66139  17.100  29.862  12.391
93814W        W66140   1.921   6.962  14.345
93815W        W66141  24.722   0.259   3.263
93816W        W66142   6.243  24.130  14.711
93817W        W66143  43.822  42.366   4.451
93818W        W66144  18.156  37.881   0.927
93819W        W66145  34.370  20.125   1.994
93820W        W66146  38.345  10.610  13.382
93821W        W66147  18.507  24.524   4.086
93822W        W66148  17.660  20.414  13.364
93823W        W66149  29.808  39.557   3.701
93824W        W66150  39.720  25.702   3.650
93825W        W66151  29.403  38.322  13.048
93826W        W66152  12.343  27.956   5.162
93827W        W66153  19.047  12.710  14.932
93828W        W66154  20.222  15.263   1.948
93829W        W66155  21.815   3.823   0.324
93830W        W66156  16.344   1.644  11.882
93831W        W66157  30.749  24.553   2.742
93832W        W66158  16.892  13.449   2.253
93833W        W66159  39.625  21.519  11.408
93834W        W66160   1.005  20.395   4.070
93835W        W66161  37.786  34.128   3.708
93836W        W66162  18.454  12.719   2.710
93837W        W66163  18.615   2.697  11.892
93838W        W66164   4.884  15.749  10.934
93839W        W66165  20.671  32.198  13.807
93840W        W66166   9.897  35.445   3.359
93841W        W66167  39.980   7.335   3.356
93842W        W66168   9.248  22.046   0.733
93843W        W66169  16.703   1.250   4.480
93844W        W66170  27.840  12.840   1.301
93845W        W66171  44.796   5.939   1.432
93846W        W66172  19.139  16.691   1.023
93847W        W66173   4.316   4.695   3.262
93848W        W66174  15.361  32.940  14.341
93849W        W66175  31.597  19.592  10.687
93850W        W66176  14.157   2.321   0.918
93851W        W66177  21.127  22.182  10.781
93852W        W66178  29.689  16.060   1.762
93853W        W66179  30.445  31.567   3.827
93854W        W66180  24.643  12.861   2.708
93855W        W66181  40.734  24.344   0.778
93856W        W66182  33.181  44.573   0.215
93857W        W66183  21.584   3.965  11.695
93858W        W66184  25.104  39.479  13.762
93859W        W66185  14.802   6.267  10.748
93860W        W66186  30.628  24.142  10.483
93861W        W66187  34.544  35.196   1.859
93862W        W66188  24.233  28.208  12.922
93863W        W66189  12.209  13.620  12.026
93864W        W66190  10.894  33.038  14.293
93865W        W66191  26.542  23.719   0.916
93866W        W66192  34.352  13.637   2.801
93867W        W66193  18.590  35.563  11.123
93868W        W66194   7.825  16.482   3.278
93869W        W66195  30.673  29.162   3.558
93870W        W66196  27.058   7.698  10.885
93871W        W66197  33.964  12.802   4.332
93872W        W66198  37.527  33.222  11.066
93873W        W66199  14.428  18.702   2.300
93874W        W66200  17.605   0.277  12.060
93875W        W66201  21.405  40.386   1.727
93876W        W66202   3.330   7.336  12.501
93877W        W66203   9.219  38.739   2.542
93878W        W66204  19.208  17.541   0.985
93879W        W66205  33.248  28.320  11.612
93880W        W66206  11.616   7.275   4.226
93881W        W66207  38.892  11.322   0.501
93882W        W66208   8.761   7.695   1.766
93883W        W66209  11.192  10.319   0.511
93884W        W66210   5.404  27.532   1.028
93885W        W66211  39.886  38.804   0.755
93886W        W66212   5.335   1.724   1.839
93887W        W66213  26.910  42.896   3.768
93888W        W66214  31.779  32.048  14.865
93889W        W66215  28.598  38.970   4.661
93890W        W66216   1.395  24.474   4.315
93891W        W66217  36.938  39.543   3.183
93892W        W66218  22.739  18.575   2.833
93893W        W66219  31.108  23.514  14.001
93894W        W66220  43.754   1.162  11.933
93895W        W66221   2.039   4.298  12.898
93896W        W66222  14.642  16.075  10.468
93897W        W66223  42.276  33.856  12.811
93898W        W66224  27.941   0.642   4.480
93899W        W66225  27.712  30.901   3.778
93900W        W66226  42.061   2.853  14.452
93901W        W66227  14.538  43.172   2.920
93902W        W66228   9.883   0.427   3.559
93903W        W66229  17.177   3.799   2.905
93904W        W66230   9.906   8.259  10.624
93905W        W66231   1.309  39.997   2.251
93906W        W66232   3.919  12.322   1.298
93907W        W66233  40.853  13.293  13.517
93908W        W66234  21.736  24.346   0.038
93909W        W66235  33.353  10.100  14.470
93910W        W66236  11.230  36.571   2.961
93911W        W66237   6.137   8.865  12.553
93912W        W66238  44.550   6.256  11.055
93913W        W66239  23.806  29.090  14.463
93914W        W66240  40.112  13.568   3.261
93915W        W66241  11.804  23.113  12.918
93916W        W66242  43.754  19.061   2.692
93917W        W66243   7.853  28.644   3.852
93918W        W66244   2.753  14.683  12.849
93919W        W66245  43.079  38.687  10.901
93920W        W66246  38.569   4.889  10.539
93921W        W66247  44.032   5.842   3.738
93922W        W66248  14.283   9.727   0.748
93923W        W66249  44.542  14.183   1.174
93924W        W66250  32.442  23.648  11.151
93925W        W66251  36.918   9.724  14.928
93926W        W66252  31.875  24.268   0.358
93927W        W66253  21.227  11.376   4.125
93928W        W66254  10.420  15.363  14.846
93929W        W66255  31.995  15.667   2.609
93930W        W66256  36.319   6.914  13.925
93931W        W66257  37.941  30.979  10.700
93932W        W66258  12.787  10.612  11.126
93933W        W66259  10.768   7.108   1.374
93934W        W66260  44.253  13.494  13.134
93935W        W66261  33.734  16.405  12.964
93936W        W66262  31.538   1.158   4.296
93937W        W66263   5.121  41.927   3.073
93938W        W66264  25.546  30.068  10.866
93939W        W66265   6.420  19.025   1.269
93940W        W66266  36.893  36.606  13.780
93941W        W66267  36.631   9.189  12.404
93942W        W66268  37.370   1.940  14.866
93943W        W66269  20.108  36.080   0.750
93944W        W66270  16.791   9.920   3.764
93945W        W66271   7.208  12.636  12.620
93946W        W66272  14.797  41.681  14.807
93947W        W66273  33.914  34.319   0.468
93948W        W66274  33.064  22.180  12.939
93949W        W66275  40.057  30.987   4.115
93950W        W66276  19.734  13.998   4.723
93951W        W66277  26.013  19.604  13.365
93952W        W66278  43.868  30.032  14.836
93953W        W66279  13.387  11.569  12.060
93954W        W66280   0.680   4.807  13.350
93955W        W66281   5.192  18.151   2.003
93956W        W66282  16.047   1.854   1.348
93957W        W66283  40.949  29.206   3.278
93958W        W66284  38.799  29.922   3.714
93959W        W66285  44.469  15.633  11.858
93960W        W66286  24.165  29.872   0.942
93961W        W66287  26.140   3.575   0.896
93962W        W66288  31.596  27.528  10.646
93963W        W66289  36.088   1.648  14.418
93964W        W66290  22.978  18.711   2.408
93965W        W66291  39.006  32.491  13.849
93966W        W66292  33.028  40.206  13.882
93967W        W66293  34.361  22.927  13.686
93968W        W66294  43.099  23.392   1.711
93969W        W66295  42.577  37.916   1.836
93970W        W66296  10.415  28.650   3.268
93971W        W66297  11.413   5.608   4.195
93972W        W66298   7.173  34.291   2.390
93973W        W66299  36.595  20.679  10.962
93974W        W66300  32.931   2.641   4.564
93975W        W66301  11.852   1.175   3.260
93976W        W66302  30.496  10.692  11.286
93977W        W66303   8.293  22.045  14.425
93978W        W66304  22.609  13.979   3.210
93979W        W66305   7.959  29.059   4.759
93980W        W66306  13.810  17.114  13.429
93981W        W66307  31.220   9.667  10.740
93982W        W66308  28.003  23.087   3.285
93983W        W66309  30.955  30.255   3.569
93984W        W66310  32.523   3.212  12.052
93985W        W66311  25.457  35.813   4.172
93986W        W66312   6.961  20.588   4.538
93987W        W66313   9.430  14.630   1.134
93988W        W66314  14.173  34.612   2.326
93989W        W66315   4.361  18.799   3.665
93990W        W66316   5.256  31.164   3.700
93991W        W66317  14.919  34.312   5.561
93992W        W66318  41.345   5.204  12.534
93993W        W66319  10.721  40.993   0.530
93994W        W66320  21.056   0.251  12.542
93995W        W66321   6.185  36.631  11.660
93996W        W66322  16.102   4.163  10.992
93997W        W66323  14.617  44.944  14.569
93998W        W66324  19.938   1.865   4.894
93999W        W66325  42.783  39.359   0.983
94000W        W66326   6.312  44.701  12.729
94001W        W66327   6.963   0.963  13.274
94002W        W66328  43.454  15.662  11.467
94003W        W66329   5.937  35.478  13.212
94004W        W66330  27.143   1.326   4.479
94005W        W66331  10.801  25.712   2.994
94006W        W66332  36.058  31.055  12.370
94007W        W66333   6.372  40.526  12.920
94008W        W66334  11.538  17.702   1.900
94009W        W66335   9.328  17.842   4.211
94010W        W66336  36.952   4.027  13.991
94011W        W66337  19.092  37.892   3.611
94012W        W66338  25.738   9.723  10.566
94013W        W66339  11.108  43.075   4.128
94014W        W66340   0.695  32.671   2.362
94015W        W66341  28.488  39.858   4.813
94016W        W66342  25.274  11.289  10.346
94017W        W66343  26.399   7.213  11.460
94018W        W66344   2.296  40.266  13.834
94019W        W66345   8.709  36.099   1.155
94020W        W66346  36.337  43.819  13.368
94021W        W66347  10.760  33.693   3.365
94022W        W66348  20.639  25.221  13.916
94023W        W66349  28.440  37.916   2.311
94024W        W66350  28.438  43.579  11.002
94025W        W66351   6.926  13.768   0.014
94026W        W66352  15.155  11.299   4.232
94027W        W66353  29.152  13.840  12.060
94028W        W66354   1.058  36.613   2.732
94029W        W66355  18.099   9.252  11.481
94030W        W66356  44.378  29.212   2.752
94031W        W66357  22.175  27.421  12.893
94032W        W66358   5.800  18.733   0.715
94033W        W66359  32.899  41.522  14.396
94034W        W66360  33.413  27.717   3.233
94035W        W66361   7.912   1.970   3.678
94036W        W66362  37.268   0.569  12.174
94037W        W66363   6.315   5.728   2.376
94038W        W66364  43.709  22.088   0.478
94039W        W66365  41.927   8.492   1.255
94040W        W66366  31.392  38.815   2.773
94041W        W66367  31.018  15.493   1.725
94042W        W66368   5.168  37.768  14.236
94043W        W66369   2.031  36.377  14.735
94044W        W66370  27.907  13.771   0.414
94045W        W66371  28.902  24.602   1.261
94046W        W66372   3.399  30.743  14.050
94047W        W66373  10.390  36.660  12.058
94048W        W66374  20.440   9.665   1.315
94049W        W66375  39.972  18.830   3.926
94050W        W66376   6.947  41.985  11.555
94051W        W66377  20.022  40.474   0.677
94052W        W66378  34.045   4.679  14.189
94053W        W66379  22.541  39.499  12.395
94054W        W66380   7.484   6.882  12.152
94055W        W66381  24.044  32.412  13.830
94056W        W66382   9.373  10.448  11.593
94057W        W66383   8.879  25.098  12.564
94058W        W66384  42.492  43.805  14.901
94059W        W66385  33.562  41.455   0.961
94060W        W66386  27.194   4.397   0.128
94061W        W66387  43.068  43.065  10.893
94062W        W66388  36.457  29.451   2.805
94063W        W66389  33.396  11.758  12.133
94064W        W66390  21.690  38.927   9.781
94065W        W66391   7.252  34.836  11.167
94066W        W66392  10.223  18.771  11.774
94067W        W66393  33.185  31.506  13.094
94068W        W66394  30.382  28.750   2.926
94069W        W66395   1.264  18.230   2.349
94070W        W66396  37.562   7.330  10.664
94071W        W66397  11.253  16.029  12.795
94072W        W66398  14.491  13.191  13.755
94073W        W66399   9.448  19.128   3.641
94074W        W66400  36.094  25.001  14.914
94075W        W66401  23.565   2.669  14.009
94076W        W66402   2.592  43.084   4.275
94077W        W66403  15.576  39.917   0.022
94078W        W66404  41.991  35.614   3.303
94079W        W66405  42.425   5.632   1.748
94080W        W66406  32.664  24.250  11.550
94081W        W66407   7.372  15.074   1.785
94082W        W66408   8.944  30.988   4.776
94083W        W66409  11.863  17.552   4.193
94084W        W66410  43.056  42.489  12.511
94085W        W66411   3.844  33.952  14.758
94086W        W66412  35.575  13.091   2.837
94087W        W66413  37.145   9.715  10.629
94088W        W66414   9.702  43.508  10.933
94089W        W66415  40.269  15.112  14.323
94090W        W66416  25.972  43.285  12.466
94091W        W66417  18.145  19.517  14.812
94092W        W66418  17.652  26.456  11.618
94093W        W66419   6.559  29.053   3.237
94094W        W66420  16.287  18.987  11.981
94095W        W66421   3.932  29.400   3.743
94096W        W66422  18.031  37.668  10.445
94097W        W66423   1.716  21.114  13.969
94098W        W66424  27.338   4.202  11.953
94099W        W66425  23.814  40.866   4.289
94100W        W66426  31.365  22.471   1.885
94101W        W66427  42.208  38.572   1.713
94102W        W66428  18.052  36.056  12.592
94103W        W66429   3.772  22.279  12.672
94104W        W66430  23.191  26.712   3.256
94105W        W66431  41.784  30.415  13.500
94106W        W66432  38.406  27.799   0.868
94107W        W66433  24.462   9.513   1.856
94108W        W66434   9.436  14.052   2.715
94109W        W66435   7.160   4.450   0.259
94110W        W66436  28.445  17.765  10.640
94111W        W66437  37.368  21.401  11.644
94112W        W66438  13.113  28.552  14.093
94113W        W66439  19.831   2.713  13.523
94114W        W66440   7.861  37.192  13.014
94115W        W66441  13.611  15.146   0.323
94116W        W66442  13.368  44.197   2.290
94117W        W66443  33.223  11.789  14.884
94118W        W66444  27.459  42.974  14.269
94119W        W66445  28.110  27.012   0.927
94120W        W66446   9.922  40.532   2.673
94121W        W66447  19.190  16.385  10.648
94122W        W66448  32.138   5.840   2.183
94123W        W66449  20.165  37.082  13.805
94124W        W66450  28.783  44.183  14.330
94125W        W66451  30.143  29.075  10.906
94126W        W66452  20.569   7.602   3.301
94127W        W66453  17.033  27.530   3.701
94128W        W66454  32.001  30.346   1.641
94129W        W66455  16.727  35.589  12.836
94130W        W66456  39.971  38.795  11.089
94131W        W66457  44.719  20.957  11.958
94132W        W66458  13.891  41.284  11.693
94133W        W66459   2.838   3.741  11.145
94134W        W66460  36.515   3.210   0.769
94135W        W66461  24.221   0.885  13.471
94136W        W66462   0.590  16.399   2.381
94137W        W66463  22.525   7.919   1.683
94138W        W66464  13.404  36.464   1.238
94139W        W66465  19.074  26.791   0.665
94140W        W66466   8.298  14.356   4.935
94141W        W66467  19.221   1.296  12.345
94142W        W66468  18.145  36.331  14.979
94143W        W66469  33.975  19.530  11.929
94144W        W66470  14.622  26.679   0.817
94145W        W66471  10.078  44.283  13.259
94146W        W66472  43.393  23.467   1.252
94147W        W66473   5.849   6.144   4.136
94148W        W66474  32.084  44.498  10.478
94149W        W66475  17.773  16.259   2.269
94150W        W66476   5.957   3.729   2.378
94151W        W66477  29.638  40.136   1.372
94152W        W66478   7.229  15.296  14.259
94153W        W66479  21.831  41.537   2.227
94154W        W66480  10.439  22.814  11.077
94155W        W66481  25.965  35.330   4.613
94156W        W66482  33.513   3.326   4.488
94157W        W66483  28.662  24.973   0.145
94158W        W66484   2.779  12.555   4.661
94159W        W66485  23.595  27.619   0.720
94160W        W66486  30.395  13.405  11.625
94161W        W66487  11.809  18.596  12.861
94162W        W66488  34.927  43.744   4.507
94163W        W66489  15.689  24.122   3.409
94164W        W66490  39.873  22.577   4.885
94165W        W66491  17.211   7.078  11.901
94166W        W66492  27.259  14.921  12.527
94167W        W66493   1.920  12.595   4.163
94168W        W66494  11.135  19.977  11.498
94169W        W66495  26.250  14.885   3.764
94170W        W66496   2.980  27.917  13.057
94171W        W66497  15.841  40.640  14.508
94172W        W66498  22.471  15.683   2.157
94173W        W66499  43.294   3.873  13.380
94174W        W66500  14.225  41.550  10.284
94175W        W66501  21.061   7.688  11.572
94176W        W66502  13.829  44.107  11.584
94177W        W66503  15.360  34.525  14.535
94178W        W66504  42.405  21.713  10.578
94179W        W66505  30.619  37.471   3.219
94180W        W66506  32.483   5.180  12.136
94181W        W66507  43.794  35.568  14.210
94182W        W66508   8.314  34.902  10.411
94183W        W66509   9.749  13.240   4.347
94184W        W66510  28.557  28.259  10.982
94185W        W66511  40.841  40.292  11.216
94186W        W66512  10.621  17.121  11.496
94187W        W66513  26.159   0.471   4.694
94188W        W66514  15.773  11.808  11.591
94189W        W66515   2.847  20.454   0.846
94190W        W66516  30.547   4.388  11.436
94191W        W66517   9.205   5.293  10.404
94192W        W66518  41.838  11.282  11.954
94193W        W66519  39.723  44.178  12.428
94194W        W66520  14.969  43.304   0.918
94195W        W66521  40.340   3.869   4.105
94196W        W66522  14.888   9.165   3.413
94197W        W66523  25.266  39.976  14.007
94198W        W66524  16.286  18.002   4.121
94199W        W66525  27.053  26.640   0.344
94200W        W66526  36.563  21.549   0.463
94201W        W66527   1.670  37.186   4.868
94202W        W66528  33.036  30.409  13.968
94203W        W66529  23.706  41.459   4.966
94204W        W66530  10.897  20.602  13.474
94205W        W66531   6.794  22.458   0.264
94206W        W66532  17.769  32.093   1.786
94207W        W66533  14.051  15.231   4.522
94208W        W66534   1.767  36.339  13.848
94209W        W66535  16.287  20.110   2.352
94210W        W66536  12.730  32.798  12.883
94211W        W66537  43.428  35.553   3.934
94212W        W66538  12.616  44.511   0.836
94213W        W66539  41.844  27.461  14.444
94214W        W66540  23.009  12.584  12.076
94215W        W66541  36.068  18.012   4.063
94216W        W66542  31.121  41.399   0.188
94217W        W66543   1.823  28.482   1.360
94218W        W66544  16.120  36.342   1.317
94219W        W66545  21.504   2.026  13.906
94220W        W66546  13.413  44.409  11.891
94221W        W66547  35.217  31.883  14.655
94222W        W66548  21.723  17.120   9.859
94223W        W66549  44.795  29.973   0.886
94224W        W66550   0.584  41.859   4.142
94225W        W66551  41.253  29.619   2.381
94226W        W66552  34.404   0.278  13.397
94227W        W66553  44.056  34.282  11.825
94228W        W66554  23.515  44.448  12.366
94229W        W66555  24.446  10.372   0.837
94230W        W66556  42.744  14.362   4.117
94231W        W66557  38.648   4.007   1.942
94232W        W66558  26.966   8.362   0.208
94233W        W66559  19.156   0.020  11.866
94234W        W66560  31.850   8.854   1.325
94235W        W66561   4.721  19.152  11.131
94236W        W66562   0.984   0.134   3.192
94237W        W66563   7.352   9.795   0.331
94238W        W66564  14.618  19.643   2.689
94239W        W66565  16.785  44.635  14.857
94240W        W66566  29.650  15.870   3.809
94241W        W66567   3.004   9.227   2.940
94242W        W66568  19.388  22.269  14.823
94243W        W66569  31.014  35.675  10.743
94244W        W66570  20.746  22.175   1.881
94245W        W66571  15.014   1.466  10.801
94246W        W66572  37.050  26.251   4.145
94247W        W66573  21.018  22.059   2.299
94248W        W66574  25.902  21.719  14.476
94249W        W66575   6.954   9.278  11.565
94250W        W66576  34.086  22.226   1.820
94251W        W66577  37.876  14.315  12.013
94252W        W66578  35.580  12.279  13.829
94253W        W66579  18.765  22.535   3.844
94254W        W66580   6.437   6.670   0.862
94255W        W66581  44.236  17.167   2.262
94256W        W66582  10.924  44.535  13.546
94257W        W66583  24.571  28.673  13.392
94258W        W66584  28.046   4.231  14.858
94259W        W66585  40.510  10.436   1.860
94260W        W66586  26.874  25.080  13.861
94261W        W66587  28.813   9.377   1.813
94262W        W66588  29.582  40.075  14.605
94263W        W66589  31.955   9.180   2.807
94264W        W66590  23.206  19.268  14.825
94265W        W66591  37.002   3.741   1.785
94266W        W66592  18.578  10.196   2.414
94267W        W66593  41.829  38.982   0.007
94268W        W66594  44.351  30.172   3.100
94269W        W66595  44.927  42.848  13.776
94270W        W66596  40.246   5.843   1.301
94271W        W66597  10.844  21.067  10.751
94272W        W66598   1.985  42.115   1.481
94273W        W66599  34.357  10.115   3.243
94274W        W66600  13.033   8.850  14.789
94275W        W66601  33.953   0.473   1.062
94276W        W66602   6.735   8.687  12.867
94277W        W66603  24.446  19.433   2.538
94278W        W66604  36.459  37.394   2.663
94279W        W66605  32.110  13.035  10.288
94280W        W66606  35.396  33.319  11.080
94281W        W66607   3.652  43.571   4.741
94282W        W66608  39.804   1.940   3.707
94283W        W66609   2.139  21.916   2.871
94284W        W66610   3.139  43.224  12.536
94285W        W66611  41.238  40.115  13.605
94286W        W66612  30.622  36.033   2.624
94287W        W66613  22.503  43.839   4.711
94288W        W66614  40.829  34.873   0.970
94289W        W66615  44.740  16.182  10.712
94290W        W66616  11.710  31.490  10.570
94291W        W66617  12.115   6.754   0.983
94292W        W66618  14.717   0.958   3.862
94293W        W66619  29.981  36.392   3.826
94294W        W66620  43.441  29.683   0.500
94295W        W66621  13.220  43.080  14.466
94296W        W66622  27.095  29.396  11.161
94297W        W66623  17.075   8.859   3.723
94298W        W66624  37.586  30.579  10.626
94299W        W66625  36.796  20.789   2.832
94300W        W66626   9.569  36.270   2.322
94301W        W66627  18.955  12.913  11.773
94302W        W66628  28.099   4.756   1.781
94303W        W66629  23.200  27.621  14.907
94304W        W66630  24.161  37.674  11.152
94305W        W66631  35.841  29.454  11.185
94306W        W66632  27.258  38.391   2.401
94307W        W66633  14.993  36.447   1.307
94308W        W66634  27.606  18.764   4.873
94309W        W66635  32.073   7.312   0.909
94310W        W66636   8.284  22.308   3.158
94311W        W66637   9.275  20.208   3.584
94312W        W66638  31.858  26.020   3.259
94313W        W66639  44.827  35.664  11.333
94314W        W66640   0.010  42.844   1.440
94315W        W66641   2.470  13.634   4.813
94316W        W66642  17.482  26.686   2.447
94317W        W66643  20.522   2.122   1.873
94318W        W66644   0.415  43.897  10.570
94319W        W66645   6.916  21.170   1.813
94320W        W66646  17.343  28.465   4.378
94321W        W66647  15.705   8.818   0.674
94322W        W66648  39.420  21.012  13.152
94323W        W66649  30.939  42.704   5.129
94324W        W66650  20.144   7.144   1.836
94325W        W66651  38.107   8.732   1.400
94326W        W66652  28.488  29.584   0.629
94327W        W66653  14.191  28.057   2.831
94328W        W66654  37.098   7.418  11.532
94329W        W66655  20.938  38.926  13.847
94330W        W66656   7.268  41.548   0.913
94331W        W66657  27.442   3.908  11.525
94332W        W66658  37.580   8.622   1.419
94333W        W66659  15.143  19.879  14.480
94334W        W66660  17.149  43.050   2.192
94335W        W66661  41.688  28.516  11.613
94336W        W66662  22.230  20.976   3.356
94337W        W66663  18.765  12.442   1.758
94338W        W66664  15.759  10.840   4.677
94339W        W66665  34.617  10.793  13.783
94340W        W66666  44.096   1.016  12.598
94341W        W66667  27.971  39.884   2.890
94342W        W66668  31.429  31.635   1.918
94343W        W66669  21.118   9.060  13.611
94344W        W66670  41.875  21.022  11.760
94345W        W66671  38.264  20.603  12.609
94346W        W66672  20.370  43.218   5.190
94347W        W66673  32.238  29.676  10.715
94348W        W66674   6.921   9.143  14.933
94349W        W66675  33.636  19.152   4.666
94350W        W66676  20.694   6.923  10.495
94351W        W66677  39.045  21.277   3.540
94352W        W66678  36.531   8.944   2.394
94353W        W66679   7.009  39.082  14.507
94354W        W66680  26.609   4.365   4.565
94355W        W66681  20.082  29.714  13.816
94356W        W66682  26.696  44.479  10.393
94357W        W66683  11.095   5.702  11.447
94358W        W66684  30.470  16.564   4.217
94359W        W66685   2.241  13.685   0.336
94360W        W66686  32.926   6.584   4.174
94361W        W66687  28.083  37.122  14.757
94362W        W66688   6.775   1.649   0.879
94363W        W66689   8.364  25.893   0.308
94364W        W66690  19.664  33.599  14.721
94365W        W66691  37.905  36.040  12.516
94366W        W66692  40.198  11.338   4.803
94367W        W66693   5.148  36.536   3.583
94368W        W66694   6.849   9.752   0.351
94369W        W66695  43.364  25.067   2.289
94370W        W66696   3.437  26.384  11.927
94371W        W66697  35.577  31.077  12.630
94372W        W66698  21.536  10.790  10.869
94373W        W66699  41.549  41.951   3.398
94374W        W66700  40.494  26.909   4.146
94375W        W66701  13.638  23.801  11.929
94376W        W66702  33.402   2.860  14.327
94377W        W66703  10.247   3.825   0.617
94378W        W66704  27.879  11.236   4.089
94379W        W66705   5.444  18.241   2.925
94380W        W66706  43.369  27.670   0.560
94381W        W66707  10.433   1.300  14.275
94382W        W66708  38.426   1.133   1.446
94383W        W66709   0.353   1.189  12.409
94384W        W66710  11.623  29.642  14.419
94385W        W66711  15.643  12.842   0.207
94386W        W66712  19.031  21.313  14.910
94387W        W66713   4.321   2.210   3.321
94388W        W66714  30.615   6.157  13.929
94389W        W66715  19.596  21.095  13.804
94390W        W66716  28.694   5.658  14.339
94391W        W66717  39.172  35.657  13.046
94392W        W66718  16.224  13.794  12.438
94393W        W66719  13.605   4.902   2.800
94394W        W66720   7.358  22.505   2.662
94395W        W66721  42.895  33.923  12.683
94396W        W66722   7.132  33.096   4.499
94397W        W66723  16.745  42.767   2.390
94398W        W66724   8.935  10.785  14.475
94399W        W66725  34.142   6.760   2.683
94400W        W66726  13.333  32.040   2.718
94401W        W66727  22.713  13.298  11.652
94402W        W66728  17.915  30.202  13.666
94403W        W66729  41.759  12.656  13.579
94404W        W66730  44.769  36.950   2.261
94405W        W66731  28.240  41.367   2.826
94406W        W66732  19.280  12.968  13.863
94407W        W66733  21.253  23.871   3.494
94408W        W66734   1.026   5.937  14.028
94409W        W66735  41.469   1.060   3.581
94410W        W66736   8.748  29.171   0.361
94411W        W66737  24.037   2.913   2.396
94412W        W66738   0.780   8.322   3.296
94413W        W66739  30.290  13.600   3.551
94414W        W66740  10.357   6.312  11.639
94415W        W66741   5.106  39.376  12.522
94416W        W66742  35.349  34.352   4.183
94417W        W66743  43.950  25.471   0.797
94418W        W66744   3.797   1.992   0.148
94419W        W66745  38.410  22.166  11.954
94420W        W66746  15.021   7.683  12.958
94421W        W66747  22.190  16.850   0.394
94422W        W66748  44.465  10.296   4.083
94423W        W66749  11.710   2.443   3.831
94424W        W66750  12.639  14.358  13.815
94425W        W66751  12.838  43.419  11.184
94426W        W66752   0.169   6.881   3.828
94427W        W66753   5.634  33.678  13.463
94428W        W66754  42.732   0.898   0.148
94429W        W66755  43.218  15.460  14.586
94430W        W66756  27.049  28.099  13.941
94431W        W66757  11.824  17.643  14.162
94432W        W66758  44.919  11.793   4.912
94433W        W66759   7.817  42.776   2.248
94434W        W66760  25.973  31.029  13.784
94435W        W66761  36.108  13.437  10.127
94436W        W66762  19.128  44.818  12.848
94437W        W66763  24.053  15.148   4.498
94438W        W66764  32.252  23.557  10.680
94439W        W66765  40.060  40.999  14.014
94440W        W66766  24.493  17.125  12.511
94441W        W66767  27.981  36.478   2.285
94442W        W66768  21.499  31.663   1.157
94443W        W66769  44.624  37.482   5.096
94444W        W66770   1.474   7.575  13.542
94445W        W66771   8.133  16.881  10.841
94446W        W66772   1.238  28.576  14.285
94447W        W66773  38.430  42.264  13.006
94448W        W66774  25.538  19.799  11.046
94449W        W66775  32.370  28.072  13.354
94450W        W66776   4.594  44.246   1.324
94451W        W66777  11.046   7.855   4.608
94452W        W66778   7.198  43.279   0.700
94453W        W66779  37.593  34.782  13.853
94454W        W66780  19.016   0.953   2.447
94455W        W66781  43.567   4.202  10.886
94456W        W66782   7.160   4.288   2.677
94457W        W66783   8.113  34.790  11.419
94458W        W66784  13.650  30.543  14.913
94459W        W66785  12.286  13.016  10.905
94460W        W66786  15.608  44.965  11.975
94461W        W66787   6.682   2.032  10.606
94462W        W66788  14.866  36.682   1.847
94463W        W66789   0.717  17.722  11.134
94464W        W66790   3.266  34.784   1.082
94465W        W66791   0.833  31.852   0.959
94466W        W66792  37.757  40.973  11.580
94467W        W66793  21.363  18.524  13.505
94468W        W66794  44.814  43.264   4.272
94469W        W66795  34.327  30.487  13.204
94470W        W66796  11.342   7.170  12.733
94471W        W66797   2.905  41.052  14.829
94472W        W66798   2.451  15.734  12.438
94473W        W66799   5.233  25.672   1.103
94474W        W66800  42.081  21.439   4.164
94475W        W66801   2.433  12.884   1.399
94476W        W66802  24.240  19.308   1.948
94477W        W66803  36.648  10.686   1.965
94478W        W66804  14.897  20.889   4.490
94479W        W66805  18.430  26.931  13.811
94480W        W66806  20.130   3.831   3.696
94481W        W66807   0.441  28.883  14.384
94482W        W66808  16.061   0.061   1.359
94483W        W66809  23.702   9.642   3.406
94484W        W66810   3.964  33.637  11.605
94485W        W66811  31.700  18.917   0.684
94486W        W66812   9.932  28.664   3.424
94487W        W66813  36.912  29.354   3.147
94488W        W66814  31.005  16.619  12.664
94489W        W66815  27.646  37.389   3.276
94490W        W66816  37.378   4.017  13.297
94491W        W66817  14.280  12.043  13.585
94492W        W66818  16.840   5.315   0.842
94493W        W66819   3.780  20.923   0.723
94494W        W66820  38.301  14.248  12.896
94495W        W66821  42.962  27.969   4.321
94496W        W66822  26.910   9.695  14.039
94497W        W66823  21.177  10.752  14.977
94498W        W66824  21.902  32.972   2.861
94499W        W66825  20.828   4.095   4.299
94500W        W66826  44.233  31.127  14.967
94501W        W66827  44.497  34.493   1.200
94502W        W66828  40.156  35.532  13.024
94503W        W66829  21.302  38.793   1.221
94504W        W66830   2.000  32.129   2.826
94505W        W66831  23.799  22.644  13.153
94506W        W66832  36.331  20.167   1.382
94507W        W66833  27.032   5.888   2.911
94508W        W66834  27.286  37.801   0.508
94509W        W66835  12.109  15.817  14.408
94510W        W66836  25.540  33.764   2.326
94511W        W66837   4.410  27.697   0.508
94512W        W66838  14.506  23.163   4.109
94513W        W66839  23.329  22.770  10.752
94514W        W66840  44.508  15.591  14.379
94515W        W66841  11.479  14.410  13.283
94516W        W66842   0.529  20.137   3.184
94517W        W66843  31.505  36.833   0.865
94518W        W66844  12.615  41.816  13.415
94519W        W66845  41.490  37.434  11.580
94520W        W66846   0.430  29.543  11.008
94521W        W66847   1.336  37.737  12.058
94522W        W66848  29.575  24.843   0.428
94523W        W66849  12.753  32.956  10.570
94524W        W66850  25.040  18.176  10.317
94525W        W66851   4.411  22.220  11.587
94526W        W66852  17.082  27.565  12.175
94527W        W66853  36.917  26.462   4.657
94528W        W66854  39.426  15.211   0.983
94529W        W66855   7.914  40.245   3.628
94530W        W66856   7.437  17.673   1.400
94531W        W66857   4.215   6.240  11.459
94532W        W66858  16.547  42.929  10.043
94533W        W66859  14.066  21.950   1.740
94534W        W66860  26.671  18.966  11.085
94535W        W66861  20.150  35.431  10.654
94536W        W66862  28.589   6.360  13.911
94537W        W66863  12.126  25.163   4.653
94538W        W66864  33.626  13.435   2.607
94539W        W66865  14.245  44.403   3.409
94540W        W66866  19.268  43.359  13.243
94541W        W66867  18.315  20.589  12.473
94542W        W66868  43.280  38.967   1.172
94543W        W66869  41.096  29.151  14.290
94544W        W66870  21.056   5.248  13.555
94545W        W66871  19.734   9.875  11.962
94546W        W66872  30.518  23.383  11.174
94547W        W66873  35.366  13.195  12.899
94548W        W66874  43.583  44.675  10.891
94549W        W66875  30.123  38.935  11.076
94550W        W66876   0.420  21.270   4.942
94551W        W66877  18.719   2.029   0.988
94552W        W66878   4.776   8.819  14.229
94553W        W66879  25.870  21.187  14.501
94554W        W66880  39.499  18.109   2.286
94555W        W66881  40.554  20.552   3.921
94556W        W66882  26.079  44.306  13.228
94557W        W66883  19.822  16.018  13.320
94558W        W66884   0.820   7.983  10.764
94559W        W66885  17.564   3.192  13.394
94560W        W66886   9.413  38.951   4.925
94561W        W66887   7.168   0.628  13.729
94562W        W66888  28.188  17.757   1.239
94563W        W66889  27.824  19.951  11.168
94564W        W66890  12.665  38.577  13.908
94565W        W66891  23.051  24.005  10.652
94566W        W66892  35.926  43.501   1.835
94567W        W66893  26.103  43.903   1.951
94568W        W66894  17.868  31.418   2.163
94569W        W66895  42.008   8.307   0.776
94570W        W66896  23.358  18.299  11.961
94571W        W66897  23.892  15.050  10.057
94572W        W66898  15.529  10.763   2.867
94573W        W66899  32.115   1.840   3.045
94574W        W66900  18.711  15.715   0.434
94575W        W66901  42.898  42.024  11.567
94576W        W66902  30.728  15.672   2.450
94577W        W66903  19.721   0.941  10.670
94578W        W66904  32.012  29.408   3.860
94579W        W66905  34.261   0.878   1.190
94580W        W66906  35.999  31.643   0.809
94581W        W66907  40.040  12.055   0.321
94582W        W66908  34.552   1.132   1.942
94583W        W66909  26.684  34.177  14.033
94584W        W66910  30.515  13.340   1.518
94585W        W66911  32.697  43.058   2.166
94586W        W66912  39.145   1.944  10.254
94587W        W66913   3.238  11.684  14.879
94588W        W66914  29.948   0.662   0.276
94589W        W66915  15.607  42.852  12.401
94590W        W66916  26.879  33.227  14.898
94591W        W66917   8.830  25.598   4.670
94592W        W66918  12.840  31.860   0.933
94593W        W66919   2.257   2.251   4.868
94594W        W66920  34.066   1.715   4.890
94595W        W66921  42.214  23.681   2.599
94596W        W66922  43.254  32.074   0.233
94597W        W66923   9.623  33.023  14.898
94598W        W66924  38.579   3.212  11.054
94599W        W66925  41.587  38.616  10.623
94600W        W66926  25.182  26.664  12.015
94601W        W66927  22.104  13.329   2.739
94602W        W66928   1.471  26.481  14.376
94603W        W66929   8.873  21.203   3.135
94604W        W66930  10.382  30.001  10.416
94605W        W66931  22.480  35.308   2.615
94606W        W66932  43.041   3.379   1.265
94607W        W66933   0.397  28.072   0.961
94608W        W66934  28.102   9.244   3.138
94609W        W66935   5.488  14.381  13.843
94610W        W66936  26.968   0.683  12.046
94611W        W66937  19.232   7.130  10.727
94612W        W66938  40.508  22.794   4.206
94613W        W66939  26.584  26.906   2.289
94614W        W66940  22.916  36.438   0.684
94615W        W66941  39.954  39.411  12.325
94616W        W66942  17.557  36.405   4.214
94617W        W66943  11.875  43.011  10.047
94618W        W66944  26.500  22.352  13.277
94619W        W66945   7.824  18.353   4.596
94620W        W66946  12.280  25.450   3.719
94621W        W66947  22.399   1.489   0.753
94622W        W66948  11.335  21.027  11.474
94623W        W66949  32.922  11.407  11.481
94624W        W66950  35.081  25.021  13.436
94625W        W66951  27.496   7.898   0.441
94626W        W66952  40.297   7.682   2.156
94627W        W66953   7.723  18.239  12.037
94628W        W66954  37.025  32.581   2.169
94629W        W66955   6.333   0.051  13.123
94630W        W66956  28.099  25.515   0.898
94631W        W66957   8.429   6.249  14.720
94632W        W66958  34.713  34.570  12.551
94633W        W66959  21.989  32.903   4.666
94634W        W66960  15.743   9.834  12.570
94635W        W66961  41.398  38.272  12.030
94636W        W66962  10.371  37.503   2.349
94637W        W66963  41.737   2.941   2.643
94638W        W66964  11.129   4.319   2.177
94639W        W66965   3.340  13.640  12.653
94640W        W66966   3.826   7.197   2.430
94641W        W66967  16.689   8.394  13.543
94642W        W66968  20.159  13.392   1.611
94643W        W66969  23.054  30.535   1.307
94644W        W66970   4.466  35.921  10.665
94645W        W66971   0.861  21.536   2.896
94646W        W66972  39.895  15.095  12.512
94647W        W66973   0.804  40.999  13.136
94648W        W66974   0.257  29.814   4.445
94649W        W66975  14.090  42.490  11.897
94650W        W66976   2.049  10.724   0.818
94651W        W66977  30.290  40.525  13.972
94652W        W66978   7.600  19.661  10.581
94653W        W66979   1.359  24.423  10.620
94654W        W66980  19.190  42.787  10.523
94655W        W66981  26.716   1.007  12.378
94656W        W66982  17.520  27.718   3.173
94657W        W66983   6.197  14.833  14.084
94658W        W66984  11.503  37.869   4.343
94659W        W66985  12.702  26.123   1.651
94660W        W66986   3.636  15.775   3.356
94661W        W66987  37.861   1.408  14.933
94662W        W66988  16.990  34.098   2.370
94663W        W66989  42.186  43.060   2.608
94664W        W66990   4.906  23.695   3.055
94665W        W66991  24.950  42.072   1.904
94666W        W66992  17.321  36.647  10.740
94667W        W66993  29.809  39.907   3.202
94668W        W66994  21.508  27.999   4.157
94669W        W66995   4.978  12.377   1.946
94670W        W66996  28.590  37.760  12.767
94671W        W66997  35.484  13.221  11.388
94672W        W66998  35.896  18.159  11.209
94673W        W66999  39.947  13.109  13.552
94674W        W67000  17.857  27.580   1.828
94675W        W67001   4.369   1.282  11.915
94676W        W67002  32.984  16.849  12.450
94677W        W67003  44.405  42.733  14.021
94678W        W67004  13.372  37.861  13.063
94679W        W67005  10.865  17.637   2.128
94680W        W67006  17.548  27.099   4.159
94681W        W67007  23.523  41.404  12.066
94682W        W67008  23.807  25.805  14.377
94683W        W67009  24.570  30.585   2.324
94684W        W67010  20.239  32.642  13.511
94685W        W67011  10.338  42.065  14.435
94686W        W67012  29.530  37.560   4.026
94687W        W67013  10.255  32.595   4.208
94688W        W67014  41.843  12.557   0.012
94689W        W67015  40.343  34.269   4.039
94690W        W67016  36.614  15.643   3.870
94691W        W67017   6.837   9.711  13.106
94692W        W67018  43.851  22.402   4.794
94693W        W67019  12.022  30.014   0.885
94694W        W67020  24.112  41.868  11.554
94695W        W67021  29.525  23.566   3.224
94696W        W67022  14.180  32.899  14.913
94697W        W67023  22.573  21.535  12.483
94698W        W67024  43.225   8.381  13.502
94699W        W67025  31.555  19.126   0.040
94700W        W67026  20.945   3.685   3.543
94701W        W67027  43.368  13.567  10.892
94702W        W67028  13.272  41.042   1.803
94703W        W67029   8.170   1.633   4.564
94704W        W67030  35.630  35.605  10.480
94705W        W67031   2.143  17.548   1.675
94706W        W67032  20.696  16.534  13.531
94707W        W67033   3.341  21.958  12.803
94708W        W67034  24.550   4.528  12.886
94709W        W67035  17.315  12.791  11.859
94710W        W67036  26.331   6.359  14.359
94711W        W67037   3.864  22.319  14.463
94712W        W67038  42.343  39.434   1.900
94713W        W67039  39.418   5.482   2.010
94714W        W67040  24.275  12.474  11.491
94715W        W67041  16.819  25.745  12.383
94716W        W67042   4.828  38.210   1.129
94717W        W67043  44.745  24.266   3.186
94718W        W67044  13.654  22.257   4.085
94719W        W67045  14.452   2.808   1.421
94720W        W67046  36.326   5.905   2.315
94721W        W67047  16.169  23.808  14.366
94722W        W67048  26.249  44.805   1.247
94723W        W67049  38.491  35.644  13.642
94724W        W67050  27.866  19.176  12.425
94725W        W67051   7.428  12.122   0.798
94726W        W67052  32.585  44.552  11.205
94727W        W67053  39.588  26.434   2.379
94728W        W67054  19.025  28.525  11.103
94729W        W67055  38.829   6.176  14.731
94730W        W67056  10.050   8.654   4.701
94731W        W67057   8.333  23.601   0.825
94732W        W67058  40.552  42.769   0.415
94733W        W67059   4.672   8.276  12.244
94734W        W67060   5.974  35.535   4.881
94735W        W67061  17.070  36.160  12.754
94736W        W67062  41.907  35.197   1.466
94737W        W67063  15.297  27.105  13.557
94738W        W67064  27.502  30.473  13.309
94739W        W67065  43.676  25.389  13.888
94740W        W67066  21.126  18.813  11.708
94741W        W67067  13.585  24.454   2.196
94742W        W67068  19.192  30.521   4.473
94743W        W67069  42.055  16.119   2.412
94744W        W67070  32.574  39.308   3.787
94745W        W67071  28.286  28.075   2.766
94746W        W67072  43.310  33.552  11.108
94747W        W67073  11.774  28.416  13.979
94748W        W67074  35.930  44.252  12.764
94749W        W67075  13.514   3.453   4.035
94750W        W67076  15.265  33.527  13.489
94751W        W67077   0.355  33.066   4.573
94752W        W67078  35.330  36.979  14.321
94753W        W67079   6.891  29.067  14.793
94754W        W67080  23.979  22.958   0.805
94755W        W67081   1.184  26.917  14.342
94756W        W67082  11.047  11.739   4.576
94757W        W67083  28.782   9.937   0.937
94758W        W67084  39.482  25.749  12.823
94759W        W67085  19.489  32.455  13.332
94760W        W67086  30.751  31.934   3.003
94761W        W67087   5.192  25.418   2.524
94762W        W67088   7.395  25.043   1.795
94763W        W67089  20.330  37.456   0.304
94764W        W67090  27.441   8.425  13.903
94765W        W67091  26.125  31.618  13.071
94766W        W67092   4.216  37.606   1.843
94767W        W67093  18.928  26.491  14.462
94768W        W67094  17.681  19.037   1.526
94769W        W67095  22.588  23.127   3.766
94770W        W67096   6.997   9.071   2.747
94771W        W67097  32.941   5.856   3.501
94772W        W67098  34.091  22.165  13.060
94773W        W67099  20.154   3.357  10.392
94774W        W67100  25.838  33.585  12.865
94775W        W67101   0.472   3.413   1.175
94776W        W67102  24.012   7.388   0.439
94777W        W67103  22.624  25.742  10.514
94778W        W67104  15.759  44.546   0.842
94779W        W67105  36.001  17.297   4.524
94780W        W67106   9.528  37.715  10.878
94781W        W67107   9.160  26.704  12.149
94782W        W67108  37.157  17.186  12.979
94783W        W67109  10.923  32.983   3.777
94784W        W67110  33.656   0.931  13.003
94785W        W67111  19.271  15.120   1.772
94786W        W67112  31.268   7.508   4.190
94787W        W67113  32.553  29.327   2.954
94788W        W67114  17.297  17.034   2.997
94789W        W67115  13.987  32.346   4.634
94790W        W67116  32.795  21.237   3.057
94791W        W67117  15.184  44.553   4.160
94792W        W67118  39.363  38.070  14.920
94793W        W67119  26.744  36.059  14.887
94794W        W67120  14.196  18.070   4.228
94795W        W67121   0.100  40.402  13.369
94796W        W67122  37.387   8.611   2.917
94797W        W67123  43.580  34.837   3.446
94798W        W67124  28.082   2.842   3.659
94799W        W67125  38.396  14.302   0.413
94800W        W67126  18.616  21.443   2.437
94801W        W67127  19.784  34.489  14.967
94802W        W67128  34.620  41.534  11.666
94803W        W67129  17.633  35.328  14.370
94804W        W67130  30.964  18.945  12.478
94805W        W67131   2.669  30.645   0.130
94806W        W67132  26.500  31.419   3.717
94807W        W67133  13.292  14.121  13.180
94808W        W67134  12.608  33.639   2.362
94809W        W67135  35.855  31.505  12.512
94810W        W67136  33.615  30.449   2.407
94811W        W67137  18.736   2.993   3.434
94812W        W67138  32.874  10.884  11.525
94813W        W67139   3.454  15.551  13.488
94814W        W67140  43.431  10.281   1.524
94815W        W67141  30.947  42.300   2.747
94816W        W67142  22.937  38.736   1.731
94817W        W67143  22.589   1.186   3.862
94818W        W67144  28.571  30.331  11.044
94819W        W67145   2.244  30.931   3.832
94820W        W67146  39.801  23.185  13.686
94821W        W67147  35.611   1.892   4.947
94822W        W67148  20.971  36.081   0.865
94823W        W67149  36.074  19.210   2.679
94824W        W67150  10.440   8.751  12.024
94825W        W67151  20.683  19.537  10.863
94826W        W67152  32.072  18.310   2.404
94827W        W67153  14.620  23.201   0.461
94828W        W67154  27.146  15.579   1.348
94829W        W67155  32.667  40.201  11.533
94830W        W67156  33.330  21.632   4.459
94831W        W67157  30.899  18.466  13.332
94832W        W67158  37.312  35.800  11.667
94833W        W67159  15.307  13.803  13.778
94834W        W67160  10.124  21.691  14.227
94835W        W67161  10.917  19.017   2.115
94836W        W67162  18.917   3.137  13.520
94837W        W67163   7.963  29.082  14.931
94838W        W67164  18.296  23.156  10.759
94839W        W67165   3.284   3.284   2.137
94840W        W67166  33.970   3.650   1.651
94841W        W67167  18.489  40.903  14.369
94842W        W67168  30.250  10.727   4.367
94843W        W67169   0.334  27.408  12.576
94844W        W67170  40.403  27.681   1.730
94845W        W67171  31.198  23.259   0.520
94846W        W67172  11.291   2.985   0.514
94847W        W67173  13.872   2.438  10.646
94848W        W67174  33.448  32.142  10.699
94849W        W67175  11.879  41.444   1.809
94850W        W67176  10.570   5.298   2.169
94851W        W67177  16.325  10.564  12.423
94852W        W67178  41.592  10.198   3.706
94853W        W67179  31.254  11.766  13.058
94854W        W67180  39.276  36.624   9.997
94855W        W67181  13.747  17.065   2.397
94856W        W67182   1.513  22.107  12.369
94857W        W67183   7.706   3.942   0.440
94858W        W67184  11.367  32.427  12.708
94859W        W67185  24.777   0.909  12.559
94860W        W67186  10.462   5.808   4.976
94861W        W67187  35.628  31.624   4.812
94862W        W67188  21.234  37.659   4.581
94863W        W67189  13.249  14.105   3.143
94864W        W67190  20.110  21.051   0.928
94865W        W67191  35.386  33.069   0.826
94866W        W67192  28.072  10.838   2.226
94867W        W67193  40.255  39.810  12.520
94868W        W67194   7.197  42.053  14.332
94869W        W67195   5.815  12.656   1.366
94870W        W67196  26.918  41.964  14.954
94871W        W67197  32.567  30.470   2.473
94872W        W67198   7.720  29.556   4.888
94873W        W67199  34.996  23.991   4.953
94874W        W67200   7.683   2.996   2.774
94875W        W67201  20.677  35.611  11.360
94876W        W67202  21.598   5.944   1.806
94877W        W67203  42.791  20.059   1.841
94878W        W67204  35.572  15.565   3.749
94879W        W67205  11.389  20.150   0.947
94880W        W67206   5.258  12.876  13.872
94881W        W67207   8.055   4.643  13.441
94882W        W67208  24.067  26.360   5.373
94883W        W67209  24.067  32.402   2.764
94884W        W67210  28.710   2.397  14.907
94885W        W67211  40.054  10.058  10.781
94886W        W67212  16.018  43.401  14.041
94887W        W67213  37.207   8.440   0.300
94888W        W67214   7.906  19.737  12.478
94889W        W67215  29.162  28.521  13.885
94890W        W67216  11.367  12.812   0.383
94891W        W67217   1.733  39.754   0.986
94892W        W67218  27.927  22.649  13.429
94893W        W67219  25.781   0.770   1.732
94894W        W67220  10.796  18.600  12.944
94895W        W67221   0.273  20.035   0.300
94896W        W67222  36.561   0.430  12.386
94897W        W67223  25.222  31.525  12.127
94898W        W67224  22.675  31.677   3.723
94899W        W67225   7.906  28.117   4.611
94900W        W67226  11.768   2.917  14.548
94901W        W67227   9.213  21.122  13.541
94902W        W67228  38.511   9.191  12.045
94903W        W67229  18.173   7.169  10.808
94904W        W67230  36.614  25.225  11.072
94905W        W67231  15.196  39.882  14.571
94906W        W67232  14.022  16.150   4.497
94907W        W67233  21.036  25.148  10.598
94908W        W67234  44.467  17.811  10.662
94909W        W67235   2.165  17.056   4.957
94910W        W67236  24.185  36.408   4.556
94911W        W67237  41.368   5.537   1.868
94912W        W67238   5.630  26.476  10.651
94913W        W67239   9.296   1.858   4.131
94914W        W67240   9.237  11.661  12.431
94915W        W67241  38.958  42.785  11.091
94916W        W67242  21.152  43.052  12.884
94917W        W67243  30.441  26.110   0.304
94918W        W67244  25.033  32.439  11.634
94919W        W67245  35.600  12.147  10.250
94920W        W67246  10.060  37.116  11.198
94921W        W67247  10.894  31.459  14.887
94922W        W67248  30.736  22.134  14.966
94923W        W67249  44.668   1.782  10.664
94924W        W67250   4.247  36.576   1.875
94925W        W67251  38.866   4.368   0.006
94926W        W67252  41.851  20.736   0.083
94927W        W67253  31.516   9.232  10.617
94928W        W67254  17.849  16.635  12.483
94929W        W67255  14.688  35.373   4.983
94930W        W67256  14.565  10.795   3.726
94931W        W67257  22.022  45.000  11.166
94932W        W67258  13.351  14.724   1.415
94933W        W67259  24.091  19.769   2.812
94934W        W67260  29.962   1.745  13.828
94935W        W67261   3.134  31.146   1.883
94936W        W67262  26.022   0.370  14.246
94937W        W67263  29.961   1.719   3.003
94938W        W67264  36.587   8.289  13.507
94939W        W67265  19.989   9.363   2.668
94940W        W67266  37.816  27.100   0.871
94941W        W67267  43.173  43.909  13.857
94942W        W67268   7.933  16.505  11.598
94943W        W67269   7.928   2.139  14.343
94944W        W67270   5.675  27.000   3.558
94945W        W67271  17.632  22.618  13.143
94946W        W67272  42.858  30.183   3.701
94947W        W67273  32.590  44.856  12.555
94948W        W67274  17.925  28.942   2.679
94949W        W67275   9.649  12.980  11.160
94950W        W67276  44.595  35.844  12.041
94951W        W67277   3.233   9.277  10.719
94952W        W67278   1.453   8.301   3.972
94953W        W67279  40.045  18.515  12.639
94954W        W67280  12.368  16.338   3.035
94955W        W67281  23.936   7.193  12.827
94956W        W67282  18.847  44.289   4.201
94957W        W67283   0.200  14.136   3.003
94958W        W67284  26.724  42.883   0.413
94959W        W67285  23.257  38.623  14.755
94960W        W67286   0.296  14.706  10.647
94961W        W67287  22.593   5.752   3.437
94962W        W67288  24.042  39.283  13.815
94963W        W67289   6.234   2.740  14.044
94964W        W67290   0.069   6.169   0.763
94965W        W67291  14.732   9.627   0.965
94966W        W67292  15.031   4.712  14.389
94967W        W67293  25.097   1.114  13.811
94968W        W67294  44.370   1.005  11.127
94969W        W67295  35.151  39.704  11.104
94970W        W67296  27.665  27.440   2.146
94971W        W67297   9.873  19.594   3.047
94972W        W67298   9.858   9.505  11.059
94973W        W67299   0.302   9.884   3.780
94974W        W67300  10.378   0.071   0.183
94975W        W67301   5.935   2.832  11.590
94976W        W67302  39.494  29.886  13.528
94977W        W67303  13.224   7.625   1.780
94978W        W67304   1.069  16.728   1.175
94979W        W67305  15.027  25.299   3.344
94980W        W67306  20.539  34.887  14.778
94981W        W67307  12.362  11.287   4.277
94982W        W67308  39.986  40.403   2.643
94983W        W67309  22.911  20.037  12.356
94984W        W67310  24.644  33.291   3.307
94985W        W67311  20.247  33.150   3.288
94986W        W67312   9.250  29.181  12.038
94987W        W67313  41.551  42.417   2.680
94988W        W67314  15.592   1.995   4.109
94989W        W67315  16.195  21.660   4.719
94990W        W67316  22.276  29.479  14.286
94991W        W67317  25.545  39.427   3.778
94992W        W67318  39.128  28.434   3.290
94993W        W67319  22.609  37.599   1.707
94994W        W67320  37.207  11.252  14.922
94995W        W67321  13.680  36.311  11.601
94996W        W67322   4.546   5.219  13.388
94997W        W67323  20.494  11.180  11.589
94998W        W67324  11.557  17.256  13.239
94999W        W67325  41.408  35.910  13.882
95000W        W67326  31.908  23.485  12.568
95001W        W67327  23.083  37.938   4.593
95002W        W67328  32.481   6.226  12.861
95003W        W67329   1.247  24.468   1.810
95004W        W67330  36.864   1.682   3.158
95005W        W67331  35.930  12.709   3.111
95006W        W67332  37.179  11.757  13.951
95007W        W67333  22.742  26.759  10.792
95008W        W67334  21.640  35.369   4.384
95009W        W67335  33.462  29.594   4.540
95010W        W67336  33.988   7.161   0.484
95011W        W67337  33.565   1.523   1.955
95012W        W67338  19.117  29.515  12.605
95013W        W67339  30.100  42.469   2.310
95014W        W67340  36.431  39.808   2.680
95015W        W67341  43.272  20.289  13.626
95016W        W67342  13.718   2.567  14.513
95017W        W67343   8.048   7.252   0.167
95018W        W67344  21.822  16.789  12.897
95019W        W67345  24.562  34.376  13.398
95020W        W67346   9.401  30.449   0.478
95021W        W67347   5.192  29.684  14.807
95022W        W67348   0.349  39.967   4.172
95023W        W67349  37.873  16.915   1.031
95024W        W67350  21.297  43.822  12.441
95025W        W67351  41.382  14.886  14.028
95026W        W67352  36.718  12.312   1.611
95027W        W67353  35.135  27.424  14.443
95028W        W67354  34.416  16.603   4.912
95029W        W67355   7.810  33.577  12.968
95030W        W67356  15.726   0.737   3.634
95031W        W67357  42.818  15.688   2.859
95032W        W67358   0.464  15.725   4.549
95033W        W67359  26.100   5.160  13.079
95034W        W67360  19.590   3.012  11.982
95035W        W67361  42.572  13.430   2.729
95036W        W67362  44.988  11.905   1.318
95037W        W67363  18.575  30.028   1.473
95038W        W67364   6.050  18.745  11.842
95039W        W67365  31.540   6.169  13.863
95040W        W67366  43.990  37.070  13.357
95041W        W67367   4.853  11.499   9.905
95042W        W67368  35.624  23.210  11.277
95043W        W67369   3.883  37.243   0.460
95044W        W67370   5.245  34.974  13.610
95045W        W67371  41.607  28.977  11.827
95046W        W67372  18.508   6.371   4.059
95047W        W67373  32.117  39.759  12.966
95048W        W67374   6.111  20.733   1.630
95049W        W67375  42.253   1.892  10.788
95050W        W67376  26.119   6.448  13.871
95051W        W67377  40.342  18.635   0.399
95052W        W67378  38.477  11.830   0.489
95053W        W67379   1.078  29.637  10.378
95054W        W67380  23.386   9.363   4.673
95055W        W67381  18.077  27.667  11.968
95056W        W67382  31.010  44.781  14.447
95057W        W67383  40.336  13.549   1.955
95058W        W67384  39.970   7.387   4.274
95059W        W67385   8.383  18.053   2.770
95060W        W67386  37.466  33.868  13.662
95061W        W67387  34.376  12.246  14.243
95062W        W67388  44.566  27.757   1.940
95063W        W67389   3.221  19.162  11.171
95064W        W67390   2.770   0.503  12.148
95065W        W67391  41.553   6.732  10.685
95066W        W67392  29.043  27.736  11.516
95067W        W67393   0.241  39.923   0.091
95068W        W67394  16.116  43.466  12.608
95069W        W67395  27.527  43.004   3.732
95070W        W67396  20.041  31.482  14.700
95071W        W67397  27.868   6.829  14.334
95072W        W67398  34.776  31.176   4.061
95073W        W67399  19.133  15.858   2.271
95074W        W67400  12.625   8.376  11.830
95075W        W67401  37.357  20.121  14.183
95076W        W67402  26.804   2.627   3.452
95077W        W67403  11.248  27.901   2.282
95078W        W67404  33.320   2.384   3.271
95079W        W67405  36.131  25.419  10.762
95080W        W67406  40.022  19.305  12.179
95081W        W67407  26.553  12.695  14.827
95082W        W67408   2.837  44.360   4.114
95083W        W67409  18.620   5.397  11.525
95084W        W67410  28.797  28.239   2.786
95085W        W67411  39.512   6.479   1.698
95086W        W67412  26.197  22.745  13.136
95087W        W67413   8.025   4.390   4.467
95088W        W67414  41.391  29.420  14.631
95089W        W67415  28.093  16.659   3.954
95090W        W67416  43.737  37.679  12.579
95091W        W67417  36.460  31.285   3.261
95092W        W67418   6.621   8.264  12.020
95093W        W67419  37.611  28.735   4.193
95094W        W67420  20.992  42.297  11.735
95095W        W67421  41.589  21.275  14.421
95096W        W67422  31.904  10.989  13.944
95097W        W67423  17.629  43.296   4.552
95098W        W67424   9.874   3.020   4.026
95099W        W67425  44.695  40.074  13.471
95100W        W67426  13.195  21.651   2.695
95101W        W67427  20.289  19.165   2.705
95102W        W67428   8.118   9.655  13.842
95103W        W67429  38.110   5.252  13.332
95104W        W67430  29.855  28.009  13.601
95105W        W67431  33.479  38.890   2.314
95106W        W67432  29.794   2.741  10.726
95107W        W67433   6.015   2.395   4.955
95108W        W67434  20.672  39.838   2.589
95109W        W67435  22.232  42.278  13.433
95110W        W67436  38.596   6.955  12.969
95111W        W67437  34.891  35.451   2.381
95112W        W67438  19.143  29.222   4.470
95113W        W67439  11.629  24.723   3.133
95114W        W67440  39.014  13.300   4.281
95115W        W67441   1.063  42.376   2.677
95116W        W67442  26.038  43.477   3.740
95117W        W67443  26.236  14.133   1.020
95118W        W67444  33.469  35.276   9.770
95119W        W67445  29.929  33.938   1.712
95120W        W67446  21.113  41.056  13.921
95121W        W67447  37.784  33.317   1.520
95122W        W67448  42.190  23.423  10.722
95123W        W67449   4.259  10.444  13.125
95124W        W67450  11.282   3.379   0.051
95125W        W67451  34.704  31.915  14.510
95126W        W67452   4.749  42.985   1.677
95127W        W67453  32.388  19.611  13.956
95128W        W67454  21.927   2.259   0.619
95129W        W67455  20.068  23.762  13.875
95130W        W67456  32.507   3.270   0.149
95131W        W67457  37.839  17.745  14.109
95132W        W67458  30.540  10.882   1.727
95133W        W67459  23.330  23.710   2.613
95134W        W67460   4.324   9.991  14.245
95135W        W67461  17.304  20.877  10.033
95136W        W67462  20.238  43.908  11.037
95137W        W67463  29.518  26.542   4.573
95138W        W67464  24.588  34.400   3.168
95139W        W67465  18.246  41.491   1.401
95140W        W67466  31.513   0.892  12.390
95141W        W67467   0.866  31.050  14.398
95142W        W67468  44.027   8.643  12.945
95143W        W67469  18.013  37.171  12.036
95144W        W67470   8.595  11.634   3.731
95145W        W67471  42.504  16.377   4.689
95146W        W67472  43.424  27.457  14.609
95147W        W67473   5.784  23.936   1.404
95148W        W67474  41.114   5.280   2.230
95149W        W67475   3.287  32.954   4.048
95150W        W67476  37.199  30.972  11.379
95151W        W67477  23.705  30.530  11.095
95152W        W67478  41.473   1.761  10.379
95153W        W67479  24.071  21.953   1.974
95154W        W67480   6.286  20.823   1.017
95155W        W67481   9.013  20.199  12.132
95156W        W67482  27.939  39.833   4.322
95157W        W67483  17.728  29.404  13.845
95158W        W67484  13.868  35.773  14.219
95159W        W67485  20.485  14.746  10.407
95160W        W67486  38.986  44.244   4.812
95161W        W67487  11.797  33.618   2.690
95162W        W67488  17.648   4.425  13.517
95163W        W67489  16.378   3.158   1.293
95164W        W67490  44.747  15.724   1.543
95165W        W67491  38.596   6.027  11.168
95166W        W67492  10.633   3.257   1.231
95167W        W67493  35.879  15.822   0.496
95168W        W67494  26.660  11.704   4.682
95169W        W67495  15.617  42.249  10.687
95170W        W67496  25.064   2.233   1.411
95171W        W67497   0.332  26.008   0.651
95172W        W67498  28.668  40.912  13.373
95173W        W67499   0.734   3.250  12.073
95174W        W67500   8.759  22.197   0.561
95175W        W67501  14.347  35.948   0.996
95176W        W67502  28.706  42.754  11.152
95177W        W67503  15.322   2.401   2.160
95178W        W67504  24.905  24.853  11.932
95179W        W67505   4.519  42.495  11.817
95180W        W67506  29.437  32.994  11.152
95181W        W67507   0.278   7.291   2.391
95182W        W67508  34.087   7.339  14.747
95183W        W67509   0.108  10.793  14.867
95184W        W67510  10.222   0.738   3.845
95185W        W67511   2.731   0.487  13.956
95186W        W67512  32.720  36.684  10.503
95187W        W67513  29.801   2.107   3.323
95188W        W67514  21.260   8.220   3.181
95189W        W67515   7.184  40.145   3.296
95190W        W67516  20.709  40.831   1.174
95191W        W67517  40.842   0.364  14.931
95192W        W67518  19.177  39.014  12.604
95193W        W67519  20.586   8.963  10.657
95194W        W67520  42.798   9.822   0.549
95195W        W67521  32.594  38.574  13.869
95196W        W67522  35.525  11.288   2.792
95197W        W67523   5.151  14.108   3.435
95198W        W67524  14.618   4.010  13.866
95199W        W67525  34.299   5.485   2.686
95200W        W67526  28.891  21.131  14.344
95201W        W67527  43.367  21.654  13.282
95202W        W67528   8.247  39.088  13.817
95203W        W67529   5.643   0.737   0.911
95204W        W67530  42.721   3.376  11.111
95205W        W67531  35.539  30.382   3.687
95206W        W67532   7.660   9.168   2.434
95207W        W67533  42.311  41.411  14.013
95208W        W67534  27.225   0.033  13.934
95209W        W67535  25.316  21.236   3.649
95210W        W67536  41.296   5.695  11.564
95211W        W67537  16.665  44.911   4.067
95212W        W67538  22.103   4.335   2.401
95213W        W67539  19.085  40.347   1.826
95214W        W67540   2.869   2.707  14.545
95215W        W67541  29.058  27.471   0.835
95216W        W67542  34.733   5.260   2.829
95217W        W67543  37.431  37.903   0.931
95218W        W67544  42.676   8.742   1.681
95219W        W67545  44.440  18.528   4.639
95220W        W67546   2.370   2.222   5.362
95221W        W67547  31.418  22.635   3.544
95222W        W67548   5.422  37.985   1.865
95223W        W67549  16.714  15.055  14.435
95224W        W67550  43.614  34.487  12.631
95225W        W67551   9.794  37.539   3.818
95226W        W67552  10.756  31.485  10.665
95227W        W67553   5.220  21.006  11.588
95228W        W67554  27.137  25.917   3.777
95229W        W67555  18.332  13.180   1.165
95230W        W67556   2.194  19.131   4.023
95231W        W67557  42.000   3.728  13.899
95232W        W67558  12.573   3.141   1.251
95233W        W67559  22.028  34.894  11.611
95234W        W67560  16.294  15.396  10.657
95235W        W67561  24.225  13.756   4.805
95236W        W67562  40.059   8.954  14.106
95237W        W67563  19.666  42.413  11.612
95238W        W67564   4.288  26.580  11.013
95239W        W67565  24.280  19.171   3.615
95240W        W67566   7.945  25.152   1.843
95241W        W67567   0.463  44.443   2.230
95242W        W67568  32.995  22.964   3.105
95243W        W67569  11.548  40.890  14.905
95244W        W67570  31.403  19.425  14.249
95245W        W67571  33.361  16.641  12.704
95246W        W67572  27.450  29.550   9.853
95247W        W67573  16.638   2.181   1.476
95248W        W67574  43.440  42.482   3.703
95249W        W67575   4.815  14.093   5.001
95250W        W67576  34.017  41.808  11.061
95251W        W67577  26.627  27.168  12.506
95252W        W67578  24.064  30.749  12.054
95253W        W67579   4.920  24.412   4.243
95254W        W67580  41.451  32.225   4.133
95255W        W67581   2.984   2.303  11.008
95256W        W67582  36.835   4.314   3.565
95257W        W67583  37.886  24.223   0.716
95258W        W67584  15.614  31.369   4.238
95259W        W67585   7.258  37.307   1.917
95260W        W67586  28.403  24.814   3.880
95261W        W67587  26.224  36.059  10.828
95262W        W67588  39.055  33.888  11.773
95263W        W67589   6.668  43.751   0.117
95264W        W67590  17.073  40.967   2.122
95265W        W67591  16.626  21.547   3.634
95266W        W67592  11.072  10.847  14.976
95267W        W67593  22.090  26.213   1.202
95268W        W67594  27.449  22.449  10.994
95269W        W67595  33.971  36.832  13.941
95270W        W67596  11.216  34.216   4.641
95271W        W67597  43.288  43.678  11.894
95272W        W67598  19.827  17.613  12.806
95273W        W67599  19.786  13.000  11.612
95274W        W67600  41.646  12.794  11.274
95275W        W67601  38.942   7.367   2.602
95276W        W67602  18.633  17.738  13.566
95277W        W67603   2.483  40.274  10.752
95278W        W67604   2.533  20.738   4.206
95279W        W67605  42.116  20.922   4.186
95280W        W67606   4.374   0.041   1.747
95281W        W67607  13.185  20.786   1.674
95282W        W67608  38.910  37.881   1.151
95283W        W67609  40.581  28.212   2.605
95284W        W67610   0.813  16.936  11.602
95285W        W67611  42.399  30.407  10.905
95286W        W67612   6.959  14.877  10.637
95287W        W67613  17.356  27.896  12.508
95288W        W67614  12.400  38.919  13.072
95289W        W67615  38.856  17.344   1.295
95290W        W67616  40.362  25.076   3.672
95291W        W67617  40.876  35.307  14.075
95292W        W67618   8.685  12.413   3.227
95293W        W67619  19.095  31.302  14.188
95294W        W67620  28.508  19.763  11.528
95295W        W67621  29.294  19.591  13.904
95296W        W67622  21.719   4.256   4.908
95297W        W67623  37.993  37.434  14.980
95298W        W67624  42.918   2.307  13.017
95299W        W67625  11.276  18.506   1.446
95300W        W67626  14.142  12.699  12.289
95301W        W67627   9.949  32.658   1.272
95302W        W67628  43.607  28.098   1.289
95303W        W67629   4.391  32.420  12.627
95304W        W67630   6.216  30.714   0.861
95305W        W67631  11.858   8.592   4.118
95306W        W67632   4.728  35.980   4.600
95307W        W67633  20.157  35.928  14.750
95308W        W67634  37.296  39.336  14.029
95309W        W67635  23.117  23.253   2.691
95310W        W67636  26.805   4.604  10.372
95311W        W67637  31.242  39.071  14.809
95312W        W67638  44.471  17.345   3.155
95313W        W67639  39.282   3.078  12.476
95314W        W67640  38.545  43.392   3.102
95315W        W67641  36.396   4.132   3.802
95316W        W67642  25.072  42.570   4.173
95317W        W67643  25.393  44.401   1.370
95318W        W67644  28.839  20.017   2.875
95319W        W67645  32.449   0.382   3.601
95320W        W67646   4.439  36.161   3.745
95321W        W67647  23.942   1.779   2.977
95322W        W67648   9.776  36.966   3.626
95323W        W67649   2.716   1.975  13.819
95324W        W67650   5.448  34.921   4.251
95325W        W67651  26.287   1.029   0.691
95326W        W67652  44.444  22.519  13.745
95327W        W67653  41.378  39.610  12.691
95328W        W67654   7.683  31.317   0.500
95329W        W67655  26.144  40.489  11.683
95330W        W67656   0.403  19.081   4.642
95331W        W67657  24.740  19.178   3.337
95332W        W67658  40.037  26.420   0.753
95333W        W67659  21.641  12.130   0.217
95334W        W67660  23.555  18.215   3.079
95335W        W67661   3.388  14.678  12.095
95336W        W67662  24.224  10.242  12.914
95337W        W67663   1.858  18.751  13.687
95338W        W67664  24.036  28.995   4.059
95339W        W67665  40.043  37.168   0.685
95340W        W67666   6.166  39.339   4.926
95341W        W67667  19.604  33.852   1.837
95342W        W67668   8.566  21.464  12.985
95343W        W67669  31.965  18.377  10.058
95344W        W67670  25.772  32.082  12.469
95345W        W67671  34.432   0.450  14.351
95346W        W67672  39.299  11.353   0.830
95347W        W67673  14.993  34.317  10.640
95348W        W67674   5.890  35.893  14.960
95349W        W67675  38.023  36.462   0.236
95350W        W67676  44.749  16.534  12.383
95351W        W67677  22.297  19.501   3.399
95352W        W67678   5.799   6.546  11.460
95353W        W67679  28.038  37.579   2.311
95354W        W67680  31.832  39.980   4.475
95355W        W67681  21.388  20.538   1.324
95356W        W67682  14.156  27.223   4.584
95357W        W67683  33.874  21.486  11.515
95358W        W67684   8.761  12.582   1.297
95359W        W67685  39.109  39.395  10.047
95360W        W67686  17.076  36.865   2.724
95361W        W67687  35.459  13.651   4.637
95362W        W67688  43.952  21.414  10.931
95363W        W67689  19.786  25.438  13.595
95364W        W67690  12.574  44.305  11.600
95365W        W67691  31.860  20.761  11.076
95366W        W67692  22.309  11.412  11.011
95367W        W67693  10.162  32.217   1.917
95368W        W67694  43.084  31.490   2.409
95369W        W67695   5.962  30.085   1.897
95370W        W67696   8.247   7.321   4.350
95371W        W67697  10.892  35.350   1.273
95372W        W67698   2.140  43.905   1.311
95373W        W67699  10.356  37.092  10.745
95374W        W67700  15.282  41.499  12.138
95375W        W67701  17.625  15.701   3.116
95376W        W67702  24.024  31.104   1.967
95377W        W67703  24.322  37.541  14.957
95378W        W67704  34.230  41.326  10.894
95379W        W67705  28.193  12.240  10.375
95380W        W67706  12.479   5.269  10.812
95381W        W67707  19.967  15.629   1.000
95382W        W67708  30.421  35.277  14.263
95383W        W67709  14.694   6.841  13.786
95384W        W67710  40.631   2.763   0.585
95385W        W67711  30.913  16.709   2.338
95386W        W67712  15.728  27.594   3.634
95387W        W67713  17.845  26.789   3.747
95388W        W67714  30.521  35.574   2.365
95389W        W67715  12.854  26.538   3.774
95390W        W67716   5.957   2.378  11.012
95391W        W67717  14.605   3.560   4.597
95392W        W67718  16.701  13.058   2.553
95393W        W67719   9.023  32.945   1.280
95394W        W67720  40.529  43.448  10.432
95395W        W67721  42.728  20.579  14.663
95396W        W67722  15.222  15.546  12.023
95397W        W67723  30.476  31.187  11.446
95398W        W67724  27.449  28.976  13.883
95399W        W67725  11.097   7.343   4.127
95400W        W67726   6.715  21.625   4.542
95401W        W67727  37.818   0.684  11.020
95402W        W67728  24.708  22.107   4.050
95403W        W67729   4.425  22.209   1.898
95404W        W67730  14.246  25.042   9.563
95405W        W67731  31.478   8.923   2.756
95406W        W67732  34.600  15.997  12.520
95407W        W67733  24.155  13.905  14.564
95408W        W67734   3.007  27.046   1.242
95409W        W67735  43.810  25.811   4.625
95410W        W67736  18.110   7.230   2.479
95411W        W67737   5.180  13.624   3.171
95412W        W67738  37.030  22.252  13.954
95413W        W67739  39.896  20.226   2.456
95414W        W67740  17.799  18.556  11.896
95415W        W67741  44.239  14.655   4.130
95416W        W67742   8.212  22.225  11.982
95417W        W67743   4.161  44.511   3.448
95418W        W67744  42.414  33.044   1.411
95419W        W67745  36.775  27.143  11.521
95420W        W67746   0.457  12.893  12.352
95421W        W67747  33.020  11.193   2.282
95422W        W67748  29.956   0.732   1.813
95423W        W67749   2.869  16.177  14.414
95424W        W67750  15.554  39.966  10.188
95425W        W67751  13.677  29.679   1.361
95426W        W67752  35.023  30.821   3.766
95427W        W67753  33.099  13.116  13.473
95428W        W67754   7.897   3.850  14.958
95429W        W67755  11.261  26.695  13.904
95430W        W67756  26.088  16.336   4.718
95431W        W67757  43.976  13.217   1.171
95432W        W67758  31.397  26.430  11.440
95433W        W67759  10.982  18.166  14.462
95434W        W67760  43.334   7.406   0.455
95435W        W67761  15.854  18.864  13.414
95436W        W67762   6.364  30.655   1.395
95437W        W67763  22.114  37.448  14.001
95438W        W67764  23.508  39.780   0.395
95439W        W67765  13.295  21.479   2.215
95440W        W67766  38.875  14.171   0.321
95441W        W67767  28.166  12.374   0.359
95442W        W67768   6.539  11.166   2.261
95443W        W67769  34.796   5.865   4.022
95444W        W67770  13.799  24.762  11.074
95445W        W67771   1.250   6.234   0.369
95446W        W67772   9.139  20.398   2.562
95447W        W67773  24.674   1.896  14.316
95448W        W67774  29.415   0.258   3.564
95449W        W67775  42.513  13.711  13.507
95450W        W67776  19.162  44.505   1.232
95451W        W67777  26.021   2.198   1.358
95452W        W67778   6.494  26.710   3.850
95453W        W67779  32.111  23.748   3.706
95454W        W67780  27.606   5.899  12.397
95455W        W67781  33.625  30.124  14.949
95456W        W67782  20.012  32.685   3.263
95457W        W67783   6.535  12.157  12.077
95458W        W67784  24.269  35.896  12.005
95459W        W67785   1.725   2.433   5.083
95460W        W67786  42.969   8.728   3.558
95461W        W67787  30.669  33.465   3.810
95462W        W67788  16.045  20.155   0.874
95463W        W67789  23.782  44.385   3.758
95464W        W67790  11.218  21.298  11.041
95465W        W67791  16.580  15.112  11.913
95466W        W67792  25.025  44.065   4.419
95467W        W67793   3.820  37.062  14.622
95468W        W67794  27.464  19.369  14.099
95469W        W67795  18.108  38.608   1.733
95470W        W67796  42.174  13.452  12.849
95471W        W67797  44.238  44.291   0.185
95472W        W67798  22.708   2.501   2.338
95473W        W67799  17.235   7.803  14.032
95474W        W67800  43.502  19.080  14.118
95475W        W67801  13.471  14.261   0.204
95476W        W67802  14.101   0.718  10.711
95477W        W67803  42.511  30.090   1.319
95478W        W67804  15.033  18.535   0.915
95479W        W67805  14.837  38.292   1.427
95480W        W67806  20.245  41.039   2.683
95481W        W67807  24.151   0.378  13.617
95482W        W67808   7.375   4.740   2.541
95483W        W67809   8.222  34.073   1.412
95484W        W67810  41.636  21.644  13.112
95485W        W67811  26.218  17.088  14.074
95486W        W67812  35.805   1.990  12.152
95487W        W67813  10.362  32.082   0.055
95488W        W67814  34.993  15.632  13.779
95489W        W67815  34.487   1.435  14.062
95490W        W67816  36.053   6.911  14.961
95491W        W67817  16.855  15.306   4.122
95492W        W67818  20.307  13.800  14.320
95493W        W67819  18.176  43.375  12.585
95494W        W67820  29.601  43.991   0.785
95495W        W67821  20.091  18.796  13.374
95496W        W67822  30.672  29.986  14.419
95497W        W67823  10.335  19.564  10.936
95498W        W67824  38.551  10.015   0.924
95499W        W67825  24.182  35.327   4.011
95500W        W67826  39.426  15.857  12.583
95501W        W67827   2.448  35.471   1.394
95502W        W67828  36.609   5.324   0.837
95503W        W67829  31.338  39.552   2.433
95504W        W67830   5.441  13.237  12.963
95505W        W67831  29.704   7.948   1.088
95506W        W67832  27.596  33.364   0.417
95507W        W67833  29.973  43.003   2.331
95508W        W67834  41.781  10.307   0.520
95509W        W67835  15.905  14.570   2.121
95510W        W67836   2.462  35.379   3.802
95511W        W67837  11.401  15.799   0.282
95512W        W67838  12.926   4.283  13.031
95513W        W67839  30.886  12.618  14.014
95514W        W67840  11.017  21.273   5.089
95515W        W67841   9.681  32.917   1.671
95516W        W67842  26.739  31.064  14.298
95517W        W67843  14.146  36.202   3.813
95518W        W67844  40.048   0.756  10.780
95519W        W67845  14.424  17.385   2.952
95520W        W67846  24.416  37.936   5.381
95521W        W67847  19.512  14.376   4.124
95522W        W67848  32.097  36.544   3.619
95523W        W67849   9.347  39.061   3.898
95524W        W67850  19.697  14.291   0.743
95525W        W67851  35.111   9.089   1.229
95526W        W67852  43.234  26.529   1.808
95527W        W67853   9.343  40.100   0.302
95528W        W67854  36.649  42.281   1.306
95529W        W67855  27.520  33.295   4.355
95530W        W67856  23.705  25.275  14.349
95531W        W67857  35.033  34.848  11.503
95532W        W67858  15.259   7.866   4.220
95533W        W67859  32.240  17.079   4.762
95534W        W67860  12.448  27.517   5.511
95535W        W67861  30.391  44.313   0.231
95536W        W67862  22.964   6.758   1.845
95537W        W67863  20.093  42.187  11.433
95538W        W67864  42.314  29.225   4.086
95539W        W67865   0.900  34.450  12.707
95540W        W67866  30.200   5.695   2.273
95541W        W67867  38.936  26.603  12.007
95542W        W67868  30.989  40.495  10.686
95543W        W67869  23.161  26.387  14.489
95544W        W67870   2.845  16.254   0.838
95545W        W67871  26.703  40.214   3.359
95546W        W67872  42.474  22.137  12.193
95547W        W67873  23.092   2.252   4.609
95548W        W67874  26.687  10.766   4.399
95549W        W67875  24.698   3.212  13.306
95550W        W67876  37.596  12.905  13.979
95551W        W67877  28.097  29.542   4.581
95552W        W67878  40.926   3.027  14.638
95553W        W67879  18.437  16.075  13.284
95554W        W67880  27.148  19.024   4.951
95555W        W67881  16.315   2.781   2.496
95556W        W67882   1.320   3.127   3.102
95557W        W67883  19.692  43.336  12.581
95558W        W67884   1.352  42.038  11.682
95559W        W67885  44.409   9.055   4.215
95560W        W67886  21.967  42.406  14.297
95561W        W67887  16.154   5.264   3.624
95562W        W67888  16.132  21.720   4.212
95563W        W67889  43.327  43.092   9.979
95564W        W67890  42.986   7.414  11.469
95565W        W67891  29.546  43.188  10.765
95566W        W67892   5.934  19.574   2.406
95567W        W67893  31.316  29.832   2.735
95568W        W67894   0.664   1.747   2.219
95569W        W67895  42.415  28.231   4.786
95570W        W67896   0.876  13.892  14.447
95571W        W67897  32.689   6.950   3.833
95572W        W67898  11.343  44.832  13.775
95573W        W67899  33.172  22.156  13.819
95574W        W67900  38.307  32.637   0.477
95575W        W67901  23.196  32.448   3.735
95576W        W67902  12.867   4.180   4.261
95577W        W67903   1.416  42.279  14.878
95578W        W67904  25.315  43.992  12.365
95579W        W67905  35.567   8.467   0.466
95580W        W67906  20.252  21.213  13.600
95581W        W67907  20.255  24.081  11.185
95582W        W67908   6.175  10.242   0.333
95583W        W67909  41.072  31.079  14.378
95584W        W67910   7.336   2.393   0.793
95585W        W67911   6.738  18.283  12.999
95586W        W67912  22.482  25.239   1.927
95587W        W67913  12.618  39.401   3.407
95588W        W67914  26.792   9.769  11.527
95589W        W67915   1.419  23.114  12.838
95590W        W67916  34.511  18.653   0.793
95591W        W67917  33.008  20.140   1.166
95592W        W67918  16.770  38.638   2.862
95593W        W67919   5.929  42.561   4.034
95594W        W67920  25.756  37.863  13.316
95595W        W67921  37.824  41.941   4.675
95596W        W67922   5.472  15.920   0.906
95597W        W67923  17.753   9.854   2.487
95598W        W67924  33.093   1.949   3.493
95599W        W67925   3.277  33.128  11.261
95600W        W67926  35.623  14.311  13.423
95601W        W67927   5.964  30.075   0.953
95602W        W67928  40.523   3.667  13.943
95603W        W67929  19.583  23.038  10.673
95604W        W67930   2.941   5.386  12.327
95605W        W67931  30.503  14.612  11.339
95606W        W67932  12.835  22.582   4.431
95607W        W67933   0.558  23.060   4.744
95608W        W67934  29.183   5.426  12.851
95609W        W67935  41.226  36.112  12.937
95610W        W67936  24.697   0.998   3.791
95611W        W67937   5.112  37.515  14.928
95612W        W67938  40.279   2.627  12.467
95613W        W67939  24.000   4.857   3.362
95614W        W67940  12.862  31.416   0.361
95615W        W67941  34.308  21.800   0.394
95616W        W67942   1.957  37.863   3.040
95617W        W67943  12.174   9.335  12.207
95618W        W67944  40.516  42.410   4.348
95619W        W67945  38.939  23.645   4.637
95620W        W67946  20.111   7.392  11.443
95621W        W67947  32.073   9.729  13.478
95622W        W67948  12.773  20.774  11.976
95623W        W67949  28.256  19.042  11.432
95624W        W67950   0.908  12.604   9.990
95625W        W67951  28.249  30.407  12.004
95626W        W67952   0.880  13.390  10.666
95627W        W67953  43.457   4.632   1.718
95628W        W67954  19.927  12.689   2.379
95629W        W67955   0.142  14.768   4.255
95630W        W67956  34.458  37.585  14.872
95631W        W67957   7.181  40.950  11.189
95632W        W67958  33.652  37.943  13.381
95633W        W67959  14.537  28.847  12.001
95634W        W67960  44.280  10.837  11.566
95635W        W67961  39.874  32.476   1.437
95636W        W67962  28.086  21.734   3.665
95637W        W67963  42.697  42.971  12.385
95638W        W67964   8.683  30.505  12.132
95639W        W67965  35.486  30.007  13.397
95640W        W67966  16.734   3.393  13.890
95641W        W67967  32.848  12.028  13.733
95642W        W67968   3.938  36.858   3.199
95643W        W67969  32.512  39.515   0.476
95644W        W67970  27.543  39.358  14.526
95645W        W67971  37.540  17.612  12.970
95646W        W67972  31.269  34.568  13.491
95647W        W67973  20.744  22.533   2.266
95648W        W67974  26.375   0.464  11.192
95649W        W67975  23.041   7.928  11.031
95650W        W67976  41.890   1.024  14.997
95651W        W67977  16.836  33.583   1.928
95652W        W67978  16.615  43.818  10.698
95653W        W67979  18.159  12.569  11.321
95654W        W67980  25.925  40.742   1.284
95655W        W67981  11.104   8.346  14.906
95656W        W67982  41.823  28.982   4.029
95657W        W67983  22.632  40.434  13.076
95658W        W67984   8.614  27.100  11.350
95659W        W67985   2.263  14.035   2.263
95660W        W67986  14.818  32.879  10.517
95661W        W67987  32.711  12.371  13.365
95662W        W67988  20.055  12.845  11.218
95663W        W67989  28.908  34.351  11.117
95664W        W67990  35.005  20.310   4.085
95665W        W67991   5.516  42.341  12.084
95666W        W67992  32.671   5.698   1.187
95667W        W67993  10.324  40.715   0.351
95668W        W67994  14.809  34.043  11.861
95669W        W67995   5.918  10.676   4.556
95670W        W67996  38.543  25.444  11.560
95671W        W67997  26.587  21.299  13.114
95672W        W67998  42.050   3.323   2.971
95673W        W67999  25.615  34.829   3.305
95674W        W68000  29.081  15.554   0.954
95675W        W68001   7.586   2.977   3.695
95676W        W68002  19.584  23.036  13.351
95677W        W68003  35.846  15.737   3.340
95678W        W68004  22.617  27.178   1.501
95679W        W68005  13.814   0.585  11.364
95680W        W68006  29.105   9.908   1.358
95681W        W68007  19.686  36.182  12.343
95682W        W68008  29.215  34.520   1.865
95683W        W68009  19.514  30.485  10.760
95684W        W68010  17.276  22.496   3.403
95685W        W68011  15.164  26.884   4.688
95686W        W68012  23.497   6.709   1.783
95687W        W68013   1.019  18.874   0.544
95688W        W68014  10.707   7.001   4.078
95689W        W68015   5.340  30.440   1.700
95690W        W68016  13.622  17.298   1.950
95691W        W68017  29.087  22.578   1.677
95692W        W68018   2.796  28.607   4.850
95693W        W68019  24.457  15.690  10.341
95694W        W68020   6.936  36.459  13.431
95695W        W68021  42.232  42.509  11.936
95696W        W68022   8.639  23.028   3.748
95697W        W68023  27.168  28.523  13.604
95698W        W68024   8.916  40.918   0.420
95699W        W68025   9.830  24.186   0.401
95700W        W68026  27.103  44.228  12.369
95701W        W68027  19.179  36.109   0.969
95702W        W68028  36.960  31.037   1.955
95703W        W68029   3.089  43.099   2.755
95704W        W68030  20.157   8.632   3.600
95705W        W68031  37.193  11.360  11.916
95706W        W68032  34.496  36.036  12.597
95707W        W68033  43.320  35.885  12.412
95708W        W68034  13.430  16.177  14.324
95709W        W68035  12.700  23.387   0.192
95710W        W68036  25.225   5.757  12.854
95711W        W68037  13.762  18.187   3.422
95712W        W68038  21.469  38.012   0.896
95713W        W68039  27.307  23.033  11.946
95714W        W68040   3.760  17.333  14.274
95715W        W68041  28.500  43.978   4.137
95716W        W68042   1.689  39.267   2.390
95717W        W68043  36.707  25.038   1.011
95718W        W68044  23.424  27.110  14.845
95719W        W68045  39.635  20.619  11.390
95720W        W68046   3.727   9.733  10.263
95721W        W68047  17.194  15.736  12.778
95722W        W68048  23.765  24.205   0.303
95723W        W68049  22.244  39.367  10.083
95724W        W68050  42.348  44.986   0.626
95725W        W68051  18.726  34.922   0.803
95726W        W68052   6.709  39.870   0.276
95727W        W68053  38.911  29.341   4.486
95728W        W68054  14.818  22.763   0.247
95729W        W68055  32.892  44.433  11.623
95730W        W68056  30.216  29.050   3.799
95731W        W68057  19.583  34.033  13.922
95732W        W68058  29.451  35.444  13.782
95733W        W68059  31.903  16.160   1.292
95734W        W68060  27.522  22.186   2.335
95735W        W68061  20.702   1.029   0.387
95736W        W68062  44.937   8.200   3.387
95737W        W68063  31.019  16.616   0.793
95738W        W68064  10.634  14.183   2.246
95739W        W68065   1.878  35.367   1.475
95740W        W68066  42.339  39.433  11.891
95741W        W68067   9.136  41.350  11.178
95742W        W68068  22.321  44.546  12.062
95743W        W68069  25.590  38.813   0.778
95744W        W68070  26.699   7.178  12.885
95745W        W68071  36.172   0.356  11.123
95746W        W68072  23.533  34.140   0.431
95747W        W68073  19.871  10.659  11.428
95748W        W68074   9.405  16.335  12.501
95749W        W68075  25.526   1.476   3.667
95750W        W68076  33.947  14.942   4.827
95751W        W68077  42.058  39.989  11.031
95752W        W68078  25.598  36.587   4.617
95753W        W68079  10.076  12.166  12.515
95754W        W68080  21.162  40.393   4.088
95755W        W68081  33.423   0.142   5.356
95756W        W68082   9.282  40.602   0.181
95757W        W68083   7.604   1.754  14.356
95758W        W68084  40.420  44.765   3.721
95759W        W68085  25.260  15.634  10.141
95760W        W68086  13.496  42.934   4.285
95761W        W68087  44.325  25.634  12.558
95762W        W68088   1.673  35.577   2.441
95763W        W68089  12.740  26.790  13.091
95764W        W68090  27.931  10.187  14.556
95765W        W68091   7.488  41.061   3.664
95766W        W68092  23.655   8.165   2.680
95767W        W68093  14.171  32.356  13.492
95768W        W68094  18.158   1.217  14.317
95769W        W68095  17.078   8.389  14.333
95770W        W68096  42.623  41.315   4.515
95771W        W68097   4.671  30.125  13.509
95772W        W68098  10.790  38.833  14.364
95773W        W68099   5.813  18.738  12.641
95774W        W68100  36.136  20.322   1.843
95775W        W68101   0.946  37.981   2.189
95776W        W68102   0.030  18.745   0.792
95777W        W68103  11.840  25.206  12.940
95778W        W68104   8.269   5.634   1.281
95779W        W68105  23.273  39.989   2.817
95780W        W68106   6.978   4.222  11.724
95781W        W68107   2.218  24.680   1.872
95782W        W68108  29.601   6.758   3.723
95783W        W68109   9.310  35.408  14.971
95784W        W68110   6.527  36.946  14.733
95785W        W68111   9.037  20.564  11.295
95786W        W68112   6.829  42.101   4.295
95787W        W68113  38.999   9.846   3.740
95788W        W68114  37.327  31.056  14.661
95789W        W68115  30.602  19.326  11.645
95790W        W68116   5.083   6.202   2.482
95791W        W68117  30.001  28.039   4.883
95792W        W68118  24.939  42.719   4.898
95793W        W68119  27.427   7.977   4.659
95794W        W68120  14.872  22.209   2.449
95795W        W68121  16.140  29.695   4.430
95796W        W68122  13.345  31.936  14.474
95797W        W68123  25.209  15.203   2.618
95798W        W68124  32.073   6.253   0.948
95799W        W68125  41.253  18.852  13.618
95800W        W68126  24.538  41.754  11.137
95801W        W68127  15.146   6.372   2.259
95802W        W68128  11.860   9.273   2.191
95803W        W68129  30.847   8.313  12.028
95804W        W68130  27.462  30.467   0.674
95805W        W68131  41.488  33.156  12.944
95806W        W68132  27.525  41.484   3.630
95807W        W68133  38.050  44.898  11.457
95808W        W68134  11.715   0.292  14.389
95809W        W68135   8.632  34.849   1.835
95810W        W68136  26.697  14.093  13.877
95811W        W68137   6.397   8.732   3.122
95812W        W68138   2.716  18.079   0.583
95813W        W68139  35.036  41.841   4.713
95814W        W68140   1.265  17.754   3.122
95815W        W68141  34.538  14.622   1.693
95816W        W68142  44.049  25.617   2.247
95817W        W68143  12.908  43.459   1.819
95818W        W68144  13.228  44.081   0.359
95819W        W68145  42.365  12.361  14.800
95820W        W68146   8.779  24.808   3.657
95821W        W68147   4.875  18.681   0.760
95822W        W68148   2.861  36.121   1.827
95823W        W68149  13.123  14.941   4.706
95824W        W68150  16.724  30.968   3.392
95825W        W68151  34.109  31.047  14.914
95826W        W68152  34.534  28.855   0.949
95827W        W68153  30.671  20.837   1.375
95828W        W68154   9.205  42.877   1.797
95829W        W68155  42.448  27.487   0.895
95830W        W68156  24.514  11.644  10.539
95831W        W68157   3.822  22.062  10.234
95832W        W68158  36.147  21.603  11.093
95833W        W68159   1.488   3.951  11.130
95834W        W68160   6.695  29.716   0.404
95835W        W68161  15.871  17.056  11.607
95836W        W68162  26.400  38.091   2.241
95837W        W68163  21.125  13.576  14.797
95838W        W68164  30.507  28.446  14.791
95839W        W68165  10.136   7.775   4.272
95840W        W68166  11.966  20.617   1.713
95841W        W68167  39.379   7.960  14.947
95842W        W68168  34.931  26.135   4.580
95843W        W68169   8.650  10.238   3.249
95844W        W68170   7.335  25.949  14.160
95845W        W68171  30.525  25.174   0.147
95846W        W68172  11.382   6.153  13.046
95847W        W68173  34.670   4.195   0.924
95848W        W68174   2.762  24.677   0.433
95849W        W68175  11.254  10.346  14.996
95850W        W68176  19.980  12.425   5.110
95851W        W68177  43.720  10.500  13.600
95852W        W68178  27.182  38.405  14.151
95853W        W68179  31.126  37.491  14.045
95854W        W68180  21.110  38.535  13.378
95855W        W68181  41.231  14.540   0.357
95856W        W68182  36.445  43.724  11.175
95857W        W68183   1.000  37.331  12.072
95858W        W68184   7.152  34.439  12.387
95859W        W68185  40.631  33.814   0.216
95860W        W68186  25.695   2.837  10.948
95861W        W68187  39.028  37.285   2.252
95862W        W68188  26.290  19.227  13.564
95863W        W68189  15.737  32.189   2.759
95864W        W68190  14.131  25.227   3.800
95865W        W68191  42.301  40.555  13.532
95866W        W68192   6.660  12.605  10.943
95867W        W68193  16.162  20.381  11.575
95868W        W68194  15.282   7.415   2.244
95869W        W68195  34.990  18.234  10.691
95870W        W68196  41.901   8.851  14.472
95871W        W68197  10.180  21.442  11.453
95872W        W68198  22.658  10.115   3.224
95873W        W68199  14.554  33.134   3.607
95874W        W68200  28.185  12.105   0.820
95875W        W68201  36.535  21.690  12.980
95876W        W68202  19.703  23.496   1.738
95877W        W68203   0.691  42.641   4.986
95878W        W68204  12.611  40.367   0.901
95879W        W68205  14.240  17.362  14.432
95880W        W68206  21.129  41.439   1.690
95881W        W68207  38.031  15.090  10.680
95882W        W68208  19.997   0.333  11.883
95883W        W68209   9.940  19.246  10.811
95884W        W68210   6.431   6.334   0.445
95885W        W68211  31.365   7.384  12.027
95886W        W68212  10.316  20.435  10.706
95887W        W68213  12.171  36.642   4.650
95888W        W68214  28.127  42.560   0.221
95889W        W68215  25.139  11.905  12.889
95890W        W68216  39.407  41.408   1.204
95891W        W68217   1.068  30.611   1.247
95892W        W68218  39.835  22.235  12.003
95893W        W68219  13.244  30.906   0.960
95894W        W68220  17.550  28.941  13.977
95895W        W68221  28.687  32.981  12.499
95896W        W68222  27.467  42.445  14.166
95897W        W68223  25.958   4.339  10.248
95898W        W68224  25.704  39.069  11.937
95899W        W68225  31.213  18.260   0.872
95900W        W68226  35.840  14.731  11.130
95901W        W68227  31.103  37.794  14.469
95902W        W68228  15.344  23.285  10.569
95903W        W68229   3.926  10.556  14.882
95904W        W68230  41.275  32.345   3.672
95905W        W68231  44.769  39.323   4.474
95906W        W68232   6.052  13.749  13.271
95907W        W68233  11.013   6.029   4.122
95908W        W68234  13.361  19.270  12.434
95909W        W68235  43.495  19.041   4.205
95910W        W68236  42.804  43.957  14.296
95911W        W68237  32.036  12.852   2.942
95912W        W68238  37.578  37.055   3.148
95913W        W68239  39.034  38.829   2.647
95914W        W68240  25.202  17.049   2.792
95915W        W68241  34.509  29.678  10.642
95916W        W68242  22.999  30.002   3.665
95917W        W68243  21.027   0.847   4.116
95918W        W68244  42.438   8.629   1.231
95919W        W68245  25.662  29.832  12.747
95920W        W68246   2.946  37.089  10.711
95921W        W68247  41.987  34.930  12.058
95922W        W68248  10.616   4.923   0.928
95923W        W68249  26.558  18.851   3.302
95924W        W68250  30.247  23.748   0.505
95925W        W68251   1.500  34.155   2.711
95926W        W68252   0.770   3.522   3.754
95927W        W68253  44.982  30.513  11.585
95928W        W68254  30.481  43.473   2.402
95929W        W68255  39.931  44.509   3.222
95930W        W68256  40.549  28.218   1.718
95931W        W68257  17.647  17.233   4.279
95932W        W68258   7.401  26.431   2.326
95933W        W68259  17.093  31.001  11.500
95934W        W68260  32.934   5.657  13.824
95935W        W68261   7.769  11.592  14.724
95936W        W68262  41.404  44.243  12.940
95937W        W68263  20.055  21.851   1.451
95938W        W68264  23.047  18.690  11.598
95939W        W68265  27.727  37.006   4.811
95940W        W68266  34.509  15.047  14.304
95941W        W68267  23.705  40.002   1.870
95942W        W68268  18.238  25.475  12.451
95943W        W68269  22.525  40.712  10.591
95944W        W68270  32.933   0.872  12.035
95945W        W68271   4.328  15.538   4.103
95946W        W68272  15.366   5.369  11.185
95947W        W68273  29.131  29.604   1.575
95948W        W68274  10.405  32.722  11.364
95949W        W68275  28.155  37.570  14.492
95950W        W68276  15.171  30.147  13.985
95951W        W68277  11.104   3.476   0.528
95952W        W68278  21.110  26.217  12.308
95953W        W68279  24.964  39.027   3.766
95954W        W68280  21.201   8.725   2.864
95955W        W68281  10.231  37.876  13.394
95956W        W68282  29.591  26.294  14.916
95957W        W68283  33.872  11.764   3.228
95958W        W68284  18.259   2.877  11.560
95959W        W68285  35.856   1.446  14.986
95960W        W68286  43.211  19.071  11.063
95961W        W68287  15.094  31.926   3.665
95962W        W68288  38.354  19.230  14.366
95963W        W68289  13.405   0.237  12.510
95964W        W68290   0.528  14.654   0.815
95965W        W68291  31.118  38.828  12.099
95966W        W68292  43.488  44.839  11.367
95967W        W68293   7.431   1.125  12.071
95968W        W68294  33.625  17.666   4.271
95969W        W68295  10.566  37.076   0.919
95970W        W68296  10.469  24.903  13.275
95971W        W68297  24.578   6.080   4.205
95972W        W68298  17.808  20.104  12.943
95973W        W68299   6.873  22.781  14.465
95974W        W68300   4.560  18.767  10.819
95975W        W68301   0.837   4.522  11.662
95976W        W68302  30.526   2.411  14.468
95977W        W68303  36.144  33.093   1.670
95978W        W68304   2.946  14.250   0.366
95979W        W68305  30.876   1.470  13.980
95980W        W68306   8.652  44.414  13.112
95981W        W68307  11.908  42.408   0.734
95982W        W68308  18.848  40.830   3.104
95983W        W68309  12.408  36.436   5.075
95984W        W68310  16.887  22.648   4.147
95985W        W68311  27.437  12.598  12.527
95986W        W68312  26.523  38.569  12.331
95987W        W68313  41.516  39.410  10.456
95988W        W68314   0.200  13.788  14.962
95989W        W68315  37.310   7.169  11.942
95990W        W68316  38.803  19.069  14.060
95991W        W68317  33.273  15.049   0.473
95992W        W68318  19.104   1.508  13.357
95993W        W68319  18.265  29.850  12.730
95994W        W68320  25.431  11.694  11.688
95995W        W68321  39.739  12.641   1.337
95996W        W68322  17.065  19.950   2.246
95997W        W68323  20.248  19.281  14.845
95998W        W68324  30.632  15.060   0.852
95999W        W68325   6.822  21.957   2.250
96000W        W68326   9.194  27.889  10.980
96001W        W68327   8.755  12.500  13.459
96002W        W68328  28.057  27.372  14.985
96003W        W68329  29.196  13.868   4.554
96004W        W68330   4.179   7.725  11.109
96005W        W68331  26.529   9.837  11.063
96006W        W68332  20.076  40.987  12.072
96007W        W68333  15.399   6.113   1.868
96008W        W68334  12.282   4.697  11.456
96009W        W68335   6.364  38.964   4.611
96010W        W68336  42.019  42.299   2.402
96011W        W68337  35.461  40.837  11.562
96012W        W68338   8.870  42.836   5.057
96013W        W68339  25.531  38.002   1.174
96014W        W68340  19.661  18.627  13.609
96015W        W68341  31.485   6.875  11.993
96016W        W68342  15.256  10.583  10.658
96017W        W68343  37.337  35.658   2.949
96018W        W68344   3.453  42.879  13.102
96019W        W68345  27.443  38.601  12.379
96020W        W68346  15.793  21.335   2.263
96021W        W68347  42.966  36.560  10.934
96022W        W68348  38.878  22.069  12.501
96023W        W68349  37.917  10.907  13.375
96024W        W68350  37.992  37.875  11.919
96025W        W68351  18.724  20.986   3.154
96026W        W68352  35.911   3.493   2.226
96027W        W68353  13.216  42.724  11.630
96028W        W68354   5.732  25.156   2.328
96029W        W68355  43.847   6.671  12.449
96030W        W68356  21.108  41.737   0.703
96031W        W68357  34.911  22.608  10.699
96032W        W68358  24.540  39.900   4.958
96033W        W68359  35.183  17.957  11.971
96034W        W68360  34.564  30.534   2.176
96035W        W68361  37.032  25.113  14.990
96036W        W68362  25.512  41.450   2.639
96037W        W68363  36.847  11.389  11.499
96038W        W68364   8.057  33.450  12.124
96039W        W68365   4.514  20.069   2.930
96040W        W68366  43.182  17.915   3.067
96041W        W68367   0.986  15.075   2.829
96042W        W68368  39.076   9.844   0.903
96043W        W68369  16.200  14.940  13.761
96044W        W68370  36.428  10.803  13.515
96045W        W68371  36.870  13.160   9.677
96046W        W68372  10.598  33.789  13.822
96047W        W68373   8.075  14.059   2.105
96048W        W68374  30.520  17.834   2.816
96049W        W68375  36.052  34.247   0.789
96050W        W68376  29.341  37.881  13.841
96051W        W68377  28.882  39.066   0.336
96052W        W68378   3.432  33.129  13.399
96053W        W68379   9.213  26.959   2.217
96054W        W68380  28.552  35.930   4.479
96055W        W68381  40.252  22.127   2.762
96056W        W68382  37.899  11.891  12.468
96057W        W68383  23.602  33.764  12.933
96058W        W68384  30.432  13.660   4.418
96059W        W68385  37.434  18.263  13.035
96060W        W68386  14.230  37.120   2.458
96061W        W68387   2.768  37.735   0.377
96062W        W68388  36.531  19.499   1.656
96063W        W68389  41.422  36.216  11.386
96064W        W68390  41.833  24.516  11.566
96065W        W68391  16.803  13.552  11.605
96066W        W68392   0.135  40.084  11.546
96067W        W68393  34.785  40.493   1.461
96068W        W68394  28.527   6.060  12.446
96069W        W68395  31.313  24.904  13.388
96070W        W68396  16.762  10.855  13.441
96071W        W68397  42.701  18.748  14.505
96072W        W68398  41.400  13.127   4.095
96073W        W68399  38.491  22.114   0.314
96074W        W68400   1.731  35.400  12.809
96075W        W68401  21.533  41.893   0.957
96076W        W68402  21.566  25.674   2.908
96077W        W68403   4.626  32.165   3.016
96078W        W68404   8.126   2.857  11.121
96079W        W68405  31.000  15.745   3.264
96080W        W68406  19.712  10.862   3.722
96081W        W68407  14.268  44.811  12.258
96082W        W68408  34.642  37.574   1.698
96083W        W68409  17.092  38.927   0.673
96084W        W68410  25.959  12.146  13.716
96085W        W68411  35.837  29.049  13.601
96086W        W68412  43.544  41.569  13.974
96087W        W68413  10.131  16.560   3.258
96088W        W68414  37.466  33.679  12.852
96089W        W68415   4.994  31.361   4.989
96090W        W68416  18.277  32.651  11.891
96091W        W68417  16.510  13.817   4.162
96092W        W68418  24.661   3.604  11.336
96093W        W68419  11.339  42.328   4.770
96094W        W68420  25.458  10.368   4.194
96095W        W68421  18.011  31.366   3.451
96096W        W68422  32.378  21.990  14.430
96097W        W68423   1.337  11.300   0.814
96098W        W68424  36.970  33.390  10.995
96099W        W68425  16.811  17.595  12.253
96100W        W68426  26.022  44.675  11.455
96101W        W68427  24.198  30.947  14.881
96102W        W68428  24.926   7.479   1.737
96103W        W68429  17.033  16.041  14.265
96104W        W68430  38.464   2.669  10.298
96105W        W68431  38.286  29.085  12.527
96106W        W68432  26.584  43.568  11.097
96107W        W68433  32.985  11.608  10.788
96108W        W68434  28.003  41.369  14.836
96109W        W68435  13.105  25.288  12.592
96110W        W68436  17.137  44.051  11.530
96111W        W68437   1.004  13.862   1.782
96112W        W68438   2.462  34.934  10.821
96113W        W68439   4.862  22.750  12.103
96114W        W68440  21.142  31.523   4.533
96115W        W68441   4.671   7.945  11.003
96116W        W68442  43.914   9.961  10.689
96117W        W68443  14.291  33.559   0.822
96118W        W68444  30.401  41.642   1.992
96119W        W68445  38.983   3.920  12.995
96120W        W68446  12.691   8.413   2.507
96121W        W68447  37.498   7.210  13.319
96122W        W68448   3.349  22.757  12.020
96123W        W68449  38.489  41.429  11.924
96124W        W68450  27.587  16.318  11.618
96125W        W68451  39.374   9.421   2.350
96126W        W68452   9.954  32.898  11.515
96127W        W68453  33.465  37.007  12.581
96128W        W68454  17.768  16.797   4.054
96129W        W68455  32.914   4.704   3.611
96130W        W68456  20.129  28.287   0.812
96131W        W68457  11.681  43.433   0.767
96132W        W68458  11.674  15.648   5.516
96133W        W68459   6.391  10.426  13.612
96134W        W68460  33.545  28.972  11.977
96135W        W68461   8.777  18.674  14.191
96136W        W68462  42.357  21.264  13.884
96137W        W68463  16.645   8.800   4.597
96138W        W68464   7.936  37.808   4.126
96139W        W68465   7.811  15.515   3.360
96140W        W68466  36.466  33.145  13.689
96141W        W68467  17.803  21.445  13.218
96142W        W68468  12.718  43.127   5.060
96143W        W68469  13.620   1.295  11.202
96144W        W68470  25.409   5.588   4.198
96145W        W68471  43.958   2.517   1.498
96146W        W68472  21.243   4.418   4.232
96147W        W68473  22.660  27.865  13.355
96148W        W68474  14.186  11.155   4.551
96149W        W68475  24.011   7.927  10.616
96150W        W68476  25.651  31.418  12.996
96151W        W68477  19.137  28.557   2.432
96152W        W68478  31.634  32.353  14.383
96153W        W68479  13.852  32.942   4.125
96154W        W68480  39.969  44.798  13.701
96155W        W68481  32.940  12.652   0.862
96156W        W68482  24.009  33.861   3.619
96157W        W68483  22.490  31.677  11.982
96158W        W68484  17.826  24.790   2.907
96159W        W68485  18.220  14.690  12.562
96160W        W68486  39.597  43.774   0.423
96161W        W68487   7.255  16.728  11.074
96162W        W68488  20.498  23.266   1.352
96163W        W68489  14.719  30.601   4.718
96164W        W68490   3.683  42.977   3.401
96165W        W68491  36.857  18.399  14.477
96166W        W68492  26.931  35.144   3.745
96167W        W68493   0.637  29.073  10.954
96168W        W68494   9.854   0.766   1.195
96169W        W68495  14.331   4.358  12.554
96170W        W68496  22.741  22.586  14.937
96171W        W68497  21.275   4.639  14.890
96172W        W68498  18.587  37.372   1.963
96173W        W68499  22.069  34.237  13.298
96174W        W68500  28.082  44.865   1.450
96175W        W68501  31.414  10.126  14.327
96176W        W68502  26.011  12.443   1.919
96177W        W68503  38.865   2.894  10.032
96178W        W68504  39.898  38.749  10.582
96179W        W68505  36.021  12.595   2.625
96180W        W68506  41.960  41.326  12.618
96181W        W68507  21.646  43.689   0.395
96182W        W68508  43.703  26.687  14.366
96183W        W68509  12.357  13.982  11.690
96184W        W68510  39.907  20.640  13.433
96185W        W68511  24.435  23.226   0.685
96186W        W68512   2.833  11.851  13.246
96187W        W68513  16.589  22.959   2.287
96188W        W68514  24.019  28.382   3.225
96189W        W68515   9.339  13.105   3.001
96190W        W68516  38.915   3.465   3.048
96191W        W68517  36.318  36.761  13.976
96192W        W68518   9.076   3.453  13.116
96193W        W68519   7.846  28.613  10.655
96194W        W68520  42.548   6.354   0.438
96195W        W68521  39.148   7.203  10.991
96196W        W68522  10.692  25.142   2.849
96197W        W68523  22.139  10.683  12.573
96198W        W68524   4.729  22.493  14.998
96199W        W68525  25.631   8.192  11.129
96200W        W68526  24.915  27.045  10.682
96201W        W68527  16.620  38.121   0.335
96202W        W68528  21.023   3.189   3.732
96203W        W68529  18.104  40.042   2.775
96204W        W68530  21.141  28.212  14.834
96205W        W68531  10.596  30.195  11.952
96206W        W68532  38.032  40.344   2.261
96207W        W68533  41.553  16.305   4.146
96208W        W68534  41.593   3.107  10.638
96209W        W68535  28.233  20.488   4.443
96210W        W68536  34.610  29.770   1.196
96211W        W68537  17.353  37.600  11.154
96212W        W68538  36.516  22.149  12.735
96213W        W68539  27.883  19.950   1.750
96214W        W68540   5.717  11.657   2.903
96215W        W68541  14.778  28.084   0.169
96216W        W68542  21.335   7.307   1.115
96217W        W68543  25.569  28.023   5.011
96218W        W68544   3.972   4.441  11.903
96219W        W68545  29.845   0.857   1.294
96220W        W68546  40.398  25.093  10.886
96221W        W68547   8.974  31.110   1.767
96222W        W68548  29.952   6.703  10.734
96223W        W68549  28.025   1.258   4.588
96224W        W68550   4.922   9.204  12.505
96225W        W68551   3.058  17.815  13.327
96226W        W68552  16.774   1.495  10.652
96227W        W68553  35.533  43.479  13.547
96228W        W68554  23.798  11.249  14.506
96229W        W68555   2.985  40.875  13.041
96230W        W68556  25.651  32.023  12.985
96231W        W68557  16.605  36.712  11.138
96232W        W68558  28.051   4.986   1.275
96233W        W68559  11.340  28.541   4.540
96234W        W68560  20.734  27.935   0.051
96235W        W68561  24.406  34.323  14.446
96236W        W68562   0.316  11.449   3.852
96237W        W68563  31.998   8.002  10.767
96238W        W68564   4.971  17.095  13.401
96239W        W68565  38.787  22.639   0.341
96240W        W68566   8.297   0.306  11.941
96241W        W68567  43.446  33.905  12.911
96242W        W68568   7.014   1.165   2.535
96243W        W68569  25.016  25.566   2.585
96244W        W68570  24.542  35.824   0.393
96245W        W68571  20.131  35.118   0.966
96246W        W68572  17.880  42.969   3.337
96247W        W68573  23.706  32.410   3.717
96248W        W68574  19.224  29.419   1.922
96249W        W68575  39.051  36.165   9.876
96250W        W68576  18.579  20.179   0.941
96251W        W68577  32.942  43.963   4.552
96252W        W68578  13.886  16.146  11.592
96253W        W68579  38.084   5.798  13.434
96254W        W68580  39.716  16.719   4.101
96255W        W68581  23.542  30.194  12.397
96256W        W68582   6.059  26.553  11.923
96257W        W68583  44.105  34.898   3.260
96258W        W68584  26.571   0.932  11.568
96259W        W68585  33.485  29.240   1.824
96260W        W68586  24.156  17.136   0.811
96261W        W68587   5.901   9.603   3.703
96262W        W68588  19.544   9.303  13.107
96263W        W68589  42.207   5.240   2.761
96264W        W68590  42.028  27.555   2.790
96265W        W68591   0.840  15.718  12.662
96266W        W68592   2.956  24.900  13.353
96267W        W68593   3.964  30.429  11.132
96268W        W68594  25.567  12.004   3.449
96269W        W68595  18.809  44.836   4.595
96270W        W68596  35.605  38.580  14.915
96271W        W68597  29.235   2.495  14.846
96272W        W68598  22.596   7.218  10.809
96273W        W68599  26.251  42.579   2.715
96274W        W68600   7.707  23.085  12.789
96275W        W68601  15.538  18.699  13.808
96276W        W68602   2.921   6.327   2.562
96277W        W68603  24.956  14.111  13.465
96278W        W68604  35.559  42.509  11.951
96279W        W68605   3.755  11.803   1.744
96280W        W68606  32.586  44.325  10.189
96281W        W68607  17.621   2.140   3.776
96282W        W68608  31.673  41.879  13.148
96283W        W68609  44.828  37.505  11.429
96284W        W68610  36.416   8.795  14.198
96285W        W68611  41.187  16.260  14.314
96286W        W68612  37.425  26.637  11.391
96287W        W68613  24.766  38.601   4.555
96288W        W68614  12.172   4.349   4.812
96289W        W68615  16.865  39.666  11.941
96290W        W68616  42.777  18.168   9.926
96291W        W68617   8.245  18.801  12.677
96292W        W68618  27.636   2.341  11.415
96293W        W68619  33.113   7.884  11.959
96294W        W68620   1.374   2.280   4.721
96295W        W68621  44.297  39.744  11.957
96296W        W68622  15.047  35.999   0.132
96297W        W68623  26.444  35.668   0.296
96298W        W68624  19.254   6.270   4.598
96299W        W68625   7.401  23.322   4.570
96300W        W68626  11.305  38.129  10.818
96301W        W68627  37.580   5.188   1.000
96302W        W68628  22.933  16.554   1.824
96303W        W68629  26.566  25.063   4.719
96304W        W68630  23.455  16.592  10.777
96305W        W68631  22.089  24.513   2.880
96306W        W68632  26.418  29.865  12.950
96307W        W68633  25.133   9.158   3.412
96308W        W68634  10.240   6.762   0.989
96309W        W68635  28.190  39.305   2.111
96310W        W68636  25.236  41.261   0.383
96311W        W68637   0.936  38.853   3.313
96312W        W68638  36.959   8.808  14.975
96313W        W68639   0.381  35.806   2.842
96314W        W68640  18.911   5.742   2.425
96315W        W68641  19.274   8.749   4.846
96316W        W68642  24.351  34.682  11.629
96317W        W68643  23.392  12.190   0.246
96318W        W68644   0.337  30.034  10.838
96319W        W68645  37.431  14.604  12.039
96320W        W68646   5.613  34.829  11.419
96321W        W68647  14.833  13.985  12.447
96322W        W68648   0.547  39.457  11.155
96323W        W68649  23.196  30.172   0.348
96324W        W68650  23.820   1.498   2.310
96325W        W68651  10.830  13.103  13.039
96326W        W68652  35.655  43.777  12.573
96327W        W68653  36.805   7.154   1.221
96328W        W68654  40.316  22.540   4.621
96329W        W68655  18.768   8.180   3.564
96330W        W68656  29.076  28.185  11.253
96331W        W68657   3.192  23.125   5.224
96332W        W68658  25.504  38.562  10.797
96333W        W68659  38.436   0.317   0.773
96334W        W68660  32.408  27.145   2.753
96335W        W68661  37.775  27.165   3.208
96336W        W68662   2.133  36.324   0.257
96337W        W68663  18.471   2.711   3.782
96338W        W68664   8.458  22.737  13.446
96339W        W68665  42.078  30.197  11.250
96340W        W68666  37.276  30.078   4.641
96341W        W68667  10.893  39.006  11.117
96342W        W68668  29.610  20.103  12.153
96343W        W68669  33.028  23.180   2.183
96344W        W68670  15.219   0.843   0.879
96345W        W68671   0.526   8.875   3.673
96346W        W68672  22.079  43.761  10.757
96347W        W68673  14.148   1.913   4.164
96348W        W68674  29.650   1.739   4.686
96349W        W68675  18.528  16.779  13.795
96350W        W68676   0.878  20.223   2.241
96351W        W68677  43.852  25.540   3.762
96352W        W68678   8.650  30.034  11.909
96353W        W68679  39.037   3.404  12.980
96354W        W68680   5.374  10.477  11.229
96355W        W68681   0.862   4.707  12.898
96356W        W68682  44.822  26.717   4.652
96357W        W68683   8.555   1.600   4.194
96358W        W68684  40.157   7.183  11.132
96359W        W68685  24.028  15.566  11.637
96360W        W68686  14.662  26.549   0.307
96361W        W68687   0.202   8.369  12.105
96362W        W68688  43.279   4.467   4.310
96363W        W68689  38.842  36.418   1.276
96364W        W68690  37.097  28.850  12.997
96365W        W68691   4.230   0.449   0.613
96366W        W68692  27.164  13.388   2.496
96367W        W68693  10.965  17.150  14.074
96368W        W68694  35.404  26.103   3.731
96369W        W68695  13.334  19.863  10.781
96370W        W68696  32.336  30.273  11.946
96371W        W68697  30.429  24.623   3.169
96372W        W68698  28.029   9.904  11.392
96373W        W68699  22.799  20.560   0.275
96374W        W68700   5.530   6.683  11.005
96375W        W68701  39.868   5.742  11.932
96376W        W68702  16.787  40.586  10.509
96377W        W68703  35.106  33.216   2.356
96378W        W68704  43.645  21.523  12.297
96379W        W68705  38.426   3.449   3.806
96380W        W68706  10.239   8.569   0.957
96381W        W68707   8.277  39.914   3.766
96382W        W68708  16.021   0.228  12.128
96383W        W68709   0.238   5.481  11.368
96384W        W68710   4.911  24.972   1.280
96385W        W68711  30.607  37.232   4.132
96386W        W68712  22.481  29.972  10.911
96387W        W68713   7.718  15.326   4.264
96388W        W68714   2.430  42.878   0.826
96389W        W68715  36.614  22.712   1.124
96390W        W68716  16.880  17.007   4.827
96391W        W68717  38.914  36.209  14.939
96392W        W68718   2.330   6.847  13.951
96393W        W68719  28.987  42.768   0.957
96394W        W68720   7.877  13.785   0.496
96395W        W68721   6.245  40.006  13.818
96396W        W68722  39.930  32.622  10.666
96397W        W68723  15.157   9.903  13.808
96398W        W68724  30.079  22.515   2.180
96399W        W68725  38.449   3.439   2.830
96400W        W68726  27.139  33.145   0.322
96401W        W68727  29.566  20.487   4.502
96402W        W68728  33.621  35.919  12.549
96403W        W68729  26.584  40.580  10.392
96404W        W68730  44.745  35.606  12.828
96405W        W68731  41.325  21.954  12.855
96406W        W68732   3.261  16.241  12.814
96407W        W68733  43.065  14.272   2.746
96408W        W68734  15.492  40.999   4.131
96409W        W68735  13.377  38.807   0.427
96410W        W68736  30.673  39.036   0.960
96411W        W68737  29.634  16.084   4.291
96412W        W68738  10.911  18.024  13.405
96413W        W68739  37.300  40.353   0.713
96414W        W68740  30.538  40.954  12.619
96415W        W68741  25.145  44.435   4.749
96416W        W68742   4.835  23.657   1.740
96417W        W68743  16.208  36.826  13.840
96418W        W68744  10.330  20.977   1.304
96419W        W68745  19.217  30.519  12.943
96420W        W68746  15.205  36.037  11.204
96421W        W68747  34.605  33.599  13.980
96422W        W68748  15.692  35.635   0.782
96423W        W68749  10.194  14.757   1.816
96424W        W68750  41.401  28.664   4.115
96425W        W68751  25.444  42.418   3.213
96426W        W68752  44.183  43.990  13.014
96427W        W68753  23.949   4.533   0.780
96428W        W68754  28.186  31.920   2.814
96429W        W68755  44.827  26.732  10.908
96430W        W68756  24.239   0.293  14.114
96431W        W68757  30.145  21.235  10.986
96432W        W68758  19.761  36.774  13.952
96433W        W68759  22.263  38.781  14.258
96434W        W68760  21.072   1.492  13.813
96435W        W68761   9.682   3.761  13.530
96436W        W68762   7.085  28.970   3.230
96437W        W68763  29.611   8.695   3.727
96438W        W68764  40.609  28.104   5.071
96439W        W68765  22.184  31.296  14.583
96440W        W68766  42.047  23.453  14.401
96441W        W68767  39.940  34.391  11.482
96442W        W68768  41.575   9.148   1.313
96443W        W68769  16.004  27.191   1.758
96444W        W68770   2.387   8.741   5.033
96445W        W68771   6.812  12.595   1.269
96446W        W68772  22.064   9.924   3.450
96447W        W68773   6.815  19.344  13.806
96448W        W68774  17.605  44.798   0.213
96449W        W68775  37.019  21.057  14.826
96450W        W68776  40.263  36.137  10.589
96451W        W68777  29.151  42.492  11.864
96452W        W68778  39.530  36.353   4.849
96453W        W68779   4.786   2.923   1.436
96454W        W68780  16.979  34.944  13.020
96455W        W68781  35.169  25.511   0.717
96456W        W68782  34.032  35.821  11.638
96457W        W68783  35.756  14.031  12.399
96458W        W68784   9.416  34.669   1.857
96459W        W68785  28.588  38.007  11.710
96460W        W68786  38.518   8.213  14.468
96461W        W68787  29.315  33.585   2.154
96462W        W68788  44.543  34.207   5.081
96463W        W68789  22.030   6.873  14.478
96464W        W68790   9.700   9.220  13.876
96465W        W68791  44.896  27.470   2.246
96466W        W68792  22.440  28.888   2.077
96467W        W68793   3.603   7.648   2.441
96468W        W68794  16.699  31.866   1.197
96469W        W68795  44.384  33.677   5.028
96470W        W68796  40.468  21.078  10.174
96471W        W68797   3.525  13.671   0.785
96472W        W68798  44.385  29.352   3.378
96473W        W68799  35.353  22.411  14.393
96474W        W68800  40.118  28.628  12.998
96475W        W68801  27.948  40.937  14.552
96476W        W68802   8.478   8.289  11.016
96477W        W68803  18.180  31.194  10.719
96478W        W68804   2.489  30.669   0.773
96479W        W68805  43.902   6.428  12.951
96480W        W68806  26.757  42.911   4.688
96481W        W68807   0.028   6.924   2.659
96482W        W68808   6.454  23.618  14.526
96483W        W68809  40.278  31.004   3.645
96484W        W68810  14.144  30.106   1.687
96485W        W68811  31.454  42.831   5.048
96486W        W68812   6.212   7.788   4.745
96487W        W68813  36.524  23.527  12.478
96488W        W68814   9.840  25.482   2.734
96489W        W68815  10.502  26.078  10.479
96490W        W68816  41.321  36.910   0.297
96491W        W68817   1.868  13.763  12.581
96492W        W68818  35.421  22.299   0.712
96493W        W68819   9.700  41.510   0.533
96494W        W68820  34.967  12.755  14.325
96495W        W68821   5.164  39.119  12.064
96496W        W68822  35.104  17.860   3.639
96497W        W68823   2.145   1.548   9.818
96498W        W68824  35.898  10.650   1.249
96499W        W68825  31.359  21.771   3.110
96500W        W68826  20.237  17.035   2.297
96501W        W68827  30.401  12.791  10.680
96502W        W68828  17.992  42.849  13.536
96503W        W68829   9.791  43.205   2.360
96504W        W68830   7.180   2.267   1.275
96505W        W68831   0.042  32.114  11.038
96506W        W68832  14.227  44.062   1.736
96507W        W68833  38.815  27.109   3.070
96508W        W68834   0.668  16.255  12.099
96509W        W68835  14.183  33.078   2.329
96510W        W68836   8.600  18.944  11.701
96511W        W68837  25.131  15.905  11.534
96512W        W68838  20.201  24.633  12.468
96513W        W68839  29.354  17.998   3.791
96514W        W68840  36.789  15.228   2.186
96515W        W68841  28.958  23.451   2.342
96516W        W68842  37.701  35.023   2.663
96517W        W68843  18.303  40.939   1.749
96518W        W68844  29.458  40.064   0.893
96519W        W68845   9.918  11.133  12.398
96520W        W68846  19.634  30.550  14.832
96521W        W68847   3.885  12.918   0.493
96522W        W68848  44.636   3.397   4.590
96523W        W68849  25.759  34.473  12.905
96524W        W68850  26.967   7.850   2.768
96525W        W68851  10.488  27.167  11.159
96526W        W68852  18.634  31.872  13.783
96527W        W68853  18.337  38.234  11.658
96528W        W68854  16.792  22.045  13.292
96529W        W68855   4.292  21.388   0.259
96530W        W68856  31.031  14.590  11.109
96531W        W68857  42.472  37.303  11.192
96532W        W68858   7.728  11.487   2.109
96533W        W68859  39.731  12.581   0.373
96534W        W68860   0.368  36.112   0.510
96535W        W68861   1.025  37.628   2.561
96536W        W68862  33.611   6.484   1.817
96537W        W68863  28.121  34.243  14.437
96538W        W68864   2.031  20.807  11.611
96539W        W68865  28.459   4.260   0.882
96540W        W68866   3.941  11.425   0.210
96541W        W68867   3.914  34.151  13.793
96542W        W68868  44.939  19.082  14.682
96543W        W68869   2.924  25.173   0.324
96544W        W68870  40.065  43.779  14.417
96545W        W68871  12.221  36.506   0.858
96546W        W68872  22.473  31.548   4.829
96547W        W68873   9.673   4.699  14.364
96548W        W68874  20.752  28.951   2.307
96549W        W68875  44.389   6.691  10.623
96550W        W68876  25.998   4.392   3.318
96551W        W68877  21.048   1.435  14.320
96552W        W68878  37.035  10.291   3.584
96553W        W68879  37.732  33.244  13.035
96554W        W68880  42.357  32.979  14.855
96555W        W68881  37.023   9.330   3.449
96556W        W68882  33.323   6.029  14.905
96557W        W68883  22.873  32.014  14.429
96558W        W68884  25.210  27.389  11.564
96559W        W68885   2.381  40.495   0.328
96560W        W68886   0.264  40.506   4.063
96561W        W68887   8.896  10.830   0.113
96562W        W68888  26.607  12.703  13.364
96563W        W68889  19.236  35.987   0.240
96564W        W68890  24.514  40.422  12.059
96565W        W68891  18.231  40.506  10.942
96566W        W68892  34.576  32.610  13.969
96567W        W68893  21.083  32.101  14.502
96568W        W68894  41.375  39.328   0.848
96569W        W68895   0.894  10.338   3.103
96570W        W68896  37.056  20.119  13.732
96571W        W68897   9.152   5.635  13.415
96572W        W68898  34.852  40.216  13.946
96573W        W68899  22.196  42.326  14.800
96574W        W68900   9.535  37.885   2.338
96575W        W68901  15.723  33.953  11.048
96576W        W68902  24.226  15.716   4.612
96577W        W68903  43.250  21.219  14.032
96578W        W68904  37.608  19.736  12.024
96579W        W68905  34.557  25.857   2.403
96580W        W68906  16.898  22.803   3.238
96581W        W68907  24.010  12.702   2.362
96582W        W68908  29.428   8.364   0.916
96583W        W68909  36.810  14.266  11.735
96584W        W68910  39.455  13.881  13.131
96585W        W68911  17.513  40.319  13.029
96586W        W68912  21.258  26.332   5.097
96587W        W68913  21.230  30.556   1.019
96588W        W68914   3.470  29.300   3.550
96589W        W68915  43.879  26.050   1.809
96590W        W68916   6.391  12.310   2.963
96591W        W68917  39.651   8.861  12.987
96592W        W68918  32.617  13.300  10.370
96593W        W68919   7.214  40.882  14.848
96594W        W68920  39.773   5.787   0.221
96595W        W68921  41.570  20.987   0.741
96596W        W68922  11.136  12.613  14.024
96597W        W68923  35.282   8.930  13.426
96598W        W68924  34.635  24.751  12.776
96599W        W68925  33.562   4.141  11.148
96600W        W68926  44.981   5.703   0.999
96601W        W68927  41.379  41.785   0.924
96602W        W68928  40.940  37.985   3.509
96603W        W68929   5.808  34.125   1.364
96604W        W68930   2.333  11.720  14.371
96605W        W68931  40.834  19.720  11.672
96606W        W68932  32.132  36.518  11.349
96607W        W68933  38.486  22.122  11.451
96608W        W68934  43.500   3.540   4.063
96609W        W68935  19.663  23.680   0.688
96610W        W68936  34.976  38.299  13.532
96611W        W68937   9.693  38.460   1.457
96612W        W68938   8.366  31.227  14.102
96613W        W68939   5.668  25.761   3.137
96614W        W68940  39.279   6.351   2.168
96615W        W68941   4.954  40.582  13.466
96616W        W68942  12.819  25.440   0.691
96617W        W68943  31.586   1.494   0.880
96618W        W68944  37.764  43.479  14.458
96619W        W68945  26.984  33.099   1.334
96620W        W68946  14.761  25.526   1.262
96621W        W68947   5.093   0.993  13.965
96622W        W68948  21.600  28.154  12.987
96623W        W68949  18.105   4.843   1.472
96624W        W68950   3.831  20.890  11.962
96625W        W68951  32.384  22.103   0.592
96626W        W68952  14.009  26.037   1.192
96627W        W68953  38.539  12.666   0.850
96628W        W68954  10.255  38.850   3.505
96629W        W68955  44.861  26.209   0.773
96630W        W68956  43.070  17.093   0.911
96631W        W68957  30.400  44.924  13.485
96632W        W68958   1.293  31.640   2.125
96633W        W68959  33.972  29.156   2.012
96634W        W68960  19.541  11.153  14.000
96635W        W68961  34.103  32.125  12.882
96636W        W68962  35.680  43.879   0.950
96637W        W68963  11.088  27.589  12.890
96638W        W68964  10.134  42.923  13.095
96639W        W68965   1.498  24.186   0.347
96640W        W68966  16.469  26.631   2.773
96641W        W68967   6.508  27.845   1.752
96642W        W68968  27.117  42.402  12.138
96643W        W68969  27.442  18.085   0.868
96644W        W68970  43.430  13.591  11.487
96645W        W68971  31.353  36.665  10.812
96646W        W68972  39.466  18.204   4.835
96647W        W68973  11.066  30.996   0.012
96648W        W68974  24.227   4.395   2.097
96649W        W68975   9.173  16.968   4.217
96650W        W68976  30.856  31.867  14.828
96651W        W68977  25.148  27.640  12.930
96652W        W68978  40.867   1.730   3.579
96653W        W68979  36.459  18.064  14.419
96654W        W68980  23.069  19.660   3.611
96655W        W68981  15.536  22.063   0.344
96656W        W68982  19.132  29.547  12.090
96657W        W68983  40.924  16.832  13.566
96658W        W68984  32.474  43.270   0.567
96659W        W68985   6.638  38.014  11.610
96660W        W68986  11.774  43.039   2.415
96661W        W68987  41.454  25.734  13.366
96662W        W68988   7.307  33.370  11.203
96663W        W68989  17.540  31.686   4.821
96664W        W68990  22.122  35.024   0.007
96665W        W68991  28.868   0.523  14.819
96666W        W68992  38.318  14.616  13.331
96667W        W68993  29.466  15.660   9.972
96668W        W68994  13.473   8.474  12.874
96669W        W68995  43.734  20.684  11.567
96670W        W68996  33.360  16.527  14.482
96671W        W68997   3.186  10.555  11.940
96672W        W68998  13.641  35.819   0.451
96673W        W68999  35.069   3.721   0.799
96674W        W69000  21.321  34.294  11.402
96675W        W69001   8.922  10.805  11.100
96676W        W69002  25.440  28.439   1.158
96677W        W69003  32.676   4.287   1.896
96678W        W69004   7.391  26.223  12.806
96679W        W69005  29.532  39.409  11.289
96680W        W69006  39.895  14.424   4.952
96681W        W69007  35.828  36.520   0.780
96682W        W69008   0.269   0.712   2.859
96683W        W69009  37.531  30.611   3.655
96684W        W69010  18.356  13.259   1.685
96685W        W69011  23.743  36.157   3.924
96686W        W69012  43.656  40.639   3.054
96687W        W69013  34.593  24.217   0.180
96688W        W69014  16.482  25.205   1.649
96689W        W69015   6.484  14.660  10.698
96690W        W69016  18.673   4.961  10.729
96691W        W69017   9.368  32.499  11.091
96692W        W69018  36.050  15.727   4.724
96693W        W69019   1.310  30.121  13.515
96694W        W69020   6.380   3.525   9.894
96695W        W69021  31.834  32.503   0.719
96696W        W69022  32.946  40.543   4.889
96697W        W69023  31.571  21.940  13.624
96698W        W69024  30.889  20.185   0.321
96699W        W69025   5.556   9.236   0.396
96700W        W69026  36.050  10.988  10.577
96701W        W69027  32.000  40.420  10.513
96702W        W69028  12.397  27.963  11.937
96703W        W69029   4.626  38.919   0.171
96704W        W69030  30.159   7.857  14.091
96705W        W69031   6.304  30.997  14.687
96706W        W69032  39.845  15.413   3.651
96707W        W69033  40.200   8.789   2.742
96708W        W69034  19.619  24.207   2.217
96709W        W69035   3.878  31.431  11.550
96710W        W69036  20.869  34.172   2.856
96711W        W69037  44.315  13.630   4.400
96712W        W69038  23.039  21.326  10.088
96713W        W69039  42.595  35.915  14.676
96714W        W69040  16.564  18.074   3.679
96715W        W69041   0.776  31.185   0.366
96716W        W69042  23.694  44.702  14.026
96717W        W69043  31.495  12.713  12.915
96718W        W69044   5.801  22.985   2.451
96719W        W69045  27.301  29.534  11.619
96720W        W69046  12.575   7.836  10.674
96721W        W69047   3.263   5.002   5.098
96722W        W69048  34.918  44.887   2.700
96723W        W69049  13.265   4.977   3.235
96724W        W69050   9.455  24.715   0.861
96725W        W69051  22.308  12.250  12.963
96726W        W69052   7.373   7.938  11.273
96727W        W69053   9.521  25.695  14.479
96728W        W69054  18.326  41.390  11.359
96729W        W69055  29.948  41.546   0.996
96730W        W69056  17.555   2.533   0.459
96731W        W69057  11.829  16.727   3.742
96732W        W69058  43.362  41.108  12.983
96733W        W69059  39.373  12.234  13.402
96734W        W69060  11.431  25.717   0.837
96735W        W69061  44.961   5.797  13.569
96736W        W69062  37.443  22.289  14.920
96737W        W69063   8.334   9.600   4.714
96738W        W69064   5.321  38.891   0.005
96739W        W69065  43.419   8.313  12.166
96740W        W69066  22.118  35.459  13.325
96741W        W69067   4.449  32.124  13.067
96742W        W69068  26.022   7.488   4.873
96743W        W69069  24.169  24.695   3.899
96744W        W69070  37.018  42.394  12.131
96745W        W69071   4.409  20.978   2.756
96746W        W69072  33.766  33.491   9.814
96747W        W69073  28.430  28.899  10.238
96748W        W69074   0.159  24.633  12.832
96749W        W69075  14.675  34.387  12.565
96750W        W69076  43.534  17.107  11.116
96751W        W69077  17.861  28.459   0.940
96752W        W69078  14.868  38.625  14.856
96753W        W69079   7.291  35.924   3.314
96754W        W69080  20.097  41.925   2.422
96755W        W69081  41.248  33.561   4.247
96756W        W69082  12.347  39.436  12.570
96757W        W69083  34.671  24.001   2.253
96758W        W69084  24.498  21.691   3.787
96759W        W69085  29.489   6.630  11.647
96760W        W69086  14.197  31.413   1.165
96761W        W69087  30.875  42.846   1.789
96762W        W69088  24.849  33.341  13.012
96763W        W69089  27.715  22.685   2.362
96764W        W69090  42.875  20.664   2.241
96765W        W69091   2.459  44.298   1.221
96766W        W69092   0.773  43.919   4.825
96767W        W69093  17.215  23.614   1.915
96768W        W69094  21.360  14.811   1.526
96769W        W69095  42.505  22.580  13.840
96770W        W69096   5.782  11.896   0.245
96771W        W69097  29.383  20.786   2.952
96772W        W69098  38.399   2.017  13.935
96773W        W69099  43.519  43.873  10.570
96774W        W69100  13.088  31.976   3.190
96775W        W69101  28.991  22.203   4.547
96776W        W69102  16.015  39.461   2.289
96777W        W69103  10.232  18.019  10.753
96778W        W69104  18.297  17.538  12.495
96779W        W69105  29.642  35.900   2.408
96780W        W69106   3.656  19.779  12.544
96781W        W69107  33.347  22.051   0.866
96782W        W69108  13.481  36.788   4.146
96783W        W69109  40.879   6.915   2.799
96784W        W69110   4.625  41.849  11.196
96785W        W69111  26.532  21.150   4.896
96786W        W69112  28.937  18.761   1.906
96787W        W69113  16.623  11.042  12.854
96788W        W69114  11.355  43.957   2.194
96789W        W69115  26.915  36.972   1.342
96790W        W69116   8.297  35.403  14.521
96791W        W69117   3.386  16.794   5.026
96792W        W69118   6.715  10.353  12.433
96793W        W69119  25.307  25.092  11.694
96794W        W69120  36.418  18.580  12.434
96795W        W69121   6.215  15.074  14.539
96796W        W69122  20.021  34.943  11.614
96797W        W69123   2.374  35.797   1.829
96798W        W69124  28.611   1.787   0.071
96799W        W69125  27.250  30.396  11.110
96800W        W69126  21.990  22.206  14.364
96801W        W69127  25.188  18.333   2.450
96802W        W69128  15.047  27.173  12.218
96803W        W69129  41.786   9.422  13.722
96804W        W69130  42.853   9.323   0.367
96805W        W69131   6.101  35.008  14.768
96806W        W69132  26.213  31.629  13.575
96807W        W69133  40.386  26.177  14.093
96808W        W69134   2.905  19.675   1.448
96809W        W69135  25.670  37.500  14.371
96810W        W69136   2.014  28.959   3.705
96811W        W69137  10.409  23.976   2.272
96812W        W69138  38.964   3.831   1.183
96813W        W69139  19.703  10.844  10.472
96814W        W69140   9.250  24.987  11.324
96815W        W69141  27.917  43.930   1.102
96816W        W69142   9.390   8.400   0.278
96817W        W69143  35.100  14.102   2.612
96818W        W69144  36.736  35.489  11.992
96819W        W69145  13.433   0.839  14.749
96820W        W69146  35.385  22.724   4.798
96821W        W69147  14.348  20.087   2.817
96822W        W69148  23.112  15.632  10.347
96823W        W69149  32.780  35.656   5.068
96824W        W69150   7.431   9.699   4.844
96825W        W69151  41.526  17.539   0.018
96826W        W69152  36.584  14.202   2.812
96827W        W69153  39.037  40.783  10.689
96828W        W69154   4.830  32.673   4.203
96829W        W69155  13.651  11.855   4.679
96830W        W69156  21.626  15.188  13.030
96831W        W69157  26.720  27.545   1.317
96832W        W69158  30.943  26.036   0.478
96833W        W69159  30.468  26.898   0.808
96834W        W69160  36.487  41.382   4.204
96835W        W69161   4.781   8.164   4.581
96836W        W69162   0.491  24.706   2.797
96837W        W69163  39.530  10.267  12.955
96838W        W69164  29.991  21.797   4.430
96839W        W69165  36.290  14.088   1.253
96840W        W69166   1.172  25.923  11.959
96841W        W69167  16.695  20.462   4.359
96842W        W69168  42.284  14.018   3.364
96843W        W69169  30.462  16.738  12.304
96844W        W69170  34.477  31.133   4.959
96845W        W69171   6.788  37.124   4.004
96846W        W69172  20.967  19.706   2.400
96847W        W69173  22.443   2.322  12.537
96848W        W69174  13.425  40.492  13.532
96849W        W69175  39.022  37.437  12.020
96850W        W69176  26.195  27.575   5.045
96851W        W69177  10.847  37.663  12.459
96852W        W69178  20.434  20.052  12.639
96853W        W69179   4.817  15.672   3.412
96854W        W69180  23.105  28.547   0.830
96855W        W69181  11.716  14.589  11.177
96856W        W69182  34.984  24.654   0.492
96857W        W69183  11.847  28.142  11.808
96858W        W69184  10.771  10.872   0.473
96859W        W69185  30.572  35.106   1.519
96860W        W69186  28.363  36.036  13.690
96861W        W69187  39.859  13.051  10.677
96862W        W69188  13.525   3.640   1.243
96863W        W69189  12.093  17.989   0.421
96864W        W69190  17.011  33.030   1.369
96865W        W69191  23.215  24.115   4.227
96866W        W69192  23.482  10.399  11.435
96867W        W69193   8.294  22.565  11.506
96868W        W69194  17.084  44.596   4.586
96869W        W69195  13.227   6.942   3.642
96870W        W69196  34.106  10.833  13.853
96871W        W69197   0.915  40.451  10.572
96872W        W69198  33.597   8.286   4.367
96873W        W69199  22.480   3.566  11.589
96874W        W69200  39.354   1.684  13.871
96875W        W69201  36.406  25.087   4.644
96876W        W69202   0.967  14.746   3.220
96877W        W69203   8.869  32.971  12.826
96878W        W69204  25.527  36.532  11.063
96879W        W69205  43.846  28.170   2.736
96880W        W69206   8.724  41.421   0.305
96881W        W69207  12.408  37.453   2.149
96882W        W69208  38.140  13.131  14.239
96883W        W69209  41.826   2.548  14.799
96884W        W69210   6.196  37.027   4.674
96885W        W69211  42.251   7.935   1.941
96886W        W69212  11.857  16.206   3.126
96887W        W69213  39.816  40.591  13.786
96888W        W69214   4.649  34.501   3.844
96889W        W69215  33.536  32.371   1.457
96890W        W69216  18.581  24.794  11.382
96891W        W69217   4.861  25.934  14.841
96892W        W69218   0.934  39.381  13.471
96893W        W69219  42.772  26.145  12.161
96894W        W69220  30.646  34.418  11.889
96895W        W69221   0.273  41.444   4.068
96896W        W69222   1.788  39.161  11.031
96897W        W69223  35.414   8.969   0.515
96898W        W69224  23.193  40.054  10.977
96899W        W69225   0.279  25.057  13.402
96900W        W69226  16.372  10.230   3.638
96901W        W69227  31.258   2.349   2.721
96902W        W69228  29.726  12.829   4.692
96903W        W69229  19.524   9.917   1.494
96904W        W69230  19.680   0.400   1.317
96905W        W69231  33.026  36.822  13.985
96906W        W69232  20.162  26.751  10.328
96907W        W69233  20.687  38.047  14.521
96908W        W69234  28.690  21.190  13.865
96909W        W69235  35.056   0.084  11.443
96910W        W69236   6.807  15.129  11.091
96911W        W69237  30.031  29.042  14.957
96912W        W69238  32.441   5.728  11.069
96913W        W69239  13.188  41.615  10.820
96914W        W69240  19.803  30.676   1.981
96915W        W69241  40.882  11.284   4.274
96916W        W69242  12.654  10.867  10.703
96917W        W69243  12.123  40.442  12.888
96918W        W69244  43.752   4.859  12.105
96919W        W69245  17.714  20.947  13.343
96920W        W69246  20.083  23.076   0.328
96921W        W69247   1.012  31.050  12.890
96922W        W69248   5.211  11.301   4.618
96923W        W69249  37.944  40.071   1.827
96924W        W69250  23.900  44.897  13.584
96925W        W69251  33.841  20.204   2.858
96926W        W69252  29.093  24.996   3.198
96927W        W69253  20.444  21.170  10.140
96928W        W69254   1.684  40.076   1.881
96929W        W69255  22.786   8.713   2.692
96930W        W69256  38.758  30.080  11.746
96931W        W69257  43.212  23.499   2.800
96932W        W69258  40.793  17.744  12.659
96933W        W69259  25.971  34.307   0.146
96934W        W69260  36.398  44.501  13.791
96935W        W69261  28.320  29.395  10.263
96936W        W69262   1.244  37.239  13.901
96937W        W69263  23.895   8.108   2.237
96938W        W69264  34.117  31.980   3.689
96939W        W69265   9.272  22.663   2.739
96940W        W69266  43.955  10.941  12.549
96941W        W69267   5.334  29.960   4.793
96942W        W69268  24.712  11.572  13.441
96943W        W69269  21.261   5.006  12.841
96944W        W69270  44.385  41.321  10.748
96945W        W69271  43.699   7.316   2.370
96946W        W69272  25.456  27.496  13.347
96947W        W69273   6.481  26.011  12.609
96948W        W69274  40.230   2.202   3.779
96949W        W69275   9.778  27.766  11.614
96950W        W69276  25.725  43.066  11.047
96951W        W69277  36.495  23.535  12.994
96952W        W69278  37.920  42.474   2.478
96953W        W69279  43.275  10.821  13.034
96954W        W69280  24.619  18.284  11.547
96955W        W69281  17.277  38.714   4.073
96956W        W69282  44.068  12.083   3.088
96957W        W69283  23.003  18.349  14.558
96958W        W69284  32.523  24.886   4.160
96959W        W69285  20.450  14.162  11.085
96960W        W69286  16.347  36.892   0.358
96961W        W69287   2.468  20.463  10.118
96962W        W69288   3.926   6.873   3.745
96963W        W69289   9.283  40.843   3.110
96964W        W69290  10.728  23.032   1.995
96965W        W69291  20.327  28.133  13.632
96966W        W69292  32.015  24.187   1.296
96967W        W69293   8.194  17.819   4.088
96968W        W69294  37.812  20.973   2.358
96969W        W69295  35.066  21.676  11.130
96970W        W69296  36.871  20.265  10.774
96971W        W69297  19.667   7.166  13.512
96972W        W69298  43.758  36.967   3.666
96973W        W69299  24.593  43.044   3.909
96974W        W69300  40.479  23.681   4.535
96975W        W69301  37.453   0.936   4.191
96976W        W69302  15.133   1.549   1.415
96977W        W69303  43.024  12.585  14.461
96978W        W69304  10.736  17.832  14.779
96979W        W69305  28.441  17.035   4.156
96980W        W69306  27.173   1.824   3.164
96981W        W69307  28.005  24.147  13.204
96982W        W69308   0.845   5.745   4.767
96983W        W69309  31.054  32.008   3.434
96984W        W69310  19.390   1.739  12.111
96985W        W69311  12.797  11.673  13.445
96986W        W69312  27.095  27.654   3.145
96987W        W69313  44.161  31.346   3.729
96988W        W69314  37.022  44.857   0.233
96989W        W69315  41.854  12.870   2.120
96990W        W69316  32.456  27.687  12.024
96991W        W69317   9.151   4.769  14.371
96992W        W69318  37.045  33.845  12.495
96993W        W69319  19.698  21.758  14.342
96994W        W69320   9.956  33.414   2.758
96995W        W69321  17.092   9.448  10.705
96996W        W69322  19.106  10.268   1.442
96997W        W69323  22.422  17.380   2.327
96998W        W69324   0.945  29.086   1.935
96999W        W69325   1.924  32.943  13.319
97000W        W69326  41.731  19.160   0.331
97001W        W69327  10.562  33.558  12.853
97002W        W69328  16.482  12.122   0.388
97003W        W69329  25.199   6.335   2.295
97004W        W69330   2.672  44.967   0.674
97005W        W69331  34.922   9.741   0.624
97006W        W69332  28.170  11.601   3.161
97007W        W69333  12.227  43.911   4.486
97008W        W69334  27.982   8.738  10.601
97009W        W69335  35.163  26.675  12.143
97010W        W69336  36.184  11.795  13.807
97011W        W69337  29.467  28.094  12.623
97012W        W69338   5.387  30.928   3.258
97013W        W69339  30.501  16.798   2.647
97014W        W69340  27.383  34.450  13.320
97015W        W69341   2.791  21.466   4.178
97016W        W69342  44.075  42.448  14.307
97017W        W69343  36.039  35.946  13.044
97018W        W69344  11.376  37.100  12.012
97019W        W69345  41.889  16.335   1.522
97020W        W69346   0.021  19.178   4.153
97021W        W69347  11.593  21.660   4.327
97022W        W69348   8.535   8.657  14.758
97023W        W69349  33.270  32.867  13.011
97024W        W69350  12.623  38.431   0.418
97025W        W69351   3.398  31.927  11.074
97026W        W69352  13.774  10.460  13.709
97027W        W69353  34.357   1.345   2.662
97028W        W69354  32.397  39.782  11.547
97029W        W69355  25.734   3.395  14.161
97030W        W69356  21.802  43.379  11.579
97031W        W69357  15.703  14.314   1.288
97032W        W69358  14.038  16.683   3.223
97033W        W69359  38.944   1.788  10.708
97034W        W69360   2.843  29.086  13.906
97035W        W69361  33.661   8.894  12.134
97036W        W69362   1.265  20.907  11.005
97037W        W69363   9.260  37.495   0.836
97038W        W69364  25.490   3.193  13.754
97039W        W69365   5.147  13.666   1.087
97040W        W69366  20.630  20.690   1.100
97041W        W69367  11.712  22.856  11.195
97042W        W69368  24.031  17.749  14.311
97043W        W69369  18.609   8.328   2.303
97044W        W69370   9.806   9.546   0.740
97045W        W69371   8.249  18.348   1.877
97046W        W69372  22.156  32.405   0.465
97047W        W69373  30.890  28.099  10.783
97048W        W69374  37.094  10.871  14.564
97049W        W69375  13.460  15.695   3.363
97050W        W69376  22.588  43.184  12.846
97051W        W69377  23.186  13.083   3.359
97052W        W69378   1.463  22.521  13.548
97053W        W69379   8.303  26.797   5.101
97054W        W69380   4.448  35.386  10.684
97055W        W69381  43.668  41.550  14.631
97056W        W69382  36.912  11.730   2.857
97057W        W69383  32.640  14.337   0.500
97058W        W69384  39.007   5.978  14.260
97059W        W69385  36.094  44.365  11.764
97060W        W69386   5.313   9.671   3.119
97061W        W69387   8.677  19.019  12.526
97062W        W69388  20.462  27.333   3.169
97063W        W69389  33.789  27.084  12.146
97064W        W69390   2.623   9.665   1.745
97065W        W69391  21.377  15.456   5.267
97066W        W69392  29.871  27.533   2.046
97067W        W69393  40.092  10.846  13.425
97068W        W69394  39.482   8.756   0.317
97069W        W69395   5.903  41.067  13.500
97070W        W69396  14.734   9.913   0.453
97071W        W69397   3.722  35.984   0.864
97072W        W69398   4.450  36.974  11.528
97073W        W69399  14.135  25.330  12.685
97074W        W69400  31.956  14.105   5.059
97075W        W69401  39.398  28.485   1.299
97076W        W69402  40.696  23.728  12.853
97077W        W69403  24.530   4.844   4.857
97078W        W69404  11.459  21.758  11.173
97079W        W69405  27.479  18.350   0.386
97080W        W69406   6.013   6.456   3.597
97081W        W69407  33.967   2.978  12.506
97082W        W69408  29.490  18.338   4.664
97083W        W69409  41.869  12.492   0.716
97084W        W69410  37.720  44.874  11.846
97085W        W69411  16.225  38.536  12.452
97086W        W69412  16.908  30.224   2.394
97087W        W69413  29.604  23.083   4.602
97088W        W69414   6.172  16.591   4.876
97089W        W69415  29.070  17.732   4.151
97090W        W69416  12.478  29.471   3.349
97091W        W69417  41.317  34.066   0.812
97092W        W69418   0.247   2.524  13.605
97093W        W69419   2.825  34.348  14.063
97094W        W69420  19.496  15.636  10.669
97095W        W69421  11.956  36.619  12.089
97096W        W69422  40.391  43.801   0.301
97097W        W69423   0.981   2.333   2.605
97098W        W69424  14.396  22.191  13.401
97099W        W69425  33.144  43.354   1.385
97100W        W69426  21.336  17.886  14.787
97101W        W69427  40.664  15.187  10.516
97102W        W69428  15.880  14.877   0.683
97103W        W69429  24.978  20.868   1.919
97104W        W69430  30.176  28.288   9.822
97105W        W69431  19.132  37.279   0.093
97106W        W69432  35.239  31.473  11.638
97107W        W69433  25.486   6.237   1.726
97108W        W69434  34.557  25.399  11.984
97109W        W69435  30.465  15.630  14.360
97110W        W69436  38.593  16.569   3.325
97111W        W69437  24.075  18.253   4.410
97112W        W69438  22.812  10.906  13.309
97113W        W69439  43.967  17.747   2.430
97114W        W69440  42.193  32.486   0.940
97115W        W69441  43.228  34.865  12.477
97116W        W69442   7.353  40.346  13.392
97117W        W69443  35.118  29.316   2.780
97118W        W69444  21.073  12.077   1.443
97119W        W69445  10.134  28.301   2.517
97120W        W69446   6.180   2.285  11.461
97121W        W69447  13.894  28.205   0.273
97122W        W69448  23.462  16.366   0.772
97123W        W69449   3.918  21.639   3.643
97124W        W69450  39.506  15.279  13.960
97125W        W69451  21.547  25.473  11.148
97126W        W69452  41.983  41.504  14.857
97127W        W69453  39.931  25.930  14.275
97128W        W69454  43.613  33.164   2.813
97129W        W69455  36.907  16.128   0.800
97130W        W69456  13.626  10.265   2.275
97131W        W69457  28.669  43.245   1.351
97132W        W69458  40.938   0.361  14.415
97133W        W69459  39.530  19.801   1.286
97134W        W69460  25.358  36.096   3.139
97135W        W69461  16.597  24.141   0.938
97136W        W69462   3.402  37.913   2.833
97137W        W69463  39.451  17.723   4.613
97138W        W69464   1.784  16.428   0.123
97139W        W69465  14.462   6.451  14.458
97140W        W69466  29.235  23.560   2.785
97141W        W69467  37.027  26.802  11.081
97142W        W69468  20.795   3.887   0.616
97143W        W69469  23.879  33.624   5.076
97144W        W69470  17.043  34.552  12.008
97145W        W69471   1.646  16.233  11.859
97146W        W69472   2.343  44.322   4.707
97147W        W69473  31.473  17.686  10.795
97148W        W69474  43.459  26.642   2.286
97149W        W69475   0.839  10.595  12.865
97150W        W69476  15.147  26.739  13.911
97151W        W69477  14.718  39.585  12.030
97152W        W69478  27.012  35.653   3.704
97153W        W69479  42.802  18.749   2.841
97154W        W69480  33.099  19.132   1.393
97155W        W69481   1.802  15.915   0.229
97156W        W69482  10.744  41.560   0.778
97157W        W69483  17.154  41.597  13.885
97158W        W69484  40.104   1.953   1.771
97159W        W69485  23.898  37.377   0.764
97160W        W69486  43.033   3.358   2.150
97161W        W69487  39.634   7.872   1.291
97162W        W69488  38.376  28.071  11.450
97163W        W69489   2.358   1.504  12.071
97164W        W69490  26.194  28.996   0.261
97165W        W69491   7.093  26.014   4.151
97166W        W69492  44.754   9.262   2.469
97167W        W69493  29.750   8.730   2.273
97168W        W69494  14.757  39.946   3.731
97169W        W69495  19.520   0.973   2.654
97170W        W69496  24.012  19.589   2.319
97171W        W69497  42.615   1.348  13.475
97172W        W69498  44.861  12.405  14.084
97173W        W69499   8.905  38.597  14.325
97174W        W69500   6.317  12.189   4.439
97175W        W69501  38.615   2.330  10.679
97176W        W69502  34.582  27.802   1.997
97177W        W69503  21.523  14.947  12.013
97178W        W69504  18.827  20.302   3.784
97179W        W69505  16.463  26.093  10.910
97180W        W69506  40.500  12.501  11.965
97181W        W69507  22.137  19.527   2.914
97182W        W69508   6.316   0.745   3.124
97183W        W69509  15.607  19.579  13.944
97184W        W69510  26.474  19.714   1.805
97185W        W69511   7.838   6.417  10.583
97186W        W69512   8.804  34.187  12.308
97187W        W69513  35.704  17.685   4.236
97188W        W69514  36.093  22.283   0.411
97189W        W69515   2.809  44.358   3.595
97190W        W69516  40.023  35.979  11.548
97191W        W69517  25.622  19.019   0.802
97192W        W69518  42.581  43.859   1.786
97193W        W69519  14.368  15.971  11.705
97194W        W69520  27.154  34.453   2.784
97195W        W69521  28.874   3.325   1.009
97196W        W69522  43.461   8.117  11.546
97197W        W69523  27.255   5.222  13.586
97198W        W69524  38.072  42.858   2.132
97199W        W69525  27.666  25.089   2.704
97200W        W69526  34.547  35.002  13.784
97201W        W69527  15.363  38.702   2.250
97202W        W69528  13.558  31.193   2.182
97203W        W69529  36.444  32.849   2.045
97204W        W69530  43.358  24.783  13.406
97205W        W69531  33.237  23.661  12.068
97206W        W69532  29.942  25.771   4.717
97207W        W69533  16.239  28.964   2.771
97208W        W69534   5.563  17.016  14.258
97209W        W69535  10.238  30.667   1.810
97210W        W69536  25.665  42.380  12.075
97211W        W69537  13.334   2.860   0.390
97212W        W69538  15.696   8.652  10.717
97213W        W69539  32.563  23.575   2.769
97214W        W69540  34.631  17.302  13.077
97215W        W69541  43.987  16.147   0.975
97216W        W69542   3.811  25.879  14.469
97217W        W69543  11.301   7.776  13.507
97218W        W69544  35.651  42.139   2.923
97219W        W69545  22.110   1.241   0.398
97220W        W69546  19.436  16.218  13.021
97221W        W69547  40.970  29.164  10.504
97222W        W69548  14.866  25.906  14.399
97223W        W69549  10.174  31.981  12.544
97224W        W69550  13.019  37.826   1.433
97225W        W69551   2.396  20.627   1.786
97226W        W69552  21.034  31.378  12.028
97227W        W69553   8.778   1.808   1.987
97228W        W69554  44.976  11.227  10.869
97229W        W69555  24.719  36.950   1.015
97230W        W69556  30.689  43.285  12.039
97231W        W69557  35.314  43.052  13.347
97232W        W69558   5.853  26.511  13.282
97233W        W69559  31.092  35.073   1.249
97234W        W69560  26.105  41.275  12.877
97235W        W69561  38.904   9.776  13.547
97236W        W69562   7.499  32.053  12.858
97237W        W69563  42.447  28.255  11.546
97238W        W69564  28.556  25.986   9.661
97239W        W69565  41.477   8.700   3.594
97240W        W69566   2.430  35.179   2.735
97241W        W69567   5.915  44.253   0.687
97242W        W69568  14.237  14.551  14.073
97243W        W69569  19.494   0.406  11.931
97244W        W69570  12.776   3.786  11.892
97245W        W69571  18.494  21.057  12.908
97246W        W69572  12.797   5.180   2.917
97247W        W69573  38.074  21.780  12.857
97248W        W69574   4.872   9.250  14.509
97249W        W69575  20.235  20.402  14.178
97250W        W69576  14.750   5.443  12.981
97251W        W69577  13.395  38.077   0.947
97252W        W69578  20.961  24.066   4.975
97253W        W69579  36.339  33.071   1.188
97254W        W69580  10.862  34.612   0.730
97255W        W69581  21.029   7.788   3.388
97256W        W69582  12.964  15.314  14.815
97257W        W69583   9.385  10.865   0.253
97258W        W69584   2.447  16.551   4.675
97259W        W69585  24.493   5.833  13.487
97260W        W69586  27.712  10.696   1.127
97261W        W69587   3.393  28.487  10.773
97262W        W69588  43.724  38.124  13.489
97263W        W69589  34.919  41.066  13.100
97264W        W69590  34.337  29.385   0.998
97265W        W69591  11.152  32.464  13.913
97266W        W69592  33.925   3.845  14.738
97267W        W69593   3.971  10.218   3.256
97268W        W69594  31.518  23.461  13.186
97269W        W69595  18.800   0.127  14.820
97270W        W69596  29.654  14.576  11.173
97271W        W69597  37.116   7.448   1.733
97272W        W69598   4.249  18.207  11.976
97273W        W69599  14.531  22.195   3.354
97274W        W69600  33.146   4.126  14.980
97275W        W69601  13.354  24.541   1.690
97276W        W69602  42.390  43.450   1.521
97277W        W69603   7.582   0.798   0.927
97278W        W69604  27.558  28.918  10.550
97279W        W69605  14.788  43.990   4.220
97280W        W69606  18.181  36.125  13.576
97281W        W69607  30.495  28.228   1.176
97282W        W69608  40.119  12.614   2.225
97283W        W69609  23.710  17.002   3.610
97284W        W69610  35.845   8.360   0.903
97285W        W69611  31.022  37.491  11.912
97286W        W69612  34.473  25.777   3.722
97287W        W69613  28.710  18.808  14.286
97288W        W69614  31.524  18.726   4.669
97289W        W69615  32.095  44.435  12.880
97290W        W69616  40.152  11.489   4.095
97291W        W69617  44.453  43.412   1.464
97292W        W69618  25.485  17.516   1.166
97293W        W69619  22.217  20.612  10.959
97294W        W69620   6.816   1.310   4.675
97295W        W69621  12.391  42.560  14.726
97296W        W69622  16.913  29.698   3.278
97297W        W69623  19.355   6.186   3.050
97298W        W69624  25.892  27.526   4.202
97299W        W69625  42.415   0.959   3.164
97300W        W69626  43.643  28.568  13.310
97301W        W69627  41.086  28.359   2.753
97302W        W69628  38.641   6.435   3.794
97303W        W69629  15.566  34.882  11.442
97304W        W69630  14.668   0.735   0.181
97305W        W69631  39.005  28.198  12.458
97306W        W69632  25.474  28.846  12.363
97307W        W69633  29.664   7.497  14.377
97308W        W69634   1.205   1.020  13.045
97309W        W69635   5.377  14.544   0.484
97310W        W69636   4.871  24.161  11.964
97311W        W69637  33.181  21.184   0.530
97312W        W69638  21.411  11.414  14.686
97313W        W69639  43.998  23.046   4.199
97314W        W69640  30.465   5.245  11.535
97315W        W69641  19.053  13.311  13.534
97316W        W69642  39.819  16.147   2.885
97317W        W69643  16.431  20.263   1.724
97318W        W69644   9.775  31.281   0.487
97319W        W69645  37.240   6.166   4.268
97320W        W69646   6.199  10.230   2.304
97321W        W69647   0.753   7.922  12.527
97322W        W69648  40.978   2.523   1.387
97323W        W69649  19.720  25.916  11.889
97324W        W69650   1.890  12.262  14.961
97325W        W69651  12.901  36.172   4.206
97326W        W69652  27.311  40.910  10.960
97327W        W69653   5.904  42.833   4.481
97328W        W69654  16.693  29.641   2.810
97329W        W69655   7.445  39.451   3.145
97330W        W69656  36.962  29.697   0.404
97331W        W69657  19.491  40.962  11.322
97332W        W69658   8.916   6.327   1.856
97333W        W69659  20.027  26.546   4.689
97334W        W69660   1.404   9.604  14.530
97335W        W69661  16.538   7.431   4.348
97336W        W69662  10.552  13.075   0.869
97337W        W69663  32.133  12.195  12.571
97338W        W69664  13.135  15.985   4.563
97339W        W69665  10.806  42.573   5.149
97340W        W69666  37.477   2.461   1.847
97341W        W69667  39.975  41.014   2.832
97342W        W69668  25.693  43.690  14.873
97343W        W69669  29.935  12.056  11.139
97344W        W69670   7.785  12.593   1.320
97345W        W69671  41.876  15.791   2.806
97346W        W69672   6.396  34.459  11.935
97347W        W69673   9.414  17.139   1.207
97348W        W69674  38.756   6.308   2.146
97349W        W69675  17.850   7.201  12.568
97350W        W69676   3.416   3.308  13.903
97351W        W69677   9.075  34.188   4.205
97352W        W69678  20.201  10.911   2.677
97353W        W69679  10.332  31.486  13.866
97354W        W69680  25.277  15.679   2.841
97355W        W69681  14.404  41.797  13.778
97356W        W69682  40.593   0.248  12.860
97357W        W69683  32.308   2.967   1.878
97358W        W69684  36.370  30.638  12.532
97359W        W69685  17.854  28.774   4.341
97360W        W69686  44.241  40.262  13.303
97361W        W69687  10.111  27.624  11.982
97362W        W69688  21.725  39.458   1.005
97363W        W69689  43.405  14.752  12.638
97364W        W69690  31.461  36.324   0.884
97365W        W69691  34.558  24.542   0.788
97366W        W69692   7.210  26.434   3.206
97367W        W69693  34.032  15.821   2.199
97368W        W69694  15.112  35.731   5.169
97369W        W69695  23.086  30.888  11.371
97370W        W69696  26.047  38.410   4.675
97371W        W69697   0.047   6.297  11.101
97372W        W69698  12.948  21.025   4.714
97373W        W69699  38.278   1.277   4.178
97374W        W69700  32.100  41.300  14.792
97375W        W69701  44.462  13.432  12.308
97376W        W69702  13.349  30.899   3.360
97377W        W69703  20.046   6.335  13.893
97378W        W69704   6.084  23.170  13.383
97379W        W69705  21.121  32.687  13.454
97380W        W69706  13.046  12.094  13.588
97381W        W69707  44.779  11.757  10.129
97382W        W69708  13.632   9.893  13.068
97383W        W69709   0.977  21.450   0.288
97384W        W69710  42.003  12.427   4.343
97385W        W69711  12.389  22.077  11.102
97386W        W69712   9.235  31.580  11.127
97387W        W69713   4.454  16.032   4.085
97388W        W69714  27.898  34.537   4.911
97389W        W69715  14.854  43.439  13.660
97390W        W69716  30.445  27.218  14.447
97391W        W69717  17.343   7.262   4.676
97392W        W69718  14.595  19.253  14.986
97393W        W69719  15.041  28.865  12.028
97394W        W69720  13.896  28.946   1.764
97395W        W69721  29.131  43.112   4.611
97396W        W69722  30.828  17.270   5.093
97397W        W69723   6.471  43.619  10.486
97398W        W69724   2.677   0.653  14.461
97399W        W69725   3.520  39.841   3.975
97400W        W69726  42.404  31.215  13.311
97401W        W69727  28.050  36.065   1.938
97402W        W69728  38.010   8.257   2.918
97403W        W69729  16.593  22.249   2.554
97404W        W69730  27.487  16.778  13.897
97405W        W69731  12.317   7.148   2.645
97406W        W69732  14.928   0.811   4.864
97407W        W69733   6.420  35.855  12.991
97408W        W69734  23.829   3.967   3.842
97409W        W69735  44.547   0.812   2.338
97410W        W69736  20.997   2.368  12.152
97411W        W69737   9.125   0.454   4.120
97412W        W69738  14.693  37.544   0.882
97413W        W69739   7.256  25.060   0.827
97414W        W69740  27.191  36.959   2.312
97415W        W69741   0.336  34.151  13.769
97416W        W69742  31.400  15.035   0.381
97417W        W69743  14.742  29.430  14.415
97418W        W69744  34.698  34.515  13.570
97419W        W69745   2.207  27.932  12.497
97420W        W69746  42.980  13.428  14.444
97421W        W69747  42.284  41.861   2.254
97422W        W69748   5.820  11.674   2.390
97423W        W69749  20.770   7.739  12.048
97424W        W69750  31.517  17.745   1.735
97425W        W69751   8.298  14.705  10.565
97426W        W69752  33.148  36.054   1.663
97427W        W69753   7.380  44.051   0.279
97428W        W69754  40.668  37.042  10.729
97429W        W69755  10.903   0.826  14.578
97430W        W69756  27.530  37.076   0.909
97431W        W69757   9.354  33.550   4.663
97432W        W69758  28.377  29.996   4.611
97433W        W69759   7.114   7.258  13.443
97434W        W69760  36.107   8.148  12.795
97435W        W69761   8.185   1.984   4.157
97436W        W69762  26.881  36.562  11.622
97437W        W69763   7.216  36.018   1.232
97438W        W69764  12.543   5.686   4.172
97439W        W69765  17.860   8.913   1.204
97440W        W69766  35.544   0.407   3.671
97441W        W69767  30.925  27.958   3.402
97442W        W69768  12.756  36.945   3.330
97443W        W69769  29.797  32.148   2.840
97444W        W69770   6.191  15.921  13.718
97445W        W69771  21.542  17.280  11.368
97446W        W69772  32.480   8.696   1.720
97447W        W69773   2.853  28.718   4.366
97448W        W69774   9.861   7.209  12.809
97449W        W69775   3.951  13.242  12.128
97450W        W69776  22.323  25.628  11.215
97451W        W69777  22.005   2.343  11.931
97452W        W69778  10.435  12.195  11.562
97453W        W69779  15.282  22.451  13.048
97454W        W69780  35.227  36.740  11.226
97455W        W69781  29.991   5.832  12.144
97456W        W69782   3.860  16.336  14.358
97457W        W69783  41.265  44.551  13.886
97458W        W69784   8.338  21.291   4.064
97459W        W69785   5.740  11.066  10.654
97460W        W69786  21.281  11.022  11.875
97461W        W69787  32.650  42.540   2.287
97462W        W69788  27.846   6.293  14.579
97463W        W69789  40.392  36.215   3.800
97464W        W69790  42.277  21.560   0.548
97465W        W69791   2.846  40.421  12.034
97466W        W69792   3.675  42.881  14.987
97467W        W69793  40.988  32.339  11.496
97468W        W69794  27.263  13.416   3.189
97469W        W69795  23.676  17.696   1.398
97470W        W69796   8.735  38.132   0.142
97471W        W69797  23.034  13.862  13.530
97472W        W69798  41.658  22.032   0.377
97473W        W69799   4.099  21.517  13.572
97474W        W69800  36.482  17.774   9.738
97475W        W69801  34.863  33.531   3.825
97476W        W69802  26.400  11.193   1.315
97477W        W69803  27.649  39.744  11.569
97478W        W69804  42.060   8.617  10.271
97479W        W69805  34.061  36.434   4.065
97480W        W69806  12.797  15.307   1.878
97481W        W69807  13.701  34.909   4.146
97482W        W69808   3.522  43.897  12.072
97483W        W69809  13.936  39.965  12.798
97484W        W69810  25.119   7.105  14.312
97485W        W69811  38.404  34.771  14.253
97486W        W69812  20.610  36.793   3.170
97487W        W69813  36.612   6.075   1.891
97488W        W69814  40.881  13.202  11.669
97489W        W69815  37.114  43.416  11.652
97490W        W69816  10.697  22.176  11.620
97491W        W69817  31.038   8.199  10.689
97492W        W69818  37.056  10.746  14.053
97493W        W69819  26.784  35.837  10.792
97494W        W69820  43.534  23.444  11.011
97495W        W69821   0.745  42.654   0.087
97496W        W69822  34.125  41.862  14.443
97497W        W69823  30.400  13.850  14.308
97498W        W69824  41.134   2.666   0.417
97499W        W69825  36.588  41.836   1.591
97500W        W69826  23.407  40.002   2.295
97501W        W69827   2.364  28.432   0.794
97502W        W69828  10.166  24.712  14.126
97503W        W69829  14.832  40.402   0.852
97504W        W69830  44.451  19.137  13.058
97505W        W69831  26.957  25.698  14.526
97506W        W69832  15.303   2.369   1.616
97507W        W69833  41.670  19.139   1.803
97508W        W69834  27.887  19.858  13.781
97509W        W69835  25.708  21.478   3.985
97510W        W69836  35.144  44.177  11.702
97511W        W69837  40.480   3.440  11.518
97512W        W69838  35.016  34.747  14.336
97513W        W69839  38.063  19.658   0.875
97514W        W69840  18.000  22.500   2.625
97515W        W69841   9.561  16.596  14.437
97516W        W69842  15.583  22.430   4.157
97517W        W69843  25.528   6.810   4.489
97518W        W69844  11.719   9.753  12.634
97519W        W69845  18.667  31.929  11.716
97520W        W69846  22.359  12.256   4.924
97521W        W69847  32.148   6.453   3.274
97522W        W69848  17.231  34.051   1.901
97523W        W69849  17.671  35.980  13.050
97524W        W69850  24.731  28.739   0.787
97525W        W69851  26.981  28.105  12.170
97526W        W69852  43.558  39.175  14.301
97527W        W69853  18.720  31.551   0.998
97528W        W69854  32.462  14.598   4.715
97529W        W69855  38.508  43.258  13.361
97530W        W69856   7.876  29.217  12.957
97531W        W69857  39.799  39.249  13.569
97532W        W69858  27.187  28.042   4.115
97533W        W69859   8.540  30.884  14.895
97534W        W69860  29.419  13.957  13.336
97535W        W69861  39.829   9.208   1.860
97536W        W69862  13.958  40.208  11.974
97537W        W69863  38.901   3.217  14.402
97538W        W69864  23.848   6.282   3.340
97539W        W69865  44.297  39.409   1.352
97540W        W69866  30.947  18.554  11.194
97541W        W69867  29.981  14.118   1.811
97542W        W69868  32.338  22.602  12.007
97543W        W69869  27.439  25.484  14.516
97544W        W69870  17.198  10.367  12.431
97545W        W69871  32.364   8.902   1.235
97546W        W69872  42.973  32.596  10.530
97547W        W69873  36.488  14.729  13.248
97548W        W69874   1.968  38.801   3.598
97549W        W69875  35.004  27.044   2.561
97550W        W69876  11.860  42.982  10.590
97551W        W69877   4.326  36.605   1.007
97552W        W69878  29.024  35.568  11.124
97553W        W69879   6.613   2.225   4.495
97554W        W69880   7.405  44.136   4.783
97555W        W69881   6.327  35.186   9.977
97556W        W69882  39.048   2.415   2.336
97557W        W69883  35.352  30.096  12.008
97558W        W69884  23.977  23.081   2.628
97559W        W69885  39.452  38.998  11.697
97560W        W69886  35.311   8.234   0.911
97561W        W69887  43.232   0.114  12.394
97562W        W69888  27.694  35.162   2.705
97563W        W69889  24.141   9.731  12.845
97564W        W69890  36.201  36.458  14.428
97565W        W69891  20.065  24.714   0.552
97566W        W69892   9.311   2.926  12.625
97567W        W69893  26.636  41.049  14.816
97568W        W69894  18.789   9.700   0.392
97569W        W69895  13.227  27.250   0.780
97570W        W69896  29.075  14.230   3.115
97571W        W69897  11.703   8.577  12.117
97572W        W69898  18.267  41.066   0.555
97573W        W69899  34.414  10.809  13.300
97574W        W69900  30.193  22.166   3.877
97575W        W69901  19.951   3.148  11.217
97576W        W69902  40.855  29.118  14.772
97577W        W69903  25.261  38.824  11.984
97578W        W69904  10.061  18.674  13.450
97579W        W69905   2.042  26.169   0.811
97580W        W69906  28.439  33.260   9.983
97581W        W69907   2.332  36.817  11.582
97582W        W69908   3.666  38.367   2.772
97583W        W69909  14.656   1.906   4.333
97584W        W69910   6.954  15.793  11.955
97585W        W69911   8.090  41.462  14.707
97586W        W69912  24.349  33.250   2.857
97587W        W69913  12.998   0.172  14.959
97588W        W69914  30.957  11.590   1.881
97589W        W69915   0.928   3.461  14.961
97590W        W69916  25.183  27.118  11.122
97591W        W69917  34.609   5.647  14.028
97592W        W69918  40.073  18.868  13.015
97593W        W69919  37.420  26.559   4.603
97594W        W69920  27.079  11.834  13.647
97595W        W69921  14.870  20.633   2.362
97596W        W69922  43.721  28.978   0.991
97597W        W69923  35.780  39.855   0.852
97598W        W69924   2.728  35.693  14.439
97599W        W69925  28.628   8.408  12.530
97600W        W69926   2.382   1.753  11.612
97601W        W69927  38.911  38.173  13.436
97602W        W69928  35.991  13.299   0.428
97603W        W69929  11.182  24.080   2.752
97604W        W69930  44.764  25.862   4.258
97605W        W69931  20.493  31.717  13.818
97606W        W69932  25.154  20.949  10.663
97607W        W69933  37.282  37.878   2.510
97608W        W69934  37.849   8.641   5.200
97609W        W69935  35.780  18.085   0.782
97610W        W69936  25.125  35.156  14.221
97611W        W69937  20.196  28.870  11.748
97612W        W69938  36.674  32.537   2.914
97613W        W69939  30.678  12.902   1.829
97614W        W69940   5.248  22.675   0.906
97615W        W69941  11.785  41.048   2.441
97616W        W69942  41.798   5.590  11.622
97617W        W69943  31.648   1.945  11.434
97618W        W69944   7.908   0.046   2.345
97619W        W69945  28.633   5.224  12.920
97620W        W69946  21.098   5.946  14.271
97621W        W69947  41.074  20.528   3.875
97622W        W69948   1.816  20.163   3.609
97623W        W69949   6.373  25.241   1.623
97624W        W69950  32.126  36.962   0.009
97625W        W69951  22.145  24.936   1.683
97626W        W69952  26.872   2.261   3.827
97627W        W69953   0.297   5.828  10.985
97628W        W69954  12.880  28.538   4.249
97629W        W69955   3.512  27.097  13.374
97630W        W69956  33.315  25.115   0.992
97631W        W69957  12.276   8.665   1.249
97632W        W69958  20.219  39.689  12.114
97633W        W69959   3.991  11.143   3.337
97634W        W69960  32.374  40.382   1.353
97635W        W69961  43.485  40.077  12.781
97636W        W69962  26.074  39.542   1.740
97637W        W69963  26.342  16.289   3.892
97638W        W69964   0.259   1.322  13.641
97639W        W69965   3.790  14.281  11.431
97640W        W69966  37.199  31.033   4.524
97641W        W69967   5.859  42.842  10.695
97642W        W69968  41.024  19.430   4.171
97643W        W69969  33.620  28.680  11.563
97644W        W69970  12.579  42.384  12.046
97645W        W69971  36.398  24.776  11.981
97646W        W69972   8.206  37.832  12.359
97647W        W69973  36.593  40.283   2.791
97648W        W69974  37.631   2.302  12.107
97649W        W69975  36.623  22.109  11.691
97650W        W69976  23.053  40.228  13.806
97651W        W69977   9.727  20.243   4.289
97652W        W69978  30.977  32.099  14.348
97653W        W69979   3.557   4.661   0.783
97654W        W69980   3.621  19.507  14.642
97655W        W69981  40.335   0.377  14.895
97656W        W69982   9.894  36.530   3.270
97657W        W69983  20.503   9.437  10.438
97658W        W69984   5.263  35.389   2.452
97659W        W69985  10.674  33.464   1.538
97660W        W69986  44.490  18.281  12.086
97661W        W69987  30.107  37.338   4.019
97662W        W69988  15.655   2.060   2.358
97663W        W69989  31.495  12.955   3.893
97664W        W69990   4.878  20.633  12.927
97665W        W69991  38.914  37.015   1.724
97666W        W69992  23.190   7.911  12.872
97667W        W69993   9.909  24.416  11.507
97668W        W69994  36.885  17.070  11.158
97669W        W69995  12.150  34.983   0.449
97670W        W69996  39.468  43.537   2.666
97671W        W69997  18.927  19.998   1.318
97672W        W69998  28.260  14.828  14.236
97673W        W69999  16.714  16.626  10.472
97674W        W70000  29.717  16.802   1.183
97675W        W70001  10.317  14.227  10.188
97676W        W70002  25.688  38.439  13.347
97677W        W70003  24.684  24.169   3.168
97678W        W70004  23.490  37.560   4.554
97679W        W70005   9.495   8.140  11.215
97680W        W70006  44.070  24.133  14.599
97681W        W70007  40.569  21.100  13.678
97682W        W70008  42.298  37.528   0.522
97683W        W70009  11.442  21.211   4.082
97684W        W70010   7.690  21.718   1.433
97685W        W70011  33.874  21.994  13.494
97686W        W70012   8.687  20.127  14.826
97687W        W70013   3.479  16.055   0.298
97688W        W70014  29.597  36.301  11.439
97689W        W70015  27.696  11.688  11.004
97690W        W70016  36.300  21.005  12.149
97691W        W70017  21.275  18.826  14.455
97692W        W70018  43.129  27.288  13.271
97693W        W70019  11.214  41.252  12.169
97694W        W70020  33.963  37.319  12.866
97695W        W70021  24.228   8.206   4.215
97696W        W70022  27.126   4.891   1.752
97697W        W70023   3.894  32.677   1.852
97698W        W70024  20.740  27.443   0.228
97699W        W70025  11.323   3.757  14.204
97700W        W70026   7.974  26.221  10.453
97701W        W70027  12.112  24.464  13.994
97702W        W70028  27.757  40.332   0.469
97703W        W70029  31.107  22.703   2.292
97704W        W70030  20.615  29.190   2.743
97705W        W70031   0.820  23.967   2.434
97706W        W70032  39.893   2.373   2.771
97707W        W70033  11.303  21.166  10.544
97708W        W70034  36.922  31.939  12.877
97709W        W70035  43.737  28.564   4.057
97710W        W70036  20.125  25.215   2.359
97711W        W70037  35.816   2.826  14.048
97712W        W70038  18.192  17.925   0.283
97713W        W70039   4.792  31.414  13.278
97714W        W70040   1.732   0.086   0.279
97715W        W70041  42.476  17.759   4.692
97716W        W70042  21.888  29.689   0.733
97717W        W70043   3.986  35.670  10.721
97718W        W70044  39.445  34.099  12.880
97719W        W70045  43.338  21.224   3.825
97720W        W70046  16.550  18.589  11.562
97721W        W70047  15.808   8.252  11.056
97722W        W70048  43.875  28.698   2.757
97723W        W70049   7.716  20.510  10.867
97724W        W70050  34.795   5.836   3.203
97725W        W70051  40.655  32.054   4.702
97726W        W70052   6.336   0.705  13.858
97727W        W70053  37.637  17.637  11.139
97728W        W70054  37.193   9.616  11.256
97729W        W70055  25.057   6.163  12.542
97730W        W70056  35.012  12.518   3.359
97731W        W70057  20.923   7.883  14.935
97732W        W70058   0.775  31.108  13.361
97733W        W70059  26.098  15.911  13.408
97734W        W70060  27.235  15.216   1.778
97735W        W70061  23.998   3.463   2.230
97736W        W70062   5.633  18.192   2.421
97737W        W70063   1.818  30.683   3.999
97738W        W70064  33.048   3.878  14.043
97739W        W70065  28.697  42.993   3.113
97740W        W70066  40.179  23.759  12.008
97741W        W70067  29.000  11.304  13.820
97742W        W70068   5.338   2.298  11.949
97743W        W70069   6.246  30.406   4.463
97744W        W70070  39.358  42.517   1.832
97745W        W70071  20.315  44.792  14.001
97746W        W70072  33.180   8.241   0.360
97747W        W70073  38.029  41.425  13.234
97748W        W70074   1.864   7.383   0.622
97749W        W70075  18.224  12.772  12.189
97750W        W70076  44.545  24.173  14.826
97751W        W70077  41.894  33.992   4.499
97752W        W70078  40.852  23.069   3.304
97753W        W70079  20.075   7.890  11.570
97754W        W70080   8.920  40.442  10.998
97755W        W70081  23.978  29.609  13.886
97756W        W70082   2.557  33.374  11.619
97757W        W70083  42.942  30.119  13.922
97758W        W70084  42.393  20.193  13.597
97759W        W70085  25.417  18.590   4.196
97760W        W70086   2.995  26.486  10.703
97761W        W70087  26.868   5.118  11.558
97762W        W70088  20.568  17.514  14.998
97763W        W70089  26.698  41.885   3.730
97764W        W70090  14.371  26.682   1.684
97765W        W70091  23.961  14.039   0.915
97766W        W70092  12.169   5.490  11.671
97767W        W70093  28.872   8.455  12.078
97768W        W70094   1.873  23.962  11.175
97769W        W70095  11.369   8.478   2.370
97770W        W70096   4.187  12.287  13.505
97771W        W70097  43.336  18.886   1.164
97772W        W70098  23.382  26.188   0.881
97773W        W70099  30.117  19.098   2.369
97774W        W70100  30.926  38.450   4.606
97775W        W70101  21.129   2.807  14.394
97776W        W70102   9.039   3.322  14.409
97777W        W70103  40.732  34.410   1.373
97778W        W70104  44.901  24.997   1.566
97779W        W70105  21.082  22.164  13.377
97780W        W70106  26.451   7.705   4.629
97781W        W70107  38.025   3.485  12.025
97782W        W70108   7.872  26.566  11.116
97783W        W70109  20.504  34.464  13.445
97784W        W70110  20.737  43.820  14.964
97785W        W70111  35.640  12.312   1.296
97786W        W70112   5.997  27.391  11.622
97787W        W70113  39.318  40.394   0.801
97788W        W70114  13.913  10.669  12.879
97789W        W70115  29.955  35.421   2.672
97790W        W70116  33.106   9.770  10.953
97791W        W70117  39.326  43.987   2.898
97792W        W70118  17.240  18.737  14.912
97793W        W70119  18.827  17.048  13.458
97794W        W70120   9.067   8.631  14.889
97795W        W70121  31.577  32.146  13.907
97796W        W70122  22.059  38.995  12.986
97797W        W70123  21.261   3.880  12.060
97798W        W70124  17.993  13.149   3.655
97799W        W70125  25.994  27.995  10.513
97800W        W70126  11.731  12.860  11.650
97801W        W70127   7.933  28.253   5.125
97802W        W70128   2.561   1.026  12.870
97803W        W70129  39.505   6.897  13.093
97804W        W70130   9.846  16.555  12.225
97805W        W70131  14.540  20.759   3.784
97806W        W70132  10.580   4.392  11.072
97807W        W70133   2.792   7.307  11.056
97808W        W70134  35.921  42.316   4.601
97809W        W70135   0.621  16.104   3.263
97810W        W70136  39.242  33.513  13.047
97811W        W70137  19.697   7.112  12.720
97812W        W70138  12.327   3.695  11.666
97813W        W70139  42.454   7.239  11.591
97814W        W70140   7.260   2.628  12.012
97815W        W70141  20.827  44.326   2.399
97816W        W70142  18.359  16.010  11.023
97817W        W70143  27.964  19.610  10.790
97818W        W70144  39.754   3.280  10.300
97819W        W70145   5.069  18.686   4.089
97820W        W70146  34.273   0.225   0.704
97821W        W70147  28.554  34.947  10.587
97822W        W70148  40.431  24.557  11.710
97823W        W70149   5.711  17.290  13.840
97824W        W70150  27.886  28.671  14.950
97825W        W70151  41.422  10.788  13.100
97826W        W70152  41.145  25.589  14.933
97827W        W70153  40.816   0.480  12.406
97828W        W70154   1.813   2.403   1.223
97829W        W70155  36.460  17.156   3.327
97830W        W70156  29.157  22.979   2.499
97831W        W70157  18.905  27.640   1.256
97832W        W70158  39.561  32.085   3.249
97833W        W70159   0.832  11.822   3.285
97834W        W70160  25.655   9.157   1.670
97835W        W70161  41.769   9.289  11.064
97836W        W70162  43.081  12.242   2.280
97837W        W70163  32.937   7.394  12.069
97838W        W70164  11.321  22.241   3.173
97839W        W70165  14.600  20.531   2.797
97840W        W70166  17.139  19.673  14.674
97841W        W70167  37.950  23.923   1.157
97842W        W70168   0.453  25.985  13.247
97843W        W70169  37.073  28.048   4.646
97844W        W70170  13.761   1.023  11.637
97845W        W70171   5.791   5.306  14.808
97846W        W70172  16.106   5.345   4.633
97847W        W70173  42.764  14.194  13.459
97848W        W70174  34.555  11.597   0.943
97849W        W70175   3.026  20.064   2.346
97850W        W70176   8.694  13.411  12.893
97851W        W70177  35.527  30.924   3.674
97852W        W70178  26.310  23.793  11.561
97853W        W70179  24.800  28.589   4.091
97854W        W70180  20.518  43.033   0.683
97855W        W70181   4.771   5.434   4.254
97856W        W70182   1.336  33.710  10.417
97857W        W70183  28.011  33.114   3.650
97858W        W70184   1.222   3.913  14.809
97859W        W70185  39.427  24.137  11.708
97860W        W70186  10.869  18.569  11.497
97861W        W70187   9.337  39.504  10.695
97862W        W70188  10.262  15.557  13.611
97863W        W70189  13.773  19.692   0.471
97864W        W70190  20.291  20.866  10.590
97865W        W70191  21.732  16.628  14.747
97866W        W70192  14.687  17.549   0.947
97867W        W70193   6.192  22.045  14.880
97868W        W70194   6.422   7.535  11.291
97869W        W70195  28.491   4.825   2.351
97870W        W70196   7.211   6.451  14.552
97871W        W70197  34.977  22.073  10.458
97872W        W70198  20.238  32.605  12.023
97873W        W70199  10.722   6.448   4.305
97874W        W70200  36.492  21.979   0.132
97875W        W70201  38.903  41.586  10.421
97876W        W70202  11.268   7.420  10.770
97877W        W70203  24.051  38.438  11.342
97878W        W70204  25.921   7.203  10.703
97879W        W70205  15.113  39.579   3.645
97880W        W70206  41.307  30.014   3.596
97881W        W70207  14.592  44.810  10.256
97882W        W70208   2.959  38.645  11.352
97883W        W70209   7.753  42.219  15.000
97884W        W70210   8.194  39.424  11.505
97885W        W70211  41.334  28.083  11.185
97886W        W70212  11.002  19.755  13.486
97887W        W70213  38.166  38.005  11.456
97888W        W70214   3.352   6.790  11.941
97889W        W70215  42.513  20.305  12.145
97890W        W70216  39.367   1.526  12.427
97891W        W70217  14.166  29.943   4.445
97892W        W70218  14.103  32.544   0.835
97893W        W70219  38.819  35.424   0.261
97894W        W70220  23.729   9.371  14.482
97895W        W70221  25.165  33.036   0.663
97896W        W70222  18.639  27.109   0.662
97897W        W70223   4.886  41.400  11.117
97898W        W70224  37.551  13.866   4.672
97899W        W70225  21.578   5.284  13.597
97900W        W70226   5.238   0.928  11.980
97901W        W70227   4.436  28.432   4.264
97902W        W70228  18.293  17.844   0.882
97903W        W70229   9.625  32.602   0.863
97904W        W70230  31.190  20.193   2.058
97905W        W70231  42.453  27.802   4.432
97906W        W70232   1.884  27.150  14.940
97907W        W70233  37.180  13.651   3.302
97908W        W70234  22.311  36.935  11.205
97909W        W70235  19.658  19.998  13.009
97910W        W70236  43.789   8.320   3.283
97911W        W70237  38.483  26.461   0.291
97912W        W70238  10.274  27.525  14.246
97913W        W70239  41.358   1.534   3.729
97914W        W70240  31.442  15.617  14.417
97915W        W70241  30.419  15.297  12.092
97916W        W70242  37.039  22.761  14.104
97917W        W70243   3.201  27.490   3.145
97918W        W70244  43.274  30.499   4.824
97919W        W70245  41.762  16.764   4.087
97920W        W70246   2.317   5.992   3.317
97921W        W70247  23.833  33.455   2.832
97922W        W70248  42.930  42.860   1.519
97923W        W70249  32.451  32.049   3.345
97924W        W70250  22.615  34.016  12.578
97925W        W70251  43.139  31.701  13.802
97926W        W70252  26.060   4.074  11.175
97927W        W70253  22.674  43.293  10.489
97928W        W70254  43.265   8.268  14.902
97929W        W70255  15.023   7.862   5.159
97930W        W70256  21.642  37.597  12.330
97931W        W70257  32.055  21.019   2.413
97932W        W70258   9.544  41.705  14.732
97933W        W70259  44.079   5.377   1.289
97934W        W70260  13.104  21.156  10.543
97935W        W70261  39.779  22.807  13.360
97936W        W70262  16.715  34.919   2.097
97937W        W70263  33.562   6.788   3.949
97938W        W70264  29.342  27.310   1.700
97939W        W70265   9.811   9.094   4.857
97940W        W70266  17.868  42.712  10.923
97941W        W70267  15.775  37.802  10.978
97942W        W70268  37.887  42.359  12.982
97943W        W70269  40.653  13.872   3.790
97944W        W70270   0.395  34.553   2.154
97945W        W70271  44.361  21.523   3.704
97946W        W70272  44.254  26.089   2.181
97947W        W70273  12.785  21.762  11.009
97948W        W70274  22.665  30.874   3.391
97949W        W70275  34.571  25.155  13.136
97950W        W70276  25.120  25.545   0.753
97951W        W70277  32.644   5.381   0.234
97952W        W70278   9.320   5.381   0.759
97953W        W70279  33.692  24.027  13.936
97954W        W70280  32.711  25.548  14.521
97955W        W70281  17.564   2.382   1.918
97956W        W70282  20.465  31.319   0.684
97957W        W70283  13.080  38.026   2.331
97958W        W70284  13.277  14.246   1.650
97959W        W70285  14.269  42.568  12.371
97960W        W70286  44.831  19.979   1.427
97961W        W70287  35.926  30.893  11.383
97962W        W70288  20.245  28.968   2.232
97963W        W70289   5.726  41.395  12.177
97964W        W70290  28.693  29.340  11.129
97965W        W70291  33.405   7.693   0.981
97966W        W70292  19.720   2.167  13.986
97967W        W70293  12.110  15.624  11.481
97968W        W70294  25.676  20.074   0.824
97969W        W70295   1.987  38.056   0.466
97970W        W70296   6.478   0.666  12.473
97971W        W70297  40.919  16.651  10.710
97972W        W70298  22.594  42.331   1.253
97973W        W70299  44.363  26.275   1.709
97974W        W70300  26.702  22.000  11.073
97975W        W70301   2.735  34.965   3.697
97976W        W70302  34.549  13.238   3.761
97977W        W70303  27.682  32.511  14.320
97978W        W70304  12.036  27.836   5.560
97979W        W70305  34.628  31.868   0.800
97980W        W70306  28.135   1.284  13.482
97981W        W70307   2.436  30.642  13.476
97982W        W70308  33.350  23.554  10.663
97983W        W70309  19.731   1.734   3.975
97984W        W70310  34.564  28.620   3.165
97985W        W70311  34.499  35.805   5.734
97986W        W70312  33.561  10.403  11.062
97987W        W70313  17.155  20.108  12.130
97988W        W70314  30.457  37.949   3.406
97989W        W70315  16.155  16.356  14.332
97990W        W70316  21.833  22.581  10.607
97991W        W70317  22.438   9.850  10.506
97992W        W70318  11.789  21.171  10.339
97993W        W70319  26.576  35.577   4.160
97994W        W70320  42.752  23.089   5.072
97995W        W70321  24.575  38.516   1.278
97996W        W70322  37.779  13.395  14.813
97997W        W70323  34.550  23.676   5.063
97998W        W70324   4.322  29.759  13.269
97999W        W70325  37.280  30.183   2.399
98000W        W70326  38.855  17.853   1.135
98001W        W70327   7.798  17.770  10.718
98002W        W70328  20.973  12.913   1.758
98003W        W70329   8.790   1.512  11.367
98004W        W70330  16.030  21.935   0.328
98005W        W70331   4.995  25.411  13.911
98006W        W70332  44.291  42.299  12.920
98007W        W70333  10.095  10.772  12.092
98008W        W70334  30.197  15.467  13.919
98009W        W70335  41.423   4.262   2.357
98010W        W70336  44.223  44.718   4.859
98011W        W70337  28.046  40.285  14.392
98012W        W70338   3.860  40.820   1.353
98013W        W70339  21.502  40.354   0.871
98014W        W70340  37.489  26.068   3.737
98015W        W70341   1.314  28.050   0.179
98016W        W70342  37.137   4.208  11.116
98017W        W70343   9.038  28.348  14.337
98018W        W70344   3.661  24.295   0.470
98019W        W70345   0.044  30.555   2.722
98020W        W70346  34.415   3.159  12.091
98021W        W70347   5.278  23.610  11.138
98022W        W70348   7.789  31.073   0.036
98023W        W70349  34.982   3.940  10.699
98024W        W70350  37.526   9.425   3.334
98025W        W70351  41.798  11.098  14.920
98026W        W70352   2.551  34.837  11.312
98027W        W70353  11.396  34.773   2.952
98028W        W70354   5.774  16.744   4.633
98029W        W70355  18.004  43.948   4.116
98030W        W70356  13.400  42.511   4.598
98031W        W70357  21.639   4.360   3.155
98032W        W70358  21.448  43.818   2.299
98033W        W70359  18.289   0.248   3.322
98034W        W70360  11.306  21.749   2.948
98035W        W70361  10.386  28.686  13.878
98036W        W70362  32.704   7.836   1.497
98037W        W70363  42.261  10.250   3.149
98038W        W70364   3.061  41.813   2.296
98039W        W70365  36.478   3.715   0.573
98040W        W70366  29.489  36.210   3.777
98041W        W70367   7.762  13.112   1.301
98042W        W70368  11.835  43.467   2.680
98043W        W70369  30.965  22.273  10.695
98044W        W70370  10.813  40.042  12.857
98045W        W70371  41.393   0.409   0.806
98046W        W70372  10.092  29.529  11.182
98047W        W70373  11.532   8.273  14.516
98048W        W70374  25.412  37.429   4.309
98049W        W70375  31.990   0.728  12.575
98050W        W70376  18.188  35.527   1.662
98051W        W70377  14.537  30.985   1.903
98052W        W70378  37.456   4.332  14.566
98053W        W70379  30.442  22.573  14.896
98054W        W70380  40.551   3.404  13.069
98055W        W70381  24.509   7.882   1.720
98056W        W70382  22.106  15.778  12.400
98057W        W70383   2.366  35.209   0.927
98058W        W70384  29.636  28.528   0.786
98059W        W70385  17.835  34.501   1.388
98060W        W70386  18.731  44.850   2.621
98061W        W70387   0.794   5.715  12.097
98062W        W70388  17.648  18.301  14.531
98063W        W70389   5.280  37.064   1.389
98064W        W70390  14.267   5.423  13.347
98065W        W70391  32.574  42.527  12.092
98066W        W70392   7.397  28.686   2.928
98067W        W70393  32.723  19.296   0.776
98068W        W70394  37.600  36.400   0.546
98069W        W70395  32.693  17.872  11.884
98070W        W70396  36.512  26.275  10.490
98071W        W70397  27.690   6.383  14.094
98072W        W70398  20.590  44.922  14.404
98073W        W70399  13.161  24.230  14.982
98074W        W70400  34.608  30.889  12.966
98075W        W70401  28.588   0.686   2.978
98076W        W70402   6.828   2.544  10.731
98077W        W70403  22.170   1.220   4.187
98078W        W70404  41.536   3.091   0.303
98079W        W70405  32.153   7.430  14.325
98080W        W70406  14.716  12.067   1.738
98081W        W70407  18.306  23.970  11.628
98082W        W70408  17.041  26.239  13.529
98083W        W70409  36.517  22.689  11.178
98084W        W70410  13.567   0.264  13.842
98085W        W70411  37.524  11.791   1.300
98086W        W70412  15.255   4.469  11.005
98087W        W70413  18.795   9.806   2.169
98088W        W70414   3.122  23.624   5.233
98089W        W70415  13.717  43.777   2.381
98090W        W70416  16.334  28.603   3.179
98091W        W70417   9.582  15.128   1.314
98092W        W70418   9.872  21.943  12.074
98093W        W70419  28.450   6.441  10.589
98094W        W70420   5.390  33.213  13.341
98095W        W70421  30.928   6.137   2.611
98096W        W70422  16.685  18.023   4.582
98097W        W70423  43.013  31.396  11.542
98098W        W70424  33.387  42.284  10.615
98099W        W70425  23.111  34.667   0.711
98100W        W70426  24.186   5.186   0.219
98101W        W70427  24.000   7.912   0.811
98102W        W70428  24.067  34.567  11.176
98103W        W70429  24.411  39.592   3.212
98104W        W70430   3.329  34.189   3.027
98105W        W70431  29.495   8.141   0.462
98106W        W70432  41.535   5.814  13.405
98107W        W70433  16.536  26.546   3.270
98108W        W70434   6.420   6.778   3.691
98109W        W70435  44.914  18.097  12.505
98110W        W70436  38.906  29.729  12.568
98111W        W70437  42.731  27.982   1.853
98112W        W70438  42.937  40.534  14.874
98113W        W70439   2.381  28.673   0.323
98114W        W70440  10.743  10.997   1.874
98115W        W70441   2.306  26.476   1.393
98116W        W70442   1.683  32.552   0.079
98117W        W70443  36.456  11.106   1.695
98118W        W70444   4.465   8.284   0.963
98119W        W70445   1.964  14.076  10.623
98120W        W70446  10.608  35.069   3.968
98121W        W70447  25.184  40.855  13.755
98122W        W70448  30.813  22.557  13.958
98123W        W70449  42.344  26.704  13.327
98124W        W70450   1.492  12.835  11.964
98125W        W70451  25.789  19.824  10.587
98126W        W70452   9.593  32.059   0.774
98127W        W70453   8.868  32.599   0.416
98128W        W70454  14.126  32.184  10.686
98129W        W70455  25.344   0.956   5.006
98130W        W70456   7.893  29.999   2.431
98131W        W70457  40.567  35.597  13.342
98132W        W70458   8.853  40.217   0.980
98133W        W70459  42.103  44.851   2.817
98134W        W70460  34.995  42.713   1.456
98135W        W70461  12.367  13.161  13.555
98136W        W70462  12.409  15.310  10.455
98137W        W70463  44.015   3.231  12.992
98138W        W70464  28.833  19.829  13.768
98139W        W70465   4.739   8.134   0.523
98140W        W70466   2.184  40.823  12.628
98141W        W70467  18.309  18.716  12.750
98142W        W70468   0.203  30.549  10.678
98143W        W70469  44.493  17.359   0.930
98144W        W70470   2.776  26.932  11.552
98145W        W70471   2.014   8.850  11.529
98146W        W70472  20.471  38.960  12.052
98147W        W70473   3.027  12.804   2.166
98148W        W70474   7.896  36.002  14.273
98149W        W70475   1.481  16.694  12.047
98150W        W70476  24.815  10.640   4.532
98151W        W70477  42.782  33.789  14.905
98152W        W70478   7.943  24.709   2.621
98153W        W70479   9.854  29.190  14.412
98154W        W70480  15.166  19.129   0.213
98155W        W70481  34.984   8.047   2.295
98156W        W70482   2.719  26.649   2.361
98157W        W70483  16.147  22.179  12.566
98158W        W70484  35.766  35.585  11.025
98159W        W70485  38.200   0.032  11.975
98160W        W70486   9.384  43.919  11.571
98161W        W70487  38.327  31.157  12.305
98162W        W70488  26.168   3.112  11.608
98163W        W70489  33.650  10.792   4.714
98164W        W70490  40.744  32.970   3.106
98165W        W70491  27.656  36.063  11.589
98166W        W70492  36.332  11.240  14.320
98167W        W70493  23.340  25.898   0.212
98168W        W70494  38.094  19.096  13.385
98169W        W70495  25.121  25.612  10.550
98170W        W70496  32.890  24.265   1.914
98171W        W70497  42.083  44.237  13.304
98172W        W70498  44.731  26.168   4.693
98173W        W70499  43.526  13.194   2.784
98174W        W70500  26.172  42.342  11.303
98175W        W70501  23.674  18.775  11.092
98176W        W70502   4.908  43.165  14.593
98177W        W70503  33.686   8.171  11.433
98178W        W70504   8.853  37.234  13.290
98179W        W70505  39.269  12.216   2.201
98180W        W70506  16.182  27.771  11.384
98181W        W70507  28.559  18.495   2.844
98182W        W70508  36.048  24.595   3.083
98183W        W70509  44.867  40.130   4.103
98184W        W70510   2.224  10.843   2.957
98185W        W70511  12.189  12.859  12.852
98186W        W70512  35.328  37.654   3.730
98187W        W70513  44.756  17.550  14.677
98188W        W70514   9.787  16.193   4.588
98189W        W70515  43.934   4.374   1.474
98190W        W70516  11.601  10.309  13.555
98191W        W70517  11.367  22.791  12.818
98192W        W70518  17.263   0.593   4.946
98193W        W70519  16.979  38.981  13.060
98194W        W70520  31.625  28.477   2.826
98195W        W70521   6.683   0.988   3.393
98196W        W70522  21.650  26.901  12.296
98197W        W70523  39.120  37.511  13.924
98198W        W70524  17.689  15.391  10.018
98199W        W70525  40.664  20.153  11.455
98200W        W70526  19.489  34.517   4.063
98201W        W70527   7.418  35.659   0.601
98202W        W70528   5.025  30.508  13.298
98203W        W70529   4.843  41.332   0.361
98204W        W70530  38.386   2.407   0.946
98205W        W70531   2.747  39.085   1.790
98206W        W70532   5.155   6.478  13.755
98207W        W70533  22.153  13.061  13.297
98208W        W70534  22.495  33.732   3.749
98209W        W70535  17.150  10.184   4.152
98210W        W70536  16.339  17.138   1.409
98211W        W70537  13.007  44.115  14.439
98212W        W70538  29.894  20.781   4.222
98213W        W70539  22.618   4.881  11.257
98214W        W70540  13.657   4.338   1.273
98215W        W70541  31.125  25.234   4.238
98216W        W70542  37.891   7.675   0.813
98217W        W70543  32.513  44.169  14.901
98218W        W70544  30.658  32.578   1.853
98219W        W70545  11.197  38.397   0.464
98220W        W70546  21.522   6.805  14.479
98221W        W70547  27.669   3.205   0.265
98222W        W70548  33.564  23.955  14.465
98223W        W70549  31.998   7.864  12.654
98224W        W70550  26.450   4.952   0.430
98225W        W70551   4.279  21.798  12.927
98226W        W70552   6.761  38.535  11.613
98227W        W70553  21.489  13.764   3.616
98228W        W70554  16.185  30.920  11.072
98229W        W70555  30.023  23.339  14.983
98230W        W70556  11.320  36.765   1.968
98231W        W70557   4.824  34.009  10.671
98232W        W70558  28.924  27.731   0.386
98233W        W70559  44.460  37.930   4.853
98234W        W70560  11.833  25.486   4.068
98235W        W70561  38.903  44.029  11.581
98236W        W70562  31.182  39.061   2.215
98237W        W70563  21.121  37.880   5.036
98238W        W70564   6.315  35.091   5.237
98239W        W70565  35.905  23.641  14.899
98240W        W70566  14.194  21.622   4.548
98241W        W70567  17.724  29.865   2.562
98242W        W70568   2.317   5.135  14.517
98243W        W70569  44.443  26.436  14.022
98244W        W70570  36.358   1.379  12.534
98245W        W70571   4.799  25.484  12.167
98246W        W70572  21.532  28.181  13.905
98247W        W70573  20.641  10.724  12.653
98248W        W70574   3.452  31.617   2.619
98249W        W70575  11.859   1.896   4.702
98250W        W70576   6.388   7.190  10.912
98251W        W70577  13.809  37.375  11.432
98252W        W70578   0.894   2.933  12.970
98253W        W70579  28.995   8.918  11.026
98254W        W70580   2.547  38.714   1.437
98255W        W70581  23.054  41.775  12.355
98256W        W70582  38.771  20.981   3.858
98257W        W70583  20.832  10.396   0.211
98258W        W70584  43.316  27.878   5.374
98259W        W70585  15.916  43.028  11.169
98260W        W70586  41.393  15.726   3.129
98261W        W70587  42.759  30.382  14.362
98262W        W70588  12.671  43.764  14.591
98263W        W70589  12.325  14.824   2.389
98264W        W70590  30.270   4.000   0.225
98265W        W70591  39.892  16.573  11.598
98266W        W70592  11.352  25.988   0.389
98267W        W70593  29.065  18.666   4.637
98268W        W70594  23.040  12.693  14.503
98269W        W70595  31.504   5.369  11.190
98270W        W70596  11.778  14.665   0.822
98271W        W70597   5.549   8.505  14.912
98272W        W70598   8.290  24.625   1.636
98273W        W70599  37.074  30.495  11.588
98274W        W70600  10.797   8.676  13.399
98275W        W70601  16.812  30.673   0.836
98276W        W70602  11.764  42.291  14.378
98277W        W70603  14.303  42.712  11.465
98278W        W70604  18.557  26.526  11.442
98279W        W70605  11.339  32.372  11.203
98280W        W70606  27.998  29.493   0.789
98281W        W70607  22.157  15.128  13.419
98282W        W70608   8.327  26.405   3.256
98283W        W70609  20.134  32.462   2.783
98284W        W70610  37.600   6.674   5.045
98285W        W70611  35.850  37.002   1.852
98286W        W70612  28.934  12.742   4.233
98287W        W70613  19.911  10.579  14.544
98288W        W70614  35.945  23.906  13.367
98289W        W70615  43.372   6.464   2.273
98290W        W70616   6.257  13.130   0.278
98291W        W70617  42.680  28.633  13.715
98292W        W70618   7.356  18.657   3.361
98293W        W70619  28.154  33.405  14.843
98294W        W70620  16.786  27.553   2.822
98295W        W70621  24.108   8.572  12.078
98296W        W70622  14.825  43.245   0.379
98297W        W70623  16.369   6.359   2.805
98298W        W70624  16.441  29.468  14.785
98299W        W70625  15.052  41.295   4.123
98300W        W70626  14.325   7.293   4.651
98301W        W70627  39.719  33.618   4.288
98302W        W70628  43.605   9.562   4.088
98303W        W70629  28.768   7.891  12.553
98304W        W70630  35.382  32.539  12.626
98305W        W70631  30.382  28.147  10.734
98306W        W70632  26.234   1.830  14.758
98307W        W70633  22.288  34.623   4.590
98308W        W70634  14.094  37.999  14.429
98309W        W70635  21.120  32.853   3.815
98310W        W70636  38.811  37.051   0.403
98311W        W70637  17.224  40.337   1.371
98312W        W70638  35.636  42.817  14.244
98313W        W70639   0.642   8.895   2.666
98314W        W70640  29.209  28.419  12.091
98315W        W70641  12.300  40.478  12.356
98316W        W70642  44.323  20.106  14.319
98317W        W70643  22.572  23.648  11.962
98318W        W70644   8.190  21.062  14.052
98319W        W70645  12.377  36.847  11.838
98320W        W70646  43.767  40.814  12.796
98321W        W70647  28.552  41.009   1.765
98322W        W70648   7.824  18.230   4.092
98323W        W70649  41.895  34.427  13.428
98324W        W70650   1.263   9.512   2.877
98325W        W70651  38.558  23.120  10.645
98326W        W70652  30.585   6.637  13.731
98327W        W70653  30.092  29.747  11.519
98328W        W70654  18.506  42.265   0.434
98329W        W70655  14.154  27.626  14.429
98330W        W70656  15.653  36.916  11.612
98331W        W70657  35.043   2.968   0.238
98332W        W70658  30.867  39.356   2.652
98333W        W70659  20.342  14.011  12.640
98334W        W70660  23.206  44.922  13.044
98335W        W70661   6.711  27.038  10.396
98336W        W70662  35.428  41.822   1.732
98337W        W70663  43.922   9.431  10.633
98338W        W70664  14.093  11.202   2.802
98339W        W70665  37.518   1.833  10.891
98340W        W70666  38.546  41.497   4.344
98341W        W70667  14.324  10.790  10.599
98342W        W70668  23.520  23.936   1.389
98343W        W70669   0.361   5.026   0.952
98344W        W70670  15.568  31.985  13.411
98345W        W70671   2.781  32.016   1.448
98346W        W70672  19.074  19.987  10.471
98347W        W70673  39.224   1.365   0.952
98348W        W70674  44.157  37.386   0.486
98349W        W70675   5.314  39.292   1.699
98350W        W70676   1.600  23.764   1.311
98351W        W70677  38.827  25.635   1.322
98352W        W70678  15.743  35.181   1.037
98353W        W70679  38.880   4.819  13.858
98354W        W70680  27.940  27.611   3.859
98355W        W70681  21.671  44.375   1.206
98356W        W70682  33.024   3.673   4.549
98357W        W70683  18.497  22.057  13.016
98358W        W70684  18.325  35.041   4.687
98359W        W70685  38.860  13.080   4.714
98360W        W70686  42.318  36.056   4.010
98361W        W70687   2.610  32.130   2.464
98362W        W70688   8.204  37.307  13.984
98363W        W70689  21.741  19.644   3.870
98364W        W70690  36.806  40.877   0.244
98365W        W70691   2.348  39.532   3.860
98366W        W70692  24.556  34.555   4.527
98367W        W70693  19.823  32.520   2.372
98368W        W70694  14.202   8.838   2.338
98369W        W70695  15.644  18.364  13.425
98370W        W70696  12.438  16.396  14.244
98371W        W70697  24.531  13.503   4.093
98372W        W70698  32.497  30.897   1.152
98373W        W70699  42.437  37.093  14.438
98374W        W70700  35.383  19.779   0.973
98375W        W70701  40.301  23.070   3.767
98376W        W70702  23.294   3.904   4.555
98377W        W70703  35.594  31.813   1.694
98378W        W70704   6.220   1.909  12.519
98379W        W70705  44.738   9.229   0.415
98380W        W70706  18.325  25.589  13.362
98381W        W70707  12.555  31.086  11.564
98382W        W70708  13.946  40.555   4.044
98383W        W70709  22.480  10.707  14.233
98384W        W70710   3.351  23.932  10.353
98385W        W70711  37.399  43.227  12.031
98386W        W70712  19.553  27.523   0.305
98387W        W70713  13.334  14.181   2.630
98388W        W70714  12.111  13.188   1.028
98389W        W70715  35.624  14.560  13.890
98390W        W70716  26.311  29.120   4.681
98391W        W70717  11.919  34.984   5.429
98392W        W70718  38.260  17.694  11.528
98393W        W70719   4.841  11.333   0.835
98394W        W70720  28.928  32.998   3.318
98395W        W70721  10.103  12.674  10.314
98396W        W70722  18.512  36.117  14.484
98397W        W70723   2.187   6.864   1.649
98398W        W70724  20.930  21.183   4.016
98399W        W70725  18.298  30.644   3.889
98400W        W70726  17.606  42.375  11.491
98401W        W70727  44.979   7.408   2.821
98402W        W70728  43.810  22.042   2.695
98403W        W70729  42.338  14.542  13.926
98404W        W70730  18.818  33.000   3.893
98405W        W70731   5.022  25.799   3.280
98406W        W70732   5.708   7.142  12.899
98407W        W70733   6.813   6.130  14.432
98408W        W70734   8.268   7.914  12.392
98409W        W70735  20.534  24.974  10.426
98410W        W70736  25.169  38.399   2.272
98411W        W70737  37.969  39.954   4.124
98412W        W70738  24.988  34.660  13.259
98413W        W70739  43.375  24.699  11.529
98414W        W70740  16.640  37.561  12.397
98415W        W70741   1.879  16.083  10.563
98416W        W70742   1.238  42.483  13.420
98417W        W70743   4.087   4.758  12.399
98418W        W70744  24.259   6.346  11.696
98419W        W70745  16.054  19.770  13.217
98420W        W70746   1.236  33.432  13.100
98421W        W70747  28.348  32.699   0.288
98422W        W70748   2.173   4.307   2.161
98423W        W70749   3.547  12.762  13.294
98424W        W70750   8.836   4.770   3.215
98425W        W70751  29.618   2.830  11.679
98426W        W70752   0.360  11.005   1.905
98427W        W70753  30.152  27.197  10.210
98428W        W70754  12.120  16.560  13.870
98429W        W70755  10.320   5.715   1.909
98430W        W70756  21.044  37.114  12.557
98431W        W70757  10.049  41.735   4.537
98432W        W70758  34.863  27.009   1.190
98433W        W70759  34.160   7.383  11.226
98434W        W70760  21.890  38.319   0.857
98435W        W70761  25.360  36.489  10.579
98436W        W70762  29.961  39.407   3.136
98437W        W70763  27.027  11.164  10.932
98438W        W70764  40.343  27.164   1.742
98439W        W70765  17.071  41.581   0.965
98440W        W70766  17.900  12.938   1.050
98441W        W70767  40.882  32.363   1.930
98442W        W70768  43.979  44.732  13.133
98443W        W70769  37.447  32.401   4.634
98444W        W70770  18.656  16.732   0.312
98445W        W70771  22.534   3.995   4.094
98446W        W70772  37.676  31.704   2.924
98447W        W70773  43.335  44.310   2.337
98448W        W70774  20.965  38.861   3.041
98449W        W70775  30.977   9.199  10.745
98450W        W70776  25.697   2.181  12.423
98451W        W70777  10.245   0.122  10.270
98452W        W70778   9.671   5.220   1.082
98453W        W70779  31.146  27.682  14.920
98454W        W70780  28.067   3.623  11.108
98455W        W70781  15.271  13.748   3.452
98456W        W70782   8.336  12.790  10.938
98457W        W70783  10.647   1.736   2.359
98458W        W70784  43.319   6.917   4.081
98459W        W70785  39.443  18.756   1.689
98460W        W70786  23.494  23.760   3.280
98461W        W70787  27.387  10.072  12.962
98462W        W70788  19.781  37.301   4.177
98463W        W70789   4.915  31.679  10.748
98464W        W70790  44.801  17.700   4.530
98465W        W70791  10.193  25.351  13.321
98466W        W70792  26.368  38.910  14.127
98467W        W70793  20.734   2.812   2.210
98468W        W70794   1.925  31.483   3.425
98469W        W70795  42.574  44.945  11.128
98470W        W70796  29.057   0.343  11.710
98471W        W70797   4.418   3.962  10.191
98472W        W70798  15.738  27.652  10.202
98473W        W70799  12.872  36.553   9.772
98474W        W70800  13.312   6.183  12.923
98475W        W70801  15.293  36.871  14.207
98476W        W70802   9.387  26.837  11.717
98477W        W70803  10.805  36.446  11.150
98478W        W70804  37.080   7.267   0.796
98479W        W70805  30.538  17.674  13.727
98480W        W70806  42.491  26.442   2.218
98481W        W70807   1.792  41.819   1.874
98482W        W70808  27.091  11.798   3.291
98483W        W70809  42.417   4.199   4.631
98484W        W70810  36.642  37.015  14.967
98485W        W70811  25.191  29.600  10.734
98486W        W70812  23.218   7.937   2.842
98487W        W70813  30.138   8.191   0.851
98488W        W70814  28.100   4.888  13.100
98489W        W70815  35.956  31.135  13.888
98490W        W70816   6.322  36.505   3.757
98491W        W70817  12.344   1.914  12.036
98492W        W70818  23.394  31.840   3.096
98493W        W70819  42.488  20.637   4.416
98494W        W70820  14.342  37.982   1.784
98495W        W70821   1.445   5.185  11.476
98496W        W70822  41.612  41.138  10.574
98497W        W70823  18.526   4.164  13.871
98498W        W70824  16.836  24.683  14.868
98499W        W70825  24.050   9.613   0.905
98500W        W70826  23.657  36.107  13.543
98501W        W70827  36.060  11.868  13.032
98502W        W70828  26.018  24.600  13.688
98503W        W70829  31.492   5.177  13.535
98504W        W70830  20.380   3.686   3.257
98505W        W70831  40.541  10.642   0.746
98506W        W70832   3.751   4.218  13.913
98507W        W70833  20.054  20.682  12.894
98508W        W70834  11.864  18.788  11.428
98509W        W70835  41.487   8.668   4.131
98510W        W70836  25.093   4.732  12.902
98511W        W70837  39.309  36.910  10.914
98512W        W70838   5.999  17.651  13.073
98513W        W70839  29.646  13.047  11.148
98514W        W70840  24.950   0.140   2.569
98515W        W70841   9.671  13.393   1.146
98516W        W70842  37.081   6.350   1.993
98517W        W70843   5.652  33.137  11.984
98518W        W70844  29.993  31.115   2.400
98519W        W70845  42.565  27.068   0.213
98520W        W70846  36.595  43.715   1.878
98521W        W70847   0.535  29.981   4.866
98522W        W70848  10.851  38.422   2.370
98523W        W70849  27.044   3.043  12.890
98524W        W70850  31.706   9.330   4.436
98525W        W70851   4.384  12.757   4.491
98526W        W70852  31.088  21.317  14.442
98527W        W70853  23.494  25.958  11.605
98528W        W70854   8.753  38.555   2.281
98529W        W70855  24.220   3.539  10.156
98530W        W70856  11.742   3.397  14.793
98531W        W70857  10.993  37.272  11.119
98532W        W70858  43.390  32.340  13.112
98533W        W70859   8.171  30.604   1.960
98534W        W70860  19.623  28.526  12.834
98535W        W70861  30.359  32.028  11.196
98536W        W70862  30.574  24.924  14.177
98537W        W70863  19.761  29.696  11.092
98538W        W70864  30.025  31.646  12.077
98539W        W70865  10.319  27.849  14.691
98540W        W70866  13.230  22.234   0.795
98541W        W70867  26.379  36.994   3.210
98542W        W70868  41.005  12.499  14.989
98543W        W70869  28.186  30.931  12.093
98544W        W70870  12.738  34.886   3.436
98545W        W70871  17.400  41.836  11.053
98546W        W70872  44.787  40.962  13.082
98547W        W70873  35.099  29.610  11.953
98548W        W70874  11.637   2.382   1.312
98549W        W70875   8.349   6.542  12.397
98550W        W70876  29.112  12.275   4.093
98551W        W70877  13.711  22.707  13.057
98552W        W70878   0.948  23.354   4.585
98553W        W70879  23.434  37.615  12.029
98554W        W70880  30.053  41.800  13.437
98555W        W70881  42.311  34.370   0.577
98556W        W70882  38.798  30.406   3.877
98557W        W70883  21.568   7.915  13.724
98558W        W70884  39.168  11.216   4.829
98559W        W70885   3.177   9.258   5.223
98560W        W70886  21.486   3.354   0.378
98561W        W70887   7.492  14.251  13.458
98562W        W70888  29.985   8.795  14.432
98563W        W70889   1.731  31.607  12.586
98564W        W70890  22.699   8.284  10.865
98565W        W70891  13.623  25.474  13.875
98566W        W70892  37.682   6.238  13.515
98567W        W70893  33.435  39.339  11.589
98568W        W70894   5.909  16.652  14.461
98569W        W70895  29.556  16.372  12.382
98570W        W70896  26.986  43.703  14.380
98571W        W70897  29.113   7.465   1.095
98572W        W70898   1.827   9.947   5.485
98573W        W70899  38.571  34.483  13.853
98574W        W70900  25.022  32.667  14.475
98575W        W70901  16.838  36.335   2.668
98576W        W70902  14.508  21.510  12.166
98577W        W70903  42.407  20.576  11.215
98578W        W70904  36.971  10.823  10.313
98579W        W70905  26.630   0.517   2.483
98580W        W70906  25.231  40.224   1.185
98581W        W70907   4.263  15.794   3.658
98582W        W70908  20.755   2.187   0.040
98583W        W70909  15.568  36.844  12.602
98584W        W70910   3.325  38.009   4.962
98585W        W70911  32.615  26.679  13.095
98586W        W70912  39.562   5.985   1.948
98587W        W70913   6.252  31.415   2.769
98588W        W70914  44.439  31.722  12.528
98589W        W70915   1.389  26.057  13.384
98590W        W70916  19.853  33.940  13.374
98591W        W70917  31.840   7.779   0.408
98592W        W70918   8.746   1.886  11.942
98593W        W70919   7.294  18.238  12.974
98594W        W70920  39.966  37.459  14.712
98595W        W70921  37.035  16.671   0.531
98596W        W70922   2.443  40.792  14.856
98597W        W70923   5.755  39.543   1.512
98598W        W70924  25.865  25.002  12.916
98599W        W70925  20.100  12.887  14.286
98600W        W70926  37.606  32.576  12.921
98601W        W70927  40.566  34.399   4.778
98602W        W70928   6.393   7.802   3.305
98603W        W70929  30.705   7.718   2.219
98604W        W70930  40.433  29.064   2.624
98605W        W70931  10.892  42.962   1.397
98606W        W70932   1.807  37.498  12.473
98607W        W70933  19.299  21.258  13.375
98608W        W70934  27.666   6.221   0.839
98609W        W70935  39.967   0.119   2.128
98610W        W70936  17.725  37.910   1.794
98611W        W70937  23.465   6.378  11.164
98612W        W70938   2.662  33.187   1.521
98613W        W70939  25.393   6.818   0.008
98614W        W70940  28.368  24.144   1.187
98615W        W70941   9.766  39.686   2.831
98616W        W70942  33.604  31.477  11.188
98617W        W70943  33.419  20.052   2.024
98618W        W70944  37.346  23.732  10.375
98619W        W70945   3.255  26.865   1.673
98620W        W70946  27.947   3.241  12.064
98621W        W70947  20.282   9.653  13.418
98622W        W70948   1.036   6.239  12.884
98623W        W70949  13.185  33.164   3.850
98624W        W70950  44.338  16.786  10.614
98625W        W70951  12.572   4.985   4.731
98626W        W70952   0.271  33.926  13.290
98627W        W70953   9.615  23.042   2.215
98628W        W70954  19.630  27.689   4.151
98629W        W70955   3.309  42.293  14.305
98630W        W70956   7.888  41.612   1.867
98631W        W70957  18.612  31.630   0.004
98632W        W70958  19.698  34.777   3.640
98633W        W70959   0.020  33.418  10.709
98634W        W70960   6.909  34.151  11.133
98635W        W70961  26.164  21.252   4.070
98636W        W70962   0.822  11.347   3.088
98637W        W70963   2.987  17.598  13.814
98638W        W70964  38.041  34.943   4.014
98639W        W70965  32.401  38.856  12.387
98640W        W70966   3.777   7.089   3.308
98641W        W70967   5.418  36.548   2.595
98642W        W70968  29.738  44.279   1.246
98643W        W70969  33.937  27.601  12.086
98644W        W70970   4.384   0.422   1.361
98645W        W70971  37.091  14.140   2.743
98646W        W70972  37.517  30.542  14.745
98647W        W70973   9.268  32.443  10.562
98648W        W70974   6.388  35.926  11.141
98649W        W70975  21.749   8.344   3.290
98650W        W70976  25.171  10.149  15.000
98651W        W70977   7.359   7.518  14.356
98652W        W70978  29.086  31.924   1.216
98653W        W70979  10.334   2.877   3.334
98654W        W70980   6.995  23.572  11.963
98655W        W70981  14.789  37.363  13.313
98656W        W70982   2.746  34.318  11.081
98657W        W70983  18.599  37.646  12.511
98658W        W70984  39.313  37.863   4.556
98659W        W70985  38.066  36.808   3.265
98660W        W70986  44.504  38.549  11.922
98661W        W70987  43.034   4.191   1.693
98662W        W70988  25.131   9.240   2.410
98663W        W70989  30.942  38.120  13.610
98664W        W70990   5.978  44.751   0.827
98665W        W70991  36.654  44.386  10.601
98666W        W70992  32.043   1.456  12.002
98667W        W70993  36.047  27.093   0.423
98668W        W70994  38.902   5.719   1.150
98669W        W70995  38.324  33.833  14.797
98670W        W70996  22.711  20.953   2.002
98671W        W70997  11.328  35.111  13.018
98672W        W70998  13.646   5.790  11.373
98673W        W70999  36.567  22.587  11.891
98674W        W71000  29.043  42.906  11.558
98675W        W71001   3.910  26.422  10.715
98676W        W71002  12.024  12.586   2.694
98677W        W71003   2.726  16.292  13.524
98678W        W71004  32.630  37.980  10.890
98679W        W71005  14.181  25.165   5.481
98680W        W71006  30.989  41.081  12.424
98681W        W71007  22.267  34.846  12.078
98682W        W71008  42.231  35.005  12.500
98683W        W71009  32.716  16.297  10.729
98684W        W71010  35.173  15.833  12.516
98685W        W71011  20.745  41.814  12.408
98686W        W71012  26.245  41.430  11.310
98687W        W71013  44.945   3.723   3.250
98688W        W71014  10.372  19.235   4.598
98689W        W71015  15.648  39.397  13.949
98690W        W71016  31.733  17.681  13.093
98691W        W71017  11.686  15.295  11.512
98692W        W71018  19.182   3.968  13.940
98693W        W71019  36.959  12.206  12.365
98694W        W71020  30.191  36.886   2.193
98695W        W71021   8.940  40.378   0.508
98696W        W71022  14.166  38.343   5.004
98697W        W71023  38.816  23.631   2.395
98698W        W71024  25.125  22.124  12.360
98699W        W71025  20.815  20.715   2.490
98700W        W71026  33.875  37.839  12.912
98701W        W71027  33.583   1.001   1.836
98702W        W71028  31.538  44.331   2.573
98703W        W71029   9.173  41.452   0.534
98704W        W71030  31.667  14.666   1.269
98705W        W71031  29.715   3.087   0.861
98706W        W71032  32.193  34.557  14.196
98707W        W71033  18.253  19.332  12.088
98708W        W71034  42.836   8.277  11.461
98709W        W71035  14.065  36.435  10.632
98710W        W71036  33.732   1.857  10.805
98711W        W71037  23.637  31.586  11.208
98712W        W71038  23.817  39.819   4.352
98713W        W71039   8.363  16.613   2.420
98714W        W71040  17.172  43.254  11.940
98715W        W71041  36.018   0.248  10.656
98716W        W71042  39.928  35.545  11.279
98717W        W71043  37.590  11.766   0.329
98718W        W71044  11.703   2.446  12.369
98719W        W71045  23.582   1.110  13.846
98720W        W71046  42.069  44.257   5.032
98721W        W71047  21.511   1.209   2.828
98722W        W71048   7.844  16.288  14.017
98723W        W71049  40.307   9.267   4.840
98724W        W71050  33.093   6.739   2.684
98725W        W71051  27.767   5.810   3.703
98726W        W71052   2.349  22.262   4.196
98727W        W71053  11.628  16.598   2.360
98728W        W71054  37.573  17.754   0.910
98729W        W71055   2.516  38.854  11.543
98730W        W71056  35.019   3.380   1.768
98731W        W71057  23.447  22.662  14.408
98732W        W71058  14.168   6.688   2.395
98733W        W71059  44.472   0.730   4.886
98734W        W71060   6.916  33.833   0.037
98735W        W71061  12.144  39.515   4.224
98736W        W71062  17.105  10.855  13.843
98737W        W71063  11.898  39.062   0.297
98738W        W71064   5.629  18.289  11.745
98739W        W71065   0.784  18.836   2.900
98740W        W71066  21.287  13.872  14.368
98741W        W71067  25.607  39.977   1.467
98742W        W71068  34.154  27.038   0.946
98743W        W71069  37.899  36.419  11.954
98744W        W71070   1.143  15.873  13.053
98745W        W71071  12.577   3.318   0.024
98746W        W71072  31.436  41.250   4.654
98747W        W71073  44.811   5.801  13.076
98748W        W71074  29.053  44.385  11.547
98749W        W71075  39.776  35.034  14.840
98750W        W71076  41.836  13.836   2.339
98751W        W71077  34.564  36.464  13.358
98752W        W71078   6.758  42.444   3.906
98753W        W71079  33.271  36.081   4.220
98754W        W71080   7.732  15.198  14.393
98755W        W71081  20.642  38.652   1.730
98756W        W71082  16.530  26.593   0.381
98757W        W71083  25.482   1.743   1.998
98758W        W71084  20.160  38.358   1.394
98759W        W71085   1.508  15.618   1.072
98760W        W71086   4.398  11.152  12.013
98761W        W71087  30.368  12.818  12.428
98762W        W71088  18.005  34.186  12.968
98763W        W71089   6.939  11.895   4.201
98764W        W71090  39.606  36.919  14.585
98765W        W71091  19.328   0.524   2.482
98766W        W71092   8.967  30.056  11.528
98767W        W71093  37.050   3.137   3.280
98768W        W71094  17.544  38.069  13.515
98769W        W71095  18.566  41.229   3.737
98770W        W71096  15.456  26.545   4.981
98771W        W71097  16.315   0.311  13.437
98772W        W71098  28.962  24.231  13.839
98773W        W71099  41.564  34.329   3.200
98774W        W71100  22.814   5.364  11.127
98775W        W71101   9.290   6.220  10.325
98776W        W71102  10.812  14.122   1.757
98777W        W71103   8.630   8.758  11.209
98778W        W71104  21.594   1.696  11.704
98779W        W71105  20.667  31.426  13.403
98780W        W71106   9.465  44.137   3.561
98781W        W71107  20.698  25.012  13.411
98782W        W71108  41.388  22.417   4.633
98783W        W71109  12.346  12.693  14.349
98784W        W71110  35.652  16.880   2.726
98785W        W71111  12.644   7.385  11.486
98786W        W71112  36.604  20.704   0.867
98787W        W71113  15.536   7.709   0.071
98788W        W71114  18.160  32.920   0.743
98789W        W71115   4.819   2.500  14.311
98790W        W71116  33.176  30.058   2.875
98791W        W71117   9.140  21.187   2.672
98792W        W71118  10.430  43.292   1.452
98793W        W71119  33.211  25.229   4.174
98794W        W71120  41.802  37.610   0.699
98795W        W71121  21.216   0.005   4.225
98796W        W71122   1.188   3.228   3.681
98797W        W71123  19.180  26.486   2.815
98798W        W71124  44.808  18.724  11.580
98799W        W71125  40.852   5.978   0.736
98800W        W71126  23.293  34.350  10.774
98801W        W71127  32.436  42.006  12.143
98802W        W71128  23.160  35.493  13.859
98803W        W71129  10.340  10.105  11.610
98804W        W71130  12.057  34.887  14.555
98805W        W71131  23.838  13.460  14.441
98806W        W71132   3.583  10.431  13.349
98807W        W71133   1.449  32.951  13.013
98808W        W71134  33.613  38.551   0.220
98809W        W71135  28.245  22.140   1.993
98810W        W71136   9.735   3.742  11.416
98811W        W71137  37.470   3.864  14.892
98812W        W71138   1.161  24.706  10.126
98813W        W71139  38.384  43.540   1.534
98814W        W71140  29.277   4.354   3.332
98815W        W71141   5.213  16.004  11.602
98816W        W71142  35.790  25.671   2.583
98817W        W71143  38.378  16.126   2.663
98818W        W71144  42.112  25.029   4.698
98819W        W71145   4.479  25.710  10.512
98820W        W71146   9.135  19.318  12.520
98821W        W71147  27.260  35.832   3.298
98822W        W71148  43.925  14.128   2.243
98823W        W71149  39.038  16.154  13.486
98824W        W71150  19.193  43.864   4.940
98825W        W71151   3.608   9.937   1.904
98826W        W71152  22.041  43.051   1.821
98827W        W71153  19.605  37.066  14.360
98828W        W71154  31.821  38.014  13.870
98829W        W71155  25.063   5.931  13.906
98830W        W71156   4.351  16.292   2.787
98831W        W71157  38.041  18.445  11.018
98832W        W71158  36.585  19.086   3.854
98833W        W71159   0.993   9.786   4.282
98834W        W71160  33.783   8.314  12.559
98835W        W71161  23.096  18.699  14.134
98836W        W71162   5.918  36.564  12.475
98837W        W71163  29.988  32.195   4.247
98838W        W71164  11.660   4.847  14.374
98839W        W71165   2.487  39.837   2.131
98840W        W71166  17.829  31.114  13.829
98841W        W71167  30.708  30.449   0.915
98842W        W71168   5.902  43.493  11.175
98843W        W71169  29.431  27.506  11.276
98844W        W71170  25.950  19.565  14.947
98845W        W71171  28.093  30.927   4.584
98846W        W71172  20.522  39.031   3.739
98847W        W71173  34.575  12.531  12.948
98848W        W71174  25.470  16.998   3.229
98849W        W71175   9.926   5.217  13.476
98850W        W71176  17.523  20.161   2.267
98851W        W71177   7.946  42.440  11.860
98852W        W71178  18.143  43.698  14.775
98853W        W71179  13.115  31.543  11.101
98854W        W71180   2.937   6.949  11.653
98855W        W71181  41.441  32.557  11.560
98856W        W71182  44.628  28.140   1.312
98857W        W71183  29.727  39.019  14.852
98858W        W71184  30.905  16.819  10.788
98859W        W71185  30.369  23.699   1.015
98860W        W71186  38.301  37.381   0.678
98861W        W71187  13.610   6.339  12.518
98862W        W71188  21.316  36.089  11.056
98863W        W71189  33.164  18.481   4.559
98864W        W71190  22.969  24.173  11.143
98865W        W71191  10.931  43.384  13.942
98866W        W71192  20.561  42.147  12.034
98867W        W71193  41.413  18.170   2.161
98868W        W71194  14.746  43.933  12.557
98869W        W71195  43.341  44.466   4.648
98870W        W71196  42.920  23.660  13.202
98871W        W71197  36.134  37.647   3.331
98872W        W71198  28.083  32.896  14.818
98873W        W71199   9.072   9.534  14.887
98874W        W71200   1.453  32.982  14.856
98875W        W71201  26.033  22.686  12.654
98876W        W71202  17.644  27.197  14.029
98877W        W71203  31.110   1.411   4.506
98878W        W71204  24.944  12.139  13.345
98879W        W71205  25.593  32.148   4.199
98880W        W71206  15.983  31.471  13.891
98881W        W71207  42.509  14.916   1.012
98882W        W71208  23.610  26.825  14.270
98883W        W71209  28.610   2.928  10.769
98884W        W71210  19.516  19.099  10.717
98885W        W71211  44.579  30.411  14.540
98886W        W71212   2.343  32.849   4.469
98887W        W71213  13.320  12.381   0.561
98888W        W71214  35.038   5.691   2.746
98889W        W71215  37.316  27.226   0.999
98890W        W71216  21.573  10.563   4.125
98891W        W71217  28.521  33.455  14.273
98892W        W71218  32.541  35.495   4.125
98893W        W71219  42.981  19.174   3.160
98894W        W71220  27.251  34.003   2.423
98895W        W71221  29.506  29.451   1.210
98896W        W71222  38.028  21.472   2.721
98897W        W71223  27.717  19.708  11.604
98898W        W71224   6.373  29.368   1.840
98899W        W71225  16.160  21.105  12.896
98900W        W71226   7.412  41.271   4.148
98901W        W71227  39.150  22.610   2.375
98902W        W71228  44.073  22.973  12.092
98903W        W71229  41.022  26.354  12.890
98904W        W71230  11.065   5.300  12.738
98905W        W71231   0.037  32.894  13.916
98906W        W71232  27.477  16.060   3.691
98907W        W71233  21.242  43.677   1.855
98908W        W71234  16.211  25.310   3.284
98909W        W71235  20.616  15.621  14.058
98910W        W71236  41.429  22.482   1.777
98911W        W71237  43.815   0.775  12.264
98912W        W71238  27.900  42.291  10.583
98913W        W71239  27.642  33.959  12.877
98914W        W71240  10.133  26.731   1.653
98915W        W71241  12.390  35.913   1.882
98916W        W71242  35.088  26.278  11.132
98917W        W71243   9.739   9.944  12.186
98918W        W71244  10.673  39.055   3.689
98919W        W71245  24.998  28.671  12.186
98920W        W71246   0.372  43.746   2.694
98921W        W71247  39.491  35.224  11.447
98922W        W71248   7.805  41.765   1.027
98923W        W71249  19.059   0.845  13.083
98924W        W71250  10.469  17.262  11.956
98925W        W71251  37.488   6.120  12.011
98926W        W71252  38.425   4.153   0.147
98927W        W71253  27.684  32.667   4.505
98928W        W71254  23.029  37.323   0.354
98929W        W71255  12.320  32.926   2.866
98930W        W71256  29.593  43.107   2.844
98931W        W71257  26.717  41.715   4.760
98932W        W71258  11.617   2.871  11.644
98933W        W71259  34.484  28.438   4.555
98934W        W71260  39.883  30.203   4.761
98935W        W71261  22.346  23.078   0.342
98936W        W71262   3.870  42.866  13.402
98937W        W71263  21.028  17.273   1.192
98938W        W71264   8.570  42.058   1.399
98939W        W71265  13.293   8.917   3.786
98940W        W71266  32.466  25.337  12.373
98941W        W71267  30.087   0.714   2.757
98942W        W71268   8.676   6.169   1.401
98943W        W71269  33.892   6.890   4.355
98944W        W71270  17.702  33.340  11.681
98945W        W71271   9.719   6.861  14.556
98946W        W71272  29.387  15.871   1.361
98947W        W71273  31.218   2.603  11.956
98948W        W71274  17.732  33.219   0.903
98949W        W71275  29.594  39.491   4.682
98950W        W71276  28.413  34.634  13.381
98951W        W71277   5.344   4.482  14.772
98952W        W71278  40.950  35.788   2.212
98953W        W71279   0.419  15.660  11.481
98954W        W71280   7.641  17.574   0.886
98955W        W71281  26.169  18.055   3.401
98956W        W71282  29.521   1.662  12.967
98957W        W71283  35.084  34.481   3.734
98958W        W71284  30.553  30.121   3.247
98959W        W71285  23.119  33.538  13.026
98960W        W71286  26.624  17.789   1.231
98961W        W71287  27.068   0.861   2.760
98962W        W71288  21.803  12.738   3.723
98963W        W71289  43.773  11.230  14.918
98964W        W71290  15.810  12.058  13.044
98965W        W71291   6.012  35.988  10.757
98966W        W71292  18.560  16.214   3.176
98967W        W71293  37.593  27.795   4.007
98968W        W71294  14.605  37.079   4.790
98969W        W71295  44.774  42.398   1.268
98970W        W71296   9.269   2.969  10.727
98971W        W71297  27.106  23.470  10.312
98972W        W71298  28.389  22.704   2.799
98973W        W71299  31.132  17.855   3.231
98974W        W71300  24.330   4.691   4.373
98975W        W71301  24.855  35.188  11.096
98976W        W71302  26.555  30.438   1.117
98977W        W71303  13.710  17.033   4.194
98978W        W71304  36.955  34.072   1.889
98979W        W71305  40.695  33.414  12.500
98980W        W71306  11.923  10.642   3.230
98981W        W71307  29.451  32.096   0.877
98982W        W71308  10.643  22.176   3.642
98983W        W71309  37.407  37.411   0.767
98984W        W71310  22.674  31.956   2.351
98985W        W71311  26.402  28.930  13.820
98986W        W71312   4.157  29.323  13.016
98987W        W71313  10.309  23.929  14.472
98988W        W71314  44.440  41.734   0.046
98989W        W71315  38.014  29.728  11.847
98990W        W71316  26.324  13.766   0.071
98991W        W71317  35.635  35.514   3.660
98992W        W71318  36.369   7.831   4.099
98993W        W71319   2.825  38.868   4.403
98994W        W71320  30.621  44.498   1.211
98995W        W71321  39.863  18.596   4.387
98996W        W71322  12.805  21.362  14.135
98997W        W71323   8.110  16.713   2.870
98998W        W71324   8.931  26.110  10.541
98999W        W71325   7.698   8.938  11.221
99000W        W71326  24.223  33.426  13.673
99001W        W71327  43.508  30.155   4.208
99002W        W71328   8.290  10.060  11.916
99003W        W71329  10.347  17.191  11.073
99004W        W71330  23.560   8.872  14.487
99005W        W71331  15.953  24.636   2.514
99006W        W71332  26.083   8.495  14.814
99007W        W71333   1.702  19.126   0.841
99008W        W71334  40.439  39.027   1.335
99009W        W71335   1.921  44.816   4.193
99010W        W71336   2.374  16.733   2.102
99011W        W71337  43.998   2.754  13.890
99012W        W71338  29.212  43.009   0.551
99013W        W71339   0.274  40.406   0.358
99014W        W71340  12.693  33.948   4.555
99015W        W71341  23.020  11.300  13.758
99016W        W71342  42.969  33.028   1.594
99017W        W71343  27.290  19.705  10.721
99018W        W71344  14.564   4.337  11.749
99019W        W71345   6.332  40.748   4.275
99020W        W71346   4.010  36.640  13.846
99021W        W71347   9.014  27.090  13.761
99022W        W71348  40.595   3.650   4.623
99023W        W71349  26.380  37.100  12.543
99024W        W71350  35.549  21.729  13.083
99025W        W71351  37.802  12.828   2.607
99026W        W71352  18.174  15.831   1.070
99027W        W71353  16.316   7.656  14.375
99028W        W71354  36.809  29.835   4.662
99029W        W71355  17.584   9.660  10.692
99030W        W71356  33.834  19.514   0.895
99031W        W71357   5.711  40.243   3.569
99032W        W71358  10.918  32.876  11.526
99033W        W71359  16.245  26.106   3.191
99034W        W71360  42.341  24.653  10.883
99035W        W71361  29.420   9.891  13.114
99036W        W71362   1.977  15.778  13.433
99037W        W71363  17.765  14.144  11.193
99038W        W71364  38.901  10.955  14.359
99039W        W71365  34.844  39.496   0.988
99040W        W71366  31.609   5.216   3.124
99041W        W71367  19.328  22.746   3.795
99042W        W71368  34.625  31.998   3.709
99043W        W71369   3.993  17.776  14.483
99044W        W71370   8.751  12.584   0.349
99045W        W71371  18.085  20.632   4.164
99046W        W71372  25.985  28.152   4.522
99047W        W71373  35.470  18.256  10.479
99048W        W71374  11.137  41.621  12.597
99049W        W71375   9.733   4.867  14.956
99050W        W71376  36.094   2.671  14.469
99051W        W71377   3.514   3.977   0.304
99052W        W71378  44.068   7.867   3.071
99053W        W71379   7.451  12.644   0.867
99054W        W71380   6.250  43.518   0.461
99055W        W71381  41.521  23.620  11.170
99056W        W71382  13.270   3.890   0.531
99057W        W71383   7.277  25.316  12.987
99058W        W71384   1.188  34.146  11.212
99059W        W71385  19.599  33.554   4.967
99060W        W71386  22.885  42.883   1.750
99061W        W71387  11.310  28.030  11.656
99062W        W71388  21.309  22.228   0.898
99063W        W71389  41.662  17.633  11.310
99064W        W71390   7.315  16.247   4.104
99065W        W71391  21.715   7.223  13.304
99066W        W71392  16.505  25.058   0.003
99067W        W71393  39.965   2.769  10.975
99068W        W71394  39.735   3.215   1.987
99069W        W71395  27.464   6.386  10.636
99070W        W71396   9.833  18.946   1.770
99071W        W71397   5.888   2.536   0.048
99072W        W71398  27.683   8.962  12.423
99073W        W71399  36.861   7.711  11.880
99074W        W71400  21.782  36.307  13.730
99075W        W71401   1.867   7.336   3.066
99076W        W71402  41.914  10.047   1.886
99077W        W71403  27.602  15.799  11.595
99078W        W71404  29.676  10.755  12.353
99079W        W71405  35.593  38.348   1.299
99080W        W71406  19.076  30.168  10.737
99081W        W71407  13.792  21.954   3.709
99082W        W71408  37.912  31.941  11.135
99083W        W71409  43.777   7.795   2.646
99084W        W71410  32.509  24.959  12.025
99085W        W71411   4.408  11.699  11.650
99086W        W71412  43.329  22.260  14.532
99087W        W71413  36.126  32.106  12.563
99088W        W71414  12.443  43.146  12.154
99089W        W71415   4.381  19.751  10.608
99090W        W71416  13.201   7.344   2.657
99091W        W71417  35.562  44.326  10.434
99092W        W71418  25.739  23.473  13.979
99093W        W71419  35.232  32.486   9.699
99094W        W71420  39.991  15.775  13.466
99095W        W71421   1.051  16.910  11.114
99096W        W71422  13.263   2.150   0.311
99097W        W71423  28.650  33.386  13.001
99098W        W71424  26.620  41.410  12.806
99099W        W71425  43.347  24.668   0.870
99100W        W71426  33.027   9.248  13.317
99101W        W71427  32.802  35.601  11.983
99102W        W71428  32.397  34.406   3.550
99103W        W71429  40.486  41.225   4.165
99104W        W71430  27.637  37.029   3.853
99105W        W71431  43.484  25.492  14.555
99106W        W71432   8.947  27.432   0.525
99107W        W71433  38.613  33.061   2.835
99108W        W71434  32.074  31.537  12.407
99109W        W71435   7.653  29.558  10.479
99110W        W71436  35.316  44.827  13.507
99111W        W71437  17.666   8.710   2.088
99112W        W71438   7.400  20.365   1.208
99113W        W71439   4.276  40.042   0.356
99114W        W71440  17.658  20.558  11.040
99115W        W71441   7.917   1.809   1.682
99116W        W71442   8.821  14.189   1.884
99117W        W71443   7.044  30.519   0.569
99118W        W71444  42.624  21.284   1.465
99119W        W71445   3.845  27.622  11.220
99120W        W71446  42.283  24.117  14.784
99121W        W71447  36.077  38.321  10.763
99122W        W71448  15.761  31.568  14.365
99123W        W71449  20.583  33.599   2.233
99124W        W71450   7.176  26.146  11.409
99125W        W71451  41.922  42.796   1.399
99126W        W71452  40.761   3.874  11.501
99127W        W71453  29.740  12.909  14.915
99128W        W71454  20.815   2.182  10.428
99129W        W71455  30.391  42.366   2.725
99130W        W71456   9.790  38.383   0.949
99131W        W71457  35.970  12.680  13.266
99132W        W71458  36.878  10.601   5.520
99133W        W71459  12.817  33.178  13.549
99134W        W71460  36.584  28.482  14.893
99135W        W71461   3.781  31.540   0.783
99136W        W71462  30.503   1.577  14.853
99137W        W71463  17.649  13.598  11.514
99138W        W71464  37.612  27.054  11.157
99139W        W71465  26.501   9.690   0.780
99140W        W71466  33.871  18.083  13.982
99141W        W71467  17.956  21.499   2.867
99142W        W71468  18.833  44.439  11.319
99143W        W71469  15.813   3.429  12.965
99144W        W71470   1.283  18.602  11.897
99145W        W71471   7.388  29.352   3.400
99146W        W71472  35.284  10.022   1.409
99147W        W71473   1.287   3.283  12.974
99148W        W71474  31.191  15.410  10.526
99149W        W71475   8.162  28.406   1.829
99150W        W71476  44.512  37.402   4.226
99151W        W71477  22.979  37.412  14.526
99152W        W71478   6.320  32.035   1.294
99153W        W71479  33.170   4.805   1.254
99154W        W71480  41.445  33.419   1.427
99155W        W71481  32.066  32.220   4.209
99156W        W71482  25.246  31.982   2.259
99157W        W71483  12.054   9.282   3.219
99158W        W71484   2.118   5.478  11.021
99159W        W71485  12.787  32.323   4.211
99160W        W71486  16.520  32.992  11.593
99161W        W71487   2.655   8.992   3.688
99162W        W71488  32.969  11.115  14.283
99163W        W71489  27.678  40.942  14.997
99164W        W71490  17.760  16.865   3.141
99165W        W71491  33.033  38.995  14.501
99166W        W71492   7.901   1.323  10.437
99167W        W71493  12.694  11.880  12.059
99168W        W71494  20.090  27.738  13.361
99169W        W71495  40.449  35.976   4.762
99170W        W71496  19.824  31.993   3.694
99171W        W71497  11.574  37.360   4.538
99172W        W71498  17.624  22.171  11.151
99173W        W71499  31.155  28.371   3.614
99174W        W71500  36.053  27.985  14.415
99175W        W71501  14.705  40.996   4.828
99176W        W71502   7.209  33.371  14.329
99177W        W71503  13.830   6.399  12.989
99178W        W71504  34.678  40.052   1.725
99179W        W71505  35.469   6.484  13.772
99180W        W71506  43.227  11.675  14.221
99181W        W71507  13.826  15.211   2.673
99182W        W71508   6.449  16.541   0.857
99183W        W71509  21.085  28.672   1.239
99184W        W71510  21.138   2.494  11.668
99185W        W71511  35.939   2.938  13.548
99186W        W71512  15.491  43.468  12.629
99187W        W71513  34.426  22.772  11.934
99188W        W71514  44.532  37.800  13.823
99189W        W71515  35.316  35.323  12.985
99190W        W71516  20.330   0.782   1.763
99191W        W71517  24.705  27.931  14.311
99192W        W71518   4.117  21.219   3.392
99193W        W71519  20.510  40.864   3.678
99194W        W71520  34.878  10.447   2.329
99195W        W71521  12.453  19.413   0.323
99196W        W71522  34.508  26.687  13.574
99197W        W71523  39.957  42.869   2.599
99198W        W71524  25.734  18.055   1.713
99199W        W71525  43.528  25.678   3.263
99200W        W71526   0.664  33.025  12.494
99201W        W71527  19.053  21.232   5.051
99202W        W71528  44.740   4.920  10.375
99203W        W71529  18.536  23.255   2.726
99204W        W71530  35.082   6.934   1.106
99205W        W71531  40.893   0.619  11.047
99206W        W71532   3.167  35.479  14.289
99207W        W71533   0.450  27.415  13.078
99208W        W71534  21.335  44.500   3.296
99209W        W71535  44.692  34.790   1.632
99210W        W71536  38.600  23.019  11.512
99211W        W71537  12.656  36.298   3.756
99212W        W71538  36.464  20.308   2.286
99213W        W71539  35.109   8.160  13.547
99214W        W71540  10.928  23.460   4.354
99215W        W71541  30.652  24.571   3.652
99216W        W71542  19.261  29.883  11.152
99217W        W71543  30.114  11.259   4.300
99218W        W71544  17.734  39.045  13.561
99219W        W71545  12.378  36.845  11.321
99220W        W71546  41.954  30.711   4.472
99221W        W71547  21.671   4.681   3.558
99222W        W71548  34.994   8.669  12.768
99223W        W71549  37.135  18.699   2.732
99224W        W71550   1.522   6.275   1.446
99225W        W71551  21.412  13.359  14.430
99226W        W71552  40.433   0.063   4.681
99227W        W71553  22.526   6.707  13.574
99228W        W71554  31.073  25.550  11.857
99229W        W71555  26.419   3.368   3.237
99230W        W71556   5.426  13.855  12.436
99231W        W71557  29.011  28.988   3.856
99232W        W71558  15.375  25.203  10.716
99233W        W71559  32.507  11.367   2.233
99234W        W71560   0.551  13.159   4.339
99235W        W71561  22.344  27.461  11.694
99236W        W71562  31.907  16.718   4.944
99237W        W71563  34.952   9.450  13.324
99238W        W71564   7.916  37.279   4.229
99239W        W71565   8.369  11.460   3.298
99240W        W71566   7.110  13.688  14.248
99241W        W71567  26.747   0.503   1.462
99242W        W71568  39.012  13.611   1.491
99243W        W71569  40.931  27.928  14.863
99244W        W71570  30.631  38.533  11.514
99245W        W71571  25.723   0.813  14.560
99246W        W71572  12.100  21.708   4.372
99247W        W71573  15.690  26.675  10.554
99248W        W71574  18.565  38.588  11.033
99249W        W71575   4.896  23.748   2.250
99250W        W71576  24.261   1.803   3.401
99251W        W71577  31.332  21.563  11.066
99252W        W71578   6.242  18.430   3.725
99253W        W71579  36.552  10.114   9.886
99254W        W71580  44.935  15.576  12.150
99255W        W71581  19.915  40.096   0.262
99256W        W71582  40.846  28.443   1.327
99257W        W71583  35.479  20.323   3.292
99258W        W71584  11.927  18.225  10.715
99259W        W71585   1.107  11.884  11.077
99260W        W71586  31.472  21.971   0.457
99261W        W71587  34.951  37.092  13.942
99262W        W71588   2.427  31.073   4.737
99263W        W71589   4.652  33.471   5.263
99264W        W71590  17.738  17.588   2.588
99265W        W71591   0.855  18.117   1.745
99266W        W71592   7.719  43.079   4.117
99267W        W71593   7.437  18.026   4.774
99268W        W71594  36.573  14.527   1.308
99269W        W71595  24.994  23.629  14.314
99270W        W71596  42.905   9.483   0.950
99271W        W71597  30.511  37.519   0.278
99272W        W71598  33.064   4.323   3.332
99273W        W71599  31.771  25.115   0.825
99274W        W71600  13.459  26.692   5.045
99275W        W71601   2.429  26.074   0.482
99276W        W71602  38.125  24.204  12.490
99277W        W71603  23.924  37.348   4.722
99278W        W71604   7.386   8.927   3.062
99279W        W71605  25.662  22.730  13.509
99280W        W71606  21.984  37.798  10.043
99281W        W71607  36.772  30.297   3.178
99282W        W71608  27.470  42.371   1.431
99283W        W71609  22.033  14.875  12.246
99284W        W71610  31.804  17.458   4.088
99285W        W71611  13.146  32.825   0.943
99286W        W71612   5.491  34.401   3.459
99287W        W71613  37.450  11.133  13.307
99288W        W71614  27.846  32.582   0.210
99289W        W71615  13.876  22.994  13.505
99290W        W71616  28.121  15.396   1.784
99291W        W71617   5.680   6.806   3.817
99292W        W71618  43.273  16.911  10.347
99293W        W71619  20.393  33.725   4.129
99294W        W71620  18.592   1.980   2.352
99295W        W71621  44.375  21.499  14.618
99296W        W71622  15.606  17.746   1.430
99297W        W71623  42.190  13.279  14.570
99298W        W71624  29.715   9.227  13.389
99299W        W71625  27.526  15.255   4.923
99300W        W71626  20.769  27.085   4.543
99301W        W71627  29.197  23.006  13.395
99302W        W71628  44.916  31.703   1.267
99303W        W71629  38.911  41.416  14.477
99304W        W71630  12.286  40.445  11.436
99305W        W71631  10.124   1.340   0.807
99306W        W71632  12.564   8.284  10.988
99307W        W71633  31.000  43.549  11.705
99308W        W71634  32.931   7.044   1.429
99309W        W71635  25.542   2.542  14.801
99310W        W71636  21.999  12.857  11.207
99311W        W71637   5.408   8.773  11.936
99312W        W71638  19.717  25.098   0.413
99313W        W71639  36.676   6.620  14.142
99314W        W71640  26.257  40.598  13.600
99315W        W71641  44.205  22.194   0.387
99316W        W71642  13.874  24.140  12.880
99317W        W71643  34.614  44.935   0.994
99318W        W71644  24.194   0.878   3.928
99319W        W71645   9.154  11.479   0.757
99320W        W71646   8.463  30.538  11.167
99321W        W71647  24.512  10.624  13.153
99322W        W71648  17.743  10.039   3.787
99323W        W71649  39.377   6.456   3.316
99324W        W71650   0.931  16.570   3.026
99325W        W71651  15.130  42.790  12.629
99326W        W71652   0.521  27.073   0.778
99327W        W71653   2.466  11.222  14.498
99328W        W71654  39.803  28.183  13.000
99329W        W71655   6.372  10.703  12.253
99330W        W71656  13.943  24.767   4.568
99331W        W71657  43.965   6.464   4.605
99332W        W71658   8.610  42.558   3.808
99333W        W71659   6.805  12.425  13.450
99334W        W71660  16.165  39.312   0.880
99335W        W71661  30.622  27.938  13.804
99336W        W71662  13.223  17.046  12.931
99337W        W71663   9.723  38.251   4.426
99338W        W71664  17.501   1.850  13.942
99339W        W71665  15.436  39.703   4.034
99340W        W71666  37.296  37.417  11.602
99341W        W71667   6.756  29.391   2.199
99342W        W71668  36.536  25.934   1.622
99343W        W71669  11.686  38.591   4.429
99344W        W71670  41.672  14.251  12.684
99345W        W71671  12.805  42.930  11.384
99346W        W71672  35.892  11.834  14.790
99347W        W71673  12.718   0.768  13.728
99348W        W71674  25.662  37.958   2.803
99349W        W71675  36.534  26.884  13.286
99350W        W71676  11.361  11.073  10.514
99351W        W71677  14.653  13.418  13.319
99352W        W71678  44.732  16.573  10.339
99353W        W71679   6.210  17.321   3.116
99354W        W71680  29.046  22.123   3.481
99355W        W71681  15.532  21.772  11.905
99356W        W71682  42.006   8.710  12.107
99357W        W71683  24.556  37.990  14.866
99358W        W71684  18.708  31.195  11.000
99359W        W71685   7.697  28.608  11.170
99360W        W71686  10.259  25.204  11.897
99361W        W71687   0.756  26.305   5.048
99362W        W71688   5.180  13.407   4.756
99363W        W71689  27.934   1.449  13.024
99364W        W71690   5.684  40.761  14.696
99365W        W71691  14.046  14.227  11.446
99366W        W71692  13.207  43.057   0.265
99367W        W71693  15.327  28.161  13.437
99368W        W71694  34.609  35.011   2.375
99369W        W71695   7.858  10.908   3.689
99370W        W71696  24.642   5.749  12.177
99371W        W71697  33.459  14.020   3.342
99372W        W71698  36.028   8.716  14.533
99373W        W71699   7.838  29.591   1.705
99374W        W71700  18.733  41.251  11.101
99375W        W71701  30.417  40.320   0.996
99376W        W71702  18.946  40.324   2.955
99377W        W71703  16.541  36.898   2.886
99378W        W71704  18.330  29.146   0.310
99379W        W71705  21.251   0.621   2.195
99380W        W71706  29.685  28.644  10.561
99381W        W71707  41.727   5.472   2.700
99382W        W71708  38.959  28.033   0.170
99383W        W71709  34.866  14.358   4.301
99384W        W71710  14.440  36.391  13.464
99385W        W71711  42.531  32.174  12.539
99386W        W71712  41.723  20.238   4.592
99387W        W71713  10.538  29.952   2.809
99388W        W71714  13.228  26.923   2.713
99389W        W71715  44.455   4.244  10.843
99390W        W71716  27.321  12.138  14.359
99391W        W71717  15.712  27.637   2.746
99392W        W71718  29.892  12.860  10.711
99393W        W71719  27.528  44.993  14.331
99394W        W71720  21.977  15.628   0.016
99395W        W71721  23.605  37.139  11.923
99396W        W71722   4.437  19.378   0.228
99397W        W71723  36.102  20.256   2.651
99398W        W71724  43.569  23.016  13.327
99399W        W71725   4.897  24.158   1.919
99400W        W71726  30.046  21.681   3.875
99401W        W71727  10.751   8.791   4.653
99402W        W71728  21.757  34.285   0.756
99403W        W71729  17.686  20.548   3.307
99404W        W71730   7.213  18.162  12.093
99405W        W71731  25.115  44.849   1.294
99406W        W71732  40.286  31.257   0.864
99407W        W71733  21.434   7.156  12.855
99408W        W71734  37.547  13.407   3.787
99409W        W71735  36.571  34.029  13.597
99410W        W71736  28.189  15.538   0.692
99411W        W71737   0.096   2.369   3.691
99412W        W71738  33.094  16.337  12.382
99413W        W71739  17.696  13.744  12.001
99414W        W71740  19.623  39.310  14.676
99415W        W71741  29.667  44.425  13.330
99416W        W71742  13.300  11.342   4.278
99417W        W71743  30.073  19.205  14.016
99418W        W71744   9.365  22.121   4.331
99419W        W71745  41.935  11.571   4.870
99420W        W71746   3.407   1.314   1.704
99421W        W71747  26.031  43.931  10.742
99422W        W71748  23.024   9.136   0.911
99423W        W71749  40.529  16.315   3.223
99424W        W71750  18.593   2.436  14.620
99425W        W71751  29.782  27.348  10.550
99426W        W71752  22.580  37.114  11.625
99427W        W71753  27.158  26.068  12.810
99428W        W71754   8.874  23.315   0.901
99429W        W71755  41.379  27.281  12.869
99430W        W71756  24.030  22.612   4.155
99431W        W71757  36.077   8.658   3.145
99432W        W71758  40.578  36.003   2.950
99433W        W71759  13.658  34.849  12.076
99434W        W71760  44.258  14.106   5.090
99435W        W71761  12.197   7.914   3.651
99436W        W71762  21.609  36.406   1.930
99437W        W71763  27.872   3.391  11.542
99438W        W71764  32.731  38.603   1.709
99439W        W71765  27.084  26.803   2.417
99440W        W71766  17.091  28.955  14.916
99441W        W71767   1.271  21.770   5.103
99442W        W71768  15.999   0.622   4.080
99443W        W71769  32.396  36.433   1.760
99444W        W71770   3.737  29.705  12.459
99445W        W71771  14.797  34.801   2.406
99446W        W71772  24.763  16.203  12.055
99447W        W71773  44.340   2.934  12.740
99448W        W71774  17.552  20.323  12.447
99449W        W71775  15.036  40.714   4.154
99450W        W71776   9.275  38.094  12.106
99451W        W71777  17.928  16.079  13.343
99452W        W71778   6.941   4.754   2.836
99453W        W71779  24.386  27.941  10.762
99454W        W71780  43.610   0.094   0.887
99455W        W71781  15.059  40.976  11.913
99456W        W71782  38.892   9.925   2.781
99457W        W71783  20.610  32.799   4.080
99458W        W71784  28.531  36.433  12.916
99459W        W71785  17.291  19.100   1.885
99460W        W71786  41.804  14.284  10.782
99461W        W71787  30.629  28.645   1.954
99462W        W71788  25.632  19.103   3.495
99463W        W71789  36.095  18.642  11.143
99464W        W71790  28.484  44.802  11.438
99465W        W71791   5.251  26.642  12.570
99466W        W71792  34.533  36.906  12.919
99467W        W71793  12.019  20.366   4.158
99468W        W71794   2.620  29.179   2.890
99469W        W71795  25.046  25.457  13.739
99470W        W71796  29.709  40.977  10.961
99471W        W71797   6.038   5.476   2.733
99472W        W71798   7.745  14.426  11.133
99473W        W71799  40.875  11.440   2.679
99474W        W71800  43.720  32.364   3.772
99475W        W71801  41.600  31.248  10.307
99476W        W71802  44.357  14.740   3.610
99477W        W71803  33.248  38.099  14.358
99478W        W71804  35.433  15.743   0.214
99479W        W71805   8.851  27.308  13.316
99480W        W71806  38.352  44.472   1.083
99481W        W71807  37.818  28.250   4.147
99482W        W71808  36.793   4.341   3.053
99483W        W71809  40.695   0.164  11.980
99484W        W71810  12.549  31.375  13.979
99485W        W71811   8.019  12.260  12.110
99486W        W71812  14.333  17.473  11.528
99487W        W71813  36.830  18.715   0.472
99488W        W71814  38.049   9.346   1.268
99489W        W71815  31.367  32.405   2.437
99490W        W71816  35.421  18.072  11.483
99491W        W71817   9.688  26.548  11.396
99492W        W71818  18.735  12.817   0.427
99493W        W71819  30.088  18.826   4.594
99494W        W71820  42.833  39.914   3.213
99495W        W71821   2.152  44.070  13.102
99496W        W71822   5.880  35.603   1.288
99497W        W71823  14.867  41.863   4.350
99498W        W71824   7.937   7.909  10.652
99499W        W71825  20.754  33.200  13.991
99500W        W71826   8.877  17.683   0.286
99501W        W71827   0.563  18.520  11.085
99502W        W71828   4.768  14.674  12.948
99503W        W71829  42.587  41.633   0.523
99504W        W71830   2.716  27.703   3.238
99505W        W71831  33.683  44.461  12.037
99506W        W71832  22.062   4.928   3.859
99507W        W71833  22.769  24.938  13.512
99508W        W71834  24.030  32.843   2.299
99509W        W71835  14.787   4.668  14.862
99510W        W71836  29.631  37.802   3.562
99511W        W71837  16.556   0.714   2.240
99512W        W71838   4.775  30.881   3.717
99513W        W71839  22.677  19.726  11.152
99514W        W71840  25.481  20.423   3.272
99515W        W71841  28.468  23.882  10.824
99516W        W71842  16.645  39.933   3.364
99517W        W71843  10.704  19.689   3.547
99518W        W71844  36.127  39.610   4.275
99519W        W71845  27.185  37.617  12.366
99520W        W71846  37.426  36.106  14.266
99521W        W71847  14.759  16.120  14.081
99522W        W71848  33.421  38.723  12.542
99523W        W71849  39.519  42.168   3.709
99524W        W71850  35.579   9.777  12.336
99525W        W71851  11.801  15.665   1.922
99526W        W71852  27.791   1.491   2.201
99527W        W71853  27.135  34.375  10.634
99528W        W71854  24.196   9.351  14.252
99529W        W71855  30.986  34.984   4.190
99530W        W71856   5.189  20.201   0.726
99531W        W71857   0.004  34.021   0.565
99532W        W71858  25.167  41.600   1.970
99533W        W71859  32.459  26.574   3.343
99534W        W71860  38.092  14.809  11.521
99535W        W71861  24.259  36.113  12.986
99536W        W71862   8.823   2.046  11.450
99537W        W71863  12.375  16.224  13.487
99538W        W71864   0.829  12.304   4.632
99539W        W71865  37.186  28.845  11.611
99540W        W71866   6.164   2.387  12.829
99541W        W71867   3.317  28.462  14.991
99542W        W71868  17.593   6.387  13.813
99543W        W71869  16.091  31.916   0.084
99544W        W71870  40.998  28.481  11.201
99545W        W71871   2.213  10.003   5.113
99546W        W71872   5.748  12.172  13.473
99547W        W71873  40.286   7.115  12.213
99548W        W71874  37.906   0.389   0.852
99549W        W71875   3.648  15.615   0.780
99550W        W71876   1.871  26.578   1.101
99551W        W71877  43.769  22.023   1.404
99552W        W71878   0.183  34.873   1.781
99553W        W71879  20.088  18.425   0.231
99554W        W71880  24.173  19.767  14.363
99555W        W71881  38.772  12.507   3.865
99556W        W71882  24.751  20.615  10.636
99557W        W71883  16.532  31.890   2.113
99558W        W71884  17.068  44.625   5.158
99559W        W71885  10.895  39.023   1.180
99560W        W71886  14.587   0.312   1.023
99561W        W71887  26.557  36.863  14.525
99562W        W71888  10.867  24.631   3.637
99563W        W71889  33.113  26.069  13.946
99564W        W71890  10.062  13.890  14.307
99565W        W71891  36.106   9.776   4.903
99566W        W71892  10.830   0.765   4.721
99567W        W71893  13.547  12.858   3.622
99568W        W71894  11.594  40.940   0.433
99569W        W71895  28.104  12.134   4.276
99570W        W71896  22.842  29.139   3.331
99571W        W71897  17.115  24.579  10.555
99572W        W71898  37.098  20.116   0.192
99573W        W71899  37.562   5.197   0.489
99574W        W71900  31.213  24.106   2.513
99575W        W71901  34.973  32.390   3.721
99576W        W71902  11.066   3.505  11.672
99577W        W71903  17.049  30.578  10.700
99578W        W71904  42.255  18.008  12.474
99579W        W71905  23.538  20.545   4.286
99580W        W71906  37.552  15.868  10.253
99581W        W71907  29.009  34.910   4.309
99582W        W71908  10.065  38.926  11.579
99583W        W71909  16.526  34.073   3.857
99584W        W71910  29.378   8.195   1.438
99585W        W71911  16.728  43.890  14.265
99586W        W71912  42.794  13.727   1.288
99587W        W71913   1.808  20.359  11.484
99588W        W71914   3.738  20.281   4.626
99589W        W71915  13.789  15.600  13.274
99590W        W71916  41.948   5.413   3.973
99591W        W71917  11.543   4.787   4.282
99592W        W71918   2.272  33.380  13.934
99593W        W71919  37.864  10.209   0.362
99594W        W71920  43.207  30.964  14.890
99595W        W71921  42.929  17.683  11.756
99596W        W71922  27.837  29.685   2.178
99597W        W71923   8.231  15.707   3.576
99598W        W71924   3.851  31.528  14.882
99599W        W71925   8.275  14.410   3.865
99600W        W71926  42.385  20.455   2.352
99601W        W71927  32.247  42.241  12.578
99602W        W71928  18.164  17.342   3.882
99603W        W71929  13.518   9.120  11.492
99604W        W71930   0.218   1.102   3.229
99605W        W71931  32.068  38.742  13.090
99606W        W71932  13.636  21.463   2.887
99607W        W71933  38.757  33.765   9.867
99608W        W71934  33.617  41.042   2.216
99609W        W71935   8.370  17.395   0.481
99610W        W71936  22.127  22.122  10.539
99611W        W71937   8.664  41.030  14.943
99612W        W71938  27.484  11.809   0.469
99613W        W71939  11.502  35.908   0.912
99614W        W71940  18.615  29.529  14.730
99615W        W71941  12.204  37.036  12.282
99616W        W71942  11.862  13.283  12.634
99617W        W71943  26.348   5.220   4.659
99618W        W71944   6.140  17.279   2.432
99619W        W71945  44.463  44.241  14.005
99620W        W71946   2.689  27.799   0.425
99621W        W71947  19.478  11.863  11.146
99622W        W71948  27.544  33.343  11.342
99623W        W71949  10.232  38.641  13.063
99624W        W71950  19.387  13.681   2.070
99625W        W71951  17.140  32.132   1.349
99626W        W71952  17.239  29.032  11.119
99627W        W71953  41.542  18.854  13.172
99628W        W71954  12.567  35.784   4.304
99629W        W71955  16.774  26.091  11.334
99630W        W71956  35.021  10.174   0.943
99631W        W71957  31.192  19.541   1.668
99632W        W71958  30.532  32.146   1.524
99633W        W71959  13.933  34.403   0.550
99634W        W71960  30.053  37.769  13.386
99635W        W71961  11.319  13.345   2.687
99636W        W71962  43.343  34.180   2.773
99637W        W71963  38.272   4.258   1.630
99638W        W71964  27.707  18.020  12.007
99639W        W71965   4.478  35.660   3.576
99640W        W71966  34.413  30.597   4.897
99641W        W71967  25.549   0.886   4.132
99642W        W71968  14.706  22.914  11.581
99643W        W71969  29.884  41.341  13.552
99644W        W71970  15.827  40.801   2.664
99645W        W71971   5.150  43.916   2.359
99646W        W71972  26.967   2.653   1.963
99647W        W71973  23.111  25.501  10.635
99648W        W71974  39.582  37.658   4.156
99649W        W71975  42.313  26.951   4.619
99650W        W71976  23.691  11.890  10.934
99651W        W71977  20.870   3.749   3.034
99652W        W71978  38.298  29.503   4.109
99653W        W71979  42.783   3.713  14.526
99654W        W71980  13.015  34.428  12.474
99655W        W71981  42.748   0.507   3.730
99656W        W71982  19.112  28.141   0.992
99657W        W71983  17.006  16.259  10.705
99658W        W71984  20.213  14.564  10.813
99659W        W71985   3.066   5.250   4.008
99660W        W71986  14.199  10.098   3.688
99661W        W71987  21.237   1.982  11.946
99662W        W71988  27.986  12.676  10.796
99663W        W71989  12.887  26.558  13.962
99664W        W71990  18.697   0.000  10.638
99665W        W71991  12.211  27.920   4.667
99666W        W71992  38.130  38.874  10.949
99667W        W71993  31.888  26.786   4.900
99668W        W71994  23.116  32.436  13.878
99669W        W71995  16.667  15.338  12.931
99670W        W71996   6.219   3.145  13.414
99671W        W71997  13.051  28.384   1.407
99672W        W71998  39.504  30.475  10.422
99673W        W71999  43.250   1.187   0.696
99674W        W72000  44.910   7.949   1.857
99675W        W72001   0.380  38.533   0.899
99676W        W72002   9.313  42.775  14.278
99677W        W72003  12.777  22.464  14.831
99678W        W72004   2.345  41.100   2.383
99679W        W72005  30.052   3.998  13.248
99680W        W72006  24.641   4.293   1.773
99681W        W72007  43.286  30.461  14.311
99682W        W72008  31.637  19.680  13.282
99683W        W72009   4.842  18.621   1.788
99684W        W72010  14.156  26.454   2.634
99685W        W72011   2.175  31.619  14.935
99686W        W72012  17.017  32.556   1.637
99687W        W72013  43.760  11.236   3.625
99688W        W72014  11.208   4.373  10.626
99689W        W72015   2.327  24.229   4.215
99690W        W72016   3.808  21.456   0.837
99691W        W72017   7.411   9.653   2.300
99692W        W72018   8.432  21.612  11.165
99693W        W72019   0.248   9.708  11.643
99694W        W72020  38.871  41.882   2.722
99695W        W72021  23.056  31.602   0.223
99696W        W72022  39.368   7.705   2.644
99697W        W72023  29.051  12.295  12.048
99698W        W72024  31.152   0.930  12.002
99699W        W72025   1.646  27.031   1.243
99700W        W72026   0.250  44.485   4.075
99701W        W72027  39.095  43.565  13.949
99702W        W72028   1.977  32.938  14.824
99703W        W72029  29.991  33.619  10.925
99704W        W72030  25.075  21.245  13.608
99705W        W72031  15.776  43.356   1.930
99706W        W72032  21.606  22.721   4.086
99707W        W72033  30.692  13.809  11.671
99708W        W72034  21.233  21.284   1.819
99709W        W72035  15.109  10.673   1.598
99710W        W72036  31.966  38.609   0.932
99711W        W72037   2.217   0.329  12.432
99712W        W72038  40.524  13.395  12.767
99713W        W72039  17.106   6.225   3.290
99714W        W72040  30.220  39.400  11.911
99715W        W72041  33.497  10.746   0.156
99716W        W72042  39.401  14.683   0.897
99717W        W72043  19.723  19.565   0.898
99718W        W72044  19.657  39.237  13.312
99719W        W72045  30.621  37.027  10.716
99720W        W72046  37.705  12.733   9.736
99721W        W72047  27.358   6.715  14.398
99722W        W72048   9.103   5.782   3.639
99723W        W72049  25.174  11.821   5.204
99724W        W72050   1.808  43.009   0.287
99725W        W72051  32.851   7.893   4.573
99726W        W72052  21.122  24.273  10.588
99727W        W72053  10.897   0.907   4.204
99728W        W72054  43.008   5.166   3.162
99729W        W72055  10.876  40.324   2.888
99730W        W72056  26.478  14.370   4.209
99731W        W72057  40.458  24.584  10.790
99732W        W72058  27.160  18.062  11.921
99733W        W72059  19.851   2.413   3.797
99734W        W72060  27.169  15.014   4.598
99735W        W72061   8.303  44.932   0.991
99736W        W72062   4.083  29.387   1.851
99737W        W72063  14.393  42.256   4.957
99738W        W72064   6.504  31.879  12.984
99739W        W72065  24.283  44.276   3.934
99740W        W72066  12.611  37.109   4.253
99741W        W72067   2.654  22.528   1.802
99742W        W72068  34.999  39.907   2.092
99743W        W72069   9.197  32.203   4.149
99744W        W72070  27.778   2.938   2.276
99745W        W72071   0.229   4.533  11.087
99746W        W72072  13.175   0.955  11.155
99747W        W72073  40.279  33.454  12.176
99748W        W72074  14.707  43.184   3.803
99749W        W72075  40.610   3.116   4.780
99750W        W72076  23.549  23.732   0.383
99751W        W72077   1.599  44.507  13.276
99752W        W72078  23.544  37.463   3.096
99753W        W72079  18.907  23.899  12.515
99754W        W72080  30.515  41.751   0.034
99755W        W72081   3.288   7.708   3.751
99756W        W72082  43.365  35.934   0.808
99757W        W72083   9.318  39.857   4.034
99758W        W72084  18.603  40.068   1.310
99759W        W72085   2.369  43.765   3.727
99760W        W72086  22.526   5.451  14.067
99761W        W72087  32.967  40.995  12.408
99762W        W72088  44.319  40.640   3.201
99763W        W72089  38.966   8.413  14.312
99764W        W72090   8.903  10.224  12.370
99765W        W72091   6.686  12.839   1.766
99766W        W72092   6.423  17.769   2.334
99767W        W72093  12.415  19.174   4.675
99768W        W72094  29.067  12.252   2.704
99769W        W72095  23.656  30.716  13.563
99770W        W72096  18.474   7.716  14.698
99771W        W72097  13.825  18.021  10.919
99772W        W72098  42.470  30.013   2.231
99773W        W72099   4.340   8.611  14.467
99774W        W72100  11.932  35.844   4.650
99775W        W72101   5.946   8.888  13.319
99776W        W72102  34.158  15.288   1.321
99777W        W72103  28.717   7.302  13.305
99778W        W72104  36.362  14.051   2.375
99779W        W72105  25.075  32.444   4.960
99780W        W72106   9.814  34.748   4.461
99781W        W72107  26.469  44.022   4.108
99782W        W72108   5.254  25.852   2.804
99783W        W72109  44.204  38.409  11.531
99784W        W72110  27.002   5.343  14.931
99785W        W72111  12.150   2.029   3.111
99786W        W72112  29.931   8.232   2.246
99787W        W72113  40.458   9.748   0.647
99788W        W72114  36.328   0.802  13.415
99789W        W72115   6.868  28.920   3.718
99790W        W72116  41.760  17.620   4.169
99791W        W72117  12.192  31.950  14.967
99792W        W72118  41.429  28.967   3.221
99793W        W72119  41.835  40.949   2.000
99794W        W72120  40.993  40.318  13.041
99795W        W72121  36.883  43.556  13.435
99796W        W72122   3.491  21.044  13.194
99797W        W72123  32.774  14.848   0.417
99798W        W72124  34.158  27.628  10.986
99799W        W72125  23.869  18.658   4.103
99800W        W72126  40.597  30.453   1.431
99801W        W72127  26.164  41.977   2.278
99802W        W72128  37.493  41.273   9.957
99803W        W72129   4.313  35.258  12.725
99804W        W72130  22.736  29.704  14.323
99805W        W72131  17.987  10.211  13.285
99806W        W72132  12.512  28.103  12.445
99807W        W72133   2.245  11.174   2.259
99808W        W72134  33.509  22.229  14.941
99809W        W72135   8.695  14.133  14.909
99810W        W72136  12.115  34.793   4.980
99811W        W72137  23.635  29.042  12.012
99812W        W72138  18.628   1.430   0.313
99813W        W72139   3.781  15.053   2.511
99814W        W72140  15.995  34.705  11.972
99815W        W72141  43.353  20.265   3.285
99816W        W72142  22.907  18.315   1.465
99817W        W72143  44.664  20.230  13.956
99818W        W72144  10.129  43.564   3.203
99819W        W72145  39.029  17.305  10.489
99820W        W72146  42.634  41.407  13.595
99821W        W72147  31.362  39.694   3.280
99822W        W72148  28.393   9.669   3.219
99823W        W72149  22.971   1.005   1.521
99824W        W72150  15.672  44.281   4.173
99825W        W72151  19.861  10.170  13.485
99826W        W72152   6.956  30.935   2.376
99827W        W72153   7.308  32.015   0.741
99828W        W72154  43.565  24.119  12.499
99829W        W72155  28.078  41.322   1.164
99830W        W72156  35.505  27.956  10.768
99831W        W72157  35.964  20.984   4.116
99832W        W72158  18.010  20.324   1.703
99833W        W72159  29.464  36.023  13.144
99834W        W72160  37.457   6.765   1.687
99835W        W72161  43.881  39.535   1.626
99836W        W72162  17.965   7.720  14.759
99837W        W72163   7.784   5.384  10.539
99838W        W72164  13.140  40.976   0.224
99839W        W72165   5.855  44.753   3.652
99840W        W72166  20.887  29.006   3.154
99841W        W72167  15.321  38.340  14.734
99842W        W72168   8.179   4.394   2.388
99843W        W72169  41.873  35.596  11.136
99844W        W72170  13.776  38.781   3.654
99845W        W72171   2.881  39.367   0.464
99846W        W72172   7.396  26.959   2.313
99847W        W72173  25.276  36.332   0.076
99848W        W72174  31.044  37.032  11.043
99849W        W72175   8.437   6.748   4.619
99850W        W72176  40.248   3.142  11.884
99851W        W72177  28.662  15.716  13.010
99852W        W72178  21.988  44.390  11.517
99853W        W72179   9.714   9.745   3.714
99854W        W72180  19.847  10.869   3.071
99855W        W72181   2.551  19.185   2.122
99856W        W72182  43.880   1.174  13.052
99857W        W72183  18.020   6.364   3.155
99858W        W72184  44.504  22.126   4.688
99859W        W72185  12.712  16.127  10.178
99860W        W72186  36.393   7.760   2.050
99861W        W72187  33.395  15.628  11.125
99862W        W72188  19.084  32.625   0.809
99863W        W72189  17.243   0.958  11.156
99864W        W72190  11.183   7.920  10.857
99865W        W72191  37.844  40.891   4.478
99866W        W72192  10.637  30.324   1.927
99867W        W72193  21.299  23.157  11.950
99868W        W72194  11.722   2.445  13.264
99869W        W72195  23.650  13.563   0.337
99870W        W72196  33.980  23.358   0.421
99871W        W72197  17.095  42.793   0.251
99872W        W72198  10.673   3.940   2.741
99873W        W72199  35.392  21.797  10.756
99874W        W72200  32.922  11.994   4.210
99875W        W72201   3.669  37.505  11.655
99876W        W72202  44.001  13.239   2.613
99877W        W72203  27.387  41.078  11.945
99878W        W72204  42.006  10.808  13.845
99879W        W72205  14.852  29.588   3.208
99880W        W72206  12.579  16.403  13.001
99881W        W72207  35.512  19.186   3.706
99882W        W72208  20.245   7.160   2.935
99883W        W72209   4.233  28.747   0.305
99884W        W72210  26.746  20.675  11.557
99885W        W72211  21.500   9.207   2.806
99886W        W72212  21.755   2.475  13.849
99887W        W72213   3.602  38.071   0.177
99888W        W72214  41.719  25.614   3.752
99889W        W72215  16.694   2.695   3.332
99890W        W72216  37.105  12.818   4.130
99891W        W72217   0.960  27.578   4.605
99892W        W72218  21.675  34.558   2.314
99893W        W72219  10.798  36.395   0.027
99894W        W72220  34.779  15.768   1.931
99895W        W72221  38.803  11.351   1.033
99896W        W72222  39.363  42.298   2.313
99897W        W72223  13.405  22.501  11.086
99898W        W72224  31.909  17.509   2.839
99899W        W72225   3.921  34.391   1.359
99900W        W72226  13.601  23.881   0.010
99901W        W72227  21.314  28.501  11.358
99902W        W72228  24.880  14.949   0.545
99903W        W72229  20.792  23.120  11.954
99904W        W72230  44.762  16.078   2.795
99905W        W72231  18.048  35.627  14.421
99906W        W72232  10.090  30.248  12.071
99907W        W72233  29.645   6.308   0.297
99908W        W72234  43.054  24.087  11.206
99909W        W72235  24.053  13.717   1.290
99910W        W72236   6.805  39.050  11.618
99911W        W72237  26.500  34.808  14.431
99912W        W72238   1.723  21.980  14.446
99913W        W72239  17.184   0.507   1.872
99914W        W72240  39.512  13.302  12.793
99915W        W72241  44.898  43.349  13.782
99916W        W72242   2.904  37.396  13.967
99917W        W72243  39.059  39.008  10.453
99918W        W72244  10.452  22.242  13.011
99919W        W72245   3.287   2.310   0.279
99920W        W72246  17.834  31.194  11.100
99921W        W72247   2.378  16.332  10.576
99922W        W72248  21.991   6.842  13.548
99923W        W72249  43.227  29.422  14.069
99924W        W72250   6.413  21.098   1.857
99925W        W72251  27.586  42.058  13.299
99926W        W72252  26.253  26.339  11.091
99927W        W72253  26.571   9.243  13.883
99928W        W72254  34.012  17.988   0.518
99929W        W72255   5.730  21.606   3.770
99930W        W72256  41.436  35.965   2.364
99931W        W72257  20.266  25.692  10.311
99932W        W72258  24.857  28.491   2.828
99933W        W72259  39.525  10.863  10.912
99934W        W72260  18.186  32.414  12.990
99935W        W72261  25.494   0.115   0.092
99936W        W72262  42.834  42.486   0.012
99937W        W72263  17.886  22.036  14.584
99938W        W72264  36.517  26.202  11.881
99939W        W72265  39.065  33.438   2.122
99940W        W72266   9.369  21.275  10.859
99941W        W72267  44.986  29.396   1.667
99942W        W72268  17.875  38.039  14.406
99943W        W72269   5.301  16.392   2.679
99944W        W72270   7.893  35.569  12.020
99945W        W72271  16.644   4.150   2.843
99946W        W72272  36.063  10.646   5.063
99947W        W72273  16.360  36.972  10.515
99948W        W72274   3.986  27.361   1.401
99949W        W72275  13.610   3.608  14.817
99950W        W72276  10.941  42.540   1.085
99951W        W72277  39.471  17.311  11.354
99952W        W72278  21.307  36.592   3.199
99953W        W72279  27.467   4.401   2.576
99954W        W72280  32.670   7.327  12.530
99955W        W72281  44.027  43.329   0.353
99956W        W72282  43.368  23.647   4.766
99957W        W72283  33.385   4.247   0.456
99958W        W72284  22.500  31.446   0.032
99959W        W72285  16.109   5.867  11.892
99960W        W72286  35.601  38.550   3.613
99961W        W72287  29.591   9.698  10.926
99962W        W72288  25.079  29.186   2.402
99963W        W72289  28.225  38.125   0.513
99964W        W72290  14.108  43.408   3.189
99965W        W72291  30.706  41.950  13.998
99966W        W72292   8.378  38.489   0.916
99967W        W72293  25.097  27.453   1.276
99968W        W72294  37.886  41.261   5.069
99969W        W72295  31.166  10.022  11.125
99970W        W72296  24.698  32.707   0.967
99971W        W72297  35.088   7.690   0.233
99972W        W72298  43.746  37.011  11.968
99973W        W72299   0.378  13.330   1.039
99974W        W72300  29.010  18.088  13.669
99975W        W72301  33.044  18.963  11.656
99976W        W72302  11.926  28.721  12.414
99977W        W72303   5.658  12.130   4.731
99978W        W72304  10.862  24.032  10.620
99979W        W72305  19.110  25.636   1.638
99980W        W72306  19.169  20.241   4.155
99981W        W72307  24.048  33.378  11.509
99982W        W72308  26.161  40.464   3.202
99983W        W72309   4.091   1.912  14.020
99984W        W72310  44.746  16.777  13.846
99985W        W72311  40.016  42.363  10.568
99986W        W72312  16.133   6.632   2.171
99987W        W72313  29.748  44.443  10.222
99988W        W72314  28.090  35.339   2.959
99989W        W72315  19.598  19.243   4.748
99990W        W72316  41.512   7.205   3.572
99991W        W72317  33.924  11.793  12.006
99992W        W72318  13.265   3.802   2.149
99993W        W72319  43.199  29.493  14.599
99994W        W72320  19.188  20.667  12.688
99995W        W72321  32.191  20.209   0.815
99996W        W72322   7.839   9.947   0.371
99997W        W72323   3.049  32.060   4.282
99998W        W72324  14.702  10.419   0.289
99999W        W72325  24.193  36.587  13.546
    0W        W72326  12.852  25.173   1.570
    1W        W72327  40.432  36.816   1.574
    2W        W72328   9.694   3.980   2.910
    3W        W72329  43.313  37.389   2.439
    4W        W72330  38.093  22.967   1.512
    5W        W72331  40.884  42.355  13.796
    6W        W72332   0.935   1.824   2.687
    7W        W72333  21.568   5.423  14.109
    8W        W72334  16.630  29.536  14.313
    9W        W72335  19.710  26.102   5.199
   10W        W72336  43.759  20.928   3.808
   11W        W72337  13.831  38.227  11.713
   12W        W72338  33.373  19.826  10.305
   13W        W72339  10.923  44.025  13.459
   14W        W72340  17.157   9.674  14.973
   15W        W72341  13.577  20.570   2.697
   16W        W72342   7.225  44.664   4.642
   17W        W72343  29.591  35.181  14.793
   18W        W72344  23.628  34.102   4.289
   19W        W72345  15.352  11.146  12.425
   20W        W72346   2.330  35.836  13.520
   21W        W72347  42.599   1.262   4.210
   22W        W72348  23.753  11.124  14.023
   23W        W72349  19.588   8.853   1.005
   24W        W72350  44.674   3.924   4.321
   25W        W72351  24.082  40.033   4.744
   26W        W72352   4.248  16.370   0.009
   27W        W72353  11.138  34.346  13.596
   28W        W72354  29.468   6.478  10.668
   29W        W72355  21.468  15.219  14.025
   30W        W72356  32.071  34.906  12.096
   31W        W72357   8.336  28.960  12.968
   32W        W72358   4.713  28.929  10.601
   33W        W72359  38.799  41.045  13.451
   34W        W72360  10.079  30.560  12.481
   35W        W72361   0.075  19.227   2.359
   36W        W72362  31.446  25.811   4.214
   37W        W72363  41.785   4.610   2.402
   38W        W72364  19.698  17.612   2.332
   39W        W72365   3.746   9.729  14.794
   40W        W72366   2.472   2.703   4.703
   41W        W72367  42.363  42.182   1.307
   42W        W72368   9.103  37.924  10.667
   43W        W72369  36.640   6.599   1.892
   44W        W72370  34.558  32.855  11.249
   45W        W72371   3.847   6.751  12.130
   46W        W72372  27.447  13.296   0.450
   47W        W72373  42.282  18.073   2.696
   48W        W72374  11.376  30.033  12.378
   49W        W72375   7.127  43.874   1.956
   50W        W72376  25.843   6.733   4.872
   51W        W72377  25.686  13.722   4.233
   52W        W72378  41.350  40.757  14.676
   53W        W72379  24.303  36.973  11.546
   54W        W72380  33.333  20.738   1.437
   55W        W72381   1.009  34.637   4.004
   56W        W72382  15.152  23.773  14.446
   57W        W72383  10.389  18.214   4.533
   58W        W72384  27.556   9.745  11.213
   59W        W72385  22.174  32.899   0.543
   60W        W72386  41.937  20.640   3.194
   61W        W72387   2.019   6.658   2.709
   62W        W72388  32.118  34.145  11.381
   63W        W72389  23.206  24.556   3.951
   64W        W72390  17.102  36.472  14.546
   65W        W72391  19.235  18.921   3.572
   66W        W72392  43.793  15.766   2.781
   67W        W72393  10.915   1.837  11.173
   68W        W72394  38.167  21.597   1.729
   69W        W72395  29.818  20.835  11.125
   70W        W72396  17.114  20.787  10.528
   71W        W72397  36.613  12.499   5.223
   72W        W72398  44.804   0.825  10.867
   73W        W72399  40.059   6.954   3.677
   74W        W72400  21.136  19.635   3.285
   75W        W72401   9.106  13.642   2.167
   76W        W72402  26.040  10.343   1.338
   77W        W72403  12.069  33.870   1.782
   78W        W72404  10.802   2.762  13.056
   79W        W72405  16.585  34.825  10.700
   80W        W72406   9.645  42.702  14.928
   81W        W72407   5.376  36.696   0.973
   82W        W72408  33.359  31.885   1.306
   83W        W72409   1.508  16.659  11.186
   84W        W72410   1.386   5.193   0.279
   85W        W72411  35.154  37.114   4.221
   86W        W72412  42.360  31.934   0.794
   87W        W72413  32.090  32.868   0.328
   88W        W72414  21.106   4.177  12.436
   89W        W72415  12.075   6.473  10.754
   90W        W72416   5.348  37.926   0.471
   91W        W72417  20.642  13.618  11.347
   92W        W72418  37.770   1.369   4.175
   93W        W72419  43.902  37.827   3.080
   94W        W72420   8.386  33.078  10.653
   95W        W72421  29.360  44.301  12.941
   96W        W72422  28.086  38.835   4.171
   97W        W72423   3.174  14.833   2.951
   98W        W72424  14.296  36.844  10.858
   99W        W72425  42.500  23.476   0.856
  100W        W72426   5.528  25.235   4.660
  101W        W72427  18.131  21.273   2.311
  102W        W72428  26.578  40.685  14.021
  103W        W72429   5.541  24.052   0.408
  104W        W72430  11.726  33.078  11.112
  105W        W72431  35.949  18.297  14.384
  106W        W72432  20.111  14.855   0.306
  107W        W72433  40.333  14.212   5.081
  108W        W72434   4.651  18.296  11.535
  109W        W72435  42.051  43.457   4.539
  110W        W72436  17.079   8.807   0.859
  111W        W72437   0.219   2.863   3.772
  112W        W72438  27.972  24.592  12.917
  113W        W72439  24.839  18.852  12.827
  114W        W72440  11.456  20.168  11.892
  115W        W72441  30.655  36.786  12.529
  116W        W72442  32.422  24.167  11.109
  117W        W72443  24.808  32.453  12.983
  118W        W72444  29.161  20.281  12.493
  119W        W72445  22.567  30.010  13.281
  120W        W72446  41.351  19.213   1.326
  121W        W72447  18.203   9.916   2.737
  122W        W72448  39.856  19.191   2.210
  123W        W72449   9.273  27.031  10.566
  124W        W72450  21.479  41.072   3.812
  125W        W72451  32.483  18.177  14.056
  126W        W72452  13.342  33.979  14.944
  127W        W72453  35.641  19.013  14.800
  128W        W72454  17.005  13.035  14.856
  129W        W72455  37.625  24.912  10.415
  130W        W72456  29.052  44.746   4.241
  131W        W72457  43.023   7.909   3.122
  132W        W72458  16.215   4.035  14.857
  133W        W72459  13.353   0.171  11.596
  134W        W72460   4.783  23.559   1.182
  135W        W72461  22.106  44.380   0.900
  136W        W72462  31.599   4.364   1.803
  137W        W72463  10.833  30.232  10.529
  138W        W72464  36.910   0.048   1.245
  139W        W72465  32.807   4.530  14.884
  140W        W72466   5.627  43.127  13.893
  141W        W72467   4.232  41.027   3.900
  142W        W72468   7.124  22.506   1.184
  143W        W72469  35.666  32.959   5.108
  144W        W72470  13.665   1.308   3.745
  145W        W72471  41.518  31.598  11.116
  146W        W72472  28.397   5.352   2.598
  147W        W72473  21.087  12.584  14.554
  148W        W72474  18.768   4.830   0.853
  149W        W72475  19.114  27.194   3.575
  150W        W72476  27.709  33.607   4.721
  151W        W72477  29.484  31.010  13.669
  152W        W72478  41.468  29.146  12.292
  153W        W72479   7.681  32.518  11.496
  154W        W72480   4.737   3.469   0.284
  155W        W72481   2.361  11.383   0.365
  156W        W72482  33.031  10.154   1.406
  157W        W72483  18.285  28.772   1.139
  158W        W72484  20.565   1.728  13.141
  159W        W72485  17.222  27.235   1.302
  160W        W72486  12.570  11.719  10.807
  161W        W72487  16.270  20.840  12.425
  162W        W72488  26.435  11.767   1.427
  163W        W72489   6.954  22.829   2.795
  164W        W72490  39.366   7.935   0.845
  165W        W72491   3.102  29.476   5.051
  166W        W72492   1.799  14.589  13.163
  167W        W72493  44.192   3.718  13.001
  168W        W72494  29.066  37.895  12.934
  169W        W72495  35.522  24.245   2.934
  170W        W72496   7.269  23.366  12.823
  171W        W72497  13.824  26.031   2.524
  172W        W72498  39.374  12.378   4.561
  173W        W72499  38.037  24.539   1.688
  174W        W72500  31.086   9.841  11.636
  175W        W72501  13.947  14.277   3.826
  176W        W72502  36.430  43.301  13.429
  177W        W72503  23.951  12.254   4.642
  178W        W72504  43.560   6.737  10.953
  179W        W72505   2.773   2.273   0.374
  180W        W72506  16.122  35.370  13.892
  181W        W72507  24.938   3.707  12.515
  182W        W72508  34.799  35.562  11.996
  183W        W72509   0.931   7.749  14.387
  184W        W72510   6.658  25.134  10.748
  185W        W72511  19.682  11.123   4.188
  186W        W72512  12.850  27.878   5.138
  187W        W72513  39.147   9.996  11.216
  188W        W72514   6.163  25.654  14.949
  189W        W72515  25.493  40.095  10.186
  190W        W72516  13.169  16.170   0.355
  191W        W72517  29.632  31.646  11.457
  192W        W72518  23.063  20.509   0.724
  193W        W72519   9.354  33.111  12.043
  194W        W72520  28.784  31.114  14.941
  195W        W72521  27.944  27.221   0.475
  196W        W72522  33.343   1.307  13.526
  197W        W72523  18.997  43.863  12.128
  198W        W72524  38.484  20.403   3.463
  199W        W72525  40.952  19.028   2.285
  200W        W72526  15.827   7.750  14.257
  201W        W72527  23.150  24.673   3.465
  202W        W72528   2.951   1.762   4.608
  203W        W72529  14.146  16.373   2.829
  204W        W72530  17.981  14.164   2.492
  205W        W72531  35.593   1.516   2.282
  206W        W72532  18.810  10.168  12.383
  207W        W72533  17.582  40.498   2.696
  208W        W72534  26.229  21.362   1.004
  209W        W72535   8.328  23.194   1.680
  210W        W72536   3.691  14.296   2.469
  211W        W72537  41.452  31.053   0.354
  212W        W72538   8.658   1.659  10.163
  213W        W72539  31.375  11.226  13.548
  214W        W72540  30.590   1.796   0.329
  215W        W72541   8.275  34.890   2.376
  216W        W72542  19.878  12.847   0.358
  217W        W72543  29.431  25.376   1.690
  218W        W72544  38.043  19.241   1.743
  219W        W72545  12.354  25.954   0.479
  220W        W72546   4.261   1.167   4.606
  221W        W72547  28.956   9.444  11.871
  222W        W72548  23.644  15.211   1.715
  223W        W72549  42.506  35.399   3.216
  224W        W72550  28.775  11.891  13.149
  225W        W72551  13.309  24.217  12.083
  226W        W72552  13.201  37.515   5.169
  227W        W72553  31.821  42.098   4.190
  228W        W72554  14.087   9.850  12.825
  229W        W72555  31.122   3.353   3.084
  230W        W72556  42.936   2.409   1.722
  231W        W72557  13.968  21.142   4.584
  232W        W72558  42.785  31.798   3.323
  233W        W72559  19.539   2.897  14.472
  234W        W72560  23.683  13.628   2.435
  235W        W72561  26.961  30.185   4.809
  236W        W72562  41.102  25.248   0.729
  237W        W72563  43.353  22.466   0.401
  238W        W72564  15.738  25.762   1.709
  239W        W72565  10.300  11.319  12.881
  240W        W72566  13.799   2.095  11.547
  241W        W72567  41.989   9.916  12.085
  242W        W72568  20.538  23.951   2.401
  243W        W72569   2.618  13.295   0.207
  244W        W72570  17.113  23.009  12.465
  245W        W72571  20.112  36.845  12.633
  246W        W72572  43.027  33.944   4.665
  247W        W72573   5.985  35.033   2.357
  248W        W72574  36.590   0.870   0.935
  249W        W72575  41.728  24.130  12.866
  250W        W72576  15.830  35.187  11.139
  251W        W72577   0.026  22.066   1.995
  252W        W72578  17.709  38.472   0.843
  253W        W72579  12.281  31.578  13.551
  254W        W72580  38.116   7.807   1.273
  255W        W72581  26.018  40.082   1.770
  256W        W72582  21.012  21.709   2.774
  257W        W72583  17.541  17.294   2.191
  258W        W72584  36.901  17.559   2.233
  259W        W72585  34.570  30.860  13.479
  260W        W72586  44.002  32.147   1.400
  261W        W72587  39.924  28.894   0.749
  262W        W72588  44.545  13.785  13.524
  263W        W72589   2.539  24.211   0.492
  264W        W72590  28.001  19.861  12.055
  265W        W72591  17.214  38.859  13.568
  266W        W72592  23.673  16.263   3.316
  267W        W72593  19.179  23.206  14.755
  268W        W72594  28.538  21.169   2.931
  269W        W72595   2.892  33.557   3.302
  270W        W72596  44.255  40.901   3.690
  271W        W72597  20.176  34.954   3.935
  272W        W72598  44.984  36.461   2.367
  273W        W72599  12.360  40.521   0.475
  274W        W72600  24.595  27.795   3.421
  275W        W72601   8.716  18.137  13.095
  276W        W72602  14.837  16.176   3.230
  277W        W72603   3.774  17.268  11.975
  278W        W72604  33.085  14.248   3.620
  279W        W72605   7.076  40.183  11.062
  280W        W72606  23.705  20.128  12.858
  281W        W72607  11.699  30.886   0.293
  282W        W72608   8.329   4.930   3.295
  283W        W72609   8.676  33.956   0.725
  284W        W72610  38.658   9.807  13.095
  285W        W72611  12.679  12.397  13.825
  286W        W72612   2.336  41.618   4.169
  287W        W72613   9.642  37.295  13.690
  288W        W72614  28.498  42.497  14.421
  289W        W72615  43.907  29.636  11.008
  290W        W72616  11.740   4.290  14.844
  291W        W72617   4.287  43.705  14.933
  292W        W72618  41.777  21.102   2.788
  293W        W72619  27.599  32.798  12.896
  294W        W72620  26.002  23.956   2.603
  295W        W72621  21.570  22.167  13.604
  296W        W72622  43.764  41.874   2.644
  297W        W72623  33.456  29.387   0.278
  298W        W72624   8.398   8.120   2.709
  299W        W72625  20.103   3.878  10.519
  300W        W72626  26.161  11.308  10.842
  301W        W72627  29.101  40.698   0.634
  302W        W72628  29.657  33.886  11.650
  303W        W72629  27.568  38.421   1.965
  304W        W72630  34.549   5.957   0.385
  305W        W72631  25.227  44.989   2.164
  306W        W72632   5.418  38.800   3.729
  307W        W72633  16.763  28.864   2.841
  308W        W72634  16.991  41.541  10.776
  309W        W72635  10.339  24.485   4.066
  310W        W72636  23.621   4.744   0.432
  311W        W72637  18.180  39.054  12.614
  312W        W72638  29.080  29.590  12.898
  313W        W72639  13.111  20.045   1.253
  314W        W72640  10.890  19.062  10.611
  315W        W72641  34.869  13.032   3.325
  316W        W72642  23.037  28.084   0.070
  317W        W72643  13.149  10.923   1.300
  318W        W72644   3.817  36.915  12.943
  319W        W72645  39.033   3.338  13.909
  320W        W72646  15.383   7.275  12.910
  321W        W72647   8.768  20.198   3.302
  322W        W72648   4.896  25.913  13.963
  323W        W72649   8.180  23.678   1.345
  324W        W72650  27.151  41.020  11.500
  325W        W72651  13.983   4.726   1.484
  326W        W72652  10.420  38.006  10.249
  327W        W72653  37.942  19.503  11.069
  328W        W72654  11.398  34.314  14.521
  329W        W72655  35.501  34.929   1.202
  330W        W72656   6.932  23.509   3.292
  331W        W72657  14.605  36.531  14.409
  332W        W72658  11.410  44.501   3.489
  333W        W72659  41.291  20.672  14.388
  334W        W72660  13.031   6.017   2.766
  335W        W72661  41.712  15.772  11.445
  336W        W72662  40.550  38.117   0.293
  337W        W72663  29.409  35.913   0.444
  338W        W72664  10.333  39.734   3.159
  339W        W72665   9.634  11.479  11.184
  340W        W72666   6.302  40.271  10.520
  341W        W72667  31.290   5.404  14.505
  342W        W72668  34.969  16.990  13.847
  343W        W72669   6.930  40.363   1.453
  344W        W72670   3.206  31.614   2.164
  345W        W72671  39.283  27.682   0.467
  346W        W72672  35.428  11.794   0.014
  347W        W72673   2.842  15.080  14.273
  348W        W72674  13.105  17.118   0.160
  349W        W72675  41.942  20.428  11.039
  350W        W72676  30.043  24.845  13.924
  351W        W72677  15.396  36.501  11.290
  352W        W72678   3.202  35.336  10.691
  353W        W72679   5.753  33.016   1.768
  354W        W72680   1.257   3.450  13.923
  355W        W72681   3.033  36.390   2.702
  356W        W72682  20.504  39.518   4.817
  357W        W72683  27.665  21.070  14.865
  358W        W72684  31.056  16.933  10.296
  359W        W72685   5.908  22.983  14.930
  360W        W72686  33.351  23.253   0.004
  361W        W72687   6.321  36.859  10.688
  362W        W72688  29.917  41.492   2.053
  363W        W72689   0.831  14.131  13.950
  364W        W72690  41.291  34.958  10.929
  365W        W72691  32.797  17.526  11.504
  366W        W72692  22.014  24.097   1.664
  367W        W72693  22.279  25.657  13.440
  368W        W72694  32.049  12.704   4.495
  369W        W72695   3.016  11.197   0.977
  370W        W72696  44.191  37.837   2.145
  371W        W72697  14.659   1.541  11.577
  372W        W72698  28.704  26.595  14.493
  373W        W72699   5.268  15.186  14.544
  374W        W72700  40.816  36.237  12.591
  375W        W72701  35.210  23.247  12.072
  376W        W72702  15.097  25.496  12.296
  377W        W72703  11.235  43.361   4.578
  378W        W72704  34.364  31.610  12.451
  379W        W72705  20.082   5.133   3.076
  380W        W72706  12.147  13.427   2.420
  381W        W72707  10.216  23.668   3.070
  382W        W72708  39.552   3.488  14.743
  383W        W72709  32.077  30.263  14.952
  384W        W72710  20.493  15.050  12.091
  385W        W72711  20.779  41.771   2.778
  386W        W72712  40.966  29.941   2.709
  387W        W72713  39.341  16.629   1.914
  388W        W72714   5.905  38.953   3.667
  389W        W72715  38.767   0.650  11.154
  390W        W72716  37.224  36.648  12.575
  391W        W72717  20.061  33.881  13.849
  392W        W72718  21.312   4.452   1.792
  393W        W72719  43.884  21.771  11.330
  394W        W72720  38.352  24.102   2.441
  395W        W72721  25.932  19.245   2.802
  396W        W72722  38.263  13.569   9.775
  397W        W72723  28.874  35.434  12.589
  398W        W72724   0.665  14.455  11.461
  399W        W72725  13.154  17.619  14.981
  400W        W72726   2.041  33.354  10.207
  401W        W72727  37.460   3.157   0.337
  402W        W72728   0.497  32.132  12.488
  403W        W72729   3.267  34.165  11.120
  404W        W72730  18.093  23.679  13.494
  405W        W72731  19.526  31.913   1.130
  406W        W72732  42.794  33.067  13.502
  407W        W72733   8.870  10.672   1.516
  408W        W72734  34.922  42.789   2.355
  409W        W72735  19.074  32.577  14.842
  410W        W72736  40.818  43.683  10.801
  411W        W72737  41.271  30.908   3.738
  412W        W72738   6.878   2.263   3.628
  413W        W72739  20.972  41.316  11.897
  414W        W72740  44.423   3.686  14.892
  415W        W72741  30.091  28.111  11.197
  416W        W72742  23.168   6.247   3.974
  417W        W72743   1.543   4.513   4.125
  418W        W72744  40.288  38.853   4.714
  419W        W72745  33.077  26.679  10.640
  420W        W72746  10.254  28.995   3.707
  421W        W72747  35.338  41.298   3.287
  422W        W72748  38.065  40.302   1.298
  423W        W72749   8.931   0.296   3.322
  424W        W72750  35.077  19.516  11.970
  425W        W72751  10.740  24.759  14.959
  426W        W72752  12.170  22.614  11.796
  427W        W72753   4.515   6.951   0.817
  428W        W72754  20.189  40.173  14.831
  429W        W72755  31.127  28.858   1.956
  430W        W72756  27.635  30.176  12.086
  431W        W72757  28.700  33.897  10.767
  432W        W72758  18.214  26.599  10.820
  433W        W72759  38.398  11.606  12.567
  434W        W72760  32.027   2.825   4.491
  435W        W72761   9.401  29.428   0.874
  436W        W72762  32.137  32.127  14.487
  437W        W72763  20.137   1.193  11.968
  438W        W72764  19.101  32.594   1.821
  439W        W72765  31.842  19.656  14.544
  440W        W72766   4.077  32.892   4.642
  441W        W72767   0.344   2.011  11.162
  442W        W72768  40.876   4.359  13.926
  443W        W72769  39.816   8.222  12.641
  444W        W72770  16.675  20.947   1.393
  445W        W72771  17.743  17.460  11.002
  446W        W72772  25.022  11.417  12.876
  447W        W72773  18.996   8.156   4.502
  448W        W72774  25.136  17.695  12.038
  449W        W72775  21.097  25.941   2.831
  450W        W72776   2.512  27.599   1.337
  451W        W72777   7.328  26.994  14.445
  452W        W72778  14.339  19.455  14.592
  453W        W72779  20.225  29.069  13.947
  454W        W72780  39.011   6.836  13.940
  455W        W72781  29.265  18.822  14.380
  456W        W72782  44.413  41.481  13.994
  457W        W72783  23.328  15.297  13.580
  458W        W72784   0.692  40.801  14.066
  459W        W72785   9.515   9.735   4.203
  460W        W72786  15.554   0.475   0.696
  461W        W72787   9.799  20.437  14.065
  462W        W72788  11.319  16.790   4.255
  463W        W72789  38.454  11.416  13.912
  464W        W72790  26.702  11.640   5.185
  465W        W72791  22.678  20.714  12.930
  466W        W72792  29.164   0.765  11.423
  467W        W72793  34.395   7.090   4.215
  468W        W72794  36.340  12.914  11.989
  469W        W72795  41.067  28.686  13.912
  470W        W72796   6.198  31.968  14.942
  471W        W72797  30.645  30.903   1.175
  472W        W72798  34.248  14.024   3.137
  473W        W72799  30.433  12.068   4.474
  474W        W72800  17.905  22.155  11.588
  475W        W72801   5.924  19.248  12.592
  476W        W72802   9.087  43.744  11.986
  477W        W72803  31.307  20.166   3.702
  478W        W72804  15.193  44.041   1.276
  479W        W72805  11.712  34.637   3.368
  480W        W72806  30.360  21.442  12.954
  481W        W72807   9.121  29.412   1.338
  482W        W72808  32.033  29.924  14.252
  483W        W72809   6.655  11.896   1.977
  484W        W72810  32.500  40.251  10.623
  485W        W72811  32.723   7.742   2.025
  486W        W72812  27.411  14.747  10.689
  487W        W72813  11.357  24.189  10.516
  488W        W72814  39.947  13.578  11.549
  489W        W72815  27.985  40.346   9.992
  490W        W72816  12.864  19.021   3.004
  491W        W72817  11.313   9.685   0.332
  492W        W72818  38.178  17.787  14.495
  493W        W72819  10.662  11.170   3.130
  494W        W72820  35.403   3.276   2.267
  495W        W72821   8.361  20.972   0.538
  496W        W72822  40.794   5.815  10.771
  497W        W72823  35.679  30.159   0.801
  498W        W72824  19.656  28.099   4.525
  499W        W72825  25.385  42.758  14.802
  500W        W72826  20.472  44.902  11.139
  501W        W72827   6.164   5.223   2.300
  502W        W72828  20.390  30.902  10.895
  503W        W72829  11.756   7.840  11.449
  504W        W72830  32.695   5.443   3.699
  505W        W72831  15.650  24.464   3.829
  506W        W72832  26.280   8.931  12.625
  507W        W72833  44.012   3.340  10.628
  508W        W72834   4.318   5.035  12.767
  509W        W72835  40.135  34.520   4.503
  510W        W72836   3.812  38.993   4.744
  511W        W72837  20.573  10.430   4.923
  512W        W72838  25.747   4.747   3.797
  513W        W72839  29.456  22.009   0.347
  514W        W72840  12.240  22.539  13.992
  515W        W72841  34.547   1.475  13.146
  516W        W72842  22.964  12.051  11.173
  517W        W72843  39.726   1.772  14.796
  518W        W72844  37.671  32.099  12.482
  519W        W72845   0.303  35.540  14.460
  520W        W72846  39.585  10.367   1.915
  521W        W72847  12.690  17.768  11.157
  522W        W72848   2.887   2.481   2.119
  523W        W72849  33.991  43.933   4.620
  524W        W72850  13.551  44.275  11.189
  525W        W72851  41.870  23.426   2.907
  526W        W72852  10.394  18.331   2.638
  527W        W72853  11.332  29.187  11.976
  528W        W72854  43.889  35.884   0.952
  529W        W72855   8.738  10.325  12.850
  530W        W72856   2.632   0.396   0.341
  531W        W72857  19.681  32.133   0.204
  532W        W72858   6.202  29.630  11.292
  533W        W72859   3.883  11.897  13.413
  534W        W72860  34.488  18.154  12.548
  535W        W72861  19.099  44.738   1.832
  536W        W72862  43.024  17.742  10.712
  537W        W72863  10.252  23.995  11.392
  538W        W72864  40.277  12.208  13.976
  539W        W72865  27.521  39.399   3.550
  540W        W72866  32.899  31.925   3.078
  541W        W72867  26.963  27.242   2.853
  542W        W72868   9.626  18.123  11.296
  543W        W72869  38.481  40.424   4.730
  544W        W72870  17.247  34.137  13.405
  545W        W72871   0.038  37.283   4.223
  546W        W72872  26.656   9.165  10.242
  547W        W72873  25.127  29.145   1.886
  548W        W72874  29.386  11.207  10.958
  549W        W72875  33.568   6.319  11.488
  550W        W72876  44.122  20.639   1.668
  551W        W72877   2.675  24.843   3.586
  552W        W72878  29.592  17.678  12.778
  553W        W72879  20.793   7.933  11.204
  554W        W72880   4.774  29.046   2.360
  555W        W72881  15.222  16.738  10.403
  556W        W72882  12.021  18.518   3.450
  557W        W72883  13.186   0.821   4.195
  558W        W72884   8.812  34.636  10.307
  559W        W72885   9.944  16.193  14.497
  560W        W72886  18.270   7.282   4.242
  561W        W72887  34.127  28.493   4.108
  562W        W72888  11.235   6.967   1.161
  563W        W72889  25.645  22.474  14.849
  564W        W72890  25.062  35.242   0.163
  565W        W72891  27.744  32.636   1.423
  566W        W72892   6.024  11.190   2.364
  567W        W72893  44.035  31.555  11.529
  568W        W72894  43.859  39.590  13.479
  569W        W72895  26.216  23.076   4.123
  570W        W72896  34.884  36.343  12.408
  571W        W72897  26.578  24.381  12.737
  572W        W72898  23.512  38.876  11.624
  573W        W72899  34.711  24.901  11.855
  574W        W72900   1.246  21.604  12.129
  575W        W72901  18.328   7.967   3.680
  576W        W72902  24.142  41.333   4.232
  577W        W72903  24.557  17.013   1.400
  578W        W72904  19.102  25.525  13.824
  579W        W72905  15.137  41.867  11.520
  580W        W72906  44.467  17.563   4.150
  581W        W72907  22.071  14.637  14.801
  582W        W72908   2.033  27.112  12.021
  583W        W72909   8.136  33.530  10.753
  584W        W72910  32.877  31.376   2.371
  585W        W72911  32.253  31.085  12.577
  586W        W72912  15.954   0.787  14.826
  587W        W72913  28.884   0.206   0.734
  588W        W72914  43.811   7.218   0.405
  589W        W72915  40.144  37.099  14.373
  590W        W72916  22.221   0.124   2.084
  591W        W72917   2.824   9.705  10.204
  592W        W72918  20.220   9.846  12.048
  593W        W72919  35.173  27.253  13.802
  594W        W72920  27.160   8.971  13.510
  595W        W72921  32.334   8.919   3.122
  596W        W72922   3.727  21.176  11.504
  597W        W72923   2.786  11.669  14.150
  598W        W72924   0.683  17.141   0.008
  599W        W72925  22.625  41.846  12.632
  600W        W72926  30.506  43.893  13.882
  601W        W72927  42.471  30.676   3.223
  602W        W72928  22.664  22.646   0.498
  603W        W72929  33.493  13.549   3.576
  604W        W72930  34.880  36.426  11.529
  605W        W72931  19.523  23.984   1.753
  606W        W72932   4.670  31.174  11.022
  607W        W72933  29.345   1.804   4.257
  608W        W72934  21.818   5.854   3.081
  609W        W72935  18.090  28.874  11.177
  610W        W72936   3.141   4.968  14.528
  611W        W72937  28.003  16.041   4.688
  612W        W72938  36.540  16.514   4.899
  613W        W72939  12.102   6.179  14.355
  614W        W72940  16.137  36.522  11.047
  615W        W72941  37.594  27.593  13.353
  616W        W72942  23.048   0.450  13.767
  617W        W72943  16.711   8.236   2.788
  618W        W72944  36.475  38.983  10.643
  619W        W72945  13.384  10.760  13.538
  620W        W72946  15.891   6.267   2.635
  621W        W72947   9.362   5.369   4.278
  622W        W72948  43.562   2.716  12.228
  623W        W72949  36.475  23.957   2.147
  624W        W72950  43.470  29.939  11.879
  625W        W72951   3.670  12.335  10.570
  626W        W72952   1.942   4.164  11.029
  627W        W72953   9.322   8.356   3.379
  628W        W72954   3.711   1.417   3.164
  629W        W72955   7.232  28.507   1.452
  630W        W72956  38.633  28.598   4.144
  631W        W72957  29.414  31.215   4.726
  632W        W72958  35.035  37.815   4.986
  633W        W72959  31.128  28.466  11.632
  634W        W72960  38.103   8.795  14.913
  635W        W72961  10.638  28.494  14.355
  636W        W72962  13.277  32.012  13.948
  637W        W72963  37.035  20.965  12.042
  638W        W72964  27.996  28.160   2.323
  639W        W72965   5.816  32.476  14.321
  640W        W72966  29.464  23.250   1.188
  641W        W72967  40.380   6.665  10.633
  642W        W72968   2.970   6.363  14.320
  643W        W72969  13.865  37.872   2.699
  644W        W72970   1.922  25.808   4.549
  645W        W72971  21.575   1.189   1.967
  646W        W72972  23.227  40.776   1.430
  647W        W72973  19.251   1.347  14.420
  648W        W72974  11.349   8.301  11.822
  649W        W72975  16.849  38.445   1.317
  650W        W72976  18.594   8.685  11.294
  651W        W72977  18.680  27.926   3.717
  652W        W72978  16.040  34.100  13.445
  653W        W72979  44.254  37.421  13.623
  654W        W72980   6.539  33.474  14.891
  655W        W72981  34.000  13.584  10.603
  656W        W72982  38.926   3.613   5.086
  657W        W72983  41.234   9.520   1.531
  658W        W72984   7.061  35.376   3.340
  659W        W72985  20.201   6.810   0.953
  660W        W72986  38.868  31.701   4.143
  661W        W72987  27.582   6.925  12.524
  662W        W72988  19.682   8.213  11.560
  663W        W72989  30.005  21.025  14.918
  664W        W72990  20.010  15.490   1.500
  665W        W72991  41.968  23.622   3.934
  666W        W72992  17.556   5.257  11.069
  667W        W72993  19.792   9.739   0.538
  668W        W72994  36.277  41.833  14.032
  669W        W72995  32.424  37.142   4.202
  670W        W72996  38.934  26.233   0.181
  671W        W72997  25.398  13.229  14.392
  672W        W72998   7.220  17.144  10.400
  673W        W72999  11.424   8.804  14.051
  674W        W73000  19.648  31.111  12.078
  675W        W73001  15.887  28.202  11.477
  676W        W73002  15.618   0.203  12.958
  677W        W73003  35.099  29.609   4.077
  678W        W73004  36.692  42.239   2.813
  679W        W73005   5.636  28.945  10.528
  680W        W73006   9.637  18.982   0.761
  681W        W73007   4.692  19.024  11.993
  682W        W73008  19.528   5.254   3.715
  683W        W73009   2.381  32.145  12.581
  684W        W73010  32.185   5.207   2.227
  685W        W73011  23.547  44.819   0.456
  686W        W73012  12.158  42.307   3.632
  687W        W73013  38.896  28.378  11.583
  688W        W73014  37.237  18.715   4.987
  689W        W73015  10.301  39.160  12.980
  690W        W73016  38.794  24.500   4.191
  691W        W73017  35.553  43.555   3.719
  692W        W73018  18.112  38.375   2.202
  693W        W73019  33.885  22.115  14.500
  694W        W73020  32.895  36.976   4.207
  695W        W73021   2.349  21.334   1.235
  696W        W73022  19.273  33.065  14.799
  697W        W73023   6.724  19.459  11.103
  698W        W73024   5.812  34.678  12.203
  699W        W73025  43.800  30.881   0.440
  700W        W73026  12.325  28.222   3.085
  701W        W73027  44.296  26.222   1.208
  702W        W73028  17.935  25.996  11.849
  703W        W73029  39.297  43.048   2.740
  704W        W73030   4.393  12.121   1.164
  705W        W73031  11.032  24.669  13.998
  706W        W73032   9.168  18.734   4.366
  707W        W73033   8.893  14.749   4.360
  708W        W73034   4.323   6.800  10.857
  709W        W73035  16.710  11.768   1.154
  710W        W73036  23.012  43.897  14.804
  711W        W73037  16.574  30.028  11.749
  712W        W73038  18.145  31.122  11.570
  713W        W73039  28.544  36.911  13.703
  714W        W73040  10.169  21.517  13.351
  715W        W73041  15.113  11.858   3.602
  716W        W73042   7.297   5.222  10.670
  717W        W73043  35.151  22.133   4.295
  718W        W73044  33.850  22.943  13.561
  719W        W73045   4.609  19.596   4.620
  720W        W73046  37.080  14.521   4.586
  721W        W73047  20.737   6.465   1.418
  722W        W73048   3.326  36.455   4.338
  723W        W73049  31.899  10.604  13.278
  724W        W73050  19.165   3.989   1.460
  725W        W73051   9.135  21.185   3.588
  726W        W73052  26.672  35.815   0.751
  727W        W73053  33.128   3.736  12.915
  728W        W73054   3.831  27.187  11.962
  729W        W73055   8.330  37.123   3.097
  730W        W73056  20.818   3.456  14.447
  731W        W73057  16.658  36.627  13.990
  732W        W73058  19.686  18.745   4.753
  733W        W73059  32.411  20.120   2.920
  734W        W73060   6.343   0.721   4.143
  735W        W73061  42.370  23.449   3.072
  736W        W73062   1.683  40.087   0.033
  737W        W73063  10.903  31.960  10.563
  738W        W73064  41.900  24.668   0.821
  739W        W73065   5.775  15.166  14.875
  740W        W73066  37.331  10.444  11.584
  741W        W73067  19.510  44.072  14.404
  742W        W73068  13.579   7.337  11.020
  743W        W73069  27.571  10.845   0.131
  744W        W73070  19.583  18.144  14.311
  745W        W73071  23.957  14.394   4.205
  746W        W73072  15.815  21.037   4.062
  747W        W73073  44.235   2.136  14.964
  748W        W73074  41.295  25.232  13.282
  749W        W73075   0.344  19.534  12.473
  750W        W73076  15.244  29.106   2.957
  751W        W73077  10.663  12.412  13.933
  752W        W73078  39.528  43.294  13.265
  753W        W73079  40.853  23.535   1.290
  754W        W73080   0.441  22.187   2.273
  755W        W73081  28.122  43.406  11.950
  756W        W73082  28.714  13.252   3.225
  757W        W73083  44.941  38.796  11.701
  758W        W73084   5.594   2.292   2.287
  759W        W73085  39.304  19.827  11.074
  760W        W73086  17.582  31.600  12.540
  761W        W73087  19.743  35.456  13.938
  762W        W73088   0.608   9.691   1.460
  763W        W73089  24.591  19.169  10.591
  764W        W73090  42.875   8.640  10.698
  765W        W73091   8.831  13.423   0.733
  766W        W73092  20.164   9.280   0.740
  767W        W73093  18.283  32.808  13.823
  768W        W73094  24.598  17.381  13.537
  769W        W73095   3.678  26.012  12.228
  770W        W73096  10.208   1.813   2.871
  771W        W73097   7.278  42.669  12.443
  772W        W73098  35.883  27.086  10.450
  773W        W73099   5.898  33.371   1.345
  774W        W73100  29.571  34.918   1.525
  775W        W73101   8.814  44.952   1.365
  776W        W73102  27.193  13.240  12.308
  777W        W73103  12.343  17.846   4.166
  778W        W73104  42.715  35.009   0.846
  779W        W73105  19.993   6.909  14.478
  780W        W73106   2.921  36.507   0.721
  781W        W73107  14.059  23.880  14.310
  782W        W73108  41.547  20.040   5.082
  783W        W73109  34.382   1.928  13.972
  784W        W73110  18.244   6.422   4.493
  785W        W73111  18.132  20.537   0.189
  786W        W73112   2.761  34.210  13.392
  787W        W73113   0.507  30.690  14.246
  788W        W73114  43.790  36.481  14.252
  789W        W73115   9.758  39.904  10.569
  790W        W73116  12.278   4.947  10.444
  791W        W73117  40.296  20.459   1.785
  792W        W73118  42.181  23.176  13.117
  793W        W73119  21.174  30.812   3.683
  794W        W73120  38.070  34.533   0.406
  795W        W73121   4.446  33.705   0.796
  796W        W73122   2.316  31.629  12.542
  797W        W73123   1.330  25.509  12.989
  798W        W73124  20.316  44.457  14.425
  799W        W73125  34.061  14.727   1.515
  800W        W73126  38.528  31.668  13.446
  801W        W73127  42.567  12.791  12.127
  802W        W73128  29.985  44.515  14.405
  803W        W73129  16.172   8.424  13.863
  804W        W73130  15.679   6.148  14.466
  805W        W73131  19.066  13.831  11.389
  806W        W73132  11.855  29.875  13.352
  807W        W73133  28.729  24.176   0.169
  808W        W73134  27.151  22.139  11.251
  809W        W73135  38.295  29.324   1.856
  810W        W73136  41.528  41.839  13.046
  811W        W73137  23.129  43.592   3.815
  812W        W73138  31.786  41.004   0.754
  813W        W73139  40.230  36.452  11.585
  814W        W73140  17.650   9.822   4.297
  815W        W73141  31.883  19.513  11.985
  816W        W73142  38.932  24.379  11.591
  817W        W73143  34.882   7.751   4.703
  818W        W73144  28.058  38.429   4.528
  819W        W73145   5.792   9.883  11.383
  820W        W73146   9.337  32.173   2.687
  821W        W73147  20.023  42.302   0.377
  822W        W73148  29.753   1.962  14.306
  823W        W73149   9.796   3.902  10.924
  824W        W73150  33.464  30.389   0.344
  825W        W73151   1.057  40.931  12.158
  826W        W73152  34.214  35.146   0.599
  827W        W73153  30.121   0.546  11.503
  828W        W73154  13.404  23.542   1.311
  829W        W73155  37.249   6.830   2.681
  830W        W73156  44.241  10.873   0.433
  831W        W73157  33.471  28.171   4.530
  832W        W73158  35.821  10.319   3.183
  833W        W73159  29.662   5.156  11.066
  834W        W73160   6.366  17.446   3.649
  835W        W73161  19.418  23.956  12.478
  836W        W73162  28.003  25.473  12.086
  837W        W73163  11.627  28.309  12.491
  838W        W73164   9.875  21.532  13.801
  839W        W73165   9.693   7.135  10.678
  840W        W73166  16.024  17.127   2.422
  841W        W73167   5.277  25.555  10.984
  842W        W73168  36.955   6.352  13.768
  843W        W73169  22.687  11.880   2.775
  844W        W73170  36.375  39.622  13.048
  845W        W73171   7.358  20.591   2.863
  846W        W73172  27.479  15.839   2.250
  847W        W73173  31.884   0.263  14.913
  848W        W73174  17.009  28.021   2.803
  849W        W73175   0.284  21.087  13.767
  850W        W73176  11.070  11.394  13.437
  851W        W73177  42.475  36.690  14.051
  852W        W73178   8.214   1.689   0.461
  853W        W73179   1.979  34.182   2.240
  854W        W73180   0.418   2.227  12.481
  855W        W73181  34.519  27.584   0.083
  856W        W73182   5.942  31.523   0.830
  857W        W73183  19.033  24.745   1.511
  858W        W73184  28.012  13.397  12.601
  859W        W73185  19.690  38.625   1.444
  860W        W73186   4.588  21.653  13.489
  861W        W73187   7.342  42.896   1.001
  862W        W73188  35.562  41.939  12.431
  863W        W73189  32.682  39.123   1.707
  864W        W73190   2.505  14.203   5.097
  865W        W73191  43.459  26.457   2.832
  866W        W73192  28.478  26.168  14.238
  867W        W73193   2.741  19.068   0.831
  868W        W73194  20.725  12.673   2.626
  869W        W73195  14.774  25.109  14.989
  870W        W73196   4.777  11.757   5.058
  871W        W73197  31.675  30.592  10.755
  872W        W73198  16.856  36.839   0.264
  873W        W73199  10.903  26.655  14.995
  874W        W73200   8.272   5.204   2.860
  875W        W73201  26.388  17.477  10.697
  876W        W73202   5.441   7.917   1.341
  877W        W73203   7.360  25.529  14.476
  878W        W73204  11.760  35.289  11.718
  879W        W73205  18.751   0.242   4.288
  880W        W73206  30.092  28.496  11.560
  881W        W73207  42.619  28.151   1.356
  882W        W73208  14.317  44.357  10.569
  883W        W73209  24.477  17.992  14.398
  884W        W73210  30.253  44.708   1.936
  885W        W73211  43.095   6.848  14.766
  886W        W73212  18.296  44.006  13.992
  887W        W73213  22.274   3.439   1.939
  888W        W73214   5.456  26.200   1.755
  889W        W73215  11.130  34.538  14.138
  890W        W73216  36.434  14.899  11.927
  891W        W73217  15.607   0.661  11.447
  892W        W73218  16.471  20.811  11.604
  893W        W73219  28.559  24.552   1.992
  894W        W73220  41.038   5.753   4.236
  895W        W73221  10.547  20.731  12.337
  896W        W73222  19.510  27.041  10.714
  897W        W73223  25.542   7.882  14.545
  898W        W73224  29.561  14.150   4.904
  899W        W73225  29.180   4.715   1.142
  900W        W73226  32.071  22.436  12.461
  901W        W73227  42.263  38.349  11.098
  902W        W73228   7.361  13.719  14.700
  903W        W73229   5.249  20.321  10.746
  904W        W73230  35.834  24.570  14.897
  905W        W73231  28.057  26.514   1.441
  906W        W73232  40.307  23.370  13.776
  907W        W73233   6.687  40.834   0.608
  908W        W73234  31.870   8.679   0.345
  909W        W73235  12.550  44.632  11.198
  910W        W73236  39.546  40.788  11.412
  911W        W73237  11.750   7.277   3.733
  912W        W73238  15.265  30.158  10.754
  913W        W73239  40.479  30.873  10.688
  914W        W73240  37.777  10.340  12.406
  915W        W73241   6.391  36.999  13.038
  916W        W73242  30.991  36.155  14.988
  917W        W73243  15.092  43.641  13.271
  918W        W73244  42.711  26.530   3.572
  919W        W73245  33.981  42.715   1.919
  920W        W73246  13.579   5.822   4.107
  921W        W73247   0.502  11.344   4.348
  922W        W73248  22.042  29.911   4.201
  923W        W73249  37.303  26.040   4.552
  924W        W73250   2.516  29.032   4.660
  925W        W73251  29.735  34.156  10.674
  926W        W73252  10.913  28.582   3.216
  927W        W73253  37.842  28.286  10.742
  928W        W73254  16.611  41.969  13.276
  929W        W73255  17.560  36.536   1.396
  930W        W73256  26.556  23.121  10.645
  931W        W73257   0.817  10.623   1.860
  932W        W73258  22.745  27.669   0.161
  933W        W73259  17.002  42.092  12.926
  934W        W73260  16.041  16.295  11.649
  935W        W73261  39.743  11.299  11.072
  936W        W73262  17.287  35.159   4.666
  937W        W73263  19.194  13.595   4.569
  938W        W73264   5.555  17.642  11.203
  939W        W73265   3.622  39.816  11.744
  940W        W73266  11.407  37.975  11.682
  941W        W73267  42.249  36.450  11.255
  942W        W73268  11.325  22.648  13.294
  943W        W73269  12.380  10.097   1.289
  944W        W73270  12.278   5.294   2.828
  945W        W73271  35.093   4.924   1.086
  946W        W73272   4.747  43.484   1.898
  947W        W73273  16.274  41.529   4.440
  948W        W73274  37.934  24.287   4.184
  949W        W73275  23.019  38.996   4.065
  950W        W73276  13.809  13.596  12.879
  951W        W73277  27.920  16.759  13.400
  952W        W73278  31.499   8.135   3.760
  953W        W73279  19.598   8.147  13.506
  954W        W73280  24.555  27.165   1.926
  955W        W73281   9.201  25.965   2.277
  956W        W73282  31.596  13.619   3.241
  957W        W73283  37.605   0.970  14.836
  958W        W73284  15.332  23.551   3.217
  959W        W73285   7.389  14.782   0.462
  960W        W73286  26.042  39.075  11.135
  961W        W73287  15.557  24.613  12.060
  962W        W73288   5.371  34.654   1.301
  963W        W73289  14.281  35.869  13.883
  964W        W73290  29.074  22.755  14.876
  965W        W73291   1.195   4.187  11.490
  966W        W73292  29.991  11.627  12.468
  967W        W73293  25.294   8.285   0.956
  968W        W73294  44.913  23.980  12.097
  969W        W73295   1.503   3.224  12.474
  970W        W73296  35.733  36.044   4.594
  971W        W73297  26.671  21.091   4.057
  972W        W73298  39.627  21.178   4.674
  973W        W73299  36.402  33.525   1.483
  974W        W73300  44.616  17.884   0.917
  975W        W73301  30.938  32.675  12.001
  976W        W73302  28.507  13.287  12.437
  977W        W73303  43.650   8.197   0.497
  978W        W73304  23.108  10.380   3.381
  979W        W73305  29.565  12.705  14.361
  980W        W73306  33.141  40.031  11.449
  981W        W73307  34.857  18.527   4.977
  982W        W73308  30.594   7.155  13.443
  983W        W73309   4.780  27.440  10.770
  984W        W73310  39.615  13.602   3.363
  985W        W73311  32.315  15.194  12.868
  986W        W73312  27.493   1.730  12.933
  987W        W73313  38.892  42.280  11.824
  988W        W73314  15.164   8.172   2.648
  989W        W73315  10.268  38.205  11.979
  990W        W73316  36.789  36.625  12.862
  991W        W73317  15.743  17.583   4.359
  992W        W73318   6.447  11.676  14.764
  993W        W73319  11.222  30.568   2.782
  994W        W73320  24.013   9.247   2.159
  995W        W73321  29.210   9.304  14.282
  996W        W73322  14.622   8.885   3.845
  997W        W73323  10.304   3.255  12.452
  998W        W73324  18.599  37.910   2.791
  999W        W73325  17.633  43.806   4.506
 1000W        W73326  20.787  31.524   3.600
 1001W        W73327  43.748  44.187  10.928
 1002W        W73328  16.185   2.383  13.384
 1003W        W73329  30.513   0.150   2.033
 1004W        W73330   7.819  40.786  13.017
 1005W        W73331  11.139  32.906   3.261
 1006W        W73332   7.257  10.813  14.449
 1007W        W73333  20.085  36.876   4.265
 1008W        W73334  37.922  36.403   2.356
 1009W        W73335  38.328  14.635   0.835
 1010W        W73336  20.257  24.175  13.216
 1011W        W73337  35.940  43.378  13.262
 1012W        W73338  35.808  11.664  13.469
 1013W        W73339  31.618  24.768  10.893
 1014W        W73340  40.536  44.764   0.469
 1015W        W73341   1.541  38.919   1.292
 1016W        W73342  33.979   4.613   4.495
 1017W        W73343  36.356  11.375   4.232
 1018W        W73344   5.207   1.441  11.868
 1019W        W73345   9.540  41.858   4.584
 1020W        W73346  21.219   6.819   0.901
 1021W        W73347  37.556   6.672   0.338
 1022W        W73348  39.914  41.012   1.409
 1023W        W73349  33.673  26.146   2.329
 1024W        W73350   9.756  33.395  11.276
 1025W        W73351   7.566   8.697  12.440
 1026W        W73352  40.394  10.625  11.906
 1027W        W73353  39.492  28.082  12.611
 1028W        W73354   4.972  15.511   1.386
 1029W        W73355  29.176  11.323  12.380
 1030W        W73356  36.692   6.281   0.158
 1031W        W73357   5.865  12.225  14.009
 1032W        W73358   5.599  42.607  13.838
 1033W        W73359  36.523  14.671   4.402
 1034W        W73360  41.830  29.348   3.270
 1035W        W73361  35.454  24.756   2.853
 1036W        W73362  26.441  32.894  14.222
 1037W        W73363  38.292  38.917   1.442
 1038W        W73364  10.076  15.269   4.549
 1039W        W73365  34.594  12.184  13.768
 1040W        W73366   0.920   8.738  10.371
 1041W        W73367   9.291  44.895   4.228
 1042W        W73368   8.458  16.719   1.002
 1043W        W73369  20.200   7.179   0.358
 1044W        W73370   7.450   5.934  12.971
 1045W        W73371  15.209   6.529  12.433
 1046W        W73372   3.811  38.061  11.577
 1047W        W73373  15.684  17.633   9.998
 1048W        W73374  28.495  36.393   0.853
 1049W        W73375  44.522   6.656  14.929
 1050W        W73376   5.249  35.170   4.696
 1051W        W73377  33.487   7.476   2.250
 1052W        W73378  43.739  16.711   3.152
 1053W        W73379  15.726  36.866  12.119
 1054W        W73380   7.881   7.565  11.657
 1055W        W73381  33.398  15.310  12.600
 1056W        W73382  41.818  14.074   3.794
 1057W        W73383   6.354  36.837   1.937
 1058W        W73384  30.055  36.817  13.062
 1059W        W73385   1.765  12.430   1.027
 1060W        W73386  31.595  32.521   1.379
 1061W        W73387  22.978   8.733  10.602
 1062W        W73388  16.130   0.312  12.933
 1063W        W73389  18.661  44.900   2.122
 1064W        W73390  21.002  44.230  11.560
 1065W        W73391  37.033  27.592  11.533
 1066W        W73392  11.833   4.548   3.431
 1067W        W73393  35.887  43.116   4.162
 1068W        W73394   7.198   8.176   3.526
 1069W        W73395  18.757  43.397  11.972
 1070W        W73396  34.339  15.586   3.123
 1071W        W73397  15.151  17.258  11.143
 1072W        W73398  39.078  32.165   1.450
 1073W        W73399  40.153  17.115   2.787
 1074W        W73400  26.343   9.655  12.470
 1075W        W73401  27.625  17.798   3.126
 1076W        W73402  16.151  14.363  10.623
 1077W        W73403  22.184  38.141  11.852
 1078W        W73404  35.006   2.613   3.288
 1079W        W73405  36.581  32.455  11.032
 1080W        W73406  28.335  26.166   3.818
 1081W        W73407  40.745  33.885  13.052
 1082W        W73408  17.277   6.806   1.598
 1083W        W73409  44.386  12.201  14.724
 1084W        W73410  33.493  28.373  11.157
 1085W        W73411   0.845  32.565   0.956
 1086W        W73412   1.090   8.159   4.723
 1087W        W73413   7.219  32.310  11.595
 1088W        W73414   9.865  17.277   2.838
 1089W        W73415  42.037  33.588  12.396
 1090W        W73416  17.782  17.031   1.834
 1091W        W73417   2.674  13.073  13.374
 1092W        W73418  20.231   7.230   3.454
 1093W        W73419  24.587  14.592  11.891
 1094W        W73420  18.622  32.036   1.221
 1095W        W73421  23.777  37.954  11.849
 1096W        W73422  36.985   7.848   2.803
 1097W        W73423  29.063  36.281   0.336
 1098W        W73424  20.285  35.466  13.943
 1099W        W73425  20.658  37.069  14.393
 1100W        W73426  12.281   8.740  14.410
 1101W        W73427  10.573   3.264  13.085
 1102W        W73428  39.106  37.820  14.361
 1103W        W73429  43.011  19.075  14.261
 1104W        W73430  13.453  33.558  11.966
 1105W        W73431  21.740  37.369  10.197
 1106W        W73432  39.087  34.082   4.082
 1107W        W73433  16.023  42.487   1.473
 1108W        W73434  40.351  22.516  12.687
 1109W        W73435  27.939  34.045  12.450
 1110W        W73436  32.099  12.351   3.264
 1111W        W73437  24.669  27.412  12.930
 1112W        W73438  18.363  19.710   0.771
 1113W        W73439  15.201  16.652   4.624
 1114W        W73440   1.716  11.559  12.407
 1115W        W73441  26.900  28.603  10.193
 1116W        W73442  14.687  27.177  11.467
 1117W        W73443   7.646  15.611   0.836
 1118W        W73444  38.927  17.534   1.797
 1119W        W73445  33.428  43.494   0.944
 1120W        W73446  15.505  19.580  12.642
 1121W        W73447  22.647  27.727   0.672
 1122W        W73448  10.757   7.378  14.421
 1123W        W73449  28.124   6.643   3.197
 1124W        W73450   7.202  26.656  14.840
 1125W        W73451   8.298  40.132   2.405
 1126W        W73452  16.685   4.301  11.614
 1127W        W73453  36.488   5.170  13.964
 1128W        W73454  41.733  20.514   2.736
 1129W        W73455   9.216  21.588  10.450
 1130W        W73456  11.827   7.152  12.060
 1131W        W73457  14.854  38.921  13.852
 1132W        W73458  40.471   1.177   1.744
 1133W        W73459  22.705  29.433  13.462
 1134W        W73460  41.010   9.632  12.867
 1135W        W73461  37.050  28.526  12.002
 1136W        W73462  10.720   0.709   2.167
 1137W        W73463  15.191  30.663   1.960
 1138W        W73464  12.169  33.403   1.592
 1139W        W73465  29.097  30.996  14.540
 1140W        W73466  19.151  16.354   2.383
 1141W        W73467  12.242  34.678   0.920
 1142W        W73468  25.035  27.960   4.692
 1143W        W73469   5.380  37.093  10.426
 1144W        W73470  36.469  24.153   0.337
 1145W        W73471  36.213  36.234   4.654
 1146W        W73472  37.962  43.807  11.375
 1147W        W73473  14.065  14.102   0.951
 1148W        W73474  38.120  42.807  12.330
 1149W        W73475  44.066  12.292   1.280
 1150W        W73476  43.046   8.373   1.649
 1151W        W73477  25.026  29.120  12.493
 1152W        W73478  26.354  27.504  11.576
 1153W        W73479  21.602  32.042   2.588
 1154W        W73480  28.985   2.241  14.464
 1155W        W73481  35.082  16.107   4.457
 1156W        W73482  17.616  17.697   4.556
 1157W        W73483  25.633  24.189  13.899
 1158W        W73484  38.349  42.884  11.867
 1159W        W73485  28.387  23.001  12.947
 1160W        W73486  21.670  11.016   2.625
 1161W        W73487  30.450  10.184  10.974
 1162W        W73488  39.921  40.964   0.492
 1163W        W73489  17.208   2.806   2.696
 1164W        W73490  13.913  29.904  11.005
 1165W        W73491  28.229  39.527  11.892
 1166W        W73492  23.505  26.702  12.481
 1167W        W73493  31.758  32.134   3.825
 1168W        W73494  39.857  17.660  11.398
 1169W        W73495   6.249  35.399   2.123
 1170W        W73496  18.048   4.338  14.306
 1171W        W73497  40.978  34.837  13.026
 1172W        W73498  44.056   6.095  11.073
 1173W        W73499  25.166  22.639  11.489
 1174W        W73500  35.788  16.216   3.718
 1175W        W73501  29.381  15.194  14.074
 1176W        W73502  14.513  42.380   2.451
 1177W        W73503  13.085  21.518  12.265
 1178W        W73504  37.994   0.436   0.349
 1179W        W73505  19.612  16.733  14.379
 1180W        W73506  38.056  13.156  12.464
 1181W        W73507  22.181  16.721  14.466
 1182W        W73508  13.420  17.630   0.446
 1183W        W73509  28.138   3.267   2.800
 1184W        W73510  31.941   4.204   2.954
 1185W        W73511  11.103  39.989   1.314
 1186W        W73512   2.382  18.747   2.350
 1187W        W73513  14.260  27.218   3.285
 1188W        W73514   7.473   7.226   1.640
 1189W        W73515  16.212  44.914  12.580
 1190W        W73516  30.626  17.191  13.554
 1191W        W73517  44.392  20.180   0.749
 1192W        W73518  22.455  30.458  14.974
 1193W        W73519   0.016   2.100  11.541
 1194W        W73520  29.888  37.033   3.174
 1195W        W73521  18.625   6.834   2.636
 1196W        W73522   5.007   1.898  12.058
 1197W        W73523  42.471  38.019  10.739
 1198W        W73524  12.622   1.083  11.092
 1199W        W73525  25.622  42.038   0.269
 1200W        W73526  11.674  22.544   2.665
 1201W        W73527  12.908  35.926   4.676
 1202W        W73528  18.496  10.157  11.522
 1203W        W73529  41.885  36.103  11.191
 1204W        W73530   8.696  10.063   4.192
 1205W        W73531  41.507  19.147   0.821
 1206W        W73532  14.207  19.770   2.378
 1207W        W73533  33.886  44.457   3.890
 1208W        W73534  22.454  36.579   1.819
 1209W        W73535  36.274  16.024   3.713
 1210W        W73536  22.901  20.885   2.481
 1211W        W73537  44.812  11.344  14.885
 1212W        W73538  23.130  20.982  12.942
 1213W        W73539  29.728  28.988   4.186
 1214W        W73540  21.682  31.534   2.678
 1215W        W73541  33.739  22.702  10.816
 1216W        W73542  26.942  26.625   4.531
 1217W        W73543  41.327  12.956  12.903
 1218W        W73544   2.428  44.360  10.647
 1219W        W73545  23.897   8.152  11.883
 1220W        W73546  40.168  34.888  12.617
 1221W        W73547  27.266  17.564  13.712
 1222W        W73548  26.470  28.686  11.097
 1223W        W73549  34.499   9.162   3.268
 1224W        W73550  12.397  27.093   3.338
 1225W        W73551  29.453  10.121  10.164
 1226W        W73552  44.467   9.421  11.639
 1227W        W73553  32.142  37.870  11.042
 1228W        W73554  25.564  19.638   3.675
 1229W        W73555  37.391   1.780  13.825
 1230W        W73556  19.807  33.020   2.168
 1231W        W73557  25.691   3.373  12.181
 1232W        W73558  39.514  36.402   0.247
 1233W        W73559  31.510   9.928   2.724
 1234W        W73560  30.590  21.755  11.630
 1235W        W73561  44.249  44.199   4.996
 1236W        W73562  20.307   1.782   3.603
 1237W        W73563  21.569  15.672  13.806
 1238W        W73564  12.995  22.436  14.364
 1239W        W73565  37.179   8.392  14.776
 1240W        W73566  33.512  41.741   3.687
 1241W        W73567   3.332   0.347  10.870
 1242W        W73568  20.122  25.869  12.634
 1243W        W73569   6.923  41.436  14.407
 1244W        W73570   1.978  39.427   0.072
 1245W        W73571  11.313  42.767   3.256
 1246W        W73572  34.788  39.814   4.366
 1247W        W73573  30.170  29.463  13.865
 1248W        W73574  19.565  41.761   3.781
 1249W        W73575  13.465  22.527   2.219
 1250W        W73576   5.951  18.491   1.668
 1251W        W73577  22.970  27.707   2.331
 1252W        W73578  25.673  15.438  13.601
 1253W        W73579   6.150  17.805  14.910
 1254W        W73580   3.819  13.925  14.534
 1255W        W73581   3.992   8.978   3.743
 1256W        W73582  33.294  29.672  11.484
 1257W        W73583   1.357  31.876  12.858
 1258W        W73584  31.476  12.125  11.917
 1259W        W73585  31.052   4.520  10.277
 1260W        W73586  21.184   5.685   0.897
 1261W        W73587  33.161  37.626   0.867
 1262W        W73588  12.774  14.090   4.533
 1263W        W73589  44.474  37.398   0.962
 1264W        W73590  23.475  23.470   4.536
 1265W        W73591  23.028  27.267   4.544
 1266W        W73592  26.522   0.581   0.616
 1267W        W73593  14.808  23.781  10.877
 1268W        W73594   0.904   3.345   1.454
 1269W        W73595  20.147  10.058  12.514
 1270W        W73596  25.033  37.654  10.952
 1271W        W73597  30.993  22.214   0.404
 1272W        W73598   7.385  37.130  14.464
 1273W        W73599  23.742   3.943   0.019
 1274W        W73600  21.017   0.058  12.045
 1275W        W73601  36.371   4.527   4.222
 1276W        W73602  12.823   5.477  13.567
 1277W        W73603  37.133  39.911   1.339
 1278W        W73604   6.244  40.525   2.364
 1279W        W73605  39.889  11.639   4.499
 1280W        W73606  37.511  14.295  14.346
 1281W        W73607  30.949   8.933  12.526
 1282W        W73608  36.059  37.493   1.700
 1283W        W73609  35.120  39.056   3.199
 1284W        W73610  35.119   6.325  13.373
 1285W        W73611   3.896  27.032   2.678
 1286W        W73612  10.710   8.930  14.579
 1287W        W73613   7.590   1.392   1.121
 1288W        W73614  19.540  41.303   1.767
 1289W        W73615   7.309   9.220   4.995
 1290W        W73616  37.918   8.382   3.868
 1291W        W73617   1.594  33.036   5.148
 1292W        W73618  30.200   7.357   3.115
 1293W        W73619  39.749  27.653  13.046
 1294W        W73620  17.015   7.760  10.688
 1295W        W73621  41.248  23.117  11.168
 1296W        W73622  30.952  19.932   4.924
 1297W        W73623  16.365  22.277   3.554
 1298W        W73624   7.287  34.601  13.820
 1299W        W73625  23.015  39.573   1.373
 1300W        W73626  44.845  43.517  12.132
 1301W        W73627  40.629  19.746   2.713
 1302W        W73628  27.671  28.480  12.850
 1303W        W73629  24.724  26.788   0.705
 1304W        W73630  22.078  42.518  12.896
 1305W        W73631  19.575  41.811   5.147
 1306W        W73632  22.840  37.693   4.169
 1307W        W73633   7.397   3.964   1.886
 1308W        W73634   2.761  39.899  13.423
 1309W        W73635  44.759   5.404  14.285
 1310W        W73636  35.230   8.496   2.316
 1311W        W73637  28.022  25.674   9.643
 1312W        W73638  31.948  10.192   0.007
 1313W        W73639  27.065  34.777   0.818
 1314W        W73640   1.681   4.158  13.290
 1315W        W73641  13.580   9.830   2.651
 1316W        W73642  26.056   1.458   0.848
 1317W        W73643  32.105  40.231   2.491
 1318W        W73644  42.706  38.459   0.431
 1319W        W73645  17.593   6.387  10.590
 1320W        W73646   4.189  39.992  10.508
 1321W        W73647  15.152  35.614   5.683
 1322W        W73648  28.695  20.986   1.639
 1323W        W73649  38.124  41.880  11.554
 1324W        W73650  26.959   4.392   1.743
 1325W        W73651  42.830  18.571  12.209
 1326W        W73652   9.813  32.023  10.952
 1327W        W73653  34.345  33.517  14.457
 1328W        W73654   6.963  41.811  14.744
 1329W        W73655  18.109   5.287   3.324
 1330W        W73656  41.933  26.065   3.892
 1331W        W73657  36.085  37.316  13.361
 1332W        W73658   3.647  22.657   2.706
 1333W        W73659  35.113  14.110   4.679
 1334W        W73660   4.609  32.634   0.188
 1335W        W73661   0.261  25.077  14.327
 1336W        W73662  11.381  35.318  14.883
 1337W        W73663  36.092   3.958   0.170
 1338W        W73664  42.460  16.094  14.859
 1339W        W73665  37.345  15.296   4.548
 1340W        W73666  21.822  36.981   3.542
 1341W        W73667   3.899   5.163  14.063
 1342W        W73668   1.149  26.536   3.144
 1343W        W73669  32.333  12.207  11.684
 1344W        W73670   7.382  42.956   1.495
 1345W        W73671  44.424  30.991   2.792
 1346W        W73672  33.496  34.460  14.071
 1347W        W73673  30.061  18.661  13.926
 1348W        W73674  41.086  10.350   0.921
 1349W        W73675  35.136  10.707  12.874
 1350W        W73676  36.240   4.682   4.733
 1351W        W73677  11.403   1.680   3.835
 1352W        W73678  27.773  20.276  14.087
 1353W        W73679  42.351   4.017  14.494
 1354W        W73680  44.200  18.516   3.678
 1355W        W73681   6.204  13.329  11.323
 1356W        W73682  21.141  40.436  10.060
 1357W        W73683  36.281  18.119  12.567
 1358W        W73684  25.958  42.367  10.846
 1359W        W73685  20.744  34.176   1.497
 1360W        W73686  18.192  22.651   3.132
 1361W        W73687  30.881  15.090   0.391
 1362W        W73688  28.590   5.790   2.385
 1363W        W73689  10.420  36.493  14.286
 1364W        W73690  31.658   8.639  12.139
 1365W        W73691  33.987  16.662   1.196
 1366W        W73692  42.408  20.001   0.102
 1367W        W73693  42.254  19.783   1.364
 1368W        W73694  31.035   4.407  11.631
 1369W        W73695  35.145  22.024   0.376
 1370W        W73696  21.588  12.008   2.700
 1371W        W73697  24.466   8.430   3.802
 1372W        W73698  27.631  34.586  10.622
 1373W        W73699   7.252  44.954   1.019
 1374W        W73700  40.535  18.558  12.994
 1375W        W73701  35.071  44.926   3.217
 1376W        W73702  31.016   9.129  11.523
 1377W        W73703   6.323  34.368   4.181
 1378W        W73704   5.008  32.334   1.676
 1379W        W73705  31.439  23.137   4.066
 1380W        W73706  32.287  43.190  10.337
 1381W        W73707  40.599  16.754  14.017
 1382W        W73708   9.373   2.980   4.089
 1383W        W73709  16.423  40.026  13.969
 1384W        W73710  12.617  42.762   1.270
 1385W        W73711  18.046  41.773  14.863
 1386W        W73712  31.623   0.190  12.101
 1387W        W73713  21.223  43.357   0.307
 1388W        W73714  43.964   2.658  10.694
 1389W        W73715  31.948  41.795  10.515
 1390W        W73716  21.069  29.037  12.066
 1391W        W73717   3.406  31.230   5.050
 1392W        W73718  12.683  17.857   0.070
 1393W        W73719  17.578  41.018  13.495
 1394W        W73720  36.832  15.680  14.199
 1395W        W73721  25.172   8.116   3.270
 1396W        W73722  39.038  41.493   4.126
 1397W        W73723   0.289  37.415  14.022
 1398W        W73724   8.085  22.052  13.498
 1399W        W73725  40.603  42.739  11.597
 1400W        W73726   7.928   7.138  10.328
 1401W        W73727  27.035  26.057  11.460
 1402W        W73728  38.323  42.924   3.926
 1403W        W73729  44.179  20.262  13.060
 1404W        W73730  19.685   3.386   3.816
 1405W        W73731  13.815  11.216  13.793
 1406W        W73732   4.799  29.072   3.334
 1407W        W73733   1.571   9.891   9.515
 1408W        W73734  28.213  18.714   3.601
 1409W        W73735  11.594  33.684   3.675
 1410W        W73736  35.277   6.816   4.176
 1411W        W73737  34.319  40.068   3.113
 1412W        W73738   8.058  33.953  12.027
 1413W        W73739   2.793  39.310   3.159
 1414W        W73740  27.020  17.324   0.936
 1415W        W73741  38.631  33.292  13.903
 1416W        W73742  20.628  41.575   0.848
 1417W        W73743  44.457   8.226  14.062
 1418W        W73744  27.257   9.267  12.593
 1419W        W73745  42.610   6.502   3.880
 1420W        W73746   3.381  31.240   0.889
 1421W        W73747  30.556  38.512   2.594
 1422W        W73748  25.148  28.413   0.666
 1423W        W73749  35.945  29.670   1.954
 1424W        W73750  30.725  13.167   4.190
 1425W        W73751  32.226  44.057  14.438
 1426W        W73752  41.745  44.442  12.436
 1427W        W73753   6.619  27.012  13.919
 1428W        W73754  23.771  38.027  13.430
 1429W        W73755  38.971  27.092  11.862
 1430W        W73756  23.779  15.115  11.053
 1431W        W73757  28.379  43.951  10.647
 1432W        W73758  27.948  31.592   0.720
 1433W        W73759  21.027  23.029  11.500
 1434W        W73760  12.088  30.172   1.858
 1435W        W73761   4.685  42.788   3.089
 1436W        W73762  14.570  41.223   0.298
 1437W        W73763  34.125  10.413  11.989
 1438W        W73764   0.036  42.014   3.304
 1439W        W73765  36.335  31.967   4.119
 1440W        W73766   0.823  22.240   0.808
 1441W        W73767  13.746  31.588   3.391
 1442W        W73768  10.792   8.075  11.157
 1443W        W73769  11.627  33.948  14.861
 1444W        W73770  32.978  34.125   1.401
 1445W        W73771   5.651  32.562  11.208
 1446W        W73772  39.132  39.913  13.913
 1447W        W73773  36.519  41.000   4.758
 1448W        W73774  19.962  22.952   4.331
 1449W        W73775  14.933  44.571   3.701
 1450W        W73776  23.742  23.049  13.919
 1451W        W73777  39.403   0.016   1.752
 1452W        W73778   1.829  39.759   1.490
 1453W        W73779  12.705  28.668  11.973
 1454W        W73780  22.508  22.685   2.786
 1455W        W73781  42.442   5.840   3.096
 1456W        W73782  12.309   1.312  11.556
 1457W        W73783  43.765  43.207   0.795
 1458W        W73784   5.780  26.503  12.788
 1459W        W73785  25.147   3.696   3.246
 1460W        W73786   8.033  12.669  13.795
 1461W        W73787  41.819  43.043  14.890
 1462W        W73788  28.671  19.657   5.113
 1463W        W73789  39.024  30.032   0.276
 1464W        W73790   6.249  15.379   0.448
 1465W        W73791  42.466  26.733  12.405
 1466W        W73792  11.221  37.889  13.385
 1467W        W73793  14.618  15.804  11.235
 1468W        W73794   6.470  12.242   2.392
 1469W        W73795  14.770  42.397  13.117
 1470W        W73796  23.934  41.443   0.787
 1471W        W73797  29.155   8.323  11.170
 1472W        W73798  11.748  34.935  10.879
 1473W        W73799  27.755  12.655  14.880
 1474W        W73800  21.816   3.985   3.473
 1475W        W73801   5.747  17.395  10.784
 1476W        W73802  20.615  20.007   0.305
 1477W        W73803  33.965  23.026  12.684
 1478W        W73804  23.362  26.372  12.066
 1479W        W73805  44.699  35.060  11.608
 1480W        W73806  13.735  40.038  11.039
 1481W        W73807  10.146  16.489   0.464
 1482W        W73808  15.958  31.408   3.327
 1483W        W73809  13.660  24.932  14.007
 1484W        W73810  18.361   8.586  14.037
 1485W        W73811  13.817  25.269  14.365
 1486W        W73812  21.221  13.366   1.724
 1487W        W73813  28.141   6.013   1.089
 1488W        W73814  15.400   9.249   1.862
 1489W        W73815  20.600  42.908   4.745
 1490W        W73816  34.992  29.592   3.211
 1491W        W73817  10.687   0.564   3.887
 1492W        W73818  15.601  22.666   0.728
 1493W        W73819   0.655   0.226  12.494
 1494W        W73820   0.882  11.692  13.821
 1495W        W73821  28.146  40.977   0.785
 1496W        W73822   7.268  18.517   0.924
 1497W        W73823   6.823  43.051   4.211
 1498W        W73824  24.964   5.012   1.877
 1499W        W73825  37.930  34.678  12.046
 1500W        W73826  28.235  39.775   1.446
 1501W        W73827   4.903  40.302  13.971
 1502W        W73828   2.415  14.164   0.376
 1503W        W73829   2.831   1.220  13.294
 1504W        W73830   3.305   1.669  10.389
 1505W        W73831   8.729  34.417  13.817
 1506W        W73832  38.123  30.006  12.957
 1507W        W73833  43.849  36.760   0.840
 1508W        W73834  12.542  39.355  14.331
 1509W        W73835  19.686  28.596   3.272
 1510W        W73836   9.394  20.671  13.371
 1511W        W73837  29.143  27.867  12.089
 1512W        W73838  39.823   4.516  11.157
 1513W        W73839  10.702  41.299  14.290
 1514W        W73840  23.465   0.043  11.140
 1515W        W73841  15.234  19.717   1.896
 1516W        W73842  41.326  11.310  14.995
 1517W        W73843  21.078  40.522   1.348
 1518W        W73844   8.223  22.442  13.070
 1519W        W73845  35.116  31.363   3.717
 1520W        W73846   7.605  12.951  12.413
 1521W        W73847  18.091  29.357   3.389
 1522W        W73848  21.468  37.376  14.212
 1523W        W73849  12.278  41.827   2.229
 1524W        W73850  16.830  31.587   0.708
 1525W        W73851  32.432   7.752  10.867
 1526W        W73852  28.742  37.577   1.365
 1527W        W73853  15.410  36.961   4.764
 1528W        W73854  40.878  25.049  13.531
 1529W        W73855  41.291  24.757  14.253
 1530W        W73856  13.667   2.912  10.679
 1531W        W73857  41.987  20.261   0.843
 1532W        W73858  24.113   3.769   1.195
 1533W        W73859   8.693  20.803   3.894
 1534W        W73860  29.146  44.364  13.431
 1535W        W73861  37.510  43.440   4.553
 1536W        W73862  23.733  26.970  12.933
 1537W        W73863  17.570  11.319   1.981
 1538W        W73864  26.902   1.714   2.221
 1539W        W73865  33.997  15.811  13.574
 1540W        W73866   1.421   1.063   0.844
 1541W        W73867  32.201  17.081   2.828
 1542W        W73868  12.290  25.891  11.523
 1543W        W73869  43.707   5.829  14.354
 1544W        W73870  40.398   7.689   1.546
 1545W        W73871  44.742   6.705  13.047
 1546W        W73872  21.580  35.542  14.498
 1547W        W73873  32.951  38.892  10.637
 1548W        W73874  41.474  22.527  10.699
 1549W        W73875  10.260  35.068  13.279
 1550W        W73876  41.381  21.784   3.434
 1551W        W73877  40.729   0.776   0.258
 1552W        W73878   3.301  37.057  14.835
 1553W        W73879  25.740  36.983  11.193
 1554W        W73880  10.840  12.073   3.774
 1555W        W73881   2.277  28.059  14.500
 1556W        W73882  43.041  23.650   0.870
 1557W        W73883  38.020  39.877   0.082
 1558W        W73884  24.499  31.597   4.663
 1559W        W73885  37.004  25.840   2.894
 1560W        W73886   4.926  43.987   5.084
 1561W        W73887  16.370  16.724   2.162
 1562W        W73888  19.409  12.069  14.348
 1563W        W73889  30.920  39.575  12.549
 1564W        W73890   7.403   4.050   0.022
 1565W        W73891  32.610   6.189   3.211
 1566W        W73892  33.221  22.098   1.764
 1567W        W73893  44.903  44.430   3.678
 1568W        W73894  15.339   7.398  13.843
 1569W        W73895   9.597  35.302   1.940
 1570W        W73896  25.504   9.019   3.961
 1571W        W73897  13.205  32.559  13.013
 1572W        W73898  26.617  29.038  10.120
 1573W        W73899  33.699  29.708  14.354
 1574W        W73900  18.516  37.491   4.636
 1575W        W73901   9.567   0.799  12.666
 1576W        W73902  40.940  18.246  11.084
 1577W        W73903  40.786  31.139   0.978
 1578W        W73904  11.311  35.839   0.443
 1579W        W73905  27.934  29.598   4.059
 1580W        W73906  11.647  27.412   3.734
 1581W        W73907  41.457  39.326  14.910
 1582W        W73908  27.229  36.955   2.843
 1583W        W73909   8.307  18.296   4.278
 1584W        W73910   0.288  21.274  10.226
 1585W        W73911  20.706  38.928  14.348
 1586W        W73912  41.447  21.664   2.421
 1587W        W73913  28.522  44.970  14.459
 1588W        W73914   3.413  21.247   4.170
 1589W        W73915  20.596  35.659   3.688
 1590W        W73916  37.439  42.044   3.659
 1591W        W73917   9.371  12.703   3.872
 1592W        W73918   5.118  42.195   1.925
 1593W        W73919  37.660  11.694  11.660
 1594W        W73920   9.375  34.458   3.695
 1595W        W73921  13.770  28.398  12.402
 1596W        W73922  32.542  36.122  11.128
 1597W        W73923   8.931  36.517   3.619
 1598W        W73924  18.422  24.072   3.341
 1599W        W73925  10.842   9.805   3.097
 1600W        W73926  28.985   5.425   4.402
 1601W        W73927  22.644  27.880   4.951
 1602W        W73928   2.560  43.583   0.213
 1603W        W73929  22.409  39.442   2.615
 1604W        W73930   9.466  31.182   1.920
 1605W        W73931  28.915  29.384   4.253
 1606W        W73932  17.231  15.868  11.743
 1607W        W73933  26.055  21.150  11.173
 1608W        W73934  40.224  39.794   4.200
 1609W        W73935  40.826   2.990   4.332
 1610W        W73936  30.145  17.476  14.008
 1611W        W73937  39.621  28.014   0.708
 1612W        W73938   3.526  20.134   5.092
 1613W        W73939  16.198  10.086  12.534
 1614W        W73940  24.809  42.895  12.535
 1615W        W73941  25.613   4.206   4.639
 1616W        W73942   7.934  36.526   3.772
 1617W        W73943  36.809  40.090   0.001
 1618W        W73944  37.259  12.059   0.931
 1619W        W73945  35.506  16.736  13.105
 1620W        W73946  10.679   5.793   1.030
 1621W        W73947  19.355  29.133   3.169
 1622W        W73948  30.309  11.929   0.171
 1623W        W73949  11.108   3.409  13.778
 1624W        W73950  30.229   6.555   4.162
 1625W        W73951  16.168   4.638  10.627
 1626W        W73952  28.716  38.899   3.254
 1627W        W73953  20.576  16.880  10.510
 1628W        W73954   4.538  41.502   1.459
 1629W        W73955  39.993  44.849   1.142
 1630W        W73956   6.172  20.527  12.312
 1631W        W73957  15.961   5.442   1.942
 1632W        W73958  34.473   7.553  14.448
 1633W        W73959  20.218  12.220   0.955
 1634W        W73960  24.797  41.489  10.711
 1635W        W73961  38.813   3.169  13.385
 1636W        W73962  13.162  41.499   0.285
 1637W        W73963  13.593  32.520   4.362
 1638W        W73964  13.348  41.835  12.002
 1639W        W73965  32.475  29.920   3.607
 1640W        W73966   1.455   9.173   3.230
 1641W        W73967  11.206  40.389   1.608
 1642W        W73968  20.080  38.444   2.309
 1643W        W73969  21.566   6.240  11.521
 1644W        W73970  13.731   5.132   3.565
 1645W        W73971  32.619  21.680   2.432
 1646W        W73972   5.926  34.003  11.128
 1647W        W73973  21.623  31.558  14.768
 1648W        W73974  19.322   2.759  13.646
 1649W        W73975   3.983   6.319   1.207
 1650W        W73976  15.187   6.504   3.159
 1651W        W73977   2.639  44.861  11.507
 1652W        W73978  39.377  19.563  10.624
 1653W        W73979  19.583  27.662  13.456
 1654W        W73980  20.037  37.292  12.388
 1655W        W73981  42.110  34.046  11.575
 1656W        W73982  24.208   9.285  10.443
 1657W        W73983  33.560  21.792  13.845
 1658W        W73984  10.374  10.203  10.437
 1659W        W73985  16.369  20.505   0.663
 1660W        W73986   9.252  29.946   3.142
 1661W        W73987  19.304  21.010  11.311
 1662W        W73988  42.073  36.558   0.052
 1663W        W73989  24.401  21.753   1.550
 1664W        W73990   6.635   2.371   3.123
 1665W        W73991  34.484   4.219  10.995
 1666W        W73992  18.492  21.069  11.063
 1667W        W73993   4.081  24.253   2.099
 1668W        W73994  32.922  13.856   1.974
 1669W        W73995  22.441   9.912   2.632
 1670W        W73996  35.190  39.960   4.062
 1671W        W73997  44.053  18.307   4.138
 1672W        W73998  41.447  42.931  13.237
 1673W        W73999  28.582   4.436   0.416
 1674W        W74000  40.001  21.770  11.749
 1675W        W74001   1.060  30.039  11.138
 1676W        W74002  40.564  14.158   2.588
 1677W        W74003  22.928   2.245   1.732
 1678W        W74004  41.271  18.789  14.445
 1679W        W74005  43.314  41.874  14.387
 1680W        W74006  37.991  39.637   1.551
 1681W        W74007  32.604  43.312   1.287
 1682W        W74008  11.901   2.793   4.793
 1683W        W74009  31.901   4.582  11.131
 1684W        W74010  29.046  29.961  13.723
 1685W        W74011  34.026  13.116   4.762
 1686W        W74012  12.725  11.609  12.934
 1687W        W74013  39.316  36.162  10.363
 1688W        W74014  17.307  34.665   4.834
 1689W        W74015  33.502  33.075   0.775
 1690W        W74016  33.120  27.944  14.401
 1691W        W74017  34.418  40.835   3.587
 1692W        W74018  26.066  34.513  12.483
 1693W        W74019  43.787   1.961  14.436
 1694W        W74020  29.692  28.474  13.870
 1695W        W74021  25.996   1.065  14.981
 1696W        W74022  43.958  26.515   2.219
 1697W        W74023   5.480  38.064  12.966
 1698W        W74024  25.098   9.739   1.153
 1699W        W74025  41.948  24.968   2.785
 1700W        W74026  11.276   9.296  13.906
 1701W        W74027   7.660  39.288  14.864
 1702W        W74028   7.615  37.166  11.120
 1703W        W74029  35.810  27.730   2.610
 1704W        W74030  21.064  34.013   3.702
 1705W        W74031   2.754  25.258   0.819
 1706W        W74032  27.595  36.406  11.143
 1707W        W74033  42.297  14.048   2.196
 1708W        W74034  20.491  28.179  11.029
 1709W        W74035   8.373  12.605  12.058
 1710W        W74036  34.505  18.725  13.837
 1711W        W74037  24.716  32.900   0.445
 1712W        W74038  30.535  29.849  11.204
 1713W        W74039  36.877   7.456   0.337
 1714W        W74040  10.316  10.595  14.013
 1715W        W74041   5.799   7.178   1.391
 1716W        W74042  17.836  20.164   0.424
 1717W        W74043  15.978  43.150  11.802
 1718W        W74044  40.463   2.469   4.165
 1719W        W74045   4.329  17.027   1.381
 1720W        W74046  27.052  39.276  12.133
 1721W        W74047  39.969  35.092  12.172
 1722W        W74048  11.739   1.874  12.422
 1723W        W74049  21.542   7.005   1.877
 1724W        W74050  44.294  39.838   4.663
 1725W        W74051  13.762  13.954  10.560
 1726W        W74052  32.493  21.533  12.031
 1727W        W74053  19.066  32.853  14.364
 1728W        W74054  25.915  36.479  13.006
 1729W        W74055  28.514   5.225   3.590
 1730W        W74056  26.575  18.569   2.864
 1731W        W74057   9.038  44.188   0.947
 1732W        W74058  21.845  42.598  13.362
 1733W        W74059  39.355  34.810  13.377
 1734W        W74060  41.883  43.034   0.922
 1735W        W74061  36.231  11.993   1.954
 1736W        W74062  12.980  24.500   2.670
 1737W        W74063  37.886  37.384   1.412
 1738W        W74064  33.936  13.829  14.830
 1739W        W74065   5.285  17.600   4.745
 1740W        W74066   3.315  12.135  10.201
 1741W        W74067  40.405  42.171  13.817
 1742W        W74068  23.949  40.222  13.925
 1743W        W74069  25.147  41.856  10.742
 1744W        W74070  17.959   3.805  12.606
 1745W        W74071  26.165  22.563   2.072
 1746W        W74072  10.400   2.192  14.382
 1747W        W74073  27.102   2.277  11.652
 1748W        W74074  38.641   4.571   3.356
 1749W        W74075  25.754   8.875   0.167
 1750W        W74076  43.844  31.111   2.465
 1751W        W74077  30.199  12.644   0.052
 1752W        W74078   3.541   4.227   3.175
 1753W        W74079  28.647  21.399   0.005
 1754W        W74080  31.992  11.320   3.202
 1755W        W74081   5.607  39.438   2.478
 1756W        W74082  32.713   7.835   0.059
 1757W        W74083  44.806  15.106  12.390
 1758W        W74084  35.074  32.424  10.175
 1759W        W74085   2.936  16.774   2.834
 1760W        W74086  30.448   8.940   1.606
 1761W        W74087  35.355  20.163  10.782
 1762W        W74088  19.674  36.229   2.296
 1763W        W74089   9.281   4.496   4.149
 1764W        W74090   7.546  28.431   0.307
 1765W        W74091  18.775  30.919  12.434
 1766W        W74092   9.813   9.176  12.806
 1767W        W74093  43.682  33.420   0.017
 1768W        W74094  12.617  39.990   2.590
 1769W        W74095  23.350   3.956  14.662
 1770W        W74096  35.380  27.863  11.848
 1771W        W74097   9.906   1.291   1.287
 1772W        W74098  37.321  18.201   2.933
 1773W        W74099  19.586  34.019   0.528
 1774W        W74100  42.965  17.887  14.986
 1775W        W74101  20.758  29.980  14.557
 1776W        W74102   4.698  37.397   0.815
 1777W        W74103  21.626  21.228  13.571
 1778W        W74104   1.066  31.422  10.681
 1779W        W74105  16.158   0.801   3.094
 1780W        W74106  11.880  26.885  11.978
 1781W        W74107  35.610  32.508  13.075
 1782W        W74108  44.057   4.119   1.915
 1783W        W74109   7.776   8.686  13.856
 1784W        W74110  44.061   1.280  10.686
 1785W        W74111   0.434  37.059  14.936
 1786W        W74112  42.894   6.931  13.012
 1787W        W74113   8.626  24.549  13.794
 1788W        W74114  26.461  25.835  11.193
 1789W        W74115   4.435  40.094  12.457
 1790W        W74116  35.490  36.502  10.001
 1791W        W74117  16.503  26.384   4.145
 1792W        W74118  24.036  39.297  12.897
 1793W        W74119  19.557  41.623  12.047
 1794W        W74120  42.947  22.351  13.311
 1795W        W74121   9.802  30.995   3.535
 1796W        W74122  44.993  39.607   4.117
 1797W        W74123  35.577  15.989   4.592
 1798W        W74124  34.357  13.595  13.384
 1799W        W74125  35.550  44.378  13.443
 1800W        W74126   4.249  17.270   4.092
 1801W        W74127  29.125  26.586  10.435
 1802W        W74128  32.438  17.591   0.885
 1803W        W74129  12.339  19.205  14.855
 1804W        W74130  42.229  37.778   0.991
 1805W        W74131  17.527  44.493  13.923
 1806W        W74132  41.462  31.404   3.708
 1807W        W74133   2.037   2.325  10.221
 1808W        W74134  40.380  21.653   4.707
 1809W        W74135  12.654  14.310  11.007
 1810W        W74136  18.615  14.583   3.211
 1811W        W74137   4.026  12.435   5.620
 1812W        W74138   3.421  14.445  10.742
 1813W        W74139  10.150  44.690  11.907
 1814W        W74140  16.495  44.799   2.318
 1815W        W74141  30.368   0.319  14.846
 1816W        W74142  26.083  12.353   2.667
 1817W        W74143  33.921  28.688  11.167
 1818W        W74144  32.423  20.550   0.459
 1819W        W74145  35.466  11.172   4.652
 1820W        W74146  19.282  44.087   2.933
 1821W        W74147   0.677  17.829   5.023
 1822W        W74148  29.982  12.664  11.183
 1823W        W74149   2.705  34.135  11.971
 1824W        W74150   3.126  10.354   3.741
 1825W        W74151  21.215  28.156  14.311
 1826W        W74152   2.233  32.024   2.003
 1827W        W74153   5.665  38.995   2.787
 1828W        W74154   9.253  26.186  14.233
 1829W        W74155  40.649  24.555  14.815
 1830W        W74156  37.604   2.052  13.401
 1831W        W74157  15.745  10.733  13.079
 1832W        W74158   7.207   3.313  13.258
 1833W        W74159  22.980  27.419  14.471
 1834W        W74160  20.054  23.767   2.295
 1835W        W74161  13.397   2.226  12.375
 1836W        W74162  34.574  21.499   0.760
 1837W        W74163  16.670  24.800  10.696
 1838W        W74164  22.181  40.258   0.338
 1839W        W74165   6.455  22.634   5.074
 1840W        W74166  10.735  24.774  11.074
 1841W        W74167  14.603  14.720   2.650
 1842W        W74168  21.114  39.974   0.041
 1843W        W74169  24.906  18.848   4.170
 1844W        W74170   1.363  28.478   1.613
 1845W        W74171  26.561  40.370   2.857
 1846W        W74172  43.363   3.981  12.157
 1847W        W74173   3.429  40.320  12.518
 1848W        W74174   5.574  28.427   1.023
 1849W        W74175  17.850  29.293   4.193
 1850W        W74176  32.655  39.638  14.437
 1851W        W74177   3.212  19.558  14.359
 1852W        W74178  22.457  31.062  11.991
 1853W        W74179  25.023   2.339  14.148
 1854W        W74180  23.153  37.478   3.797
 1855W        W74181  26.483   0.372  12.919
 1856W        W74182   6.520  27.581   3.723
 1857W        W74183  14.966  10.763  12.390
 1858W        W74184  42.878  41.878   3.115
 1859W        W74185  37.145  38.821  14.962
 1860W        W74186  26.153  42.862  11.225
 1861W        W74187   4.194  18.209   0.900
 1862W        W74188  31.122   3.352   4.643
 1863W        W74189  13.153  14.077   4.147
 1864W        W74190  24.652  35.170   2.631
 1865W        W74191  23.522  42.504   3.373
 1866W        W74192  44.232   4.717  11.077
 1867W        W74193  35.916   7.797  13.612
 1868W        W74194  34.648  31.085  11.025
 1869W        W74195  22.467   0.259  13.532
 1870W        W74196  44.876  37.965  11.622
 1871W        W74197   5.001  24.540   0.037
 1872W        W74198   0.665  19.571   4.610
 1873W        W74199  16.676  13.623   1.808
 1874W        W74200   2.193  40.748   0.770
 1875W        W74201  32.865   4.475  13.093
 1876W        W74202   8.849  23.495   3.721
 1877W        W74203  30.601  43.430   3.936
 1878W        W74204  27.449  12.594   1.483
 1879W        W74205  20.329  41.015  12.567
 1880W        W74206  27.439   0.832  10.475
 1881W        W74207   6.959  13.414   0.919
 1882W        W74208  31.980  30.762   4.325
 1883W        W74209  25.475  16.379  12.676
 1884W        W74210  43.442  20.582  11.126
 1885W        W74211  15.783  22.129  14.311
 1886W        W74212   8.235  18.832  10.567
 1887W        W74213  35.832  31.183  14.399
 1888W        W74214  26.933  19.104   1.487
 1889W        W74215  39.875   0.723  13.188
 1890W        W74216  27.189  16.733  12.089
 1891W        W74217   6.387  35.380   3.485
 1892W        W74218  19.445   0.034  13.266
 1893W        W74219  16.699  10.103  14.369
 1894W        W74220  44.743   3.906  13.686
 1895W        W74221  28.233  42.243  12.818
 1896W        W74222  31.445  25.008   4.626
 1897W        W74223   3.183  16.615   4.175
 1898W        W74224  20.706  39.331   2.749
 1899W        W74225  24.481  29.014  11.579
 1900W        W74226  14.257   6.732   0.232
 1901W        W74227  15.798  13.804   1.285
 1902W        W74228  11.234  19.361   2.816
 1903W        W74229  42.401  31.883   1.817
 1904W        W74230  42.050   5.141  11.378
 1905W        W74231  14.547  39.373   1.664
 1906W        W74232   2.294   4.837  11.917
 1907W        W74233  43.082   0.008   0.839
 1908W        W74234  27.413  26.179  13.336
 1909W        W74235   1.736  21.579  11.967
 1910W        W74236  22.587  24.980   2.375
 1911W        W74237  44.531  28.081  12.993
 1912W        W74238  13.729  40.278  10.581
 1913W        W74239  20.632   6.291  11.143
 1914W        W74240  18.380  34.331   2.347
 1915W        W74241   6.899  15.396   4.854
 1916W        W74242  11.785   1.838   0.459
 1917W        W74243  33.377  14.032   2.814
 1918W        W74244  11.316   1.703  14.306
 1919W        W74245  38.819  23.942   2.804
 1920W        W74246  15.150  16.154  13.744
 1921W        W74247  30.700  36.027   1.255
 1922W        W74248  23.482  24.589  10.436
 1923W        W74249  33.969  21.345   4.129
 1924W        W74250  23.564  18.150   5.100
 1925W        W74251  20.553  30.663  14.968
 1926W        W74252  40.233  16.623  10.780
 1927W        W74253  32.149  40.752   1.632
 1928W        W74254  31.178  30.850  13.879
 1929W        W74255  31.510  29.975  12.161
 1930W        W74256  33.404   7.911   4.713
 1931W        W74257  10.683   8.699   1.356
 1932W        W74258   5.312   9.120   3.123
 1933W        W74259  38.795  10.859  12.530
 1934W        W74260  30.561  15.997   0.798
 1935W        W74261   8.733   4.420   2.809
 1936W        W74262  19.130  15.286  11.480
 1937W        W74263  17.579   6.032   3.155
 1938W        W74264  25.531  26.063  13.083
 1939W        W74265   4.334  16.834  14.760
 1940W        W74266  21.224  32.466  12.083
 1941W        W74267  15.074  20.160   1.656
 1942W        W74268  20.057  32.907   3.733
 1943W        W74269  10.572  40.863  12.644
 1944W        W74270  25.176  38.206  13.428
 1945W        W74271  36.072   7.342   0.877
 1946W        W74272  11.445  44.494   0.356
 1947W        W74273  15.800  19.773  11.215
 1948W        W74274   0.349  34.782  11.139
 1949W        W74275  27.703   7.235  13.540
 1950W        W74276   1.893  34.507   3.636
 1951W        W74277   5.834  21.509  12.890
 1952W        W74278  22.106  20.043  11.705
 1953W        W74279  13.149   5.581  12.145
 1954W        W74280  27.660   2.925  11.630
 1955W        W74281  30.621   3.955  11.168
 1956W        W74282   9.100  18.808   3.845
 1957W        W74283   2.721  38.355   4.333
 1958W        W74284  18.930  43.956  12.645
 1959W        W74285  44.773   9.331  10.421
 1960W        W74286  23.223  35.355  10.607
 1961W        W74287  30.241  40.588   2.333
 1962W        W74288  13.933  15.282  12.351
 1963W        W74289  20.679  33.648   3.701
 1964W        W74290   7.851  14.530   1.832
 1965W        W74291  22.691  29.525   0.410
 1966W        W74292   1.808   1.836  14.855
 1967W        W74293   2.736  18.388  11.632
 1968W        W74294  25.588  37.498   3.282
 1969W        W74295   4.154  10.699  12.211
 1970W        W74296  33.198   9.681   3.388
 1971W        W74297   5.743   6.807  12.485
 1972W        W74298  28.406  15.652   1.423
 1973W        W74299  22.409  37.894  14.123
 1974W        W74300  26.623  44.605   2.629
 1975W        W74301  24.982  11.775   1.400
 1976W        W74302  20.112   1.537   2.177
 1977W        W74303  40.128  21.660  10.837
 1978W        W74304  42.391  12.562   2.777
 1979W        W74305   1.050   7.445  11.658
 1980W        W74306  40.007  18.136   2.138
 1981W        W74307  15.021   4.919  11.303
 1982W        W74308  18.193  15.714   4.865
 1983W        W74309  21.750  38.800   3.665
 1984W        W74310   2.549  36.788  14.285
 1985W        W74311  34.424  12.760   4.680
 1986W        W74312  31.127  30.568   0.640
 1987W        W74313  30.864   1.924   2.768
 1988W        W74314  10.177   5.652  14.728
 1989W        W74315  37.048  13.661   9.661
 1990W        W74316  12.658  34.659  10.482
 1991W        W74317  18.271   0.849  12.510
 1992W        W74318  37.905  42.761   4.177
 1993W        W74319   2.427  14.634  13.884
 1994W        W74320  18.867  28.135   3.275
 1995W        W74321   5.406   7.827   3.715
 1996W        W74322   6.940  43.965   4.981
 1997W        W74323   4.886  18.516  12.880
 1998W        W74324   2.421  29.916  13.886
 1999W        W74325  27.738  35.881   0.955
 2000W        W74326   9.876   4.235   3.323
 2001W        W74327   0.296   8.570   3.302
 2002W        W74328  40.938  33.933   4.088
 2003W        W74329  32.656  33.218   4.242
 2004W        W74330  39.915  15.931   1.567
 2005W        W74331   6.400  34.871  14.366
 2006W        W74332  25.894   5.828  12.017
 2007W        W74333  37.395  43.038  11.007
 2008W        W74334  36.285  36.161  12.619
 2009W        W74335   6.404  19.773  11.526
 2010W        W74336  44.803  31.194   0.258
 2011W        W74337   4.344   4.508   4.608
 2012W        W74338  40.347  38.379  13.453
 2013W        W74339  17.003  22.007  12.452
 2014W        W74340  34.592   7.955   3.941
 2015W        W74341  26.050  17.288  13.078
 2016W        W74342  16.269  25.719   1.806
 2017W        W74343  15.298  10.198   1.724
 2018W        W74344  20.695  24.531  10.750
 2019W        W74345  19.757  12.482  14.392
 2020W        W74346   9.780   7.011   1.959
 2021W        W74347  22.945  37.505  11.494
 2022W        W74348  27.372  36.551  10.700
 2023W        W74349  38.367  23.549  10.967
 2024W        W74350  10.404  21.682  11.072
 2025W        W74351  26.642  44.980  12.570
 2026W        W74352  16.171  30.100   2.231
 2027W        W74353  37.319   8.915   1.791
 2028W        W74354   1.428  16.221   3.640
 2029W        W74355  27.742  38.346  11.582
 2030W        W74356  26.020  30.177  12.987
 2031W        W74357  18.770  11.500  11.389
 2032W        W74358   3.406  41.969   4.944
 2033W        W74359  35.913  40.094   2.371
 2034W        W74360  12.664  10.309   1.681
 2035W        W74361  17.324  23.990   0.195
 2036W        W74362  30.997  31.252  13.077
 2037W        W74363  30.656  29.657  13.903
 2038W        W74364   5.930  22.808   3.713
 2039W        W74365  15.007  20.015  14.967
 2040W        W74366  18.803  18.003  13.103
 2041W        W74367  44.220  40.160   2.402
 2042W        W74368   3.404   0.191   2.200
 2043W        W74369  11.217  16.187   2.375
 2044W        W74370  44.457  17.533  10.185
 2045W        W74371   5.644  11.861   0.745
 2046W        W74372   9.038  16.499  14.509
 2047W        W74373  41.962  24.494  14.460
 2048W        W74374  11.233  26.160   1.530
 2049W        W74375  13.239  38.948   1.474
 2050W        W74376  34.085  27.943   0.785
 2051W        W74377   4.926  12.306  13.005
 2052W        W74378  37.644   4.656   3.146
 2053W        W74379  16.554  42.922  13.322
 2054W        W74380  41.096  34.071   1.281
 2055W        W74381  21.049   1.859   3.181
 2056W        W74382  11.252   8.649   0.398
 2057W        W74383   9.965  11.131   0.812
 2058W        W74384  38.341  36.097  11.615
 2059W        W74385  26.896  34.343   3.239
 2060W        W74386   2.714  25.552  11.125
 2061W        W74387  18.235  22.462   4.558
 2062W        W74388  11.712  37.497   1.824
 2063W        W74389  11.144  31.466   2.970
 2064W        W74390  38.421  14.309   3.029
 2065W        W74391  18.360  26.150   4.451
 2066W        W74392   9.696  19.296  12.563
 2067W        W74393  30.096   0.365  11.991
 2068W        W74394  12.742  44.512   2.816
 2069W        W74395  27.480  10.621  12.137
 2070W        W74396  26.968   7.205   0.279
 2071W        W74397  19.591  31.127   3.731
 2072W        W74398  19.607  15.618   3.688
 2073W        W74399  13.224  28.205  11.531
 2074W        W74400   2.961  24.562   4.195
 2075W        W74401  23.861  11.688   3.594
 2076W        W74402  20.262  20.998   2.753
 2077W        W74403  32.585  42.301   4.616
 2078W        W74404  40.932   8.293   1.797
 2079W        W74405  20.609  42.404   1.293
 2080W        W74406  14.299  41.303  14.393
 2081W        W74407  42.055  16.131  11.234
 2082W        W74408  43.769  10.716   3.689
 2083W        W74409  44.869  42.481  11.471
 2084W        W74410  11.759  33.784   2.202
 2085W        W74411  18.798  13.909   4.475
 2086W        W74412  21.312   5.924   2.286
 2087W        W74413  41.968  33.182  13.844
 2088W        W74414  23.204  12.844   1.908
 2089W        W74415  29.619   2.481  12.450
 2090W        W74416  23.547  24.918   2.717
 2091W        W74417  35.049  22.990  13.106
 2092W        W74418  32.057  40.781  11.346
 2093W        W74419   5.338   4.342   4.625
 2094W        W74420  23.126  31.387   3.762
 2095W        W74421  42.178   8.819   1.649
 2096W        W74422   1.946   8.606   0.972
 2097W        W74423  40.016  24.969   4.721
 2098W        W74424  27.247  31.081  12.572
 2099W        W74425   5.878   5.970   2.252
 2100W        W74426  32.158  27.940  14.216
 2101W        W74427  32.081  12.929   1.908
 2102W        W74428  25.852   3.868  12.668
 2103W        W74429   2.663  38.069  10.622
 2104W        W74430   9.374  29.202   2.752
 2105W        W74431  18.635   3.793  14.265
 2106W        W74432  34.321   6.791  12.457
 2107W        W74433  43.467  21.605   4.911
 2108W        W74434   0.801  34.747   0.816
 2109W        W74435  28.109  13.562  10.638
 2110W        W74436   3.204  43.565   4.992
 2111W        W74437  23.098  40.275   3.220
 2112W        W74438  27.551   5.096   3.137
 2113W        W74439  26.186   9.190  14.254
 2114W        W74440  23.345  17.657   0.409
 2115W        W74441  18.052  18.090  14.237
 2116W        W74442  21.600  39.941  14.402
 2117W        W74443  18.529  15.258   4.213
 2118W        W74444   7.437  23.718  14.572
 2119W        W74445   5.334  18.578  13.549
 2120W        W74446  24.017   2.825  12.059
 2121W        W74447  29.161   0.393   1.865
 2122W        W74448  18.640  30.038   3.003
 2123W        W74449  24.102  36.569  11.170
 2124W        W74450  26.458   5.203  14.972
 2125W        W74451  21.859   7.361   1.212
 2126W        W74452   8.165  37.520   2.856
 2127W        W74453  35.450  23.929  13.911
 2128W        W74454  29.782  18.876   1.456
 2129W        W74455  12.467  40.308  11.902
 2130W        W74456  11.837  25.207   3.105
 2131W        W74457  37.072  10.342   2.634
 2132W        W74458  27.479   7.852   3.834
 2133W        W74459  10.710  36.887   4.220
 2134W        W74460   1.985  39.531  11.626
 2135W        W74461  13.173  15.608  13.945
 2136W        W74462  11.354   1.580   0.678
 2137W        W74463  20.254   4.901  10.652
 2138W        W74464  17.634  17.760  14.563
 2139W        W74465  10.621   9.975   1.813
 2140W        W74466   3.260   0.693  11.986
 2141W        W74467  19.136  21.221   0.752
 2142W        W74468  27.422  18.707   1.914
 2143W        W74469   2.675  31.500  14.943
 2144W        W74470  40.783   8.895   0.924
 2145W        W74471  36.979   1.988   3.854
 2146W        W74472  27.987  41.539  12.375
 2147W        W74473  10.807   9.887  11.627
 2148W        W74474   4.652  35.746  11.908
 2149W        W74475  23.824   5.560  14.335
 2150W        W74476   6.957  18.414  10.978
 2151W        W74477  25.619  17.464   5.020
 2152W        W74478  11.373   7.376  11.893
 2153W        W74479  17.340  39.524  12.437
 2154W        W74480  19.110   2.770  11.999
 2155W        W74481   5.003  22.841   2.742
 2156W        W74482  13.896  21.155  11.591
 2157W        W74483  35.392  14.589   2.792
 2158W        W74484  25.270  12.136   4.246
 2159W        W74485  31.192   7.148  11.521
 2160W        W74486  31.640  17.224  13.745
 2161W        W74487  24.285  11.857   2.694
 2162W        W74488  29.709  26.329   1.741
 2163W        W74489   8.162  42.858   3.871
 2164W        W74490  29.415  11.264   2.362
 2165W        W74491   2.553  29.975  11.174
 2166W        W74492  19.634  34.009  11.245
 2167W        W74493   3.757   2.506   0.342
 2168W        W74494  26.000   2.412   0.405
 2169W        W74495   9.602  40.138   2.675
 2170W        W74496   6.848  42.305  13.944
 2171W        W74497  16.716  24.688   3.776
 2172W        W74498  15.699  32.663   1.279
 2173W        W74499  26.229  29.493  14.166
 2174W        W74500  25.615  28.668  10.689
 2175W        W74501  10.649  22.108  14.940
 2176W        W74502  33.392   9.590  13.226
 2177W        W74503  37.300  32.462   0.338
 2178W        W74504  40.951   8.284  11.881
 2179W        W74505   2.887  34.473   3.716
 2180W        W74506  34.636   9.700  14.275
 2181W        W74507   0.699  22.132  13.471
 2182W        W74508  10.334   6.917   0.242
 2183W        W74509  35.804  29.009   0.256
 2184W        W74510  34.789  40.729  13.859
 2185W        W74511  28.866  30.450   1.147
 2186W        W74512   7.352  14.733  10.923
 2187W        W74513  35.818  10.884  14.852
 2188W        W74514  25.303   0.694   4.555
 2189W        W74515  17.892  27.297   3.822
 2190W        W74516  23.907  16.635   0.823
 2191W        W74517   8.835  24.493  10.836
 2192W        W74518  38.061  23.083  13.290
 2193W        W74519  20.090  19.115   4.751
 2194W        W74520  43.820   9.640  14.055
 2195W        W74521  20.560  42.961   3.659
 2196W        W74522   3.264  25.615   4.945
 2197W        W74523  35.505  30.573   2.284
 2198W        W74524  34.585   0.970  13.103
 2199W        W74525  39.869  15.839   2.109
 2200W        W74526  34.866   1.260  14.362
 2201W        W74527   8.866  28.468   1.155
 2202W        W74528  22.230  22.045  12.863
 2203W        W74529  40.007  11.028  10.666
 2204W        W74530  12.577  30.542  13.545
 2205W        W74531   3.658   4.727   1.925
 2206W        W74532  21.545   3.313  10.630
 2207W        W74533  26.521  24.249  13.350
 2208W        W74534  44.022  12.141  10.306
 2209W        W74535  20.231  22.153   2.789
 2210W        W74536  40.809  10.292  14.496
 2211W        W74537  15.080  18.637   2.737
 2212W        W74538  43.480  12.393   3.296
 2213W        W74539  33.046  26.526  11.934
 2214W        W74540  19.289  32.862  12.122
 2215W        W74541   2.443   4.455  11.057
 2216W        W74542  15.661  37.375   3.728
 2217W        W74543   7.717   8.572   4.202
 2218W        W74544  33.555  33.301  14.757
 2219W        W74545  32.322   3.729   4.204
 2220W        W74546  12.595   1.009   2.777
 2221W        W74547  33.076   5.177   0.401
 2222W        W74548   3.382  23.947   4.234
 2223W        W74549   4.523   4.860  14.946
 2224W        W74550  33.451  44.545  14.033
 2225W        W74551  26.010  15.140   3.357
 2226W        W74552  40.062  44.725   4.824
 2227W        W74553  23.931  26.660   0.554
 2228W        W74554   6.810  23.173  12.947
 2229W        W74555  23.042  20.219  14.251
 2230W        W74556  24.985  10.185  11.024
 2231W        W74557  12.804  33.398  13.072
 2232W        W74558  44.473  10.292  12.708
 2233W        W74559   5.623  13.152   2.845
 2234W        W74560   5.872   6.236  13.085
 2235W        W74561   6.925   8.688  11.945
 2236W        W74562   8.245   7.387  11.317
 2237W        W74563  37.559  20.753  14.806
 2238W        W74564  29.990  42.890  11.533
 2239W        W74565   2.020   6.390   2.220
 2240W        W74566  21.199  10.446  14.504
 2241W        W74567  32.405   1.476   0.518
 2242W        W74568  41.516   5.284   3.138
 2243W        W74569  42.057   3.624   3.794
 2244W        W74570  11.244  37.364   3.623
 2245W        W74571  29.925  23.465   2.313
 2246W        W74572  38.431  29.669  14.811
 2247W        W74573   9.734  26.125  11.063
 2248W        W74574  12.617  15.621  12.630
 2249W        W74575  41.059  22.138  13.298
 2250W        W74576  18.829  37.333   0.596
 2251W        W74577  36.922  21.936  12.097
 2252W        W74578  37.466   1.761   4.092
 2253W        W74579  26.618  30.964   1.047
 2254W        W74580   9.867  34.001   2.289
 2255W        W74581   6.817  33.041  14.395
 2256W        W74582   4.468   9.352  12.343
 2257W        W74583  17.223   1.386  10.888
 2258W        W74584  32.081   1.825   4.057
 2259W        W74585  36.102  19.224   4.643
 2260W        W74586  19.546   4.828  12.190
 2261W        W74587  32.594  30.068   4.125
 2262W        W74588  32.724  40.424  14.901
 2263W        W74589  26.872  27.356   3.635
 2264W        W74590  42.418  30.396   2.786
 2265W        W74591  32.249  14.433   4.182
 2266W        W74592   6.194  21.828   3.845
 2267W        W74593  19.352   1.799  14.038
 2268W        W74594  24.486  34.380   0.401
 2269W        W74595  35.034  11.691   2.700
 2270W        W74596  39.921  11.857  11.971
 2271W        W74597  11.929  36.009   3.102
 2272W        W74598  30.563   8.519   1.892
 2273W        W74599  39.121  36.532   1.770
 2274W        W74600  26.155   2.006   0.802
 2275W        W74601  29.516  32.606  13.465
 2276W        W74602   0.266  30.982   3.874
 2277W        W74603  29.685   9.836   0.004
 2278W        W74604   3.972  32.127   2.743
 2279W        W74605   2.397   4.792   1.376
 2280W        W74606  32.551   7.373   0.238
 2281W        W74607  28.150  13.237   4.109
 2282W        W74608   9.722  21.152  13.496
 2283W        W74609  39.869  21.212  14.365
 2284W        W74610  28.135  27.734   5.022
 2285W        W74611  34.232  18.240   3.702
 2286W        W74612  19.565  37.771   4.215
 2287W        W74613  16.991  43.930   4.030
 2288W        W74614  31.058  42.327  12.180
 2289W        W74615   3.726  35.417  14.424
 2290W        W74616  21.158  18.867   4.579
 2291W        W74617  36.798  43.981  10.327
 2292W        W74618  19.228  22.839   2.251
 2293W        W74619   9.449  16.156   4.217
 2294W        W74620  22.513  37.837  12.109
 2295W        W74621  31.671  27.144   0.408
 2296W        W74622   7.820  11.156  13.780
 2297W        W74623  22.631  29.933   2.297
 2298W        W74624  38.324  36.370  11.165
 2299W        W74625  43.710  19.995   2.785
 2300W        W74626  22.082  37.297  12.418
 2301W        W74627  15.821  23.677   3.135
 2302W        W74628  34.431   0.387  11.511
 2303W        W74629  42.209  22.233   1.423
 2304W        W74630  15.256  43.461  11.871
 2305W        W74631   1.108  38.938   3.793
 2306W        W74632  25.520  31.973   2.834
 2307W        W74633   4.294  11.650   4.212
 2308W        W74634   8.416  31.253  13.585
 2309W        W74635  16.252  44.783  13.615
 2310W        W74636   1.316  29.180  10.199
 2311W        W74637  43.210  43.432   3.346
 2312W        W74638  39.685  25.390  11.094
 2313W        W74639  42.489  20.792   3.369
 2314W        W74640  30.429   5.984  11.899
 2315W        W74641  25.289   1.557  12.052
 2316W        W74642  11.867  21.081   2.486
 2317W        W74643  35.120  21.277  11.432
 2318W        W74644  12.929  26.032   3.687
 2319W        W74645  44.387  33.567  14.498
 2320W        W74646  42.901  40.452   3.425
 2321W        W74647   3.520  37.210   0.843
 2322W        W74648  42.397   4.479   3.772
 2323W        W74649   8.768  19.663  10.318
 2324W        W74650  34.652  25.672  13.076
 2325W        W74651  21.223  14.723  12.448
 2326W        W74652  28.617  41.519   1.593
 2327W        W74653  33.928  43.359  10.758
 2328W        W74654  22.267  27.492   0.207
 2329W        W74655  44.268   0.023   3.373
 2330W        W74656  32.883  24.385   0.441
 2331W        W74657  41.967  24.046  13.329
 2332W        W74658  22.599  11.165   0.656
 2333W        W74659   6.771  23.103  10.524
 2334W        W74660  23.772  37.390  12.406
 2335W        W74661   5.802  41.297   1.169
 2336W        W74662   9.301  17.300  11.140
 2337W        W74663  21.510  33.961   4.856
 2338W        W74664  41.601  20.031   2.685
 2339W        W74665  44.880  28.540   2.635
 2340W        W74666  21.799  26.714  11.289
 2341W        W74667  26.427   1.528  11.490
 2342W        W74668  30.541   0.382   4.700
 2343W        W74669   3.047  35.961   4.492
 2344W        W74670  13.687  39.795   0.433
 2345W        W74671  11.896  38.950  10.146
 2346W        W74672  21.721  17.687  13.115
 2347W        W74673  26.277  30.177  14.351
 2348W        W74674  32.467  20.243  13.123
 2349W        W74675   3.419   2.919  12.786
 2350W        W74676  12.586  21.478   0.836
 2351W        W74677   1.287  33.435   1.300
 2352W        W74678  15.073  23.100   3.320
 2353W        W74679  37.286  35.473  12.050
 2354W        W74680  11.811   4.124   0.913
 2355W        W74681   7.801  23.220   1.803
 2356W        W74682  39.153  13.792  12.067
 2357W        W74683  40.540  26.621  11.960
 2358W        W74684   3.020  24.441   2.192
 2359W        W74685  24.832  17.610   4.592
 2360W        W74686  37.194  31.599   0.326
 2361W        W74687  11.454  32.849  14.376
 2362W        W74688   1.110  15.495   4.595
 2363W        W74689   7.389  37.123   4.575
 2364W        W74690  33.129  17.789  12.572
 2365W        W74691  13.791   2.879  14.098
 2366W        W74692   7.494  13.529  12.413
 2367W        W74693  37.832  21.181   0.512
 2368W        W74694  39.339  19.723  12.432
 2369W        W74695   7.330   3.759  14.078
 2370W        W74696  19.837  25.716  14.045
 2371W        W74697  38.082  38.583  13.396
 2372W        W74698  34.980  42.872   0.447
 2373W        W74699   7.139  33.995  11.907
 2374W        W74700  25.574   6.823  10.753
 2375W        W74701   6.273   5.925  12.328
 2376W        W74702  24.778  23.634  13.801
 2377W        W74703   2.972  14.820   1.243
 2378W        W74704  14.285  43.555   1.677
 2379W        W74705  44.315  42.087  14.682
 2380W        W74706  42.996  22.239   4.769
 2381W        W74707  18.278  39.594   1.910
 2382W        W74708  21.560  19.807  12.483
 2383W        W74709  33.458  39.805   0.892
 2384W        W74710  29.026  23.428  11.135
 2385W        W74711  29.866   9.746  12.882
 2386W        W74712  30.181   9.654  12.000
 2387W        W74713   3.765  31.965  13.352
 2388W        W74714  31.499   3.005   0.914
 2389W        W74715  22.724   4.878  12.876
 2390W        W74716   2.388   8.885   1.002
 2391W        W74717  23.516   6.903   0.910
 2392W        W74718   6.743  43.225   3.249
 2393W        W74719  39.906  34.037  13.116
 2394W        W74720  15.710  19.383  13.468
 2395W        W74721  20.717   9.721   2.931
 2396W        W74722  31.775  32.480   4.565
 2397W        W74723  22.437  33.547  13.284
 2398W        W74724  36.564   8.800  13.355
 2399W        W74725  23.642  18.310   2.571
 2400W        W74726   8.629  19.155  13.456
 2401W        W74727   7.779   5.118  10.978
 2402W        W74728  19.513  19.831   0.051
 2403W        W74729   2.351  20.689   2.642
 2404W        W74730  10.230  17.097   0.380
 2405W        W74731  33.948  18.676   3.558
 2406W        W74732  37.489  44.269   0.614
 2407W        W74733   7.553  26.194  13.501
 2408W        W74734  40.779  40.324  12.498
 2409W        W74735   9.353   3.895  13.089
 2410W        W74736  30.801  27.054   4.922
 2411W        W74737   9.233  35.604   0.971
 2412W        W74738  29.994   9.993   2.809
 2413W        W74739   3.395   4.217   2.654
 2414W        W74740  27.767  32.655  11.018
 2415W        W74741  17.678  21.784  13.592
 2416W        W74742  12.613   2.516  13.613
 2417W        W74743  24.068  25.083   0.778
 2418W        W74744  44.890  19.807   3.337
 2419W        W74745   3.197  28.717   1.469
 2420W        W74746   5.270  25.673   4.540
 2421W        W74747  25.198  10.870   4.780
 2422W        W74748  14.708  18.145  13.598
 2423W        W74749  23.187  42.252  12.601
 2424W        W74750  15.369  28.446  12.058
 2425W        W74751  31.239   2.884   2.853
 2426W        W74752  43.849   4.937  13.036
 2427W        W74753  21.586  28.697   3.621
 2428W        W74754   1.408  12.869  12.497
 2429W        W74755  38.583   5.637  14.269
 2430W        W74756   8.289   8.686  13.827
 2431W        W74757   9.284  24.478  10.427
 2432W        W74758   4.706  18.031  12.828
 2433W        W74759  34.872  16.578   4.587
 2434W        W74760  18.343  44.356   4.101
 2435W        W74761  24.656   4.009   0.483
 2436W        W74762  32.390  41.091   2.179
 2437W        W74763  33.437  22.502   4.488
 2438W        W74764  10.843   3.914   0.435
 2439W        W74765  31.853   2.168   1.468
 2440W        W74766   5.919   6.337  10.986
 2441W        W74767   9.159  42.490  13.878
 2442W        W74768  44.915  10.169   4.744
 2443W        W74769  43.183  21.154   3.317
 2444W        W74770  43.212  39.468   2.820
 2445W        W74771  24.756  11.283   1.361
 2446W        W74772  35.284  34.394  13.989
 2447W        W74773  29.460  41.029   2.841
 2448W        W74774  23.124  14.036  14.488
 2449W        W74775  16.926  26.866   0.524
 2450W        W74776   8.672  15.570  14.349
 2451W        W74777  13.725  14.247   1.317
 2452W        W74778  10.307   6.721  11.293
 2453W        W74779  23.026  15.398   0.268
 2454W        W74780  30.189  35.923   3.589
 2455W        W74781  28.614  42.625  13.480
 2456W        W74782  32.057  41.651   4.312
 2457W        W74783  42.550  27.471   2.757
 2458W        W74784   6.466  27.840   3.053
 2459W        W74785   3.764  25.431  10.640
 2460W        W74786   5.719  39.755   0.469
 2461W        W74787   1.926  43.496   3.667
 2462W        W74788   4.836   6.877   3.218
 2463W        W74789   7.810  41.492  11.457
 2464W        W74790   6.455  23.105   1.753
 2465W        W74791  24.249   7.918  13.401
 2466W        W74792  44.955  26.672  12.988
 2467W        W74793  17.234  30.427   0.976
 2468W        W74794  19.215  38.272  14.861
 2469W        W74795  37.903  42.129   0.838
 2470W        W74796  12.133   5.462   3.299
 2471W        W74797  27.994   4.333   2.754
 2472W        W74798  31.021   4.205   4.110
 2473W        W74799   8.312  35.078  13.277
 2474W        W74800   8.629   5.281   0.113
 2475W        W74801  20.541  37.037   2.713
 2476W        W74802   0.720  26.948  14.569
 2477W        W74803  38.754  13.033   3.918
 2478W        W74804  23.043  16.744   3.806
 2479W        W74805  39.431   6.024  13.484
 2480W        W74806  22.049  11.337  14.807
 2481W        W74807  13.759   0.502   3.299
 2482W        W74808  15.004  20.532   1.281
 2483W        W74809  40.521  43.772  11.225
 2484W        W74810  33.063  17.606  13.055
 2485W        W74811  32.454  33.858  12.231
 2486W        W74812  18.604  10.228   1.250
 2487W        W74813  21.578  18.518  13.010
 2488W        W74814  23.499   4.890  13.752
 2489W        W74815  24.642   5.236   2.261
 2490W        W74816  17.583  32.903   2.388
 2491W        W74817  26.277   9.724  11.508
 2492W        W74818   1.096   1.308  13.473
 2493W        W74819  12.910  25.061  12.165
 2494W        W74820  22.757  33.832  11.015
 2495W        W74821  21.097   3.824   1.351
 2496W        W74822  23.191  35.631   2.358
 2497W        W74823  38.056  44.546  13.735
 2498W        W74824  13.707  12.895   2.779
 2499W        W74825  35.615  43.369   0.037
 2500W        W74826  25.062  12.337   1.847
 2501W        W74827  36.539  32.424  14.485
 2502W        W74828   6.393   9.533  12.926
 2503W        W74829   0.425  31.820  11.180
 2504W        W74830   7.381  13.074  12.858
 2505W        W74831  22.267  34.025  11.024
 2506W        W74832   9.494  34.877  11.530
 2507W        W74833  36.277  39.141   4.727
 2508W        W74834   7.666   5.930  13.460
 2509W        W74835  28.220   5.893  14.367
 2510W        W74836   7.611  37.226  10.243
 2511W        W74837   8.870  37.318  12.370
 2512W        W74838  23.368  22.669   1.866
 2513W        W74839  17.795   8.094   0.106
 2514W        W74840  30.039   8.261   4.162
 2515W        W74841  18.869  32.461   1.363
 2516W        W74842  11.497  25.907   4.208
 2517W        W74843  41.260  33.360  14.900
 2518W        W74844  12.037  33.405   3.641
 2519W        W74845  14.782   4.659  13.560
 2520W        W74846  26.465  39.947   4.874
 2521W        W74847   0.517   6.468   1.248
 2522W        W74848  13.092  39.439   1.576
 2523W        W74849  39.987  44.127   0.378
 2524W        W74850  26.108  17.532  11.143
 2525W        W74851  41.359  21.214  12.141
 2526W        W74852  38.923   2.854   4.250
 2527W        W74853  40.942  36.778  14.243
 2528W        W74854  33.595  19.663   3.778
 2529W        W74855  26.378  20.313  11.319
 2530W        W74856  24.217  40.102   1.774
 2531W        W74857  13.621  27.536  14.563
 2532W        W74858  18.193   3.169  11.139
 2533W        W74859  30.181  40.024  12.385
 2534W        W74860  17.376  32.044   3.282
 2535W        W74861  28.314  43.805   0.811
 2536W        W74862  18.702   0.010   3.555
 2537W        W74863  39.546  27.543   0.050
 2538W        W74864  14.429  30.562  13.691
 2539W        W74865  38.539  16.270  12.134
 2540W        W74866  42.036   2.250  13.849
 2541W        W74867  30.948  42.539  10.688
 2542W        W74868   3.513  28.074  11.097
 2543W        W74869   5.466  44.352  10.610
 2544W        W74870  30.414  26.170   1.252
 2545W        W74871  34.053  29.475  14.736
 2546W        W74872  43.616  41.911   0.418
 2547W        W74873   5.455  24.495  14.775
 2548W        W74874   9.374  35.519   4.651
 2549W        W74875  27.566  10.413  13.723
 2550W        W74876  28.955  29.183   2.965
 2551W        W74877   5.168  43.747   3.762
 2552W        W74878  27.505  12.287   4.990
 2553W        W74879   5.445  20.590  12.980
 2554W        W74880  43.350  35.770  11.478
 2555W        W74881   7.421  36.569   4.574
 2556W        W74882  36.770  33.417  12.484
 2557W        W74883  21.358  18.958   2.713
 2558W        W74884  35.533   1.480   0.469
 2559W        W74885  32.262   7.860   2.359
 2560W        W74886  21.820   0.537   0.103
 2561W        W74887  15.806  26.568  11.899
 2562W        W74888  28.205  26.991  11.281
 2563W        W74889   5.031  36.621  11.172
 2564W        W74890   5.645  36.428   3.428
 2565W        W74891  23.801  23.529  12.572
 2566W        W74892  12.833  11.144   4.395
 2567W        W74893  23.139  16.720   4.311
 2568W        W74894   5.193  13.700  11.148
 2569W        W74895  25.863   5.545  13.987
 2570W        W74896   0.979   0.342   1.783
 2571W        W74897  29.621  30.024   3.265
 2572W        W74898  30.670  17.945   0.496
 2573W        W74899   2.631  36.267  14.286
 2574W        W74900  19.048  38.528  12.363
 2575W        W74901  38.079  41.225   0.970
 2576W        W74902  19.591  10.310   3.810
 2577W        W74903  32.064  19.377  13.314
 2578W        W74904  38.935  19.909  13.810
 2579W        W74905  28.657   0.958  13.494
 2580W        W74906  34.746  15.864   2.914
 2581W        W74907  17.369  17.247  10.708
 2582W        W74908  35.477  27.476   1.260
 2583W        W74909   3.291   7.211   0.654
 2584W        W74910  17.780  43.348  13.492
 2585W        W74911   6.617  20.954   1.395
 2586W        W74912   0.924  10.940   3.475
 2587W        W74913  19.344  26.245  11.615
 2588W        W74914  34.096  13.243  12.419
 2589W        W74915  42.232   5.693   4.321
 2590W        W74916  27.251  40.413   4.181
 2591W        W74917  35.532  16.167   3.241
 2592W        W74918  36.248  39.658   4.802
 2593W        W74919  41.835  15.461   9.999
 2594W        W74920  14.697  16.644  13.993
 2595W        W74921  41.848  17.639  13.805
 2596W        W74922  10.030  19.023  14.424
 2597W        W74923  44.996  44.241  13.953
 2598W        W74924  17.268  18.077  10.679
 2599W        W74925  19.923   0.925  11.581
 2600W        W74926  23.696  10.679  12.175
 2601W        W74927  18.169  27.309  12.425
 2602W        W74928   3.549  34.626   1.625
 2603W        W74929  37.100  17.169   0.330
 2604W        W74930  34.538   6.154   4.348
 2605W        W74931   5.443   9.563  13.011
 2606W        W74932   6.348   7.285   4.728
 2607W        W74933   3.676  40.858   2.726
 2608W        W74934  44.492  18.635  10.249
 2609W        W74935  39.286  13.117   3.323
 2610W        W74936  35.575  37.373  10.614
 2611W        W74937  42.325   4.991  12.547
 2612W        W74938  40.146  43.750   3.613
 2613W        W74939  41.987  32.993  14.473
 2614W        W74940  27.035  18.546   4.156
 2615W        W74941  29.896  36.908  14.062
 2616W        W74942  44.349  21.178   2.269
 2617W        W74943   5.424  26.886  11.099
 2618W        W74944  33.614  26.056   1.687
 2619W        W74945  44.362  36.862   4.875
 2620W        W74946  43.944  43.257   2.747
 2621W        W74947  42.440   2.284   4.770
 2622W        W74948  43.395  13.557   2.423
 2623W        W74949  24.515  17.563  11.949
 2624W        W74950  12.918  23.290   2.186
 2625W        W74951  43.197  12.789  13.936
 2626W        W74952  33.416  31.065  11.725
 2627W        W74953  37.035  14.930  14.788
 2628W        W74954  40.425  22.980  12.519
 2629W        W74955  34.843  25.980   4.067
 2630W        W74956  44.114  14.215  12.437
 2631W        W74957  31.290  31.698  13.025
 2632W        W74958  19.007  38.857  11.080
 2633W        W74959   1.752  39.765  12.504
 2634W        W74960  15.834  36.944   0.489
 2635W        W74961  17.545  30.464  10.718
 2636W        W74962  19.019  36.341   1.401
 2637W        W74963  17.741  40.334  12.082
 2638W        W74964  44.923  21.961  11.955
 2639W        W74965  37.973  23.036   1.001
 2640W        W74966  17.210  35.180  14.089
 2641W        W74967  27.997  38.784   3.685
 2642W        W74968  43.849   6.715   0.304
 2643W        W74969  20.031  37.005   3.772
 2644W        W74970  22.594  22.963   1.397
 2645W        W74971  31.971  16.793   2.159
 2646W        W74972  43.262  11.221  10.763
 2647W        W74973  11.212  38.050   1.393
 2648W        W74974  17.045  16.511  14.497
 2649W        W74975   7.097  43.368  13.034
 2650W        W74976  38.598  21.082  14.853
 2651W        W74977   4.646  12.746   3.378
 2652W        W74978   2.937  41.810  12.038
 2653W        W74979  39.612  12.666  11.053
 2654W        W74980  19.296  12.179   1.771
 2655W        W74981  37.745   1.873  12.934
 2656W        W74982  35.603  22.510   3.388
 2657W        W74983  33.835  35.066   4.493
 2658W        W74984   1.326  39.506  13.800
 2659W        W74985  28.062  42.244  13.285
 2660W        W74986  33.503  15.634  13.545
 2661W        W74987  24.017  10.754  14.419
 2662W        W74988   1.413   8.288  11.707
 2663W        W74989  28.520  24.008  14.733
 2664W        W74990  41.989  26.244  14.925
 2665W        W74991  27.619  42.336   0.439
 2666W        W74992   2.785  21.990   4.136
 2667W        W74993  36.958   5.700  12.153
 2668W        W74994  22.637  35.947  14.938
 2669W        W74995  40.386  17.658   0.543
 2670W        W74996  43.161  10.863  11.901
 2671W        W74997   5.900  14.579  11.489
 2672W        W74998  24.685  29.669  13.458
 2673W        W74999  41.377  13.817  12.588
 2674W        W75000  32.014  37.220   1.790
 2675W        W75001  14.358  33.091  14.476
 2676W        W75002  32.457  14.019  14.400
 2677W        W75003  35.784  42.962  13.569
 2678W        W75004  16.092  24.119  12.449
 2679W        W75005   6.505  10.345   4.145
 2680W        W75006  11.681   7.497  12.424
 2681W        W75007  12.525  26.145   5.021
 2682W        W75008  33.077  19.599  13.373
 2683W        W75009  35.897  10.351  12.047
 2684W        W75010  33.954  23.847   4.246
 2685W        W75011  23.576  29.675   3.083
 2686W        W75012   8.105  42.289  10.915
 2687W        W75013  26.062  28.414   4.078
 2688W        W75014  13.731   1.519  14.352
 2689W        W75015  14.485   7.163   1.012
 2690W        W75016  31.154  21.290   3.836
 2691W        W75017   1.202  40.838  13.993
 2692W        W75018  36.016  19.316   3.769
 2693W        W75019  22.716  10.505  11.063
 2694W        W75020  29.013  15.678  10.714
 2695W        W75021  19.812  10.939  14.973
 2696W        W75022  41.890   3.915   1.658
 2697W        W75023  15.827  22.017  10.595
 2698W        W75024  39.896  43.794  14.990
 2699W        W75025   6.153   7.781   2.595
 2700W        W75026  31.692  29.593  14.995
 2701W        W75027  11.525  30.912  12.841
 2702W        W75028  29.774   1.181  13.085
 2703W        W75029   1.613  27.069  13.395
 2704W        W75030  21.601  12.211   3.159
 2705W        W75031  42.510  22.085   3.730
 2706W        W75032  29.651  42.717   3.208
 2707W        W75033  33.986  25.618   3.875
 2708W        W75034  35.284  11.127   0.705
 2709W        W75035   2.346  26.819  13.579
 2710W        W75036  29.196  26.430  14.542
 2711W        W75037   4.145  43.481   4.637
 2712W        W75038   9.647  35.786   2.174
 2713W        W75039  13.655  10.860   3.696
 2714W        W75040  14.765  36.070  11.964
 2715W        W75041  41.845  28.200  11.219
 2716W        W75042  30.673   2.282  13.987
 2717W        W75043  34.138  20.755  14.396
 2718W        W75044  13.841  42.556  14.879
 2719W        W75045   7.385   9.538  12.298
 2720W        W75046  28.120  27.715  11.588
 2721W        W75047   4.278  43.885   3.218
 2722W        W75048  11.775   6.373   4.167
 2723W        W75049  22.595  12.287  14.861
 2724W        W75050   4.358  29.277  13.502
 2725W        W75051   7.090  14.350   1.306
 2726W        W75052  23.963  34.544   0.474
 2727W        W75053  30.901   7.247   2.255
 2728W        W75054  22.118  13.395   4.250
 2729W        W75055   3.899  44.715  14.807
 2730W        W75056  23.702  42.714  14.833
 2731W        W75057  18.665  31.654   2.877
 2732W        W75058  34.947   7.819   1.847
 2733W        W75059  35.525  44.533   3.844
 2734W        W75060  13.319  10.133  12.375
 2735W        W75061   2.078  27.298   1.316
 2736W        W75062   4.286  15.053   2.289
 2737W        W75063   5.995  22.038   1.686
 2738W        W75064  20.520  34.049   0.041
 2739W        W75065  12.780  30.754  10.742
 2740W        W75066  13.566  11.035  12.889
 2741W        W75067   3.877  29.995   0.905
 2742W        W75068   4.943   0.036   2.785
 2743W        W75069  41.805  30.403   0.310
 2744W        W75070   8.103  10.703  11.506
 2745W        W75071  17.610  12.809  10.585
 2746W        W75072   8.699  20.997   1.800
 2747W        W75073  24.643  17.105  13.973
 2748W        W75074  22.119  44.788  14.078
 2749W        W75075  15.603  20.723   3.699
 2750W        W75076  39.182  32.907  11.603
 2751W        W75077  29.551  43.796   1.281
 2752W        W75078  21.617  29.305  10.706
 2753W        W75079  33.304  31.510   5.016
 2754W        W75080   0.809  11.371   1.670
 2755W        W75081  11.608  40.299  12.972
 2756W        W75082  20.126  33.841   2.257
 2757W        W75083  31.970  18.196  10.627
 2758W        W75084  37.210  24.416  14.404
 2759W        W75085   7.470  42.399  12.058
 2760W        W75086   6.215  15.896  14.653
 2761W        W75087  24.783  41.699   1.178
 2762W        W75088  15.313  33.638  14.094
 2763W        W75089  12.768  36.632   1.833
 2764W        W75090   7.326  19.542   0.581
 2765W        W75091  22.091  11.223   1.878
 2766W        W75092   7.822  20.841  10.487
 2767W        W75093   4.940  31.652   4.184
 2768W        W75094  19.286  23.659   2.878
 2769W        W75095  40.107  15.566   4.889
 2770W        W75096  41.426  27.000   3.144
 2771W        W75097  32.893  31.801  14.516
 2772W        W75098  26.504   8.274  14.411
 2773W        W75099  35.035  19.201  10.702
 2774W        W75100  17.699  44.937  10.779
 2775W        W75101  44.854  38.678  10.353
 2776W        W75102  31.140  34.126  13.032
 2777W        W75103  13.300  36.937  11.001
 2778W        W75104   1.268   4.310   3.748
 2779W        W75105  23.953   5.058  13.992
 2780W        W75106  30.459   3.687  12.512
 2781W        W75107  39.964  33.486   0.899
 2782W        W75108  11.123  19.771   0.489
 2783W        W75109  11.048  27.342  11.141
 2784W        W75110  37.471  29.026  14.983
 2785W        W75111   6.294  32.585   4.881
 2786W        W75112  35.493  42.477  11.059
 2787W        W75113   3.004  28.148  11.146
 2788W        W75114  40.958   8.711   3.656
 2789W        W75115  16.807  35.403   3.716
 2790W        W75116  18.265  33.110  10.576
 2791W        W75117  26.962  42.352  12.655
 2792W        W75118  24.163   7.726   4.527
 2793W        W75119  35.607  26.438  11.225
 2794W        W75120  21.095  44.253  12.700
 2795W        W75121  10.308  36.412  12.530
 2796W        W75122  37.238  29.142  13.555
 2797W        W75123   8.377  35.499  12.980
 2798W        W75124  13.903  35.304  11.454
 2799W        W75125   0.680  36.479   4.010
 2800W        W75126  37.556  11.095  11.041
 2801W        W75127  16.560   7.288  12.518
 2802W        W75128  36.798  10.514  11.558
 2803W        W75129  30.230  41.011  14.455
 2804W        W75130  15.513  27.192  10.429
 2805W        W75131  37.930  21.099  11.019
 2806W        W75132  43.006  25.902  11.336
 2807W        W75133   3.250  44.877  10.663
 2808W        W75134  32.724  37.988  14.309
 2809W        W75135  12.571  12.663   1.960
 2810W        W75136  42.527  19.847  10.518
 2811W        W75137  28.081  28.476  13.574
 2812W        W75138  30.448  16.499   0.712
 2813W        W75139  17.922  34.365   3.195
 2814W        W75140  11.820  42.803  14.451
 2815W        W75141  27.064   1.443  14.064
 2816W        W75142  36.055  43.016   3.222
 2817W        W75143  25.528  35.119  13.925
 2818W        W75144  37.831  19.128  11.427
 2819W        W75145  21.142  28.596   2.359
 2820W        W75146  34.314  36.986  14.543
 2821W        W75147  29.134  26.077  12.999
 2822W        W75148  39.317  20.211   4.914
 2823W        W75149  20.511  35.055  12.910
 2824W        W75150  32.980   7.450   2.413
 2825W        W75151  40.794  36.475  13.312
 2826W        W75152  19.253   5.348  13.362
 2827W        W75153   1.709   2.158  13.715
 2828W        W75154  42.083   0.540  14.820
 2829W        W75155  11.399  26.181  12.189
 2830W        W75156  22.566   2.666   0.342
 2831W        W75157   0.554  21.248   4.218
 2832W        W75158   3.296  23.596   0.421
 2833W        W75159  13.791  15.286  13.750
 2834W        W75160  10.772  32.796  13.750
 2835W        W75161   6.672  10.301   1.270
 2836W        W75162  41.442  26.068   3.084
 2837W        W75163   0.326  24.248   1.710
 2838W        W75164  25.019  24.620  10.739
 2839W        W75165  15.689  40.541   3.111
 2840W        W75166   1.235   4.306  14.178
 2841W        W75167   2.838  23.693  10.231
 2842W        W75168  26.115  21.772   3.754
 2843W        W75169  25.156  38.521   0.795
 2844W        W75170  29.988  19.096  11.134
 2845W        W75171  40.875  28.193  13.844
 2846W        W75172  18.161   4.697  11.558
 2847W        W75173  25.183   0.805  14.643
 2848W        W75174  36.162   6.405   0.858
 2849W        W75175  32.883  17.258   2.274
 2850W        W75176   3.331   2.306   2.344
 2851W        W75177  18.322  24.274  14.392
 2852W        W75178   1.539  42.469  11.985
 2853W        W75179  16.500  28.645   4.086
 2854W        W75180  35.486  42.545   4.783
 2855W        W75181  36.613  16.716  10.177
 2856W        W75182   3.274  10.373   2.675
 2857W        W75183  22.143  10.330   2.402
 2858W        W75184   0.022   7.091   5.108
 2859W        W75185  41.776  42.906  12.702
 2860W        W75186   4.933   9.887  11.873
 2861W        W75187  26.038  18.015  13.873
 2862W        W75188   0.024  17.861  13.745
 2863W        W75189  23.457  16.856   0.994
 2864W        W75190  35.336  32.351  14.897
 2865W        W75191  38.353  12.638  11.449
 2866W        W75192  21.575   1.780  14.790
 2867W        W75193  16.065  37.053  10.926
 2868W        W75194  35.149  33.263   1.816
 2869W        W75195   3.490   6.355  14.313
 2870W        W75196   0.075   8.895  11.107
 2871W        W75197  29.963  18.878   2.793
 2872W        W75198  15.854  14.066   4.529
 2873W        W75199   3.484   0.960   0.367
 2874W        W75200  14.514  22.155  10.979
 2875W        W75201  23.443  15.564   5.000
 2876W        W75202  27.134   6.799  12.347
 2877W        W75203  29.635  43.227   4.709
 2878W        W75204  23.037  31.515  14.246
 2879W        W75205  11.685  42.335   1.189
 2880W        W75206  33.465  20.219  14.419
 2881W        W75207  26.491  33.496  10.289
 2882W        W75208  23.857  18.498  13.968
 2883W        W75209   5.369   4.386  11.911
 2884W        W75210   6.823  17.351   1.838
 2885W        W75211   5.717  18.090  12.989
 2886W        W75212   7.117  15.656   2.955
 2887W        W75213  44.341  30.033   2.601
 2888W        W75214  30.503  37.874  14.915
 2889W        W75215  35.366  34.573   3.306
 2890W        W75216   5.397  17.328   4.104
 2891W        W75217   3.920  40.185   4.280
 2892W        W75218  43.959  15.158  11.836
 2893W        W75219  29.484  29.687  13.426
 2894W        W75220  41.078  10.748   1.842
 2895W        W75221  41.898  39.191   4.567
 2896W        W75222  12.882  39.987  11.060
 2897W        W75223  37.804  20.363  10.542
 2898W        W75224  40.053  20.857   4.493
 2899W        W75225  22.983  32.514   4.188
 2900W        W75226  25.603  22.675  10.673
 2901W        W75227  19.130  25.716  12.972
 2902W        W75228  19.136  16.045   2.799
 2903W        W75229  32.897   3.411   2.382
 2904W        W75230  34.316   3.733  13.473
 2905W        W75231  20.121  40.034   2.729
 2906W        W75232  23.440   9.877  11.495
 2907W        W75233  26.407  14.703   0.328
 2908W        W75234  15.425  38.924  13.854
 2909W        W75235  20.278   5.802  14.758
 2910W        W75236  30.992  36.110   0.849
 2911W        W75237  42.896   9.355  14.320
 2912W        W75238  29.459  42.418  13.814
 2913W        W75239  20.133  40.735   2.283
 2914W        W75240  26.643  32.947   3.733
 2915W        W75241  33.284  11.351   1.857
 2916W        W75242  37.872   2.775   4.414
 2917W        W75243  35.907   7.779  12.075
 2918W        W75244   2.536  24.668   2.778
 2919W        W75245   7.205  28.963  11.859
 2920W        W75246  11.905   3.771  14.069
 2921W        W75247  18.076   4.628  12.903
 2922W        W75248   8.322   7.222   4.855
 2923W        W75249   9.242  42.347  10.372
 2924W        W75250  15.505  15.176   1.973
 2925W        W75251   0.990  13.286   4.586
 2926W        W75252  28.710   0.137  13.898
 2927W        W75253   0.413  12.116  11.573
 2928W        W75254   8.550  17.660  13.396
 2929W        W75255  44.869  24.704  13.873
 2930W        W75256   3.988   3.721  14.494
 2931W        W75257   3.990  11.294   1.260
 2932W        W75258  20.293  44.495   4.172
 2933W        W75259  42.497  26.040   0.006
 2934W        W75260  13.753   6.146   4.554
 2935W        W75261  40.979  24.017   2.168
 2936W        W75262  29.388  27.730  13.535
 2937W        W75263   5.961  11.703   1.255
 2938W        W75264   3.726  22.854   4.559
 2939W        W75265  25.709  24.454  11.097
 2940W        W75266   3.115  17.270   0.241
 2941W        W75267   5.860  24.512   1.929
 2942W        W75268  17.093  37.949  14.330
 2943W        W75269  32.820  26.021  11.864
 2944W        W75270  44.805  20.660  14.891
 2945W        W75271  26.643  31.095  11.390
 2946W        W75272  36.137   3.402  11.571
 2947W        W75273  27.149  12.272   4.621
 2948W        W75274   0.361   2.633   2.312
 2949W        W75275  33.507  34.873  12.406
 2950W        W75276  30.035   2.301  14.620
 2951W        W75277   9.633  16.388   2.234
 2952W        W75278  21.940  36.810  12.547
 2953W        W75279  11.907  28.984  14.932
 2954W        W75280  26.537   9.587   1.295
 2955W        W75281  40.841  39.722  11.426
 2956W        W75282  28.976  33.444  13.419
 2957W        W75283  24.184  43.375   3.870
 2958W        W75284   1.949  43.181   1.652
 2959W        W75285   9.908  33.492   0.999
 2960W        W75286  29.523  19.172  11.407
 2961W        W75287   5.239  19.355   0.694
 2962W        W75288  16.392  37.746   0.655
 2963W        W75289   2.720   8.938   2.264
 2964W        W75290  33.875   1.181   2.726
 2965W        W75291  35.384   5.301   2.373
 2966W        W75292  31.914   2.349  14.584
 2967W        W75293   4.490  32.007  14.441
 2968W        W75294   6.090  35.571  12.631
 2969W        W75295   2.893  16.805  13.468
 2970W        W75296  25.815  40.263   1.109
 2971W        W75297  17.817  11.692  14.929
 2972W        W75298  24.694  24.762  13.549
 2973W        W75299  11.594  42.978  14.934
 2974W        W75300   4.817  35.144   0.287
 2975W        W75301  18.281  33.103   1.802
 2976W        W75302  31.452  35.314  11.010
 2977W        W75303  40.413  44.117  12.056
 2978W        W75304  40.981   8.847  12.544
 2979W        W75305  38.687  33.087  11.714
 2980W        W75306  11.359  24.960   9.983
 2981W        W75307  41.051  15.836   4.563
 2982W        W75308   2.478  35.384   0.421
 2983W        W75309  40.805  43.095  13.516
 2984W        W75310   4.422   0.385   3.707
 2985W        W75311  12.115   7.723  14.096
 2986W        W75312  37.016  15.046   3.207
 2987W        W75313   2.201  15.145   2.278
 2988W        W75314   9.594   6.238   1.261
 2989W        W75315  32.479  28.564   2.179
 2990W        W75316  27.048  12.891   4.552
 2991W        W75317  39.619  34.085  14.434
 2992W        W75318  14.081   8.667  14.903
 2993W        W75319   3.924   5.896  10.961
 2994W        W75320   4.922  19.358  12.313
 2995W        W75321  42.337   7.969  11.060
 2996W        W75322  21.785  36.302   4.303
 2997W        W75323  32.036  27.384   1.956
 2998W        W75324  30.365  16.195  11.986
 2999W        W75325  36.877   0.312   0.437
 3000W        W75326  29.905  23.654   4.055
 3001W        W75327  42.083   2.268  11.977
 3002W        W75328  29.622  22.524  14.006
 3003W        W75329  44.445   6.108   3.567
 3004W        W75330  12.408   9.117  12.620
 3005W        W75331  37.609   5.016   1.835
 3006W        W75332   7.153  21.098   3.003
 3007W        W75333  16.581   9.289   4.910
 3008W        W75334  24.017  10.237  10.243
 3009W        W75335  10.753  19.155   3.202
 3010W        W75336  15.819  35.850   3.843
 3011W        W75337  44.084   6.909  14.833
 3012W        W75338  40.032  17.917   0.793
 3013W        W75339  17.822  44.231  13.162
 3014W        W75340   8.702   6.890  11.036
 3015W        W75341  12.805  32.184  12.121
 3016W        W75342  19.821  18.216   1.015
 3017W        W75343  16.714  18.701   4.134
 3018W        W75344  20.035  14.047   3.317
 3019W        W75345  32.314   0.001  14.981
 3020W        W75346   3.990  34.439  12.995
 3021W        W75347  39.154  32.059  13.586
 3022W        W75348  11.161   6.782  12.449
 3023W        W75349  30.446  38.097  11.893
 3024W        W75350  15.735  16.898   2.843
 3025W        W75351  36.363   6.783   2.604
 3026W        W75352  32.614   3.409   1.951
 3027W        W75353  21.480  29.846   1.028
 3028W        W75354  21.704  18.972  14.684
 3029W        W75355  26.084   5.865  10.715
 3030W        W75356  38.675  18.808   1.062
 3031W        W75357  10.248  32.742  14.883
 3032W        W75358  43.092  32.188   3.569
 3033W        W75359   2.438   2.885  12.775
 3034W        W75360  19.528  36.098  12.818
 3035W        W75361  23.505  25.467  13.044
 3036W        W75362  36.361  32.971  11.862
 3037W        W75363   1.229  37.888   4.755
 3038W        W75364  32.102  39.581   4.653
 3039W        W75365  27.008   0.205  14.442
 3040W        W75366  41.024  20.359  12.802
 3041W        W75367  40.340  17.928  10.618
 3042W        W75368  14.548  27.174   0.949
 3043W        W75369  29.220  26.462   1.757
 3044W        W75370   8.407  37.166   2.582
 3045W        W75371  11.667  33.622   0.335
 3046W        W75372  24.115  15.071   1.009
 3047W        W75373  26.107  14.293   1.818
 3048W        W75374   5.176  37.637  12.070
 3049W        W75375  21.254   2.120   0.009
 3050W        W75376  40.392   4.134   4.534
 3051W        W75377  30.912  12.872   1.352
 3052W        W75378  44.940  23.346   0.650
 3053W        W75379  14.165  37.333  10.762
 3054W        W75380   6.680  26.999   0.745
 3055W        W75381  15.377  33.505   3.609
 3056W        W75382  33.362  12.977   0.829
 3057W        W75383  27.241   8.850  14.392
 3058W        W75384   1.330  25.210   1.362
 3059W        W75385   1.578  23.388   3.966
 3060W        W75386   2.745  20.197   3.687
 3061W        W75387   4.444   6.108  11.899
 3062W        W75388  10.230  23.781  11.909
 3063W        W75389   5.158  29.207  10.555
 3064W        W75390  42.367  19.693   2.654
 3065W        W75391   4.569  30.971   4.191
 3066W        W75392  28.013   4.439   4.642
 3067W        W75393  24.678  21.247   2.303
 3068W        W75394  22.552  44.827   1.273
 3069W        W75395  20.949  39.480  11.053
 3070W        W75396   5.654  13.364  14.133
 3071W        W75397  12.691  32.322  13.787
 3072W        W75398   3.188  33.979  12.124
 3073W        W75399  16.115  32.488   4.691
 3074W        W75400  14.110  33.582   2.430
 3075W        W75401  23.226  33.680   4.066
 3076W        W75402   1.908  38.328   3.867
 3077W        W75403  15.598   2.481  11.331
 3078W        W75404  41.773  31.115  14.956
 3079W        W75405   8.603  14.093   1.371
 3080W        W75406  27.397   7.302   3.870
 3081W        W75407  18.040   8.959   2.369
 3082W        W75408   2.525  25.904  11.455
 3083W        W75409   6.378  22.221   2.349
 3084W        W75410  14.200  14.690  14.947
 3085W        W75411   9.884  29.658  12.571
 3086W        W75412  43.842   4.687   0.496
 3087W        W75413  34.214   0.203  12.910
 3088W        W75414  10.857   4.875   1.412
 3089W        W75415  11.299  33.684  11.503
 3090W        W75416   3.400  34.317   1.222
 3091W        W75417   9.157  22.269   4.796
 3092W        W75418  14.697  42.452  11.595
 3093W        W75419  26.487  36.475   2.645
 3094W        W75420  11.202  11.033  11.463
 3095W        W75421  18.612  28.354  12.016
 3096W        W75422  42.571  12.292   3.771
 3097W        W75423   4.368  35.980  11.520
 3098W        W75424  17.741  34.318  13.417
 3099W        W75425  30.075  29.460  12.827
 3100W        W75426   2.915  14.137  14.467
 3101W        W75427  26.577  43.572   2.771
 3102W        W75428  42.211  29.638   4.560
 3103W        W75429  10.368  24.071   0.407
 3104W        W75430  29.049  41.820   4.604
 3105W        W75431  39.998  13.125  14.094
 3106W        W75432  22.817  11.817  12.386
 3107W        W75433  21.186  34.350  13.274
 3108W        W75434  11.770  27.109   5.082
 3109W        W75435  43.180  13.083   2.384
 3110W        W75436  29.113  31.599   4.038
 3111W        W75437  23.216  15.790  13.837
 3112W        W75438  28.195   0.936  14.557
 3113W        W75439  11.160  34.375  12.605
 3114W        W75440  36.897  27.259   4.279
 3115W        W75441   8.786  21.659  10.753
 3116W        W75442   9.728  38.074  11.244
 3117W        W75443   3.176  32.170  11.492
 3118W        W75444  27.308  20.192   3.149
 3119W        W75445  14.094   3.182  12.878
 3120W        W75446  12.647  29.590  14.539
 3121W        W75447  35.295  37.531  12.187
 3122W        W75448  33.275  17.960   2.737
 3123W        W75449  11.578  23.724   3.226
 3124W        W75450  10.872  22.157   0.880
 3125W        W75451  12.091   1.338  12.876
 3126W        W75452  31.859  28.602   3.320
 3127W        W75453  36.833   2.657  14.575
 3128W        W75454  15.114  34.455   2.183
 3129W        W75455  16.059  22.218  11.054
 3130W        W75456  14.766   3.350  12.127
 3131W        W75457   4.266   9.382  11.387
 3132W        W75458  15.731  36.408  12.378
 3133W        W75459  42.414  24.676  11.865
 3134W        W75460  18.354  34.510   1.307
 3135W        W75461  16.699  35.810  14.368
 3136W        W75462  35.449  35.922   1.383
 3137W        W75463  38.808  12.681   2.941
 3138W        W75464  30.771  38.545   4.114
 3139W        W75465  11.764  41.822   2.854
 3140W        W75466  16.166  15.863  12.510
 3141W        W75467  29.551  12.492   2.597
 3142W        W75468  11.924  25.187  11.136
 3143W        W75469  10.658  42.573  10.751
 3144W        W75470  28.408  15.702   4.612
 3145W        W75471  36.334  26.277   3.525
 3146W        W75472  27.344  32.364   0.297
 3147W        W75473  28.632  43.880   3.272
 3148W        W75474   8.728  26.631   0.307
 3149W        W75475   3.964  21.806   4.712
 3150W        W75476   4.903  11.784  11.615
 3151W        W75477  17.100  24.256  11.715
 3152W        W75478  33.570   8.225   3.143
 3153W        W75479  35.429  36.829  12.971
 3154W        W75480  28.612  22.325   1.650
 3155W        W75481  33.198  22.486   3.212
 3156W        W75482  16.490  38.444  12.018
 3157W        W75483  38.565  13.750  11.333
 3158W        W75484  15.677  16.353   0.830
 3159W        W75485   0.619  28.580  13.588
 3160W        W75486  34.003   0.818   4.740
 3161W        W75487  38.551  44.484  13.948
 3162W        W75488  32.582  21.665   1.908
 3163W        W75489  37.326  19.619  13.337
 3164W        W75490   2.403  44.875   4.667
 3165W        W75491  40.265  32.041   3.359
 3166W        W75492  15.523  20.606  12.402
 3167W        W75493  22.727   4.872  11.831
 3168W        W75494  41.332   0.285  14.796
 3169W        W75495  11.720  38.875  14.825
 3170W        W75496   2.932   4.822   1.244
 3171W        W75497   7.750  15.584  12.252
 3172W        W75498   9.914   1.343  13.371
 3173W        W75499  18.380  24.740  13.731
 3174W        W75500  42.262  10.567   0.424
 3175W        W75501  42.976  11.961  11.084
 3176W        W75502  43.269  20.656   1.259
 3177W        W75503   6.055  19.099   2.222
 3178W        W75504  34.868  32.142   3.279
 3179W        W75505  41.077  26.479   3.512
 3180W        W75506   5.413  13.618   2.658
 3181W        W75507   2.395   0.819  10.722
 3182W        W75508  21.446  17.642   2.840
 3183W        W75509  20.567   5.122  13.426
 3184W        W75510  43.854  34.021  12.609
 3185W        W75511  31.602  37.520   1.762
 3186W        W75512  24.069  40.977  11.182
 3187W        W75513  18.366  12.753  12.678
 3188W        W75514   5.782  28.103  14.062
 3189W        W75515  21.323   6.422   2.235
 3190W        W75516  12.582  35.707  12.576
 3191W        W75517   7.390  20.777   3.343
 3192W        W75518  15.332  21.042  10.974
 3193W        W75519  20.591  23.056   1.905
 3194W        W75520  41.924  16.508  13.742
 3195W        W75521  37.954  37.157  11.040
 3196W        W75522  20.813  38.052   2.651
 3197W        W75523  37.881  14.793   2.708
 3198W        W75524   0.988  15.194   0.300
 3199W        W75525  22.747  40.461   4.812
 3200W        W75526  15.020  33.960   2.834
 3201W        W75527  41.449  14.603   5.040
 3202W        W75528   0.091  16.105  11.085
 3203W        W75529  25.172  39.196   9.956
 3204W        W75530  21.116  14.054   2.195
 3205W        W75531  28.899  26.633  11.386
 3206W        W75532   4.052   3.217   5.338
 3207W        W75533  23.223  33.042   1.778
 3208W        W75534  39.279  12.072   5.347
 3209W        W75535   8.890  33.122  11.310
 3210W        W75536  15.076  12.157  14.746
 3211W        W75537  15.602  43.803   1.558
 3212W        W75538   6.730  19.288   3.138
 3213W        W75539  40.843   1.368  10.572
 3214W        W75540  39.217  31.493  10.601
 3215W        W75541  34.424  10.841  10.721
 3216W        W75542  28.019   0.764  12.457
 3217W        W75543  10.263  23.074   2.831
 3218W        W75544   5.447  24.163   2.707
 3219W        W75545  35.211  22.697  12.038
 3220W        W75546  15.834  10.077  11.809
 3221W        W75547  13.675  13.137  14.307
 3222W        W75548  41.372  42.350   4.129
 3223W        W75549  29.331  27.393  10.272
 3224W        W75550  39.312  41.777  11.005
 3225W        W75551  44.690   6.870   1.269
 3226W        W75552  20.236  36.040   0.261
 3227W        W75553  34.823  31.537  13.358
 3228W        W75554  15.398  41.378  14.336
 3229W        W75555  17.989  27.583   0.008
 3230W        W75556  27.705  25.760  10.048
 3231W        W75557   9.834  29.500  13.944
 3232W        W75558  17.582  29.919  11.969
 3233W        W75559  35.745  42.495  13.843
 3234W        W75560  30.674   6.335  12.962
 3235W        W75561  17.249  20.290  11.202
 3236W        W75562  41.737  34.103  14.396
 3237W        W75563  19.971  24.090  14.866
 3238W        W75564  15.550  35.917  13.487
 3239W        W75565  31.533  12.313   2.456
 3240W        W75566  24.170   2.717   3.337
 3241W        W75567   2.869  10.338   2.347
 3242W        W75568  42.322  15.532  10.168
 3243W        W75569  42.791  44.044  11.077
 3244W        W75570  19.039  13.547  14.695
 3245W        W75571  10.611   4.118   0.856
 3246W        W75572   9.554  37.232  11.143
 3247W        W75573   3.140  19.678   3.810
 3248W        W75574   8.244  42.929  14.898
 3249W        W75575  14.022  27.945   1.891
 3250W        W75576  44.063  19.357   1.771
 3251W        W75577   0.941  42.434  12.970
 3252W        W75578  42.534  20.417   4.883
 3253W        W75579  30.142  39.602  14.059
 3254W        W75580  20.834  44.729  13.936
 3255W        W75581  39.132  10.789   5.695
 3256W        W75582  40.349  31.585  11.100
 3257W        W75583   5.171  40.974   3.661
 3258W        W75584  34.970  26.562  10.726
 3259W        W75585   0.828   7.181   3.273
 3260W        W75586  30.351  42.535   4.154
 3261W        W75587  13.696   4.174  14.785
 3262W        W75588   7.642  33.128   4.704
 3263W        W75589   0.596  40.055   4.640
 3264W        W75590   3.877  37.343  12.600
 3265W        W75591  26.603  35.024  13.520
 3266W        W75592  32.611  20.519   3.154
 3267W        W75593  25.535  28.009  14.538
 3268W        W75594   1.550  33.709  13.449
 3269W        W75595  22.780   8.776   1.654
 3270W        W75596  16.622   9.737   4.596
 3271W        W75597  16.489  33.993  11.604
 3272W        W75598  28.521  17.314  13.397
 3273W        W75599  34.492  32.645   1.425
 3274W        W75600  13.730  19.171   0.412
 3275W        W75601  40.730   3.878  12.910
 3276W        W75602   1.484   6.675   2.720
 3277W        W75603  44.467   8.736   2.110
 3278W        W75604  30.907   0.432  10.416
 3279W        W75605   0.698  24.700  11.111
 3280W        W75606  20.495  24.482  12.875
 3281W        W75607  30.473   5.847  13.217
 3282W        W75608  30.029  41.569  11.176
 3283W        W75609  30.338   3.000   4.162
 3284W        W75610  30.742  28.124  14.390
 3285W        W75611  18.539  13.161  13.611
 3286W        W75612  36.915   8.892  14.343
 3287W        W75613   9.362  41.051  13.804
 3288W        W75614  40.875  26.524  14.965
 3289W        W75615  31.449  27.750   4.107
 3290W        W75616   8.426  43.833   3.759
 3291W        W75617   2.161  24.623   4.525
 3292W        W75618  35.292   3.795   1.616
 3293W        W75619  17.052  35.551   0.338
 3294W        W75620  11.535  31.517   1.772
 3295W        W75621  10.391  13.694   1.301
 3296W        W75622  35.437  14.297  10.665
 3297W        W75623  26.077  36.522   2.327
 3298W        W75624  44.901  35.398   3.867
 3299W        W75625  13.417  42.912   3.765
 3300W        W75626  27.891  22.599   0.544
 3301W        W75627  10.663  27.503   1.918
 3302W        W75628  10.420  21.520   1.333
 3303W        W75629  37.964  37.286   5.400
 3304W        W75630  36.511   8.663   9.971
 3305W        W75631   5.883  39.792   2.230
 3306W        W75632  34.676  16.556   3.289
 3307W        W75633   2.777  44.614  14.261
 3308W        W75634  26.606  44.284  11.979
 3309W        W75635  42.226  26.683   0.282
 3310W        W75636  21.796  18.124  14.808
 3311W        W75637   8.268  31.144  11.671
 3312W        W75638  44.991  32.840   3.151
 3313W        W75639  23.492  39.966  13.571
 3314W        W75640  28.119  30.473  13.980
 3315W        W75641  42.222  18.953  10.766
 3316W        W75642   0.354  12.022  12.085
 3317W        W75643   7.479  14.382  12.115
 3318W        W75644  20.775  35.439   2.219
 3319W        W75645   7.296  20.484  11.566
 3320W        W75646  11.580  21.574  12.510
 3321W        W75647  22.171  10.175  12.313
 3322W        W75648  31.212   3.368  14.714
 3323W        W75649   2.417   9.688   1.265
 3324W        W75650  42.334  24.137   0.318
 3325W        W75651  38.404  17.258   2.196
 3326W        W75652   7.682  27.357   4.154
 3327W        W75653  30.043  16.672   2.878
 3328W        W75654  11.077  22.915  12.401
 3329W        W75655  42.862  17.289  10.921
 3330W        W75656  26.370   2.694  13.846
 3331W        W75657  41.709  34.186  13.007
 3332W        W75658  24.687  28.980   2.140
 3333W        W75659  12.213  35.408  14.493
 3334W        W75660  44.031  41.115  12.407
 3335W        W75661  20.964  12.386   3.731
 3336W        W75662  22.325  30.548  11.936
 3337W        W75663   0.348  15.123  11.571
 3338W        W75664  38.412  18.656   2.403
 3339W        W75665  35.412   7.094  12.116
 3340W        W75666  41.248   7.416   4.741
 3341W        W75667  21.478  18.090   2.610
 3342W        W75668   3.856  41.852   2.745
 3343W        W75669  28.510   7.385  13.786
 3344W        W75670  27.474   8.693   1.847
 3345W        W75671   0.645  32.573  12.815
 3346W        W75672  15.862   2.284   2.783
 3347W        W75673  17.072  43.776  11.950
 3348W        W75674  16.907  41.001  10.814
 3349W        W75675  18.341  22.608   1.669
 3350W        W75676  11.791  37.621  12.453
 3351W        W75677  38.832  14.055   1.251
 3352W        W75678  34.570  36.808   0.406
 3353W        W75679  30.464   2.413  13.314
 3354W        W75680   1.479  36.915   3.523
 3355W        W75681  11.700   5.929   3.913
 3356W        W75682  22.888  35.326   0.020
 3357W        W75683  17.650  16.458  11.124
 3358W        W75684  43.041  20.928  12.370
 3359W        W75685  37.545  30.063   4.186
 3360W        W75686  39.079  26.220   0.669
 3361W        W75687  35.886  35.751  13.534
 3362W        W75688   2.357  29.950  14.804
 3363W        W75689  11.386  26.025   2.463
 3364W        W75690  37.433  36.891  12.980
 3365W        W75691   5.314  21.442   3.082
 3366W        W75692  27.472   6.377  13.593
 3367W        W75693   4.454   1.858   5.065
 3368W        W75694  17.205  29.466   0.777
 3369W        W75695  21.784   8.793   2.716
 3370W        W75696   1.404  27.823   0.907
 3371W        W75697  11.212  21.731  10.711
 3372W        W75698   1.961  16.046   4.185
 3373W        W75699  38.323  16.603   2.849
 3374W        W75700  20.663   9.859  11.146
 3375W        W75701  44.540   9.421  12.522
 3376W        W75702  43.535   4.916  14.446
 3377W        W75703  33.496  21.748   1.488
 3378W        W75704  10.897  29.530   3.234
 3379W        W75705  11.817  20.260  11.470
 3380W        W75706  31.387  29.155  12.926
 3381W        W75707   8.607  20.969   4.385
 3382W        W75708  31.977   7.881   0.914
 3383W        W75709  44.502  29.145  14.932
 3384W        W75710  10.122  15.141   1.196
 3385W        W75711  12.861   4.335   2.903
 3386W        W75712  22.209  31.132   0.890
 3387W        W75713  42.189  24.222   4.053
 3388W        W75714  30.823  20.267   4.545
 3389W        W75715  27.160   5.750  14.295
 3390W        W75716  28.819  11.378   0.549
 3391W        W75717   6.488  44.308   3.872
 3392W        W75718   8.939  15.665   4.029
 3393W        W75719   8.328   5.180   3.750
 3394W        W75720   7.570  42.235   3.784
 3395W        W75721  40.370   3.394  14.363
 3396W        W75722  35.530  22.481   1.922
 3397W        W75723  34.032  16.090  11.242
 3398W        W75724  10.737   3.914   3.801
 3399W        W75725  35.118   5.061   0.574
 3400W        W75726  19.230  15.121   2.869
 3401W        W75727  17.568  43.399  13.978
 3402W        W75728  32.106  11.040  10.498
 3403W        W75729  19.710  10.727   2.603
 3404W        W75730  44.919   1.333  12.694
 3405W        W75731  18.043   5.147  12.878
 3406W        W75732   7.598  11.741   3.004
 3407W        W75733  15.079  43.040   1.373
 3408W        W75734  35.300   9.408  13.708
 3409W        W75735  38.550   8.711   3.674
 3410W        W75736   3.046  32.867  14.811
 3411W        W75737  31.851  20.008  12.571
 3412W        W75738  29.759  36.586   2.278
 3413W        W75739   6.802  32.399  13.749
 3414W        W75740   7.718   0.728   4.173
 3415W        W75741  43.505  26.969  14.781
 3416W        W75742  15.293  23.176   3.788
 3417W        W75743   6.375  41.852  13.406
 3418W        W75744   1.225  34.913  14.874
 3419W        W75745  13.168  32.423  14.579
 3420W        W75746  38.995  11.161   2.368
 3421W        W75747  15.197  18.100  10.575
 3422W        W75748  34.805   0.439   0.759
 3423W        W75749  37.004  42.065   0.782
 3424W        W75750  34.881  39.583   3.894
 3425W        W75751  16.118   2.642  11.287
 3426W        W75752  39.354   6.866   0.780
 3427W        W75753  21.682  15.860  12.111
 3428W        W75754  38.845  30.235  12.517
 3429W        W75755  11.553  43.016   1.978
 3430W        W75756  18.611  33.040  10.933
 3431W        W75757  12.700  15.505   1.377
 3432W        W75758  34.130  31.664  10.432
 3433W        W75759   7.692  18.807   0.215
 3434W        W75760  22.428  16.591   3.211
 3435W        W75761  43.461  12.311  14.741
 3436W        W75762  37.043  13.210   1.882
 3437W        W75763   1.047  24.990   0.759
 3438W        W75764   1.867  44.444  14.567
 3439W        W75765  12.208  13.568   4.104
 3440W        W75766   0.841  13.962  11.530
 3441W        W75767  44.057   8.363  14.564
 3442W        W75768   3.182  13.096  13.456
 3443W        W75769  40.465  25.164   4.577
 3444W        W75770  40.249   3.986   0.282
 3445W        W75771  15.746   9.118   4.249
 3446W        W75772   3.359  23.535  12.803
 3447W        W75773  19.796  23.158  11.122
 3448W        W75774  29.692  13.686  12.924
 3449W        W75775  25.120  18.219   3.372
 3450W        W75776  20.502  16.869  11.032
 3451W        W75777  31.611  31.483   0.886
 3452W        W75778  37.500  36.701   5.055
 3453W        W75779  16.423  44.059   0.486
 3454W        W75780  33.956  26.970   4.594
 3455W        W75781   3.412   4.974   0.388
 3456W        W75782  38.984  12.766   4.296
 3457W        W75783  12.516   1.471   0.528
 3458W        W75784  37.270   4.413   2.830
 3459W        W75785  21.716  23.128   3.308
 3460W        W75786  43.594  10.913  10.478
 3461W        W75787  29.531  12.771   1.724
 3462W        W75788   2.318  20.263  14.065
 3463W        W75789   3.753  22.210   2.447
 3464W        W75790   6.878   0.475   0.468
 3465W        W75791  44.346  20.652  10.965
 3466W        W75792   3.724   8.230  12.148
 3467W        W75793   0.893  27.399  14.867
 3468W        W75794  36.496  19.431  13.914
 3469W        W75795  30.822  15.297   1.277
 3470W        W75796  44.455  19.143  11.502
 3471W        W75797  42.977  25.654   5.147
 3472W        W75798  36.000  41.042   3.449
 3473W        W75799  44.833  31.264   4.954
 3474W        W75800  42.005   6.998  13.002
 3475W        W75801  22.946  38.368   3.290
 3476W        W75802   9.423  32.467  14.926
 3477W        W75803   4.413  13.573  13.332
 3478W        W75804  35.411  15.199  14.498
 3479W        W75805  21.308   8.208   1.140
 3480W        W75806  39.912  14.843  11.838
 3481W        W75807  30.095  30.485  10.783
 3482W        W75808   3.243  18.977   0.771
 3483W        W75809  27.152   4.363  14.582
 3484W        W75810  17.625  31.572  14.998
 3485W        W75811  25.114  30.609   2.380
 3486W        W75812  18.839  41.544  10.704
 3487W        W75813  43.064  25.748   2.276
 3488W        W75814  15.720  44.662  11.555
 3489W        W75815  40.543  40.981   0.728
 3490W        W75816  37.913  18.620   2.298
 3491W        W75817  32.142  42.573   4.822
 3492W        W75818  10.785  41.919   0.338
 3493W        W75819   9.919  11.197   4.275
 3494W        W75820  12.482  20.747  13.332
 3495W        W75821  33.471  16.069  13.872
 3496W        W75822  38.464  15.093   2.374
 3497W        W75823  18.563  39.255   0.362
 3498W        W75824  36.031   1.685  11.240
 3499W        W75825  20.395  21.682  13.721
 3500W        W75826  18.745  41.954   2.664
 3501W        W75827  18.293   7.920  12.489
 3502W        W75828  25.255  43.545  13.952
 3503W        W75829  42.358  44.393   0.878
 3504W        W75830   5.796   1.948  13.767
 3505W        W75831  11.579  31.126  11.483
 3506W        W75832  37.274  39.491  10.177
 3507W        W75833  18.789   4.328   2.898
 3508W        W75834   6.481  11.705   1.320
 3509W        W75835  31.701  14.055   4.597
 3510W        W75836  34.864  19.611   0.347
 3511W        W75837   2.028   3.384   0.775
 3512W        W75838  40.193   9.240   3.255
 3513W        W75839  29.975   2.267   0.990
 3514W        W75840  15.339  34.975  14.831
 3515W        W75841  26.596  36.415  13.610
 3516W        W75842  11.297  35.099  14.026
 3517W        W75843  36.085  11.815   4.311
 3518W        W75844  29.068   9.143  11.481
 3519W        W75845  31.530   3.047   0.068
 3520W        W75846  22.753  39.310  10.109
 3521W        W75847  29.213  20.782  12.427
 3522W        W75848  10.677  40.036  12.369
 3523W        W75849  34.437  20.061   0.983
 3524W        W75850  23.008  28.206   4.168
 3525W        W75851  16.044  35.209   1.856
 3526W        W75852  39.881  32.072  11.374
 3527W        W75853  42.656  19.500   3.892
 3528W        W75854  23.967  30.511   4.640
 3529W        W75855  21.049   5.419   2.775
 3530W        W75856  41.708  35.583  10.334
 3531W        W75857  16.533  34.814  14.402
 3532W        W75858  26.715  32.962   1.764
 3533W        W75859   6.637   1.744  11.028
 3534W        W75860  24.887  19.605  14.903
 3535W        W75861  17.223  22.055  13.578
 3536W        W75862  29.484   7.274   3.721
 3537W        W75863   4.019   4.216  14.366
 3538W        W75864  43.303  38.773   4.426
 3539W        W75865  21.052  11.977  12.097
 3540W        W75866  33.477  20.154   4.622
 3541W        W75867  39.563  30.005  11.218
 3542W        W75868   9.508  12.327  13.041
 3543W        W75869  36.638  43.556   4.612
 3544W        W75870  28.566   2.584   2.201
 3545W        W75871  11.667  19.536  14.273
 3546W        W75872  19.112  42.596  13.721
 3547W        W75873  15.767  11.608   2.327
 3548W        W75874  14.564  37.858   1.319
 3549W        W75875  41.011  26.539  14.445
 3550W        W75876  42.569   2.874  14.405
 3551W        W75877  36.878  42.086  13.576
 3552W        W75878  19.745   7.886   4.649
 3553W        W75879  37.902  23.048   3.437
 3554W        W75880  24.279  14.830   9.830
 3555W        W75881  27.145  13.531   1.254
 3556W        W75882   2.242  42.340  11.563
 3557W        W75883  22.010  42.128   3.069
 3558W        W75884  38.413  35.444  14.097
 3559W        W75885   0.700  31.078  12.053
 3560W        W75886  39.174  27.131   2.715
 3561W        W75887  37.875  14.458   4.995
 3562W        W75888  33.977  41.699   1.886
 3563W        W75889   8.700   7.413   3.241
 3564W        W75890  41.352   5.201  14.769
 3565W        W75891  11.660   2.668   5.265
 3566W        W75892  29.521  32.605  11.517
 3567W        W75893   8.175  39.354  10.647
 3568W        W75894  14.910   6.668  12.004
 3569W        W75895  44.123  42.872   4.127
 3570W        W75896   8.697   6.674   0.316
 3571W        W75897  11.840  43.359   1.739
 3572W        W75898  37.675  31.285   2.598
 3573W        W75899   2.026  42.459   2.893
 3574W        W75900  23.153  18.168   0.312
 3575W        W75901  18.738  29.473   1.761
 3576W        W75902  35.513  14.652   1.311
 3577W        W75903  11.296  17.324   0.868
 3578W        W75904  17.317   6.208  14.784
 3579W        W75905  39.798  32.276   2.497
 3580W        W75906  43.529  17.617   0.854
 3581W        W75907   2.741  10.792   4.124
 3582W        W75908  21.517  29.679  13.973
 3583W        W75909  21.775   7.040  14.927
 3584W        W75910  35.193  14.066   2.010
 3585W        W75911  28.873  19.544  14.724
 3586W        W75912  28.583  38.149   3.715
 3587W        W75913  41.387  18.004   2.675
 3588W        W75914  36.140  44.937  13.859
 3589W        W75915  39.294   5.776  11.611
 3590W        W75916   3.839  12.209   4.336
 3591W        W75917  37.256  23.576   0.440
 3592W        W75918  35.480  29.625  13.044
 3593W        W75919  16.041  34.074   2.740
 3594W        W75920  20.174  25.842   5.014
 3595W        W75921  19.048  28.088   1.848
 3596W        W75922  24.440   1.452   4.628
 3597W        W75923  14.014  27.832   2.418
 3598W        W75924  25.822  38.244  14.942
 3599W        W75925   8.808  25.170  11.538
 3600W        W75926  24.465  33.066   3.750
 3601W        W75927  23.109  42.953  12.007
 3602W        W75928  34.966  32.580  11.131
 3603W        W75929  44.289  39.574   2.370
 3604W        W75930   4.461  14.824  12.437
 3605W        W75931  34.118  19.320   2.910
 3606W        W75932  11.512   8.949   0.784
 3607W        W75933  17.287  19.325  11.140
 3608W        W75934  38.980  16.168  14.426
 3609W        W75935  24.103   3.554   1.684
 3610W        W75936   1.882   6.773  12.211
 3611W        W75937  32.721   2.234   4.277
 3612W        W75938  15.854  42.277  13.016
 3613W        W75939  17.070   2.348   1.745
 3614W        W75940   5.375   1.966  14.982
 3615W        W75941  39.727  40.428  12.720
 3616W        W75942  14.327  18.949  13.286
 3617W        W75943  39.873  35.038  13.007
 3618W        W75944  21.707  13.044   4.122
 3619W        W75945   1.780  27.685   3.212
 3620W        W75946   1.970  16.432  10.924
 3621W        W75947  32.618  18.666  12.320
 3622W        W75948  44.834  22.229   1.485
 3623W        W75949  41.699   1.300  11.098
 3624W        W75950  34.943  17.346   3.760
 3625W        W75951  36.277  27.285  12.397
 3626W        W75952  44.807  15.284   0.751
 3627W        W75953  35.912  11.113  11.520
 3628W        W75954  37.743  27.975  11.148
 3629W        W75955  26.206  39.093   2.022
 3630W        W75956  43.007  32.081   2.562
 3631W        W75957  37.881  40.502  11.429
 3632W        W75958  22.033  13.808  13.845
 3633W        W75959  38.266  35.968  14.018
 3634W        W75960  26.995  18.321   0.894
 3635W        W75961  44.156   9.592   3.395
 3636W        W75962  13.080  34.687  11.609
 3637W        W75963  15.512  31.592   1.303
 3638W        W75964  14.773  34.135   0.044
 3639W        W75965  12.136  39.410  13.040
 3640W        W75966  43.286  25.266  13.566
 3641W        W75967  43.876   5.914  10.627
 3642W        W75968  29.849  39.037  11.488
 3643W        W75969   3.104   7.238  12.036
 3644W        W75970  30.504  27.701   4.514
 3645W        W75971  38.839   7.144   3.117
 3646W        W75972  11.544  27.339  12.862
 3647W        W75973  25.472  15.137  12.424
 3648W        W75974  40.493  13.890   1.027
 3649W        W75975  42.312   4.076   4.157
 3650W        W75976  21.050   9.453  14.501
 3651W        W75977   8.655  38.132  14.319
 3652W        W75978   8.414  44.308   2.333
 3653W        W75979  10.168  43.030   3.264
 3654W        W75980  18.536   7.123   3.420
 3655W        W75981  40.060  42.963   1.708
 3656W        W75982  33.973  15.247  14.807
 3657W        W75983  14.177  24.974  14.058
 3658W        W75984  37.907  38.917  11.421
 3659W        W75985  43.426  19.191   2.285
 3660W        W75986  32.071  17.503   4.523
 3661W        W75987  10.256  34.191   3.677
 3662W        W75988  14.290  22.663   3.415
 3663W        W75989  11.702  42.864   4.177
 3664W        W75990  13.734   9.112   2.397
 3665W        W75991  30.904  13.472   2.665
 3666W        W75992  25.097  12.903   0.524
 3667W        W75993  30.159  42.734  12.500
 3668W        W75994  31.384   9.275  12.462
 3669W        W75995   6.193   0.470  13.440
 3670W        W75996  26.156  38.545  10.676
 3671W        W75997  19.576  28.049  13.092
 3672W        W75998   5.013  11.070   2.349
 3673W        W75999  42.786  12.783   3.762
 3674W        W76000  30.696  20.156   0.822
 3675W        W76001  21.414  35.581  13.215
 3676W        W76002   2.052   7.851   1.470
 3677W        W76003   4.898  40.630  12.951
 3678W        W76004  11.600   2.481   2.913
 3679W        W76005  13.856  22.603  11.334
 3680W        W76006  27.508  38.074   0.915
 3681W        W76007  16.318  15.200   2.706
 3682W        W76008   6.133  37.508   3.550
 3683W        W76009  36.325  44.864   4.332
 3684W        W76010   7.594  14.617   0.014
 3685W        W76011  41.406  14.127   2.223
 3686W        W76012  11.550  43.352   4.162
 3687W        W76013  35.324   3.750  14.241
 3688W        W76014  16.704   6.521  12.137
 3689W        W76015   7.221   0.893  11.045
 3690W        W76016   5.247  17.154  10.602
 3691W        W76017  37.599  37.752   4.932
 3692W        W76018  42.839  25.704   1.799
 3693W        W76019   8.392  33.203   1.943
 3694W        W76020   4.796  18.798   5.052
 3695W        W76021   5.205  22.979   4.787
 3696W        W76022  35.887  37.944   4.126
 3697W        W76023  32.379  23.369   2.323
 3698W        W76024  34.659  22.182   0.415
 3699W        W76025   6.782   8.402  11.555
 3700W        W76026  23.629  14.091   0.322
 3701W        W76027  30.070  22.651   1.183
 3702W        W76028  13.986  39.356   0.374
 3703W        W76029  43.516  41.220  10.484
 3704W        W76030   0.728   5.186  14.275
 3705W        W76031  13.837  37.468  12.375
 3706W        W76032  12.246   3.824   2.351
 3707W        W76033   7.348  10.681   4.675
 3708W        W76034  14.663  11.743  11.484
 3709W        W76035  32.952   9.828  14.962
 3710W        W76036  34.631  21.620  12.407
 3711W        W76037  26.698   3.077  12.527
 3712W        W76038  23.735  17.303   1.061
 3713W        W76039  15.705  18.568  14.327
 3714W        W76040  28.629   5.333   2.152
 3715W        W76041  32.511  44.540   1.413
 3716W        W76042  44.332  35.094  10.429
 3717W        W76043   5.867  18.582   4.505
 3718W        W76044  22.291  29.208  12.562
 3719W        W76045  17.694   1.525  11.591
 3720W        W76046  43.906   0.513  14.460
 3721W        W76047  10.493  29.483   3.664
 3722W        W76048  19.150  42.268  10.457
 3723W        W76049  28.936  14.640  11.617
 3724W        W76050  31.655  44.803   3.897
 3725W        W76051  43.253  23.472  13.940
 3726W        W76052  31.461  38.334   3.351
 3727W        W76053  19.268  41.990   4.695
 3728W        W76054   1.189  32.639   2.486
 3729W        W76055  20.506  22.994  10.617
 3730W        W76056  22.512  41.954   3.844
 3731W        W76057  12.202  39.149  14.868
 3732W        W76058  19.347   5.133  12.908
 3733W        W76059  19.085  27.284   0.431
 3734W        W76060  14.821   7.832   3.557
 3735W        W76061  34.455  38.020  11.185
 3736W        W76062  40.530  13.416   3.570
 3737W        W76063  12.925  17.521   1.359
 3738W        W76064  11.820  10.718   1.259
 3739W        W76065  26.040  29.236  11.722
 3740W        W76066   5.847  20.271  14.922
 3741W        W76067  38.044  38.098   1.796
 3742W        W76068   5.312  31.180   2.321
 3743W        W76069  15.776  37.916   0.929
 3744W        W76070  42.696   7.166  11.120
 3745W        W76071  38.104  14.244   0.000
 3746W        W76072  20.009   5.729  12.958
 3747W        W76073  17.313  10.733   4.162
 3748W        W76074  15.153  25.480   4.224
 3749W        W76075   4.971  41.300   4.598
 3750W        W76076  43.464  17.754  12.832
 3751W        W76077   9.021   9.662   4.196
 3752W        W76078  23.078   7.924   4.801
 3753W        W76079  15.313  10.145   4.973
 3754W        W76080   8.198  43.913   1.511
 3755W        W76081   2.872   5.443   2.770
 3756W        W76082  43.483  36.009   4.332
 3757W        W76083  27.161  23.736  14.365
 3758W        W76084  41.887  38.285  11.544
 3759W        W76085  14.962  26.670   5.105
 3760W        W76086  31.041  27.009   1.952
 3761W        W76087   1.505  29.295   0.963
 3762W        W76088  22.343  14.542  14.385
 3763W        W76089  27.660  29.605   3.119
 3764W        W76090  15.371   5.177   1.322
 3765W        W76091   4.791  29.032  13.567
 3766W        W76092   6.396   3.417   5.005
 3767W        W76093  39.866   9.424  13.384
 3768W        W76094  30.857  40.079  13.492
 3769W        W76095   0.945  22.621   1.167
 3770W        W76096   5.659  19.862  13.440
 3771W        W76097  34.431  42.798   2.575
 3772W        W76098  21.372  39.969  10.010
 3773W        W76099  31.449  39.401   1.415
 3774W        W76100  42.673  39.544  12.899
 3775W        W76101  17.014  16.582   0.878
 3776W        W76102  36.598   1.004   5.002
 3777W        W76103  27.948  43.396   1.768
 3778W        W76104  13.641  11.608  10.747
 3779W        W76105  41.565   4.298  11.684
 3780W        W76106  25.367  13.806   4.680
 3781W        W76107  10.632  29.811   1.817
 3782W        W76108  12.239  26.030   1.966
 3783W        W76109  16.335  29.082   0.357
 3784W        W76110  40.490  20.771   2.563
 3785W        W76111   2.880  25.227   2.648
 3786W        W76112  23.481  19.962   0.305
 3787W        W76113  34.248  27.353   4.781
 3788W        W76114  27.090  20.180  10.690
 3789W        W76115  39.861  22.189  13.465
 3790W        W76116  33.662   4.378  12.541
 3791W        W76117  36.005  39.509   2.820
 3792W        W76118   5.910  24.916  13.023
 3793W        W76119  12.858  28.441  10.465
 3794W        W76120  12.924  11.650  14.422
 3795W        W76121  44.972  21.158  10.926
 3796W        W76122  25.009  20.209  10.863
 3797W        W76123  23.320  40.234  12.542
 3798W        W76124  28.649  35.396   1.722
 3799W        W76125  37.488   8.333  13.854
 3800W        W76126  33.338   3.527   2.175
 3801W        W76127  34.436   4.418   1.399
 3802W        W76128   0.876  32.810   2.876
 3803W        W76129  19.158  34.961   4.001
 3804W        W76130  44.369  17.065  14.106
 3805W        W76131  38.271  23.634   4.154
 3806W        W76132  27.942  17.882  10.611
 3807W        W76133  24.754  17.554   2.808
 3808W        W76134  11.231   9.353   4.106
 3809W        W76135  13.557   4.249   2.334
 3810W        W76136  28.750  33.097  10.407
 3811W        W76137  14.709  26.168   0.736
 3812W        W76138   2.987  16.269   0.309
 3813W        W76139  18.952   6.260  12.395
 3814W        W76140  36.508  28.025  13.912
 3815W        W76141  40.394  32.766  13.461
 3816W        W76142   6.875  20.557   2.393
 3817W        W76143  30.908   6.109   1.673
 3818W        W76144  31.501  34.319  10.692
 3819W        W76145  36.596  40.348  11.947
 3820W        W76146  12.836  20.665  10.687
 3821W        W76147   4.225  14.492   1.319
 3822W        W76148  17.660  33.112   3.386
 3823W        W76149   5.492  11.874  13.835
 3824W        W76150  36.983  22.299   2.828
 3825W        W76151  23.121  33.426  13.839
 3826W        W76152  39.293   0.790   2.413
 3827W        W76153  40.464  15.602   2.781
 3828W        W76154  33.389  36.530  10.914
 3829W        W76155  16.423   6.246   0.398
 3830W        W76156   0.738  39.766   0.766
 3831W        W76157  11.862  11.030  10.669
 3832W        W76158  33.176   5.459   0.840
 3833W        W76159  14.078  32.399  14.854
 3834W        W76160  17.838  36.985   2.309
 3835W        W76161  24.421   6.932   2.787
 3836W        W76162  28.643  16.188   4.525
 3837W        W76163  20.231  41.933   0.942
 3838W        W76164  26.163  23.705  13.785
 3839W        W76165  19.359  35.432   1.266
 3840W        W76166   8.978   4.581   3.672
 3841W        W76167   7.289  28.119   2.327
 3842W        W76168  39.121  29.885  11.466
 3843W        W76169  38.369  37.109   1.492
 3844W        W76170  13.820  43.655   1.898
 3845W        W76171  34.982  22.489  12.975
 3846W        W76172  36.443  16.642  13.781
 3847W        W76173  25.206  11.696  13.394
 3848W        W76174  11.825  23.903  11.247
 3849W        W76175  16.060  10.188   2.274
 3850W        W76176   3.893   6.435  13.460
 3851W        W76177   7.432  37.646   0.281
 3852W        W76178  38.352  24.518   3.378
 3853W        W76179  23.226   9.504   3.805
 3854W        W76180  29.471   4.385   1.786
 3855W        W76181  11.238  33.931   3.367
 3856W        W76182   2.010  21.544  13.896
 3857W        W76183  12.285   6.885   3.721
 3858W        W76184   0.148  31.528  13.752
 3859W        W76185  21.715   9.058   2.242
 3860W        W76186  40.468  43.817  12.501
 3861W        W76187  11.086  32.497   4.595
 3862W        W76188   0.931  19.008   4.052
 3863W        W76189  27.937   1.760   1.759
 3864W        W76190  22.460  28.642  13.941
 3865W        W76191  15.656   5.259  13.505
 3866W        W76192  27.193  33.331   2.644
 3867W        W76193  24.902  11.572   0.161
 3868W        W76194  44.311  16.727  14.753
 3869W        W76195  38.378  17.086   4.693
 3870W        W76196  24.517  42.411   2.880
 3871W        W76197  18.010  16.749  13.749
 3872W        W76198  34.433  10.414  14.092
 3873W        W76199  38.845   0.345  14.997
 3874W        W76200  10.379  31.903  10.690
 3875W        W76201  30.931  21.488   0.962
 3876W        W76202   2.847  14.846  11.452
 3877W        W76203  28.386   7.264  11.536
 3878W        W76204  43.838  42.551  13.845
 3879W        W76205  16.181   6.456  12.245
 3880W        W76206  27.980  11.790  10.564
 3881W        W76207  41.265  40.856   4.641
 3882W        W76208  23.486  39.291  12.040
 3883W        W76209  41.444  30.121   1.208
 3884W        W76210  35.916  22.719   2.164
 3885W        W76211  42.849  43.005   4.205
 3886W        W76212  21.002  16.602  13.076
 3887W        W76213  31.055  15.181   4.717
 3888W        W76214  39.540  13.267   3.767
 3889W        W76215  25.141  11.689  11.151
 3890W        W76216   8.622  18.222   3.211
 3891W        W76217  42.835  15.383  13.759
 3892W        W76218  23.079  29.224  11.900
 3893W        W76219   4.353  20.638  12.681
 3894W        W76220  25.134  20.317  13.091
 3895W        W76221  32.020  37.077   0.908
 3896W        W76222  37.381  33.683  10.896
 3897W        W76223  38.464  11.775  11.039
 3898W        W76224  38.479  42.925  10.905
 3899W        W76225  40.056  40.785  11.565
 3900W        W76226  27.734  12.668  12.076
 3901W        W76227   7.329  21.484  14.879
 3902W        W76228   4.192  30.454   3.058
 3903W        W76229  11.789  31.895   0.875
 3904W        W76230  22.127   6.276  14.736
 3905W        W76231  43.440   4.098   3.991
 3906W        W76232  37.369   4.036   1.947
 3907W        W76233  23.618  31.872  10.771
 3908W        W76234  16.315   3.506  14.833
 3909W        W76235  44.908   1.658  13.778
 3910W        W76236   8.389  19.859   3.304
 3911W        W76237   0.188   9.823  12.939
 3912W        W76238  39.215  40.377  10.144
 3913W        W76239  34.006  26.687   2.277
 3914W        W76240  17.293  27.659   4.821
 3915W        W76241   2.717  31.091  13.269
 3916W        W76242  13.205  29.389  14.990
 3917W        W76243  28.294  23.178  12.165
 3918W        W76244  22.989  11.122  11.937
 3919W        W76245  18.991  13.057   2.779
 3920W        W76246   8.757   1.812  13.135
 3921W        W76247  42.019  17.198  11.588
 3922W        W76248  15.784  36.019  10.228
 3923W        W76249  31.413   1.935  12.855
 3924W        W76250   5.296  15.488   3.648
 3925W        W76251  28.490  20.567   1.107
 3926W        W76252   5.094  24.063   5.080
 3927W        W76253  42.523  29.428   2.707
 3928W        W76254   2.212  30.858   4.325
 3929W        W76255  19.856  43.336   1.721
 3930W        W76256  29.895  33.581   4.193
 3931W        W76257  12.586  29.518  14.024
 3932W        W76258   6.254  40.323   0.920
 3933W        W76259   1.224   7.695  13.970
 3934W        W76260   2.303   5.245  10.599
 3935W        W76261   6.504  13.586   0.689
 3936W        W76262  35.379  26.703   1.851
 3937W        W76263   3.364  33.757   3.302
 3938W        W76264  26.416  11.739  10.648
 3939W        W76265  43.756  43.078  11.554
 3940W        W76266  26.228   9.877  10.641
 3941W        W76267  15.633  29.376   0.755
 3942W        W76268  43.451   4.405  14.493
 3943W        W76269  10.847  17.027   0.059
 3944W        W76270  37.048  27.576   3.120
 3945W        W76271   5.630  18.250   3.816
 3946W        W76272  43.409  20.007  12.575
 3947W        W76273  38.856  10.894   3.748
 3948W        W76274  29.417  27.590   0.383
 3949W        W76275  26.550  17.777  14.851
 3950W        W76276  24.049  19.802   1.275
 3951W        W76277  28.084  36.160  11.875
 3952W        W76278  13.315   9.090  14.083
 3953W        W76279  20.232  38.107  13.738
 3954W        W76280   9.794  39.089   4.209
 3955W        W76281   0.374  10.596  12.590
 3956W        W76282  39.926  32.117  13.001
 3957W        W76283  10.308  12.090   0.737
 3958W        W76284  22.623   0.172   3.944
 3959W        W76285   8.191  20.020  14.982
 3960W        W76286  35.673  31.982  12.396
 3961W        W76287  36.574  19.997   0.313
 3962W        W76288   1.038  14.803  13.558
 3963W        W76289  31.203  11.868  11.224
 3964W        W76290   9.572  41.459  13.049
 3965W        W76291   3.912  19.634  10.756
 3966W        W76292   6.794   3.271   2.686
 3967W        W76293  16.334   8.366   3.118
 3968W        W76294  10.934  26.591   1.037
 3969W        W76295  16.687  21.543   0.216
 3970W        W76296  17.029  15.142   1.803
 3971W        W76297  30.857  12.233  14.399
 3972W        W76298  26.994  44.860   2.883
 3973W        W76299  42.756  31.803  14.767
 3974W        W76300  23.100  23.458   0.773
 3975W        W76301  18.672  25.651  11.416
 3976W        W76302  29.182  15.713  13.881
 3977W        W76303   1.850  28.863   2.360
 3978W        W76304  11.963  16.994   2.123
 3979W        W76305   1.701  24.278   1.352
 3980W        W76306  42.852  43.825  12.895
 3981W        W76307  24.205  36.939   3.746
 3982W        W76308   3.504  38.914   3.724
 3983W        W76309  26.548  25.934   3.068
 3984W        W76310   0.745  17.555  13.682
 3985W        W76311  38.961  28.596  13.333
 3986W        W76312  33.881  30.120  13.134
 3987W        W76313  13.636  41.769   0.424
 3988W        W76314  35.534  27.113   4.844
 3989W        W76315  11.627  23.257   0.023
 3990W        W76316  24.759   1.465   4.205
 3991W        W76317  40.860  30.959   1.472
 3992W        W76318  21.185   6.035  10.697
 3993W        W76319  23.254  22.153   4.188
 3994W        W76320  25.920  10.843  13.417
 3995W        W76321   0.023   6.698   0.842
 3996W        W76322  23.891   7.688  14.894
 3997W        W76323  23.036  32.934   0.728
 3998W        W76324  34.630  16.306   0.375
 3999W        W76325   4.987   3.347   1.198
 4000W        W76326  24.656  20.296  14.071
 4001W        W76327  40.836   2.488  11.639
 4002W        W76328   7.128   4.811  10.989
 4003W        W76329  22.654  33.454  10.616
 4004W        W76330  32.831   4.716  14.021
 4005W        W76331  32.181  14.828  10.452
 4006W        W76332  31.453  11.323   3.035
 4007W        W76333   6.693  33.555  14.417
 4008W        W76334  44.666  25.610   0.267
 4009W        W76335  27.663   0.458  11.507
 4010W        W76336  42.494  14.367  12.990
 4011W        W76337  28.601  25.009   1.630
 4012W        W76338  23.526  17.202  12.682
 4013W        W76339  36.791  37.569  12.533
 4014W        W76340  43.749  23.986   0.435
 4015W        W76341  41.338  27.548  11.943
 4016W        W76342  10.593   7.233   2.241
 4017W        W76343  14.613  37.975  14.479
 4018W        W76344  24.208   0.989   1.686
 4019W        W76345  25.013  40.793   2.584
 4020W        W76346  13.682  27.142  12.289
 4021W        W76347  17.316  23.431   3.785
 4022W        W76348  18.718  27.508  11.599
 4023W        W76349  41.235   7.621  12.836
 4024W        W76350  35.643  19.774   1.442
 4025W        W76351   5.328  34.470  12.851
 4026W        W76352  32.001  38.310  14.997
 4027W        W76353  20.964   2.892  11.966
 4028W        W76354  37.818  35.483   4.747
 4029W        W76355  31.970  34.602   3.773
 4030W        W76356  15.816   2.426  12.788
 4031W        W76357  39.030  40.256  10.673
 4032W        W76358  22.079  29.410  12.997
 4033W        W76359   6.853  23.675  12.931
 4034W        W76360  11.402  39.874   2.316
 4035W        W76361  28.561  23.281  11.477
 4036W        W76362   5.922   8.991  14.344
 4037W        W76363   7.360   0.343   0.715
 4038W        W76364   8.180   5.943   2.200
 4039W        W76365   4.751  10.391   2.862
 4040W        W76366  29.478  11.153  14.249
 4041W        W76367  11.869  33.512  10.609
 4042W        W76368  18.032  20.136  12.463
 4043W        W76369   3.288  11.517   4.148
 4044W        W76370   5.004  22.607  14.039
 4045W        W76371   0.062  28.901   1.784
 4046W        W76372  19.586  16.115  11.641
 4047W        W76373   1.943  39.092   4.776
 4048W        W76374  36.967  12.666  11.042
 4049W        W76375  19.029   0.552   0.445
 4050W        W76376   2.428   5.896  12.753
 4051W        W76377  22.637  34.484  11.928
 4052W        W76378  36.687  19.663  10.479
 4053W        W76379  43.060  38.802  13.849
 4054W        W76380  40.769  17.564   4.169
 4055W        W76381  30.876  25.077  11.953
 4056W        W76382  43.335  30.662   0.297
 4057W        W76383  31.398  40.009  10.749
 4058W        W76384   3.895  20.959  14.813
 4059W        W76385  24.337  16.382   0.467
 4060W        W76386  15.817  21.062   2.722
 4061W        W76387  13.254   8.660   4.256
 4062W        W76388  20.640  22.082  10.577
 4063W        W76389  18.443  30.161  13.536
 4064W        W76390   4.912  25.805   2.329
 4065W        W76391  38.500  29.478   0.307
 4066W        W76392   3.993  41.010  14.390
 4067W        W76393  42.969  16.844  14.808
 4068W        W76394   5.482  14.925  13.910
 4069W        W76395  13.783  35.006  14.894
 4070W        W76396  16.404  22.714   3.247
 4071W        W76397  22.310   0.391   1.207
 4072W        W76398  24.587  13.356  13.659
 4073W        W76399  41.514  43.976  12.484
 4074W        W76400  18.261   0.819  10.159
 4075W        W76401  17.635  32.364   0.388
 4076W        W76402  33.045   8.263  12.692
 4077W        W76403  21.169  16.341  13.583
 4078W        W76404   2.807   4.714  11.938
 4079W        W76405  21.974  39.502  11.920
 4080W        W76406   6.903  14.288   2.839
 4081W        W76407   2.824  24.179  11.967
 4082W        W76408  34.127   6.293   1.839
 4083W        W76409  19.217  12.734   4.150
 4084W        W76410  28.266  25.288   0.278
 4085W        W76411  10.698  36.006  14.700
 4086W        W76412   4.773   0.969   1.747
 4087W        W76413  26.649  27.398   4.744
 4088W        W76414  17.236  40.092  14.427
 4089W        W76415   4.857  14.268   4.067
 4090W        W76416   0.321  25.519   0.462
 4091W        W76417  20.658  33.982  12.231
 4092W        W76418   2.840  30.026   4.683
 4093W        W76419  43.360  11.754  10.802
 4094W        W76420  31.619   1.431  13.599
 4095W        W76421  43.816  25.715  10.722
 4096W        W76422  39.575  28.536  13.805
 4097W        W76423  31.966   3.451   3.252
 4098W        W76424  37.657  38.505  11.223
 4099W        W76425  24.502  30.851   3.180
 4100W        W76426   7.652  19.180  13.414
 4101W        W76427  18.445  36.597   4.183
 4102W        W76428  14.621   9.791   1.835
 4103W        W76429  30.437  11.614  14.757
 4104W        W76430  31.464  26.031  12.193
 4105W        W76431  35.144   3.458   1.250
 4106W        W76432   6.777  44.529   2.718
 4107W        W76433  39.661  41.809  14.047
 4108W        W76434  14.918  39.112  11.392
 4109W        W76435  40.869  13.775  14.417
 4110W        W76436   5.464   6.791  13.493
 4111W        W76437  13.279  27.581  12.639
 4112W        W76438  10.387  25.506   1.551
 4113W        W76439  23.619  36.555   3.585
 4114W        W76440  37.417  19.812  14.911
 4115W        W76441  19.737  32.291  14.197
 4116W        W76442  14.106   9.696  13.327
 4117W        W76443  36.566  33.700   4.119
 4118W        W76444  25.998  15.578   4.300
 4119W        W76445  13.131  14.599  11.060
 4120W        W76446  38.369  11.388   0.740
 4121W        W76447  17.156  12.779   2.624
 4122W        W76448   0.494  22.735   1.363
 4123W        W76449   0.518   1.472  14.632
 4124W        W76450  41.283   4.999   1.745
 4125W        W76451   3.318  30.919   3.154
 4126W        W76452  11.855  22.696   4.685
 4127W        W76453  16.169   2.828  10.804
 4128W        W76454   8.827  16.312   0.912
 4129W        W76455  31.659  33.818  10.682
 4130W        W76456   3.944   0.534  10.536
 4131W        W76457  25.106  36.051  11.922
 4132W        W76458  10.218  42.747  11.497
 4133W        W76459   5.221  11.105   0.454
 4134W        W76460  43.043  13.800   4.971
 4135W        W76461  43.519   0.908   2.307
 4136W        W76462   5.834  41.878   1.707
 4137W        W76463  28.532  24.747  11.021
 4138W        W76464  30.037  26.156  12.011
 4139W        W76465  39.438  31.678  14.367
 4140W        W76466  37.410  38.852  11.530
 4141W        W76467  35.659  19.682   3.819
 4142W        W76468  34.851  11.150   1.881
 4143W        W76469  40.343   9.168   1.799
 4144W        W76470  39.341  40.123   3.700
 4145W        W76471   1.092   0.628   2.367
 4146W        W76472   0.955   0.083  12.899
 4147W        W76473  25.964  33.431   4.071
 4148W        W76474  40.475   8.685  13.338
 4149W        W76475  40.868  27.488   0.492
 4150W        W76476  17.628  40.843  12.101
 4151W        W76477  37.336   4.903   1.382
 4152W        W76478  17.643  16.250  11.606
 4153W        W76479  23.441  33.000  10.558
 4154W        W76480  13.200   7.151  10.702
 4155W        W76481  14.639  30.534  11.199
 4156W        W76482  14.573  21.729   2.436
 4157W        W76483  36.425   6.415  13.735
 4158W        W76484  31.540   6.179   0.884
 4159W        W76485  25.421  27.006  10.647
 4160W        W76486  27.108  33.439  12.530
 4161W        W76487  33.164  12.452   4.156
 4162W        W76488  36.795   0.794   3.186
 4163W        W76489  36.605   9.267   3.849
 4164W        W76490  16.283  21.222  14.907
 4165W        W76491  35.675  17.041  14.329
 4166W        W76492  14.683  19.988  14.082
 4167W        W76493  28.418  22.533  11.106
 4168W        W76494  33.284  11.190   0.861
 4169W        W76495  26.209  37.588  12.556
 4170W        W76496  20.020  33.984  14.842
 4171W        W76497   0.288   0.788   4.606
 4172W        W76498  15.849  36.647   1.785
 4173W        W76499  25.087  14.511  11.369
 4174W        W76500  21.460  13.746  11.361
 4175W        W76501  24.019   3.017   3.735
 4176W        W76502  25.983  33.409   0.736
 4177W        W76503  44.455  11.573  11.933
 4178W        W76504   0.456  26.847  11.990
 4179W        W76505  21.030   1.518  12.975
 4180W        W76506  13.838  25.192   0.357
 4181W        W76507  43.028  31.688   2.889
 4182W        W76508   9.994  34.753   0.997
 4183W        W76509  20.041  27.113  13.992
 4184W        W76510  20.967  37.811   3.762
 4185W        W76511  26.037  37.403  13.989
 4186W        W76512  20.394  36.064   4.073
 4187W        W76513   1.846  43.487   1.253
 4188W        W76514   0.489  38.937   4.648
 4189W        W76515  36.093   7.906   4.532
 4190W        W76516  10.380  21.516   2.784
 4191W        W76517  12.861  20.230   0.497
 4192W        W76518  38.042   4.729   1.834
 4193W        W76519   9.100  14.235   1.404
 4194W        W76520  37.280  44.030  10.494
 4195W        W76521   0.463  35.915  12.405
 4196W        W76522  32.064  10.001   3.620
 4197W        W76523   4.774  38.419  10.324
 4198W        W76524   5.214  23.505  12.992
 4199W        W76525  41.259  25.506  11.375
 4200W        W76526  26.737  36.607  14.085
 4201W        W76527   8.759  23.727  11.826
 4202W        W76528  38.607   5.859   4.433
 4203W        W76529  11.663  25.616  13.765
 4204W        W76530   4.921  27.851  13.962
 4205W        W76531  26.916   9.683   2.940
 4206W        W76532   8.642  39.950   3.405
 4207W        W76533  19.629   5.217   2.791
 4208W        W76534  24.445  38.153   0.353
 4209W        W76535  32.973  24.654   0.012
 4210W        W76536  10.640  13.831   0.212
 4211W        W76537  11.725  20.642   2.734
 4212W        W76538  34.827  17.820   2.319
 4213W        W76539  38.488   0.051  14.773
 4214W        W76540  22.180  30.907  11.581
 4215W        W76541  43.271  18.532   2.783
 4216W        W76542   3.476  15.333   3.552
 4217W        W76543  20.119   9.168  13.392
 4218W        W76544  32.274   1.877   1.318
 4219W        W76545  37.046  32.911   0.422
 4220W        W76546  28.516   7.440  12.844
 4221W        W76547  22.225  30.162   4.654
 4222W        W76548  39.364  14.820   1.400
 4223W        W76549  23.645  31.891   2.117
 4224W        W76550  18.686  20.450   1.423
 4225W        W76551  10.068  38.338  12.472
 4226W        W76552  27.723  26.715   1.103
 4227W        W76553  29.625  27.939  13.129
 4228W        W76554   0.695  40.351  11.044
 4229W        W76555   0.796  12.773   2.327
 4230W        W76556  34.382  17.088  13.478
 4231W        W76557  43.998   2.412   0.995
 4232W        W76558  13.287  34.437  11.178
 4233W        W76559  13.680  23.681   4.060
 4234W        W76560   9.576  14.803   3.756
 4235W        W76561  18.298  21.002   0.342
 4236W        W76562  33.393  13.091   3.387
 4237W        W76563  28.191  17.199  14.720
 4238W        W76564  40.029  35.090   0.356
 4239W        W76565  40.079  31.123  12.398
 4240W        W76566  31.264  28.058   0.852
 4241W        W76567  34.491  16.823  13.923
 4242W        W76568  37.593  38.867   2.807
 4243W        W76569   6.772  40.616   4.069
 4244W        W76570  12.784  26.639   2.740
 4245W        W76571  36.859  43.872   2.741
 4246W        W76572  21.972  12.163   2.012
 4247W        W76573  39.030  43.264  12.314
 4248W        W76574  28.200  25.749  10.828
 4249W        W76575   7.287  29.565   4.277
 4250W        W76576  13.293  42.269   0.715
 4251W        W76577  13.581   7.234   3.909
 4252W        W76578  11.752   5.930   4.435
 4253W        W76579  34.070  14.929  13.168
 4254W        W76580  13.317  19.974   0.352
 4255W        W76581   8.452  11.723  11.534
 4256W        W76582  10.244  33.089  13.520
 4257W        W76583  16.239  18.051  13.012
 4258W        W76584   0.246  15.748   1.399
 4259W        W76585  22.274  17.177   1.840
 4260W        W76586  44.167  28.429   3.122
 4261W        W76587   9.879  16.292  12.666
 4262W        W76588   8.859   7.913   4.152
 4263W        W76589  30.437  42.760  14.870
 4264W        W76590  35.211  13.284   1.122
 4265W        W76591  19.622  29.470  13.905
 4266W        W76592   7.603  16.627   4.755
 4267W        W76593   4.143  37.869  11.923
 4268W        W76594  41.054  33.095  12.039
 4269W        W76595  26.533   4.973  14.096
 4270W        W76596  30.420   6.242  14.822
 4271W        W76597  23.720  29.907  11.972
 4272W        W76598  13.080  38.947   2.466
 4273W        W76599  44.854  39.836   4.570
 4274W        W76600  38.980  32.934  14.167
 4275W        W76601  32.730  14.091   4.944
 4276W        W76602  14.589  19.920   0.553
 4277W        W76603  35.621  37.395   3.245
 4278W        W76604  35.537  43.826  11.642
 4279W        W76605   9.901  21.492  12.904
 4280W        W76606  13.886  14.679  13.038
 4281W        W76607  36.905  13.907  14.908
 4282W        W76608   5.168  12.870   3.227
 4283W        W76609  31.582  12.970  11.151
 4284W        W76610   7.968   9.123  14.120
 4285W        W76611  22.299  11.183  14.355
 4286W        W76612  16.720  40.433  11.512
 4287W        W76613  38.282  10.298  11.107
 4288W        W76614  18.996  18.519   1.187
 4289W        W76615  33.806  14.270  14.481
 4290W        W76616  37.537  10.545   2.627
 4291W        W76617  39.015  30.312   3.388
 4292W        W76618  23.798  42.862  13.269
 4293W        W76619  42.759  38.072   4.539
 4294W        W76620   1.041  40.232  11.461
 4295W        W76621  13.797  30.184   1.315
 4296W        W76622  15.845  40.436  11.063
 4297W        W76623  11.748  16.493   0.881
 4298W        W76624   2.528  20.219  14.533
 4299W        W76625  11.595   9.869   0.835
 4300W        W76626  41.919   9.273   1.669
 4301W        W76627   8.239  24.140   4.584
 4302W        W76628  27.017  42.044   3.222
 4303W        W76629  40.976  26.126   3.873
 4304W        W76630   4.322  40.722  13.023
 4305W        W76631  30.463   0.399  11.140
 4306W        W76632  21.417  11.731   2.310
 4307W        W76633  43.033   8.748  11.291
 4308W        W76634  15.856  28.947   1.601
 4309W        W76635  28.032  10.586  14.955
 4310W        W76636  41.790   4.757  11.166
 4311W        W76637  31.121  40.866  12.885
 4312W        W76638   0.606  29.080   1.101
 4313W        W76639  21.549   5.795   4.069
 4314W        W76640   8.216  35.178   2.800
 4315W        W76641  34.842  31.935   1.260
 4316W        W76642   5.559  42.981   0.444
 4317W        W76643  38.480  10.861  11.013
 4318W        W76644  24.544  27.280   3.647
 4319W        W76645  25.649   7.295   4.563
 4320W        W76646   2.310  10.001   0.873
 4321W        W76647  16.525  39.097   2.731
 4322W        W76648   1.432   4.577  12.401
 4323W        W76649   7.830   8.579  11.564
 4324W        W76650  42.990   9.922  11.039
 4325W        W76651  34.220  34.367  13.407
 4326W        W76652  26.059  36.602   3.375
 4327W        W76653  16.794   1.886   0.178
 4328W        W76654  17.798  21.493   0.965
 4329W        W76655  28.625  29.531   4.674
 4330W        W76656  38.073   0.427  14.020
 4331W        W76657  19.222  36.819   1.470
 4332W        W76658  41.972  16.301  14.836
 4333W        W76659  34.543  34.491   3.747
 4334W        W76660  15.215   5.007  14.864
 4335W        W76661  41.768  39.073  10.756
 4336W        W76662  43.321  19.711   0.003
 4337W        W76663  31.920  34.362   2.235
 4338W        W76664  14.946  32.603   2.408
 4339W        W76665  33.794  30.619   1.502
 4340W        W76666   2.747   2.471   5.086
 4341W        W76667  37.427  36.470  13.842
 4342W        W76668  43.504   5.403   2.183
 4343W        W76669  23.333  38.874   0.906
 4344W        W76670  31.532   9.310   1.376
 4345W        W76671  43.837  32.058   1.897
 4346W        W76672  32.399  43.479   2.198
 4347W        W76673  17.391  44.088  11.049
 4348W        W76674  33.314  16.175   0.660
 4349W        W76675  42.911  44.568   4.010
 4350W        W76676  33.217  30.604   5.007
 4351W        W76677  36.963  20.477  13.357
 4352W        W76678  34.993  30.911  13.821
 4353W        W76679  34.145   0.863   0.220
 4354W        W76680  24.161   0.249  13.113
 4355W        W76681  38.673  25.958   3.293
 4356W        W76682   1.742   4.656  13.189
 4357W        W76683  40.789   5.866  11.583
 4358W        W76684  33.987  31.042   3.667
 4359W        W76685  15.892  38.720   0.478
 4360W        W76686   4.824  41.538  11.619
 4361W        W76687   1.595  14.404  11.138
 4362W        W76688  29.124  17.001  11.126
 4363W        W76689  22.139   6.422  10.823
 4364W        W76690   2.536  18.521   0.313
 4365W        W76691  42.533  20.207  10.899
 4366W        W76692  11.209  40.664   3.105
 4367W        W76693  18.526  18.640   3.453
 4368W        W76694   5.787  35.501  10.580
 4369W        W76695  29.896  25.373   3.494
 4370W        W76696  32.359  25.971   0.785
 4371W        W76697  38.580  19.659  12.870
 4372W        W76698   2.164  26.511  10.280
 4373W        W76699  33.746  24.928  12.492
 4374W        W76700  19.364  17.616  11.100
 4375W        W76701  12.149  29.588   0.285
 4376W        W76702  12.426   8.789  13.871
 4377W        W76703  13.157   2.757  12.441
 4378W        W76704  35.620  15.121   0.456
 4379W        W76705  26.232  28.112   0.863
 4380W        W76706   4.955   4.861   0.893
 4381W        W76707  41.781  35.401   4.441
 4382W        W76708  44.756  34.409  10.699
 4383W        W76709   5.987  44.272   3.772
 4384W        W76710  28.452  37.288   1.834
 4385W        W76711   6.074   9.740  14.849
 4386W        W76712  30.732  29.964   4.177
 4387W        W76713   1.222  22.578   4.485
 4388W        W76714   6.393  38.021   4.090
 4389W        W76715  21.694  17.754  10.625
 4390W        W76716  35.073  13.207   3.761
 4391W        W76717  24.088  13.747  12.596
 4392W        W76718   2.963  17.564  11.944
 4393W        W76719  42.057  12.889   4.158
 4394W        W76720  18.625  39.492   0.828
 4395W        W76721  44.992  26.026   0.239
 4396W        W76722  40.614  26.220  14.542
 4397W        W76723  20.236   0.974  10.685
 4398W        W76724   4.510  29.858  11.113
 4399W        W76725  19.206  42.053   1.471
 4400W        W76726  35.355  44.729  11.684
 4401W        W76727  37.236  10.292  12.391
 4402W        W76728  40.802  32.099   3.349
 4403W        W76729   0.856  21.692   1.408
 4404W        W76730  28.624   3.920   0.513
 4405W        W76731  15.526  32.681  13.059
 4406W        W76732   7.521  44.877   2.023
 4407W        W76733  36.466   7.649   2.914
 4408W        W76734  38.936  22.809   1.960
 4409W        W76735  42.886  19.191   2.229
 4410W        W76736  25.193  13.123   0.982
 4411W        W76737  37.575  32.706  11.082
 4412W        W76738  32.574  25.550  14.026
 4413W        W76739  35.529  40.686   0.844
 4414W        W76740   2.143   1.649  10.709
 4415W        W76741  15.345   2.482  10.781
 4416W        W76742  11.336  28.138   0.901
 4417W        W76743   6.224  10.037  10.177
 4418W        W76744   7.939  15.109  10.378
 4419W        W76745  34.019  40.283   1.902
 4420W        W76746  26.929  16.168   0.502
 4421W        W76747  33.073  40.458  13.420
 4422W        W76748   4.894  19.595   5.060
 4423W        W76749  30.607  30.720  13.835
 4424W        W76750   4.232  10.732   5.059
 4425W        W76751  29.022   8.438   2.707
 4426W        W76752   4.612   3.767   1.208
 4427W        W76753  35.522  27.593   4.575
 4428W        W76754   2.265  41.087   3.287
 4429W        W76755  12.965   2.401   3.093
 4430W        W76756  40.409  35.871   1.884
 4431W        W76757  23.159   1.309   4.425
 4432W        W76758  33.089  32.748   2.941
 4433W        W76759  31.534  42.426   1.858
 4434W        W76760   6.970   6.797  12.178
 4435W        W76761  15.646  18.482  11.611
 4436W        W76762  34.864   4.022   4.369
 4437W        W76763   9.499  13.608   1.815
 4438W        W76764  30.570  33.720  11.509
 4439W        W76765  37.903   7.707   1.741
 4440W        W76766  26.925  18.035   4.743
 4441W        W76767  31.549  23.710  14.736
 4442W        W76768   3.275  19.280  13.907
 4443W        W76769  34.109  25.914  13.608
 4444W        W76770  13.022  44.334  13.972
 4445W        W76771   1.285  27.406  10.844
 4446W        W76772  37.806  35.330   4.249
 4447W        W76773   0.792  15.949  11.702
 4448W        W76774  22.658   6.736   3.770
 4449W        W76775   0.999  24.426   3.626
 4450W        W76776  27.099  14.147  11.104
 4451W        W76777   1.914  35.976   4.124
 4452W        W76778  25.551  29.989   0.279
 4453W        W76779  23.765   9.056   4.838
 4454W        W76780  28.155  25.976  12.897
 4455W        W76781  38.584  41.163  14.815
 4456W        W76782  21.863  26.393  13.550
 4457W        W76783  21.698  42.462  14.916
 4458W        W76784  20.489  35.583   0.219
 4459W        W76785  29.027  32.373   0.830
 4460W        W76786  17.659  33.033  13.975
 4461W        W76787  40.378  29.224  12.436
 4462W        W76788  35.594   1.324   3.317
 4463W        W76789   9.877   1.948   1.888
 4464W        W76790   2.300  27.462   4.122
 4465W        W76791  43.912   2.686   0.571
 4466W        W76792   4.816  17.671  14.664
 4467W        W76793  43.051   1.407  10.705
 4468W        W76794  37.513   5.303  14.992
 4469W        W76795  24.538  36.298  14.481
 4470W        W76796   0.905  16.647   2.035
 4471W        W76797  39.889  44.493   0.776
 4472W        W76798  33.991   5.158   3.269
 4473W        W76799  14.386  11.379  12.646
 4474W        W76800   2.151   0.368   0.176
 4475W        W76801  37.899  19.561   0.376
 4476W        W76802  23.800  19.005   0.410
 4477W        W76803   7.977   7.823   2.283
 4478W        W76804  26.407  31.796   4.540
 4479W        W76805  23.183  18.153   3.877
 4480W        W76806  34.429  32.726  13.346
 4481W        W76807  44.041   2.995  13.442
 4482W        W76808  10.768  22.735   3.756
 4483W        W76809   5.965  16.033   1.882
 4484W        W76810  42.614  43.117   2.325
 4485W        W76811  32.474  27.186  13.105
 4486W        W76812  31.423  38.555  12.424
 4487W        W76813   8.359   6.904   3.497
 4488W        W76814   5.450  21.796  11.969
 4489W        W76815  29.258  26.136   2.177
 4490W        W76816  40.374  27.466   2.200
 4491W        W76817  38.467  15.134  11.405
 4492W        W76818  10.751   9.747   1.366
 4493W        W76819  31.915  16.280  11.933
 4494W        W76820   1.746  14.260   1.951
 4495W        W76821   7.941   2.699  13.561
 4496W        W76822  23.167  20.546   3.460
 4497W        W76823  36.880  42.562   0.850
 4498W        W76824  11.624   6.748   0.839
 4499W        W76825  44.389  24.526  10.984
 4500W        W76826  40.342  26.568  14.792
 4501W        W76827  29.888  12.128   2.453
 4502W        W76828  30.492   1.729  10.826
 4503W        W76829  38.358  19.765  10.924
 4504W        W76830  29.589  32.817  10.697
 4505W        W76831   6.680  15.366  12.859
 4506W        W76832  31.920  37.443  10.876
 4507W        W76833  26.938  16.384  12.445
 4508W        W76834  39.382  22.950   3.313
 4509W        W76835  38.822  15.318  13.109
 4510W        W76836  43.962  31.564  14.810
 4511W        W76837  23.071  12.283  12.501
 4512W        W76838  31.399  40.458  12.807
 4513W        W76839  44.505   5.998  14.022
 4514W        W76840  39.775  25.553   0.973
 4515W        W76841  18.247   8.168  10.674
 4516W        W76842  25.907  25.393   4.257
 4517W        W76843  18.334  16.337   1.233
 4518W        W76844  41.867  33.410  11.565
 4519W        W76845  42.305  37.923   3.782
 4520W        W76846   5.664  35.990  14.510
 4521W        W76847   9.562  24.469   3.129
 4522W        W76848   7.290   8.591  13.706
 4523W        W76849  19.705  18.137   2.364
 4524W        W76850   5.680   4.945  10.736
 4525W        W76851  20.098   8.037   2.363
 4526W        W76852  12.511  13.624   3.653
 4527W        W76853  41.272   9.146  14.748
 4528W        W76854   1.714  38.469   0.305
 4529W        W76855  20.512   8.183  11.543
 4530W        W76856   4.354  14.792   1.817
 4531W        W76857  12.593   7.722   0.054
 4532W        W76858  29.246  39.423   3.751
 4533W        W76859  10.404   3.404  14.773
 4534W        W76860  13.267  20.990   0.334
 4535W        W76861  22.917  34.728   3.342
 4536W        W76862   0.430  12.564  10.597
 4537W        W76863  18.889  30.500  14.350
 4538W        W76864  31.428  14.731   0.807
 4539W        W76865   6.938  42.055   2.909
 4540W        W76866  26.166  23.738   1.650
 4541W        W76867   5.895  31.613   4.163
 4542W        W76868  34.007  32.470  11.003
 4543W        W76869  36.340  31.085  14.275
 4544W        W76870  33.673  29.581   2.155
 4545W        W76871  17.608  21.097  11.025
 4546W        W76872  35.984  27.934  12.985
 4547W        W76873  24.056  24.993   4.574
 4548W        W76874  23.548  19.518   4.187
 4549W        W76875  14.721   9.895  10.493
 4550W        W76876   9.305  11.479   2.654
 4551W        W76877  33.051  20.146  14.756
 4552W        W76878  33.892   3.009  14.488
 4553W        W76879   0.344  29.529  12.221
 4554W        W76880  29.388  39.891   4.347
 4555W        W76881  29.041  20.672   3.326
 4556W        W76882  32.347  27.055  13.588
 4557W        W76883  25.458  30.324   4.753
 4558W        W76884  18.218  42.024   2.574
 4559W        W76885  16.796   2.529   2.453
 4560W        W76886  41.518  41.395   4.119
 4561W        W76887   8.576  37.986  11.514
 4562W        W76888   0.711   6.230   0.341
 4563W        W76889  32.549  24.072   3.572
 4564W        W76890   2.770  10.189   1.835
 4565W        W76891  41.385  31.186   4.178
 4566W        W76892  23.746  41.392   1.659
 4567W        W76893  39.472  44.343  10.788
 4568W        W76894  27.019  10.150  12.603
 4569W        W76895  34.071   3.745  12.902
 4570W        W76896  43.738  14.038   0.908
 4571W        W76897   8.030  25.628   4.298
 4572W        W76898  32.144  26.492   5.248
 4573W        W76899  15.221  21.958  14.943
 4574W        W76900  35.637  36.993  14.743
 4575W        W76901  15.224  15.982  14.234
 4576W        W76902   4.321   1.088   3.741
 4577W        W76903  11.035   1.915  13.947
 4578W        W76904  12.896  19.144   4.901
 4579W        W76905  18.399  36.913   0.506
 4580W        W76906  22.984   6.441   1.349
 4581W        W76907  34.745  33.541   4.356
 4582W        W76908   8.900  31.125   2.286
 4583W        W76909   5.749  18.200   0.766
 4584W        W76910   5.121  41.033   5.046
 4585W        W76911   3.430   7.344   4.310
 4586W        W76912  39.081  42.320  14.450
 4587W        W76913  33.558   4.413  11.576
 4588W        W76914  30.113  16.111   3.212
 4589W        W76915   9.411  10.230  12.497
 4590W        W76916  29.014  44.800  10.613
 4591W        W76917  10.947  21.014   4.117
 4592W        W76918  32.679  25.118   5.068
 4593W        W76919  38.109  23.906   0.351
 4594W        W76920   3.024  21.308  10.220
 4595W        W76921  34.130   9.621   3.124
 4596W        W76922  42.950  37.748   1.193
 4597W        W76923  27.714  26.555   2.827
 4598W        W76924  20.741  27.722   3.349
 4599W        W76925   9.222  20.290   3.061
 4600W        W76926   0.222   0.306   2.436
 4601W        W76927   1.417  30.310   4.659
 4602W        W76928  11.081  29.396  11.212
 4603W        W76929  19.238   4.848   3.576
 4604W        W76930   0.435  20.029  10.708
 4605W        W76931  40.537  22.324  13.395
 4606W        W76932  10.257  27.634  11.003
 4607W        W76933  40.185  23.655  12.935
 4608W        W76934  39.845  41.259  11.584
 4609W        W76935  38.582  19.556  12.338
 4610W        W76936  15.054  27.686   2.325
 4611W        W76937  37.025  27.086   2.437
 4612W        W76938  17.630  12.512  14.050
 4613W        W76939  39.823  29.433  14.971
 4614W        W76940  31.100  28.189  13.701
 4615W        W76941   7.947  33.993   1.846
 4616W        W76942  27.805  31.863  13.437
 4617W        W76943  15.635  15.872   5.022
 4618W        W76944  29.636   2.016  13.348
 4619W        W76945  38.471  20.716  10.532
 4620W        W76946  14.556   7.905  12.969
 4621W        W76947  31.640  28.685  12.978
 4622W        W76948  16.808  13.763   0.862
 4623W        W76949   7.642  15.699  14.464
 4624W        W76950  16.976   3.994   2.014
 4625W        W76951  37.271  15.378  14.649
 4626W        W76952  28.462  12.034  13.862
 4627W        W76953  29.034  31.993   2.409
 4628W        W76954   3.719  38.332   4.235
 4629W        W76955  24.750   4.735   1.488
 4630W        W76956  27.092  43.198   1.988
 4631W        W76957  40.301  30.511  12.840
 4632W        W76958  12.874   7.040   0.242
 4633W        W76959  36.623  17.577   1.802
 4634W        W76960  31.391  19.743  12.021
 4635W        W76961  25.984   9.866  13.610
 4636W        W76962  15.245   2.549  12.122
 4637W        W76963  23.542   2.995   2.191
 4638W        W76964  16.881  37.591   0.918
 4639W        W76965  11.802  10.873   4.697
 4640W        W76966  31.182  43.750   0.399
 4641W        W76967   0.910  15.820  13.518
 4642W        W76968  20.561   0.025   3.063
 4643W        W76969  38.798  25.329  10.764
 4644W        W76970  27.620  44.517   2.721
 4645W        W76971  30.943  29.920  11.611
 4646W        W76972  41.550  13.334  11.606
 4647W        W76973   7.447  38.760  10.653
 4648W        W76974  34.966   8.723  14.188
 4649W        W76975  39.566  10.912  13.461
 4650W        W76976  35.812  12.882  11.145
 4651W        W76977  14.764  42.952   4.272
 4652W        W76978  22.515  30.437   0.492
 4653W        W76979  11.112   0.771   0.055
 4654W        W76980  26.755   8.326   3.750
 4655W        W76981  42.811  42.496  10.720
 4656W        W76982  22.678  39.064  14.092
 4657W        W76983  13.689  33.921   2.594
 4658W        W76984  31.108  22.640  11.587
 4659W        W76985  24.780  10.068  13.788
 4660W        W76986  27.492  31.416   2.715
 4661W        W76987  20.820  26.850   2.325
 4662W        W76988  34.451  13.188  11.423
 4663W        W76989  10.754  15.665  14.568
 4664W        W76990   5.493  13.595  13.359
 4665W        W76991  29.983   4.919   0.966
 4666W        W76992  20.871   9.443   4.531
 4667W        W76993  31.034   8.143   2.664
 4668W        W76994  23.614  12.421  13.675
 4669W        W76995  38.114  13.805  13.073
 4670W        W76996  31.069  17.869   1.508
 4671W        W76997   1.351  40.100  12.530
 4672W        W76998  42.377  27.010  12.839
 4673W        W76999  26.139  11.222  11.352
 4674W        W77000   3.815  40.472  14.940
 4675W        W77001  27.761   7.953  14.925
 4676W        W77002  21.012   7.161  10.811
 4677W        W77003   0.624  35.696  12.951
 4678W        W77004  13.095  23.167  10.780
 4679W        W77005  11.604  26.170  12.649
 4680W        W77006  28.480  40.911   3.289
 4681W        W77007  32.384  22.778  11.139
 4682W        W77008  40.317  41.959  14.991
 4683W        W77009  13.825  39.122  12.824
 4684W        W77010  21.232  40.317  14.528
 4685W        W77011   6.961  40.951   3.639
 4686W        W77012   2.752  17.519  11.153
 4687W        W77013   7.770   4.290   4.021
 4688W        W77014  43.946  10.418   0.419
 4689W        W77015  31.024  44.440  10.703
 4690W        W77016  32.662  41.217   1.766
 4691W        W77017  31.372  17.556  14.054
 4692W        W77018  32.627  24.719  13.470
 4693W        W77019  18.657   3.806  14.789
 4694W        W77020  27.640  42.822   0.276
 4695W        W77021   3.996  22.149   5.114
 4696W        W77022  34.244  38.037  10.353
 4697W        W77023   1.800  17.278  11.492
 4698W        W77024  22.436  14.759   4.882
 4699W        W77025  40.936  24.412  14.414
 4700W        W77026  13.691  17.809  11.373
 4701W        W77027   7.363  39.522  11.030
 4702W        W77028   1.913  35.874  14.964
 4703W        W77029  25.652  18.134   3.259
 4704W        W77030  38.774  28.130   1.041
 4705W        W77031  34.587  24.192  13.466
 4706W        W77032  42.659   7.826   4.871
 4707W        W77033   6.995  26.991   1.346
 4708W        W77034  10.205  33.855   2.746
 4709W        W77035  31.561  28.174   3.230
 4710W        W77036   3.662  31.969  13.864
 4711W        W77037  24.658  25.514   0.532
 4712W        W77038  24.036  32.622  12.512
 4713W        W77039  36.672  26.512   0.752
 4714W        W77040  30.696  16.708   1.724
 4715W        W77041  25.444   6.496   2.723
 4716W        W77042  40.441  38.384   2.413
 4717W        W77043  14.370  42.817   2.129
 4718W        W77044   6.354  38.569   0.458
 4719W        W77045  13.864  34.933  12.554
 4720W        W77046  16.077  23.354  11.897
 4721W        W77047  43.970   7.352   2.833
 4722W        W77048  12.793  12.145  10.558
 4723W        W77049  44.733   2.387   2.768
 4724W        W77050  12.069   4.079   3.309
 4725W        W77051   6.855   7.530   0.790
 4726W        W77052   7.036  17.740  11.880
 4727W        W77053  42.574  39.825  11.645
 4728W        W77054  44.208  34.620   3.746
 4729W        W77055  25.977  17.609   0.995
 4730W        W77056  31.940   8.930  11.226
 4731W        W77057  33.576  17.668  12.856
 4732W        W77058  20.898  24.011   2.778
 4733W        W77059  31.886   4.668   4.320
 4734W        W77060  30.964  28.420   1.114
 4735W        W77061  42.029  43.997   4.122
 4736W        W77062  13.539  33.845   1.356
 4737W        W77063  15.770  39.374  12.513
 4738W        W77064  23.207   4.921  12.021
 4739W        W77065  41.971  19.055   4.693
 4740W        W77066   2.687   1.959   5.020
 4741W        W77067   8.994  34.623  12.938
 4742W        W77068  38.569  38.002   1.871
 4743W        W77069  10.502  31.415   2.929
 4744W        W77070  25.521  43.058  12.411
 4745W        W77071  23.283   4.016  12.947
 4746W        W77072  39.948  24.932  14.426
 4747W        W77073   7.266  24.532   1.812
 4748W        W77074   6.693   0.994   3.907
 4749W        W77075  40.804  13.243   2.268
 4750W        W77076  34.242  25.223  14.506
 4751W        W77077  35.444  10.607   0.374
 4752W        W77078  34.362  40.348  13.141
 4753W        W77079  14.246  23.998   2.354
 4754W        W77080  41.848  18.199   1.821
 4755W        W77081  26.512  21.874  14.926
 4756W        W77082  39.768  42.305   0.874
 4757W        W77083  25.509   7.835  13.990
 4758W        W77084  34.530   4.534  12.897
 4759W        W77085  31.177  44.035   1.360
 4760W        W77086  44.748  27.902  13.469
 4761W        W77087  40.049  43.976  11.180
 4762W        W77088   7.295  11.559   0.002
 4763W        W77089  35.671  29.534  13.557
 4764W        W77090   2.875  42.504   0.182
 4765W        W77091  25.700  40.969   4.522
 4766W        W77092  14.170  39.481  13.985
 4767W        W77093  12.743   5.540   2.135
 4768W        W77094   6.823  37.508  10.686
 4769W        W77095   7.413  34.004   1.692
 4770W        W77096   9.632  10.870  11.447
 4771W        W77097  11.541  17.232  10.696
 4772W        W77098  12.662   1.208   1.501
 4773W        W77099   5.149  34.768   0.114
 4774W        W77100  42.259  14.683   2.819
 4775W        W77101   4.368  22.215  14.314
 4776W        W77102  11.698  31.604   4.610
 4777W        W77103  13.085  16.155  12.033
 4778W        W77104  26.838  23.335  14.518
 4779W        W77105  20.343   5.136   0.260
 4780W        W77106  42.714   2.630   2.150
 4781W        W77107   5.176  36.455  12.910
 4782W        W77108  18.264  23.708   4.575
 4783W        W77109  21.733  38.825  14.285
 4784W        W77110  11.250  21.614  12.085
 4785W        W77111   8.135   4.349  14.932
 4786W        W77112  23.198  44.202  14.199
 4787W        W77113  19.529   4.067   1.863
 4788W        W77114   0.229   7.470   4.804
 4789W        W77115   1.543  39.372  11.410
 4790W        W77116  11.205  12.838  11.663
 4791W        W77117  18.716  32.393   4.218
 4792W        W77118  12.914   9.986   1.325
 4793W        W77119  16.619  35.229   0.197
 4794W        W77120  43.314  27.207   0.814
 4795W        W77121  14.218  36.838   4.567
 4796W        W77122   8.289  25.523  14.247
 4797W        W77123  43.893  22.649   3.317
 4798W        W77124  38.062  12.745  12.774
 4799W        W77125   0.333  27.969   0.206
 4800W        W77126  15.130   9.673   3.624
 4801W        W77127  22.532  39.394   1.301
 4802W        W77128   6.834  21.666  12.990
 4803W        W77129  33.365  32.093   0.406
 4804W        W77130  11.012  41.440  13.073
 4805W        W77131  22.482  41.299  11.998
 4806W        W77132  25.631  15.870  12.644
 4807W        W77133  43.440  36.435  11.588
 4808W        W77134  34.565  42.436   2.195
 4809W        W77135  18.587  30.369  10.689
 4810W        W77136  17.040  43.358   3.707
 4811W        W77137   6.614  14.121  14.718
 4812W        W77138  38.407  21.713  10.610
 4813W        W77139  30.116  16.397  11.571
 4814W        W77140  28.819  38.941  10.446
 4815W        W77141  26.986  19.556  14.025
 4816W        W77142   9.532  31.717  13.568
 4817W        W77143  37.643  37.222   4.991
 4818W        W77144  25.563  35.640  13.937
 4819W        W77145  17.133  19.384   1.461
 4820W        W77146  35.397  16.501   4.566
 4821W        W77147  40.028  16.719   0.998
 4822W        W77148  24.651  15.116  12.070
 4823W        W77149  17.402  25.378  10.579
 4824W        W77150  21.183  13.819  13.021
 4825W        W77151   7.755  25.594   2.006
 4826W        W77152  44.282  22.165   0.915
 4827W        W77153  33.321  35.605  11.061
 4828W        W77154  37.352  43.995   2.565
 4829W        W77155   5.419  40.427  12.177
 4830W        W77156   4.526   7.717   4.287
 4831W        W77157  38.505  23.918   4.842
 4832W        W77158  38.266  26.278   3.348
 4833W        W77159   6.825  40.360   0.030
 4834W        W77160   9.082   0.876   9.912
 4835W        W77161   6.395  11.728  10.681
 4836W        W77162  39.569   6.771   2.145
 4837W        W77163   3.945  27.425   2.313
 4838W        W77164  24.230  24.080   4.119
 4839W        W77165   3.329  40.312   1.849
 4840W        W77166  11.970  35.622   1.939
 4841W        W77167   5.515   3.397  14.771
 4842W        W77168  14.292  22.499  12.108
 4843W        W77169   1.708  12.730  14.780
 4844W        W77170  26.050  33.003   1.059
 4845W        W77171  33.389  28.672  12.474
 4846W        W77172  11.165  40.774   4.628
 4847W        W77173  42.531  19.363  10.672
 4848W        W77174  41.474  43.749   3.064
 4849W        W77175  28.127   3.661  10.209
 4850W        W77176  11.877  30.057  12.348
 4851W        W77177   0.476  38.120   2.388
 4852W        W77178  24.241   0.327   1.303
 4853W        W77179  35.830  35.067  14.501
 4854W        W77180  38.587  18.376  14.880
 4855W        W77181  18.583   6.286  10.582
 4856W        W77182  24.082  31.719  11.811
 4857W        W77183  27.897  25.374   4.538
 4858W        W77184  21.984  17.681   2.147
 4859W        W77185   0.476  31.588  13.356
 4860W        W77186  40.377  39.085  14.353
 4861W        W77187  11.433  34.645   3.809
 4862W        W77188  18.892  14.208   0.336
 4863W        W77189  13.631  18.699   3.672
 4864W        W77190  14.698  27.205  14.920
 4865W        W77191  20.318  33.495  14.057
 4866W        W77192  37.602  23.215  13.060
 4867W        W77193  10.670  26.127   0.836
 4868W        W77194  28.969  32.047  14.479
 4869W        W77195  24.165  10.552   1.650
 4870W        W77196  38.641  23.216   2.773
 4871W        W77197   9.210  19.592   1.908
 4872W        W77198   9.293  35.372   0.496
 4873W        W77199   9.825  25.036   1.646
 4874W        W77200  34.573  18.534  11.117
 4875W        W77201  19.738  10.175   4.756
 4876W        W77202   8.778  24.428  10.329
 4877W        W77203  26.122  34.309   4.589
 4878W        W77204   1.447  19.701   1.020
 4879W        W77205  37.899  11.813   4.841
 4880W        W77206   2.267  36.820   4.208
 4881W        W77207   3.458  27.341  12.337
 4882W        W77208   2.240  41.815  11.643
 4883W        W77209   8.673   7.403  12.002
 4884W        W77210  16.455  28.486   2.662
 4885W        W77211  35.849  34.055   4.640
 4886W        W77212  18.482   1.969   3.304
 4887W        W77213  30.650  29.699   4.593
 4888W        W77214  11.357  14.443  12.402
 4889W        W77215  19.278  26.135   4.908
 4890W        W77216  43.234  25.454   0.504
 4891W        W77217   5.709  20.140  13.021
 4892W        W77218  23.442  27.987   2.287
 4893W        W77219  44.280   8.255  13.584
 4894W        W77220  41.409  27.470   4.610
 4895W        W77221  31.857  32.995   3.887
 4896W        W77222  31.453  37.917   3.632
 4897W        W77223  33.103  29.196  11.808
 4898W        W77224  43.574  27.464   1.952
 4899W        W77225  27.459  42.299  12.500
 4900W        W77226  37.877  32.121   2.131
 4901W        W77227   1.693   0.334  12.346
 4902W        W77228   8.801   4.147   1.445
 4903W        W77229  27.860   6.269  13.264
 4904W        W77230   2.734  19.758   0.442
 4905W        W77231  31.456  13.875   5.010
 4906W        W77232  22.696  38.394  11.133
 4907W        W77233   0.427  40.824  10.970
 4908W        W77234   5.401  44.778   0.873
 4909W        W77235   7.790   1.461   0.245
 4910W        W77236   3.721  35.059  11.582
 4911W        W77237  25.294  16.072  10.824
 4912W        W77238  44.472   3.095   3.224
 4913W        W77239  14.803  37.531  14.263
 4914W        W77240   9.642   8.744  10.691
 4915W        W77241   2.200   1.779   5.070
 4916W        W77242   2.007  42.970   1.158
 4917W        W77243  29.927  22.084  14.029
 4918W        W77244   9.336  22.190  12.880
 4919W        W77245  11.512  31.387  13.388
 4920W        W77246  14.273   1.054   0.340
 4921W        W77247   3.169  21.757   0.757
 4922W        W77248   4.871   4.798  13.950
 4923W        W77249  27.436  11.755  10.568
 4924W        W77250  15.310  34.888   9.794
 4925W        W77251  24.017  24.769  12.983
 4926W        W77252  42.491  25.626   2.236
 4927W        W77253  12.238  39.415  10.739
 4928W        W77254  39.791  29.712   4.612
 4929W        W77255   5.764  36.803   2.214
 4930W        W77256  34.626  32.545   2.791
 4931W        W77257  42.413  43.428  10.354
 4932W        W77258  15.761  19.997   4.238
 4933W        W77259  24.025  31.101   3.128
 4934W        W77260  36.033  31.623  14.891
 4935W        W77261  44.311  43.324  10.880
 4936W        W77262  41.344  28.482   0.990
 4937W        W77263  38.107  17.108  14.997
 4938W        W77264  33.815  26.508   4.099
 4939W        W77265  37.923  34.813   1.337
 4940W        W77266  25.606  17.696   5.485
 4941W        W77267   4.363  43.408   0.356
 4942W        W77268  41.473  16.075   1.331
 4943W        W77269  18.009  13.906   3.318
 4944W        W77270  27.562  37.388   2.242
 4945W        W77271  29.971   3.835   4.370
 4946W        W77272  43.791  28.173  14.496
 4947W        W77273  19.866   4.832   3.865
 4948W        W77274  15.168  36.445   4.629
 4949W        W77275  13.234  23.660   3.800
 4950W        W77276  37.407  25.538  14.790
 4951W        W77277  29.645  42.819  11.098
 4952W        W77278  30.371   9.722   3.239
 4953W        W77279   9.095  36.590  14.369
 4954W        W77280  36.610  19.280  11.430
 4955W        W77281   3.579   3.722  14.838
 4956W        W77282  27.555  36.522   3.703
 4957W        W77283   2.270  19.604   2.285
 4958W        W77284  33.168  42.983  14.471
 4959W        W77285   4.322  27.130   3.813
 4960W        W77286  22.016  20.998   4.361
 4961W        W77287  41.935   5.790   1.854
 4962W        W77288  18.743   3.959  11.456
 4963W        W77289  36.821  41.317   2.823
 4964W        W77290  29.556  22.619   1.924
 4965W        W77291  23.212  14.633   2.813
 4966W        W77292  36.290  12.384  14.437
 4967W        W77293  32.654  29.450  13.917
 4968W        W77294  13.805  19.187   4.407
 4969W        W77295  43.713  35.925   0.281
 4970W        W77296   9.262  22.754  12.858
 4971W        W77297   2.468  25.514  11.800
 4972W        W77298   8.910  14.657   2.196
 4973W        W77299   1.255  37.437   5.002
 4974W        W77300  30.011  12.111  12.608
 4975W        W77301   8.392  30.729  13.424
 4976W        W77302  42.314  33.147   2.280
 4977W        W77303  38.127   4.261  13.534
 4978W        W77304  41.089   4.637  12.625
 4979W        W77305  17.269   2.058   0.905
 4980W        W77306  40.541  22.612   2.133
 4981W        W77307   3.295  34.243   3.537
 4982W        W77308  16.118  38.853  14.359
 4983W        W77309  41.793  18.115   0.763
 4984W        W77310   3.386   3.233  14.824
 4985W        W77311  29.496  26.850   3.735
 4986W        W77312   9.896  21.605   3.865
 4987W        W77313  10.882  32.180  12.871
 4988W        W77314  14.287  25.795  12.504
 4989W        W77315   5.359  10.058  13.978
 4990W        W77316  16.412   2.537   0.024
 4991W        W77317   0.745  14.776   1.624
 4992W        W77318  26.538  13.824   4.240
 4993W        W77319  30.632  23.781   4.065
 4994W        W77320  27.055  37.114   1.822
 4995W        W77321  38.916  29.725   1.231
 4996W        W77322  16.704  23.133   4.330
 4997W        W77323  16.052  14.115   0.948
 4998W        W77324  41.070   8.225   2.310
 4999W        W77325  33.526   0.074  12.991
 5000W        W77326  32.020  39.127   0.893
 5001W        W77327  36.483   8.419  12.015
 5002W        W77328  20.577  17.094  12.340
 5003W        W77329  23.796   6.096  11.641
 5004W        W77330   4.814  11.357  10.692
 5005W        W77331  19.228  14.602   4.554
 5006W        W77332  28.726  32.581   4.536
 5007W        W77333  10.664   9.459   1.802
 5008W        W77334  34.911  27.271  12.905
 5009W        W77335  28.958  28.594  12.880
 5010W        W77336  10.434  22.697  13.791
 5011W        W77337  32.647   0.048   0.874
 5012W        W77338  22.290  21.449   3.565
 5013W        W77339  42.291  22.243  11.175
 5014W        W77340  27.929  15.728   4.284
 5015W        W77341  43.435  18.921  11.559
 5016W        W77342  34.903  41.833  10.855
 5017W        W77343  19.115   3.254   2.201
 5018W        W77344  31.989  38.906   4.563
 5019W        W77345  28.356  20.589   1.591
 5020W        W77346  34.598  18.868   1.241
 5021W        W77347  28.338   2.366   2.865
 5022W        W77348  41.024  36.565  12.203
 5023W        W77349  11.128  31.962   4.213
 5024W        W77350  16.021  29.002   0.789
 5025W        W77351  12.677  23.033   1.829
 5026W        W77352  38.512  22.092  13.252
 5027W        W77353  10.023  39.315   0.325
 5028W        W77354   4.785  28.737  12.560
 5029W        W77355  23.694  22.065  14.899
 5030W        W77356  32.064   2.873  11.393
 5031W        W77357   9.853  16.095  10.449
 5032W        W77358  44.510  33.316  10.606
 5033W        W77359  26.522  41.853   3.191
 5034W        W77360  18.971   5.563  12.956
 5035W        W77361  11.731   8.359  11.410
 5036W        W77362  42.489   6.227  11.853
 5037W        W77363  15.236  41.397  14.817
 5038W        W77364  17.603  26.277   0.355
 5039W        W77365  37.016  44.464   0.570
 5040W        W77366   7.443  41.015  10.757
 5041W        W77367   5.288   3.422   0.763
 5042W        W77368  24.331   8.373  11.630
 5043W        W77369  15.849   7.460   0.995
 5044W        W77370  21.263  12.414  11.240
 5045W        W77371   2.472  29.428  13.956
 5046W        W77372  28.524  37.393   2.332
 5047W        W77373  44.557  27.195  11.087
 5048W        W77374  20.966  27.154   3.184
 5049W        W77375  10.396  33.393  14.084
 5050W        W77376   7.187   4.795   0.866
 5051W        W77377   2.329  18.031  10.569
 5052W        W77378  27.752   0.447   1.484
 5053W        W77379  12.565  12.148   4.214
 5054W        W77380  31.438  38.354  11.942
 5055W        W77381   1.483  24.079  13.961
 5056W        W77382  30.890  41.800   1.871
 5057W        W77383  23.739  30.600   0.892
 5058W        W77384  37.323   9.403  14.796
 5059W        W77385   4.388  42.561   2.347
 5060W        W77386  25.963  20.239   4.148
 5061W        W77387   4.716  14.625   1.282
 5062W        W77388  19.301  37.021  13.893
 5063W        W77389  42.806  29.923   1.833
 5064W        W77390  34.468  28.053  10.802
 5065W        W77391  20.718  12.196  14.456
 5066W        W77392  13.678   2.146   4.132
 5067W        W77393   4.401   6.231  13.436
 5068W        W77394  17.224  44.913  13.946
 5069W        W77395  22.713  40.583  14.040
 5070W        W77396  34.456   9.430   2.357
 5071W        W77397  24.649  24.285  10.498
 5072W        W77398  26.701   6.405  11.063
 5073W        W77399   9.663  31.174   2.667
 5074W        W77400  14.747   3.186   2.299
 5075W        W77401   3.906  10.429  10.997
 5076W        W77402  36.937  19.523   1.337
 5077W        W77403  18.451  10.643   5.159
 5078W        W77404  11.090  35.400   1.832
 5079W        W77405  39.377  41.928   3.279
 5080W        W77406   0.917  43.167  11.150
 5081W        W77407  31.931  19.153   2.805
 5082W        W77408  39.234  28.516   0.310
 5083W        W77409  33.421  15.840   1.041
 5084W        W77410  17.578  27.641  12.102
 5085W        W77411   9.969  39.824   0.040
 5086W        W77412  16.530   4.046   2.278
 5087W        W77413  22.194   9.413   3.427
 5088W        W77414  33.180  41.810   2.330
 5089W        W77415   7.254   3.840   4.691
 5090W        W77416   5.883  38.239   4.160
 5091W        W77417  12.152   9.449   3.708
 5092W        W77418  20.632  10.617   1.176
 5093W        W77419   7.685  44.238   4.053
 5094W        W77420   6.336  31.768  11.586
 5095W        W77421  30.423  38.586  12.697
 5096W        W77422   9.658  16.624   0.333
 5097W        W77423  26.729   2.016   3.387
 5098W        W77424  31.633  37.003  12.314
 5099W        W77425  32.870  23.567   4.146
 5100W        W77426  19.807  20.938  11.218
 5101W        W77427  41.079   7.688  14.806
 5102W        W77428  43.576  25.159   4.002
 5103W        W77429  24.624   7.869   1.199
 5104W        W77430  40.868  35.340  12.303
 5105W        W77431  22.567  42.040  11.201
 5106W        W77432  28.505  32.563   4.057
 5107W        W77433   3.549  26.564   1.999
 5108W        W77434  19.845   3.576   3.341
 5109W        W77435  35.904   6.391   4.788
 5110W        W77436  40.994  43.274  12.069
 5111W        W77437  15.248   5.820  13.824
 5112W        W77438  43.835  19.589  10.940
 5113W        W77439  11.372  44.729  12.783
 5114W        W77440  27.200   8.925   4.691
 5115W        W77441   7.958  38.813  10.725
 5116W        W77442  37.504  17.308  10.770
 5117W        W77443  41.220   0.980  14.494
 5118W        W77444  18.368  22.772   3.598
 5119W        W77445  37.557  42.231  13.946
 5120W        W77446  24.445  26.043  13.219
 5121W        W77447  22.770  33.875   2.432
 5122W        W77448  21.908  16.132  14.717
 5123W        W77449  10.638   1.299  10.990
 5124W        W77450  10.085   1.228   4.063
 5125W        W77451   2.875  11.844   4.152
 5126W        W77452   7.671  43.348   3.089
 5127W        W77453  37.412  32.060  12.920
 5128W        W77454  22.816  13.572  14.458
 5129W        W77455   0.488  20.230   4.054
 5130W        W77456  14.583  40.286   2.790
 5131W        W77457  18.508  29.000   1.841
 5132W        W77458  14.656  10.945   0.311
 5133W        W77459  17.861   8.173  12.000
 5134W        W77460   7.340  40.881  11.974
 5135W        W77461  31.065  12.666   0.903
 5136W        W77462  31.927   5.110  12.365
 5137W        W77463  38.816  16.407   2.848
 5138W        W77464   6.193   6.934  13.797
 5139W        W77465  43.343   2.535  13.232
 5140W        W77466   6.099   4.852  12.515
 5141W        W77467  37.270  15.143  12.764
 5142W        W77468  24.145  38.263   2.375
 5143W        W77469  34.237   8.691   3.241
 5144W        W77470  15.034   3.929   4.169
 5145W        W77471  28.779  18.573   1.465
 5146W        W77472   0.932  23.596  11.179
 5147W        W77473   1.826   4.812  12.157
 5148W        W77474  14.716  25.208  10.152
 5149W        W77475  44.990  37.373   2.881
 5150W        W77476   0.248   6.725   3.136
 5151W        W77477  13.631  42.550  13.963
 5152W        W77478   1.458  25.016  13.039
 5153W        W77479  39.202   2.630  11.530
 5154W        W77480  27.226   2.936  13.387
 5155W        W77481   0.813  12.394   0.461
 5156W        W77482  33.063   0.792  11.047
 5157W        W77483  33.009  37.256  12.615
 5158W        W77484  23.241  22.433  14.856
 5159W        W77485  27.600  24.430  14.851
 5160W        W77486  29.122  39.643  11.129
 5161W        W77487  30.797  43.406   5.298
 5162W        W77488  24.908   8.186   2.344
 5163W        W77489   2.489  11.169  12.077
 5164W        W77490   5.045  42.995   0.343
 5165W        W77491  29.979   6.923   2.911
 5166W        W77492  25.132   5.178   1.337
 5167W        W77493  11.922  21.011  13.888
 5168W        W77494   6.968  29.268   0.285
 5169W        W77495  14.861  40.324   0.340
 5170W        W77496  39.320  35.017   4.544
 5171W        W77497  21.167  33.143   3.349
 5172W        W77498  34.180  19.067   0.838
 5173W        W77499  23.360  40.893   2.421
 5174W        W77500  35.706  28.482  10.646
 5175W        W77501   7.651  14.790   0.899
 5176W        W77502  10.916  36.550   3.367
 5177W        W77503  16.341  44.765   3.684
 5178W        W77504  43.925  24.490  12.641
 5179W        W77505  18.675  16.360  14.064
 5180W        W77506  29.144  29.473   4.727
 5181W        W77507  24.419   2.493   4.241
 5182W        W77508  15.999  22.370  10.234
 5183W        W77509   4.214  18.302   3.816
 5184W        W77510  12.829  39.311  12.382
 5185W        W77511   2.897  11.787   5.116
 5186W        W77512  38.407  25.214  11.108
 5187W        W77513  30.402  15.034  11.631
 5188W        W77514   0.188   1.588   3.132
 5189W        W77515  12.045  25.997  13.987
 5190W        W77516  15.346   6.257  12.866
 5191W        W77517  15.572   7.965  13.887
 5192W        W77518  14.181  25.016   2.505
 5193W        W77519  42.934  10.412  11.480
 5194W        W77520  26.642  31.294  10.406
 5195W        W77521   3.920  36.308  12.857
 5196W        W77522  18.206  38.169  10.477
 5197W        W77523   5.779   3.797   1.430
 5198W        W77524  22.658  24.858   4.510
 5199W        W77525  33.146  24.784  13.438
 5200W        W77526  34.016  41.608   3.672
 5201W        W77527  31.887  34.371   0.662
 5202W        W77528   1.932  20.533  12.467
 5203W        W77529  43.633  19.622  13.368
 5204W        W77530  14.721  31.119   4.694
 5205W        W77531  35.683  16.657   3.313
 5206W        W77532   1.053   0.362  13.375
 5207W        W77533  19.576  15.222  14.355
 5208W        W77534  42.063   9.196   3.650
 5209W        W77535  25.279  18.335   0.932
 5210W        W77536  14.156  20.038   0.265
 5211W        W77537  37.085  43.397   4.891
 5212W        W77538  23.244  28.065   3.738
 5213W        W77539   5.799   6.777  11.956
 5214W        W77540  20.819  14.774  14.351
 5215W        W77541   2.571  28.226   5.088
 5216W        W77542   4.388   6.839   4.467
 5217W        W77543  18.562  11.491   0.782
 5218W        W77544  42.384  13.870   0.858
 5219W        W77545  36.038  22.310   1.868
 5220W        W77546  39.543  20.562  11.905
 5221W        W77547  21.518  18.792   0.397
 5222W        W77548  11.860  18.048   3.259
 5223W        W77549   2.020  30.330  11.502
 5224W        W77550   8.592   7.923  12.839
 5225W        W77551  30.563   3.264   2.384
 5226W        W77552  26.202  44.452  14.753
 5227W        W77553  24.685  26.769   2.242
 5228W        W77554  30.866   8.354   4.486
 5229W        W77555  33.189  25.198  12.858
 5230W        W77556  18.380   3.290   3.148
 5231W        W77557  41.760  18.446  11.340
 5232W        W77558  24.729   1.271   2.833
 5233W        W77559  21.377   3.490  13.867
 5234W        W77560  30.846  11.795  12.114
 5235W        W77561   4.383  18.288  14.037
 5236W        W77562  12.237  34.450   0.463
 5237W        W77563  15.298  39.821  14.040
 5238W        W77564  41.425   3.400  11.487
 5239W        W77565  14.201   3.129  11.153
 5240W        W77566  17.768  16.782  10.719
 5241W        W77567   2.683  23.985   4.488
 5242W        W77568  42.908  28.384   3.051
 5243W        W77569  34.153   2.862  10.776
 5244W        W77570  32.501  18.000   3.247
 5245W        W77571  27.263  36.840  14.983
 5246W        W77572  43.349  26.970   2.707
 5247W        W77573  40.849   4.597   2.916
 5248W        W77574   1.033  42.279   1.794
 5249W        W77575  36.371  29.127   4.724
 5250W        W77576   3.695  37.517  13.454
 5251W        W77577   3.382   2.831  11.793
 5252W        W77578  33.105   5.654   3.944
 5253W        W77579  13.799  27.752   1.434
 5254W        W77580  43.124  36.644  13.489
 5255W        W77581  24.632  16.185  12.548
 5256W        W77582  10.593  39.305   2.393
 5257W        W77583  43.688   3.076  12.604
 5258W        W77584   2.487  27.968  12.005
 5259W        W77585  30.106   0.454   2.255
 5260W        W77586  31.736  38.010   1.598
 5261W        W77587  17.826   5.823  13.800
 5262W        W77588  21.989  30.696  13.350
 5263W        W77589   4.499  30.383   1.110
 5264W        W77590   5.822  23.747  11.689
 5265W        W77591   0.764  30.099  13.521
 5266W        W77592  15.731   9.139  14.799
 5267W        W77593  11.914  25.957  13.003
 5268W        W77594   3.286  44.454   4.383
 5269W        W77595   9.175   1.540  12.945
 5270W        W77596   8.939  14.639  12.477
 5271W        W77597  13.280   6.432   3.701
 5272W        W77598   3.937  23.702   1.273
 5273W        W77599   2.903  15.020  11.928
 5274W        W77600   4.772  30.481   2.454
 5275W        W77601  12.624  33.219  10.996
 5276W        W77602  43.941  34.605   0.551
 5277W        W77603  35.597  18.571  11.115
 5278W        W77604  39.483  11.808  12.412
 5279W        W77605  19.177  34.990   3.013
 5280W        W77606  34.533  39.968   2.259
 5281W        W77607  30.348   2.078   2.828
 5282W        W77608  14.080  18.719   0.961
 5283W        W77609  10.157  26.203   0.902
 5284W        W77610   4.705  31.106   0.833
 5285W        W77611  14.335   2.290   2.791
 5286W        W77612   3.827  10.172  12.961
 5287W        W77613  30.043  35.036   4.415
 5288W        W77614  38.006   3.947  10.587
 5289W        W77615   2.166  12.175  13.449
 5290W        W77616   4.487  37.813   1.022
 5291W        W77617  28.023   2.473  13.055
 5292W        W77618  23.586  42.396   1.235
 5293W        W77619  27.996  17.035  14.259
 5294W        W77620  12.687   5.560   0.294
 5295W        W77621  19.341  25.943   0.034
 5296W        W77622  37.337  38.331  11.573
 5297W        W77623  24.613  12.718   4.034
 5298W        W77624   0.750  38.107   4.667
 5299W        W77625  26.204   3.492  13.931
 5300W        W77626  21.772  41.566  11.167
 5301W        W77627  24.067  28.743   4.527
 5302W        W77628  24.611  40.309   4.190
 5303W        W77629   8.652  20.440   4.271
 5304W        W77630  32.070  42.329   3.797
 5305W        W77631  15.111  35.112   4.199
 5306W        W77632   9.030  21.723   9.989
 5307W        W77633  37.863   7.762  10.716
 5308W        W77634  26.176  38.668  13.255
 5309W        W77635  22.153   9.630   2.965
 5310W        W77636  27.147  40.646  12.910
 5311W        W77637   4.261  40.035  11.019
 5312W        W77638   2.798  18.285   1.099
 5313W        W77639  34.678  41.050   0.809
 5314W        W77640   9.831  42.087  11.904
 5315W        W77641   5.348  16.806   2.324
 5316W        W77642  40.940  22.208   0.868
 5317W        W77643  30.137   1.567   0.221
 5318W        W77644   9.166  43.338   0.580
 5319W        W77645   5.853  14.756  13.595
 5320W        W77646  41.293   6.174   4.073
 5321W        W77647  29.152   7.914  14.009
 5322W        W77648  14.733  36.095  14.717
 5323W        W77649  30.678   6.754  10.667
 5324W        W77650  37.839  33.461  12.560
 5325W        W77651   3.713  26.663   3.303
 5326W        W77652  38.144  36.446  13.796
 5327W        W77653  11.340  24.747   4.793
 5328W        W77654  27.396  28.106   5.452
 5329W        W77655  28.268   9.927  10.914
 5330W        W77656  22.748   2.765   4.142
 5331W        W77657  38.875  36.778   2.180
 5332W        W77658  27.026  21.646  14.293
 5333W        W77659  43.319   2.311   4.253
 5334W        W77660  41.942  19.789   4.728
 5335W        W77661  43.842   0.047   4.564
 5336W        W77662  20.287  40.520  14.289
 5337W        W77663  32.429   8.140   0.886
 5338W        W77664   9.198  15.293   4.343
 5339W        W77665  10.851  36.907  14.988
 5340W        W77666  37.479  33.837   0.210
 5341W        W77667   6.442  39.769   4.049
 5342W        W77668  21.603  42.831  14.272
 5343W        W77669  43.366  12.688  10.504
 5344W        W77670  20.869   8.606  13.571
 5345W        W77671   9.866   9.274   1.493
 5346W        W77672  23.141  31.123   1.613
 5347W        W77673   1.418  20.627  12.569
 5348W        W77674   0.786  38.391   3.135
 5349W        W77675  34.882  35.165  14.652
 5350W        W77676   5.977   4.224   3.164
 5351W        W77677  31.017  13.227  14.722
 5352W        W77678   2.551  37.021  12.004
 5353W        W77679  25.539   4.771  14.144
 5354W        W77680  34.129  30.402   0.798
 5355W        W77681  34.647  31.907  12.143
 5356W        W77682  26.614  43.723  11.579
 5357W        W77683   9.865  19.546   0.781
 5358W        W77684  24.019  24.032   2.106
 5359W        W77685  38.022  38.571   4.016
 5360W        W77686  32.378  24.595   3.314
 5361W        W77687  33.778  33.574   4.631
 5362W        W77688  24.257  35.844  14.326
 5363W        W77689  40.938  25.103  14.040
 5364W        W77690  16.624  39.130   0.769
 5365W        W77691  32.082  14.096  14.747
 5366W        W77692   0.128   6.604  12.036
 5367W        W77693  11.737  36.582   1.698
 5368W        W77694  27.641   2.303   3.128
 5369W        W77695  40.805  17.050   1.754
 5370W        W77696  26.496   3.253   2.357
 5371W        W77697  24.015  40.568   1.782
 5372W        W77698  40.471   7.714  10.464
 5373W        W77699  31.659  44.922  12.566
 5374W        W77700  38.372  12.980   3.105
 5375W        W77701  36.425   1.995  12.665
 5376W        W77702  10.816  44.499   3.163
 5377W        W77703   8.062  20.956   1.291
 5378W        W77704  37.120  44.054  13.921
 5379W        W77705   4.399  36.849  14.857
 5380W        W77706  24.144   1.824  14.297
 5381W        W77707  24.772  18.477   2.769
 5382W        W77708  32.925   5.778  13.309
 5383W        W77709  40.317  24.946  10.410
 5384W        W77710  22.417  21.153  14.294
 5385W        W77711  11.607   2.373   4.714
 5386W        W77712  37.920  31.868  10.626
 5387W        W77713  21.394   1.180   4.248
 5388W        W77714  14.606  23.343  13.030
 5389W        W77715  32.285  31.965  14.973
 5390W        W77716  23.985  13.563  14.942
 5391W        W77717  37.333  31.951   3.242
 5392W        W77718  15.263  32.299   4.739
 5393W        W77719  40.724  18.062  11.912
 5394W        W77720   2.240  27.692   4.573
 5395W        W77721  28.118  31.192  12.999
 5396W        W77722  38.681  15.316   2.813
 5397W        W77723   0.961  33.636   4.171
 5398W        W77724  44.016  44.115  12.378
 5399W        W77725  35.903  38.059  13.967
 5400W        W77726  27.547  40.200   3.123
 5401W        W77727  40.415  38.569  12.140
 5402W        W77728  15.782  19.445   4.328
 5403W        W77729  15.572  19.503  11.581
 5404W        W77730   1.967  26.048  13.462
 5405W        W77731  14.206  40.757   3.627
 5406W        W77732  16.977  34.905   1.487
 5407W        W77733  24.166   4.193   4.498
 5408W        W77734  41.843  30.410  14.367
 5409W        W77735  15.758  36.944   1.339
 5410W        W77736  21.161   5.918   4.579
 5411W        W77737  21.728   0.808   4.431
 5412W        W77738   1.407  35.373   3.688
 5413W        W77739  35.849  14.275   4.129
 5414W        W77740  24.498  27.742   0.693
 5415W        W77741   2.698   6.480  14.745
 5416W        W77742  38.709  28.479   0.288
 5417W        W77743  28.596  10.716   2.268
 5418W        W77744  10.053  38.341   1.939
 5419W        W77745  14.910  23.413  11.520
 5420W        W77746  37.674  17.814   4.627
 5421W        W77747  11.872  26.366  12.042
 5422W        W77748  44.894  23.622  14.206
 5423W        W77749  40.285  37.895   2.254
 5424W        W77750  15.669   0.273   1.603
 5425W        W77751   1.913   5.108  11.299
 5426W        W77752  37.446   8.600   3.778
 5427W        W77753  37.014  11.703   3.355
 5428W        W77754  43.232   1.868   1.041
 5429W        W77755  33.118  32.195   1.729
 5430W        W77756  15.825  20.179   3.744
 5431W        W77757  31.525  10.228   4.406
 5432W        W77758  41.981  25.172  14.015
 5433W        W77759  18.319  31.639   3.741
 5434W        W77760   4.393   5.159   0.368
 5435W        W77761   4.770  26.445  13.043
 5436W        W77762   4.836  20.267   2.577
 5437W        W77763  39.066   3.818   2.692
 5438W        W77764  15.546   8.686   1.639
 5439W        W77765  22.659  42.579  14.848
 5440W        W77766  24.734  39.979  13.085
 5441W        W77767  44.688   9.882  14.951
 5442W        W77768  18.508  29.488   3.141
 5443W        W77769  17.443  41.236   1.857
 5444W        W77770  24.990  14.621   3.324
 5445W        W77771  22.094  29.242   0.616
 5446W        W77772  21.097   6.726   1.877
 5447W        W77773  40.497  12.517   0.848
 5448W        W77774  11.546  11.231   2.084
 5449W        W77775  33.387   2.731  11.076
 5450W        W77776  14.366  28.910  13.891
 5451W        W77777  20.291  31.338  13.052
 5452W        W77778  40.203  39.134  13.877
 5453W        W77779   4.038   9.170   4.245
 5454W        W77780   0.389  17.575  10.712
 5455W        W77781  37.051  38.832   4.906
 5456W        W77782  44.553  25.044   0.750
 5457W        W77783  22.448  42.832  10.568
 5458W        W77784   3.159  12.306   0.944
 5459W        W77785   0.230  41.015  14.005
 5460W        W77786   8.485  32.675   4.682
 5461W        W77787   8.329   2.991  10.666
 5462W        W77788  27.942  38.090   2.218
 5463W        W77789  12.575  31.989   1.374
 5464W        W77790  23.698  43.862   0.513
 5465W        W77791  16.970   9.187  11.556
 5466W        W77792  10.618  44.789   3.615
 5467W        W77793  29.869  35.156   0.236
 5468W        W77794  21.266  10.950  14.495
 5469W        W77795  32.426  43.765   2.688
 5470W        W77796  41.148  27.630   3.259
 5471W        W77797  26.234   6.358  10.841
 5472W        W77798  33.007   8.423  11.909
 5473W        W77799  38.834  36.935  10.749
 5474W        W77800   3.286  27.900  14.302
 5475W        W77801  41.476  10.721   0.877
 5476W        W77802  21.760  27.941  13.490
 5477W        W77803   2.490  38.703  12.143
 5478W        W77804   1.055  18.057  10.262
 5479W        W77805  34.520   4.709   0.973
 5480W        W77806   6.201   1.564   4.655
 5481W        W77807  44.858  39.072   0.381
 5482W        W77808  37.346  13.682   0.919
 5483W        W77809  12.607  16.503   1.449
 5484W        W77810   7.382  22.004   1.743
 5485W        W77811  43.742  43.726  12.994
 5486W        W77812  22.566  37.085   1.803
 5487W        W77813   1.478  33.676  12.698
 5488W        W77814  15.962  20.190   1.425
 5489W        W77815   7.497   1.590   3.664
 5490W        W77816  14.539   4.089  11.146
 5491W        W77817   0.902  12.129  14.968
 5492W        W77818   9.716  28.541  11.195
 5493W        W77819  14.678  23.967   3.588
 5494W        W77820  33.940  39.320   4.465
 5495W        W77821  22.166  44.495   1.402
 5496W        W77822  34.111  20.218  12.704
 5497W        W77823  35.951   3.639   4.478
 5498W        W77824  22.129   5.187  14.858
 5499W        W77825  38.491  29.114  11.426
 5500W        W77826  28.169  31.488  13.522
 5501W        W77827  16.797  17.536  14.063
 5502W        W77828  44.734  16.107  13.471
 5503W        W77829  40.468  11.263  10.550
 5504W        W77830  38.915  31.101  13.258
 5505W        W77831   7.503  32.462   0.013
 5506W        W77832  25.640   4.159   4.140
 5507W        W77833  21.183   6.437   3.630
 5508W        W77834  33.073  28.430   4.872
 5509W        W77835   6.689  22.061  12.127
 5510W        W77836   9.351   5.611   3.202
 5511W        W77837  30.472  21.943  12.889
 5512W        W77838  21.129  10.232  11.507
 5513W        W77839  36.834  18.190   0.351
 5514W        W77840  31.335  20.641  12.947
 5515W        W77841  44.939  40.725   4.563
 5516W        W77842  23.199  11.142  11.079
 5517W        W77843   6.265   6.768   2.392
 5518W        W77844  27.054  28.188  14.467
 5519W        W77845  16.715  29.566   4.679
 5520W        W77846  29.860  19.213   1.047
 5521W        W77847  16.247  35.155  12.095
 5522W        W77848   0.931  10.922   1.458
 5523W        W77849  27.668  14.862  13.352
 5524W        W77850  19.739  18.964  12.121
 5525W        W77851  21.778  21.274   0.929
 5526W        W77852  12.787  11.707   1.754
 5527W        W77853  24.045   6.337  14.485
 5528W        W77854  11.336  42.934  10.825
 5529W        W77855  16.595  19.608  10.685
 5530W        W77856  25.604   5.985  14.758
 5531W        W77857  35.625   7.444   1.847
 5532W        W77858  18.571  30.056  14.433
 5533W        W77859  12.321  15.193  12.574
 5534W        W77860  25.642  43.788   3.248
 5535W        W77861  23.598   8.263   0.815
 5536W        W77862  36.137  12.780  12.817
 5537W        W77863  43.688  20.155  11.586
 5538W        W77864  36.563   9.101  13.796
 5539W        W77865   4.547  42.065   2.244
 5540W        W77866  41.532  10.778  13.618
 5541W        W77867  12.084  31.206   0.409
 5542W        W77868  43.721  36.158  12.148
 5543W        W77869   8.370  37.811  12.838
 5544W        W77870  42.608  12.095   0.515
 5545W        W77871  16.206  34.193   1.856
 5546W        W77872  14.372  27.322   3.804
 5547W        W77873  33.052  19.095   1.914
 5548W        W77874  25.044  14.651  13.519
 5549W        W77875  23.645  41.780  11.159
 5550W        W77876   6.329  23.031  13.848
 5551W        W77877   9.769  36.526  14.985
 5552W        W77878  15.829  33.651   3.801
 5553W        W77879   7.589  39.739   2.455
 5554W        W77880  33.651   2.865   0.375
 5555W        W77881  27.219  34.414   3.641
 5556W        W77882  12.703   3.953  11.406
 5557W        W77883   1.163  41.609  12.913
 5558W        W77884  22.235  25.085  14.341
 5559W        W77885  33.399  24.714   4.078
 5560W        W77886  14.412  37.029  10.382
 5561W        W77887  34.459  43.894  13.157
 5562W        W77888  34.867  15.450  11.154
 5563W        W77889  31.450  20.650   0.767
 5564W        W77890  39.851  16.338   1.919
 5565W        W77891  10.724  35.336  11.931
 5566W        W77892  44.772   3.903   0.243
 5567W        W77893   3.421  25.939  11.281
 5568W        W77894  18.325   3.501   1.863
 5569W        W77895  31.229  36.372   4.163
 5570W        W77896   6.432  31.650   0.918
 5571W        W77897  22.761  18.278   2.291
 5572W        W77898  20.678  13.832  10.417
 5573W        W77899  21.375   9.061  12.115
 5574W        W77900  23.690  31.009  14.021
 5575W        W77901  21.781  42.937   5.139
 5576W        W77902  22.092   9.252  12.484
 5577W        W77903  31.419  44.740   0.303
 5578W        W77904  40.141   4.004   2.618
 5579W        W77905  11.262   3.843   2.316
 5580W        W77906  14.143   1.253   4.903
 5581W        W77907   7.143   0.842   1.793
 5582W        W77908  39.050  33.974  10.467
 5583W        W77909   3.755  16.440  10.432
 5584W        W77910  11.695   5.519   3.583
 5585W        W77911  37.760  27.160   1.401
 5586W        W77912  39.222   1.910   1.553
 5587W        W77913  12.674  38.404   4.376
 5588W        W77914  14.795  42.728  14.961
 5589W        W77915   8.641  20.545  14.484
 5590W        W77916  15.587  38.769   4.571
 5591W        W77917  12.861  22.726   1.182
 5592W        W77918   0.205   6.901   1.314
 5593W        W77919  33.587  14.653   1.307
 5594W        W77920  29.024  31.590   1.640
 5595W        W77921   8.786  39.993  14.272
 5596W        W77922  17.914  26.544  14.513
 5597W        W77923   3.367   1.287   1.189
 5598W        W77924   5.203  25.203   3.833
 5599W        W77925  28.089  24.491  10.418
 5600W        W77926  23.195  38.661  10.793
 5601W        W77927  21.137  26.045   4.673
 5602W        W77928  38.503  40.892   3.133
 5603W        W77929   2.916  37.096   1.841
 5604W        W77930  36.628   1.264  14.645
 5605W        W77931  15.205   7.180   0.331
 5606W        W77932   3.330  39.825   1.986
 5607W        W77933   6.237  39.519  14.698
 5608W        W77934   1.067  38.481  14.042
 5609W        W77935  33.086  30.979   3.063
 5610W        W77936  22.814  34.408  10.571
 5611W        W77937  20.608  34.479  11.076
 5612W        W77938  44.312  12.851   2.414
 5613W        W77939  32.739   7.439  11.131
 5614W        W77940  32.405  41.568  11.880
 5615W        W77941  39.889  34.288   0.344
 5616W        W77942   4.774  44.800  13.850
 5617W        W77943  27.644  29.283  14.274
 5618W        W77944  13.183  39.592  13.995
 5619W        W77945  22.820   1.358   3.103
 5620W        W77946  37.407  43.415   1.719
 5621W        W77947  26.776  12.072   4.320
 5622W        W77948  24.479   8.667   4.309
 5623W        W77949  35.655  21.674   0.766
 5624W        W77950  42.850   5.923   1.864
 5625W        W77951  33.593  21.266  11.109
 5626W        W77952  27.084  35.124  13.703
 5627W        W77953  14.928  44.733   4.569
 5628W        W77954  34.636  25.570   0.808
 5629W        W77955  44.753  25.043  14.340
 5630W        W77956  11.563   8.005  10.061
 5631W        W77957   4.454  28.487   2.781
 5632W        W77958  11.797  28.650  11.922
 5633W        W77959  25.234  31.238   4.890
 5634W        W77960  10.783  11.569   2.152
 5635W        W77961  21.780  42.502   2.333
 5636W        W77962  40.383  35.314  12.417
 5637W        W77963   8.143  32.544  12.820
 5638W        W77964   2.432  22.013   3.737
 5639W        W77965  38.872   1.197   4.614
 5640W        W77966  18.971  38.849   3.653
 5641W        W77967  32.747  43.401   2.561
 5642W        W77968  44.574   8.858   0.755
 5643W        W77969  31.697   6.395   0.423
 5644W        W77970  34.834  26.280  11.953
 5645W        W77971   2.682  33.789   4.192
 5646W        W77972  25.507  44.815   4.894
 5647W        W77973  37.465  15.118  13.250
 5648W        W77974   9.090   0.309  10.610
 5649W        W77975  42.316  19.663  12.807
 5650W        W77976  18.614  15.097  10.609
 5651W        W77977  27.619  24.687  10.536
 5652W        W77978  38.793  13.761  10.629
 5653W        W77979  11.529  39.386   2.194
 5654W        W77980  44.230  37.406  10.182
 5655W        W77981  33.578  34.193  13.246
 5656W        W77982  36.865  35.877  13.526
 5657W        W77983  10.130  20.071  14.335
 5658W        W77984  18.623  11.257   3.194
 5659W        W77985   6.186   1.377  13.433
 5660W        W77986  27.742  22.685  11.643
 5661W        W77987  44.025  29.196  12.652
 5662W        W77988  27.913  32.991   0.824
 5663W        W77989   1.245   3.439  12.055
 5664W        W77990  14.211  22.272   3.785
 5665W        W77991  36.926   7.853  12.632
 5666W        W77992   7.379   3.912  11.582
 5667W        W77993  37.385  18.362  10.670
 5668W        W77994  36.138  42.127  14.491
 5669W        W77995  30.217  25.076   1.176
 5670W        W77996  16.558   5.469  12.938
 5671W        W77997  23.457   7.409   0.516
 5672W        W77998  21.066  29.766  14.954
 5673W        W77999  31.857   5.339   1.250
 5674W        W78000  38.547  32.847  13.027
 5675W        W78001  21.406   1.458   3.291
 5676W        W78002  29.042  26.271   3.106
 5677W        W78003  20.010  18.455  13.939
 5678W        W78004  24.440  31.975  12.062
 5679W        W78005  12.732  20.004   2.876
 5680W        W78006  31.631  13.308   1.927
 5681W        W78007  41.797  15.113  14.326
 5682W        W78008  26.648  43.051  11.049
 5683W        W78009  18.626   8.667  13.499
 5684W        W78010   3.203  28.396  14.451
 5685W        W78011  12.072  41.757  14.965
 5686W        W78012  26.696   6.699   4.888
 5687W        W78013   7.900  18.216   2.901
 5688W        W78014  19.220  28.274  13.981
 5689W        W78015  36.632   5.561   4.160
 5690W        W78016  15.150  24.030   0.766
 5691W        W78017  14.334   3.019   0.253
 5692W        W78018  22.709  20.817  10.671
 5693W        W78019  29.033  25.936  11.077
 5694W        W78020  42.042   0.337   4.255
 5695W        W78021  17.791  13.685   3.743
 5696W        W78022  34.052  21.552  13.763
 5697W        W78023  32.440   9.380   2.378
 5698W        W78024   1.043  34.557   1.246
 5699W        W78025  37.393  31.052  13.107
 5700W        W78026  17.593  19.312  12.492
 5701W        W78027  23.976  34.092   0.709
 5702W        W78028   1.027  20.940   0.306
 5703W        W78029  30.462  14.810   1.854
 5704W        W78030  24.226  21.522   4.839
 5705W        W78031  39.327  41.573   0.714
 5706W        W78032  31.139  28.440   4.606
 5707W        W78033  43.993  11.110  13.768
 5708W        W78034  11.064   3.158   1.502
 5709W        W78035  20.763  22.744  14.564
 5710W        W78036  21.173  13.224   0.770
 5711W        W78037  26.747   9.787  10.608
 5712W        W78038  24.361  23.071   4.006
 5713W        W78039   1.084   7.230  13.414
 5714W        W78040  12.693  10.694  14.260
 5715W        W78041  39.604  28.927  12.059
 5716W        W78042  11.880  11.280  11.938
 5717W        W78043  15.560  31.384   0.809
 5718W        W78044  26.154  17.142   0.810
 5719W        W78045  27.531  29.379  12.644
 5720W        W78046  28.530  31.638   4.718
 5721W        W78047  32.462  12.138  12.960
 5722W        W78048  32.452   3.166   3.294
 5723W        W78049   7.269  18.455  11.369
 5724W        W78050   1.933   9.878   4.185
 5725W        W78051  38.821   3.196   2.000
 5726W        W78052  13.371   9.879   3.583
 5727W        W78053  44.351  42.448  11.494
 5728W        W78054   7.203  18.723  12.822
 5729W        W78055   3.881  34.422  14.959
 5730W        W78056  11.756  27.048  14.217
 5731W        W78057  36.028   0.654   0.477
 5732W        W78058   8.302  16.152  13.829
 5733W        W78059  17.844  42.322  14.874
 5734W        W78060  34.033  36.283  12.494
 5735W        W78061  26.158  42.079   2.863
 5736W        W78062  12.169   9.832  12.337
 5737W        W78063  41.612  33.005   1.739
 5738W        W78064  21.595   0.768  12.143
 5739W        W78065   8.773  19.799  11.889
 5740W        W78066  21.633  13.638   1.858
 5741W        W78067  17.507  24.206   4.913
 5742W        W78068   6.730   0.396  14.010
 5743W        W78069  14.577  24.238  11.006
 5744W        W78070  44.806  29.616   4.142
 5745W        W78071  29.825  40.010   0.526
 5746W        W78072   7.261   2.837   4.801
 5747W        W78073  38.508  23.703   0.039
 5748W        W78074   9.998   8.926   2.264
 5749W        W78075  11.224  25.944   1.980
 5750W        W78076  11.229  22.451  14.278
 5751W        W78077  19.769  24.637   4.593
 5752W        W78078   7.579  33.452  10.657
 5753W        W78079   1.655  21.212   5.451
 5754W        W78080  23.959  36.633  14.016
 5755W        W78081  13.100  31.377  13.918
 5756W        W78082  27.060   0.190   2.451
 5757W        W78083  40.476  37.394   0.451
 5758W        W78084  33.671   4.187   0.040
 5759W        W78085  30.098  41.324  10.711
 5760W        W78086   0.485  28.221   2.812
 5761W        W78087   5.935  38.961  13.677
 5762W        W78088  29.075   1.307  14.409
 5763W        W78089  24.734  16.108  10.198
 5764W        W78090  30.629  20.053  14.843
 5765W        W78091  44.399   9.070  12.962
 5766W        W78092  26.485  14.762  11.264
 5767W        W78093  11.631  30.663  11.272
 5768W        W78094  43.714  34.650   2.970
 5769W        W78095   4.867  41.838   2.640
 5770W        W78096  42.300  39.005   2.919
 5771W        W78097  29.950  20.084   4.100
 5772W        W78098   0.946   7.050   2.758
 5773W        W78099   7.938  25.122  10.000
 5774W        W78100  29.666  37.624   1.339
 5775W        W78101   1.805  24.862  13.844
 5776W        W78102  35.337  27.223   3.857
 5777W        W78103   4.864  36.608   0.084
 5778W        W78104  33.132   1.433   1.686
 5779W        W78105   5.680  39.853   2.781
 5780W        W78106  41.339  14.335   0.815
 5781W        W78107  41.367  16.757  11.471
 5782W        W78108  37.574  16.691   2.420
 5783W        W78109   5.062  19.512   3.638
 5784W        W78110  21.920  24.703   0.367
 5785W        W78111  29.005  21.768  13.827
 5786W        W78112  27.031  41.984  11.392
 5787W        W78113  22.987  44.545   1.966
 5788W        W78114  42.675  26.603   1.774
 5789W        W78115  44.495  25.130  12.968
 5790W        W78116   3.342  43.037  11.198
 5791W        W78117  36.566  15.312  13.403
 5792W        W78118  18.771  31.528   0.496
 5793W        W78119  13.728  20.854  12.945
 5794W        W78120  43.450   3.029   3.958
 5795W        W78121  27.629   7.252   1.489
 5796W        W78122  16.394  37.911   4.996
 5797W        W78123  26.170  31.385   4.338
 5798W        W78124  39.173  35.068   2.738
 5799W        W78125   3.137  38.389   2.897
 5800W        W78126   2.452  43.900   0.881
 5801W        W78127  15.246   2.935   0.764
 5802W        W78128  28.278  39.571  12.867
 5803W        W78129  42.028  24.483  13.607
 5804W        W78130   5.330  18.256  13.974
 5805W        W78131  10.900   6.229   1.825
 5806W        W78132   2.919  22.926  13.424
 5807W        W78133   8.167  43.042   4.860
 5808W        W78134   8.820  34.883   0.809
 5809W        W78135  44.086   7.414   0.001
 5810W        W78136  25.598  33.833  10.737
 5811W        W78137   2.837  26.617   0.931
 5812W        W78138  40.691   2.224  14.488
 5813W        W78139   4.624  15.477   0.987
 5814W        W78140   9.665  18.785  12.571
 5815W        W78141  32.573  28.380   4.715
 5816W        W78142   9.676  40.488   4.334
 5817W        W78143  18.521  25.147   0.906
 5818W        W78144  39.841  23.255   2.206
 5819W        W78145   4.692   6.926  11.181
 5820W        W78146  15.483   1.524  12.010
 5821W        W78147  20.022  31.131   1.130
 5822W        W78148  12.368  10.775  13.447
 5823W        W78149  31.971  11.406   5.171
 5824W        W78150  32.518  36.981   1.009
 5825W        W78151  42.587  38.880  11.139
 5826W        W78152  32.465  33.999   1.415
 5827W        W78153  42.959  22.273   3.382
 5828W        W78154  25.924   0.027   0.896
 5829W        W78155  35.395  35.034   4.586
 5830W        W78156  24.575  20.106   4.425
 5831W        W78157  20.429  10.151  13.363
 5832W        W78158  27.580  26.728   3.306
 5833W        W78159  16.188  14.315  12.363
 5834W        W78160  36.302  38.316   2.687
 5835W        W78161   4.123   3.919   5.471
 5836W        W78162  22.542   9.807   3.630
 5837W        W78163  15.545  13.832   4.183
 5838W        W78164  20.288  27.136  11.146
 5839W        W78165  16.867  18.241  14.058
 5840W        W78166  44.676  31.472   3.011
 5841W        W78167   4.451  10.903   4.617
 5842W        W78168  37.912   4.821   0.686
 5843W        W78169  23.444  21.957  11.903
 5844W        W78170   7.266  30.528   1.025
 5845W        W78171  41.171  12.091   0.284
 5846W        W78172  35.331   9.093  10.779
 5847W        W78173  18.323  41.759  11.725
 5848W        W78174   7.257  22.913   0.898
 5849W        W78175  34.292  10.800  11.685
 5850W        W78176   6.643  19.683   2.837
 5851W        W78177  35.485   6.030  14.013
 5852W        W78178  27.390  43.773  10.774
 5853W        W78179  17.281  10.146   5.075
 5854W        W78180   4.504  37.964  13.669
 5855W        W78181   1.563  34.430   1.179
 5856W        W78182  43.313   8.559  11.723
 5857W        W78183  23.686  37.820  14.198
 5858W        W78184  12.681   2.524  12.576
 5859W        W78185   3.724  34.531   0.888
 5860W        W78186  36.477  29.913   3.026
 5861W        W78187   3.373  41.609  12.420
 5862W        W78188  32.427  42.549  12.960
 5863W        W78189  28.436  30.173  11.519
 5864W        W78190  32.380   5.853   0.796
 5865W        W78191   1.439   0.224  12.818
 5866W        W78192  25.467  32.886  14.459
 5867W        W78193  29.903  32.787  14.973
 5868W        W78194  39.104  18.722   3.665
 5869W        W78195  19.247   9.677   0.710
 5870W        W78196  20.287  28.471   0.343
 5871W        W78197   6.281  13.098   4.190
 5872W        W78198  35.468  42.925   0.245
 5873W        W78199   1.212  12.212   1.793
 5874W        W78200  44.332  36.915   0.899
 5875W        W78201   7.250  39.434   4.489
 5876W        W78202  25.743   4.872   1.544
 5877W        W78203   6.328  29.139   2.354
 5878W        W78204  22.024  26.535   3.007
 5879W        W78205  21.463   3.035  11.987
 5880W        W78206  10.860  39.986   2.272
 5881W        W78207   5.133  20.084  13.815
 5882W        W78208   3.018  40.175   1.004
 5883W        W78209  41.307  16.694   0.484
 5884W        W78210  37.503  22.475  13.995
 5885W        W78211  15.840   9.868  14.003
 5886W        W78212  40.656  22.155   2.374
 5887W        W78213   0.729  12.396  14.271
 5888W        W78214  44.595  11.180  14.404
 5889W        W78215  37.617  35.897  12.936
 5890W        W78216  26.111   3.229  14.875
 5891W        W78217  12.308  40.973   3.138
 5892W        W78218   7.709  38.577   1.914
 5893W        W78219   5.081   4.190  11.093
 5894W        W78220  44.007  43.817  14.841
 5895W        W78221  44.267   4.791  11.995
 5896W        W78222  10.574  40.375  13.824
 5897W        W78223  44.811   2.869   0.103
 5898W        W78224  25.250  14.193   0.719
 5899W        W78225  38.588  28.691   2.372
 5900W        W78226  14.547   9.144  11.512
 5901W        W78227  37.710  15.570   1.435
 5902W        W78228  41.302   3.859  11.281
 5903W        W78229  37.430  29.445   1.826
 5904W        W78230  13.776  18.032  10.355
 5905W        W78231  13.400  42.241  14.818
 5906W        W78232   8.621  27.061   3.162
 5907W        W78233  10.243  14.121   3.070
 5908W        W78234  25.963  32.523  10.600
 5909W        W78235  29.873  44.703   0.259
 5910W        W78236  34.354  32.881   1.872
 5911W        W78237  41.792   6.771  14.336
 5912W        W78238  28.558   6.884  13.937
 5913W        W78239  21.263  22.194   1.823
 5914W        W78240   3.372  17.834   3.886
 5915W        W78241   3.359  18.648   4.490
 5916W        W78242  44.991  33.429  11.819
 5917W        W78243  14.602  26.548   2.887
 5918W        W78244  36.747  27.633  11.105
 5919W        W78245  38.079   6.415   0.363
 5920W        W78246   8.461  21.230  12.502
 5921W        W78247   1.287   9.911  14.975
 5922W        W78248  13.421  36.975  10.401
 5923W        W78249  36.582   1.003  10.695
 5924W        W78250  12.831  19.769  12.006
 5925W        W78251  32.571  17.817   1.367
 5926W        W78252  26.559  27.263   9.575
 5927W        W78253   2.237  25.587   1.902
 5928W        W78254  23.149  36.365   4.468
 5929W        W78255   1.226   6.768   0.272
 5930W        W78256  42.992  40.964   3.244
 5931W        W78257  38.080   4.896  10.673
 5932W        W78258   5.772  12.092  10.803
 5933W        W78259  20.582   2.538  11.911
 5934W        W78260  32.065   8.304  12.933
 5935W        W78261   1.256  29.334   3.423
 5936W        W78262   3.478  36.002   2.643
 5937W        W78263  28.471  36.175   2.738
 5938W        W78264  11.881  27.998  14.756
 5939W        W78265  10.986  35.117   3.014
 5940W        W78266  31.545  16.108  14.235
 5941W        W78267  41.969  26.525   2.252
 5942W        W78268  22.832  22.494   3.176
 5943W        W78269  43.775  23.538  13.919
 5944W        W78270   7.943  44.523   2.238
 5945W        W78271  32.344  42.773  11.598
 5946W        W78272  12.765  27.540   3.099
 5947W        W78273  44.389  14.330  11.136
 5948W        W78274  21.598   8.835   3.189
 5949W        W78275  39.911  35.602   4.641
 5950W        W78276   9.366   9.628  11.955
 5951W        W78277  24.646  43.984   0.798
 5952W        W78278  31.207   7.791   2.280
 5953W        W78279  25.269  43.985  13.465
 5954W        W78280  20.076   3.260  14.232
 5955W        W78281   8.955  10.633  13.241
 5956W        W78282  14.899   0.389   1.440
 5957W        W78283  13.843  25.669  10.974
 5958W        W78284  38.928   8.444  13.288
 5959W        W78285  26.177  19.501   1.345
 5960W        W78286  10.272  34.071  11.885
 5961W        W78287  19.946   9.527   1.270
 5962W        W78288  10.666  36.649  11.613
 5963W        W78289  40.106  20.133  12.507
 5964W        W78290  44.761  10.965  11.617
 5965W        W78291  25.957  12.829   1.583
 5966W        W78292  29.698  24.654  12.226
 5967W        W78293  22.685  27.233   4.149
 5968W        W78294  44.975  41.116   3.029
 5969W        W78295  12.430  16.771   2.166
 5970W        W78296  11.110  10.224   3.312
 5971W        W78297   7.926  29.753  12.973
 5972W        W78298  13.622   3.009   1.945
 5973W        W78299  43.806  20.289  13.423
 5974W        W78300  39.115  38.644  13.465
 5975W        W78301  33.192   1.661   1.215
 5976W        W78302  29.104  10.866   1.327
 5977W        W78303   9.110  29.436   4.898
 5978W        W78304  39.632  26.219  12.965
 5979W        W78305   1.357   6.152  14.866
 5980W        W78306  29.583  24.494  14.054
 5981W        W78307  28.190   4.916   2.755
 5982W        W78308  24.710  12.366  14.884
 5983W        W78309  17.362  26.144   4.141
 5984W        W78310  33.095  28.062   3.585
 5985W        W78311  22.405  32.895  13.419
 5986W        W78312   4.683   8.472  13.009
 5987W        W78313   9.824  14.415  11.471
 5988W        W78314  23.189  20.177   4.362
 5989W        W78315  24.946  18.134   4.676
 5990W        W78316   5.808  12.382   4.294
 5991W        W78317  43.464  38.591   1.566
 5992W        W78318   9.440   4.231  13.488
 5993W        W78319  21.399  18.263   3.085
 5994W        W78320   7.013   8.990   4.616
 5995W        W78321  43.987  19.610   3.751
 5996W        W78322  27.270  23.009   4.470
 5997W        W78323  17.812  15.859   4.505
 5998W        W78324  22.469  32.367   3.263
 5999W        W78325  28.254  13.525   0.003
 6000W        W78326  38.829  35.927   0.392
 6001W        W78327  30.291  21.756  10.983
 6002W        W78328  33.565  13.044   1.331
 6003W        W78329  15.257  36.062  10.286
 6004W        W78330  15.261  37.341   0.416
 6005W        W78331  44.326   5.690   2.358
 6006W        W78332   6.925  24.779  11.409
 6007W        W78333   7.176  15.708  13.958
 6008W        W78334  13.719  15.345   4.155
 6009W        W78335  39.763  26.919  13.580
 6010W        W78336  12.224   3.922  10.673
 6011W        W78337  44.057  22.806  14.840
 6012W        W78338  43.315  23.174  14.778
 6013W        W78339  11.461  11.234   0.925
 6014W        W78340  34.860   2.712   4.586
 6015W        W78341  33.135  22.611  11.632
 6016W        W78342  10.817  21.468   3.128
 6017W        W78343  22.982  29.825   1.883
 6018W        W78344  41.061  26.566  12.029
 6019W        W78345   4.639  24.512   3.759
 6020W        W78346  21.037  26.187   0.328
 6021W        W78347  10.282  12.321  13.010
 6022W        W78348  22.968   4.269   0.862
 6023W        W78349   3.613  10.416   1.507
 6024W        W78350   0.035  26.214  11.617
 6025W        W78351  29.422  15.907  10.433
 6026W        W78352  44.331  26.126   3.121
 6027W        W78353  37.027  39.802  10.610
 6028W        W78354   8.367  36.475  12.075
 6029W        W78355  24.199  21.036  11.121
 6030W        W78356  29.943   0.486  13.498
 6031W        W78357   0.441  38.100  10.787
 6032W        W78358   7.166  37.342  11.936
 6033W        W78359  11.650  25.585  13.248
 6034W        W78360  10.470  40.601   1.735
 6035W        W78361  20.203  28.971  11.264
 6036W        W78362  26.051  30.185   4.551
 6037W        W78363   7.287  14.182   0.826
 6038W        W78364   9.352   4.840  10.617
 6039W        W78365  19.982  13.934  13.005
 6040W        W78366  21.652  11.301   2.151
 6041W        W78367   5.478   7.222   2.697
 6042W        W78368  39.032  23.264   1.095
 6043W        W78369  39.364  20.525  14.387
 6044W        W78370  12.597  40.035  14.804
 6045W        W78371  31.444  28.561   0.746
 6046W        W78372  11.898  18.561   2.015
 6047W        W78373  34.565  26.705  14.560
 6048W        W78374  23.453  40.757   3.887
 6049W        W78375  12.120  23.031   3.637
 6050W        W78376  13.732   1.580   4.183
 6051W        W78377  37.139  14.025   3.653
 6052W        W78378  22.714  32.174  11.656
 6053W        W78379  30.641  38.891  11.091
 6054W        W78380  33.485  35.308  14.488
 6055W        W78381  38.019   3.032   1.221
 6056W        W78382  40.984  40.518   2.491
 6057W        W78383  18.328  25.017   4.159
 6058W        W78384  14.260  36.374   1.916
 6059W        W78385  42.558  26.514  12.883
 6060W        W78386   1.761  14.137  13.422
 6061W        W78387   1.972  25.693  12.543
 6062W        W78388  27.518   4.084  14.829
 6063W        W78389  11.183  35.041   2.537
 6064W        W78390   1.553  16.851  14.892
 6065W        W78391  24.540  16.965  14.475
 6066W        W78392  33.875  30.604   3.146
 6067W        W78393  40.330  16.380   0.695
 6068W        W78394  20.236   1.286  14.248
 6069W        W78395  20.036  16.539   0.523
 6070W        W78396   9.415   6.855   4.394
 6071W        W78397  40.945  18.822   2.764
 6072W        W78398  39.592  20.561   2.098
 6073W        W78399  30.546   6.719  14.996
 6074W        W78400  12.360   4.931  14.863
 6075W        W78401   7.319   8.938   4.094
 6076W        W78402  26.541   3.032   3.630
 6077W        W78403  32.656  12.861  13.577
 6078W        W78404  22.738   3.808   0.790
 6079W        W78405  26.993   5.341  13.000
 6080W        W78406  16.801  36.927   4.865
 6081W        W78407  36.060  22.978  11.110
 6082W        W78408  16.684  38.657  10.757
 6083W        W78409  16.870  12.650  11.052
 6084W        W78410  15.389  12.406   1.470
 6085W        W78411   0.928  29.635   3.141
 6086W        W78412   0.331  18.135   0.428
 6087W        W78413   7.656  11.197   2.880
 6088W        W78414  22.732   3.267   4.203
 6089W        W78415  19.705  26.899   2.845
 6090W        W78416   5.004   9.693  13.863
 6091W        W78417  30.883  30.996  14.296
 6092W        W78418   1.762  37.570   0.168
 6093W        W78419  23.759  38.105   4.183
 6094W        W78420  43.819  19.683  12.453
 6095W        W78421  22.088  21.730   1.819
 6096W        W78422  10.193   9.288  13.760
 6097W        W78423  11.486   1.217  14.346
 6098W        W78424  19.193  28.455  13.133
 6099W        W78425  15.421   5.589  10.244
 6100W        W78426  22.918  39.912   2.435
 6101W        W78427  28.836  33.398  11.587
 6102W        W78428   7.126  27.929  10.959
 6103W        W78429  19.169   8.844  12.904
 6104W        W78430  14.910   3.918  14.352
 6105W        W78431   0.892   0.929  11.992
 6106W        W78432  36.574  31.964  10.693
 6107W        W78433  35.838  23.075  13.798
 6108W        W78434   0.765  29.465  11.869
 6109W        W78435  14.177  24.572   9.808
 6110W        W78436  30.942  24.095  11.089
 6111W        W78437   0.499  13.199   3.833
 6112W        W78438  28.576  25.706   0.929
 6113W        W78439  28.922   1.824   1.464
 6114W        W78440   0.349  30.474  14.796
 6115W        W78441  13.243  42.203  11.663
 6116W        W78442  38.032  14.130   2.101
 6117W        W78443  44.856  12.800  13.166
 6118W        W78444  13.084  30.565  11.116
 6119W        W78445   7.333  22.649   0.238
 6120W        W78446  25.009  25.252  14.763
 6121W        W78447  16.052   6.787  14.559
 6122W        W78448  11.667  42.559   2.147
 6123W        W78449  34.389  40.749   0.273
 6124W        W78450  31.061  22.794   0.306
 6125W        W78451   3.884   9.774   1.045
 6126W        W78452  15.392  17.529  13.411
 6127W        W78453   1.327   7.408   3.287
 6128W        W78454  26.005   2.751  14.680
 6129W        W78455  35.665  40.641   2.708
 6130W        W78456   2.426  17.043  10.161
 6131W        W78457   0.908  40.780  11.314
 6132W        W78458   3.513  19.990   0.398
 6133W        W78459  35.818  41.797   0.755
 6134W        W78460  28.978  24.477  12.944
 6135W        W78461   3.887  19.117  10.617
 6136W        W78462  24.305   6.766   0.271
 6137W        W78463  41.759  28.412   0.286
 6138W        W78464   6.421  31.786   3.220
 6139W        W78465  35.492  27.555  14.073
 6140W        W78466  15.702  10.474  14.328
 6141W        W78467  15.613  32.611   3.001
 6142W        W78468  28.171   1.673  11.247
 6143W        W78469  22.099  13.053   1.590
 6144W        W78470   2.378  44.572   4.239
 6145W        W78471  21.187  24.610   2.228
 6146W        W78472   1.206  13.198   0.801
 6147W        W78473   8.752  18.982   4.207
 6148W        W78474   7.797  10.107  12.084
 6149W        W78475   0.464   0.085   0.149
 6150W        W78476  21.757  40.582   3.431
 6151W        W78477  28.069  19.060   3.968
 6152W        W78478  43.322  14.346   0.872
 6153W        W78479  28.177   4.400  12.937
 6154W        W78480  32.907  10.212   0.300
 6155W        W78481  25.247   7.377  13.857
 6156W        W78482  33.360   4.785  12.998
 6157W        W78483  18.232   4.378   1.750
 6158W        W78484  28.056  27.980  14.446
 6159W        W78485  34.394  37.124  12.467
 6160W        W78486  10.199   6.366   4.203
 6161W        W78487  34.872  41.776   1.754
 6162W        W78488  18.098  30.369   0.758
 6163W        W78489   5.675  30.753  14.113
 6164W        W78490  35.927  16.304  13.879
 6165W        W78491  33.416  13.977  12.521
 6166W        W78492  28.032  20.187  12.446
 6167W        W78493  34.889  26.956  13.330
 6168W        W78494  12.929  18.523  11.581
 6169W        W78495  13.883  20.127   3.296
 6170W        W78496   4.527  40.521   4.808
 6171W        W78497   0.250  22.561  12.323
 6172W        W78498  17.997   5.832   1.358
 6173W        W78499  18.163  38.185   2.743
 6174W        W78500   9.583  23.974  14.989
 6175W        W78501  44.589  20.196  11.102
 6176W        W78502   2.762   6.820   1.290
 6177W        W78503  26.630  22.807   4.906
 6178W        W78504  20.891  14.700   1.641
 6179W        W78505   8.341  36.978  11.901
 6180W        W78506  29.686  13.241   0.861
 6181W        W78507  23.032  23.049   1.746
 6182W        W78508  25.664  42.564  14.416
 6183W        W78509  17.615  14.571   1.212
 6184W        W78510  10.864  32.112  11.983
 6185W        W78511  36.643  14.188   4.630
 6186W        W78512  17.598  18.774  14.229
 6187W        W78513  19.013  15.340   2.171
 6188W        W78514  29.166  32.004  10.680
 6189W        W78515  24.961  37.327  13.575
 6190W        W78516  39.644  40.485  14.281
 6191W        W78517  20.341  31.306   3.337
 6192W        W78518  14.806  44.256   4.769
 6193W        W78519  43.008  38.912  12.501
 6194W        W78520  42.916   4.472  12.913
 6195W        W78521  37.051  40.304  10.690
 6196W        W78522   2.636  24.640  12.112
 6197W        W78523  17.103  13.238  14.388
 6198W        W78524  26.779  31.892  12.158
 6199W        W78525  15.107  32.580   0.036
 6200W        W78526   3.220  41.869  13.454
 6201W        W78527  27.427  33.859  11.145
 6202W        W78528  40.408  29.619   0.827
 6203W        W78529  26.260  23.542  10.714
 6204W        W78530  19.725  38.756  10.984
 6205W        W78531  17.274   8.914  10.037
 6206W        W78532  28.904  25.449   3.350
 6207W        W78533  11.723  31.574   1.282
 6208W        W78534  30.874   4.843   1.998
 6209W        W78535  33.123  18.590  12.462
 6210W        W78536   3.402  30.108  12.490
 6211W        W78537  12.596  36.908   5.205
 6212W        W78538   6.527  11.607  13.936
 6213W        W78539  16.973   4.656  10.728
 6214W        W78540  24.085  25.490   4.713
 6215W        W78541  27.662  18.151   1.889
 6216W        W78542   7.129  10.896   1.191
 6217W        W78543  16.611  35.095   1.148
 6218W        W78544   0.415  23.265  12.837
 6219W        W78545  15.779  14.785  14.778
 6220W        W78546  12.695   5.689   3.679
 6221W        W78547  37.577   0.412   2.935
 6222W        W78548  26.765  16.422   9.930
 6223W        W78549  23.190  37.409   5.279
 6224W        W78550  33.156  36.111  13.403
 6225W        W78551  19.171  22.502  12.364
 6226W        W78552  19.644  40.382   5.259
 6227W        W78553  24.156  31.863   3.647
 6228W        W78554   9.294  23.001  11.524
 6229W        W78555  19.626  16.611   1.220
 6230W        W78556  34.392   3.290  14.297
 6231W        W78557   1.341  22.960   2.260
 6232W        W78558  32.599  39.805   2.873
 6233W        W78559  19.581  17.298   0.369
 6234W        W78560   3.426  25.116   4.893
 6235W        W78561  39.866  34.483  12.449
 6236W        W78562  22.154  42.618  11.745
 6237W        W78563  21.029   5.703   4.124
 6238W        W78564  32.426  32.339   2.771
 6239W        W78565  29.458   0.810   4.167
 6240W        W78566  27.374  32.132   3.161
 6241W        W78567  10.615  44.318   1.784
 6242W        W78568  39.814   0.444   4.121
 6243W        W78569  43.363   8.575   0.320
 6244W        W78570   6.013  32.349   2.654
 6245W        W78571  20.537   8.109   3.408
 6246W        W78572  25.647  13.701  13.139
 6247W        W78573  25.575  43.520   1.224
 6248W        W78574   7.163  43.493   3.176
 6249W        W78575  23.099  22.022   2.200
 6250W        W78576  37.379  10.619   3.783
 6251W        W78577  18.756   2.733   1.318
 6252W        W78578  22.141  34.341  11.983
 6253W        W78579  34.421  17.582  14.780
 6254W        W78580  24.990   0.692  12.983
 6255W        W78581  38.543  36.411   0.827
 6256W        W78582  27.841  21.657  11.442
 6257W        W78583  36.797  29.156  13.300
 6258W        W78584   1.398  19.699   0.031
 6259W        W78585  18.950  21.299  11.029
 6260W        W78586  25.420  30.916   1.740
 6261W        W78587  40.085  21.525  14.000
 6262W        W78588  17.594  18.712   2.630
 6263W        W78589   3.939  27.480   0.860
 6264W        W78590  12.211  23.923  13.905
 6265W        W78591  40.899  20.272   1.008
 6266W        W78592  33.652  37.434   4.163
 6267W        W78593  28.140   7.563   1.720
 6268W        W78594  13.581  33.405   4.670
 6269W        W78595  24.685  34.966   3.175
 6270W        W78596  25.001  18.703   0.225
 6271W        W78597  16.562   9.764   0.833
 6272W        W78598  38.409  39.936   4.553
 6273W        W78599  19.737  31.035  12.615
 6274W        W78600  11.875   5.806  11.197
 6275W        W78601  12.101  14.327   2.416
 6276W        W78602  19.869  37.268  13.439
 6277W        W78603  29.971  16.565  13.979
 6278W        W78604   1.395  28.660  11.091
 6279W        W78605   6.632  38.375   1.383
 6280W        W78606  21.100  12.539  10.759
 6281W        W78607  29.812  11.712   5.154
 6282W        W78608   3.514  20.079   2.630
 6283W        W78609  14.707  19.802   3.667
 6284W        W78610  31.462  19.747   4.701
 6285W        W78611   0.425   8.509   1.288
 6286W        W78612   7.219   5.476  12.914
 6287W        W78613  19.217  40.062   1.366
 6288W        W78614  16.601  18.303  13.314
 6289W        W78615  42.725  39.368   4.108
 6290W        W78616  26.995  14.240   1.817
 6291W        W78617   9.418  43.894   4.473
 6292W        W78618  41.454  43.295   1.656
 6293W        W78619  26.827  44.195  11.501
 6294W        W78620  19.738  15.168   2.864
 6295W        W78621  29.379  12.864  13.917
 6296W        W78622  26.465  41.341  13.308
 6297W        W78623  11.335  21.735  12.937
 6298W        W78624  21.504  19.840  13.251
 6299W        W78625  11.240  27.515  11.590
 6300W        W78626  10.883  16.648   4.519
 6301W        W78627  20.131  29.157  14.980
 6302W        W78628  37.485  35.892   3.946
 6303W        W78629  24.414   9.817   2.762
 6304W        W78630  36.447  39.272   3.928
 6305W        W78631   2.332  37.371  12.555
 6306W        W78632  34.175   2.096   0.732
 6307W        W78633  24.318  14.592  12.923
 6308W        W78634  24.059  38.911  11.607
 6309W        W78635  22.187  27.612   1.135
 6310W        W78636  24.766  10.375   0.425
 6311W        W78637   4.707  43.482  14.236
 6312W        W78638   9.882  23.715   1.145
 6313W        W78639  17.607  18.749  10.658
 6314W        W78640   7.950  38.829   4.561
 6315W        W78641   1.293  22.639   2.678
 6316W        W78642  31.601   8.652   3.674
 6317W        W78643  11.257  20.103   4.956
 6318W        W78644  21.549  12.860  14.546
 6319W        W78645  34.496  33.007  10.284
 6320W        W78646  14.220   4.857   4.782
 6321W        W78647  28.026  40.531  14.896
 6322W        W78648   5.912  17.142   4.322
 6323W        W78649  44.455  25.274   1.629
 6324W        W78650  31.882  44.483  14.394
 6325W        W78651  39.255  19.595  11.533
 6326W        W78652  44.553  15.830   4.745
 6327W        W78653  43.765  36.947   3.157
 6328W        W78654  32.430  25.740  10.439
 6329W        W78655  38.554  15.596   0.918
 6330W        W78656  36.330  41.774  14.816
 6331W        W78657  41.463  36.311  10.870
 6332W        W78658  17.664  21.579   3.320
 6333W        W78659  16.703  13.632  12.541
 6334W        W78660  40.570   1.756  10.306
 6335W        W78661  32.485   7.430   3.785
 6336W        W78662   0.644  30.022   3.811
 6337W        W78663   9.928  35.794   3.884
 6338W        W78664  27.269  40.099  10.663
 6339W        W78665  33.604   4.773  14.464
 6340W        W78666  37.560  26.470  10.396
 6341W        W78667  33.186  38.306   0.365
 6342W        W78668  12.247  26.944  11.404
 6343W        W78669  43.444  39.404  11.066
 6344W        W78670  25.258  16.539  14.527
 6345W        W78671  11.209  19.443  11.374
 6346W        W78672   1.532  20.100  13.320
 6347W        W78673  19.725  12.820   4.017
 6348W        W78674  27.245  44.575   4.651
 6349W        W78675  24.917  15.806  10.565
 6350W        W78676   3.385  16.338   2.244
 6351W        W78677  22.916  24.170   4.673
 6352W        W78678  20.923  43.601  10.069
 6353W        W78679  31.262  16.556  13.137
 6354W        W78680  17.330   2.130   4.552
 6355W        W78681  36.894  34.889   1.404
 6356W        W78682  42.481  25.449   0.773
 6357W        W78683  10.184   3.254  14.328
 6358W        W78684  18.074  10.103  14.201
 6359W        W78685  16.310  36.415   1.781
 6360W        W78686  19.034  35.815   1.374
 6361W        W78687   6.989  36.915   2.946
 6362W        W78688   7.803  31.913  14.034
 6363W        W78689  24.615  41.852   3.662
 6364W        W78690   2.626  26.239  14.156
 6365W        W78691  28.258  18.858   3.063
 6366W        W78692  43.861   9.108   4.067
 6367W        W78693  32.225  27.018   2.290
 6368W        W78694  41.496  35.940  12.427
 6369W        W78695  25.181  39.441  14.814
 6370W        W78696   6.752   1.568   2.717
 6371W        W78697  19.294  10.682  12.804
 6372W        W78698  17.459   7.324  10.669
 6373W        W78699  18.738  17.683   1.207
 6374W        W78700   2.220  35.050   3.460
 6375W        W78701  41.108   0.478   1.246
 6376W        W78702  41.685  34.700  11.130
 6377W        W78703  36.571  43.580   1.298
 6378W        W78704  19.613  43.025   0.755
 6379W        W78705  14.676  27.440   1.372
 6380W        W78706  17.598  15.113  11.460
 6381W        W78707  12.183  38.592  14.066
 6382W        W78708   8.431  14.608   1.285
 6383W        W78709  29.575  22.576   1.398
 6384W        W78710  42.557  14.173   2.627
 6385W        W78711  18.805   8.372  13.910
 6386W        W78712  41.977  15.655   4.564
 6387W        W78713  31.986  38.206  12.006
 6388W        W78714   2.296  19.912  13.696
 6389W        W78715   3.657  44.560  13.442
 6390W        W78716  25.105  44.380   1.839
 6391W        W78717  22.121   0.740   0.497
 6392W        W78718   1.406  39.506  10.944
 6393W        W78719  24.556  37.812   2.891
 6394W        W78720  28.015  12.145   1.743
 6395W        W78721  39.803   7.553  13.802
 6396W        W78722  42.356  36.853   4.640
 6397W        W78723   0.239  29.896   2.563
 6398W        W78724  36.633  37.019  10.725
 6399W        W78725  27.639  15.244   4.389
 6400W        W78726  29.067   2.760  14.314
 6401W        W78727  19.675  21.231   4.203
 6402W        W78728  34.317   0.034   4.305
 6403W        W78729  14.582  20.242   1.437
 6404W        W78730  20.710   8.995  11.178
 6405W        W78731  12.324  43.163   1.787
 6406W        W78732  10.566  32.445   4.607
 6407W        W78733  36.012  34.570  14.525
 6408W        W78734  40.740  24.558  12.904
 6409W        W78735  37.256  34.174   3.705
 6410W        W78736   4.838   3.951  10.485
 6411W        W78737   7.199   3.362  12.714
 6412W        W78738  27.486  30.361   0.132
 6413W        W78739  20.510   3.697   0.221
 6414W        W78740  34.500  21.815  10.462
 6415W        W78741  43.554  33.146   4.977
 6416W        W78742  36.475  15.315   2.589
 6417W        W78743   1.933  44.288   4.163
 6418W        W78744  12.215  35.048  11.585
 6419W        W78745  26.720  13.162   0.740
 6420W        W78746   7.786   3.735   3.210
 6421W        W78747  27.514   2.493  11.884
 6422W        W78748   7.124  31.523  12.328
 6423W        W78749  26.357  27.684  10.295
 6424W        W78750  34.792  27.377   1.778
 6425W        W78751  17.263   7.348  13.780
 6426W        W78752  37.559  19.727   2.030
 6427W        W78753  29.471  42.242  12.962
 6428W        W78754  19.493  37.389  13.117
 6429W        W78755   9.917  21.006   2.312
 6430W        W78756  20.749  19.307  14.932
 6431W        W78757  35.896  18.439  10.720
 6432W        W78758  32.607  35.668  14.368
 6433W        W78759  32.468  26.522   2.259
 6434W        W78760  12.661  38.876   0.790
 6435W        W78761   8.241  44.881  13.730
 6436W        W78762   9.828  28.180   1.166
 6437W        W78763  43.218  35.056   0.724
 6438W        W78764  11.674  19.312  14.760
 6439W        W78765   2.613  13.575  12.077
 6440W        W78766  33.123  24.438   3.724
 6441W        W78767  16.037  21.728  11.728
 6442W        W78768  42.344   1.821  13.773
 6443W        W78769  40.320  14.453   2.228
 6444W        W78770  12.860  25.175   0.230
 6445W        W78771  27.567  35.484   3.081
 6446W        W78772  14.476   9.940  11.936
 6447W        W78773  19.702   3.753  14.758
 6448W        W78774  41.881   0.209  11.095
 6449W        W78775  35.603  30.123  10.680
 6450W        W78776  19.353  25.577   3.149
 6451W        W78777  37.977  11.748   3.386
 6452W        W78778  30.246  23.814   2.797
 6453W        W78779   7.854   0.356   0.908
 6454W        W78780  34.650  18.046  13.512
 6455W        W78781  21.594  13.124   0.455
 6456W        W78782  25.728  39.452  10.996
 6457W        W78783  11.901   8.410   3.125
 6458W        W78784  31.821  15.351  12.911
 6459W        W78785  14.618  15.337   1.195
 6460W        W78786  42.843  34.500   4.762
 6461W        W78787  17.516  33.877  12.518
 6462W        W78788  12.191   1.650   1.304
 6463W        W78789  17.554  28.777  10.538
 6464W        W78790  26.413   5.817   4.197
 6465W        W78791  36.554   6.839   0.042
 6466W        W78792  31.042  34.810   2.276
 6467W        W78793  14.931  10.954   3.401
 6468W        W78794  12.108  28.911   2.843
 6469W        W78795  13.781  10.782   2.208
 6470W        W78796  35.438  12.794   3.244
 6471W        W78797  44.402  40.408   3.674
 6472W        W78798   8.229  27.774   4.226
 6473W        W78799  24.522  28.173  13.375
 6474W        W78800   5.065   5.326  11.430
 6475W        W78801  24.081  35.762  14.846
 6476W        W78802  36.639  31.545  14.306
 6477W        W78803  13.210  36.820   3.110
 6478W        W78804  25.111   9.249  14.490
 6479W        W78805   3.509  33.840   3.801
 6480W        W78806  17.276  34.069  13.919
 6481W        W78807  19.241  22.797   3.275
 6482W        W78808   0.719  43.716  13.904
 6483W        W78809   0.391  37.993  14.024
 6484W        W78810  41.750  22.921   1.894
 6485W        W78811  37.350  27.414  13.800
 6486W        W78812  38.028  25.956   4.035
 6487W        W78813  34.902  41.001   1.345
 6488W        W78814  19.710   2.670   4.237
 6489W        W78815  28.048  21.047   9.900
 6490W        W78816  38.313  38.437  12.926
 6491W        W78817   4.284  19.785   1.124
 6492W        W78818   3.260  19.806  13.890
 6493W        W78819  36.337  14.676  12.772
 6494W        W78820  27.530  34.686  11.516
 6495W        W78821   8.197  22.911  13.937
 6496W        W78822   5.322  17.540  14.407
 6497W        W78823  34.018  11.204   4.604
 6498W        W78824  20.425  17.809   1.806
 6499W        W78825  13.055  17.321   3.766
 6500W        W78826  17.023   0.999  13.365
 6501W        W78827   5.708   8.861   2.313
 6502W        W78828  39.896  12.535  12.856
 6503W        W78829  18.563  44.075  14.824
 6504W        W78830  29.945  23.137   1.380
 6505W        W78831  20.488   9.402  10.955
 6506W        W78832  38.291  29.915   3.736
 6507W        W78833  22.030   3.314  10.465
 6508W        W78834  18.694  18.831  13.529
 6509W        W78835  43.103  33.521  12.916
 6510W        W78836  30.550  36.827   4.440
 6511W        W78837  13.753  32.126   5.059
 6512W        W78838  44.735  21.155   3.225
 6513W        W78839   4.487  34.533   3.297
 6514W        W78840  13.967  21.081  11.081
 6515W        W78841  40.453  17.978   2.846
 6516W        W78842  10.448  42.945  12.668
 6517W        W78843  30.943  14.314  11.868
 6518W        W78844   8.308  28.008   3.747
 6519W        W78845  11.078  44.032  14.517
 6520W        W78846  30.963  40.458  14.422
 6521W        W78847  24.518  23.200   2.292
 6522W        W78848  26.571  32.304   0.933
 6523W        W78849   5.606  31.993  11.495
 6524W        W78850  15.683   8.347   2.002
 6525W        W78851   2.253  31.085  11.061
 6526W        W78852  22.709   2.911   0.825
 6527W        W78853   8.227  44.693   3.372
 6528W        W78854  24.426  20.179  14.518
 6529W        W78855  19.557  43.859  11.639
 6530W        W78856  20.641  43.470  12.436
 6531W        W78857  15.848   4.466  14.296
 6532W        W78858  18.584   0.331  11.755
 6533W        W78859  14.153   9.562  12.385
 6534W        W78860  27.176   4.042   0.535
 6535W        W78861  38.383  11.676   3.729
 6536W        W78862   8.614   1.840  11.024
 6537W        W78863  24.211  39.598  12.458
 6538W        W78864  12.654   7.284  14.764
 6539W        W78865  15.141  15.844  13.315
 6540W        W78866  29.504  41.724   2.279
 6541W        W78867  38.909  33.509  13.467
 6542W        W78868  13.176  25.559  11.086
 6543W        W78869  16.004  18.097  12.068
 6544W        W78870   2.495  16.591  14.573
 6545W        W78871  24.622  14.391  10.671
 6546W        W78872  15.741  26.020   3.038
 6547W        W78873  31.044  22.629   1.496
 6548W        W78874  42.959  22.645  10.680
 6549W        W78875   7.929   5.885  10.550
 6550W        W78876  36.796  26.235   2.659
 6551W        W78877  30.338  34.977   0.334
 6552W        W78878   9.136  31.373  13.571
 6553W        W78879  35.985  41.771   2.751
 6554W        W78880  18.592   7.595  14.220
 6555W        W78881  27.360  40.930  14.306
 6556W        W78882   1.800  31.698  11.047
 6557W        W78883   0.634   4.251   4.234
 6558W        W78884  35.341  36.037   1.879
 6559W        W78885  29.557  33.487   3.165
 6560W        W78886  14.635  25.487  14.647
 6561W        W78887  41.505  40.618  10.643
 6562W        W78888   3.843  29.408   0.866
 6563W        W78889  30.305  43.590  12.509
 6564W        W78890   1.228  23.939  10.583
 6565W        W78891  27.018  27.231  11.986
 6566W        W78892  10.668  10.669  14.713
 6567W        W78893  12.339   7.312  13.856
 6568W        W78894   0.115   7.975  13.042
 6569W        W78895  29.519  33.581  13.533
 6570W        W78896  44.512  10.401  13.213
 6571W        W78897   6.915  39.270  12.923
 6572W        W78898  10.851  16.533  13.330
 6573W        W78899  19.334   2.845  14.998
 6574W        W78900   6.514   7.265   0.472
 6575W        W78901  18.846  14.915  13.771
 6576W        W78902  17.185   4.190  11.980
 6577W        W78903  43.759   6.894   3.250
 6578W        W78904   7.829  34.067  11.049
 6579W        W78905   5.957  36.158   1.248
 6580W        W78906  15.274  35.393  10.641
 6581W        W78907   0.597  15.375   1.468
 6582W        W78908  32.446   0.873  11.814
 6583W        W78909  41.456  18.168  11.044
 6584W        W78910  44.942  14.625  12.544
 6585W        W78911  36.037  28.275  13.972
 6586W        W78912  37.400   5.803   3.552
 6587W        W78913  16.533   6.722  11.422
 6588W        W78914  10.989  28.969   0.955
 6589W        W78915  17.324  22.661   4.490
 6590W        W78916  28.445   6.719   4.400
 6591W        W78917  41.237  43.726  14.878
 6592W        W78918  34.609   0.884  13.970
 6593W        W78919  39.494  19.272   1.346
 6594W        W78920  18.064  11.775  14.009
 6595W        W78921  27.215  26.147   2.337
 6596W        W78922  36.854  24.004   4.672
 6597W        W78923  21.148  17.139  11.087
 6598W        W78924  25.115  10.679  12.483
 6599W        W78925  43.239  43.748   2.414
 6600W        W78926  15.313  16.201   1.193
 6601W        W78927  43.397  17.368   1.273
 6602W        W78928  15.184  36.481   0.225
 6603W        W78929  17.099  12.262   3.841
 6604W        W78930  13.330  41.981  12.960
 6605W        W78931  19.597   3.770  10.670
 6606W        W78932  34.963  27.553   1.306
 6607W        W78933  21.302  36.048  14.453
 6608W        W78934  35.630  31.197   4.525
 6609W        W78935  12.281  26.622  12.312
 6610W        W78936  13.613  12.151   4.196
 6611W        W78937  10.504   7.755   2.199
 6612W        W78938  19.655   9.347   0.848
 6613W        W78939  25.941   2.229   3.867
 6614W        W78940  20.475  29.461   3.715
 6615W        W78941   7.100  14.758  14.960
 6616W        W78942  34.007  42.467  13.462
 6617W        W78943  19.672   3.817   1.408
 6618W        W78944  21.019  19.989  11.115
 6619W        W78945  41.259  13.178  11.201
 6620W        W78946  25.904  36.677   4.211
 6621W        W78947   2.843   0.677  12.642
 6622W        W78948  44.496  20.591  11.476
 6623W        W78949   6.888   4.857  14.047
 6624W        W78950   8.461   8.371  13.457
 6625W        W78951  30.607  31.899   2.510
 6626W        W78952  25.790  43.495  12.998
 6627W        W78953   0.805  17.280  14.537
 6628W        W78954  44.803  39.441   3.672
 6629W        W78955  11.852  35.042  13.952
 6630W        W78956  25.544   0.916   2.203
 6631W        W78957  13.202  18.475  11.126
 6632W        W78958  37.048  37.002  14.408
 6633W        W78959   5.683  33.614  14.408
 6634W        W78960  16.299  10.910   4.459
 6635W        W78961  40.844  44.955  12.458
 6636W        W78962  14.836  32.021  12.861
 6637W        W78963  18.100   1.722   0.400
 6638W        W78964  34.494  24.682   1.751
 6639W        W78965  37.872  15.567   3.113
 6640W        W78966   7.941  27.457   1.651
 6641W        W78967  20.185   1.725  11.092
 6642W        W78968  44.054   0.458  13.505
 6643W        W78969  39.837  37.487  14.209
 6644W        W78970  17.652   8.695  13.407
 6645W        W78971  20.778  27.021   3.641
 6646W        W78972   9.247  14.705  10.749
 6647W        W78973  15.206  28.699  12.490
 6648W        W78974  34.441  19.350   1.230
 6649W        W78975  30.919  42.230   0.352
 6650W        W78976  23.763   9.376  10.700
 6651W        W78977  25.452  25.073   3.775
 6652W        W78978  31.502   3.715  11.243
 6653W        W78979  16.657  28.695  13.083
 6654W        W78980   5.267   1.922  13.880
 6655W        W78981  20.627  16.915   3.230
 6656W        W78982  24.221  18.891  12.189
 6657W        W78983  11.111   0.876  12.068
 6658W        W78984   8.168  36.413  13.067
 6659W        W78985  37.003   3.684   0.355
 6660W        W78986   9.693  24.967  11.571
 6661W        W78987  32.687  42.206   3.091
 6662W        W78988  43.349  33.616   3.667
 6663W        W78989  19.102  39.481   2.140
 6664W        W78990  13.069   4.915   0.921
 6665W        W78991  44.258  26.640  13.594
 6666W        W78992  36.443  27.658   3.616
 6667W        W78993  10.185   1.969   1.411
 6668W        W78994  39.294   2.946   4.607
 6669W        W78995  44.217  23.040   1.020
 6670W        W78996  22.031   3.960  13.472
 6671W        W78997  41.259  12.312   1.690
 6672W        W78998  33.516  31.224   4.596
 6673W        W78999   7.873   5.279   1.907
 6674W        W79000  21.054  30.339  11.935
 6675W        W79001  37.327  26.543   3.816
 6676W        W79002  40.334   8.186   1.840
 6677W        W79003  38.070  39.886  13.910
 6678W        W79004  28.650   6.951  12.911
 6679W        W79005  41.578  10.928   1.818
 6680W        W79006  29.076  20.120   2.373
 6681W        W79007  41.320  18.053  11.523
 6682W        W79008  37.299  16.235   3.621
 6683W        W79009  13.129  33.624   9.622
 6684W        W79010  30.202  19.601   4.179
 6685W        W79011   4.730  24.538   2.728
 6686W        W79012  42.938  20.100   0.945
 6687W        W79013   7.270   8.888  10.947
 6688W        W79014  21.077  38.288  11.527
 6689W        W79015  16.627  20.202   3.258
 6690W        W79016  15.224  34.046  14.724
 6691W        W79017   1.927  10.362  13.608
 6692W        W79018   7.755  16.743  13.764
 6693W        W79019  19.801  44.302  12.396
 6694W        W79020  32.443  21.215  11.596
 6695W        W79021  11.884  36.098   0.408
 6696W        W79022   2.005  10.882  11.450
 6697W        W79023  28.664  17.684   1.434
 6698W        W79024  29.617  19.781  13.131
 6699W        W79025  25.621  21.490  11.214
 6700W        W79026  20.583  26.104   2.707
 6701W        W79027  26.460   2.288  14.634
 6702W        W79028  27.499  39.952   2.677
 6703W        W79029   4.390  20.361   1.776
 6704W        W79030  32.086  41.792  14.931
 6705W        W79031  20.501  25.544   0.741
 6706W        W79032  34.903   6.648   3.832
 6707W        W79033  35.608   2.427  11.678
 6708W        W79034  36.509   5.781  11.849
 6709W        W79035  22.826  20.325   3.081
 6710W        W79036  43.033  15.743  14.105
 6711W        W79037  18.647  42.874   2.873
 6712W        W79038  12.870  19.460  13.416
 6713W        W79039  11.331  19.311  13.427
 6714W        W79040  40.708   3.323  12.109
 6715W        W79041  34.872  34.535   1.260
 6716W        W79042  15.842  10.363   2.726
 6717W        W79043  41.008   1.756   4.556
 6718W        W79044  35.394   6.232  11.999
 6719W        W79045  18.692  38.361  12.008
 6720W        W79046   1.918   4.401   2.607
 6721W        W79047   8.139  40.544   4.368
 6722W        W79048  26.528   3.939  14.295
 6723W        W79049   2.854  20.541  14.986
 6724W        W79050  28.603  34.940  14.291
 6725W        W79051  43.507  14.491  14.948
 6726W        W79052  31.685  30.244  11.136
 6727W        W79053  43.370  10.667  11.441
 6728W        W79054  43.302  14.747  14.013
 6729W        W79055  24.752  18.814   0.679
 6730W        W79056   4.478   0.948   4.202
 6731W        W79057   4.674   2.185   4.681
 6732W        W79058  15.622   1.557   0.664
 6733W        W79059   4.985  11.992  14.772
 6734W        W79060  16.385  28.799  11.142
 6735W        W79061  31.355  27.877   4.998
 6736W        W79062  35.791  10.242  13.070
 6737W        W79063   0.457  28.979  12.915
 6738W        W79064  12.774  12.127  14.285
 6739W        W79065   2.741  21.236  10.669
 6740W        W79066  32.577   1.143   2.384
 6741W        W79067  12.284  27.370  11.104
 6742W        W79068  29.149  15.110   1.786
 6743W        W79069  38.220  13.868   3.315
 6744W        W79070  33.110  12.206   2.302
 6745W        W79071  21.428   2.238   0.788
 6746W        W79072  40.806  19.231   3.752
 6747W        W79073  41.201  35.968   4.362
 6748W        W79074   3.166   9.319  12.832
 6749W        W79075   6.783  26.192  13.558
 6750W        W79076  42.461  39.363  11.086
 6751W        W79077  20.574   3.488   3.855
 6752W        W79078  23.432  41.471   0.674
 6753W        W79079  38.929  40.564   4.463
 6754W        W79080  11.703  43.431  12.343
 6755W        W79081  32.487  17.627  11.044
 6756W        W79082  20.133  43.397  12.322
 6757W        W79083  32.264  33.054  13.304
 6758W        W79084  26.700  34.485   3.694
 6759W        W79085  15.209  20.037  13.569
 6760W        W79086  29.958  31.743  12.571
 6761W        W79087  35.211  19.328   0.720
 6762W        W79088  33.361  30.843   1.342
 6763W        W79089   6.775  37.471  13.032
 6764W        W79090  22.211  19.598  13.842
 6765W        W79091  31.566  15.044  10.609
 6766W        W79092   3.769   8.695  12.476
 6767W        W79093   8.409   1.534  13.369
 6768W        W79094  33.285  40.913   2.606
 6769W        W79095   6.341  32.600   0.766
 6770W        W79096   9.370  15.593   0.922
 6771W        W79097  30.422  20.717  13.950
 6772W        W79098   3.416   2.313   5.313
 6773W        W79099   9.398  10.680  14.176
 6774W        W79100  22.713  37.323   2.849
 6775W        W79101  38.449  39.697   4.105
 6776W        W79102  34.028  38.569   0.535
 6777W        W79103  41.984  41.247  12.105
 6778W        W79104  17.434  33.351  13.575
 6779W        W79105   6.746  32.901  12.451
 6780W        W79106  15.093  11.340   2.364
 6781W        W79107  41.190  34.243   3.538
 6782W        W79108   2.711  20.098  11.218
 6783W        W79109  14.848   3.897   2.707
 6784W        W79110  27.404  41.919   0.126
 6785W        W79111   7.366   1.304  14.297
 6786W        W79112  25.706   5.207  14.427
 6787W        W79113  35.901  29.197  12.156
 6788W        W79114  38.821  27.976  12.908
 6789W        W79115  13.728   9.963   1.831
 6790W        W79116  23.028  25.748   2.150
 6791W        W79117  40.048  13.822   2.347
 6792W        W79118   7.445   7.842  11.773
 6793W        W79119  34.212  24.063  11.226
 6794W        W79120  24.545  32.801  14.573
 6795W        W79121  37.623  44.904   3.689
 6796W        W79122   3.933  26.735   4.683
 6797W        W79123   9.337  39.019  13.423
 6798W        W79124  12.688  16.245  11.735
 6799W        W79125  16.267  27.536  12.836
 6800W        W79126   7.624  37.483   3.800
 6801W        W79127   6.849  12.558   2.206
 6802W        W79128  24.107  39.613   1.009
 6803W        W79129  26.557  34.858   1.933
 6804W        W79130  39.566  23.251   2.886
 6805W        W79131  16.124  34.081   0.276
 6806W        W79132  42.995   4.796   1.880
 6807W        W79133  25.918  26.358   2.664
 6808W        W79134   6.627  37.847   4.519
 6809W        W79135   8.977   6.196  12.950
 6810W        W79136  42.404  34.614  11.887
 6811W        W79137  40.475  32.892  12.925
 6812W        W79138  43.469  27.667  13.252
 6813W        W79139  19.730  22.965   0.978
 6814W        W79140  15.167  10.873   1.118
 6815W        W79141  34.182   3.460  12.443
 6816W        W79142  34.469  22.259  11.233
 6817W        W79143  34.335  20.718   1.231
 6818W        W79144  41.951  42.640   4.705
 6819W        W79145  42.054  35.415  10.700
 6820W        W79146  32.427  33.514   1.249
 6821W        W79147  20.210  11.724   1.932
 6822W        W79148  26.749  39.755  14.145
 6823W        W79149  37.130   1.693  10.591
 6824W        W79150   6.423  42.040   4.648
 6825W        W79151   2.279  21.224   3.283
 6826W        W79152   3.908  35.758   0.435
 6827W        W79153  12.218  36.407  13.643
 6828W        W79154  37.880  42.825  11.029
 6829W        W79155   1.508  32.591   2.084
 6830W        W79156  30.842  10.211  10.627
 6831W        W79157  15.610   6.901   3.158
 6832W        W79158   6.275  25.372   4.169
 6833W        W79159   7.222  39.294  11.460
 6834W        W79160  30.632  25.566  12.099
 6835W        W79161  44.931  34.470   2.384
 6836W        W79162  29.221   6.303   4.320
 6837W        W79163  39.024   3.205  12.011
 6838W        W79164  21.116   8.942  14.529
 6839W        W79165  12.211   0.520   4.572
 6840W        W79166   9.883  16.116  13.148
 6841W        W79167   6.525   4.943   1.647
 6842W        W79168   6.856  11.269  11.326
 6843W        W79169  15.857  23.092   1.623
 6844W        W79170   3.556  23.754  11.848
 6845W        W79171  22.553   7.678  10.300
 6846W        W79172  10.957  44.020  10.767
 6847W        W79173  13.290  31.366   3.791
 6848W        W79174   1.858  32.849   0.465
 6849W        W79175  42.428  41.543  11.062
 6850W        W79176  17.139  14.026   4.237
 6851W        W79177  13.789  14.160  12.881
 6852W        W79178  31.246  10.625   4.211
 6853W        W79179   7.694   2.418   1.235
 6854W        W79180   9.883  41.559  14.004
 6855W        W79181  15.549  35.441   3.069
 6856W        W79182  18.200   3.178  14.020
 6857W        W79183  28.133  19.975  12.918
 6858W        W79184  41.563  29.214   2.802
 6859W        W79185  38.536  24.446   1.801
 6860W        W79186  37.289   0.715   3.234
 6861W        W79187  13.344  25.044   1.351
 6862W        W79188  42.973  43.748  13.401
 6863W        W79189  29.032   1.263  12.402
 6864W        W79190  44.062  10.762  14.925
 6865W        W79191   2.168  22.553   0.936
 6866W        W79192  41.095   4.501   1.413
 6867W        W79193   0.001  25.515  14.333
 6868W        W79194  31.419  17.050  11.972
 6869W        W79195  30.407  26.025   3.271
 6870W        W79196   4.245  15.842  11.093
 6871W        W79197  34.004  26.318   1.890
 6872W        W79198  18.709  27.970   2.788
 6873W        W79199  44.338   1.219   2.806
 6874W        W79200  21.294  29.686   0.435
 6875W        W79201  25.552  34.259   1.784
 6876W        W79202  41.541   7.793   3.866
 6877W        W79203   7.783   0.184   4.233
 6878W        W79204  39.589   5.188   1.010
 6879W        W79205   2.781  10.693  12.838
 6880W        W79206  20.797  20.831  10.298
 6881W        W79207  25.747  34.891   4.229
 6882W        W79208  24.091  22.808  10.885
 6883W        W79209  30.710   8.948  10.352
 6884W        W79210  31.715  11.178  12.950
 6885W        W79211  20.840  43.453   4.185
 6886W        W79212  34.110  19.530   3.766
 6887W        W79213  35.770  10.190   0.318
 6888W        W79214  20.978  12.371  12.951
 6889W        W79215  43.298  25.430   2.709
 6890W        W79216  32.494  11.931   0.255
 6891W        W79217   3.168  28.042   3.148
 6892W        W79218  28.067  23.971   2.364
 6893W        W79219  26.983  20.571   0.994
 6894W        W79220  30.692  44.868   4.768
 6895W        W79221  20.604  44.497   0.311
 6896W        W79222  31.710  26.487  10.703
 6897W        W79223  29.178  23.963  12.467
 6898W        W79224  29.554  27.165   1.258
 6899W        W79225  18.720  41.134  14.919
 6900W        W79226  28.598  15.352  10.872
 6901W        W79227  22.085  11.273   2.412
 6902W        W79228  20.237   6.438  14.376
 6903W        W79229  44.724  41.399  12.017
 6904W        W79230  23.999  43.290  12.528
 6905W        W79231  25.768   9.754  11.396
 6906W        W79232   4.081  21.993  10.659
 6907W        W79233  23.452   6.064   3.601
 6908W        W79234   5.878  43.251   2.678
 6909W        W79235  38.542  34.327  11.090
 6910W        W79236  32.692  19.166   4.009
 6911W        W79237  29.764  30.806   0.071
 6912W        W79238  39.435  13.064   2.174
 6913W        W79239  16.399   1.939  14.826
 6914W        W79240  36.521   1.365  13.387
 6915W        W79241   4.490  11.169   3.248
 6916W        W79242  27.965  25.028   0.831
 6917W        W79243   8.163  27.942   0.313
 6918W        W79244  17.647   5.972   2.628
 6919W        W79245  16.793  29.863  14.801
 6920W        W79246  44.958  28.413   1.646
 6921W        W79247  36.501  42.310  14.002
 6922W        W79248  31.163  44.316   4.126
 6923W        W79249  22.798   0.702   1.127
 6924W        W79250   5.260  15.889   2.686
 6925W        W79251  13.006  38.643   4.072
 6926W        W79252   9.519  34.129   0.913
 6927W        W79253   0.328  23.748   0.959
 6928W        W79254  39.803  29.861   2.701
 6929W        W79255  19.753  39.774  10.650
 6930W        W79256  42.925  34.813   2.381
 6931W        W79257  12.357  38.865  11.504
 6932W        W79258  10.682   6.763  10.909
 6933W        W79259   9.342  11.888   4.103
 6934W        W79260  38.455  20.028  14.253
 6935W        W79261  33.702  27.807   4.839
 6936W        W79262   9.127   4.597   1.699
 6937W        W79263  18.350  43.905   2.795
 6938W        W79264  40.023  31.724   2.637
 6939W        W79265  13.278  20.230   0.810
 6940W        W79266   7.242  10.374   1.297
 6941W        W79267  33.581  12.356  10.966
 6942W        W79268  27.104  34.976   0.159
 6943W        W79269  28.193  28.621  14.063
 6944W        W79270  31.408  12.171   3.447
 6945W        W79271  14.165  34.074  12.297
 6946W        W79272  38.900   1.215   2.793
 6947W        W79273  36.578  34.246   0.893
 6948W        W79274  17.671   6.771   4.669
 6949W        W79275   4.508   1.856  10.082
 6950W        W79276   5.322  14.664  13.437
 6951W        W79277  13.381   9.404   1.329
 6952W        W79278  38.932  41.271  12.082
 6953W        W79279   6.329  13.541   5.054
 6954W        W79280  32.024  17.247   3.281
 6955W        W79281  28.716   0.749  11.710
 6956W        W79282  38.367  24.489  11.853
 6957W        W79283  26.501  33.958   2.629
 6958W        W79284  38.905  19.276  13.112
 6959W        W79285  38.392  24.997   0.931
 6960W        W79286   5.452   0.048  11.763
 6961W        W79287  44.838  31.993   0.827
 6962W        W79288  26.282  17.071   3.685
 6963W        W79289  10.119  35.829   1.252
 6964W        W79290  15.557  36.483  10.358
 6965W        W79291  13.330  32.542   1.355
 6966W        W79292  25.367   0.508  11.216
 6967W        W79293  41.857   5.690  12.542
 6968W        W79294  37.615   6.347   1.946
 6969W        W79295   5.953  15.119   4.813
 6970W        W79296  20.701  11.613   1.800
 6971W        W79297  43.290   9.551   3.664
 6972W        W79298  23.203  14.307   4.641
 6973W        W79299  19.082  37.065   3.245
 6974W        W79300   5.503  26.339  11.913
 6975W        W79301  35.812  13.284  14.520
 6976W        W79302  35.850  33.446  12.327
 6977W        W79303  44.989  34.639   3.205
 6978W        W79304  41.526  11.776   0.031
 6979W        W79305  44.779  23.224  10.670
 6980W        W79306  15.562  43.467  13.133
 6981W        W79307  43.784  43.300  13.264
 6982W        W79308  29.856   8.410  14.784
 6983W        W79309   6.905  44.394  10.359
 6984W        W79310   2.230   8.273  13.905
 6985W        W79311  33.435   8.774   4.582
 6986W        W79312   0.253  30.626   1.828
 6987W        W79313  41.053  19.857  10.686
 6988W        W79314  31.178   1.835   0.903
 6989W        W79315  27.965   1.385  11.631
 6990W        W79316  40.678  32.369   1.176
 6991W        W79317  19.483  36.541  14.334
 6992W        W79318  30.220  36.065  13.484
 6993W        W79319  25.967  32.917  14.536
 6994W        W79320  35.305  43.943  13.510
 6995W        W79321  27.250  19.730  14.498
 6996W        W79322   3.762   4.526   5.072
 6997W        W79323  34.627  38.080  12.236
 6998W        W79324  16.502  34.118  14.375
 6999W        W79325  23.760  24.013  11.871
 7000W        W79326  16.100  42.331  11.544
 7001W        W79327   5.296  33.161   0.001
 7002W        W79328  27.658  43.575   1.358
 7003W        W79329  44.421  33.974   4.110
 7004W        W79330   6.532   5.649   0.803
 7005W        W79331   5.766  26.248   4.102
 7006W        W79332  25.405  36.423   0.867
 7007W        W79333  20.839   0.103  14.831
 7008W        W79334  12.194  17.634  13.452
 7009W        W79335   1.223  25.135   2.246
 7010W        W79336  22.649  34.499  13.901
 7011W        W79337  28.461  26.060  12.442
 7012W        W79338  34.197  38.614   1.806
 7013W        W79339  35.460  19.570  12.563
 7014W        W79340  14.271  13.758  11.525
 7015W        W79341  14.075  28.029   4.186
 7016W        W79342  21.072  27.097  11.624
 7017W        W79343  13.640  29.599  14.722
 7018W        W79344   4.390   4.423  14.689
 7019W        W79345  14.081  37.169   4.932
 7020W        W79346  36.053  34.978   2.423
 7021W        W79347  10.832  24.258  12.538
 7022W        W79348  23.190  42.476   3.793
 7023W        W79349  44.319   8.843   4.993
 7024W        W79350  27.217  27.142   3.309
 7025W        W79351   4.816  12.297   3.195
 7026W        W79352  22.141  33.150  14.751
 7027W        W79353   9.262  30.016  12.450
 7028W        W79354  15.629  43.296   1.282
 7029W        W79355  38.658  32.087  12.557
 7030W        W79356  32.654  40.775  13.294
 7031W        W79357  35.517  41.057  11.103
 7032W        W79358  20.715  23.701   1.829
 7033W        W79359  15.247  21.939   1.209
 7034W        W79360   0.850  18.618   1.901
 7035W        W79361   7.918  25.650  11.337
 7036W        W79362   5.629  33.124   3.969
 7037W        W79363  17.232   6.254   4.518
 7038W        W79364  37.203  41.306   1.810
 7039W        W79365  34.015  28.648   0.359
 7040W        W79366  40.312  14.686   3.870
 7041W        W79367  19.571   8.927   1.833
 7042W        W79368   5.089  25.122  10.778
 7043W        W79369  12.780  36.083  13.838
 7044W        W79370  27.972  40.417   2.915
 7045W        W79371  17.990  29.832   4.190
 7046W        W79372  25.744   1.587   5.342
 7047W        W79373  22.640  19.539   2.757
 7048W        W79374  27.469  42.279   4.078
 7049W        W79375  27.545  27.039   2.430
 7050W        W79376   5.954  30.966  12.155
 7051W        W79377  26.034   8.767  13.038
 7052W        W79378  35.858  13.583  13.647
 7053W        W79379  25.938  40.449   3.762
 7054W        W79380  37.677  20.078   2.397
 7055W        W79381  33.631  29.586   2.817
 7056W        W79382  35.941  37.802   2.143
 7057W        W79383  15.326   3.666  12.957
 7058W        W79384  12.767  32.469  11.672
 7059W        W79385   6.396   0.354   0.348
 7060W        W79386  31.736  25.720  12.951
 7061W        W79387  31.725  24.702  13.682
 7062W        W79388  26.538  21.652  14.453
 7063W        W79389  32.156  10.610  10.877
 7064W        W79390  21.694  11.515   2.696
 7065W        W79391  31.008   1.086   4.043
 7066W        W79392  28.894  28.243   0.473
 7067W        W79393   2.805   8.473   2.085
 7068W        W79394  36.187  26.503  12.119
 7069W        W79395  24.916  33.890  11.541
 7070W        W79396   1.530  16.273  12.351
 7071W        W79397  32.124  18.709  12.434
 7072W        W79398  42.234  34.901   0.704
 7073W        W79399   8.628  22.618  13.964
 7074W        W79400  27.591  18.334  14.028
 7075W        W79401  25.286  43.709   2.490
 7076W        W79402  38.064  14.710  12.840
 7077W        W79403  42.754  33.880   2.179
 7078W        W79404  14.945  11.327  11.300
 7079W        W79405  38.961  36.550  11.886
 7080W        W79406  28.428   6.921  10.798
 7081W        W79407  14.355  33.811   1.699
 7082W        W79408  34.962  33.358  12.311
 7083W        W79409  24.660  21.445  11.505
 7084W        W79410  13.549  36.025  13.419
 7085W        W79411   4.420  30.890  11.985
 7086W        W79412  12.590  30.489  12.401
 7087W        W79413   3.240  35.320  11.915
 7088W        W79414   0.800  12.400  11.374
 7089W        W79415  34.499  41.589  10.520
 7090W        W79416  19.664  15.707   2.316
 7091W        W79417  27.166  19.590   4.195
 7092W        W79418  35.049   4.295  13.851
 7093W        W79419  14.108   9.177  13.470
 7094W        W79420  23.034  26.924  12.575
 7095W        W79421  25.089  34.978   4.273
 7096W        W79422  26.428  30.417  12.508
 7097W        W79423  26.578  32.106   0.120
 7098W        W79424  43.892  33.888   0.057
 7099W        W79425  36.601  21.221  12.497
 7100W        W79426  17.279  25.001   4.162
 7101W        W79427   2.361  27.587  13.682
 7102W        W79428  36.258  32.616   0.963
 7103W        W79429  34.769  44.499   4.561
 7104W        W79430  15.822  29.143   0.310
 7105W        W79431  29.437  41.360   4.028
 7106W        W79432  13.438  44.985  10.440
 7107W        W79433  13.674  39.331   2.706
 7108W        W79434   3.845  13.291   0.896
 7109W        W79435  37.249   4.954  11.131
 7110W        W79436  35.563  36.387   3.129
 7111W        W79437  24.700  31.948  13.454
 7112W        W79438   3.193   6.335  14.789
 7113W        W79439  12.670   0.257  13.740
 7114W        W79440  31.363   5.831   3.675
 7115W        W79441  34.527  19.553  12.535
 7116W        W79442   9.235  35.088   4.376
 7117W        W79443  32.920   7.776  14.463
 7118W        W79444  42.381  32.694  12.450
 7119W        W79445  16.851  33.015   4.202
 7120W        W79446  28.045   1.418  14.464
 7121W        W79447   9.259   1.648   2.746
 7122W        W79448   9.849   9.891  14.444
 7123W        W79449   9.086  43.825   4.076
 7124W        W79450  22.146  38.633   4.577
 7125W        W79451  19.103  39.360  14.792
 7126W        W79452  11.177  26.489  12.536
 7127W        W79453  23.036  21.669   4.249
 7128W        W79454  42.572  32.854   0.961
 7129W        W79455  31.873  32.858  11.176
 7130W        W79456  36.011  12.756  10.690
 7131W        W79457   4.978   7.759   3.256
 7132W        W79458  21.532  23.532  13.747
 7133W        W79459  17.701   2.476  14.015
 7134W        W79460  44.916  24.246  13.102
 7135W        W79461  22.713  31.296   0.877
 7136W        W79462  43.094  32.160   1.248
 7137W        W79463  15.236  44.139   4.489
 7138W        W79464  26.496   9.819  10.154
 7139W        W79465  31.195  36.695  13.586
 7140W        W79466  30.719  21.133   3.627
 7141W        W79467   6.941  41.968  10.602
 7142W        W79468  37.417  21.233  13.481
 7143W        W79469  26.339  14.698  12.291
 7144W        W79470   1.897  29.607  13.063
 7145W        W79471  30.181   2.128   4.132
 7146W        W79472  40.077  39.354   3.765
 7147W        W79473  26.365  35.719   4.615
 7148W        W79474  20.044  44.922  14.460
 7149W        W79475  36.116   0.684   1.873
 7150W        W79476   2.614  31.227   1.893
 7151W        W79477  32.440  35.165   2.553
 7152W        W79478   8.673   8.947   3.379
 7153W        W79479   6.642  29.154  13.028
 7154W        W79480  19.549  33.507  13.478
 7155W        W79481  18.069  34.379  11.096
 7156W        W79482   3.700   9.271  10.523
 7157W        W79483  14.724   8.304  13.491
 7158W        W79484  18.730   3.424   3.710
 7159W        W79485  16.676  10.872  11.495
 7160W        W79486  11.208  25.749  13.491
 7161W        W79487  10.671  35.085   4.844
 7162W        W79488  14.671  19.534  13.784
 7163W        W79489  16.328  33.615   2.660
 7164W        W79490  10.564  11.852   3.399
 7165W        W79491  14.722   1.482  12.500
 7166W        W79492  37.131  23.359   1.397
 7167W        W79493   4.399  33.082   1.947
 7168W        W79494  41.248  14.119  11.375
 7169W        W79495  23.513  36.750   1.722
 7170W        W79496  20.597   7.885   0.942
 7171W        W79497  20.461  16.715   1.882
 7172W        W79498  43.224  25.986   0.514
 7173W        W79499  29.797  35.674   0.220
 7174W        W79500  14.172  39.773  10.888
 7175W        W79501  44.963  29.721   0.246
 7176W        W79502  37.886  41.422   2.476
 7177W        W79503   0.383  12.058  10.661
 7178W        W79504  29.975  13.605   1.921
 7179W        W79505   5.250  31.664  13.426
 7180W        W79506  23.653  40.947  12.336
 7181W        W79507  18.230  18.683   1.952
 7182W        W79508  18.725  41.992   2.155
 7183W        W79509  24.628  36.138   4.680
 7184W        W79510   5.398  40.323  10.596
 7185W        W79511  13.617  41.361   4.055
 7186W        W79512   7.272  42.118  12.482
 7187W        W79513  39.923  13.634  14.843
 7188W        W79514   4.056   8.226  14.816
 7189W        W79515   8.914  27.979   1.349
 7190W        W79516   4.754  13.672   1.409
 7191W        W79517  41.418  34.141  13.519
 7192W        W79518   4.443  35.077   4.135
 7193W        W79519  39.260  20.648  10.477
 7194W        W79520  16.632  22.350  12.363
 7195W        W79521   5.185  42.671   1.693
 7196W        W79522  35.604  27.163   4.287
 7197W        W79523  21.195  16.328   1.463
 7198W        W79524  28.909  40.812  14.691
 7199W        W79525  33.472   5.956   1.757
 7200W        W79526  19.209   6.378  14.456
 7201W        W79527  26.262  26.493   2.297
 7202W        W79528   0.465  28.004   3.651
 7203W        W79529  21.691   6.390  13.451
 7204W        W79530  30.632  16.582  11.751
 7205W        W79531  38.954  38.565   4.736
 7206W        W79532  30.521   6.337   2.916
 7207W        W79533   3.318  34.585  14.247
 7208W        W79534  28.721  26.620   1.798
 7209W        W79535  25.756  37.616   0.250
 7210W        W79536   4.646   4.393   4.209
 7211W        W79537  44.478   1.427   3.726
 7212W        W79538  34.021  21.755   3.669
 7213W        W79539  35.962  28.369   2.419
 7214W        W79540   3.351  30.041   1.784
 7215W        W79541   2.941  30.370   1.854
 7216W        W79542   7.566   8.909   4.682
 7217W        W79543  39.462  30.963  12.644
 7218W        W79544  34.481  14.875   1.236
 7219W        W79545   9.779  25.899   4.624
 7220W        W79546  16.824   2.380  14.095
 7221W        W79547  38.604   0.315  11.787
 7222W        W79548  11.424  41.297   0.799
 7223W        W79549  29.223  33.859   0.371
 7224W        W79550   5.355  43.598   1.384
 7225W        W79551  33.096  12.680  11.630
 7226W        W79552   1.540  42.894  10.550
 7227W        W79553  12.681   5.033   1.926
 7228W        W79554   3.788  26.495   3.784
 7229W        W79555  26.025   9.825   4.617
 7230W        W79556  33.157  21.170  14.114
 7231W        W79557  20.639  34.558   0.224
 7232W        W79558  16.649   6.394   1.047
 7233W        W79559  11.111  29.615  12.194
 7234W        W79560   6.254  40.526  13.829
 7235W        W79561  39.476   1.924  10.671
 7236W        W79562  31.367  14.190   0.476
 7237W        W79563  38.668  13.694   3.522
 7238W        W79564  32.538  13.133  13.141
 7239W        W79565   3.480  12.185  14.998
 7240W        W79566   0.772   9.024  11.746
 7241W        W79567  32.118  27.568   2.807
 7242W        W79568  41.041  42.034  10.737
 7243W        W79569  34.417  13.858   0.672
 7244W        W79570  37.882  30.891   2.297
 7245W        W79571  17.625  16.562   2.696
 7246W        W79572  37.023   4.926   3.696
 7247W        W79573  10.938  44.473   0.301
 7248W        W79574  38.301  17.064   3.679
 7249W        W79575  33.316   6.201   2.402
 7250W        W79576  24.041  42.824   4.998
 7251W        W79577  31.042  20.049   1.208
 7252W        W79578  32.903   5.125  11.481
 7253W        W79579   7.919  40.349   1.240
 7254W        W79580  29.973   9.894   4.179
 7255W        W79581  39.543  44.430   2.267
 7256W        W79582  25.551  33.128   3.844
 7257W        W79583  19.667  20.675  14.396
 7258W        W79584   5.765  32.814   2.649
 7259W        W79585  17.471  21.965   2.319
 7260W        W79586  28.452  34.102   2.761
 7261W        W79587  16.334  36.082  12.061
 7262W        W79588   0.410   1.437  12.853
 7263W        W79589  37.542  16.599  11.087
 7264W        W79590  30.919  39.110  13.448
 7265W        W79591   6.831  11.773  11.100
 7266W        W79592  29.116  35.053  11.694
 7267W        W79593  20.804  24.553   3.213
 7268W        W79594  21.182  44.837   3.705
 7269W        W79595  26.801  40.224  13.919
 7270W        W79596  39.888  10.067   2.342
 7271W        W79597   4.432  34.333   1.331
 7272W        W79598  18.088  17.913  10.690
 7273W        W79599  19.018   4.120   0.162
 7274W        W79600  44.004   0.549   1.600
 7275W        W79601  42.931  44.742   3.510
 7276W        W79602  24.122  42.837   0.677
 7277W        W79603   0.276  17.750  13.302
 7278W        W79604  40.328   5.227   1.829
 7279W        W79605  26.998  12.397   3.242
 7280W        W79606  42.385  38.443   3.787
 7281W        W79607  34.831  26.362  14.252
 7282W        W79608  30.474   1.789  13.950
 7283W        W79609  39.471  13.389  11.442
 7284W        W79610  44.475  31.522  14.763
 7285W        W79611   8.331   4.853  14.925
 7286W        W79612  40.797  14.150  10.664
 7287W        W79613  25.735  21.723  13.329
 7288W        W79614  33.676  20.261   0.544
 7289W        W79615  17.621  18.147   4.849
 7290W        W79616  12.126  38.880  13.507
 7291W        W79617   0.774  25.199   3.785
 7292W        W79618  22.482  19.742  14.270
 7293W        W79619  21.798   5.777  11.476
 7294W        W79620  17.207  33.238  14.900
 7295W        W79621  22.144   1.737  13.378
 7296W        W79622  23.250  21.134   2.161
 7297W        W79623  18.803  22.743  12.939
 7298W        W79624   8.906  41.749   2.692
 7299W        W79625  39.786   5.236   4.411
 7300W        W79626  17.597  15.874   1.302
 7301W        W79627  10.232   5.478  11.939
 7302W        W79628  26.126  18.109   0.890
 7303W        W79629   2.647  43.769  11.783
 7304W        W79630  21.706  27.629  11.090
 7305W        W79631  20.099  42.475  10.138
 7306W        W79632  12.933  38.823  13.059
 7307W        W79633  20.102   8.208  10.805
 7308W        W79634  36.929  42.752   3.251
 7309W        W79635  11.770  30.177  10.530
 7310W        W79636  35.980   9.185   2.270
 7311W        W79637  37.002  23.265  12.478
 7312W        W79638  15.663  26.110   3.557
 7313W        W79639   4.506  44.578   1.967
 7314W        W79640  13.172   3.220  11.179
 7315W        W79641   5.304  12.090   0.194
 7316W        W79642  12.176  32.722  12.456
 7317W        W79643  10.840   3.094   0.775
 7318W        W79644  12.957  23.603  10.506
 7319W        W79645  36.614  13.083   1.139
 7320W        W79646  32.122  44.720  12.365
 7321W        W79647   4.941  35.595  10.623
 7322W        W79648   6.279  36.176   1.645
 7323W        W79649  38.106  44.440   4.913
 7324W        W79650  41.480  23.792   4.149
 7325W        W79651  14.895  28.654  13.374
 7326W        W79652   8.830  35.346   4.633
 7327W        W79653   0.006  41.056   0.320
 7328W        W79654  43.899  27.946  11.458
 7329W        W79655   1.406  12.724   4.309
 7330W        W79656  24.995  44.620  10.466
 7331W        W79657   8.370   4.365  12.444
 7332W        W79658   7.691  27.988  12.348
 7333W        W79659  26.853  42.833  12.220
 7334W        W79660   9.270  25.482   3.810
 7335W        W79661  21.783   1.911  13.030
 7336W        W79662  27.495  29.641  13.321
 7337W        W79663  14.533  18.653  12.906
 7338W        W79664  29.802  10.628  11.864
 7339W        W79665  37.290   8.189  10.880
 7340W        W79666  23.618   8.631  13.406
 7341W        W79667   4.528  31.976   4.316
 7342W        W79668   4.146  36.806   0.325
 7343W        W79669  23.754  38.940   0.623
 7344W        W79670  31.643   0.791  10.592
 7345W        W79671  19.542  42.424   4.438
 7346W        W79672  28.731   2.357  13.975
 7347W        W79673  33.483   6.556  10.064
 7348W        W79674  34.212   0.227   3.808
 7349W        W79675  39.815  36.063  12.002
 7350W        W79676  31.995  44.992   3.068
 7351W        W79677  36.986   6.948   1.750
 7352W        W79678  14.136  19.286  12.888
 7353W        W79679   1.815  15.974  12.997
 7354W        W79680  31.159  25.187   3.267
 7355W        W79681  35.626  38.747   4.103
 7356W        W79682  39.350   9.634  12.134
 7357W        W79683   4.716   6.737  12.668
 7358W        W79684  18.778   1.859   2.856
 7359W        W79685  13.717  43.749   3.910
 7360W        W79686  19.214   2.994   1.173
 7361W        W79687  24.445  42.607  12.842
 7362W        W79688  41.454  34.580   2.768
 7363W        W79689  30.518  10.115   4.112
 7364W        W79690  15.122  35.327  13.527
 7365W        W79691  18.628  24.174   2.872
 7366W        W79692   8.513  19.662   1.233
 7367W        W79693   6.453  35.811   2.414
 7368W        W79694  35.903  37.818  10.646
 7369W        W79695  12.879  14.644  12.818
 7370W        W79696  33.843  12.513   3.884
 7371W        W79697  28.107   7.669  13.979
 7372W        W79698   2.624  17.578  14.812
 7373W        W79699   9.843  13.101   3.143
 7374W        W79700  44.362  16.644  12.814
 7375W        W79701  23.664  12.717   4.052
 7376W        W79702  18.141  31.839  12.120
 7377W        W79703  11.857  16.824  14.346
 7378W        W79704  38.120  42.847   1.083
 7379W        W79705  14.163  41.857   4.698
 7380W        W79706  40.061  37.904  13.967
 7381W        W79707  13.045  29.236  11.116
 7382W        W79708  22.021  21.745   2.683
 7383W        W79709   9.311   1.446   1.275
 7384W        W79710   6.226  41.507   3.729
 7385W        W79711   5.943   5.063   0.965
 7386W        W79712  38.978  27.118   9.917
 7387W        W79713   4.017  39.075   1.790
 7388W        W79714   7.878   4.805  13.962
 7389W        W79715  26.570   3.920   0.747
 7390W        W79716  30.003  31.419   2.817
 7391W        W79717  18.130  26.958  14.256
 7392W        W79718   0.954  37.695   0.739
 7393W        W79719   5.649  27.376   2.872
 7394W        W79720  35.578  13.857  14.595
 7395W        W79721  33.796   3.104  11.085
 7396W        W79722  26.247   2.801   2.407
 7397W        W79723  18.727  32.898   0.533
 7398W        W79724  36.111  44.636   3.932
 7399W        W79725  26.755  40.907   4.576
 7400W        W79726  22.295  40.544  11.016
 7401W        W79727  32.431   7.221   3.114
 7402W        W79728   9.372  25.575   4.620
 7403W        W79729  24.118  15.699  13.471
 7404W        W79730  29.965  34.846  11.779
 7405W        W79731  16.579  28.942  14.923
 7406W        W79732  23.480   1.726   2.738
 7407W        W79733  40.907  29.223   2.420
 7408W        W79734  29.695  36.574   4.657
 7409W        W79735  11.983  31.040  10.511
 7410W        W79736   1.352  30.419  12.059
 7411W        W79737   6.988  24.145  13.065
 7412W        W79738   0.063  25.420   4.240
 7413W        W79739   0.247   6.932  12.984
 7414W        W79740  19.184  22.274   3.277
 7415W        W79741  34.563  36.448  11.963
 7416W        W79742  30.634  16.723   3.195
 7417W        W79743  43.380  44.965  13.334
 7418W        W79744  38.168   9.725  11.129
 7419W        W79745  36.532  29.124   3.702
 7420W        W79746  10.370  38.903   0.282
 7421W        W79747  27.195  18.575  12.008
 7422W        W79748   7.959  36.579   1.346
 7423W        W79749  26.378  31.053   1.942
 7424W        W79750  44.247  42.406   1.256
 7425W        W79751  26.701  31.653   0.433
 7426W        W79752  38.093  33.726   1.417
 7427W        W79753  26.247   3.295   1.375
 7428W        W79754  33.708  43.594   2.762
 7429W        W79755  33.620  32.032   0.869
 7430W        W79756   3.514  33.607   1.748
 7431W        W79757  38.589  10.640  10.565
 7432W        W79758  36.867   7.643  13.993
 7433W        W79759  32.929  33.067   3.768
 7434W        W79760  18.311   4.823  11.079
 7435W        W79761  11.721  42.915  12.544
 7436W        W79762  30.677  29.227   3.053
 7437W        W79763  28.701  39.075   1.242
 7438W        W79764  19.228  37.526   0.944
 7439W        W79765  27.111  11.382   2.536
 7440W        W79766  44.866  35.700   1.128
 7441W        W79767  32.462  16.107   0.795
 7442W        W79768  22.671  26.115  12.403
 7443W        W79769  10.704  20.576  12.933
 7444W        W79770  28.192  18.069  12.891
 7445W        W79771  34.611   6.317  13.518
 7446W        W79772  15.195   0.774  12.105
 7447W        W79773  35.082  12.893   4.180
 7448W        W79774  32.515  23.502   0.226
 7449W        W79775  14.272  14.733   3.673
 7450W        W79776   8.243  36.029   4.588
 7451W        W79777  43.812   2.744  13.048
 7452W        W79778  38.379  42.573   1.813
 7453W        W79779  30.982  12.697  12.869
 7454W        W79780  10.817  43.889   3.617
 7455W        W79781  39.012   8.114   2.211
 7456W        W79782  12.801  29.991   4.249
 7457W        W79783  38.373  36.014  10.787
 7458W        W79784  29.892   8.201  12.939
 7459W        W79785  42.413  41.326   0.060
 7460W        W79786   2.933  27.400  14.461
 7461W        W79787  25.775  16.144  13.053
 7462W        W79788  37.876  31.651   0.920
 7463W        W79789  44.540  19.133   4.280
 7464W        W79790  34.518  14.579  14.769
 7465W        W79791  43.824  39.468   4.619
 7466W        W79792  16.642  14.382   1.427
 7467W        W79793  25.430  16.164   2.674
 7468W        W79794  22.160  43.541   1.721
 7469W        W79795   6.613  26.123  12.113
 7470W        W79796  37.120  29.611  14.344
 7471W        W79797   5.339  10.455   1.107
 7472W        W79798  27.980  28.914   1.938
 7473W        W79799  31.979  37.452  11.388
 7474W        W79800  25.924  26.089  12.663
 7475W        W79801  33.553  17.379  11.914
 7476W        W79802  19.918  25.036  12.611
 7477W        W79803  30.394  40.091  14.232
 7478W        W79804  44.356  37.131   1.404
 7479W        W79805  11.543   6.000   2.862
 7480W        W79806  18.284  38.255  14.828
 7481W        W79807  12.205   8.187  13.852
 7482W        W79808  10.888  29.899  11.530
 7483W        W79809  38.094  42.288   1.453
 7484W        W79810  37.882  32.546   1.831
 7485W        W79811   3.954  27.628  12.198
 7486W        W79812  35.463   3.386  12.050
 7487W        W79813  27.289   6.274   1.283
 7488W        W79814   8.394  42.734  14.409
 7489W        W79815  14.821  27.647  12.892
 7490W        W79816  44.424   2.408   1.266
 7491W        W79817  43.129  44.293  12.601
 7492W        W79818  14.271  10.272  10.722
 7493W        W79819  35.032  20.001   4.514
 7494W        W79820  26.733  41.070   1.033
 7495W        W79821   4.770  26.957  12.061
 7496W        W79822   3.459  40.233  10.468
 7497W        W79823  21.747   9.517   4.190
 7498W        W79824  15.717  42.467  13.489
 7499W        W79825  15.189  15.717   0.945
 7500W        W79826  13.707  13.983   1.770
 7501W        W79827  13.061   7.080   0.748
 7502W        W79828  43.204  22.333   2.766
 7503W        W79829   4.208   2.533   2.938
 7504W        W79830   3.091   3.423   4.374
 7505W        W79831  24.505  37.388   3.219
 7506W        W79832  12.788  37.954   1.908
 7507W        W79833  16.277  30.544   3.391
 7508W        W79834  37.897  13.741  13.535
 7509W        W79835   8.705  44.941  13.980
 7510W        W79836  10.643  10.263   1.369
 7511W        W79837  14.851  39.096  10.162
 7512W        W79838   6.848  11.221  12.888
 7513W        W79839   0.877  19.921   3.866
 7514W        W79840   5.119  33.795   4.908
 7515W        W79841  25.052  25.223  11.278
 7516W        W79842  12.817  19.555   2.101
 7517W        W79843  22.756  16.091  13.423
 7518W        W79844   3.607  19.795   4.562
 7519W        W79845   8.229  22.642   3.792
 7520W        W79846  21.475  26.301  14.396
 7521W        W79847  12.869  32.450   0.436
 7522W        W79848  15.165   0.458  13.013
 7523W        W79849  41.688  15.173   2.195
 7524W        W79850  13.601  38.548   0.839
 7525W        W79851  37.833  40.365  13.908
 7526W        W79852  25.362  14.318   1.224
 7527W        W79853   8.628  44.071   4.179
 7528W        W79854  30.757  17.071  12.573
 7529W        W79855  38.978  10.559  10.214
 7530W        W79856  14.172  35.095   4.103
 7531W        W79857  17.883  25.717   3.840
 7532W        W79858   3.001  14.139  10.782
 7533W        W79859   3.541  41.992   4.081
 7534W        W79860  36.050  42.372  11.891
 7535W        W79861  20.959  18.853  13.429
 7536W        W79862   0.000  20.745   1.771
 7537W        W79863  40.760  28.624  11.657
 7538W        W79864  31.245  33.354  13.504
 7539W        W79865  19.107  25.105  11.235
 7540W        W79866  24.000   7.939  12.429
 7541W        W79867  20.460  38.607   0.836
 7542W        W79868  29.954  18.861  13.465
 7543W        W79869   4.222  23.068   5.795
 7544W        W79870  10.002  29.417   3.886
 7545W        W79871  28.522  23.005  10.655
 7546W        W79872  23.512  16.533   3.717
 7547W        W79873  37.634  33.891   1.520
 7548W        W79874   1.995  19.178  12.257
 7549W        W79875  34.748   1.581   1.770
 7550W        W79876  11.785  36.012   4.117
 7551W        W79877  12.662  30.290  10.962
 7552W        W79878  36.281  26.497  13.060
 7553W        W79879  26.046  10.109   1.814
 7554W        W79880   5.346  15.303  10.418
 7555W        W79881   1.280   6.366  12.435
 7556W        W79882  42.622   9.667   1.395
 7557W        W79883  29.502  40.843   3.320
 7558W        W79884  44.974  19.075   1.858
 7559W        W79885   2.544   3.378   4.206
 7560W        W79886  13.879  13.907   3.133
 7561W        W79887  44.312   9.604  12.947
 7562W        W79888  10.248  20.620  14.429
 7563W        W79889  39.878  32.706   4.620
 7564W        W79890  28.261   9.049   1.034
 7565W        W79891   3.512  27.698   0.599
 7566W        W79892  40.498  33.412   4.772
 7567W        W79893   6.013  36.794   3.411
 7568W        W79894   8.584  17.205   0.920
 7569W        W79895   3.373   7.736  14.457
 7570W        W79896   9.323   4.446  11.693
 7571W        W79897  25.116   3.698  11.592
 7572W        W79898  14.670  26.688   2.376
 7573W        W79899  33.120  30.050   4.175
 7574W        W79900  11.629  20.140   4.423
 7575W        W79901  20.152   4.575   3.160
 7576W        W79902  11.810  39.852   1.057
 7577W        W79903   6.627   7.780   0.416
 7578W        W79904  41.925   5.756  10.758
 7579W        W79905  19.724   3.059   3.394
 7580W        W79906  30.980   5.268  11.420
 7581W        W79907  39.349   6.051   0.282
 7582W        W79908   6.774  11.811   3.265
 7583W        W79909  22.988  22.093  11.196
 7584W        W79910   3.538  11.490  11.936
 7585W        W79911   4.726   8.986   1.852
 7586W        W79912  17.213   9.747  13.653
 7587W        W79913   8.867  13.168   2.742
 7588W        W79914  23.238  15.142  11.971
 7589W        W79915  31.110  18.346   2.335
 7590W        W79916  39.384   4.450   2.203
 7591W        W79917  27.908  43.835  14.368
 7592W        W79918  19.333  29.364  10.981
 7593W        W79919  38.013  40.528  10.611
 7594W        W79920  23.594  15.666  14.255
 7595W        W79921   1.812  17.817  12.195
 7596W        W79922  10.861  40.499   2.411
 7597W        W79923   5.012  27.117  12.490
 7598W        W79924  44.573  42.848  11.277
 7599W        W79925  21.626  15.692   0.420
 7600W        W79926  42.160  44.271   3.664
 7601W        W79927  17.298  26.729  10.765
 7602W        W79928  22.735  33.901   4.205
 7603W        W79929  27.249  41.079   1.134
 7604W        W79930  31.493   4.402  11.933
 7605W        W79931  41.451   2.923  12.139
 7606W        W79932  28.883  43.223   3.638
 7607W        W79933  35.981  29.521   3.070
 7608W        W79934  27.317  41.596  10.156
 7609W        W79935   8.294   3.457  13.708
 7610W        W79936  22.125  31.892   0.476
 7611W        W79937  10.126  21.188  14.465
 7612W        W79938  11.235  26.540   9.952
 7613W        W79939  15.574  16.396   2.811
 7614W        W79940  14.589  28.082  13.729
 7615W        W79941  44.006   7.305   1.924
 7616W        W79942   2.756  35.098  12.967
 7617W        W79943  10.413  19.030  10.843
 7618W        W79944  21.123  19.063  11.276
 7619W        W79945  31.487  31.210  12.929
 7620W        W79946  11.384  17.309   2.923
 7621W        W79947  43.541  32.025   4.323
 7622W        W79948  24.061   8.769   1.399
 7623W        W79949  24.917  28.858   1.486
 7624W        W79950  28.863  42.948  12.034
 7625W        W79951   2.857  42.458  10.739
 7626W        W79952  38.288  42.848   2.594
 7627W        W79953  15.119   8.596   1.318
 7628W        W79954  35.368  32.095  13.850
 7629W        W79955  17.225   2.217  11.042
 7630W        W79956  10.620  31.875  11.566
 7631W        W79957  44.308  16.216  14.103
 7632W        W79958  29.710  36.612   1.330
 7633W        W79959  42.397   6.164   1.756
 7634W        W79960   6.860  13.871   4.705
 7635W        W79961  43.983  28.149   1.818
 7636W        W79962  40.450  41.691   1.922
 7637W        W79963  19.980   6.730   0.486
 7638W        W79964  26.191  34.449   3.607
 7639W        W79965   8.195  24.665  13.549
 7640W        W79966  30.151  24.435  12.371
 7641W        W79967  33.422  16.156   1.650
 7642W        W79968  14.225  38.442   3.696
 7643W        W79969  43.902  20.195  14.996
 7644W        W79970  17.591  39.783  12.857
 7645W        W79971  12.827  14.892   1.592
 7646W        W79972  34.843   9.199   3.671
 7647W        W79973  13.921   0.866   4.607
 7648W        W79974   1.877  23.128   1.619
 7649W        W79975  27.168  32.571   2.268
 7650W        W79976  32.633  22.957  14.295
 7651W        W79977  20.648  13.197   2.681
 7652W        W79978  19.119  32.689  11.673
 7653W        W79979  17.775  44.044  13.962
 7654W        W79980  26.140  22.093   2.577
 7655W        W79981  22.643  25.755   2.806
 7656W        W79982  21.907  24.556  11.366
 7657W        W79983  12.165  25.633   3.251
 7658W        W79984  25.269  16.635   0.058
 7659W        W79985  31.308  36.937   0.397
 7660W        W79986  23.507   6.699  10.742
 7661W        W79987  42.501  44.011   2.791
 7662W        W79988   3.801  13.303  12.629
 7663W        W79989   9.208  29.622   3.572
 7664W        W79990  26.668  25.426   2.395
 7665W        W79991  19.449  29.491  11.452
 7666W        W79992  32.015  10.142   4.183
 7667W        W79993  21.603  39.889   2.684
 7668W        W79994   7.488  27.635   3.736
 7669W        W79995  36.076  13.123  13.550
 7670W        W79996  35.637  16.557  10.585
 7671W        W79997  27.663  30.001   0.459
 7672W        W79998   4.967  41.086   1.722
 7673W        W79999  39.578  14.386   4.535
 7674W        W80000  42.923  23.254   3.142
 7675W        W80001  43.729  39.505  11.642
 7676W        W80002  18.692  40.829  13.047
 7677W        W80003  20.013  15.812   2.794
 7678W        W80004  29.652  35.383   2.261
 7679W        W80005  24.020   9.032   5.310
 7680W        W80006  27.115   4.431  13.116
 7681W        W80007  27.683   8.135   4.235
 7682W        W80008  38.464  43.541   3.728
 7683W        W80009  44.508  41.295   0.420
 7684W        W80010  31.434  40.484  10.964
 7685W        W80011   6.949  16.304  14.299
 7686W        W80012  19.703   3.229  10.675
 7687W        W80013  38.857  25.232   0.800
 7688W        W80014  41.560  18.734   2.377
 7689W        W80015  29.528  13.736   4.175
 7690W        W80016  40.458  36.297   1.586
 7691W        W80017   3.975   9.656   2.841
 7692W        W80018  18.648  30.512   4.269
 7693W        W80019  42.066   5.561   1.358
 7694W        W80020  26.053  25.565  12.625
 7695W        W80021  14.127  38.886  11.988
 7696W        W80022  40.575   7.311   1.957
 7697W        W80023  11.481  31.094  10.010
 7698W        W80024   8.367  25.768  11.110
 7699W        W80025   6.354   1.290   1.839
 7700W        W80026  39.848  13.330   1.948
 7701W        W80027  25.625   9.137   1.163
 7702W        W80028  10.920  23.539   1.282
 7703W        W80029  24.933  17.136  10.249
 7704W        W80030   0.812  30.849   2.618
 7705W        W80031  16.682  22.976  12.191
 7706W        W80032  15.697  21.555   3.976
 7707W        W80033  10.852  25.259   5.112
 7708W        W80034  24.622  25.106  11.559
 7709W        W80035  13.627  22.991   2.864
 7710W        W80036  36.557   2.845   4.814
 7711W        W80037  27.206  18.595  13.799
 7712W        W80038   5.199  38.388  14.812
 7713W        W80039  16.908  10.363  11.073
 7714W        W80040  27.902  19.258  14.337
 7715W        W80041   2.951  12.604  14.345
 7716W        W80042   4.094  41.638   1.261
 7717W        W80043  44.808  12.144   3.665
 7718W        W80044  31.892  31.135  11.623
 7719W        W80045  39.794  43.247  12.822
 7720W        W80046   2.692   9.652   3.040
 7721W        W80047  11.846  13.866   2.342
 7722W        W80048   2.180  18.149   0.454
 7723W        W80049  22.994  44.675  14.250
 7724W        W80050  28.605  34.404   3.169
 7725W        W80051  12.165   5.042   0.866
 7726W        W80052  37.153  25.042   2.465
 7727W        W80053  17.288  14.659   0.812
 7728W        W80054   7.743  12.702   3.401
 7729W        W80055   5.417  11.313  10.952
 7730W        W80056  40.636  42.322   2.875
 7731W        W80057  11.419   4.466   1.684
 7732W        W80058  42.348  27.255  13.798
 7733W        W80059  27.448  26.597   2.117
 7734W        W80060  23.644   6.706  13.563
 7735W        W80061   0.700   4.667   1.719
 7736W        W80062  36.567  40.497   1.694
 7737W        W80063   9.315  44.767  14.451
 7738W        W80064   5.694   4.256   4.984
 7739W        W80065  39.257  20.336  11.143
 7740W        W80066  13.969  13.126  13.844
 7741W        W80067  10.811   8.175   1.321
 7742W        W80068  24.965  33.060  14.825
 7743W        W80069  14.360   2.867  13.237
 7744W        W80070   8.862  17.818   2.857
 7745W        W80071  44.167  22.220  11.037
 7746W        W80072  33.583   8.818   2.561
 7747W        W80073  26.419  25.533   4.314
 7748W        W80074   1.267   9.588   3.555
 7749W        W80075  38.966  15.109   1.225
 7750W        W80076  39.139   4.883  12.484
 7751W        W80077  39.389  26.707  13.252
 7752W        W80078   9.924  40.038   3.194
 7753W        W80079   0.753  40.270   4.187
 7754W        W80080  29.728  24.158  14.585
 7755W        W80081  19.864  21.526  13.772
 7756W        W80082   5.697   3.155  12.127
 7757W        W80083  16.611  22.765   3.722
 7758W        W80084  40.123  31.938   4.062
 7759W        W80085   0.984   6.567   2.626
 7760W        W80086  41.867  22.022   3.174
 7761W        W80087  32.200  29.116  12.732
 7762W        W80088   2.375  14.653  11.444
 7763W        W80089  36.955  26.188   1.824
 7764W        W80090  19.545  24.053  11.447
 7765W        W80091   6.701  14.054  12.491
 7766W        W80092   8.624  31.517  11.948
 7767W        W80093   6.047   9.933   0.707
 7768W        W80094  29.621  44.012   3.135
 7769W        W80095  29.615   8.667  10.377
 7770W        W80096   9.773  20.629  10.720
 7771W        W80097  16.321  36.785   3.709
 7772W        W80098   0.779  14.852  10.506
 7773W        W80099  24.912  21.812   3.121
 7774W        W80100   0.005  17.343   3.094
 7775W        W80101  29.147  43.488   1.288
 7776W        W80102   4.369  11.040   1.506
 7777W        W80103  17.343  31.450   0.781
 7778W        W80104  20.105  25.597   1.627
 7779W        W80105  29.597  29.561  11.521
 7780W        W80106  42.364  44.631  10.713
 7781W        W80107  38.560  16.769  11.403
 7782W        W80108   1.532  39.505   0.339
 7783W        W80109   4.740  35.834   3.134
 7784W        W80110  14.351   5.917   1.850
 7785W        W80111   4.207  12.173   5.174
 7786W        W80112  26.844  36.176   3.341
 7787W        W80113  11.802  38.328  10.648
 7788W        W80114  21.046   1.223  14.796
 7789W        W80115  38.600  27.173  10.997
 7790W        W80116  21.190   2.258  11.212
 7791W        W80117  10.336  39.480  10.762
 7792W        W80118  28.018  29.136   3.858
 7793W        W80119  34.856   1.940   2.441
 7794W        W80120   0.731  39.899   0.257
 7795W        W80121  23.014   4.449  12.876
 7796W        W80122  36.934   0.967   3.658
 7797W        W80123  31.864  20.596   2.687
 7798W        W80124  27.804  22.300   2.776
 7799W        W80125   9.415   5.177  13.427
 7800W        W80126   0.989  12.267  12.630
 7801W        W80127  34.577  39.792  12.496
 7802W        W80128  42.385  24.828  13.416
 7803W        W80129  29.307   4.588  12.532
 7804W        W80130  16.579  44.338   1.436
 7805W        W80131  33.213  44.334   3.222
 7806W        W80132   8.204  11.764  13.220
 7807W        W80133  11.052  30.622   1.848
 7808W        W80134   9.583  38.021  14.510
 7809W        W80135  16.908  41.452   0.490
 7810W        W80136  22.045  31.956   1.849
 7811W        W80137  39.659  33.231  14.502
 7812W        W80138  20.882  31.092  14.884
 7813W        W80139  12.236  16.195   0.161
 7814W        W80140  41.913  19.731  12.454
 7815W        W80141   1.553  34.959   2.427
 7816W        W80142  12.118   4.307   3.809
 7817W        W80143  12.603   9.420   4.072
 7818W        W80144  34.081  25.001  13.332
 7819W        W80145  20.151   0.208  14.896
 7820W        W80146  24.817   9.146  13.607
 7821W        W80147   8.834  10.167   1.473
 7822W        W80148   9.730  24.443  10.682
 7823W        W80149  34.428  19.476  13.037
 7824W        W80150  26.452   5.422  12.317
 7825W        W80151   7.943  34.263   0.034
 7826W        W80152  43.322   6.319  10.778
 7827W        W80153  16.029  29.605  11.483
 7828W        W80154  16.907  33.987  10.721
 7829W        W80155  30.962  37.501  10.868
 7830W        W80156  22.809  38.882  11.082
 7831W        W80157  20.495  40.355  12.437
 7832W        W80158   0.628   2.947   2.722
 7833W        W80159  27.544  18.207  12.814
 7834W        W80160  43.978   6.923   0.781
 7835W        W80161  31.455  38.861  10.581
 7836W        W80162  33.471  39.896   3.424
 7837W        W80163  36.695   5.801   4.709
 7838W        W80164   0.883  37.648   1.733
 7839W        W80165  14.789   0.556  11.376
 7840W        W80166   0.386  19.120   0.309
 7841W        W80167  24.734   2.583   0.898
 7842W        W80168   0.949  41.391  14.646
 7843W        W80169  31.523  30.141   4.145
 7844W        W80170  21.083  10.390   4.139
 7845W        W80171  43.660  29.678  14.164
 7846W        W80172  17.632  23.135   0.325
 7847W        W80173  12.060  31.431   0.875
 7848W        W80174  15.470  21.465   2.628
 7849W        W80175  20.104   5.653   3.145
 7850W        W80176  14.612  34.844   3.249
 7851W        W80177  29.574  37.274   3.567
 7852W        W80178  10.278  32.635  11.889
 7853W        W80179   2.165  18.290   3.407
 7854W        W80180   1.887  31.466   0.404
 7855W        W80181  38.935   3.309   2.558
 7856W        W80182  25.612  44.426   4.524
 7857W        W80183   2.823  12.797   4.165
 7858W        W80184   6.919  14.285   1.883
 7859W        W80185   9.626   6.968  11.147
 7860W        W80186  35.472  41.456  11.430
 7861W        W80187  40.913  31.180  12.918
 7862W        W80188  28.607   2.355   0.808
 7863W        W80189   8.467  16.547   4.130
 7864W        W80190  44.974  32.206   1.275
 7865W        W80191  39.763   9.321  12.743
 7866W        W80192  14.262  24.279   3.711
 7867W        W80193  24.728  14.166  11.577
 7868W        W80194  11.205  18.051   3.773
 7869W        W80195  26.644  37.428   3.326
 7870W        W80196  25.006  20.224   1.338
 7871W        W80197  38.091  16.718   1.465
 7872W        W80198  43.051   1.001  11.043
 7873W        W80199  28.098  41.242   1.677
 7874W        W80200  18.208  21.777   2.491
 7875W        W80201  40.447  27.455  10.737
 7876W        W80202  17.151   0.232  13.087
 7877W        W80203   8.204  19.214  10.958
 7878W        W80204  30.885   6.197  11.539
 7879W        W80205  25.293   6.672  11.160
 7880W        W80206   3.034  37.143   3.304
 7881W        W80207  37.529   4.064  10.382
 7882W        W80208  18.623  13.775   0.460
 7883W        W80209  21.301  41.763   0.213
 7884W        W80210  11.900  31.980  10.184
 7885W        W80211  41.595   6.120   2.690
 7886W        W80212  14.497  43.816   0.610
 7887W        W80213   0.527  18.804   0.680
 7888W        W80214  23.257  16.038  10.621
 7889W        W80215   6.714  39.244   3.278
 7890W        W80216   7.470   6.380   3.134
 7891W        W80217  24.674  35.812  12.965
 7892W        W80218  17.156   3.357   0.396
 7893W        W80219  24.176  17.070   1.842
 7894W        W80220  42.872  22.955   4.225
 7895W        W80221  13.369  22.997   0.190
 7896W        W80222  21.605  38.731   3.053
 7897W        W80223  20.950  32.413   4.203
 7898W        W80224   9.444  28.123  11.363
 7899W        W80225   7.238   4.643  13.463
 7900W        W80226  19.033  14.331   2.416
 7901W        W80227  43.530  27.645   1.046
 7902W        W80228  30.924  12.732  10.656
 7903W        W80229  16.979  16.271  13.484
 7904W        W80230  38.472   6.838   4.104
 7905W        W80231  13.891   4.265  13.289
 7906W        W80232  24.098  14.155  10.980
 7907W        W80233   8.484   9.242   1.090
 7908W        W80234  36.886  16.060   2.739
 7909W        W80235   8.718   7.380   4.127
 7910W        W80236  42.605  28.979  12.020
 7911W        W80237  13.806  12.609  10.661
 7912W        W80238  17.103   3.371  11.668
 7913W        W80239   8.640  10.696  11.515
 7914W        W80240  41.751  44.208   1.173
 7915W        W80241  24.664   0.040  11.524
 7916W        W80242   7.932  41.058  13.991
 7917W        W80243  36.179  20.775  10.663
 7918W        W80244  13.785  10.084  10.748
 7919W        W80245  21.344  20.648   3.311
 7920W        W80246  31.626  28.146  12.936
 7921W        W80247  33.045   6.567   1.285
 7922W        W80248  21.026  10.205  13.822
 7923W        W80249   0.448  38.637   2.416
 7924W        W80250  17.310  37.736  13.885
 7925W        W80251  30.426  21.282  11.741
 7926W        W80252  30.700  31.523  10.577
 7927W        W80253  32.010  21.461   0.787
 7928W        W80254  29.581  19.564   1.839
 7929W        W80255   8.645  39.369  14.873
 7930W        W80256  10.676  37.828   3.151
 7931W        W80257  36.062  20.094  13.544
 7932W        W80258  21.365  26.791   4.163
 7933W        W80259   4.485  44.202  13.052
 7934W        W80260  22.031  19.715   1.474
 7935W        W80261  10.247  12.006  14.814
 7936W        W80262  33.019  24.872   2.851
 7937W        W80263   0.514  12.538  11.949
 7938W        W80264  36.916  34.396   1.278
 7939W        W80265  38.108   8.807   2.351
 7940W        W80266   8.346  36.593   0.976
 7941W        W80267   7.426  20.261   1.701
 7942W        W80268   1.534  13.065  11.135
 7943W        W80269  12.475   7.043   2.164
 7944W        W80270  41.254  24.384  12.924
 7945W        W80271  32.532  40.308   4.068
 7946W        W80272  32.228  13.450   0.733
 7947W        W80273  39.028  24.283  12.503
 7948W        W80274  31.194  24.011   1.489
 7949W        W80275  22.281  11.063   1.351
 7950W        W80276  18.888   7.294   2.629
 7951W        W80277  29.487  40.936   2.327
 7952W        W80278   9.168  41.957  13.859
 7953W        W80279  11.654  14.109   0.064
 7954W        W80280  43.850  40.640   0.422
 7955W        W80281   3.284  31.727   0.747
 7956W        W80282  23.071  15.893  12.454
 7957W        W80283  35.737  12.636  12.464
 7958W        W80284  20.316  33.996   2.948
 7959W        W80285  20.502  11.335   4.536
 7960W        W80286  19.539   3.338   0.015
 7961W        W80287  12.465  15.224  14.871
 7962W        W80288  26.472   1.132  14.759
 7963W        W80289  25.906   3.834   4.449
 7964W        W80290  31.845  25.809   0.424
 7965W        W80291   2.541   5.998  11.043
 7966W        W80292   3.734  24.983  13.995
 7967W        W80293  26.553  15.994   9.658
 7968W        W80294   6.913  37.850   1.420
 7969W        W80295   1.277  10.771   2.653
 7970W        W80296  23.958  40.246   3.454
 7971W        W80297  33.959  28.479  13.938
 7972W        W80298  15.190  12.677  11.440
 7973W        W80299   5.159  20.887   2.454
 7974W        W80300  16.623  22.510  10.382
 7975W        W80301  44.465   0.354  10.422
 7976W        W80302  27.224  40.983  10.436
 7977W        W80303  26.327  36.121   3.432
 7978W        W80304  26.060  40.778  14.061
 7979W        W80305  24.277  12.021   4.248
 7980W        W80306  31.935   9.286  12.471
 7981W        W80307  22.254  33.878  13.981
 7982W        W80308  22.510  30.555   1.219
 7983W        W80309  15.868  16.886  13.105
 7984W        W80310  18.611  28.598   3.341
 7985W        W80311  39.759   8.990   2.937
 7986W        W80312  36.127  37.497   4.098
 7987W        W80313   9.579  23.471   0.252
 7988W        W80314  14.392  28.496  13.492
 7989W        W80315  31.514  10.141  11.510
 7990W        W80316  13.910  31.613   4.933
 7991W        W80317   3.227  15.788  10.656
 7992W        W80318  27.899   1.059  11.197
 7993W        W80319  22.964   8.428   3.719
 7994W        W80320   9.436  21.399  11.362
 7995W        W80321  34.518  29.426  11.989
 7996W        W80322  24.021  35.807   2.177
 7997W        W80323  12.243   6.607   4.170
 7998W        W80324  26.510  32.046  13.636
 7999W        W80325  28.744  24.722  12.522
 8000W        W80326  36.798  27.531   2.653
 8001W        W80327  43.383  28.349  14.813
 8002W        W80328  18.946  24.278  12.140
 8003W        W80329  36.881  22.848  14.576
 8004W        W80330  33.516  16.808  11.139
 8005W        W80331  36.608   2.836   3.321
 8006W        W80332   7.136  44.941  14.029
 8007W        W80333  11.695  11.383   4.607
 8008W        W80334  44.770  17.050  12.499
 8009W        W80335  32.524  40.196   1.846
 8010W        W80336  17.723   7.612   2.470
 8011W        W80337  26.384   3.480  13.427
 8012W        W80338  43.312   1.490  11.135
 8013W        W80339  23.099  30.013   4.165
 8014W        W80340   6.808  24.886  14.858
 8015W        W80341  11.867  37.586   0.254
 8016W        W80342  16.778  11.116  11.948
 8017W        W80343   4.708  23.531  13.128
 8018W        W80344   3.268  24.143  14.114
 8019W        W80345   9.638  18.469   1.719
 8020W        W80346  29.117  43.188  12.962
 8021W        W80347   9.154  40.661  13.081
 8022W        W80348   2.806  29.615  11.450
 8023W        W80349  43.038   5.185   2.257
 8024W        W80350  44.792  20.846   3.722
 8025W        W80351  38.571  30.059   1.012
 8026W        W80352   6.663  43.194   1.851
 8027W        W80353  31.018  27.492   4.187
 8028W        W80354  33.908   3.492  14.268
 8029W        W80355  23.182   9.360   0.255
 8030W        W80356  37.565  41.781  14.891
 8031W        W80357  32.913  24.022  11.927
 8032W        W80358   0.791  35.750   0.678
 8033W        W80359  21.695  36.925  14.463
 8034W        W80360   6.390  17.211   4.137
 8035W        W80361  18.578  10.732   4.601
 8036W        W80362   2.004  11.558   0.716
 8037W        W80363  34.664  22.590   2.210
 8038W        W80364  23.479   4.908  14.926
 8039W        W80365  40.070  11.515  14.538
 8040W        W80366  34.539  35.989  13.135
 8041W        W80367  28.701  24.376   4.008
 8042W        W80368   4.227  25.237  10.539
 8043W        W80369  17.781   4.821  11.896
 8044W        W80370  44.911  41.238  12.454
 8045W        W80371   3.758  42.210   3.665
 8046W        W80372  31.156   8.742  12.069
 8047W        W80373  24.666  10.884  14.055
 8048W        W80374  33.582  20.648   4.417
 8049W        W80375  35.598  13.034  13.370
 8050W        W80376   2.444  33.792   3.090
 8051W        W80377  22.278  36.292  14.387
 8052W        W80378   9.898   8.383   0.358
 8053W        W80379  34.405  18.632   4.274
 8054W        W80380  18.121  40.465   1.935
 8055W        W80381  26.596   9.594  12.939
 8056W        W80382   9.584  36.766  14.525
 8057W        W80383  24.600  38.842  10.653
 8058W        W80384  42.279  12.249   3.319
 8059W        W80385   7.256  23.035   4.125
 8060W        W80386   8.713   0.302   1.829
 8061W        W80387  26.221  17.329  13.600
 8062W        W80388   7.760   6.803  13.942
 8063W        W80389  18.120  15.394   2.406
 8064W        W80390  18.142  33.031  11.129
 8065W        W80391  38.068   3.946   2.739
 8066W        W80392  10.391  20.695   3.707
 8067W        W80393   2.742   2.213  14.391
 8068W        W80394  41.543  20.970   4.938
 8069W        W80395  15.172  38.320  13.085
 8070W        W80396  13.227  15.585   2.002
 8071W        W80397  19.101  18.387  13.329
 8072W        W80398  27.484  43.525  13.438
 8073W        W80399  26.227  19.275   0.308
 8074W        W80400  23.676  20.003   3.646
 8075W        W80401  34.979  39.313  12.055
 8076W        W80402   2.837  23.758   3.650
 8077W        W80403  44.022  44.005  10.526
 8078W        W80404   8.348   8.611   3.590
 8079W        W80405  14.854  30.458   2.297
 8080W        W80406  31.487  37.650   1.251
 8081W        W80407   5.196  15.350  13.693
 8082W        W80408  29.374  42.951  11.988
 8083W        W80409  33.024  24.695   0.815
 8084W        W80410  35.394  32.678   3.769
 8085W        W80411  29.189  44.814   0.869
 8086W        W80412  37.492  19.817  12.893
 8087W        W80413  31.122   5.771  10.688
 8088W        W80414  40.255   7.272  11.727
 8089W        W80415   7.016  37.372   0.395
 8090W        W80416  33.664  22.743   2.250
 8091W        W80417  24.894   5.554   1.058
 8092W        W80418   7.542   3.243   1.135
 8093W        W80419  16.716   1.337   0.004
 8094W        W80420  16.051  44.031  14.708
 8095W        W80421  42.860  23.330   1.232
 8096W        W80422  28.568   0.853   3.457
 8097W        W80423  34.333  36.640  11.543
 8098W        W80424   4.755   9.872   0.945
 8099W        W80425  17.540  28.744  13.111
 8100W        W80426   3.172  28.469   1.017
 8101W        W80427  28.123  26.058  11.243
 8102W        W80428  35.373  30.188   3.035
 8103W        W80429   6.503  36.661   3.270
 8104W        W80430  21.600  18.823   1.701
 8105W        W80431  18.592  28.988  14.898
 8106W        W80432  21.278   2.480   1.958
 8107W        W80433   0.378  15.585  13.407
 8108W        W80434  11.017  35.131   5.565
 8109W        W80435   3.820  28.989  13.779
 8110W        W80436  43.752  12.604   3.738
 8111W        W80437  30.083  22.838   0.163
 8112W        W80438   7.891  22.144  12.811
 8113W        W80439  44.745  12.130  13.594
 8114W        W80440  12.790  22.002   5.060
 8115W        W80441   1.470   8.811   0.856
 8116W        W80442  42.045  18.262   0.316
 8117W        W80443   3.615   3.548   4.237
 8118W        W80444  44.303  39.993  14.635
 8119W        W80445   7.207  35.095  14.950
 8120W        W80446  29.454  40.574   0.989
 8121W        W80447   2.205  29.634   3.538
 8122W        W80448   1.898  26.896  13.833
 8123W        W80449  11.947  44.872   1.536
 8124W        W80450  40.586   8.984   4.003
 8125W        W80451  33.947  31.623   3.339
 8126W        W80452  43.908  30.650  11.210
 8127W        W80453  26.516  26.068   1.492
 8128W        W80454  41.989  20.578  11.520
 8129W        W80455  22.229  38.837   0.681
 8130W        W80456  15.913  34.961   3.751
 8131W        W80457  25.396  34.043   4.810
 8132W        W80458  14.702  13.651   2.594
 8133W        W80459  42.537  11.863  12.597
 8134W        W80460  37.558  38.447   3.798
 8135W        W80461  44.486  26.526  13.148
 8136W        W80462  37.480  26.702   2.381
 8137W        W80463  24.577  17.637   1.308
 8138W        W80464  19.328  24.048  13.400
 8139W        W80465  35.308  42.410  14.154
 8140W        W80466  38.178  15.527  11.547
 8141W        W80467  34.402  16.728   4.414
 8142W        W80468   6.037  36.717   5.081
 8143W        W80469  16.081  29.943  13.547
 8144W        W80470  40.568  44.996   2.957
 8145W        W80471  28.721  17.244   2.731
 8146W        W80472  29.530  32.233   1.362
 8147W        W80473  41.837  14.281   5.178
 8148W        W80474   0.724  35.315   2.644
 8149W        W80475   8.468  40.091   4.274
 8150W        W80476  15.549  28.914   1.024
 8151W        W80477  25.005  40.440  14.810
 8152W        W80478  43.482  15.826  14.325
 8153W        W80479  41.472  16.556   3.703
 8154W        W80480   2.842  39.812   4.137
 8155W        W80481  35.415  32.965  13.798
 8156W        W80482  25.479   6.605   4.039
 8157W        W80483  10.991  25.898   4.309
 8158W        W80484   2.180  11.128   4.675
 8159W        W80485   8.839   5.737  12.480
 8160W        W80486  28.454  24.253   2.636
 8161W        W80487  41.334  26.152   2.580
 8162W        W80488   4.896  28.264  11.415
 8163W        W80489  29.632  34.671  12.622
 8164W        W80490  42.748  20.749   1.396
 8165W        W80491  35.861  41.877   3.652
 8166W        W80492   3.926  24.627  11.625
 8167W        W80493   1.051  40.326   4.598
 8168W        W80494  41.442  39.265   1.852
 8169W        W80495  25.006  29.718   2.270
 8170W        W80496  22.988  25.934  10.891
 8171W        W80497  26.981  12.168   0.211
 8172W        W80498  18.325  38.424   1.290
 8173W        W80499   2.291  14.240  14.749
 8174W        W80500  11.147  14.612  13.831
 8175W        W80501  23.466  11.666   2.317
 8176W        W80502   4.135  18.258   4.851
 8177W        W80503  18.105   8.461   2.297
 8178W        W80504   7.788   0.275  12.150
 8179W        W80505  42.420  34.855   4.610
 8180W        W80506  44.840  38.864  14.885
 8181W        W80507  30.721  22.417   0.852
 8182W        W80508   4.420   4.945   0.850
 8183W        W80509   1.689  18.994  11.115
 8184W        W80510  37.087  14.603  14.379
 8185W        W80511  44.234  16.672   3.234
 8186W        W80512  33.886   1.528  10.449
 8187W        W80513  15.772  37.226   2.667
 8188W        W80514  10.925  43.795  11.243
 8189W        W80515  38.826  33.985   5.029
 8190W        W80516  23.548  42.812  13.909
 8191W        W80517  11.533   1.566  14.735
 8192W        W80518  41.095  35.812  14.954
 8193W        W80519  14.316  16.229   4.077
 8194W        W80520   4.485   6.425  12.325
 8195W        W80521  37.544  43.375   2.774
 8196W        W80522  29.403  41.893   1.789
 8197W        W80523  37.525  29.151  11.394
 8198W        W80524   2.105  44.411  12.375
 8199W        W80525   5.596  23.278  14.598
 8200W        W80526  22.639  19.337  13.973
 8201W        W80527  35.837  26.729   0.762
 8202W        W80528  13.699  36.567   0.828
 8203W        W80529   9.602  22.101   0.286
 8204W        W80530  31.462   6.178  10.664
 8205W        W80531  17.896  44.297   2.316
 8206W        W80532  42.522  32.688   2.351
 8207W        W80533  13.240  29.245   3.242
 8208W        W80534  22.378  41.702  13.064
 8209W        W80535  43.297  44.529  13.038
 8210W        W80536   5.381  36.031   2.665
 8211W        W80537  28.621  25.722  10.111
 8212W        W80538   6.173  11.807   1.737
 8213W        W80539   5.783   1.230  10.672
 8214W        W80540  35.077  27.482  11.590
 8215W        W80541  22.573   0.554   2.954
 8216W        W80542  10.599   4.461   2.793
 8217W        W80543  38.740   0.937  14.097
 8218W        W80544   1.024  32.833   0.527
 8219W        W80545  21.094  36.593  12.064
 8220W        W80546  14.936   4.418   0.959
 8221W        W80547  20.754   7.413  13.434
 8222W        W80548  30.939  18.832  13.698
 8223W        W80549   5.963   7.394  11.119
 8224W        W80550  28.253  33.138  10.475
 8225W        W80551  14.623  11.673  10.575
 8226W        W80552  39.630  28.623  12.806
 8227W        W80553  37.610  17.018  12.299
 8228W        W80554  36.618  10.296   3.984
 8229W        W80555  33.668   1.707  13.464
 8230W        W80556  14.357  27.171  14.539
 8231W        W80557   6.715  20.189   0.210
 8232W        W80558  20.624  10.616  13.181
 8233W        W80559  15.518  37.394  10.317
 8234W        W80560  10.865  24.501   2.737
 8235W        W80561  39.770   6.972   4.510
 8236W        W80562  12.126  25.048  13.956
 8237W        W80563  41.929  27.433  12.444
 8238W        W80564   0.578   5.042  10.289
 8239W        W80565  18.785  26.641   9.764
 8240W        W80566  16.318  38.377  14.371
 8241W        W80567  39.479   0.407   2.714
 8242W        W80568  27.540  36.943   0.418
 8243W        W80569  37.928   9.855  13.502
 8244W        W80570  28.456  33.576   2.883
 8245W        W80571  36.363  27.127   3.053
 8246W        W80572  40.058   2.226   2.301
 8247W        W80573  22.236  11.838   0.668
 8248W        W80574  14.549   5.055  11.149
 8249W        W80575  15.352  31.332  11.420
 8250W        W80576  26.745  30.398  13.828
 8251W        W80577  27.215  29.474  10.651
 8252W        W80578  17.273  14.512   4.320
 8253W        W80579  41.567  18.347   4.542
 8254W        W80580   7.743  11.740   0.229
 8255W        W80581  25.713   3.547   5.166
 8256W        W80582  11.390  24.705  13.602
 8257W        W80583  33.607  36.951   2.434
 8258W        W80584  29.595  37.202  11.516
 8259W        W80585   2.259  18.708  14.868
 8260W        W80586  39.997  10.600  12.959
 8261W        W80587   1.446   1.916   2.669
 8262W        W80588  36.785   3.329   3.721
 8263W        W80589  16.625  35.321  13.753
 8264W        W80590   4.288   4.926  10.471
 8265W        W80591   9.806  32.121   3.420
 8266W        W80592  37.799  18.676  13.354
 8267W        W80593  33.932  40.257  12.035
 8268W        W80594  30.363  44.824   3.880
 8269W        W80595  15.211   5.487  10.711
 8270W        W80596  11.186  25.603   3.334
 8271W        W80597  26.999   9.646   0.959
 8272W        W80598  33.061  43.554   0.337
 8273W        W80599   7.886  26.065   0.364
 8274W        W80600  44.292  35.921   0.388
 8275W        W80601   0.318  42.173  13.177
 8276W        W80602  35.080  12.932   0.754
 8277W        W80603  10.778  19.381   0.355
 8278W        W80604  34.286  34.558  13.889
 8279W        W80605  19.732  24.451  10.689
 8280W        W80606  35.922  16.423  12.640
 8281W        W80607  10.830  20.541  10.698
 8282W        W80608   6.021  12.101  12.047
 8283W        W80609  44.816  12.224  13.017
 8284W        W80610  16.210  19.801   5.059
 8285W        W80611  15.176   4.979  10.819
 8286W        W80612  32.871   6.724  13.553
 8287W        W80613  16.586  16.275   4.030
 8288W        W80614   4.666  39.376  14.915
 8289W        W80615  22.820  15.444  12.856
 8290W        W80616  19.942  15.768  14.978
 8291W        W80617  10.835  15.169   1.697
 8292W        W80618  14.449  24.801   2.924
 8293W        W80619   7.828  42.846   3.226
 8294W        W80620  28.967  41.460   1.192
 8295W        W80621  37.803  22.766  11.486
 8296W        W80622   8.811   0.062   4.247
 8297W        W80623  11.658  38.799   0.749
 8298W        W80624  15.675  35.920   2.851
 8299W        W80625  27.497   7.103   4.330
 8300W        W80626   4.298  37.445  12.182
 8301W        W80627  26.448  12.327  14.465
 8302W        W80628   1.851  16.688  14.086
 8303W        W80629  25.118  39.035   0.795
 8304W        W80630   2.167   9.600  11.307
 8305W        W80631  15.626  16.298   2.290
 8306W        W80632   1.694  38.154  11.102
 8307W        W80633  32.053  16.121  14.420
 8308W        W80634  35.128  28.503   4.250
 8309W        W80635  35.996  34.000  14.791
 8310W        W80636  20.646  38.289   1.236
 8311W        W80637   4.381  32.585   2.066
 8312W        W80638  41.521  33.403   0.361
 8313W        W80639  16.388  12.849   4.166
 8314W        W80640  32.772  34.536   5.493
 8315W        W80641  36.591   9.798   0.350
 8316W        W80642  26.143  12.859  11.958
 8317W        W80643  41.087  40.470   4.231
 8318W        W80644  37.916  44.286   2.502
 8319W        W80645  13.072  10.139  14.837
 8320W        W80646  25.026   9.163  12.375
 8321W        W80647  32.870  27.020  13.401
 8322W        W80648  21.136  39.129   2.579
 8323W        W80649  20.658   4.229  11.115
 8324W        W80650  24.960  23.903   0.853
 8325W        W80651  15.159  36.458   3.788
 8326W        W80652  35.339   7.846  14.805
 8327W        W80653   4.258  12.998   0.868
 8328W        W80654   5.960  39.933   4.144
 8329W        W80655  24.900  30.209   2.150
 8330W        W80656  17.552  34.380   4.008
 8331W        W80657   2.907  36.554  12.065
 8332W        W80658  26.586  39.945  13.172
 8333W        W80659   8.859  33.074   2.218
 8334W        W80660  35.512   8.471  13.975
 8335W        W80661   2.422  43.592  13.240
 8336W        W80662  36.103  24.528   1.771
 8337W        W80663  33.204   3.129  14.719
 8338W        W80664  25.160  29.200  11.079
 8339W        W80665  19.993  19.770   3.341
 8340W        W80666  31.014  36.806   2.730
 8341W        W80667  39.083  14.628   0.341
 8342W        W80668  28.270  39.158   5.059
 8343W        W80669   9.127  14.972   3.937
 8344W        W80670  29.383  34.959   2.413
 8345W        W80671  26.150   4.447   2.122
 8346W        W80672  41.029   5.061   3.116
 8347W        W80673  27.317  14.135   2.202
 8348W        W80674   4.238  35.094   1.822
 8349W        W80675  11.714   4.653  13.905
 8350W        W80676   0.852  43.596  12.071
 8351W        W80677   4.260   9.796  12.485
 8352W        W80678  42.984  11.125   2.842
 8353W        W80679   1.676   1.090   4.838
 8354W        W80680   5.027  19.595   9.850
 8355W        W80681  30.713   2.641   4.163
 8356W        W80682  35.316  41.993  11.125
 8357W        W80683  36.457  34.620  12.365
 8358W        W80684  18.008  41.341   1.845
 8359W        W80685  24.922  37.426   2.916
 8360W        W80686   1.975  35.481  12.353
 8361W        W80687  16.732  29.512   0.999
 8362W        W80688  14.755  17.131  10.856
 8363W        W80689  43.458  41.229  10.991
 8364W        W80690  44.895  43.523   1.827
 8365W        W80691  13.345   2.593  11.989
 8366W        W80692  31.597   8.351  11.663
 8367W        W80693  26.107   4.548   1.268
 8368W        W80694   3.860   5.393  12.182
 8369W        W80695  34.770  38.391  14.463
 8370W        W80696  20.745  34.355  12.612
 8371W        W80697  25.592  10.751   3.360
 8372W        W80698  17.195   2.196   0.319
 8373W        W80699  22.508  13.119   2.966
 8374W        W80700   7.214   4.347   4.521
 8375W        W80701  22.779   6.836  14.035
 8376W        W80702   3.553  33.031  11.679
 8377W        W80703  12.087   9.579   2.561
 8378W        W80704  11.223  19.333  12.599
 8379W        W80705   6.354  37.030   3.718
 8380W        W80706   3.173  32.772   0.788
 8381W        W80707   8.363  30.060   2.633
 8382W        W80708  12.792  23.560   3.537
 8383W        W80709  43.977  20.744   3.403
 8384W        W80710  24.637   9.803  12.565
 8385W        W80711   3.722  27.107   1.791
 8386W        W80712  36.532  43.257   2.128
 8387W        W80713  36.856  14.738   2.016
 8388W        W80714  39.977  11.100   2.202
 8389W        W80715   7.773   0.441   0.368
 8390W        W80716  22.819  12.771  14.017
 8391W        W80717  17.114  35.899   2.627
 8392W        W80718  33.059  37.873  10.598
 8393W        W80719  12.581   9.301  11.529
 8394W        W80720  15.135  32.817  11.313
 8395W        W80721  40.516  26.473  12.883
 8396W        W80722  20.009  27.112  10.684
 8397W        W80723  26.945  12.676   1.439
 8398W        W80724  21.137  38.012   3.295
 8399W        W80725  22.525   8.257  12.630
 8400W        W80726  21.242  11.054   2.315
 8401W        W80727  14.858  32.429  11.145
 8402W        W80728   2.943  43.893   0.353
 8403W        W80729   2.737  13.752  12.917
 8404W        W80730  40.532  14.362  12.431
 8405W        W80731  23.172  28.541  12.455
 8406W        W80732  14.189   6.287   1.502
 8407W        W80733  32.191  39.353  10.676
 8408W        W80734  18.067  27.701   3.159
 8409W        W80735  44.328  43.394   4.057
 8410W        W80736  26.219  38.608   2.361
 8411W        W80737  27.659  44.293  11.737
 8412W        W80738  43.156   7.456   2.177
 8413W        W80739  42.777  44.599   0.261
 8414W        W80740   0.415  24.457  13.827
 8415W        W80741  43.342  32.681  10.902
 8416W        W80742   6.692  21.823   4.050
 8417W        W80743  22.030  19.759  12.828
 8418W        W80744  15.740  27.966   0.958
 8419W        W80745  42.338  12.567  10.753
 8420W        W80746   6.108   0.325   1.966
 8421W        W80747  32.776  22.160   0.287
 8422W        W80748  34.452  22.528   3.664
 8423W        W80749  38.047  37.087   1.028
 8424W        W80750  10.199  41.000   4.095
 8425W        W80751  20.296  34.900   4.581
 8426W        W80752  28.655  31.140  12.839
 8427W        W80753  16.100  42.620  11.979
 8428W        W80754  12.079  41.550   4.156
 8429W        W80755   2.818   6.799  11.190
 8430W        W80756  31.411  23.863  11.188
 8431W        W80757  34.864  23.026  11.738
 8432W        W80758  13.001  27.107  11.862
 8433W        W80759  34.168   6.919  11.570
 8434W        W80760   9.428  29.833  10.760
 8435W        W80761  38.845  32.469  12.839
 8436W        W80762  22.434  12.680   1.698
 8437W        W80763  21.828  19.243   3.568
 8438W        W80764  20.204  30.305  12.071
 8439W        W80765  10.339  42.175   4.614
 8440W        W80766   0.706   8.708   4.152
 8441W        W80767  28.051  14.036   4.647
 8442W        W80768   8.808  26.495  10.144
 8443W        W80769   6.663  32.609  12.872
 8444W        W80770   8.421   4.425   3.240
 8445W        W80771  20.735  12.258  12.495
 8446W        W80772  38.535  14.544  14.967
 8447W        W80773  44.251  28.911   2.286
 8448W        W80774  27.052  25.289  11.060
 8449W        W80775  24.050  36.428  10.658
 8450W        W80776  26.085  25.426  11.099
 8451W        W80777  42.354   2.482  14.873
 8452W        W80778  16.997   6.772   1.181
 8453W        W80779   6.073  18.779   4.064
 8454W        W80780  19.044  33.407   5.059
 8455W        W80781   0.237   0.362  12.162
 8456W        W80782   8.151  36.602   4.254
 8457W        W80783  10.132  18.192  11.220
 8458W        W80784  15.818  20.214  13.093
 8459W        W80785  15.267   4.216   1.310
 8460W        W80786  27.197  41.994   0.966
 8461W        W80787  42.182  39.609  11.417
 8462W        W80788  12.297  38.402  13.580
 8463W        W80789  36.455   7.277   4.765
 8464W        W80790  39.394  22.713  12.440
 8465W        W80791   9.709  21.664  10.583
 8466W        W80792  14.781   7.805  12.511
 8467W        W80793  16.183  41.424   5.005
 8468W        W80794   3.184   5.159  11.576
 8469W        W80795  43.518  26.935   3.756
 8470W        W80796  30.674  25.104   4.537
 8471W        W80797  16.837  11.269  13.737
 8472W        W80798   9.424   7.285   2.758
 8473W        W80799  14.342  23.113  10.725
 8474W        W80800  38.078  15.534   2.250
 8475W        W80801   1.756  19.457   3.116
 8476W        W80802  28.943  32.856   0.974
 8477W        W80803  43.271   0.544   3.715
 8478W        W80804  40.989   1.962   2.186
 8479W        W80805  44.990  29.159  14.393
 8480W        W80806  10.070  12.657  12.149
 8481W        W80807  12.437  38.595   4.813
 8482W        W80808  21.096  42.810   2.957
 8483W        W80809  12.856  25.944  13.287
 8484W        W80810  44.844  18.625   1.653
 8485W        W80811  25.414  27.482   2.449
 8486W        W80812  19.340  10.523  12.304
 8487W        W80813  23.548  41.326  13.354
 8488W        W80814  17.920  16.307   3.996
 8489W        W80815  27.448  36.490   2.221
 8490W        W80816  10.152  41.046  13.549
 8491W        W80817  35.677  21.029   0.440
 8492W        W80818  30.147   3.791  11.156
 8493W        W80819   5.348   3.557  12.341
 8494W        W80820  26.632  12.514  10.123
 8495W        W80821  32.158   0.860   2.187
 8496W        W80822  11.782   3.819   2.629
 8497W        W80823   7.805  43.008  13.133
 8498W        W80824  43.905  30.140   2.847
 8499W        W80825  38.884  22.643  12.425
 8500W        W80826  18.753  42.286  11.140
 8501W        W80827   2.782  31.989   4.763
 8502W        W80828   9.371  39.950   2.215
 8503W        W80829  24.056   0.469  14.556
 8504W        W80830  34.121   4.138  13.766
 8505W        W80831  23.043   7.775  13.770
 8506W        W80832   1.688  16.214  13.546
 8507W        W80833  22.604  18.553  14.291
 8508W        W80834  37.617  28.808  12.886
 8509W        W80835  26.205  18.575  11.855
 8510W        W80836  26.601   5.979  10.700
 8511W        W80837  10.172   8.702  10.643
 8512W        W80838  28.131  29.462  14.208
 8513W        W80839   2.746  36.911   0.427
 8514W        W80840  25.949   1.654   1.705
 8515W        W80841  43.237  10.730   3.726
 8516W        W80842  17.715  21.708  14.962
 8517W        W80843  26.569  16.460  14.853
 8518W        W80844  37.467  22.709  12.206
 8519W        W80845  27.267   4.489  14.098
 8520W        W80846  32.827  43.696  14.895
 8521W        W80847  28.476  17.258   2.246
 8522W        W80848  33.871  28.737   3.705
 8523W        W80849  31.590  17.028   3.105
 8524W        W80850  33.653  43.774  11.608
 8525W        W80851   7.933  33.469   4.154
 8526W        W80852  23.112  28.682   3.295
 8527W        W80853  17.554  20.499  14.487
 8528W        W80854  28.993   6.682  13.144
 8529W        W80855  40.249  12.655  11.536
 8530W        W80856  18.829  31.065  13.798
 8531W        W80857  13.181  36.983   2.598
 8532W        W80858  41.472   4.261  12.641
 8533W        W80859  14.070  40.291   2.712
 8534W        W80860   0.249  38.048  11.251
 8535W        W80861   1.504  15.949   0.659
 8536W        W80862  37.591   8.088   4.197
 8537W        W80863  15.852  15.307   0.988
 8538W        W80864  23.978  41.572  13.565
 8539W        W80865  27.703  34.471  12.902
 8540W        W80866  31.098   1.312   0.866
 8541W        W80867  24.894  12.422  12.144
 8542W        W80868  18.009   8.355  14.350
 8543W        W80869  43.812  37.774  14.275
 8544W        W80870  25.975  18.547  14.890
 8545W        W80871  37.023   2.264   2.439
 8546W        W80872  17.550  41.410  12.004
 8547W        W80873  27.425  32.412   4.131
 8548W        W80874   3.349  19.045  12.526
 8549W        W80875   1.395  41.390   0.697
 8550W        W80876  30.899   2.246  13.037
 8551W        W80877   3.373  14.078   4.171
 8552W        W80878  37.092   5.904   1.739
 8553W        W80879   8.199  16.387  11.172
 8554W        W80880  44.224  21.820  10.584
 8555W        W80881  44.415  22.703   3.188
 8556W        W80882   0.103  25.795  14.761
 8557W        W80883  42.437   4.227  13.562
 8558W        W80884   4.391  13.107   2.205
 8559W        W80885  34.529   0.739  12.040
 8560W        W80886   9.737  18.733   1.283
 8561W        W80887  19.471  31.044   1.342
 8562W        W80888  16.898  39.843   4.712
 8563W        W80889  42.304  28.078  12.024
 8564W        W80890  26.102  17.209   5.046
 8565W        W80891  13.844  12.633   3.251
 8566W        W80892   3.347   7.928  14.953
 8567W        W80893  14.640   8.260   4.805
 8568W        W80894  38.165  24.087  13.390
 8569W        W80895  16.801  30.235  12.151
 8570W        W80896  15.633  10.334   4.091
 8571W        W80897  40.625   9.744   4.246
 8572W        W80898  10.357  22.039   2.738
 8573W        W80899  41.043  40.274  10.737
 8574W        W80900  41.264  23.033   1.767
 8575W        W80901  18.974   4.370   1.135
 8576W        W80902   6.406  11.878  13.434
 8577W        W80903   1.636  11.781  11.010
 8578W        W80904  28.207  40.047   2.449
 8579W        W80905  13.575  28.103   4.231
 8580W        W80906  24.797   3.297   0.943
 8581W        W80907  39.551  44.680   1.370
 8582W        W80908  27.752  25.372  14.047
 8583W        W80909  31.872  10.220  12.474
 8584W        W80910  11.816  42.855   1.559
 8585W        W80911   1.753  31.503   1.943
 8586W        W80912  33.969  10.652  10.896
 8587W        W80913  39.128  13.024  13.068
 8588W        W80914  42.907  34.014  12.188
 8589W        W80915  10.626  40.555   4.814
 8590W        W80916  28.072   8.716   3.698
 8591W        W80917   5.139  37.939   1.426
 8592W        W80918  40.911  25.426  12.059
 8593W        W80919  36.045  33.559  13.018
 8594W        W80920  36.905  10.309   4.955
 8595W        W80921  23.662   5.744  13.890
 8596W        W80922  21.775  36.833  11.518
 8597W        W80923  24.194  37.009   2.623
 8598W        W80924   7.761   5.449   1.404
 8599W        W80925  10.826  43.793  12.999
 8600W        W80926  22.273  30.709   4.236
 8601W        W80927  34.115  34.189   3.269
 8602W        W80928  30.708   4.902  10.225
 8603W        W80929  36.371   9.974   4.336
 8604W        W80930  39.791  17.697   3.322
 8605W        W80931  17.390  19.423  13.341
 8606W        W80932  23.494  40.810  13.301
 8607W        W80933  34.631  36.001   3.155
 8608W        W80934  33.013  25.980   2.928
 8609W        W80935  35.326  26.818  13.563
 8610W        W80936  31.022  36.110  11.060
 8611W        W80937  26.741  42.365  13.120
 8612W        W80938  39.316  26.497  14.947
 8613W        W80939  33.003  12.356   3.171
 8614W        W80940  10.970  16.212  14.530
 8615W        W80941  29.012  37.042  14.534
 8616W        W80942   9.668  10.387  14.497
 8617W        W80943  20.685  32.710  13.818
 8618W        W80944  37.827  16.803   3.733
 8619W        W80945   9.686  30.028   1.913
 8620W        W80946  39.441  31.270  13.467
 8621W        W80947  27.900  10.048   4.567
 8622W        W80948  33.332   3.781   4.053
 8623W        W80949  25.816  42.409  10.357
 8624W        W80950   3.092   5.418   9.864
 8625W        W80951   6.235  19.166  12.158
 8626W        W80952  42.371  42.563   2.728
 8627W        W80953  33.358   4.509   5.079
 8628W        W80954  43.299  10.311  12.934
 8629W        W80955  10.708   9.870  14.242
 8630W        W80956  43.998  36.121   3.143
 8631W        W80957  14.140   9.910   5.028
 8632W        W80958  26.536  13.322  12.979
 8633W        W80959  29.530  37.487   0.859
 8634W        W80960  29.442  35.502  13.275
 8635W        W80961  16.787  44.374   3.229
 8636W        W80962  15.840  17.834  14.760
 8637W        W80963  31.716   6.691   3.694
 8638W        W80964  36.883  34.267  14.879
 8639W        W80965   1.534  22.657  12.546
 8640W        W80966  17.165  38.402  13.317
 8641W        W80967  13.957  25.448  10.460
 8642W        W80968  43.783  32.857   0.730
 8643W        W80969  26.949   4.482   3.731
 8644W        W80970   4.210  11.363   4.640
 8645W        W80971  44.797  28.665  14.362
 8646W        W80972  25.116  30.343  10.749
 8647W        W80973  15.038  36.564  10.364
 8648W        W80974   7.310   5.944   2.918
 8649W        W80975  16.157  10.873  11.620
 8650W        W80976  31.509  30.442  14.842
 8651W        W80977  28.100   6.131  13.921
 8652W        W80978  14.609  27.008   9.751
 8653W        W80979   7.261   8.725  14.194
 8654W        W80980  25.595   1.252   1.767
 8655W        W80981  25.048   8.402   4.620
 8656W        W80982  21.079  25.623  14.615
 8657W        W80983  11.802  36.081  13.750
 8658W        W80984  13.332  42.742  13.530
 8659W        W80985   1.902  23.598  12.481
 8660W        W80986   8.599   6.830   2.605
 8661W        W80987  31.135  36.789  12.337
 8662W        W80988  44.345  12.895  11.478
 8663W        W80989   8.183  17.343   1.788
 8664W        W80990  40.383  13.146  11.420
 8665W        W80991  21.681  24.607   0.889
 8666W        W80992  38.811  24.478   2.727
 8667W        W80993  34.851  11.077  14.706
 8668W        W80994  33.384  40.002  12.826
 8669W        W80995   6.275  12.233  11.630
 8670W        W80996  17.527   2.490  10.712
 8671W        W80997  36.052  24.930  10.635
 8672W        W80998  29.849  38.018  13.822
 8673W        W80999   0.263  14.001  14.105
 8674W        W81000  29.128  26.196   0.427
 8675W        W81001  26.257  44.948  14.907
 8676W        W81002  16.258  13.490   3.088
 8677W        W81003  14.385   9.384   2.130
 8678W        W81004  18.346  32.533  12.475
 8679W        W81005  17.001  20.830  11.589
 8680W        W81006  34.030  38.083   1.187
 8681W        W81007  15.299   0.918   4.513
 8682W        W81008   1.370  23.123   0.763
 8683W        W81009   7.699   1.333   4.459
 8684W        W81010  18.158  42.995  12.192
 8685W        W81011  11.391  16.975   0.021
 8686W        W81012  14.741  31.936   0.051
 8687W        W81013   2.202  42.420   3.706
 8688W        W81014   6.840  44.836  10.682
 8689W        W81015   7.515   8.119   4.326
 8690W        W81016  33.115  17.071   4.589
 8691W        W81017  44.523  12.644  10.202
 8692W        W81018  31.415  17.723  14.882
 8693W        W81019  34.028  28.147  11.963
 8694W        W81020   2.454  30.621  11.611
 8695W        W81021  13.062  17.834   3.806
 8696W        W81022  39.956   5.959   2.759
 8697W        W81023  41.068  23.500   1.923
 8698W        W81024  24.618  11.065  13.578
 8699W        W81025  18.641  38.472  10.534
 8700W        W81026  15.594  16.118  11.457
 8701W        W81027  42.283  28.642   0.877
 8702W        W81028  24.259   4.599   1.604
 8703W        W81029  43.473  40.766  10.746
 8704W        W81030  38.347  13.610  10.451
 8705W        W81031  24.098   5.409  11.242
 8706W        W81032  20.656  35.893   2.420
 8707W        W81033   9.113  24.524  13.478
 8708W        W81034  23.951   0.841   1.251
 8709W        W81035  22.712  26.504   3.200
 8710W        W81036  19.975  19.690  11.486
 8711W        W81037  43.210   6.061  12.719
 8712W        W81038  31.029   7.983   4.010
 8713W        W81039  24.798  39.494  13.300
 8714W        W81040  22.268  43.548  11.396
 8715W        W81041  12.223  26.960   4.818
 8716W        W81042  44.430   6.272   4.054
 8717W        W81043  31.149  42.897   4.192
 8718W        W81044  15.727  26.450  13.314
 8719W        W81045  44.564   1.268  11.525
 8720W        W81046   7.561   0.461  10.931
 8721W        W81047  30.613  23.445  13.882
 8722W        W81048  38.528  28.934   3.737
 8723W        W81049  28.916  35.437   2.772
 8724W        W81050  11.243   2.401   3.262
 8725W        W81051  29.034  25.446  10.902
 8726W        W81052   4.030   0.690   4.008
 8727W        W81053  42.825  11.797  11.552
 8728W        W81054   0.684  18.398  10.139
 8729W        W81055  15.579  12.029   3.728
 8730W        W81056  30.342  15.191   2.219
 8731W        W81057  16.775  11.203  14.288
 8732W        W81058  10.370  28.386   4.379
 8733W        W81059  37.454  40.730  14.812
 8734W        W81060   7.447   6.820   3.904
 8735W        W81061  25.635  43.490   2.135
 8736W        W81062  44.792  41.477  12.912
 8737W        W81063   0.927  10.455   1.255
 8738W        W81064  27.893  22.237  11.888
 8739W        W81065   9.350  35.539   4.114
 8740W        W81066  31.376  13.746   1.748
 8741W        W81067  27.543  27.965  13.808
 8742W        W81068  37.580  31.094  11.052
 8743W        W81069  12.907   3.167   0.460
 8744W        W81070  16.058  40.844  12.701
 8745W        W81071  44.726  42.012  11.546
 8746W        W81072  23.066  23.885  14.418
 8747W        W81073  23.483   0.422   4.606
 8748W        W81074  14.632   8.537  10.628
 8749W        W81075  12.490   6.951  10.753
 8750W        W81076  13.662   3.770  13.992
 8751W        W81077  12.437  18.143  10.759
 8752W        W81078  28.590   6.782   4.894
 8753W        W81079  19.515  42.234   0.390
 8754W        W81080  41.979  19.698   1.913
 8755W        W81081   8.235  26.064   0.805
 8756W        W81082   2.182   8.029  11.160
 8757W        W81083  40.057  23.094   4.225
 8758W        W81084  40.837  38.873  13.050
 8759W        W81085  20.784  37.571   4.218
 8760W        W81086  32.552  41.091   3.980
 8761W        W81087  44.701  25.716  10.458
 8762W        W81088   1.997   2.732  12.980
 8763W        W81089  40.770  10.146   3.235
 8764W        W81090   7.884  37.614   0.527
 8765W        W81091  34.586   9.817  12.901
 8766W        W81092  26.647  27.602  14.711
 8767W        W81093   2.762  32.475   0.708
 8768W        W81094  37.008  26.490  10.647
 8769W        W81095  20.489   6.723   0.341
 8770W        W81096  31.871   0.941   5.155
 8771W        W81097  34.371  13.806   3.623
 8772W        W81098  21.061   2.881   4.547
 8773W        W81099  26.161  28.486  10.622
 8774W        W81100   2.126   8.192  12.779
 8775W        W81101  28.981   2.862   2.432
 8776W        W81102   6.801  34.134   3.363
 8777W        W81103  42.971  39.854  13.264
 8778W        W81104  37.022  17.212  13.766
 8779W        W81105  38.610  11.772  11.544
 8780W        W81106  19.982  30.935  11.709
 8781W        W81107  32.561  44.960  13.079
 8782W        W81108  21.966  37.644   0.004
 8783W        W81109  42.718  17.802   2.856
 8784W        W81110  33.436  44.158   4.605
 8785W        W81111   4.817  42.792   2.593
 8786W        W81112  39.930  35.236   0.859
 8787W        W81113  16.898  31.715   4.127
 8788W        W81114  21.638   8.137  14.527
 8789W        W81115  22.134  23.300  13.545
 8790W        W81116  20.679  12.767  12.407
 8791W        W81117   0.949  30.388   3.997
 8792W        W81118  32.478  23.658   0.809
 8793W        W81119  24.132  34.685   4.861
 8794W        W81120  40.493  36.397   3.338
 8795W        W81121  13.385   5.948  14.959
 8796W        W81122  23.041  31.980   2.712
 8797W        W81123  25.083  15.293   9.729
 8798W        W81124   5.392  19.870  14.236
 8799W        W81125  24.494  28.677   3.680
 8800W        W81126   5.855   6.068  13.601
 8801W        W81127  16.674  30.901   4.415
 8802W        W81128  13.106   8.317  13.189
 8803W        W81129  33.983  14.723   3.017
 8804W        W81130  39.477  13.787  11.118
 8805W        W81131  28.006  22.787  10.231
 8806W        W81132   1.706  31.999  11.456
 8807W        W81133  37.054  18.070  10.944
 8808W        W81134  26.107   6.224   0.657
 8809W        W81135  43.909  15.824  11.207
 8810W        W81136  38.693  26.693  14.047
 8811W        W81137   2.222  11.259   3.255
 8812W        W81138  35.857  18.495  11.596
 8813W        W81139  31.422  42.566   2.752
 8814W        W81140  37.364   1.240   1.132
 8815W        W81141  27.012  37.855   0.947
 8816W        W81142  33.632  44.297  14.483
 8817W        W81143   6.967  23.766   2.748
 8818W        W81144  10.611  36.970  14.284
 8819W        W81145  38.397   1.309  13.241
 8820W        W81146  18.251  39.479   3.942
 8821W        W81147  31.564  36.311  13.729
 8822W        W81148   5.931   7.657  12.902
 8823W        W81149  35.366  27.445   2.655
 8824W        W81150   1.723   5.846  11.889
 8825W        W81151  42.032  23.820   4.417
 8826W        W81152  31.134   2.733  11.028
 8827W        W81153  21.587  28.618   1.188
 8828W        W81154  21.276   6.914   2.326
 8829W        W81155  36.977   7.399   4.641
 8830W        W81156  12.868  19.048  10.743
 8831W        W81157  14.105  32.790   3.697
 8832W        W81158  37.067  23.082   0.952
 8833W        W81159  38.803  25.725   4.523
 8834W        W81160  27.134  24.687   1.037
 8835W        W81161  20.694  38.218   5.018
 8836W        W81162  22.677  18.743   1.228
 8837W        W81163  15.126   0.252  12.042
 8838W        W81164  36.859  42.947   0.234
 8839W        W81165  10.838   8.286  12.497
 8840W        W81166  12.107   3.347   2.769
 8841W        W81167  35.519  14.497  12.869
 8842W        W81168  42.264  15.212  11.080
 8843W        W81169  21.971  22.632   4.951
 8844W        W81170  35.748  10.461   4.222
 8845W        W81171  25.494  12.075   1.033
 8846W        W81172  20.615   2.715  13.787
 8847W        W81173  37.217  36.712  13.405
 8848W        W81174  27.870  36.564  10.517
 8849W        W81175  22.232  14.439   0.670
 8850W        W81176   0.542  17.026  12.036
 8851W        W81177   1.241  27.848   3.244
 8852W        W81178  25.231  12.590  11.258
 8853W        W81179   2.969  38.903   2.245
 8854W        W81180  18.088  19.595  10.752
 8855W        W81181  43.797  30.009   1.799
 8856W        W81182  30.039  23.637   3.222
 8857W        W81183  10.359  13.242  11.686
 8858W        W81184  38.326  23.691   2.772
 8859W        W81185  12.228  32.640  12.952
 8860W        W81186   5.752  35.951   1.671
 8861W        W81187  10.829  17.298   1.452
 8862W        W81188   4.246  14.869  13.335
 8863W        W81189  40.589  37.090   3.558
 8864W        W81190   0.300  43.378  13.419
 8865W        W81191  37.978  30.570   2.721
 8866W        W81192  34.602  30.500   3.910
 8867W        W81193  16.602  27.393   3.333
 8868W        W81194  19.863  44.943  12.980
 8869W        W81195  18.275  33.739   4.174
 8870W        W81196  10.439  16.589  10.892
 8871W        W81197  22.293  19.020   3.622
 8872W        W81198  43.046  36.035   4.606
 8873W        W81199  38.122  43.936   0.291
 8874W        W81200  19.020  38.479   3.275
 8875W        W81201  27.595  31.400   4.289
 8876W        W81202   8.577  37.440   4.741
 8877W        W81203   2.758   4.354  13.998
 8878W        W81204  38.872  32.705   3.111
 8879W        W81205  12.636  12.890  13.918
 8880W        W81206  25.240  32.795   0.202
 8881W        W81207  24.200   4.908  13.059
 8882W        W81208  13.764  32.931   4.624
 8883W        W81209   2.397  23.085  10.436
 8884W        W81210  18.803  19.643   5.039
 8885W        W81211  28.001  42.791   4.787
 8886W        W81212  42.702  20.673   2.727
 8887W        W81213   7.651  31.211  12.920
 8888W        W81214   3.259  26.435   3.183
 8889W        W81215   5.155  15.704   4.793
 8890W        W81216  19.515  38.871   0.968
 8891W        W81217  25.118   5.157  12.582
 8892W        W81218  34.308  42.518  11.670
 8893W        W81219  34.950   0.433  11.787
 8894W        W81220   6.919  35.880   4.224
 8895W        W81221  22.529   5.232   3.249
 8896W        W81222  29.131  44.433   2.616
 8897W        W81223  22.442   3.837   1.654
 8898W        W81224  28.543  14.789   3.567
 8899W        W81225  37.570  34.588   3.616
 8900W        W81226  34.149  22.312   0.412
 8901W        W81227  11.222  24.455   4.039
 8902W        W81228  34.800   9.477  12.571
 8903W        W81229  41.932  35.124   2.429
 8904W        W81230  22.116  44.936   4.709
 8905W        W81231   3.294   6.393   3.177
 8906W        W81232  16.568  10.744  11.018
 8907W        W81233  12.897   7.784  12.054
 8908W        W81234   4.147  34.514   0.427
 8909W        W81235  44.930  29.417  11.041
 8910W        W81236  43.832   8.723   2.955
 8911W        W81237  11.299  30.879   4.442
 8912W        W81238  11.179  36.314  12.437
 8913W        W81239   9.441  20.167  10.807
 8914W        W81240   4.007   9.331  12.583
 8915W        W81241  36.118  43.501   4.537
 8916W        W81242  29.187  21.158   0.799
 8917W        W81243  25.559  39.924  13.559
 8918W        W81244   1.116   7.499   4.097
 8919W        W81245   1.393   4.642  10.555
 8920W        W81246   2.850  23.017   4.772
 8921W        W81247  14.684  25.726   4.202
 8922W        W81248  27.124  36.633  13.736
 8923W        W81249   9.205   3.469  10.918
 8924W        W81250   3.919  35.365  11.171
 8925W        W81251   9.091  22.118   0.180
 8926W        W81252  10.604  34.576   2.351
 8927W        W81253  39.782   2.162  13.285
 8928W        W81254  34.417  43.826  14.662
 8929W        W81255  34.350  13.376  14.234
 8930W        W81256  31.172  41.553  12.535
 8931W        W81257   0.769   4.434   3.781
 8932W        W81258  44.978  41.861  11.977
 8933W        W81259  41.386   1.314  10.667
 8934W        W81260   7.757  36.273  14.855
 8935W        W81261  28.650  38.813  14.914
 8936W        W81262  34.060  41.185   2.419
 8937W        W81263  23.994   5.521   0.559
 8938W        W81264   5.511  38.375  10.278
 8939W        W81265  40.438  20.643   0.860
 8940W        W81266  36.251  28.926   2.353
 8941W        W81267  37.637  42.957  12.461
 8942W        W81268  41.356   6.351  12.923
 8943W        W81269  13.780  36.110   4.863
 8944W        W81270  10.079  20.620   4.132
 8945W        W81271   8.857  44.813  10.565
 8946W        W81272  43.513   2.106  14.012
 8947W        W81273  18.554  39.873  11.504
 8948W        W81274   4.180  24.267  10.680
 8949W        W81275  40.381  30.630  13.922
 8950W        W81276  15.438   2.874   2.349
 8951W        W81277  29.593  13.580   1.245
 8952W        W81278   0.728   0.577   3.094
 8953W        W81279  25.834  13.145   2.010
 8954W        W81280  42.860   4.737   2.906
 8955W        W81281   7.242  41.512   2.380
 8956W        W81282  37.078  25.508  12.210
 8957W        W81283  44.331  16.626  11.575
 8958W        W81284  28.813  28.773   2.666
 8959W        W81285   4.186  26.576   4.183
 8960W        W81286  30.547  20.675   2.338
 8961W        W81287   5.828  17.596  14.545
 8962W        W81288  10.960  26.734   4.516
 8963W        W81289   6.063   4.015   0.797
 8964W        W81290   4.676  30.961   4.982
 8965W        W81291  36.374  22.636  12.905
 8966W        W81292  35.059   6.740   2.875
 8967W        W81293  27.115  20.515  11.103
 8968W        W81294  33.586  10.157  12.615
 8969W        W81295  13.845  40.072   3.138
 8970W        W81296  31.027   7.170   0.089
 8971W        W81297  19.704  30.100  12.097
 8972W        W81298  34.821  29.477  11.539
 8973W        W81299   2.961  17.150   1.977
 8974W        W81300  42.955   0.891  10.561
 8975W        W81301   7.181  18.547  13.838
 8976W        W81302  44.694  22.236   0.537
 8977W        W81303   0.694   1.997  10.654
 8978W        W81304  14.787   6.425  14.057
 8979W        W81305  23.014  24.902  14.350
 8980W        W81306   5.839  44.254  14.996
 8981W        W81307  33.157  44.200  14.283
 8982W        W81308   7.224   0.743   2.301
 8983W        W81309   3.325  21.012   3.590
 8984W        W81310  31.414  26.708   3.183
 8985W        W81311  39.517  24.954  10.422
 8986W        W81312  18.681  35.770  12.876
 8987W        W81313   4.208   4.786   1.938
 8988W        W81314  26.126  23.541  11.962
 8989W        W81315  19.732  22.582  13.132
 8990W        W81316  11.352  10.781   3.696
 8991W        W81317  41.717   4.790   1.423
 8992W        W81318  24.466   0.822   1.272
 8993W        W81319   4.167  37.989  14.092
 8994W        W81320   6.129  27.185  13.930
 8995W        W81321  14.119  43.893   0.235
 8996W        W81322   5.747  31.729  14.819
 8997W        W81323  25.642  23.780   1.508
 8998W        W81324  18.565   4.026   2.484
 8999W        W81325  44.216  41.442  12.046
 9000W        W81326  16.337  17.736  14.366
 9001W        W81327  39.429  11.840  13.817
 9002W        W81328   4.112  37.886   1.407
 9003W        W81329  41.083   7.452  11.585
 9004W        W81330  16.511   4.141   0.297
 9005W        W81331  32.392  16.464   2.230
 9006W        W81332  30.061   1.534  14.285
 9007W        W81333  33.471  33.178   1.735
 9008W        W81334  15.358  43.631   0.939
 9009W        W81335  34.664   5.124  12.602
 9010W        W81336  44.245   6.787  13.110
 9011W        W81337   1.282  25.702   3.022
 9012W        W81338   7.803  21.202   2.276
 9013W        W81339  42.494  38.118  13.761
 9014W        W81340  30.646  23.040   3.606
 9015W        W81341  41.840  38.272   0.592
 9016W        W81342   7.916  20.142  12.123
 9017W        W81343  13.464  41.685   2.691
 9018W        W81344  25.708   6.257   3.113
 9019W        W81345  13.387  30.190  11.837
 9020W        W81346  32.186  22.796   2.316
 9021W        W81347  38.784  25.498  14.338
 9022W        W81348  42.392  32.994  12.871
 9023W        W81349  41.302  35.559  14.264
 9024W        W81350  20.158  25.031  13.895
 9025W        W81351  37.094   6.786  14.512
 9026W        W81352  27.734  15.758   0.517
 9027W        W81353  27.864   1.167  12.098
 9028W        W81354  44.520  19.904   3.811
 9029W        W81355   4.812  16.412   4.110
 9030W        W81356   1.033   2.662  10.216
 9031W        W81357  41.205  25.672   3.688
 9032W        W81358   3.658  33.825  11.974
 9033W        W81359  18.017  24.053   4.910
 9034W        W81360  30.936  39.316  14.447
 9035W        W81361   9.173   5.962   2.840
 9036W        W81362  14.591  12.562  12.955
 9037W        W81363  15.493  16.675   3.262
 9038W        W81364   1.975  40.510   1.897
 9039W        W81365   7.929  15.262  10.882
 9040W        W81366   8.879  31.731  10.676
 9041W        W81367  43.980  21.678  14.098
 9042W        W81368  31.758  15.352  12.040
 9043W        W81369  26.642   1.170  11.125
 9044W        W81370   7.789  33.556  11.120
 9045W        W81371  39.048  16.104   4.159
 9046W        W81372  25.567   8.308   4.653
 9047W        W81373  40.389  30.014   0.389
 9048W        W81374  30.085   8.800   0.517
 9049W        W81375  25.521  35.577   4.644
 9050W        W81376  30.966  33.076   4.089
 9051W        W81377  29.499   6.036   3.944
 9052W        W81378  37.312  23.688  10.876
 9053W        W81379  43.634   4.051   2.515
 9054W        W81380  30.782  37.069  12.060
 9055W        W81381  32.554   6.154  11.387
 9056W        W81382  33.520   8.307  13.019
 9057W        W81383   2.494   1.470   0.903
 9058W        W81384  26.702  35.934  11.299
 9059W        W81385   3.628  21.760  10.694
 9060W        W81386  16.616  42.752   3.903
 9061W        W81387  34.042  32.455   1.664
 9062W        W81388  27.003   4.846  12.811
 9063W        W81389   2.222  41.671   1.336
 9064W        W81390  25.033  40.830  12.360
 9065W        W81391  27.501  20.470   2.726
 9066W        W81392   5.967  21.309  14.440
 9067W        W81393   0.379   7.727   2.726
 9068W        W81394   7.768  30.523   2.295
 9069W        W81395  11.674  33.265   2.334
 9070W        W81396  20.693   1.481   0.090
 9071W        W81397   8.665  22.566  14.816
 9072W        W81398  17.125  16.126   1.865
 9073W        W81399   1.949  31.373  11.407
 9074W        W81400  44.409  18.012  12.565
 9075W        W81401  30.712  43.786  14.394
 9076W        W81402  42.481  22.990   3.273
 9077W        W81403  18.624   9.948  10.645
 9078W        W81404  26.150  30.562  14.014
 9079W        W81405  19.059  23.527  13.827
 9080W        W81406   2.409  44.072   4.238
 9081W        W81407  39.859  18.063  14.406
 9082W        W81408  34.651  43.934  12.686
 9083W        W81409  11.771  30.573   2.659
 9084W        W81410  41.742   7.684  13.998
 9085W        W81411  24.214  27.932   3.089
 9086W        W81412  24.656  11.122   4.648
 9087W        W81413  10.779  24.895   2.397
 9088W        W81414  19.679   7.874   3.857
 9089W        W81415  32.672  32.375  11.434
 9090W        W81416   3.669   8.437  13.019
 9091W        W81417  20.624  19.043  11.107
 9092W        W81418  35.092  23.024  14.581
 9093W        W81419  22.499  32.891  14.468
 9094W        W81420  40.369  11.852  12.956
 9095W        W81421  33.887  25.263   2.147
 9096W        W81422  28.543  10.725   4.692
 9097W        W81423  21.712  19.948  14.900
 9098W        W81424  17.370  35.481   2.763
 9099W        W81425  32.281  30.810   2.778
 9100W        W81426  39.773  21.695  13.626
 9101W        W81427  18.975  13.212  12.191
 9102W        W81428  25.553  11.837   3.924
 9103W        W81429  36.804  35.470  12.968
 9104W        W81430  33.095  20.034  11.491
 9105W        W81431  26.915  44.892   0.767
 9106W        W81432  12.635   5.167   0.624
 9107W        W81433   8.475  24.255   1.956
 9108W        W81434   1.258  28.914   4.307
 9109W        W81435   7.221  32.486  11.113
 9110W        W81436  15.061   5.255   3.666
 9111W        W81437   2.483  33.735   1.650
 9112W        W81438  38.965  41.267   1.451
 9113W        W81439  16.172  22.992  12.861
 9114W        W81440  39.456  31.528  14.868
 9115W        W81441  12.820  34.066   3.579
 9116W        W81442  18.037   0.768  10.655
 9117W        W81443  18.662  12.690   3.190
 9118W        W81444  10.905  29.638  14.806
 9119W        W81445  29.613  43.973  12.075
 9120W        W81446  36.572  41.963  12.344
 9121W        W81447  43.021  19.585   1.868
 9122W        W81448  10.784  30.637   3.295
 9123W        W81449  33.065  14.643  12.981
 9124W        W81450  23.215  11.758   2.778
 9125W        W81451  13.115  16.677  14.883
 9126W        W81452  32.134  27.301  11.920
 9127W        W81453  31.050   3.858   0.716
 9128W        W81454  16.628  13.528  14.350
 9129W        W81455   8.269  11.277  11.191
 9130W        W81456  33.483  29.926  11.052
 9131W        W81457  25.627  42.492   4.190
 9132W        W81458  39.346  37.356  14.446
 9133W        W81459   8.962  39.915  12.476
 9134W        W81460  43.621  19.297   0.989
 9135W        W81461   7.665  31.980  11.541
 9136W        W81462  37.571   0.896  13.936
 9137W        W81463  32.850  23.409  12.562
 9138W        W81464   7.924  24.544   4.671
 9139W        W81465  37.944  22.083   0.024
 9140W        W81466   6.941   0.279   2.324
 9141W        W81467   9.898  32.134  14.364
 9142W        W81468  36.951  36.118   2.812
 9143W        W81469  38.369  37.249   3.228
 9144W        W81470  35.613  16.731   0.428
 9145W        W81471  19.998  34.917  10.748
 9146W        W81472   2.721   1.253   9.882
 9147W        W81473   9.897   1.907   3.293
 9148W        W81474  38.489  10.889   1.928
 9149W        W81475  29.269  38.566   2.368
 9150W        W81476   6.238   0.212  12.625
 9151W        W81477   8.784  24.442   1.463
 9152W        W81478   4.375  27.700   1.423
 9153W        W81479  19.153  33.568  14.872
 9154W        W81480  42.703  33.880  14.072
 9155W        W81481  26.728  20.722  12.517
 9156W        W81482  19.172  16.645   1.527
 9157W        W81483  26.643   9.365  11.232
 9158W        W81484  24.091  30.176   2.305
 9159W        W81485  33.325  26.058  13.013
 9160W        W81486  19.721  32.280  14.700
 9161W        W81487  18.580   9.709  12.457
 9162W        W81488  30.156  25.514  10.657
 9163W        W81489  10.311   5.398   4.617
 9164W        W81490  34.542  44.371   1.881
 9165W        W81491  26.920   1.299  14.580
 9166W        W81492   5.923  22.027  13.727
 9167W        W81493  17.322  19.712   1.112
 9168W        W81494  40.920  26.942  11.574
 9169W        W81495  39.543   3.145  13.966
 9170W        W81496  25.039  41.319  12.164
 9171W        W81497  22.178  28.561  11.641
 9172W        W81498  18.135  11.531   0.322
 9173W        W81499  38.843  36.618   5.056
 9174W        W81500  34.622  18.833   2.163
 9175W        W81501  40.360  21.504  14.450
 9176W        W81502  35.557  33.436   2.101
 9177W        W81503  16.853  35.441   4.480
 9178W        W81504  42.298  19.710  13.313
 9179W        W81505   0.814  44.282   0.814
 9180W        W81506   8.182  19.598   1.972
 9181W        W81507  22.288  32.223  10.113
 9182W        W81508  10.803   7.211   0.308
 9183W        W81509   0.321  27.220   3.041
 9184W        W81510  15.177  30.125   1.535
 9185W        W81511  37.960  12.558  10.643
 9186W        W81512  31.597  41.009   2.761
 9187W        W81513   1.865  41.245  12.588
 9188W        W81514  30.926  37.612  13.573
 9189W        W81515  31.488  24.976  14.217
 9190W        W81516   8.809  18.058  12.574
 9191W        W81517  25.677  26.293   3.520
 9192W        W81518   4.248  33.501  12.566
 9193W        W81519  23.657   5.436  10.988
 9194W        W81520   9.817  21.257   9.855
 9195W        W81521  42.628  37.253  13.063
 9196W        W81522  14.060   1.511   1.568
 9197W        W81523  16.589  29.588  11.011
 9198W        W81524   4.883  35.849   2.630
 9199W        W81525  31.139  22.309  12.403
 9200W        W81526  33.510  44.919  14.449
 9201W        W81527  17.647  24.485   0.889
 9202W        W81528  29.071   3.920   4.177
 9203W        W81529  16.203  28.460  12.957
 9204W        W81530  26.636   7.628  11.634
 9205W        W81531  42.893   7.258  10.649
 9206W        W81532  33.006  15.142   4.360
 9207W        W81533  22.499  28.946  14.764
 9208W        W81534  44.062  31.839   3.822
 9209W        W81535  13.341  42.764  14.852
 9210W        W81536   7.850  14.281   4.155
 9211W        W81537  29.473   9.221   1.291
 9212W        W81538  37.435   4.815  14.820
 9213W        W81539  34.351  17.617   0.997
 9214W        W81540  40.844   3.890  12.031
 9215W        W81541  39.359  40.368  13.862
 9216W        W81542  38.419   6.829   3.042
 9217W        W81543  23.150  39.099   2.702
 9218W        W81544   8.401  20.191  10.734
 9219W        W81545  35.069  42.472   1.957
 9220W        W81546  33.393  29.171   4.911
 9221W        W81547  31.496  28.683  14.790
 9222W        W81548  25.937  13.120   0.220
 9223W        W81549  17.572  43.168   1.463
 9224W        W81550  44.756  40.051  13.988
 9225W        W81551  10.144  39.306  12.450
 9226W        W81552  18.861  37.705   0.225
 9227W        W81553   4.447  17.772   0.950
 9228W        W81554  33.757  27.266  11.224
 9229W        W81555  15.838   1.907  11.955
 9230W        W81556   4.620   6.234  12.814
 9231W        W81557  26.698  42.932   3.299
 9232W        W81558  23.422  10.737   0.307
 9233W        W81559  12.646  30.469   4.363
 9234W        W81560  27.402  35.570   2.559
 9235W        W81561   1.366  33.305  13.979
 9236W        W81562   4.406  11.416  12.928
 9237W        W81563  22.750   0.212   0.352
 9238W        W81564  18.577  43.359  11.137
 9239W        W81565  34.624  20.524   0.843
 9240W        W81566  11.360  36.121   2.669
 9241W        W81567  28.617  23.123   2.618
 9242W        W81568  23.980  36.407  12.675
 9243W        W81569   3.375  28.918  10.477
 9244W        W81570  43.559   4.625   9.927
 9245W        W81571  29.073  28.901  14.529
 9246W        W81572  10.850  38.876   4.140
 9247W        W81573  18.117   6.194  11.715
 9248W        W81574  36.101  31.558  12.963
 9249W        W81575  44.801   2.569  11.558
 9250W        W81576  33.483  35.691   3.911
 9251W        W81577   2.318  27.192  14.023
 9252W        W81578  31.693  12.848   0.236
 9253W        W81579  26.960   2.265  14.449
 9254W        W81580  29.609  15.822  11.453
 9255W        W81581  40.469  25.710  11.914
 9256W        W81582  43.589  35.396   1.996
 9257W        W81583  22.414  17.583  10.092
 9258W        W81584  18.188   5.334   1.272
 9259W        W81585   1.052  11.215  13.824
 9260W        W81586   4.726  29.416  11.260
 9261W        W81587  29.616   8.785   4.661
 9262W        W81588  26.469  12.202  13.573
 9263W        W81589  44.758  42.434   2.186
 9264W        W81590  24.429  11.146  11.796
 9265W        W81591  12.219  22.282  12.390
 9266W        W81592  11.251   7.357  13.824
 9267W        W81593  37.568  15.325   1.898
 9268W        W81594  34.612  37.055   3.201
 9269W        W81595  10.091   7.414  10.856
 9270W        W81596  33.450   3.008   2.180
 9271W        W81597  22.213  44.914   3.786
 9272W        W81598  44.833  32.361  14.962
 9273W        W81599  41.096   3.729   3.466
 9274W        W81600  28.726  20.699  11.178
 9275W        W81601   6.225  39.071   3.179
 9276W        W81602   6.271  24.253   2.657
 9277W        W81603  28.657  42.853  12.499
 9278W        W81604  25.839  21.098   4.451
 9279W        W81605  31.610  19.607   0.204
 9280W        W81606  36.407  18.239   4.384
 9281W        W81607   9.724  22.975  13.786
 9282W        W81608  14.100  30.397  11.230
 9283W        W81609  35.413  41.791   3.411
 9284W        W81610  29.483   7.341  13.920
 9285W        W81611   1.402   0.543   0.869
 9286W        W81612  39.439   7.354  10.574
 9287W        W81613  21.138   2.997   0.202
 9288W        W81614  27.274  27.096   1.998
 9289W        W81615   8.518  31.513  11.439
 9290W        W81616  23.048  31.469   1.233
 9291W        W81617  15.545  44.931   3.308
 9292W        W81618   8.579  27.993  13.034
 9293W        W81619  27.666   9.113  13.437
 9294W        W81620   5.518   5.318  12.372
 9295W        W81621   1.414  20.628  10.598
 9296W        W81622  42.428  42.448   4.814
 9297W        W81623   9.200  21.971  12.259
 9298W        W81624  35.872  26.078   2.882
 9299W        W81625   1.824  35.539  10.979
 9300W        W81626  27.148   1.850  10.454
 9301W        W81627   4.864   0.893  10.936
 9302W        W81628   9.209  18.628   1.474
 9303W        W81629  13.130   2.959   1.757
 9304W        W81630  10.375  31.368  11.405
 9305W        W81631  11.140  23.115  13.631
 9306W        W81632   4.681  38.457  14.860
 9307W        W81633  31.150  29.877   3.889
 9308W        W81634  20.166   3.427   4.608
 9309W        W81635  27.776  21.592  14.912
 9310W        W81636  20.750  37.007   0.936
 9311W        W81637  14.059   5.489   1.890
 9312W        W81638  20.176  22.584   3.191
 9313W        W81639  24.253  39.057   0.519
 9314W        W81640  13.605  41.911   0.926
 9315W        W81641  28.949  36.543  13.689
 9316W        W81642  32.756  40.649  12.802
 9317W        W81643  10.512  39.546  13.907
 9318W        W81644   2.543  28.152  12.906
 9319W        W81645   6.357  28.974  14.053
 9320W        W81646   0.445  27.542   0.970
 9321W        W81647  40.919  41.344  14.002
 9322W        W81648  35.391  35.491   3.195
 9323W        W81649  43.653  20.408  13.916
 9324W        W81650  19.712  26.227  14.791
 9325W        W81651  23.514  27.968   0.307
 9326W        W81652  21.796  19.888  13.692
 9327W        W81653  11.248   5.766   0.954
 9328W        W81654  42.787   1.425  11.169
 9329W        W81655  27.213  12.654   2.837
 9330W        W81656   3.854  16.806   1.419
 9331W        W81657  41.017   3.026   1.401
 9332W        W81658  20.611   3.568   4.911
 9333W        W81659  35.889  42.802   1.025
 9334W        W81660  25.179  41.784   2.868
 9335W        W81661   2.756  29.651  14.931
 9336W        W81662  30.372  43.851   2.798
 9337W        W81663  11.327  43.879  13.112
 9338W        W81664  43.723  18.320  10.726
 9339W        W81665  18.201  28.148   4.688
 9340W        W81666  31.951  32.561  14.718
 9341W        W81667  10.838   6.151  13.763
 9342W        W81668  30.110  24.717  13.411
 9343W        W81669  10.409  10.149   0.052
 9344W        W81670  31.661   1.997   0.965
 9345W        W81671   6.408  33.394  12.949
 9346W        W81672   7.916   2.330  10.523
 9347W        W81673  11.698  22.755   1.801
 9348W        W81674   9.108   8.773   3.161
 9349W        W81675  43.043   5.416  13.946
 9350W        W81676  43.288  38.358   1.992
 9351W        W81677  15.746  37.292  13.455
 9352W        W81678  20.092   6.857  11.593
 9353W        W81679  33.033  23.934  12.448
 9354W        W81680   8.132  41.089   2.620
 9355W        W81681  31.635  16.218  13.275
 9356W        W81682  42.359  40.410  12.319
 9357W        W81683  20.880  20.688   3.804
 9358W        W81684  18.561  37.712   1.554
 9359W        W81685  37.131   4.239  11.994
 9360W        W81686  25.264  27.154   3.291
 9361W        W81687  13.307   4.443   4.364
 9362W        W81688  18.176   0.410  13.686
 9363W        W81689  19.166   8.654   0.804
 9364W        W81690  29.036  37.052  13.514
 9365W        W81691  19.298  20.365  11.845
 9366W        W81692  30.179   9.361   1.717
 9367W        W81693  27.495  15.013  11.119
 9368W        W81694  31.441  28.658  11.193
 9369W        W81695  27.606  40.437   4.558
 9370W        W81696  30.569  10.754  14.376
 9371W        W81697  23.054  38.005  12.140
 9372W        W81698   6.871  27.819   2.247
 9373W        W81699  25.213   1.971  11.124
 9374W        W81700   0.293  27.972  14.353
 9375W        W81701   0.474  36.038  14.496
 9376W        W81702  17.276  13.846   3.761
 9377W        W81703  40.497  38.172  13.891
 9378W        W81704  34.828   9.209  10.743
 9379W        W81705  13.644  14.404   0.798
 9380W        W81706  36.284  11.147   5.086
 9381W        W81707  27.065   6.802  10.388
 9382W        W81708  29.080  20.153   1.483
 9383W        W81709  17.609  18.049   0.002
 9384W        W81710  29.471  26.641   1.311
 9385W        W81711  33.966   7.881   3.607
 9386W        W81712  11.189   0.978   2.112
 9387W        W81713  34.902   1.831   4.935
 9388W        W81714  29.724  33.817   0.308
 9389W        W81715  33.075  43.875   1.165
 9390W        W81716  37.920  16.682  12.655
 9391W        W81717  23.011   6.199   0.861
 9392W        W81718  44.954   4.956   3.141
 9393W        W81719  16.207  21.201   4.348
 9394W        W81720  37.346  28.373  12.976
 9395W        W81721  13.620   0.014   3.177
 9396W        W81722  25.043  41.265   1.307
 9397W        W81723   4.990  23.998  13.009
 9398W        W81724  27.450  22.123   4.082
 9399W        W81725  29.125   9.918   4.530
 9400W        W81726  30.482  22.657  13.498
 9401W        W81727  41.946  24.063   3.623
 9402W        W81728   7.229  38.942  11.898
 9403W        W81729  33.651  26.203   0.663
 9404W        W81730  37.545  38.312   1.912
 9405W        W81731  14.716  34.796   0.197
 9406W        W81732   0.907   2.281   3.109
 9407W        W81733  23.785   1.313   2.794
 9408W        W81734   3.641  18.257  14.524
 9409W        W81735   3.409  40.270  14.680
 9410W        W81736  12.411  15.735   0.420
 9411W        W81737  42.761   8.242   2.393
 9412W        W81738  32.199  31.919  12.966
 9413W        W81739  31.744   0.038   4.604
 9414W        W81740   2.304  44.326   2.862
 9415W        W81741   4.684  17.035   2.405
 9416W        W81742  21.719  17.179   4.228
 9417W        W81743   0.839  42.291  12.487
 9418W        W81744  10.268  30.008   0.341
 9419W        W81745  21.152   3.291   2.690
 9420W        W81746  44.859   8.412  10.872
 9421W        W81747  39.814  31.137   1.677
 9422W        W81748  27.680  11.469   1.836
 9423W        W81749  30.509  20.037  13.527
 9424W        W81750  27.387  21.215  14.401
 9425W        W81751  10.841  11.396   2.679
 9426W        W81752  11.474  29.442   4.101
 9427W        W81753  10.947  44.884   2.838
 9428W        W81754  35.533   9.990   4.225
 9429W        W81755  20.367  35.865  13.421
 9430W        W81756  17.686  37.365   1.987
 9431W        W81757  11.033  39.503   2.223
 9432W        W81758  21.656  39.983   4.634
 9433W        W81759  25.957  35.003   1.292
 9434W        W81760  24.967   4.794   4.594
 9435W        W81761  25.102  33.211  12.051
 9436W        W81762  22.193   8.884   3.831
 9437W        W81763  12.267  43.608  12.019
 9438W        W81764  44.819   3.147   3.912
 9439W        W81765   1.875  10.864  13.466
 9440W        W81766   8.853  39.622  12.913
 9441W        W81767  42.312  12.900   0.839
 9442W        W81768  11.610  18.564   2.473
 9443W        W81769  44.161  26.949  12.014
 9444W        W81770  25.650  34.268   2.321
 9445W        W81771  32.635  23.556   3.688
 9446W        W81772  23.094  26.389  12.657
 9447W        W81773  33.065  10.664   0.491
 9448W        W81774  43.835  27.094   3.334
 9449W        W81775  34.419  42.020   1.896
 9450W        W81776  16.771   6.303  11.662
 9451W        W81777  25.778   7.982  11.596
 9452W        W81778  37.337  19.791   1.564
 9453W        W81779  10.378  28.102  11.954
 9454W        W81780  19.184  44.669   4.276
 9455W        W81781  26.532   2.926   1.939
 9456W        W81782  34.122  44.265  12.965
 9457W        W81783   3.152  39.389  12.260
 9458W        W81784  41.181  25.061   2.398
 9459W        W81785  41.603  40.323  14.777
 9460W        W81786   0.982  36.481   1.229
 9461W        W81787  31.024  40.191  11.098
 9462W        W81788  34.091  12.678  11.774
 9463W        W81789   7.921  17.759  14.418
 9464W        W81790  29.503   3.821  13.960
 9465W        W81791  11.254  32.507  11.687
 9466W        W81792   3.043  42.327  12.011
 9467W        W81793  32.457  14.221  13.889
 9468W        W81794  41.560   5.810   3.094
 9469W        W81795  21.070  27.449   2.676
 9470W        W81796  16.192  23.505   3.621
 9471W        W81797  18.037  33.908  11.575
 9472W        W81798  28.457  30.276   3.525
 9473W        W81799  35.635  31.090  14.866
 9474W        W81800  44.379   7.722  10.523
 9475W        W81801  37.589  44.400   4.236
 9476W        W81802  15.636   8.395   4.746
 9477W        W81803  34.902  22.294   3.857
 9478W        W81804  23.724  22.335   2.069
 9479W        W81805   3.379  43.263  11.655
 9480W        W81806   3.267  43.028  14.031
 9481W        W81807  11.456  14.103  12.002
 9482W        W81808  43.237  10.691  13.538
 9483W        W81809   2.896   7.818   4.618
 9484W        W81810  26.126  10.312   2.837
 9485W        W81811  38.857   5.286   0.418
 9486W        W81812  33.265  24.353  12.114
 9487W        W81813  22.587  18.052  10.598
 9488W        W81814  44.635  10.590   0.273
 9489W        W81815  38.070   7.611   4.912
 9490W        W81816  36.808  43.898   4.240
 9491W        W81817   3.482  11.325   3.685
 9492W        W81818  15.800  31.183   1.227
 9493W        W81819  37.629  43.500  11.631
 9494W        W81820  17.684  25.508   1.210
 9495W        W81821  30.918  35.320  14.371
 9496W        W81822  43.789  42.803  12.035
 9497W        W81823  22.511  14.786  13.608
 9498W        W81824  13.335  10.513  12.014
 9499W        W81825  38.825  21.570  14.789
 9500W        W81826   4.645  31.688  12.868
 9501W        W81827  24.328  31.104   2.363
 9502W        W81828   0.408  12.147   0.667
 9503W        W81829  26.421  19.051  12.035
 9504W        W81830  42.791  41.981  14.372
 9505W        W81831   6.657   6.160   0.892
 9506W        W81832  35.229  14.044   0.459
 9507W        W81833  22.961  36.978   5.040
 9508W        W81834  10.635  24.074   0.873
 9509W        W81835  23.864  44.364   0.463
 9510W        W81836  12.058  12.816   3.224
 9511W        W81837   2.032  23.297   0.474
 9512W        W81838  28.739  33.000   4.224
 9513W        W81839   0.429  16.811   1.813
 9514W        W81840  44.929  12.239  11.424
 9515W        W81841  11.159   3.644  13.304
 9516W        W81842   3.305   2.118  10.644
 9517W        W81843   2.899  17.620   1.249
 9518W        W81844   0.328  19.249   1.458
 9519W        W81845  12.661  43.956  11.963
 9520W        W81846   1.356  22.199  11.400
 9521W        W81847  25.945  29.177  13.862
 9522W        W81848  44.468  12.592   4.361
 9523W        W81849  13.890  14.965  11.159
 9524W        W81850  41.291   1.769  12.456
 9525W        W81851  28.112   1.280   0.934
 9526W        W81852   2.535  10.441   2.775
 9527W        W81853  37.638   9.317   0.261
 9528W        W81854   2.211  17.907  10.005
 9529W        W81855  43.012  38.124  12.100
 9530W        W81856   0.864  29.526   1.582
 9531W        W81857  28.616  18.718   3.892
 9532W        W81858   9.203  14.339  12.848
 9533W        W81859  28.016  41.602  11.582
 9534W        W81860  29.100  42.824  10.698
 9535W        W81861  41.837  21.905  14.770
 9536W        W81862   9.347   3.619   1.951
 9537W        W81863  13.061  31.799  10.369
 9538W        W81864  25.549   3.759  11.896
 9539W        W81865   7.657   8.911   1.269
 9540W        W81866  16.083  24.909   4.228
 9541W        W81867  31.059  10.364  11.527
 9542W        W81868  35.902  36.803   0.292
 9543W        W81869  23.765  26.683  12.013
 9544W        W81870  34.258  23.591   4.606
 9545W        W81871  36.797  26.552  12.974
 9546W        W81872   8.958  37.920   0.935
 9547W        W81873  15.169   0.379  13.960
 9548W        W81874   4.949  31.240   3.294
 9549W        W81875  38.410  21.190  10.784
 9550W        W81876  23.599  13.055   2.231
 9551W        W81877   9.916   1.577  12.456
 9552W        W81878  44.333  16.065  11.021
 9553W        W81879  29.643  14.054  11.177
 9554W        W81880   0.771  42.054  10.562
 9555W        W81881  16.025  13.664   4.146
 9556W        W81882  41.508  35.618  12.850
 9557W        W81883  26.510  26.703  11.362
 9558W        W81884  13.572   8.633   3.062
 9559W        W81885   9.819   0.248   1.195
 9560W        W81886  27.190   9.649   2.474
 9561W        W81887   4.667   0.858   4.701
 9562W        W81888  15.607  35.445  13.716
 9563W        W81889  13.079  37.395   4.677
 9564W        W81890  39.185  33.520   0.807
 9565W        W81891  22.055  29.661   4.672
 9566W        W81892  24.148  19.268  14.296
 9567W        W81893  27.497  15.748   4.585
 9568W        W81894  35.561  44.054   3.631
 9569W        W81895  14.567  23.160  13.950
 9570W        W81896  34.758  30.028  14.480
 9571W        W81897  31.522  33.214  12.650
 9572W        W81898   7.789  10.298   9.958
 9573W        W81899  20.961   9.752  11.585
 9574W        W81900  20.302  41.009   1.854
 9575W        W81901  11.072  27.961   1.325
 9576W        W81902  13.216  39.487  10.746
 9577W        W81903   9.425  15.762   1.446
 9578W        W81904  20.448  23.064   4.207
 9579W        W81905  25.248  19.268   3.185
 9580W        W81906  44.370  20.079   0.258
 9581W        W81907  27.267  38.165  11.500
 9582W        W81908   5.425  10.976  11.329
 9583W        W81909   9.318  44.112  13.874
 9584W        W81910  18.179   7.786   4.138
 9585W        W81911  41.717  20.571  10.617
 9586W        W81912  36.842  35.599   5.494
 9587W        W81913  10.402  21.738   3.270
 9588W        W81914  34.556   8.374  11.970
 9589W        W81915  38.475  34.131   0.468
 9590W        W81916  19.846  15.540   3.234
 9591W        W81917  32.380  10.200  11.108
 9592W        W81918  27.781  20.238   0.021
 9593W        W81919  31.397  18.202   1.910
 9594W        W81920   5.497   5.686  11.982
 9595W        W81921  39.108  35.668  11.296
 9596W        W81922  10.860   0.033  11.514
 9597W        W81923  41.843  32.896  11.604
 9598W        W81924  31.510   4.972   0.397
 9599W        W81925  41.720   6.590   9.828
 9600W        W81926  35.326  42.884   2.686
 9601W        W81927  32.809   0.821   1.542
 9602W        W81928  38.539  10.321  12.905
 9603W        W81929  43.505  30.654   1.324
 9604W        W81930  25.491  14.563   4.674
 9605W        W81931  18.045  36.461  11.608
 9606W        W81932  20.645  15.563  12.111
 9607W        W81933  42.910  27.333  12.096
 9608W        W81934  43.023  17.616   0.985
 9609W        W81935  28.392  26.942   0.407
 9610W        W81936  22.024  39.925  11.599
 9611W        W81937  19.716  41.006  14.941
 9612W        W81938  39.551  13.239  14.351
 9613W        W81939   0.365  40.414  10.645
 9614W        W81940  39.994   6.469   2.840
 9615W        W81941  40.520  44.171  10.497
 9616W        W81942  16.202  34.509   3.728
 9617W        W81943   8.320  28.706   0.062
 9618W        W81944  12.329  41.372  13.417
 9619W        W81945  19.468  18.587  14.073
 9620W        W81946  21.505  24.144   1.857
 9621W        W81947  11.298  44.777   0.749
 9622W        W81948   8.445  14.291  13.521
 9623W        W81949  22.189  27.620   1.639
 9624W        W81950  35.501  20.743   4.143
 9625W        W81951   3.586  35.928   2.156
 9626W        W81952  33.059  11.218   1.368
 9627W        W81953   6.285   6.329  14.409
 9628W        W81954   8.761  34.498  11.182
 9629W        W81955   6.453  17.468   1.467
 9630W        W81956  13.732  30.201   4.572
 9631W        W81957  33.147  17.218   1.349
 9632W        W81958  41.113   0.431   0.366
 9633W        W81959   0.393  18.685  11.541
 9634W        W81960   5.027   3.580   4.542
 9635W        W81961  13.105  18.042   0.415
 9636W        W81962   9.393   8.972   2.789
 9637W        W81963   2.681  28.203   3.146
 9638W        W81964  18.602  31.457  14.066
 9639W        W81965   7.728  28.019   2.584
 9640W        W81966  34.991   7.653   4.205
 9641W        W81967  44.436  22.517  14.277
 9642W        W81968   7.466  22.117  12.501
 9643W        W81969   7.890   1.421  10.938
 9644W        W81970  16.218  31.701  10.581
 9645W        W81971  32.927  15.349  12.390
 9646W        W81972  37.661  23.223  13.576
 9647W        W81973   8.227   5.232  11.259
 9648W        W81974  37.000  42.870   4.221
 9649W        W81975  36.131  40.402  10.730
 9650W        W81976   7.976  44.804  12.144
 9651W        W81977  31.099  28.180  12.902
 9652W        W81978  11.150   3.702   2.797
 9653W        W81979   4.744  13.204   3.180
 9654W        W81980  34.526  39.828   1.279
 9655W        W81981   7.236  16.762   1.388
 9656W        W81982  36.783  23.779   0.528
 9657W        W81983  44.792  13.811   4.176
 9658W        W81984  37.048  23.143   3.694
 9659W        W81985  43.025  39.128   2.394
 9660W        W81986   4.654  20.171  14.834
 9661W        W81987   1.537  19.020   3.383
 9662W        W81988  41.880  21.094   1.411
 9663W        W81989  11.395  40.215  14.795
 9664W        W81990  24.748   3.521   4.122
 9665W        W81991  28.364  34.441   4.708
 9666W        W81992   8.896  38.905  14.758
 9667W        W81993   7.769  27.845  11.611
 9668W        W81994  15.388  27.692  13.776
 9669W        W81995  29.109   9.431   4.836
 9670W        W81996  23.807  44.500   2.214
 9671W        W81997  32.873   1.474  13.341
 9672W        W81998  40.550  31.403   0.453
 9673W        W81999  33.024  43.434   3.314
 9674W        W82000  35.513  29.117   4.675
 9675W        W82001  30.215  16.836   1.553
 9676W        W82002  18.970   5.327   4.870
 9677W        W82003  20.696  11.165   2.021
 9678W        W82004   5.792   5.251  14.272
 9679W        W82005  26.101  26.988   2.462
 9680W        W82006  40.144  23.125   0.503
 9681W        W82007  26.542  19.462  11.128
 9682W        W82008   8.181   1.473  12.499
 9683W        W82009   0.375  24.556  11.553
 9684W        W82010   9.670  31.973  12.441
 9685W        W82011  23.474  21.330   1.708
 9686W        W82012  31.466  10.685   3.743
 9687W        W82013  43.505  22.022   4.595
 9688W        W82014  19.217  30.022  12.323
 9689W        W82015  28.667  19.562   4.219
 9690W        W82016  17.038   4.185   2.522
 9691W        W82017  18.491  19.195  12.542
 9692W        W82018   0.503  19.238  11.626
 9693W        W82019  19.731  13.855  14.469
 9694W        W82020  15.632  35.032   2.737
 9695W        W82021   6.604  31.424   3.938
 9696W        W82022  34.126  25.713  12.203
 9697W        W82023  35.584  14.376   1.782
 9698W        W82024  34.538  27.892  12.669
 9699W        W82025  36.904  11.024   1.162
 9700W        W82026   2.458  35.351  13.311
 9701W        W82027   0.567  21.689   2.350
 9702W        W82028  44.212  29.132   0.918
 9703W        W82029  21.086   6.484   2.694
 9704W        W82030  10.800  19.758  11.171
 9705W        W82031  11.672   3.393  11.535
 9706W        W82032  40.092  42.622  14.439
 9707W        W82033   3.879  30.131   1.795
 9708W        W82034  23.517  28.126   0.848
 9709W        W82035  35.561  14.100   2.857
 9710W        W82036   0.983   0.192   4.154
 9711W        W82037  15.599   9.877   4.382
 9712W        W82038  37.998  20.502  12.188
 9713W        W82039  33.001   4.895   3.134
 9714W        W82040  10.386  15.629   1.314
 9715W        W82041  28.877  44.871   0.344
 9716W        W82042  40.763  30.476   0.940
 9717W        W82043  12.129  42.338   2.138
 9718W        W82044  27.875  41.464  14.290
 9719W        W82045  21.848  32.432   0.880
 9720W        W82046  15.727  32.466   4.114
 9721W        W82047   8.157  33.063   1.502
 9722W        W82048   1.485  10.756   5.118
 9723W        W82049  30.067  25.626   0.425
 9724W        W82050  20.128  24.960  12.078
 9725W        W82051  44.006  17.616  10.434
 9726W        W82052  43.553  33.678   2.712
 9727W        W82053   6.880  20.743   3.304
 9728W        W82054  30.882  28.620   0.109
 9729W        W82055  29.890  24.535   2.399
 9730W        W82056  39.046  25.358  11.638
 9731W        W82057   5.299  32.595   4.785
 9732W        W82058  12.380   9.690   0.446
 9733W        W82059  11.820  34.411  11.085
 9734W        W82060  44.851  26.084   3.452
 9735W        W82061  29.598  37.855  12.006
 9736W        W82062  20.733  24.548   0.924
 9737W        W82063  27.576  28.091   9.861
 9738W        W82064   9.381  17.492   2.879
 9739W        W82065  10.281  15.537   3.152
 9740W        W82066   9.433  26.115   3.268
 9741W        W82067  10.047  39.627   1.851
 9742W        W82068   9.448  14.067  13.500
 9743W        W82069  38.082  39.278  12.134
 9744W        W82070   6.900  36.121  13.000
 9745W        W82071  20.840  42.976  14.822
 9746W        W82072  31.825  41.453   1.380
 9747W        W82073  37.531   1.476   2.598
 9748W        W82074  38.567   7.707   3.142
 9749W        W82075  22.694   8.680  10.137
 9750W        W82076   6.765  40.109  10.668
 9751W        W82077   9.059  33.947   1.067
 9752W        W82078  32.553   9.830   2.707
 9753W        W82079  17.134  13.831   1.979
 9754W        W82080  12.420   4.739   0.354
 9755W        W82081  10.296  26.698   0.326
 9756W        W82082  27.433   8.194  11.991
 9757W        W82083   4.914   6.538   2.826
 9758W        W82084   7.677  20.724  11.837
 9759W        W82085  14.620  19.894  14.572
 9760W        W82086  28.570  27.979  10.547
 9761W        W82087  12.194  25.914  10.174
 9762W        W82088  28.840  27.474   3.746
 9763W        W82089  11.809  39.965   0.554
 9764W        W82090   9.584   9.651   1.699
 9765W        W82091   4.362  17.527   1.384
 9766W        W82092  40.705  34.879  12.585
 9767W        W82093  23.523  35.839  11.632
 9768W        W82094  26.034  32.848   1.562
 9769W        W82095  27.450   5.423  12.348
 9770W        W82096  22.586  36.061   1.904
 9771W        W82097   5.348  30.451   1.157
 9772W        W82098  22.939  30.148  14.440
 9773W        W82099  44.907   3.708   0.958
 9774W        W82100  20.255  25.565  13.773
 9775W        W82101  10.413   6.294   0.887
 9776W        W82102  37.875  23.414  11.118
 9777W        W82103  11.601   1.891  11.549
 9778W        W82104  11.328  15.081   3.492
 9779W        W82105  44.937  40.242   1.857
 9780W        W82106  36.361  27.962  11.028
 9781W        W82107  44.829  23.832   0.818
 9782W        W82108  11.679  17.098   5.551
 9783W        W82109  25.520   1.379   0.821
 9784W        W82110  13.109  36.784  12.931
 9785W        W82111  43.005  30.790  12.128
 9786W        W82112   3.855  16.196  11.113
 9787W        W82113  28.453  39.985  12.065
 9788W        W82114  26.865  19.560  12.911
 9789W        W82115  13.360  15.292   0.795
 9790W        W82116  43.947  19.618   1.321
 9791W        W82117   7.205  23.515   0.032
 9792W        W82118  29.094   7.223  12.936
 9793W        W82119  40.103   0.323   1.331
 9794W        W82120  40.564  23.599  11.502
 9795W        W82121  34.069  24.710   3.429
 9796W        W82122  22.550   2.545  14.816
 9797W        W82123  37.563  17.765   1.431
 9798W        W82124  43.392  19.775   4.551
 9799W        W82125  36.957  27.030  13.542
 9800W        W82126  26.233  11.603   0.411
 9801W        W82127  17.634  14.604  10.621
 9802W        W82128  20.865  21.896  13.795
 9803W        W82129   5.832  24.205   2.345
 9804W        W82130   2.297  34.393   0.327
 9805W        W82131  24.542  15.545   2.637
 9806W        W82132  39.402  31.450   4.403
 9807W        W82133  16.147  18.058   2.106
 9808W        W82134  12.838   6.356   1.942
 9809W        W82135  20.016  21.779   0.575
 9810W        W82136   8.761  11.760  13.046
 9811W        W82137   1.869   4.859  10.288
 9812W        W82138   5.729  23.202   0.470
 9813W        W82139  30.898  35.537  12.945
 9814W        W82140  19.306  44.796   0.817
 9815W        W82141  25.192  15.275  13.905
 9816W        W82142  12.634  24.733   3.264
 9817W        W82143  20.293  17.087  14.076
 9818W        W82144  25.525  40.505   1.495
 9819W        W82145  40.771  27.436  11.443
 9820W        W82146   6.127  38.303   1.461
 9821W        W82147  25.757  19.851   4.983
 9822W        W82148  32.105  10.246  12.939
 9823W        W82149  37.919  40.872   2.249
 9824W        W82150  42.560  13.597   1.741
 9825W        W82151  34.697  12.557   1.781
 9826W        W82152  26.112  29.639  13.684
 9827W        W82153  25.265  27.679  14.918
 9828W        W82154  37.019  43.840  12.931
 9829W        W82155   0.335  18.957  10.457
 9830W        W82156   4.268   6.959  12.846
 9831W        W82157  35.228  17.073   0.346
 9832W        W82158  19.830  14.719   1.042
 9833W        W82159  17.606  41.724   1.922
 9834W        W82160   8.587  19.371  12.125
 9835W        W82161  19.018  19.664  14.928
 9836W        W82162  27.680  40.560  14.121
 9837W        W82163   1.916   0.788  12.259
 9838W        W82164  13.314   2.989  13.964
 9839W        W82165  22.726  31.866  12.488
 9840W        W82166   6.898  36.843  12.195
 9841W        W82167   3.878  30.396   3.684
 9842W        W82168  21.316  22.061  11.755
 9843W        W82169  36.784  14.067   1.425
 9844W        W82170   0.702  12.941  11.485
 9845W        W82171  25.574  35.376  14.381
 9846W        W82172  28.177  37.977   1.742
 9847W        W82173  14.601   1.309  13.875
 9848W        W82174  23.202  24.861  12.603
 9849W        W82175  43.270  15.469  13.291
 9850W        W82176  26.694  28.120  11.125
 9851W        W82177   3.537   1.062  14.862
 9852W        W82178  35.884  34.761  13.588
 9853W        W82179  35.632  36.464  11.015
 9854W        W82180   2.707  12.567   2.815
 9855W        W82181  17.277  27.022   0.841
 9856W        W82182  26.392  25.004  10.925
 9857W        W82183  13.669  13.872  12.048
 9858W        W82184  30.904  41.319  12.905
 9859W        W82185   2.393  19.771  14.209
 9860W        W82186  38.510  20.917   3.421
 9861W        W82187  22.733   0.636  10.239
 9862W        W82188  19.470  35.098  13.020
 9863W        W82189  39.231  37.053  10.389
 9864W        W82190  44.958  26.496   2.178
 9865W        W82191  26.037  16.859   4.678
 9866W        W82192  33.775  28.266  10.277
 9867W        W82193   3.452   7.738  11.573
 9868W        W82194  19.851  25.664   3.224
 9869W        W82195  32.989  25.383   2.992
 9870W        W82196  13.251  27.629  14.944
 9871W        W82197   5.347  19.337  14.182
 9872W        W82198  11.304  20.978   4.519
 9873W        W82199  13.798  44.494   2.337
 9874W        W82200   5.697  35.073  11.869
 9875W        W82201  27.742  26.017  13.809
 9876W        W82202  12.127  15.815   3.656
 9877W        W82203  44.972  38.535   2.585
 9878W        W82204  22.143  37.185  13.562
 9879W        W82205  24.941  18.792   2.344
 9880W        W82206  32.486  39.528  14.950
 9881W        W82207  38.313  21.618  13.355
 9882W        W82208   2.040  38.808   1.355
 9883W        W82209  25.239  16.008   1.937
 9884W        W82210   2.499  20.077   2.383
 9885W        W82211  12.582  16.787  13.854
 9886W        W82212  37.540  25.007   0.556
 9887W        W82213  19.538  28.076  10.525
 9888W        W82214  20.708   5.204   0.643
 9889W        W82215   4.899  16.613  12.072
 9890W        W82216  15.546  16.080  10.418
 9891W        W82217  37.962  27.806   4.397
 9892W        W82218  40.903  36.127   1.776
 9893W        W82219  35.564   7.267  13.361
 9894W        W82220  32.097  35.498   4.836
 9895W        W82221  23.207  40.574   4.534
 9896W        W82222  31.422  17.255   1.662
 9897W        W82223  27.132  14.421  12.492
 9898W        W82224  34.327  11.139   1.748
 9899W        W82225  30.881  22.171   1.334
 9900W        W82226   9.679  17.090  14.344
 9901W        W82227  21.784  20.784   3.553
 9902W        W82228   5.853  37.893   3.750
 9903W        W82229   7.652  41.981   1.472
 9904W        W82230   4.677  39.953   1.681
 9905W        W82231   8.513  36.190   4.195
 9906W        W82232  43.688  21.688   0.095
 9907W        W82233   3.013  27.548   1.409
 9908W        W82234   7.174  39.819  11.394
 9909W        W82235   0.324  39.940   1.484
 9910W        W82236  15.725   1.183   2.114
 9911W        W82237  45.000  43.776   0.888
 9912W        W82238  17.437  25.348  11.564
 9913W        W82239   0.492  10.231  12.971
 9914W        W82240  20.377   1.286  12.406
 9915W        W82241  19.017   9.290  14.513
 9916W        W82242  10.878  22.994  10.793
 9917W        W82243  22.019   7.302   4.122
 9918W        W82244  29.465  26.983   0.758
 9919W        W82245  18.163  36.472  13.146
 9920W        W82246  14.104  11.864  14.361
 9921W        W82247   7.251  24.496   0.900
 9922W        W82248  24.699   5.568  12.672
 9923W        W82249  32.034  29.727   0.860
 9924W        W82250  35.406   4.265   1.386
 9925W        W82251  29.519   3.790   1.306
 9926W        W82252  22.950  10.712   0.514
 9927W        W82253   1.943   7.813  13.839
 9928W        W82254  14.687  25.248  11.499
 9929W        W82255   2.925  39.191  12.733
 9930W        W82256   6.695   8.377   2.348
 9931W        W82257  10.819   9.338  11.657
 9932W        W82258  20.211  16.336   3.669
 9933W        W82259  32.451  15.569  12.516
 9934W        W82260   3.443  14.667  14.831
 9935W        W82261  20.659   2.334   4.024
 9936W        W82262  40.066  29.689   1.228
 9937W        W82263  17.599  36.236  11.422
 9938W        W82264  19.750   0.052  10.616
 9939W        W82265  37.846  27.490   2.732
 9940W        W82266   6.282   5.851   4.307
 9941W        W82267  26.550  34.001  12.086
 9942W        W82268  30.375  22.233   1.379
 9943W        W82269  40.816  11.285   0.175
 9944W        W82270   4.282   7.652   0.216
 9945W        W82271  10.881  11.041  10.884
 9946W        W82272  15.796  39.789  10.622
 9947W        W82273  27.212   7.888   0.890
 9948W        W82274  17.488  22.110   4.213
 9949W        W82275  20.080   2.760   4.598
 9950W        W82276  37.009  14.190  11.278
 9951W        W82277  33.940  36.442   1.676
 9952W        W82278  42.486  42.415  14.378
 9953W        W82279   0.335  19.146  14.345
 9954W        W82280  32.379  26.844   3.793
 9955W        W82281  36.761  23.572   3.749
 9956W        W82282  14.785  14.773  12.892
 9957W        W82283   7.456  36.668  14.679
 9958W        W82284  24.065  10.620  10.614
 9959W        W82285  28.018  43.436   2.574
 9960W        W82286   7.738  26.144  11.446
 9961W        W82287  44.895   7.308   3.733
 9962W        W82288  11.545  35.647   4.383
 9963W        W82289  39.581  21.550  11.920
 9964W        W82290  20.235  37.583  13.267
 9965W        W82291   7.880   2.649  14.320
 9966W        W82292  41.415  44.514  14.370
 9967W        W82293  26.502  37.450   0.840
 9968W        W82294  15.128   9.922   0.783
 9969W        W82295  19.416  15.228   0.469
 9970W        W82296  15.570  28.607  14.475
 9971W        W82297   4.339  23.201   3.318
 9972W        W82298  19.375  31.029  14.929
 9973W        W82299  38.074  22.042   4.607
 9974W        W82300  34.454   7.734  11.426
 9975W        W82301  17.151  23.803  11.968
 9976W        W82302  39.995  43.395   2.650
 9977W        W82303  23.664  24.629  12.660
 9978W        W82304  21.045  35.390   3.664
 9979W        W82305  10.703  39.957  11.879
 9980W        W82306  30.364   4.836  13.349
 9981W        W82307  13.630  22.170  12.885
 9982W        W82308  24.952  14.682   4.570
 9983W        W82309  11.395   8.306   1.360
 9984W        W82310  41.736  25.658  14.063
 9985W        W82311  22.541  26.043   2.368
 9986W        W82312  16.669  38.962  14.450
 9987W        W82313   3.896  27.440  14.877
 9988W        W82314  29.656  30.887   3.801
 9989W        W82315  14.604  30.363  12.024
 9990W        W82316   3.414  16.576  14.517
 9991W        W82317  18.578  44.708   1.655
 9992W        W82318  14.755   8.716  12.460
 9993W        W82319  29.404  24.189  11.119
 9994W        W82320  39.075  20.219  12.860
 9995W        W82321  39.386  38.787   1.897
 9996W        W82322  37.234  44.885  12.902
 9997W        W82323  32.351  26.051  12.748
 9998W        W82324  27.631  41.489   4.509
 9999W        W82325  44.739  44.243  11.605
10000W        W82326  18.177  28.134   2.871
10001W        W82327  13.954   8.888   2.817
10002W        W82328  14.387  30.984  11.185
10003W        W82329   4.026   3.688  13.133
10004W        W82330   0.794  25.913   1.903
10005W        W82331  12.275   0.971  10.635
10006W        W82332  29.541  25.012  13.969
10007W        W82333  11.966  20.719  13.476
10008W        W82334  14.145  26.588   5.665
10009W        W82335  40.416   2.162  14.036
10010W        W82336  28.577  44.853   3.578
10011W        W82337   7.453  21.485   0.820
10012W        W82338  10.264  40.063  13.151
10013W        W82339  10.174   3.418   0.937
10014W        W82340   4.426  24.523  11.645
10015W        W82341   8.412   9.376   1.591
10016W        W82342  30.733  29.449   5.038
10017W        W82343  13.115  38.774  11.249
10018W        W82344  27.100  16.638   4.020
10019W        W82345  24.592  11.166  13.063
10020W        W82346  24.136   8.197   3.148
10021W        W82347  32.875  38.492  14.369
10022W        W82348  12.843   9.472   1.316
10023W        W82349  28.497  40.840   2.258
10024W        W82350  18.247   5.924   4.662
10025W        W82351  26.099  38.086  12.492
10026W        W82352   8.834  24.674   1.922
10027W        W82353   8.554   8.712   4.646
10028W        W82354  19.195  12.255   0.220
10029W        W82355  35.895  20.066   4.610
10030W        W82356  23.741  31.560  13.098
10031W        W82357  35.567  18.284  11.949
10032W        W82358   5.295  31.012   0.306
10033W        W82359  13.409  35.306  13.754
10034W        W82360   0.241  25.707   2.777
10035W        W82361  37.635  16.107  12.054
10036W        W82362  44.283  25.490  14.881
10037W        W82363  14.720   1.995   0.448
10038W        W82364  16.698  42.400  10.762
10039W        W82365  30.384  12.246   2.394
10040W        W82366  22.117  12.338  11.101
10041W        W82367   1.331   4.910  11.954
10042W        W82368  24.387  39.098   1.858
10043W        W82369   8.415   8.396  12.529
10044W        W82370  34.559  28.734  14.841
10045W        W82371  29.968  38.302  12.008
10046W        W82372  36.677  41.535   3.747
10047W        W82373  17.339  42.963  13.786
10048W        W82374  29.327  37.660  11.620
10049W        W82375  13.287  25.178   2.382
10050W        W82376   5.907   1.427  14.364
10051W        W82377  12.996  40.552  12.909
10052W        W82378  43.319  44.257   4.185
10053W        W82379  19.021  17.182   3.290
10054W        W82380  24.665  19.070  12.376
10055W        W82381  18.319  42.854  14.377
10056W        W82382   2.923  28.089   1.829
10057W        W82383  24.075   6.027  13.833
10058W        W82384   7.849   7.845  12.095
10059W        W82385  34.935  12.798   1.383
10060W        W82386  43.090  10.085   0.157
10061W        W82387  41.564  13.181   2.672
10062W        W82388  38.707  29.187  10.961
10063W        W82389  25.177  38.577   4.854
10064W        W82390  19.285  11.248   1.920
10065W        W82391  16.241   6.896  13.544
10066W        W82392   5.007  25.032  12.143
10067W        W82393  43.000  29.547   0.781
10068W        W82394   4.729  17.453   4.099
10069W        W82395   1.386   6.475   0.989
10070W        W82396  33.142  25.147   1.479
10071W        W82397  35.369  15.657  14.722
10072W        W82398  26.606  26.707  10.858
10073W        W82399   1.447  40.345  10.567
10074W        W82400  21.247  42.502  12.203
10075W        W82401   7.307  11.782   1.200
10076W        W82402  20.277  36.444   1.491
10077W        W82403  35.115  35.034   3.257
10078W        W82404  31.244  36.543  14.077
10079W        W82405  38.141  31.441  12.701
10080W        W82406  18.674  42.282  13.990
10081W        W82407  11.344  29.076   4.482
10082W        W82408   4.171  32.983  13.860
10083W        W82409   0.769  26.926   3.175
10084W        W82410   3.866  39.941   2.250
10085W        W82411  39.952  41.973  13.629
10086W        W82412  24.227  17.021  13.433
10087W        W82413  19.549  18.851  14.840
10088W        W82414  15.048   8.193  12.925
10089W        W82415  31.399  26.070   1.827
10090W        W82416  31.892  31.585   2.145
10091W        W82417  11.190  41.054  14.512
10092W        W82418   7.362  42.986   2.396
10093W        W82419  10.439   4.321  14.761
10094W        W82420  38.078   7.721  11.684
10095W        W82421  17.322  12.755   0.908
10096W        W82422  20.554  27.999  11.494
10097W        W82423  20.563  29.438  14.545
10098W        W82424   2.619  23.439   1.332
10099W        W82425  34.066  24.680   4.863
10100W        W82426  19.947  36.507   4.653
10101W        W82427  16.280  18.576   3.304
10102W        W82428   3.919  27.997   0.712
10103W        W82429   0.802   0.627  14.545
10104W        W82430  22.604  12.683   9.845
10105W        W82431  43.434  14.592   1.307
10106W        W82432  19.584  21.717  11.996
10107W        W82433  26.603  39.594  11.358
10108W        W82434  24.979   5.363  13.070
10109W        W82435   6.271  30.621  12.382
10110W        W82436  20.054   0.765  12.981
10111W        W82437   5.013   1.416   2.626
10112W        W82438  34.789   6.401  14.502
10113W        W82439  41.965   8.713   3.805
10114W        W82440  33.079  22.757   4.754
10115W        W82441  39.808   7.981   2.724
10116W        W82442   6.166  37.578  11.904
10117W        W82443  41.198  29.505   4.949
10118W        W82444  33.434  37.618   3.722
10119W        W82445  13.944  35.555   0.784
10120W        W82446  20.341  18.621  14.284
10121W        W82447  37.124  27.606  14.254
10122W        W82448  30.439  18.753   2.633
10123W        W82449  27.619  10.230  11.825
10124W        W82450  10.269  34.780   5.020
10125W        W82451   4.972  37.308  13.007
10126W        W82452  32.227  13.327  10.709
10127W        W82453  34.117  41.939   2.337
10128W        W82454   2.320  28.189   4.624
10129W        W82455   1.320  25.021  14.018
10130W        W82456  22.983  15.765   3.629
10131W        W82457  24.159  33.181  11.974
10132W        W82458  41.420   9.174   3.372
10133W        W82459  26.586  21.119  11.381
10134W        W82460   0.099   7.250   4.201
10135W        W82461  26.602  15.755  13.337
10136W        W82462  37.262  29.656   2.365
10137W        W82463  26.060   2.904   4.543
10138W        W82464  23.705  35.378   1.696
10139W        W82465  38.528  37.053   2.490
10140W        W82466   9.983  32.915  10.603
10141W        W82467  20.758  40.041   2.108
10142W        W82468  14.141  41.716  11.569
10143W        W82469  15.926  42.871  14.289
10144W        W82470   8.584  34.487   2.256
10145W        W82471  30.295  41.413   4.459
10146W        W82472  11.104  21.594  13.374
10147W        W82473  25.561  12.177   1.894
10148W        W82474  14.750   3.640  13.381
10149W        W82475   9.821  35.487  11.868
10150W        W82476  44.198  38.496   0.371
10151W        W82477  23.261  27.609  10.399
10152W        W82478   3.722   2.824  14.936
10153W        W82479  25.639  39.757   1.924
10154W        W82480  26.984  28.334   3.742
10155W        W82481  10.271  32.320  11.000
10156W        W82482  39.794  25.200   1.953
10157W        W82483  23.215   4.462   3.102
10158W        W82484  39.534  10.610   4.099
10159W        W82485  29.517  17.221  12.066
10160W        W82486  17.635  34.538  13.885
10161W        W82487  16.253  30.603   4.405
10162W        W82488   9.558  41.470   2.825
10163W        W82489   3.033  33.147  11.725
10164W        W82490  26.030  12.222  13.206
10165W        W82491  29.565  30.802   2.436
10166W        W82492   2.235  14.148   0.887
10167W        W82493  36.382  33.158  14.220
10168W        W82494  44.570  43.320   4.730
10169W        W82495   0.010  22.012  12.815
10170W        W82496  12.651  27.936   2.095
10171W        W82497   5.774  41.245   3.611
10172W        W82498  34.092  30.165   1.698
10173W        W82499  21.828  28.465   4.021
10174W        W82500  38.485  40.588   1.234
10175W        W82501  31.129   9.779  14.058
10176W        W82502  28.183  12.672  13.411
10177W        W82503  24.532  43.041   4.825
10178W        W82504  19.223  41.489   4.410
10179W        W82505  16.169  20.059  12.050
10180W        W82506  13.079  35.499  13.412
10181W        W82507   8.807  40.003  10.752
10182W        W82508  33.943  31.139   3.159
10183W        W82509  38.455   9.507   0.977
10184W        W82510   9.739  34.093  11.939
10185W        W82511  27.864  35.734   2.742
10186W        W82512   4.730  12.359   1.489
10187W        W82513  25.674   5.110   4.155
10188W        W82514  18.055  23.667  11.982
10189W        W82515  17.343  39.526   2.960
10190W        W82516  16.788   0.191   4.495
10191W        W82517   6.720  29.360  12.546
10192W        W82518  23.718  12.333   1.640
10193W        W82519  41.417   4.439  12.161
10194W        W82520   5.151  41.763  12.572
10195W        W82521  42.279  11.872   3.670
10196W        W82522  44.275  17.788  13.467
10197W        W82523  32.445  22.155  11.713
10198W        W82524  30.286  18.707  10.494
10199W        W82525  16.150  39.872  12.938
10200W        W82526  40.025  17.332   0.205
10201W        W82527  41.175  11.902  12.552
10202W        W82528  34.855  13.674   0.370
10203W        W82529  44.305  13.595   2.782
10204W        W82530  10.022  26.766   4.416
10205W        W82531  23.685  34.671   3.583
10206W        W82532  36.080  31.655   1.895
10207W        W82533  20.824  21.209   2.772
10208W        W82534  29.450  38.002   3.116
10209W        W82535  42.330  18.421  11.651
10210W        W82536  29.419  36.372  10.943
10211W        W82537  32.410  20.022  12.641
10212W        W82538  41.788   5.868  13.839
10213W        W82539  28.576  36.440  14.011
10214W        W82540  12.343  16.733  13.385
10215W        W82541   6.865  16.167   4.369
10216W        W82542  28.345  34.936   2.374
10217W        W82543   1.499  24.022   1.758
10218W        W82544  10.722  26.687  12.389
10219W        W82545  19.225  14.759  14.108
10220W        W82546   4.280  17.303   2.706
10221W        W82547  16.780  35.788   3.385
10222W        W82548  39.451  37.778  10.142
10223W        W82549  16.138   8.806   0.954
10224W        W82550  44.022  44.255  13.434
10225W        W82551   0.838  30.169   0.294
10226W        W82552  36.510  32.428   2.420
10227W        W82553  16.835   3.749   0.319
10228W        W82554  18.078  33.671  13.001
10229W        W82555  30.239  25.357  12.339
10230W        W82556  18.597   3.787   4.472
10231W        W82557  14.328   6.796   3.418
10232W        W82558  38.586   1.312   5.049
10233W        W82559  29.186  12.742   4.696
10234W        W82560  29.689  21.960   0.825
10235W        W82561  38.617   6.513  13.260
10236W        W82562  17.974  44.872  11.201
10237W        W82563   7.296   3.295   2.470
10238W        W82564  25.118  44.015   3.372
10239W        W82565  26.151  23.037  11.932
10240W        W82566  42.769  10.615   2.764
10241W        W82567   7.930  32.494   3.602
10242W        W82568  39.793   8.473   2.915
10243W        W82569  43.259  25.609  12.808
10244W        W82570  32.979  23.401  11.115
10245W        W82571  36.652   6.239  10.789
10246W        W82572  25.066   0.351  11.611
10247W        W82573  26.472  20.024   2.664
10248W        W82574  12.776  21.289  10.150
10249W        W82575  34.472  10.326  12.522
10250W        W82576  26.653  34.224  12.630
10251W        W82577   9.335   0.557  13.926
10252W        W82578   6.317  32.901  13.116
10253W        W82579   7.319  13.822  11.162
10254W        W82580  36.923  14.704  11.962
10255W        W82581   9.276  23.195   1.781
10256W        W82582  15.109  19.724   4.774
10257W        W82583  14.788   0.410   3.350
10258W        W82584  13.707  20.226  10.700
10259W        W82585  10.868  18.358  12.421
10260W        W82586  21.713   4.837   1.750
10261W        W82587  20.997   3.913  14.286
10262W        W82588  13.169  43.619  14.457
10263W        W82589   5.333  24.060   2.203
10264W        W82590  27.357  42.421   0.001
10265W        W82591  22.989  35.295   0.534
10266W        W82592   1.930  28.348   2.258
10267W        W82593  16.352  21.775   1.294
10268W        W82594  40.335  24.685   4.393
10269W        W82595   5.719  18.965   1.854
10270W        W82596  24.996   7.899   0.855
10271W        W82597  21.046  35.591  14.446
10272W        W82598  10.328  37.471   3.764
10273W        W82599  11.096   3.911   0.950
10274W        W82600  18.373  19.321  13.376
10275W        W82601  44.043   4.964  14.597
10276W        W82602   1.752  32.204  11.946
10277W        W82603  30.527   7.867   2.712
10278W        W82604  26.927   2.280  10.621
10279W        W82605  23.087  12.236  14.285
10280W        W82606  29.520   6.973  14.301
10281W        W82607  44.145  36.485  12.709
10282W        W82608  41.403  42.383   1.169
10283W        W82609  15.261  28.614  14.015
10284W        W82610  14.138  19.861  13.108
10285W        W82611  12.422  14.169   1.314
10286W        W82612  26.685  17.216  13.908
10287W        W82613  17.114  33.960   1.402
10288W        W82614  26.221  37.838   2.672
10289W        W82615  23.544   0.316  12.553
10290W        W82616  30.743  11.309  12.481
10291W        W82617  18.114  29.448  14.921
10292W        W82618   7.619   5.311   0.433
10293W        W82619  10.714  30.107   4.060
10294W        W82620  23.787   6.909   0.454
10295W        W82621   4.583  41.499  13.349
10296W        W82622  17.574   0.262  11.191
10297W        W82623   9.802  43.472   0.896
10298W        W82624  19.734  37.549  12.695
10299W        W82625  31.044   0.972   0.252
10300W        W82626   1.904  33.839  13.080
10301W        W82627  10.130   5.456  12.842
10302W        W82628  38.528  22.755  14.886
10303W        W82629  23.196  25.371  12.622
10304W        W82630  11.848  18.248  11.443
10305W        W82631  14.159  41.490  12.992
10306W        W82632  32.895  28.037  12.532
10307W        W82633  23.590  31.042   3.779
10308W        W82634  19.910  31.056   1.631
10309W        W82635   6.094  36.343   4.217
10310W        W82636  44.970  20.720  12.357
10311W        W82637  42.869   9.865  13.078
10312W        W82638  37.624   2.802  14.974
10313W        W82639  35.999  39.107   0.710
10314W        W82640   9.928  18.998   3.716
10315W        W82641   2.441  37.308   1.961
10316W        W82642  41.872   3.393  11.242
10317W        W82643  23.753  23.065  11.893
10318W        W82644  27.531  40.967   4.541
10319W        W82645  43.272  12.720   3.665
10320W        W82646   3.771  16.168   3.645
10321W        W82647   3.820  26.999   3.683
10322W        W82648  12.315  24.957   5.138
10323W        W82649  35.955   7.425   4.674
10324W        W82650  42.824  38.630  12.111
10325W        W82651  36.745  10.154  12.363
10326W        W82652   2.283  31.837  13.011
10327W        W82653  14.028  24.583   5.425
10328W        W82654  31.128  22.268  14.285
10329W        W82655  44.390  15.547   1.234
10330W        W82656  37.925  10.314   3.944
10331W        W82657   5.197  17.356  11.490
10332W        W82658   9.249  40.541   0.878
10333W        W82659  36.965  43.024   2.297
10334W        W82660   8.995  12.806   1.732
10335W        W82661  30.712   3.353   4.952
10336W        W82662  17.185  22.919  13.805
10337W        W82663  29.923   7.575   5.107
10338W        W82664  30.522  24.851  13.140
10339W        W82665  13.811  29.783  10.520
10340W        W82666  17.043  36.178  10.772
10341W        W82667  20.497   6.273  12.590
10342W        W82668   2.339  29.937  11.647
10343W        W82669  11.649  11.693  14.706
10344W        W82670  33.498  23.102   2.790
10345W        W82671  26.785  35.696  10.157
10346W        W82672  26.239  33.590   1.141
10347W        W82673   0.570  32.552   4.770
10348W        W82674   5.780  31.937   2.342
10349W        W82675  10.279  41.452  10.187
10350W        W82676  42.090   5.022   2.294
10351W        W82677  34.506  18.055  10.928
10352W        W82678   2.474  16.329   0.458
10353W        W82679  12.431  26.077   3.179
10354W        W82680  23.737  11.405  11.240
10355W        W82681   5.869  32.376  13.439
10356W        W82682  33.851  38.936   2.693
10357W        W82683   3.370   0.289   0.848
10358W        W82684  27.507   0.808   1.987
10359W        W82685  24.160  44.916  12.112
10360W        W82686  38.097  32.354  10.597
10361W        W82687  44.454  15.055  13.175
10362W        W82688  19.012  31.135   3.205
10363W        W82689   1.310  20.685   3.789
10364W        W82690  41.975   6.462  13.015
10365W        W82691  41.608  25.156   4.568
10366W        W82692  24.768  22.971   3.667
10367W        W82693  36.145  36.071  14.891
10368W        W82694  22.012   2.174   3.228
10369W        W82695   3.770   8.984   4.647
10370W        W82696  18.218  35.100  12.524
10371W        W82697  12.138   2.174  12.412
10372W        W82698  33.326  38.374  13.449
10373W        W82699  19.680   6.445  11.048
10374W        W82700  19.187  20.310   0.811
10375W        W82701  25.396  11.094  12.905
10376W        W82702  12.248   2.030  11.197
10377W        W82703   1.449  15.035  13.785
10378W        W82704  21.716  37.523   1.296
10379W        W82705  15.569  26.520   1.278
10380W        W82706  26.743  35.074   4.254
10381W        W82707   7.297   6.421  12.862
10382W        W82708  23.108  33.460   4.506
10383W        W82709  22.695  15.799   5.449
10384W        W82710  27.495  42.853  10.311
10385W        W82711  37.991  43.268   1.341
10386W        W82712  29.791  43.018   5.172
10387W        W82713  28.470  38.321  14.928
10388W        W82714  40.363  38.017  10.759
10389W        W82715  33.175  20.881  13.019
10390W        W82716  21.994  43.329  11.040
10391W        W82717  25.528  23.756   0.579
10392W        W82718  16.750  10.721  14.485
10393W        W82719  43.861   2.421  14.730
10394W        W82720  34.364   2.420   0.081
10395W        W82721  26.485  22.637  14.503
10396W        W82722  41.722  39.930  12.496
10397W        W82723   3.851  14.863   3.362
10398W        W82724  26.701  19.275   5.033
10399W        W82725  21.724  33.009   1.901
10400W        W82726  26.937  39.509  12.622
10401W        W82727  22.148  13.266  13.798
10402W        W82728  34.898  42.343   2.625
10403W        W82729  38.331   4.982  12.924
10404W        W82730  24.630  37.533   2.063
10405W        W82731  11.932  12.018  14.418
10406W        W82732   7.584   6.144   4.235
10407W        W82733  31.175  26.642  14.303
10408W        W82734  11.276  35.002   1.509
10409W        W82735   5.684   1.315  13.349
10410W        W82736  27.413  36.943   1.423
10411W        W82737  25.165  21.406  14.928
10412W        W82738  21.579  27.708  12.065
10413W        W82739  36.476  39.981   4.472
10414W        W82740  17.224  11.328  14.056
10415W        W82741  38.900   0.648   4.487
10416W        W82742  18.535  35.656   1.203
10417W        W82743  29.127   0.988  10.415
10418W        W82744  12.777  17.136   2.330
10419W        W82745  28.631   8.191   1.590
10420W        W82746  22.640  35.875   5.050
10421W        W82747  38.904  21.183   3.038
10422W        W82748  34.520   4.657  14.986
10423W        W82749  28.437  39.729  13.457
10424W        W82750  25.088  39.918   4.925
10425W        W82751   3.700  12.706   3.695
10426W        W82752  15.527  13.171   0.879
10427W        W82753  23.845  39.364   0.318
10428W        W82754   2.281  10.055   1.687
10429W        W82755   3.941  14.653   2.208
10430W        W82756  22.281  17.720  13.027
10431W        W82757  29.226  27.574  13.061
10432W        W82758  43.881  38.498   1.858
10433W        W82759   8.791  26.402   1.429
10434W        W82760  26.622   7.757  13.627
10435W        W82761   9.153  13.750   4.815
10436W        W82762  28.440  38.263  13.972
10437W        W82763  36.411  29.346  12.122
10438W        W82764  43.878  31.043   1.949
10439W        W82765  37.071  21.731   4.297
10440W        W82766   2.317  25.431   1.395
10441W        W82767  14.240  43.402   3.679
10442W        W82768   1.153  42.738  14.782
10443W        W82769  16.980  14.258   0.653
10444W        W82770  43.742   9.389   0.395
10445W        W82771  23.036   1.119  14.831
10446W        W82772  31.660   2.789  11.696
10447W        W82773  42.032  17.197   4.080
10448W        W82774  34.851  25.653   0.336
10449W        W82775  13.856   7.405   4.323
10450W        W82776  24.724   1.276   1.247
10451W        W82777  36.068  29.917   1.090
10452W        W82778  17.317  32.590   1.205
10453W        W82779  15.575  25.936  13.378
10454W        W82780   2.942   4.852  14.027
10455W        W82781  23.675  14.277  11.983
10456W        W82782  17.568  43.668  11.996
10457W        W82783  25.898  14.980  13.446
10458W        W82784  36.042  38.576   0.611
10459W        W82785   3.327  36.388   1.875
10460W        W82786   7.905  18.768   4.906
10461W        W82787   2.367  16.231  12.262
10462W        W82788  39.508  43.290  13.779
10463W        W82789   4.613  36.040  12.341
10464W        W82790  10.472  30.436   0.547
10465W        W82791   5.844  43.634   3.305
10466W        W82792  23.674  28.423   0.053
10467W        W82793  19.835   0.986   1.811
10468W        W82794  13.230   3.420   4.485
10469W        W82795  15.645  14.373   0.757
10470W        W82796   7.926  25.902   3.314
10471W        W82797  31.874  13.856   1.430
10472W        W82798  34.067  30.391   2.678
10473W        W82799   1.365  13.919   3.584
10474W        W82800  27.971  39.610   3.344
10475W        W82801   1.774  22.208   1.241
10476W        W82802  43.888  34.546   2.483
10477W        W82803  41.178  22.401  13.722
10478W        W82804  24.559   3.768   0.928
10479W        W82805  14.745  16.726  11.694
10480W        W82806  20.979  36.030  11.458
10481W        W82807  34.476  44.142  10.285
10482W        W82808   0.240  35.442   4.885
10483W        W82809  31.301  16.802   2.692
10484W        W82810   6.515  28.511   1.273
10485W        W82811  42.966   7.059  12.133
10486W        W82812  19.120  43.501   1.288
10487W        W82813  43.231  17.267   9.953
10488W        W82814  18.286  40.927  13.360
10489W        W82815  41.992   6.090   1.430
10490W        W82816  12.170  39.059   0.742
10491W        W82817  23.988  41.977  10.549
10492W        W82818  30.052  16.617  12.039
10493W        W82819   8.125  16.562   3.751
10494W        W82820   8.817  25.499  11.098
10495W        W82821  44.620  40.602  13.441
10496W        W82822  44.379   9.890   0.863
10497W        W82823  31.564   3.194   4.405
10498W        W82824  35.982  16.550   2.922
10499W        W82825  32.923  35.021  10.111
10500W        W82826  40.294  29.155   0.997
10501W        W82827  11.386  20.505   4.678
10502W        W82828  14.500  32.830  12.434
10503W        W82829  40.645  32.127  11.815
10504W        W82830  11.367  40.807   2.221
10505W        W82831  39.375  41.536  12.739
10506W        W82832   9.680  25.173  13.506
10507W        W82833  12.706  22.547  12.446
10508W        W82834  40.919  20.759   2.869
10509W        W82835  35.142  13.368  12.477
10510W        W82836  40.391   9.668   2.413
10511W        W82837  10.794  34.580   4.619
10512W        W82838  13.114  28.717   1.030
10513W        W82839   5.748  21.205   3.203
10514W        W82840  11.146  41.046  11.469
10515W        W82841  13.144  42.767  12.613
10516W        W82842  18.945  18.312  12.708
10517W        W82843  39.986   8.318   4.298
10518W        W82844  30.605  39.947   0.190
10519W        W82845  25.189  16.238   5.273
10520W        W82846   3.672  11.339  11.412
10521W        W82847  11.360  40.508   0.245
10522W        W82848  32.862   2.904  14.300
10523W        W82849  44.726   7.267   3.239
10524W        W82850  22.291  24.116  12.036
10525W        W82851   7.745  32.925  13.844
10526W        W82852   4.290  34.181   2.805
10527W        W82853   1.892  44.449  12.859
10528W        W82854  16.700  40.297   3.728
10529W        W82855  14.272  31.344   4.570
10530W        W82856   4.469  44.420  14.756
10531W        W82857   1.287   0.737   1.842
10532W        W82858   6.190  10.886  13.595
10533W        W82859  26.008   4.444  11.988
10534W        W82860  20.130   8.450  11.786
10535W        W82861  39.347   7.399   0.836
10536W        W82862  28.351   5.936  11.142
10537W        W82863  14.595  33.939   3.634
10538W        W82864  22.625  16.699  14.788
10539W        W82865  27.693   4.360  14.415
10540W        W82866   0.692  18.596   0.215
10541W        W82867  37.718  25.609  14.348
10542W        W82868   2.733  25.167   3.141
10543W        W82869  22.280  13.833   0.338
10544W        W82870  20.740   4.954  11.556
10545W        W82871  34.104  26.572  10.980
10546W        W82872  12.664  38.538  11.204
10547W        W82873  16.648  40.095  10.660
10548W        W82874  11.133  17.537  10.635
10549W        W82875   9.864  20.108   0.869
10550W        W82876   0.701  21.878  12.625
10551W        W82877  30.707   0.278   3.346
10552W        W82878  40.361  33.412  11.630
10553W        W82879  42.987   5.522  12.871
10554W        W82880   3.159  22.713   1.810
10555W        W82881  36.126   1.699   1.696
10556W        W82882  21.488  44.347  11.641
10557W        W82883  33.693  44.366   3.416
10558W        W82884  13.202   1.048   3.734
10559W        W82885  28.283  10.240  12.623
10560W        W82886  36.665  23.047   1.981
10561W        W82887  32.546  43.402   3.541
10562W        W82888  40.802  14.652  12.858
10563W        W82889   2.512  27.496   2.310
10564W        W82890  31.517  18.799   3.728
10565W        W82891  24.126  14.744  13.404
10566W        W82892  14.677  42.264  14.486
10567W        W82893  27.746   2.808  13.371
10568W        W82894  31.649  22.057   2.798
10569W        W82895   8.757  43.426  10.477
10570W        W82896  12.144  11.281   3.810
10571W        W82897  18.552  15.663   3.889
10572W        W82898  39.988  36.354   4.111
10573W        W82899  14.783  33.492  11.705
10574W        W82900  10.433  44.759  14.232
10575W        W82901  22.586  16.204   2.865
10576W        W82902  12.308   7.447  12.071
10577W        W82903  40.517  14.864  14.932
10578W        W82904  35.139  10.670   1.851
10579W        W82905  28.329  15.802  10.983
10580W        W82906  35.647  19.268   4.205
10581W        W82907  13.334   1.897  14.489
10582W        W82908  33.396  20.087   2.602
10583W        W82909  12.613   0.348   0.934
10584W        W82910  23.159   2.105  14.106
10585W        W82911  39.334  35.659   1.349
10586W        W82912  39.540  21.473   3.587
10587W        W82913   2.257  33.223   3.628
10588W        W82914  24.500  30.157  12.391
10589W        W82915  35.662   9.151   1.179
10590W        W82916  30.692   9.767   2.304
10591W        W82917  41.202  37.155   1.183
10592W        W82918  28.684  33.262  13.805
10593W        W82919  22.449   2.965  12.889
10594W        W82920  24.472  26.671  12.437
10595W        W82921  22.210  40.112   3.174
10596W        W82922  28.749  30.371  11.880
10597W        W82923  40.554  21.954  10.718
10598W        W82924  34.546   4.948   3.224
10599W        W82925  10.801   4.250  13.867
10600W        W82926  33.423  10.913   1.643
10601W        W82927  39.363  38.657  12.511
10602W        W82928   1.776   6.699   1.322
10603W        W82929  19.979  31.852  10.803
10604W        W82930  40.043  27.066   1.333
10605W        W82931  39.331  39.897   3.229
10606W        W82932  39.115  14.176  13.412
10607W        W82933  23.330  29.930  10.552
10608W        W82934   2.701  32.146   3.917
10609W        W82935   1.225  39.818   0.062
10610W        W82936  22.989  42.408  13.044
10611W        W82937  36.532  38.500  14.148
10612W        W82938  37.390   8.171   2.662
10613W        W82939  44.577  30.991  14.575
10614W        W82940  19.230  14.824   2.390
10615W        W82941  22.830  30.293   1.714
10616W        W82942  27.059  35.014  11.425
10617W        W82943   6.335  32.645   3.849
10618W        W82944  12.978   5.251  10.694
10619W        W82945  10.765   9.977   4.520
10620W        W82946  29.032  24.428   4.493
10621W        W82947  30.446   1.388  12.431
10622W        W82948  39.739  34.536   1.387
10623W        W82949  16.818  27.055   0.063
10624W        W82950  12.152   1.557   2.213
10625W        W82951  38.874  12.733  10.542
10626W        W82952   0.856  32.555  12.342
10627W        W82953   8.370   1.484  10.641
10628W        W82954  34.296  31.168   2.743
10629W        W82955  44.009  34.281   4.269
10630W        W82956  10.753  13.266   1.875
10631W        W82957  21.265  32.186  12.528
10632W        W82958  23.229  11.232   2.410
10633W        W82959   3.181  26.042   4.680
10634W        W82960  14.681  13.126   4.484
10635W        W82961  28.457  44.506  10.985
10636W        W82962  28.034   7.749  12.540
10637W        W82963  10.923  20.157  13.839
10638W        W82964  36.145   4.914   3.354
10639W        W82965  16.123  41.855   3.632
10640W        W82966  43.196  37.378   4.719
10641W        W82967  29.410  11.413  14.882
10642W        W82968  36.798   1.804   2.266
10643W        W82969  34.162  14.706  14.066
10644W        W82970  40.857  16.933   0.378
10645W        W82971  20.182  28.485   2.981
10646W        W82972  35.976  13.660   1.330
10647W        W82973  11.355  25.063   5.201
10648W        W82974  17.576  28.001   1.695
10649W        W82975   4.238  12.316   4.685
10650W        W82976  23.665   7.049   1.414
10651W        W82977   0.822  27.226  10.645
10652W        W82978  14.726   9.394   3.820
10653W        W82979  35.312  15.071   3.738
10654W        W82980  33.189  41.450  10.664
10655W        W82981  33.942  23.782  13.133
10656W        W82982  28.394  19.535  12.933
10657W        W82983  32.070   8.743   3.881
10658W        W82984   4.911  12.755  10.453
10659W        W82985  13.080   7.669  13.870
10660W        W82986  19.217  25.084   0.344
10661W        W82987  29.463  28.928  12.168
10662W        W82988  31.843  22.579   1.731
10663W        W82989  20.754  20.327  12.921
10664W        W82990  38.112   3.261   4.179
10665W        W82991  10.866  27.218   4.305
10666W        W82992  18.515   1.336   3.690
10667W        W82993  23.127  18.935  11.138
10668W        W82994  25.167  44.986   2.996
10669W        W82995  33.210  14.668   2.237
10670W        W82996  13.236   2.423  14.389
10671W        W82997  34.047   5.754  13.141
10672W        W82998   2.386  20.026  10.412
10673W        W82999  32.373   1.018  14.917
10674W        W83000  14.724  26.035   3.806
10675W        W83001  36.922  37.099  13.032
10676W        W83002  30.451   9.958   9.842
10677W        W83003   8.883  41.206  13.938
10678W        W83004  38.678   9.526  14.352
10679W        W83005  43.474  29.633   4.405
10680W        W83006  32.862   9.177   2.598
10681W        W83007   3.989  18.898  11.483
10682W        W83008  39.124  37.374   4.086
10683W        W83009  16.812  23.564   1.499
10684W        W83010  24.392  23.499  13.438
10685W        W83011  13.674  43.932   4.872
10686W        W83012  21.057  37.453   1.033
10687W        W83013   6.134  32.615   3.380
10688W        W83014   3.207  41.616   4.070
10689W        W83015  40.843  38.411   3.212
10690W        W83016  21.511  35.594   0.363
10691W        W83017  29.551  31.278   3.425
10692W        W83018  27.778  39.094   2.376
10693W        W83019   1.411   6.425   3.239
10694W        W83020  15.837  38.257   2.709
10695W        W83021  18.480  35.886   2.542
10696W        W83022   8.372  39.813   2.789
10697W        W83023  10.331  21.622   1.850
10698W        W83024  36.587  39.449   4.428
10699W        W83025   3.651  39.365  11.958
10700W        W83026  26.758  26.735   2.814
10701W        W83027   3.241   3.415   1.107
10702W        W83028  32.401  12.184  14.255
10703W        W83029  41.147  37.935  11.029
10704W        W83030  26.287  43.495  13.855
10705W        W83031  38.330  36.953  13.843
10706W        W83032   3.691  25.930   4.659
10707W        W83033  41.080  30.034  11.906
10708W        W83034  23.065  28.076   0.593
10709W        W83035  22.377   8.152   0.271
10710W        W83036  13.151   8.897   2.888
10711W        W83037  28.607  10.674   1.229
10712W        W83038   8.837  31.668   3.270
10713W        W83039  33.263  27.159  14.776
10714W        W83040  15.662  29.364   2.244
10715W        W83041  24.580  39.292  11.403
10716W        W83042  40.356  26.244  11.199
10717W        W83043  22.580  15.381  14.318
10718W        W83044   3.931  16.840  14.308
10719W        W83045   5.697  11.413  14.010
10720W        W83046  14.834  39.102  13.351
10721W        W83047  35.334  24.578  14.754
10722W        W83048  18.571  35.021  13.874
10723W        W83049  20.384  36.810  14.753
10724W        W83050  22.631  24.006   1.447
10725W        W83051  28.999  10.373   4.256
10726W        W83052  34.555   6.378   2.963
10727W        W83053   5.125  13.221   2.845
10728W        W83054   4.960  12.021  13.913
10729W        W83055  29.535   0.374  12.011
10730W        W83056   7.694  10.446  12.492
10731W        W83057  40.515   0.977   0.969
10732W        W83058  10.716  23.475  10.666
10733W        W83059  38.042  32.581  13.930
10734W        W83060  41.070  11.887   4.333
10735W        W83061  10.393  39.992   4.101
10736W        W83062  15.161  26.646   3.978
10737W        W83063   2.570   5.695  11.894
10738W        W83064   9.806  19.802   1.271
10739W        W83065   3.439   4.538  14.444
10740W        W83066  40.519  16.597   1.131
10741W        W83067   4.798  33.994  13.772
10742W        W83068  22.213   1.875  11.947
10743W        W83069   1.933  26.055   3.225
10744W        W83070   8.553  17.946  12.139
10745W        W83071  29.074  14.089   1.772
10746W        W83072   1.471  29.587   0.227
10747W        W83073  11.248  24.581  12.600
10748W        W83074  33.031  39.283  11.933
10749W        W83075  24.345  23.522  10.648
10750W        W83076  41.792  21.628   3.724
10751W        W83077  32.818   2.257  14.977
10752W        W83078  15.955  35.379   4.085
10753W        W83079  31.378   1.223   1.823
10754W        W83080  43.370   4.280  13.068
10755W        W83081  35.597  41.411   4.660
10756W        W83082  19.308  36.889  14.806
10757W        W83083   8.675  10.783  14.036
10758W        W83084   8.777  39.820   3.902
10759W        W83085   7.750   4.122   2.246
10760W        W83086  24.033  15.598   2.683
10761W        W83087   6.475  32.934  11.186
10762W        W83088  20.083  18.058  14.275
10763W        W83089  19.876  43.273   4.273
10764W        W83090  31.100  16.974  13.487
10765W        W83091  40.595  25.627  14.925
10766W        W83092  12.344  40.083  13.852
10767W        W83093  25.163   6.194  13.115
10768W        W83094  17.193  31.178   1.503
10769W        W83095  23.475   6.690   2.790
10770W        W83096  18.368  36.280   3.122
10771W        W83097  26.763   8.191   1.289
10772W        W83098  22.727  22.086   0.674
10773W        W83099  19.162   9.283  12.610
10774W        W83100  25.593  15.826   4.556
10775W        W83101  29.714  37.531  12.423
10776W        W83102   9.896  34.019   1.247
10777W        W83103  22.739  29.858  11.367
10778W        W83104  15.030  37.068   4.438
10779W        W83105  15.779  36.018  13.014
10780W        W83106  13.551  17.518  14.294
10781W        W83107  43.070   8.006  13.818
10782W        W83108  11.098  38.923  13.584
10783W        W83109  10.786  10.467   0.167
10784W        W83110  30.271  36.462  13.839
10785W        W83111  10.555   0.479  11.498
10786W        W83112  13.781  43.988  14.133
10787W        W83113  19.370  37.481  13.596
10788W        W83114  19.745   2.642   0.777
10789W        W83115   9.997  26.978  11.251
10790W        W83116   7.742  13.859   2.854
10791W        W83117  27.525  40.492   2.100
10792W        W83118  17.139  21.244  13.084
10793W        W83119  39.935  10.297  13.878
10794W        W83120  10.669  15.259  11.434
10795W        W83121  42.901  33.042  12.969
10796W        W83122  38.026  41.738   0.113
10797W        W83123  14.327  21.107  11.893
10798W        W83124  33.766  18.360   2.779
10799W        W83125  33.560  40.764   1.766
10800W        W83126  10.580  28.592   2.749
10801W        W83127  16.857   5.171   4.217
10802W        W83128  18.666  33.403   0.651
10803W        W83129  23.247   3.670   1.790
10804W        W83130   9.809  26.606   1.249
10805W        W83131  20.116  35.863  10.311
10806W        W83132  14.263  11.663  13.910
10807W        W83133  33.099  10.324  12.796
10808W        W83134  11.642  35.408  10.704
10809W        W83135  22.919   4.885   4.593
10810W        W83136  37.968  35.337   1.281
10811W        W83137   8.336  16.718   3.317
10812W        W83138  26.714  24.604   3.938
10813W        W83139  44.403  30.948   1.321
10814W        W83140  30.705  19.651   2.572
10815W        W83141   9.717  30.299   0.870
10816W        W83142  12.811  29.118   4.540
10817W        W83143   5.912   3.325   4.837
10818W        W83144  38.907  29.631   2.330
10819W        W83145   3.673   5.389  11.657
10820W        W83146  40.967  39.979   4.411
10821W        W83147  13.100  18.076  12.027
10822W        W83148  24.179  34.857   3.128
10823W        W83149  20.481   3.765  14.194
10824W        W83150  22.743  28.300   1.473
10825W        W83151  36.667   8.022   3.189
10826W        W83152  32.678  29.231  12.968
10827W        W83153  40.244  26.659  11.505
10828W        W83154  12.630  44.376  10.761
10829W        W83155  33.354  18.568  10.600
10830W        W83156  13.540  24.680  13.551
10831W        W83157  17.861  42.315   2.088
10832W        W83158  44.910  35.733  13.589
10833W        W83159  16.025  16.982  13.738
10834W        W83160  44.728  18.145   2.275
10835W        W83161   0.399  34.586  10.675
10836W        W83162  36.926  30.094  12.003
10837W        W83163  42.777  13.184   2.077
10838W        W83164  39.751  11.366   1.746
10839W        W83165  32.449   0.778   4.416
10840W        W83166  31.562   0.988   0.881
10841W        W83167  11.188  19.682   0.983
10842W        W83168  30.486  36.325   3.688
10843W        W83169  15.917  13.745   0.251
10844W        W83170  26.504  44.951   4.645
10845W        W83171   2.746  13.107  10.333
10846W        W83172  43.467  22.148   3.612
10847W        W83173  32.559  44.803  10.362
10848W        W83174   7.726   1.737   4.123
10849W        W83175  10.895  10.843   4.182
10850W        W83176  39.559  18.742  13.815
10851W        W83177  32.965  35.531   5.562
10852W        W83178  21.671  33.091  14.981
10853W        W83179  43.106  33.875   4.144
10854W        W83180  31.984  30.823   1.870
10855W        W83181   8.907  15.726  14.885
10856W        W83182  31.300  27.664   3.205
10857W        W83183  15.841   2.427  10.894
10858W        W83184  39.911   7.161   2.164
10859W        W83185  31.842  21.689  12.821
10860W        W83186  12.133  10.308  13.483
10861W        W83187  13.276  40.891  11.973
10862W        W83188  24.918  14.613  12.285
10863W        W83189  37.384  36.861  11.648
10864W        W83190  38.945   6.324   0.412
10865W        W83191  27.710  26.249   2.417
10866W        W83192  18.909   4.828   4.238
10867W        W83193  32.945  42.000  12.004
10868W        W83194   5.794   1.169  12.531
10869W        W83195  44.623   0.354  12.816
10870W        W83196  24.263  26.572  11.980
10871W        W83197   7.458  11.893   2.260
10872W        W83198   6.788  12.907   3.125
10873W        W83199  44.371  36.501  11.435
10874W        W83200  13.544  11.919   2.763
10875W        W83201  31.549  25.585   0.968
10876W        W83202  21.009  28.851  11.146
10877W        W83203  44.947  15.301  10.835
10878W        W83204  42.416  28.609  14.768
10879W        W83205  36.593   9.762  10.626
10880W        W83206  25.442  17.688  13.229
10881W        W83207  28.111   3.230  13.542
10882W        W83208  21.013  27.392  13.836
10883W        W83209   9.353  24.179   4.654
10884W        W83210  43.211  39.514  11.557
10885W        W83211  10.605  25.151  13.777
10886W        W83212  24.794  21.681  11.062
10887W        W83213  29.711  17.157   0.795
10888W        W83214   8.550  23.326   2.136
10889W        W83215  24.676   3.903   1.406
10890W        W83216  20.272  14.250   3.761
10891W        W83217  20.488  14.612   4.653
10892W        W83218  34.364   2.432  14.116
10893W        W83219  22.654  33.042  10.230
10894W        W83220  16.619  21.460   4.148
10895W        W83221   3.233  36.475  13.466
10896W        W83222  24.856  35.980   3.252
10897W        W83223  19.080  43.830  10.561
10898W        W83224  19.209  31.231   2.308
10899W        W83225  31.607  43.201  11.145
10900W        W83226   0.785  44.506  14.500
10901W        W83227  30.275  39.952  11.581
10902W        W83228   1.648  34.935   3.791
10903W        W83229   4.295  43.089  13.584
10904W        W83230  42.327  25.524   4.051
10905W        W83231  22.975  30.671   0.324
10906W        W83232  30.811  44.731  11.582
10907W        W83233  34.018  44.845  10.624
10908W        W83234  28.126   3.813   2.786
10909W        W83235  43.433   0.452  11.223
10910W        W83236  32.854  39.087   0.899
10911W        W83237  22.505  24.164  12.486
10912W        W83238  43.681   2.375  13.603
10913W        W83239  14.673  35.679   4.560
10914W        W83240  31.120  13.845   3.246
10915W        W83241  18.171  21.480   0.573
10916W        W83242   0.386  28.674   1.450
10917W        W83243  27.627  29.409  10.342
10918W        W83244  31.052  27.985   0.366
10919W        W83245  32.018  26.176   2.790
10920W        W83246  11.438  22.527   4.386
10921W        W83247   1.382  36.509   0.394
10922W        W83248  26.351   7.440   1.939
10923W        W83249  11.870  43.302  14.311
10924W        W83250  39.487  18.195  13.868
10925W        W83251  20.653  36.052   4.530
10926W        W83252  26.147  39.105   2.546
10927W        W83253   8.247  10.682   0.533
10928W        W83254  30.654  18.369   4.057
10929W        W83255  21.357  16.882  12.715
10930W        W83256  34.693  15.307   0.678
10931W        W83257   0.204  33.892   2.637
10932W        W83258   5.291  23.413  10.666
10933W        W83259  19.140  21.111   1.879
10934W        W83260   1.891  19.150   0.346
10935W        W83261  33.529  41.193  10.331
10936W        W83262  37.303  29.605   3.974
10937W        W83263   8.758  43.348  12.738
10938W        W83264   7.954  28.298  11.477
10939W        W83265  44.492  25.629   3.067
10940W        W83266  39.911  15.011   0.993
10941W        W83267   5.722   8.361  13.963
10942W        W83268  40.780  16.484   2.820
10943W        W83269  37.012  12.781  14.899
10944W        W83270  17.048   6.036   4.058
10945W        W83271  12.221  44.287   3.575
10946W        W83272  23.447  31.973  12.979
10947W        W83273   4.195  40.903   2.556
10948W        W83274  10.311  25.512   3.875
10949W        W83275  23.662  39.679  11.717
10950W        W83276   4.640  44.236   3.383
10951W        W83277   8.205  17.208  13.168
10952W        W83278  22.334  41.305   0.209
10953W        W83279  42.776   2.547  13.464
10954W        W83280   0.316  44.802   0.634
10955W        W83281  40.680  30.206  13.132
10956W        W83282  18.027  29.848   0.865
10957W        W83283  13.641  34.814   3.273
10958W        W83284   2.261  41.469   0.346
10959W        W83285  23.476  40.679  14.722
10960W        W83286  28.500  23.680  14.309
10961W        W83287  24.189  44.497  14.451
10962W        W83288  32.890  27.702   1.123
10963W        W83289  11.653  32.359   2.148
10964W        W83290  35.775   5.869   2.321
10965W        W83291  31.074   5.318  10.923
10966W        W83292  12.748  44.728  13.762
10967W        W83293   8.445   3.871  12.578
10968W        W83294  30.795  22.514  10.267
10969W        W83295  34.269  40.845  13.862
10970W        W83296   8.546  34.585  11.638
10971W        W83297  38.309  14.811  11.034
10972W        W83298  19.302  15.761   4.095
10973W        W83299  39.394  20.034   3.333
10974W        W83300  36.287  22.730  10.700
10975W        W83301  19.125  15.722  13.764
10976W        W83302  42.039  30.713   1.673
10977W        W83303   5.871  32.925  13.382
10978W        W83304   5.351   3.920   0.635
10979W        W83305  28.661  17.224   4.596
10980W        W83306  26.408  28.055  13.023
10981W        W83307  12.221  17.904   1.315
10982W        W83308  41.531   2.608   2.280
10983W        W83309  21.554  34.626  14.472
10984W        W83310  27.592  24.944  10.975
10985W        W83311  31.963  43.008   5.072
10986W        W83312  12.134  17.108   3.521
10987W        W83313   5.348  14.766   2.374
10988W        W83314  44.880  28.707   0.652
10989W        W83315   7.156  41.459  11.196
10990W        W83316  26.618  10.104  14.861
10991W        W83317  44.215   7.357  13.445
10992W        W83318  25.735  26.342  11.164
10993W        W83319  41.589  29.648   0.485
10994W        W83320   1.919  41.334   4.003
10995W        W83321  27.660  16.586   2.669
10996W        W83322  37.918  34.239  11.176
10997W        W83323  42.455  21.278   0.153
10998W        W83324  24.857  24.111  14.576
10999W        W83325  22.525  32.670   0.198
11000W        W83326  13.061  16.618  11.604
11001W        W83327  19.277   2.340   1.938
11002W        W83328  34.716  11.277  13.357
11003W        W83329   9.351  25.166  12.752
11004W        W83330  10.614   1.245  12.881
11005W        W83331  23.994  30.604   3.265
11006W        W83332   5.284  23.493   4.303
11007W        W83333   0.322  25.450   3.753
11008W        W83334   5.233  35.116   2.944
11009W        W83335  12.162  40.155   3.593
11010W        W83336   0.315  17.674   2.659
11011W        W83337  31.593   8.875   4.776
11012W        W83338   5.984  43.025   3.163
11013W        W83339  43.876  11.107   0.799
11014W        W83340  12.338   8.773  10.952
11015W        W83341  27.000   9.755   1.473
11016W        W83342  31.995  33.192  14.479
11017W        W83343  38.996  15.756   2.143
11018W        W83344   1.159  44.062   1.411
11019W        W83345   2.224  18.532  11.538
11020W        W83346  33.416  11.338  10.628
11021W        W83347   0.876   7.670  11.186
11022W        W83348   5.717  31.344  13.529
11023W        W83349  37.980  43.920   4.884
11024W        W83350  34.494  42.879  11.137
11025W        W83351   0.715  29.045   0.500
11026W        W83352  13.611  11.768   2.285
11027W        W83353  20.212  25.185   0.416
11028W        W83354  18.719  13.944  10.388
11029W        W83355   8.774  12.344   1.765
11030W        W83356  31.407   8.425   4.572
11031W        W83357  20.977  28.000   4.100
11032W        W83358   3.842  33.478   3.648
11033W        W83359  25.427  13.048  11.097
11034W        W83360  39.850  21.024   4.049
11035W        W83361  21.199  29.021   2.082
11036W        W83362   5.819  22.078  12.367
11037W        W83363  16.241   2.290   1.156
11038W        W83364  36.945   9.194  11.375
11039W        W83365   5.266  38.438   1.351
11040W        W83366  31.629   5.920   4.133
11041W        W83367  28.546  20.278  12.480
11042W        W83368  26.964  38.281  13.114
11043W        W83369  34.126  25.737   4.935
11044W        W83370  39.838   4.774   1.206
11045W        W83371   0.702  31.464   1.900
11046W        W83372   7.469  43.781  13.131
11047W        W83373  10.231  36.339  11.636
11048W        W83374  11.297  42.077  14.380
11049W        W83375  36.950  18.995   1.315
11050W        W83376  13.071  23.102   3.567
11051W        W83377  33.353  30.878   0.395
11052W        W83378  34.675   3.738   0.048
11053W        W83379  32.139  36.004   3.682
11054W        W83380   7.804   9.089  11.694
11055W        W83381  21.819  43.377   4.432
11056W        W83382   0.923  34.140   4.098
11057W        W83383  40.564  11.693   4.339
11058W        W83384  25.883  29.857  14.453
11059W        W83385  16.812  35.600  14.869
11060W        W83386  30.948  26.051  11.996
11061W        W83387  11.292  39.833   0.835
11062W        W83388   7.933  11.447  12.497
11063W        W83389  43.023  42.430  14.470
11064W        W83390  37.662   8.047   0.360
11065W        W83391  15.220   9.604  11.393
11066W        W83392   5.202  23.689   3.822
11067W        W83393  43.445  20.695   2.172
11068W        W83394  41.443  39.805   2.825
11069W        W83395  36.293  10.308   1.229
11070W        W83396  27.890   8.155  13.885
11071W        W83397   2.986   6.844  13.284
11072W        W83398  27.179  27.996  14.941
11073W        W83399   5.789  40.305  13.916
11074W        W83400  39.570  24.481  13.553
11075W        W83401  31.892   7.444   4.156
11076W        W83402  26.941   3.586   0.417
11077W        W83403  13.647  23.678  12.809
11078W        W83404  37.458  42.626   3.331
11079W        W83405  21.158  13.616   1.241
11080W        W83406  30.426  30.972   2.648
11081W        W83407  20.326  20.055   1.047
11082W        W83408  12.879   5.759  14.852
11083W        W83409   2.874  22.585   3.218
11084W        W83410   7.665  25.674  13.529
11085W        W83411  32.733  37.999  12.289
11086W        W83412   0.713  32.570   3.860
11087W        W83413  20.268   2.117  12.049
11088W        W83414  21.411  17.988   0.878
11089W        W83415  26.592   5.130   3.431
11090W        W83416  30.470  13.644  13.493
11091W        W83417   8.768  41.541  14.315
11092W        W83418  16.814   5.904  12.958
11093W        W83419  22.630  26.929   4.590
11094W        W83420   1.817   5.004  13.561
11095W        W83421  16.657  33.825  11.143
11096W        W83422  14.161  26.701  14.512
11097W        W83423  37.098  15.444  13.430
11098W        W83424  26.314  27.737   4.569
11099W        W83425   5.501  10.795   3.800
11100W        W83426   3.925  35.480   2.731
11101W        W83427  41.274   0.740   2.707
11102W        W83428   5.268  12.315  10.739
11103W        W83429  24.860  23.578   4.363
11104W        W83430  10.259  24.646   0.036
11105W        W83431  35.074   2.311   2.747
11106W        W83432  22.454   8.691  10.611
11107W        W83433  15.605  27.107   4.532
11108W        W83434  24.363  13.720   0.876
11109W        W83435  18.044  36.090   2.745
11110W        W83436  11.322   9.379   2.800
11111W        W83437  34.849   3.414   0.425
11112W        W83438  21.121  35.939  10.601
11113W        W83439  41.546  22.591   2.316
11114W        W83440  40.472  15.589  10.847
11115W        W83441  34.071  28.901  12.632
11116W        W83442  42.059  31.536  11.665
11117W        W83443  38.050  29.062   3.889
11118W        W83444  41.272  15.756   1.734
11119W        W83445  22.572  20.657  12.043
11120W        W83446  24.771  40.414  12.509
11121W        W83447   0.256  20.004  12.660
11122W        W83448  13.572  36.585  10.693
11123W        W83449  22.229  16.402   4.667
11124W        W83450  18.563  11.676   2.886
11125W        W83451   5.268  18.240  10.466
11126W        W83452   5.959  17.052  11.144
11127W        W83453  10.472  18.615   4.177
11128W        W83454  19.285  41.198  14.223
11129W        W83455   0.256  30.037  13.486
11130W        W83456   7.249   2.232  12.992
11131W        W83457  34.677  39.262   4.223
11132W        W83458  13.836  41.952   2.954
11133W        W83459   3.704  21.932   4.273
11134W        W83460  30.495  41.806  11.089
11135W        W83461  26.624  20.674  11.066
11136W        W83462   5.525  18.866   1.383
11137W        W83463  13.096   7.664  11.573
11138W        W83464  34.593  33.141   2.253
11139W        W83465   4.656  11.246  11.554
11140W        W83466  21.622  38.827   0.389
11141W        W83467  42.005  39.411  13.457
11142W        W83468  41.454  36.813   3.367
11143W        W83469   7.891  26.219   4.934
11144W        W83470  21.771  26.596   0.317
11145W        W83471  15.233  15.122   4.593
11146W        W83472   5.877  37.477  11.012
11147W        W83473  40.512  31.371  11.551
11148W        W83474  16.484   4.114   4.181
11149W        W83475  21.437  12.244  11.706
11150W        W83476  17.173  37.732   3.124
11151W        W83477  13.514   3.247   3.094
11152W        W83478   6.762  23.314   2.812
11153W        W83479  22.618   0.955   4.345
11154W        W83480   5.643  42.971   2.310
11155W        W83481   7.319   4.950  14.982
11156W        W83482  36.055  37.287   1.203
11157W        W83483  27.531  11.376   4.619
11158W        W83484   8.190  41.515  13.879
11159W        W83485   8.340  39.363   3.697
11160W        W83486  39.706  18.399  11.995
11161W        W83487  36.337  15.618   4.292
11162W        W83488  44.046   1.836  11.269
11163W        W83489  20.015  16.753  12.541
11164W        W83490   0.084  32.220   0.432
11165W        W83491  33.924  37.317  12.363
11166W        W83492  32.067  22.247   3.081
11167W        W83493  30.727  12.483   4.588
11168W        W83494  25.417  40.655  11.133
11169W        W83495  21.542   5.733   0.464
11170W        W83496  29.054  35.984  11.425
11171W        W83497  24.037  19.644   3.763
11172W        W83498  12.240  32.558  11.702
11173W        W83499  30.734  32.769   4.461
11174W        W83500  32.641  22.507   4.729
11175W        W83501  37.251  10.430   4.606
11176W        W83502  16.057  27.952  14.035
11177W        W83503  42.877  32.123  13.909
11178W        W83504  40.001   6.529   1.337
11179W        W83505  17.370  36.718  11.579
11180W        W83506  27.441  12.659   3.329
11181W        W83507  31.483  21.535   3.544
11182W        W83508  34.068  28.001  12.460
11183W        W83509  27.990  23.603   4.175
11184W        W83510  25.183  40.328   2.806
11185W        W83511   0.815  36.887   3.245
11186W        W83512  11.539  10.813  11.914
11187W        W83513   2.278  17.053  13.653
11188W        W83514   0.794  33.849   0.489
11189W        W83515  17.536  42.704   2.361
11190W        W83516  26.448  41.924   1.813
11191W        W83517  32.460  41.264   4.496
11192W        W83518  41.912  34.245  11.144
11193W        W83519  13.293  38.771   4.863
11194W        W83520   9.861  38.183  14.092
11195W        W83521  29.538  13.803  10.750
11196W        W83522  11.577   9.775  11.145
11197W        W83523  42.815   4.737   3.431
11198W        W83524   5.384  43.264   0.055
11199W        W83525  22.222  23.696   1.214
11200W        W83526  12.628  40.067   3.110
11201W        W83527  44.355  39.238  11.851
11202W        W83528  33.160  18.774   2.319
11203W        W83529   3.776   5.884  11.449
11204W        W83530  31.962   6.738  11.916
11205W        W83531  25.980   5.354   3.125
11206W        W83532  22.580   7.604   9.697
11207W        W83533  17.151   4.532   4.138
11208W        W83534  36.899  28.739  12.466
11209W        W83535   7.506  30.001   2.807
11210W        W83536  10.157  20.231  13.722
11211W        W83537  12.374  15.721   4.114
11212W        W83538  41.935  14.599  11.686
11213W        W83539  44.874  35.885  14.714
11214W        W83540  19.108   9.095   4.445
11215W        W83541  33.407  36.982   4.181
11216W        W83542  18.569   0.959  12.946
11217W        W83543  30.942  30.963  12.654
11218W        W83544  29.439   5.419   2.671
11219W        W83545   5.817  13.987  14.083
11220W        W83546  29.173  10.669   3.679
11221W        W83547  20.576  15.671   2.665
11222W        W83548  32.444  18.578  14.415
11223W        W83549  44.072  27.383   3.706
11224W        W83550  25.252  33.303   2.775
11225W        W83551  31.341   8.185   3.269
11226W        W83552  34.082  10.811  14.390
11227W        W83553   0.891  18.513   0.923
11228W        W83554  17.594   0.134  13.384
11229W        W83555  23.320  16.200  11.544
11230W        W83556  40.259   5.797  13.813
11231W        W83557  15.838   6.800  10.928
11232W        W83558  41.377  43.219  11.274
11233W        W83559   0.001  17.025   2.686
11234W        W83560  38.937  14.854   0.770
11235W        W83561   7.459  29.894  14.469
11236W        W83562  11.351  14.157  13.751
11237W        W83563   9.304  38.764   0.121
11238W        W83564   2.231  39.296  13.340
11239W        W83565  19.193  25.509  11.592
11240W        W83566  30.974  26.587   4.655
11241W        W83567  12.387  23.628   2.602
11242W        W83568   4.890  33.565   3.660
11243W        W83569   1.380  37.864   1.928
11244W        W83570   1.598   5.844   0.500
11245W        W83571  21.685  30.371  14.521
11246W        W83572  31.418  40.912   4.037
11247W        W83573  30.693  19.498  13.419
11248W        W83574  12.247  23.137   0.765
11249W        W83575  15.088  34.830  10.677
11250W        W83576  25.026  32.341  13.485
11251W        W83577  15.481  16.714   1.180
11252W        W83578  14.131  28.707   3.421
11253W        W83579  25.468  30.439   3.376
11254W        W83580   3.283  39.288  11.095
11255W        W83581  38.096  42.830   3.428
11256W        W83582  44.699  40.891   2.083
11257W        W83583   5.094   7.428   3.655
11258W        W83584  10.573  18.677  10.487
11259W        W83585  35.696  31.430   0.441
11260W        W83586  20.053  25.036   4.815
11261W        W83587  36.816  17.151   2.867
11262W        W83588  10.454  14.669   2.233
11263W        W83589  23.911   5.904   3.780
11264W        W83590  25.656  35.446  14.882
11265W        W83591  43.616  22.973  11.207
11266W        W83592  22.488  31.846  13.198
11267W        W83593  42.018  12.280   3.847
11268W        W83594  34.813  33.948   2.870
11269W        W83595  12.254  17.073   2.546
11270W        W83596  21.790   2.998   1.869
11271W        W83597  23.069  38.324   0.273
11272W        W83598  30.863  31.584   4.164
11273W        W83599   5.248  34.061  13.504
11274W        W83600  34.003  20.991   2.323
11275W        W83601  41.978  44.721  13.527
11276W        W83602  37.561  26.478  14.837
11277W        W83603  13.636  42.431   3.717
11278W        W83604  39.142  24.190  13.557
11279W        W83605  37.582  41.294   0.764
11280W        W83606   4.650  19.749   3.812
11281W        W83607   0.330  21.085   1.956
11282W        W83608  10.046  41.810  14.801
11283W        W83609  41.597  41.577  12.154
11284W        W83610  33.949   2.187  13.804
11285W        W83611  38.186  31.191  11.747
11286W        W83612  41.458   8.117   4.283
11287W        W83613  39.461  10.739   9.188
11288W        W83614  30.566  24.772   0.523
11289W        W83615  12.021  43.317  11.669
11290W        W83616  24.303  10.664   4.560
11291W        W83617  36.449  39.973   3.186
11292W        W83618   1.456  38.527  12.035
11293W        W83619  14.198  18.209   3.085
11294W        W83620  36.622  21.957   2.707
11295W        W83621   2.670   4.485   3.620
11296W        W83622   7.697  42.530   2.850
11297W        W83623  22.068  12.632   3.072
11298W        W83624  18.748  18.579  12.001
11299W        W83625  20.289  19.558   4.569
11300W        W83626  15.578  39.834   1.867
11301W        W83627  22.562  39.882   0.303
11302W        W83628  22.058  27.639   4.653
11303W        W83629  24.959  10.726  11.043
11304W        W83630   4.190  21.626  12.338
11305W        W83631   0.408  38.657  12.092
11306W        W83632  42.039  26.635  12.914
11307W        W83633   2.947  22.489   1.319
11308W        W83634   0.264   7.879   0.409
11309W        W83635  26.999  20.229  11.539
11310W        W83636   7.864  23.088   4.869
11311W        W83637  35.779  36.962   2.774
11312W        W83638   3.428  15.125   0.188
11313W        W83639  19.185   8.203  11.694
11314W        W83640  44.695   0.065   3.658
11315W        W83641  34.506  28.700   2.339
11316W        W83642  16.188  25.646  11.671
11317W        W83643  39.427   9.778  14.874
11318W        W83644   5.942  11.708   3.707
11319W        W83645   0.984  27.223   2.279
11320W        W83646  20.582  24.370   5.148
11321W        W83647   1.241   6.133   1.848
11322W        W83648  25.453   4.925   0.108
11323W        W83649  35.135  19.624   2.849
11324W        W83650  30.176   4.133  12.768
11325W        W83651  44.444  11.242   1.298
11326W        W83652  43.241   3.327  12.704
11327W        W83653  14.261  39.393   4.633
11328W        W83654  19.103  15.258   4.632
11329W        W83655   4.207   1.197   3.244
11330W        W83656  44.907  32.143  11.853
11331W        W83657  17.328   3.852   0.471
11332W        W83658   1.932  34.365  12.981
11333W        W83659   5.876  10.449   0.751
11334W        W83660  43.829  28.182  11.957
11335W        W83661  33.843  24.653   2.963
11336W        W83662   9.411  12.156  11.682
11337W        W83663  28.938  43.460   3.180
11338W        W83664  41.862   6.956  13.489
11339W        W83665  17.260  15.297   3.706
11340W        W83666  32.644  13.649   2.395
11341W        W83667   4.229  11.342   2.805
11342W        W83668  44.268   7.163  12.033
11343W        W83669  31.396   0.329  11.648
11344W        W83670  41.516  14.323  11.777
11345W        W83671  12.670  28.447  13.799
11346W        W83672  39.413  15.282  11.656
11347W        W83673  27.963  40.436  10.505
11348W        W83674   0.306  38.982  10.902
11349W        W83675  27.091  39.365  14.233
11350W        W83676  28.053  38.549   0.150
11351W        W83677  11.403  44.705   3.009
11352W        W83678  26.490  33.818   0.733
11353W        W83679  43.950  15.831  13.757
11354W        W83680  19.720   5.763  13.947
11355W        W83681   0.535  20.555  14.391
11356W        W83682   9.674  37.384   2.932
11357W        W83683  44.177  28.477   4.880
11358W        W83684   8.695  10.404  11.938
11359W        W83685  41.932  44.494   4.066
11360W        W83686  28.002  31.661  11.579
11361W        W83687  31.052  23.939   4.328
11362W        W83688  27.731  20.495   4.633
11363W        W83689  35.331  28.618   3.782
11364W        W83690  29.903   6.188   0.723
11365W        W83691  19.030  42.357   0.411
11366W        W83692  18.258  19.768  12.970
11367W        W83693  44.183  42.822   1.825
11368W        W83694   0.067  25.615   2.269
11369W        W83695  16.563  32.255  13.370
11370W        W83696  26.062  26.583  13.881
11371W        W83697  11.357   0.686  13.177
11372W        W83698   1.937  24.514  14.723
11373W        W83699  25.095   3.423   1.961
11374W        W83700   2.836  18.043   4.502
11375W        W83701  28.901  24.090  12.002
11376W        W83702  12.201  27.483   9.613
11377W        W83703   6.679  32.955  14.897
11378W        W83704   7.793  42.563   4.189
11379W        W83705  43.715  11.426  10.480
11380W        W83706  21.310  10.494   0.437
11381W        W83707  13.696  41.949   4.932
11382W        W83708  21.946  11.363  13.936
11383W        W83709  19.777  30.337   2.379
11384W        W83710  37.097  12.124  10.850
11385W        W83711  14.845  22.331  10.625
11386W        W83712  29.440  35.223   3.727
11387W        W83713  16.046  28.898  10.736
11388W        W83714  17.314   8.793  11.596
11389W        W83715  19.152  39.813  13.085
11390W        W83716  33.902  13.823   3.464
11391W        W83717  11.289   1.477   1.189
11392W        W83718  31.632   9.231  11.544
11393W        W83719  27.690  36.054   2.377
11394W        W83720  31.903  10.414  14.120
11395W        W83721  29.711   0.326  13.029
11396W        W83722  24.457   2.907  12.959
11397W        W83723  20.567   4.709   0.499
11398W        W83724  35.189  11.426   2.234
11399W        W83725  13.364  16.543  12.908
11400W        W83726  16.043  33.663  11.951
11401W        W83727  17.645   8.208  13.605
11402W        W83728  27.975  31.426   1.958
11403W        W83729  38.923   1.971  13.992
11404W        W83730  29.684  18.111  13.086
11405W        W83731  33.308  42.294   4.122
11406W        W83732  35.892  20.032  13.037
11407W        W83733   8.312   6.468   3.785
11408W        W83734   8.218  43.198  13.523
11409W        W83735  10.620  14.559  12.072
11410W        W83736  29.014  31.544   2.680
11411W        W83737  39.317  11.645  14.796
11412W        W83738  25.530   2.471   3.642
11413W        W83739  35.845  41.015  13.488
11414W        W83740  10.691   8.646   3.236
11415W        W83741  31.006   8.931   0.950
11416W        W83742  29.595   7.345  13.041
11417W        W83743  41.847  18.283  12.548
11418W        W83744  43.318   0.977   1.260
11419W        W83745  23.004   1.726  14.938
11420W        W83746  37.574  12.343   5.184
11421W        W83747  37.429  39.658   3.346
11422W        W83748  26.557  17.145  12.995
11423W        W83749  40.841  21.599   3.697
11424W        W83750   8.589  41.476   1.330
11425W        W83751  21.850  28.435   1.594
11426W        W83752  27.648  44.318   4.419
11427W        W83753  14.514   4.011   4.349
11428W        W83754  42.843  44.613   2.293
11429W        W83755  23.082  33.075   1.240
11430W        W83756   5.747  38.754   3.229
11431W        W83757  15.132  40.901   0.461
11432W        W83758  34.246  24.144   1.024
11433W        W83759  19.668  21.117  10.750
11434W        W83760  21.684   3.800  14.810
11435W        W83761  30.665  32.874   3.134
11436W        W83762  17.627  29.667   0.529
11437W        W83763  23.455  17.165   2.239
11438W        W83764  32.133  38.744  11.150
11439W        W83765  21.184   4.471  11.604
11440W        W83766  28.822  27.812  11.011
11441W        W83767  36.673  41.378   1.854
11442W        W83768  40.707  17.107  12.074
11443W        W83769  22.165  10.232  14.790
11444W        W83770  21.501  12.161  12.734
11445W        W83771  41.346   7.810   0.732
11446W        W83772  38.217  12.199  11.213
11447W        W83773  15.004  27.375   3.456
11448W        W83774  35.028  22.470   1.813
11449W        W83775  19.594  41.731  11.054
11450W        W83776   4.722  26.886  14.020
11451W        W83777  17.829  40.731  13.130
11452W        W83778  26.363  38.143   1.365
11453W        W83779  13.220  21.061   1.208
11454W        W83780  15.870  37.417   1.673
11455W        W83781  10.553  26.602   1.930
11456W        W83782  38.814  28.702  10.703
11457W        W83783  30.417  34.585  13.949
11458W        W83784  16.360  10.558   4.073
11459W        W83785  28.428  18.562  12.788
11460W        W83786  33.670  28.750   1.830
11461W        W83787  24.930  35.029   2.204
11462W        W83788  31.095  23.921   3.819
11463W        W83789  16.112   1.230  12.973
11464W        W83790  23.200  22.346   3.690
11465W        W83791  24.133   5.381  10.734
11466W        W83792  17.824  36.579   2.769
11467W        W83793   7.640  23.058  13.372
11468W        W83794  29.201  11.160   2.815
11469W        W83795  27.134  24.289   4.202
11470W        W83796  25.689   3.940   1.283
11471W        W83797   7.320  35.510   1.083
11472W        W83798  38.101   0.529  10.591
11473W        W83799   9.776  27.557   1.943
11474W        W83800   8.338  38.601   3.466
11475W        W83801  31.435   4.704  14.940
11476W        W83802   7.357  23.857  12.846
11477W        W83803  15.080  23.595   2.763
11478W        W83804   2.195  18.706  14.259
11479W        W83805   7.723   3.760   4.062
11480W        W83806  18.178  22.126   1.712
11481W        W83807  26.570   7.228   3.263
11482W        W83808  28.183  40.301   1.362
11483W        W83809  37.509  14.418   2.774
11484W        W83810  34.114  33.454   2.785
11485W        W83811  10.048  11.270  11.889
11486W        W83812  33.483  15.334   4.168
11487W        W83813   4.417  44.359  10.725
11488W        W83814   5.113  18.239   2.501
11489W        W83815  43.445   7.594   4.831
11490W        W83816   6.733  22.197  13.876
11491W        W83817  33.676  11.414  11.079
11492W        W83818  12.299   1.101  14.371
11493W        W83819  28.273   9.799   2.228
11494W        W83820  24.792  30.610   2.802
11495W        W83821  33.088  25.527  14.183
11496W        W83822   8.708  37.308  14.725
11497W        W83823  41.782  12.872   4.585
11498W        W83824  18.796  35.060   3.347
11499W        W83825   5.135   4.005  14.757
11500W        W83826  21.725  22.601  12.303
11501W        W83827  36.537  31.042   0.191
11502W        W83828   5.700  32.363   0.731
11503W        W83829  42.970  13.384  11.387
11504W        W83830  26.025  26.005  14.383
11505W        W83831  17.752   4.359   1.965
11506W        W83832  19.901  14.270  12.597
11507W        W83833  10.156  42.268   2.856
11508W        W83834  36.387  18.647  10.712
11509W        W83835  12.557  30.991   2.691
11510W        W83836  36.484   0.369   3.258
11511W        W83837  30.545  11.114   4.587
11512W        W83838   2.406  13.341  14.369
11513W        W83839  29.011  31.538   4.557
11514W        W83840  39.559   1.188  11.564
11515W        W83841  30.360  33.108   3.562
11516W        W83842  35.868  27.493  12.047
11517W        W83843   6.131  20.352   1.991
11518W        W83844  21.696  17.774  11.142
11519W        W83845   8.854  43.258   4.530
11520W        W83846  36.432  25.311   3.307
11521W        W83847   9.408   9.482  13.016
11522W        W83848  18.342  33.553   1.361
11523W        W83849  12.525  12.941   0.811
11524W        W83850  37.996  11.746   0.732
11525W        W83851  25.258  21.721   4.074
11526W        W83852   1.608  19.581   0.507
11527W        W83853  22.234  17.289   5.038
11528W        W83854  32.847  37.406  10.647
11529W        W83855  20.245   4.856  14.817
11530W        W83856  16.022  32.963  11.744
11531W        W83857   4.961  12.519   2.432
11532W        W83858  22.180  23.455   4.343
11533W        W83859   9.178  30.032   0.215
11534W        W83860  40.902  15.104  14.022
11535W        W83861  41.130   4.245  12.996
11536W        W83862  40.154   2.230   4.519
11537W        W83863  29.578  36.963  13.379
11538W        W83864  36.917  44.248   4.620
11539W        W83865  34.393  36.155   0.827
11540W        W83866  36.728  34.667   5.005
11541W        W83867  37.346  31.920  14.561
11542W        W83868  35.862  31.549   2.380
11543W        W83869  16.188  15.356  12.415
11544W        W83870  36.511  24.061  12.535
11545W        W83871  30.797  43.997  11.492
11546W        W83872  31.885  42.507  11.637
11547W        W83873  30.848   5.858  12.823
11548W        W83874  10.413  18.270  11.650
11549W        W83875   1.112  39.353   4.151
11550W        W83876  20.770  18.534   1.204
11551W        W83877   7.307  13.912  13.804
11552W        W83878  27.373  18.082  13.631
11553W        W83879  41.983  29.944   4.186
11554W        W83880   0.861  36.529  13.021
11555W        W83881  44.469   3.040   4.274
11556W        W83882  38.466  32.674  13.593
11557W        W83883   3.649  38.489   1.978
11558W        W83884   0.494  23.510   0.006
11559W        W83885  19.449  25.566   0.504
11560W        W83886  33.362  36.082  12.144
11561W        W83887  39.326   0.393   0.839
11562W        W83888  36.968  32.451   3.723
11563W        W83889   5.139  35.575  11.990
11564W        W83890   4.879   3.767  12.573
11565W        W83891  44.695   9.958  13.063
11566W        W83892  34.448   3.540   1.828
11567W        W83893  22.238  40.794  13.059
11568W        W83894  18.628   3.322   2.670
11569W        W83895  36.333  33.658  14.395
11570W        W83896  38.052   2.773   0.790
11571W        W83897  31.031  31.544  14.455
11572W        W83898   0.397   5.755  13.289
11573W        W83899  38.066  19.716  14.507
11574W        W83900   3.419  14.854   4.610
11575W        W83901  34.539  12.685  14.000
11576W        W83902   4.469  40.481  11.195
11577W        W83903  13.774  40.510   2.317
11578W        W83904  14.776  26.230  13.045
11579W        W83905   1.429  38.116  14.008
11580W        W83906  26.147  10.793   1.578
11581W        W83907  42.405  13.225   5.015
11582W        W83908  24.029  21.981   3.397
11583W        W83909  17.093   0.275   9.906
11584W        W83910  24.579   2.329  10.820
11585W        W83911   0.772  25.020   2.486
11586W        W83912  15.727  30.687  11.136
11587W        W83913  20.276  11.636  13.328
11588W        W83914  33.435  20.012  13.377
11589W        W83915  18.702  12.536   0.905
11590W        W83916   3.263   1.178   4.207
11591W        W83917   6.717  29.499   4.548
11592W        W83918  38.977  31.738   0.460
11593W        W83919  31.588  29.538  11.928
11594W        W83920  17.787  33.422   4.131
11595W        W83921  37.561   6.907  11.565
11596W        W83922  36.056  34.585   0.392
11597W        W83923  15.446  31.335   3.130
11598W        W83924   5.409  23.073   0.060
11599W        W83925  18.057  15.414   3.239
11600W        W83926  20.571  29.118   1.837
11601W        W83927  29.549  14.859   0.416
11602W        W83928  33.614   0.739  12.104
11603W        W83929  32.837  37.516   4.596
11604W        W83930  25.883  37.453  12.991
11605W        W83931  26.942  41.441  14.957
11606W        W83932  39.874  37.953   3.254
11607W        W83933  37.534  31.099  12.559
11608W        W83934  25.986   8.721  13.835
11609W        W83935   6.184  10.225   4.560
11610W        W83936  19.753  29.213  14.638
11611W        W83937   1.321   8.650   0.367
11612W        W83938  18.093  15.618  12.618
11613W        W83939  22.252  31.900  13.647
11614W        W83940  29.927  25.343  14.054
11615W        W83941   0.234  42.868  11.912
11616W        W83942  21.259  13.543   2.220
11617W        W83943  44.644  16.155   1.846
11618W        W83944  24.792  26.264   0.825
11619W        W83945  10.078  16.621   2.312
11620W        W83946  17.802  10.600  13.557
11621W        W83947  38.398  14.820   2.828
11622W        W83948   3.199   6.408  10.436
11623W        W83949  17.125  39.185   4.210
11624W        W83950  33.555  10.910  12.404
11625W        W83951  13.851   0.193   1.812
11626W        W83952   9.122   4.373   2.357
11627W        W83953  44.860  20.758   4.515
11628W        W83954  41.860  25.947   3.363
11629W        W83955  26.540  11.629   4.193
11630W        W83956  39.250  33.546   0.138
11631W        W83957  40.323   5.893   4.041
11632W        W83958  28.582  36.761   3.615
11633W        W83959  15.004  27.242   1.715
11634W        W83960   9.247   8.349  11.617
11635W        W83961  34.756  10.597  11.526
11636W        W83962  17.697  23.891   3.541
11637W        W83963  24.930   9.865   2.694
11638W        W83964  12.395  25.116  13.458
11639W        W83965  23.205   9.841  13.960
11640W        W83966  20.592  42.383  14.033
11641W        W83967  21.218   3.918  11.076
11642W        W83968  12.561  27.124   9.739
11643W        W83969  41.066   7.360   4.212
11644W        W83970  16.949  20.128  14.427
11645W        W83971  27.382   5.501   2.842
11646W        W83972  33.679  37.383   0.547
11647W        W83973  20.088  19.745  12.860
11648W        W83974   7.784  34.358   1.315
11649W        W83975  36.900  25.993  12.118
11650W        W83976  22.992  37.297  10.515
11651W        W83977   8.752  11.280  14.301
11652W        W83978  18.650   2.075   5.115
11653W        W83979  25.485  40.755   4.011
11654W        W83980  41.725  22.507   3.309
11655W        W83981  14.081  12.289  11.391
11656W        W83982  39.785   7.721  14.682
11657W        W83983  23.723  32.314  10.518
11658W        W83984  21.129  16.449   3.809
11659W        W83985  25.251  42.043   1.056
11660W        W83986  36.079  36.777  13.440
11661W        W83987  22.206  26.477  10.591
11662W        W83988  27.179  38.589  13.512
11663W        W83989  20.559  17.063  12.867
11664W        W83990  41.857  38.541  12.017
11665W        W83991  41.290  26.983   4.789
11666W        W83992   3.249  43.982  13.879
11667W        W83993  14.608  21.257   0.158
11668W        W83994  18.709  11.927  10.618
11669W        W83995  33.895  32.010   1.315
11670W        W83996  21.537  38.015  10.235
11671W        W83997  40.971   1.221   0.083
11672W        W83998   1.162  24.081   0.894
11673W        W83999  12.590  15.276   2.343
11674W        W84000  41.451  30.866  14.092
11675W        W84001  25.762  12.734   5.213
11676W        W84002  33.668  28.081  13.789
11677W        W84003  38.449  11.776  14.435
11678W        W84004  23.228  15.568   2.377
11679W        W84005  17.064   5.763  14.940
11680W        W84006   9.749  26.645   3.901
11681W        W84007  18.824  17.194  11.585
11682W        W84008   7.868  28.834   0.376
11683W        W84009  43.326  37.094   3.413
11684W        W84010  12.219  29.697   3.736
11685W        W84011  28.483  24.222  13.451
11686W        W84012   9.314  30.012   4.646
11687W        W84013  26.666  25.045  12.226
11688W        W84014   9.716   0.245   2.095
11689W        W84015   5.495   0.406   2.210
11690W        W84016  26.197  23.234  13.998
11691W        W84017  43.311  24.430  13.803
11692W        W84018  31.543  18.693   1.632
11693W        W84019  38.027  44.708   1.885
11694W        W84020   3.018  39.829  12.920
11695W        W84021  40.712  11.167  13.875
11696W        W84022  37.283  42.301  11.624
11697W        W84023  21.491  39.068  11.537
11698W        W84024  30.149  11.883  11.581
11699W        W84025  23.064  18.017  13.581
11700W        W84026  22.176  31.369   2.779
11701W        W84027  15.099  23.959  14.963
11702W        W84028  39.836  30.302  12.587
11703W        W84029  11.642   1.172   1.877
11704W        W84030  41.535   2.756  14.405
11705W        W84031  15.792  12.366  14.331
11706W        W84032  39.732  32.206  10.381
11707W        W84033   8.355  44.481   1.298
11708W        W84034   3.148   9.037   3.924
11709W        W84035  37.424  17.588   2.279
11710W        W84036  20.157  24.694   2.974
11711W        W84037  26.943  38.557  11.556
11712W        W84038  32.636  35.878   3.804
11713W        W84039  44.782  36.966   1.160
11714W        W84040  11.770  20.814  12.188
11715W        W84041  13.919  11.470  14.787
11716W        W84042   5.512  43.392  10.836
11717W        W84043  42.426   0.175   3.499
11718W        W84044   1.887  41.263   4.520
11719W        W84045  25.045   7.593   5.139
11720W        W84046   0.656  16.007  14.539
11721W        W84047   9.971   2.454  12.105
11722W        W84048  35.869  22.681  13.031
11723W        W84049  41.631   8.791  11.093
11724W        W84050  18.826  21.639  12.934
11725W        W84051  12.949  37.499   2.335
11726W        W84052  11.814  29.045  11.558
11727W        W84053   6.841  28.033  14.783
11728W        W84054  37.108  19.681  14.053
11729W        W84055   1.312  10.234   0.977
11730W        W84056   6.201  16.865   2.797
11731W        W84057   6.750  14.318   0.762
11732W        W84058  14.329  42.324  13.400
11733W        W84059  27.983  28.903  12.973
11734W        W84060  35.999   3.501  13.435
11735W        W84061  43.421  41.888  14.928
11736W        W84062  12.588   5.583  12.527
11737W        W84063  26.901  37.836   3.127
11738W        W84064  38.892  37.048  13.966
11739W        W84065  12.954   1.408   2.818
11740W        W84066  21.814  28.378  11.228
11741W        W84067  17.028  24.510   4.167
11742W        W84068  36.333  23.178   3.890
11743W        W84069  40.956   1.011   1.873
11744W        W84070  23.799   2.845   0.828
11745W        W84071   6.172  44.249   1.713
11746W        W84072  33.618   3.510  12.854
11747W        W84073  31.186  11.257   0.768
11748W        W84074  37.098  24.918  14.485
11749W        W84075  35.019  29.088  10.176
11750W        W84076   6.791   7.585  12.475
11751W        W84077  18.976  38.564   0.210
11752W        W84078  11.917  42.540  11.303
11753W        W84079  13.757  36.303   0.390
11754W        W84080  21.033  38.615  10.692
11755W        W84081  42.947  10.926   1.851
11756W        W84082  18.053  15.607   0.106
11757W        W84083   1.912  28.446   0.504
11758W        W84084  10.212   2.923  11.487
11759W        W84085  27.126  28.037   4.990
11760W        W84086  18.820  35.716   5.048
11761W        W84087  43.440  23.510  13.139
11762W        W84088  18.735  27.981  13.439
11763W        W84089  17.242   1.385  10.378
11764W        W84090  18.057  27.573   2.294
11765W        W84091   2.712  32.866   1.069
11766W        W84092   8.420  41.869  10.803
11767W        W84093  11.882   2.313   1.763
11768W        W84094   3.925  19.082   1.498
11769W        W84095   1.380   2.649   1.125
11770W        W84096  29.822  44.018  14.446
11771W        W84097  13.745  30.145   3.664
11772W        W84098  15.634  37.603  14.747
11773W        W84099  31.848  40.355   1.479
11774W        W84100   3.546   7.924   3.233
11775W        W84101  24.683  33.937  12.517
11776W        W84102  19.111  21.445  11.486
11777W        W84103  41.164  33.578  12.263
11778W        W84104   6.177  10.873   0.799
11779W        W84105  17.204  14.790  12.948
11780W        W84106  34.928  14.443   2.970
11781W        W84107  40.743  36.611   1.935
11782W        W84108  40.928  13.555  12.519
11783W        W84109  29.482  36.799  10.651
11784W        W84110  23.756   9.299  13.564
11785W        W84111  18.676  43.037   3.728
11786W        W84112  31.781  33.008  14.910
11787W        W84113  13.349  26.352   3.774
11788W        W84114   5.642  44.579   0.375
11789W        W84115  34.842  32.379  12.088
11790W        W84116   9.830  25.987  11.588
11791W        W84117  36.840  15.121  11.656
11792W        W84118  28.539  15.548  14.952
11793W        W84119  30.757  17.402   0.261
11794W        W84120  35.303  10.770  11.367
11795W        W84121  20.098  17.745   0.977
11796W        W84122  37.307  15.240  11.432
11797W        W84123  31.473  22.305   2.368
11798W        W84124  14.686  35.899  11.429
11799W        W84125  44.900  12.248  11.935
11800W        W84126   5.392  41.529  14.547
11801W        W84127  33.509  20.154   3.613
11802W        W84128  14.793  44.834   0.942
11803W        W84129  33.961  43.650   0.947
11804W        W84130   2.130  24.028   3.299
11805W        W84131   4.039  30.126  12.391
11806W        W84132  28.528  32.375   1.743
11807W        W84133  11.143   9.831   2.630
11808W        W84134  28.363   3.313   0.956
11809W        W84135  13.217  22.221   4.343
11810W        W84136   7.844   4.323   1.794
11811W        W84137  21.096  26.957  13.019
11812W        W84138  35.797  23.785   3.572
11813W        W84139  36.426  28.302   0.353
11814W        W84140  12.265  31.269  11.161
11815W        W84141  33.141  19.663   1.330
11816W        W84142  27.681  14.684   0.903
11817W        W84143  29.151  12.812  12.067
11818W        W84144  21.058  18.266  12.578
11819W        W84145   8.668  10.859  12.873
11820W        W84146  42.808  35.990   3.665
11821W        W84147  26.460  32.138   1.407
11822W        W84148  24.975   8.224   3.738
11823W        W84149   9.580  29.635   4.878
11824W        W84150  21.745  15.245  10.829
11825W        W84151   8.066  30.289   0.573
11826W        W84152   1.393   4.736   2.360
11827W        W84153  14.376  37.378   1.321
11828W        W84154   2.275  12.549  10.850
11829W        W84155  30.528  39.372   4.534
11830W        W84156  39.364  12.132   1.717
11831W        W84157   4.010   4.737  14.978
11832W        W84158  30.246  38.159   0.834
11833W        W84159   0.209   0.348  13.809
11834W        W84160  13.603  30.677   4.287
11835W        W84161  40.865  27.877   2.875
11836W        W84162  10.125  42.843  10.610
11837W        W84163   8.225   9.649  12.858
11838W        W84164   6.653  40.391   1.881
11839W        W84165  13.762  41.937   3.458
11840W        W84166   2.978  25.480  10.689
11841W        W84167  43.083  40.832   0.287
11842W        W84168   2.245  40.551  14.433
11843W        W84169  36.814  30.673   0.465
11844W        W84170   5.805   7.179   0.433
11845W        W84171  38.988  36.116  13.140
11846W        W84172  27.165  36.846  12.842
11847W        W84173  11.396  29.191   1.849
11848W        W84174  31.884   8.156  14.979
11849W        W84175  10.155  34.582  14.525
11850W        W84176  15.694  12.763   1.188
11851W        W84177  18.800   6.813  11.303
11852W        W84178  44.342   5.170  12.932
11853W        W84179  30.981   8.326   3.618
11854W        W84180  31.860  13.725   2.827
11855W        W84181  19.828  14.348  13.869
11856W        W84182  35.273   7.365  12.547
11857W        W84183  37.375  20.449   0.511
11858W        W84184  31.526   8.768  10.917
11859W        W84185   5.717   7.207  14.765
11860W        W84186  28.937   1.643  11.653
11861W        W84187  16.826  21.184   1.832
11862W        W84188   9.845  30.019   4.648
11863W        W84189  22.186   7.891  13.037
11864W        W84190  37.957  23.252   4.894
11865W        W84191  32.791  30.405  11.641
11866W        W84192  27.220  33.588   3.619
11867W        W84193   9.907  12.789   4.615
11868W        W84194  28.359   8.786  13.587
11869W        W84195  13.249   6.309  13.768
11870W        W84196  43.511  43.535   3.765
11871W        W84197  11.359  22.268  12.878
11872W        W84198  28.423  33.662  11.712
11873W        W84199  28.930  21.099  13.374
11874W        W84200  27.925  44.312  13.662
11875W        W84201   6.840  20.223   3.367
11876W        W84202  31.977  28.864  14.563
11877W        W84203   4.923  13.629  11.587
11878W        W84204  10.848  41.420   4.587
11879W        W84205  41.027  32.227  13.647
11880W        W84206  23.524  30.709   4.207
11881W        W84207  13.620  27.834  12.304
11882W        W84208  36.200  26.884   1.724
11883W        W84209  44.906   2.807   3.060
11884W        W84210   9.826   9.144  14.836
11885W        W84211  37.890  13.198   0.749
11886W        W84212  35.847  23.500   4.062
11887W        W84213  32.059  34.098  14.399
11888W        W84214  30.925  22.961   4.057
11889W        W84215   0.954   7.167  11.148
11890W        W84216  31.568  32.894  14.436
11891W        W84217  36.302  30.642   4.051
11892W        W84218  36.871  20.161  11.668
11893W        W84219  43.549   2.433  11.037
11894W        W84220  21.769  21.546   0.464
11895W        W84221  43.200  30.018   4.613
11896W        W84222  16.643  24.239   1.946
11897W        W84223  37.667  22.159  12.990
11898W        W84224  17.130   6.810   2.700
11899W        W84225  14.897  10.186  12.073
11900W        W84226  16.790  12.625   0.098
11901W        W84227  21.839  40.946  12.769
11902W        W84228  18.328  14.040   4.640
11903W        W84229  36.869  28.717  14.507
11904W        W84230  23.658  32.665  10.895
11905W        W84231   9.842  40.343  13.331
11906W        W84232  23.449   8.420   2.259
11907W        W84233  37.527  19.996   3.266
11908W        W84234  43.650  39.377   1.180
11909W        W84235  17.063   0.722   2.339
11910W        W84236  12.102  44.496  11.532
11911W        W84237  42.521  10.912  12.481
11912W        W84238  23.644   2.473   2.234
11913W        W84239  10.060  19.297  11.757
11914W        W84240   7.691  41.095   1.808
11915W        W84241   2.046  42.795  11.762
11916W        W84242  44.985  29.546  11.850
11917W        W84243  36.495  23.647   4.199
11918W        W84244  16.747   5.349  14.967
11919W        W84245  14.295   6.240  14.007
11920W        W84246   5.217  23.955   3.389
11921W        W84247  25.478   0.937   9.485
11922W        W84248  25.518  16.805  13.515
11923W        W84249  21.468  27.772   2.723
11924W        W84250   7.451  24.898  12.001
11925W        W84251  21.593  40.093   4.080
11926W        W84252   2.270   4.290  13.896
11927W        W84253  43.471  22.191   1.809
11928W        W84254  16.055   7.300   2.677
11929W        W84255  21.583  11.210  13.574
11930W        W84256   0.152  10.584   0.350
11931W        W84257  40.026  11.087   3.169
11932W        W84258   0.995   2.436  14.771
11933W        W84259   6.435  15.264  13.781
11934W        W84260  42.714   0.962  14.292
11935W        W84261   1.829  12.604   1.509
11936W        W84262  29.071   4.959   4.615
11937W        W84263  37.439  37.324  10.338
11938W        W84264  19.087  23.678   4.198
11939W        W84265  30.154  35.518  13.446
11940W        W84266  29.035  14.692   2.323
11941W        W84267  40.941  14.811   4.170
11942W        W84268  31.191  25.688  14.269
11943W        W84269  31.031   2.711  14.453
11944W        W84270   0.661  43.978   2.301
11945W        W84271  11.727  22.448  14.094
11946W        W84272   7.819  10.378   0.646
11947W        W84273  40.504  35.582   0.345
11948W        W84274  20.623  32.612   2.745
11949W        W84275  10.491  33.565  11.122
11950W        W84276  15.226  37.770   3.169
11951W        W84277  36.956  11.033  12.279
11952W        W84278  18.376  42.153  14.930
11953W        W84279  23.305  15.608  12.842
11954W        W84280  26.460  34.653   4.140
11955W        W84281  41.859   7.323  10.519
11956W        W84282  27.568  20.799   0.332
11957W        W84283   9.827  30.547  12.947
11958W        W84284  42.237  42.718   3.217
11959W        W84285  35.504  16.389   2.729
11960W        W84286  41.082  20.462   4.376
11961W        W84287   8.682   8.219  14.480
11962W        W84288  22.817  27.450  11.410
11963W        W84289  11.733  43.279   1.249
11964W        W84290  15.754  32.639  10.677
11965W        W84291  42.795  19.565   0.924
11966W        W84292  25.153   1.564   2.846
11967W        W84293  36.879   0.495  11.842
11968W        W84294  42.332   1.407  14.984
11969W        W84295  17.015   5.176  12.036
11970W        W84296  29.519   1.519   0.738
11971W        W84297   2.895  15.752   2.726
11972W        W84298  10.643  33.413  13.369
11973W        W84299  27.386  38.050  13.295
11974W        W84300  34.858   6.277  11.960
11975W        W84301  37.135  27.124   1.925
11976W        W84302  16.688  16.681  10.979
11977W        W84303  12.718  21.283  11.940
11978W        W84304  18.130   9.785  13.027
11979W        W84305   4.735  31.609   0.966
11980W        W84306  19.759  14.772  14.172
11981W        W84307  14.053  43.535   0.700
11982W        W84308  33.940   3.726  10.667
11983W        W84309  28.591  27.775   0.774
11984W        W84310  33.009  31.075   3.565
11985W        W84311   6.422  38.511  12.880
11986W        W84312  35.361  17.570   0.510
11987W        W84313  14.879  41.447  13.477
11988W        W84314  16.331   0.331   3.181
11989W        W84315  12.727  18.987   0.411
11990W        W84316  34.425   6.823   4.697
11991W        W84317   3.692  11.138   4.174
11992W        W84318   1.507  43.216   3.347
11993W        W84319   4.707  30.452  11.942
11994W        W84320   3.292  39.791  10.722
11995W        W84321  33.359   8.146  12.311
11996W        W84322  27.942  37.104  14.247
11997W        W84323   7.580  37.082   0.585
11998W        W84324   9.206  20.118  14.663
11999W        W84325  19.102  38.395   2.229
12000W        W84326  20.738   6.965   1.275
12001W        W84327  24.042   2.563   1.891
12002W        W84328  14.650  34.883   4.098
12003W        W84329  37.784  17.907  11.548
12004W        W84330  28.215  10.196   1.813
12005W        W84331   1.902  44.546   4.625
12006W        W84332  26.973  37.653   1.849
12007W        W84333  18.630  17.048   1.739
12008W        W84334  14.870  39.194   1.309
12009W        W84335  17.637   1.280   3.911
12010W        W84336  41.737  44.922   4.262
12011W        W84337  26.504  25.902   2.480
12012W        W84338  39.384  31.604   3.389
12013W        W84339  18.511  39.454  11.225
12014W        W84340  42.774   0.248  11.493
12015W        W84341  20.621   6.199   4.862
12016W        W84342  35.690   9.105  12.818
12017W        W84343  20.158  15.362  14.753
12018W        W84344  33.679  43.076   4.426
12019W        W84345  24.306  22.391  12.123
12020W        W84346  17.816  30.688  11.088
12021W        W84347  34.294  15.997  10.809
12022W        W84348   1.869   0.056   4.652
12023W        W84349  26.160  28.634   4.567
12024W        W84350  25.698  22.206  13.485
12025W        W84351  33.009   4.042   0.810
12026W        W84352  26.472   7.010   1.615
12027W        W84353  25.148  39.031   2.923
12028W        W84354  29.928  40.433   4.776
12029W        W84355  38.287  37.990   2.304
12030W        W84356   9.862  30.467  14.844
12031W        W84357  13.181  42.309  13.908
12032W        W84358  27.891  44.287  13.142
12033W        W84359  27.519  20.201  13.609
12034W        W84360   3.903  41.292  12.131
12035W        W84361   1.174  26.101   2.721
12036W        W84362   2.827  13.430  12.519
12037W        W84363  43.544  10.091   0.421
12038W        W84364  25.017   7.764  12.422
12039W        W84365  39.427  28.959   2.637
12040W        W84366  14.286  32.829  11.754
12041W        W84367  38.847   5.309   2.922
12042W        W84368   1.861   8.454  14.687
12043W        W84369  10.414  19.736   1.770
12044W        W84370  36.934  41.346   4.462
12045W        W84371  29.040   8.500   1.713
12046W        W84372  15.760  21.022   1.300
12047W        W84373  24.123  43.506  10.876
12048W        W84374  34.309   2.660  12.016
12049W        W84375  31.087  30.989   0.918
12050W        W84376  19.646   9.663   4.882
12051W        W84377  25.989  12.344  14.223
12052W        W84378  40.728  39.039  13.962
12053W        W84379  14.259  21.198   2.205
12054W        W84380   6.878  16.687  13.872
12055W        W84381  17.158  41.389   1.435
12056W        W84382  44.571  15.725  10.522
12057W        W84383   3.330  15.238  12.076
12058W        W84384  30.097  24.667  11.901
12059W        W84385  42.680  23.019   3.749
12060W        W84386   8.769   1.791  14.212
12061W        W84387  25.762  36.036   1.007
12062W        W84388  17.481  38.304  11.937
12063W        W84389  23.845  14.166  11.464
12064W        W84390  24.240  22.970  14.008
12065W        W84391  36.525  23.711  14.402
12066W        W84392  40.599  20.131  12.642
12067W        W84393   3.415   6.658  13.507
12068W        W84394  21.759  36.457  14.757
12069W        W84395  27.074  15.083  12.044
12070W        W84396  41.344  37.455  13.408
12071W        W84397  23.164  44.978   2.855
12072W        W84398  35.548  33.554   1.604
12073W        W84399  29.947  31.567   2.159
12074W        W84400  43.271  44.718  10.482
12075W        W84401   9.420  28.169  11.862
12076W        W84402  44.694   3.304  11.125
12077W        W84403   4.841  19.174  14.912
12078W        W84404   2.816  27.031   0.236
12079W        W84405  26.115   7.663  10.565
12080W        W84406  40.993  12.106   3.800
12081W        W84407   0.492   7.880  13.377
12082W        W84408   8.277  41.434   4.360
12083W        W84409  41.515  13.192   3.606
12084W        W84410  41.475  25.489   5.058
12085W        W84411  23.131  36.245  10.737
12086W        W84412   9.811  27.094  10.779
12087W        W84413  16.091  34.977  10.740
12088W        W84414  21.895  32.946  10.578
12089W        W84415  16.622  40.547  14.512
12090W        W84416  13.993  13.800  12.450
12091W        W84417  31.470   1.017   4.823
12092W        W84418  33.914   5.694   1.922
12093W        W84419  10.141  22.186   4.739
12094W        W84420  44.416  33.933  11.779
12095W        W84421   1.419  16.362  14.763
12096W        W84422  17.882  35.992   0.480
12097W        W84423  34.399  32.375   3.219
12098W        W84424   1.900  37.879  11.497
12099W        W84425  32.987  34.107   4.979
12100W        W84426  28.122  15.189  12.879
12101W        W84427  18.177  40.802  11.442
12102W        W84428   4.308  14.522   4.113
12103W        W84429  35.038  16.553  12.939
12104W        W84430   2.242  11.381  12.495
12105W        W84431   3.219  25.062  14.301
12106W        W84432  17.482  30.717  12.548
12107W        W84433   5.360   1.470  14.809
12108W        W84434  18.788  19.042   4.387
12109W        W84435   1.292  28.067  14.246
12110W        W84436  13.843   8.597  12.526
12111W        W84437  37.012  30.512   4.512
12112W        W84438  22.387  43.083  11.595
12113W        W84439   4.626   0.419   2.646
12114W        W84440   6.326   2.465  10.563
12115W        W84441   8.329  29.302  12.116
12116W        W84442  19.673  19.484  13.050
12117W        W84443  22.219  21.709   0.197
12118W        W84444  28.051  30.869  14.974
12119W        W84445  30.559   0.125  10.698
12120W        W84446  36.293  18.197   0.730
12121W        W84447   8.240  19.324  12.526
12122W        W84448  18.067   3.301  12.618
12123W        W84449   7.794  16.248  12.893
12124W        W84450  26.407   0.395  13.831
12125W        W84451  31.246   9.302  14.274
12126W        W84452  31.051  30.904   4.889
12127W        W84453  23.092  13.800   4.010
12128W        W84454   7.186  35.295  14.032
12129W        W84455  11.745   7.498   5.392
12130W        W84456  43.839   5.331  14.285
12131W        W84457  23.993  25.932  12.370
12132W        W84458  43.793  39.864   2.380
12133W        W84459   4.211  20.205   4.435
12134W        W84460   2.266  19.514   0.337
12135W        W84461  14.270   5.185   2.363
12136W        W84462  39.325   3.200  11.578
12137W        W84463  41.558  32.925   3.557
12138W        W84464  39.881  23.615   1.654
12139W        W84465   5.405  26.728  13.055
12140W        W84466  38.390  24.749   2.683
12141W        W84467  38.826  10.762  13.491
12142W        W84468  20.077  27.991  11.728
12143W        W84469  15.393  10.177  12.027
12144W        W84470  26.630  29.446   3.393
12145W        W84471   7.881  12.760  12.010
12146W        W84472  31.969  43.885  13.991
12147W        W84473  41.141  32.458  12.465
12148W        W84474  30.130  31.446  14.627
12149W        W84475  20.099  41.942   3.874
12150W        W84476   4.737  42.726  14.986
12151W        W84477  26.506   8.724   0.827
12152W        W84478  10.176  28.969  12.399
12153W        W84479   8.518  27.696   0.631
12154W        W84480  17.813   3.684  13.313
12155W        W84481   4.480   7.592   1.140
12156W        W84482   3.397   0.853   1.465
12157W        W84483  12.366  41.005  13.829
12158W        W84484  13.666   5.974  14.478
12159W        W84485  30.449  18.628  13.543
12160W        W84486  30.565  13.343   1.011
12161W        W84487  37.911  12.138  10.381
12162W        W84488  15.529   8.710  11.189
12163W        W84489   4.651  27.975   4.106
12164W        W84490   3.498  12.582   4.165
12165W        W84491  19.087  16.690  14.205
12166W        W84492  38.283   8.688   4.109
12167W        W84493  36.902  42.730  14.186
12168W        W84494  22.623   1.897  12.340
12169W        W84495   2.814  21.514  11.088
12170W        W84496  35.175  12.373  10.403
12171W        W84497  24.111   6.091   0.534
12172W        W84498  41.992  19.644  11.931
12173W        W84499   8.132  23.561  13.862
12174W        W84500  24.009  39.233   3.164
12175W        W84501  44.394   4.931   2.220
12176W        W84502  15.853  42.425   3.664
12177W        W84503  17.690  38.869  11.559
12178W        W84504  36.039  12.881   0.748
12179W        W84505  36.291  11.805   3.617
12180W        W84506  25.560  23.059   0.856
12181W        W84507  41.786  15.844   4.075
12182W        W84508  14.087  17.677  10.602
12183W        W84509  34.946  40.944   4.253
12184W        W84510  25.140  18.238  11.353
12185W        W84511   1.427  29.063  14.332
12186W        W84512  15.194  35.626   3.394
12187W        W84513  41.622  44.031  14.013
12188W        W84514  27.672  16.589  10.385
12189W        W84515   0.304  40.502  13.871
12190W        W84516  35.130   1.291   3.964
12191W        W84517   5.199   2.719  12.912
12192W        W84518  21.682  19.769   0.908
12193W        W84519   7.108  20.127   2.125
12194W        W84520  33.065   1.014   1.951
12195W        W84521  42.514  25.595  10.502
12196W        W84522  39.780   9.265   3.580
12197W        W84523   1.476  13.717  13.548
12198W        W84524  39.935  41.570  11.176
12199W        W84525  16.571  20.062  14.951
12200W        W84526  35.892  43.041   1.509
12201W        W84527  19.053  29.914   1.703
12202W        W84528  24.011  29.991  12.454
12203W        W84529  22.091  40.392  11.790
12204W        W84530  28.938  24.114   4.878
12205W        W84531  24.541  37.329  14.542
12206W        W84532  11.327  14.473   4.697
12207W        W84533  37.663  29.042  11.873
12208W        W84534   0.815  15.684  12.135
12209W        W84535  31.675  42.904  14.261
12210W        W84536  14.064  20.686  13.529
12211W        W84537  34.829  33.617   9.753
12212W        W84538  18.459  44.579  10.369
12213W        W84539   5.913  37.191   3.974
12214W        W84540  41.428  15.235   3.308
12215W        W84541  43.760   2.166  10.618
12216W        W84542  13.684   1.840  13.958
12217W        W84543  34.391   7.274  12.251
12218W        W84544  20.634  32.562   2.238
12219W        W84545   9.428  31.619   4.116
12220W        W84546  26.378  10.162   0.977
12221W        W84547   4.015  28.476   3.467
12222W        W84548  20.903  28.591  14.330
12223W        W84549  36.217  16.307  13.446
12224W        W84550  37.073  11.585   1.997
12225W        W84551  10.427  40.231   3.165
12226W        W84552  37.840  30.226   1.401
12227W        W84553   6.659  40.897   1.118
12228W        W84554  23.907  27.226   3.603
12229W        W84555  30.438  19.505  14.295
12230W        W84556  31.883  19.851   1.041
12231W        W84557  31.063   4.643   3.850
12232W        W84558  36.564  42.244  11.042
12233W        W84559   3.882  36.882   4.572
12234W        W84560  37.397  27.094   2.845
12235W        W84561  42.858   6.226  13.964
12236W        W84562  44.819  22.447   0.981
12237W        W84563  44.252  27.467   0.574
12238W        W84564   4.195  40.909  10.814
12239W        W84565  24.087  39.796  11.991
12240W        W84566   9.391  19.797  13.529
12241W        W84567  18.421   2.665   0.461
12242W        W84568  16.912  32.612   4.550
12243W        W84569  17.808  39.499  13.259
12244W        W84570  31.400  23.704  10.700
12245W        W84571  25.632  11.931  12.668
12246W        W84572   5.229  17.608   0.351
12247W        W84573  38.704  11.012  10.224
12248W        W84574  11.801   0.059  14.836
12249W        W84575   8.199  35.415   0.783
12250W        W84576  13.859   9.657   1.349
12251W        W84577  20.480  20.762  14.810
12252W        W84578  19.589  12.978  14.280
12253W        W84579  40.471  26.089   1.997
12254W        W84580  29.807  43.745  12.488
12255W        W84581  32.636  21.582  10.741
12256W        W84582   2.601  27.165  13.257
12257W        W84583  22.492  43.867  14.503
12258W        W84584  16.593  11.042  10.588
12259W        W84585  11.880  36.223   2.615
12260W        W84586  21.707  26.468   2.182
12261W        W84587  22.214  32.539  10.537
12262W        W84588  18.631  39.220   2.209
12263W        W84589  26.520   3.493   4.545
12264W        W84590   3.832  11.958   2.954
12265W        W84591   5.689  41.241  14.873
12266W        W84592  10.710  19.821   2.171
12267W        W84593  24.550  20.536  11.990
12268W        W84594  43.466  28.121   4.211
12269W        W84595   3.382  10.207   0.523
12270W        W84596  29.440  32.942   3.403
12271W        W84597   2.729  21.015  11.142
12272W        W84598  20.232  39.552   3.422
12273W        W84599  14.737   2.416  11.973
12274W        W84600   6.803  15.301  12.025
12275W        W84601  16.725  31.527  11.157
12276W        W84602  21.067  28.425  13.866
12277W        W84603  33.686  25.155   1.369
12278W        W84604   9.934   6.814   0.569
12279W        W84605  37.662  39.171  11.844
12280W        W84606  44.443  35.348  11.996
12281W        W84607  31.897   1.428  10.614
12282W        W84608  32.552  12.204   4.823
12283W        W84609  35.334  18.083   1.736
12284W        W84610   0.551  36.167  13.208
12285W        W84611  26.310  29.592   2.401
12286W        W84612   8.137  28.146  12.571
12287W        W84613   5.422  42.490   2.348
12288W        W84614  17.750  21.807   3.864
12289W        W84615   2.044  33.491  11.558
12290W        W84616   1.196   7.476   4.663
12291W        W84617  43.368   8.921   2.133
12292W        W84618   5.882   7.437   0.882
12293W        W84619  23.673  29.591   1.670
12294W        W84620  11.746  28.776   1.394
12295W        W84621  42.313   0.359   2.801
12296W        W84622  29.039  26.634   4.762
12297W        W84623  11.087  27.055   3.140
12298W        W84624  38.284  10.735   9.602
12299W        W84625   3.295   2.197   3.286
12300W        W84626   3.054  33.044   3.028
12301W        W84627  14.759  33.486  10.110
12302W        W84628  21.334  36.336  14.011
12303W        W84629  25.399  35.985   2.080
12304W        W84630  26.951  11.379  13.447
12305W        W84631  17.534  39.463  10.759
12306W        W84632  40.944   8.874  11.595
12307W        W84633  15.578  32.576  11.164
12308W        W84634   6.436  42.880  13.473
12309W        W84635   8.239  23.689  12.832
12310W        W84636  39.826  24.146  12.106
12311W        W84637   7.880  44.320   3.177
12312W        W84638  23.047  40.567   3.627
12313W        W84639  10.342   8.254   2.414
12314W        W84640  36.982  26.173  14.906
12315W        W84641  38.563  27.766  14.913
12316W        W84642  12.319  28.434   4.132
12317W        W84643  20.113  26.415  14.546
12318W        W84644  32.415  27.712   4.135
12319W        W84645  36.953  33.233  14.903
12320W        W84646  12.532  26.589  10.607
12321W        W84647  36.970  42.043  11.301
12322W        W84648  19.683  30.099  12.628
12323W        W84649  39.423  32.440   4.534
12324W        W84650  40.790  40.567   0.923
12325W        W84651  42.988  36.366   1.659
12326W        W84652  20.301  11.266   1.715
12327W        W84653  15.638  13.304   4.189
12328W        W84654  35.052  34.476   4.614
12329W        W84655  31.894  14.050   4.124
12330W        W84656   8.067  15.694   4.471
12331W        W84657  13.279  10.566   3.862
12332W        W84658  38.098  17.256   1.789
12333W        W84659   0.092  27.796   0.635
12334W        W84660  19.109  18.300   4.125
12335W        W84661   7.678  23.982   3.146
12336W        W84662  23.486  28.792  11.608
12337W        W84663  40.207  35.072  13.391
12338W        W84664   2.669  11.705   3.628
12339W        W84665  36.835   4.895   2.299
12340W        W84666  12.259  27.214  11.837
12341W        W84667  32.232  25.065  13.592
12342W        W84668  44.284  27.147   1.430
12343W        W84669  16.348  12.177   1.186
12344W        W84670  40.835  10.863  11.718
12345W        W84671   9.331  38.998   4.417
12346W        W84672  28.113  33.928  14.851
12347W        W84673   0.749  16.680   0.739
12348W        W84674  17.578  39.030   4.470
12349W        W84675  39.983   9.985  14.276
12350W        W84676  35.505  29.483   3.307
12351W        W84677  16.693   9.946  11.298
12352W        W84678  21.729  42.416  10.917
12353W        W84679  17.223  23.267  14.717
12354W        W84680  11.856   2.676   0.944
12355W        W84681   3.261  12.417   0.400
12356W        W84682  31.186  10.893   2.971
12357W        W84683  44.298   0.784  10.665
12358W        W84684  19.557  21.686   1.479
12359W        W84685  15.207  35.630  14.023
12360W        W84686   8.640   3.838  13.554
12361W        W84687  23.150  39.568  10.290
12362W        W84688  18.044   6.000  14.897
12363W        W84689  20.412  39.887  11.654
12364W        W84690  43.413  41.433   1.937
12365W        W84691  17.034  19.157  13.096
12366W        W84692  41.553  32.528   3.248
12367W        W84693  30.601  42.442  12.455
12368W        W84694  14.103  15.934  12.978
12369W        W84695  15.893  41.888   0.328
12370W        W84696  20.538   5.882  12.973
12371W        W84697  23.037  36.492   2.908
12372W        W84698   8.778  28.540   2.581
12373W        W84699   8.448  33.485   0.339
12374W        W84700   7.823  18.705   3.112
12375W        W84701  33.134   1.202   3.336
12376W        W84702  24.116  29.116   4.927
12377W        W84703  24.877  25.283   4.354
12378W        W84704  29.120  37.793  11.070
12379W        W84705  39.969  27.422   4.625
12380W        W84706  37.614   1.435   2.088
12381W        W84707   1.848   0.823   3.360
12382W        W84708  44.035   1.390  13.504
12383W        W84709  17.704   7.176   2.189
12384W        W84710  19.152   0.063   2.231
12385W        W84711  32.230  16.167  12.374
12386W        W84712  18.712  31.180  13.300
12387W        W84713  13.428  36.042  14.240
12388W        W84714   6.266  39.298  10.683
12389W        W84715  35.043  19.153   1.198
12390W        W84716   6.455  38.977   2.268
12391W        W84717  24.165  29.478  10.714
12392W        W84718  17.803  28.527  13.508
12393W        W84719  24.491   7.732  13.810
12394W        W84720   1.226  19.293   0.757
12395W        W84721  30.437  34.445  11.048
12396W        W84722  18.996  41.507  10.206
12397W        W84723  27.965  10.765  13.500
12398W        W84724  41.124   4.475   4.152
12399W        W84725  32.538  19.922  14.945
12400W        W84726   2.390  19.473   3.694
12401W        W84727  26.172  32.016  14.343
12402W        W84728  30.663  34.367  10.596
12403W        W84729  19.829   5.241  13.072
12404W        W84730  15.701  31.042   4.646
12405W        W84731   8.174  30.637  11.587
12406W        W84732  18.997  14.328   4.118
12407W        W84733  11.164   7.503  12.392
12408W        W84734   0.544  43.626  12.902
12409W        W84735  32.394  13.154  14.106
12410W        W84736  12.785  35.062   2.964
12411W        W84737  29.990  34.532   9.795
12412W        W84738   6.327  14.711  11.731
12413W        W84739  41.875  23.951  14.458
12414W        W84740   0.420  41.405   1.809
12415W        W84741  27.144   0.223  12.428
12416W        W84742  41.999   6.006   3.321
12417W        W84743  16.663  19.271  13.415
12418W        W84744  15.109  44.149  13.431
12419W        W84745  20.545   7.172   0.762
12420W        W84746  24.625  16.070   4.531
12421W        W84747   4.259  43.299   1.849
12422W        W84748  26.436  19.310  12.802
12423W        W84749  36.862  39.377   2.681
12424W        W84750  42.492  13.120   4.015
12425W        W84751  16.689   4.233   3.349
12426W        W84752   6.053  12.654   0.902
12427W        W84753  43.363  33.091   1.941
12428W        W84754  28.085   9.645   3.668
12429W        W84755  34.473   3.797  10.697
12430W        W84756  23.629  28.256   1.347
12431W        W84757  24.163  31.492  12.796
12432W        W84758  29.904  17.719  11.352
12433W        W84759   9.345  27.967  13.339
12434W        W84760  20.304  10.935  13.821
12435W        W84761   1.868  18.023  14.402
12436W        W84762  39.359  22.311  11.209
12437W        W84763   4.359  44.972  14.740
12438W        W84764  10.194  37.578  12.981
12439W        W84765  33.557  23.374  10.056
12440W        W84766  31.143  33.177   3.111
12441W        W84767   3.759  20.682   0.245
12442W        W84768  24.001  13.210   2.518
12443W        W84769  41.852  29.406  14.404
12444W        W84770  33.475  41.489  13.874
12445W        W84771   1.295  29.603  11.628
12446W        W84772  37.762  16.639  13.647
12447W        W84773  29.546  29.883  11.119
12448W        W84774   6.356  24.784  13.295
12449W        W84775  32.081  16.163   1.788
12450W        W84776  36.839   7.110  14.077
12451W        W84777  16.167  34.849   4.174
12452W        W84778   6.631  21.010   3.667
12453W        W84779   3.514   9.430  12.460
12454W        W84780  42.731  15.373   2.429
12455W        W84781  33.627  22.269  14.057
12456W        W84782   6.746  30.214   0.223
12457W        W84783  17.089  24.111  11.221
12458W        W84784  22.439  24.362   4.590
12459W        W84785  37.082  25.465   3.754
12460W        W84786   7.865  38.211  12.228
12461W        W84787  15.785  42.018   2.362
12462W        W84788  10.068  26.555  14.495
12463W        W84789  39.840  31.130  14.855
12464W        W84790   3.782  30.672   3.260
12465W        W84791  19.499  24.859  14.934
12466W        W84792  10.209  11.658   4.161
12467W        W84793  33.768  13.384   5.150
12468W        W84794   3.502  19.971  14.359
12469W        W84795  36.132  35.430   0.172
12470W        W84796  27.357   4.602   3.057
12471W        W84797   7.549  36.329  11.599
12472W        W84798  38.942  20.742  14.591
12473W        W84799  19.650  37.838  13.907
12474W        W84800  28.212   6.242   4.341
12475W        W84801  28.483  30.373   4.036
12476W        W84802  13.396  26.225  14.404
12477W        W84803  37.334  22.518  13.172
12478W        W84804   8.265  43.416  11.045
12479W        W84805  43.948  29.164  12.163
12480W        W84806  11.819   6.665   1.838
12481W        W84807  40.048   6.875   0.431
12482W        W84808  43.348  23.642  14.417
12483W        W84809   0.457  28.971   2.118
12484W        W84810   4.240   3.386   0.271
12485W        W84811  24.265   2.683  11.610
12486W        W84812  25.951  31.415   3.839
12487W        W84813  20.529   4.515   3.702
12488W        W84814  32.885   6.465  12.059
12489W        W84815  12.804  34.897  12.449
12490W        W84816  42.119  25.757  11.235
12491W        W84817  14.042  19.216  14.205
12492W        W84818  14.096   3.807  14.931
12493W        W84819  28.632  22.645   3.251
12494W        W84820  35.035  41.984   3.113
12495W        W84821  22.777  29.522  10.932
12496W        W84822  24.238  16.382   1.331
12497W        W84823  38.821  14.830  10.942
12498W        W84824  15.701  23.883   9.953
12499W        W84825  31.255   6.376  11.965
12500W        W84826   8.846  37.889  11.100
12501W        W84827   6.830  44.177   0.994
12502W        W84828  21.425  36.841  14.020
12503W        W84829  31.941  28.703  12.583
12504W        W84830  29.588   8.652   0.473
12505W        W84831   4.900   1.257  14.952
12506W        W84832  36.457   7.775   0.502
12507W        W84833  25.084  32.903  12.931
12508W        W84834  44.503   5.268  13.428
12509W        W84835  19.669  12.906   0.829
12510W        W84836  13.795  24.213   2.658
12511W        W84837  32.476  12.624   3.606
12512W        W84838  28.010  31.764  12.079
12513W        W84839  13.813   2.295   2.771
12514W        W84840   0.215  32.565   3.796
12515W        W84841   4.814  10.370   1.081
12516W        W84842  17.091  43.437  13.033
12517W        W84843  44.219   8.717  14.241
12518W        W84844  33.989  28.683  11.918
12519W        W84845   1.419  38.840  12.542
12520W        W84846   8.108  39.853  12.888
12521W        W84847  30.463   8.151   3.156
12522W        W84848  25.901   3.989   4.993
12523W        W84849  28.168  22.989  11.681
12524W        W84850  19.058  18.609   3.147
12525W        W84851   3.216  42.026   4.466
12526W        W84852  16.250   3.703  12.949
12527W        W84853   2.768  37.473   1.522
12528W        W84854  33.029  17.016   3.686
12529W        W84855  36.415  22.302   3.843
12530W        W84856  37.799  31.899  14.260
12531W        W84857   7.150  32.054   3.772
12532W        W84858  39.085  39.559  13.519
12533W        W84859   9.577  37.940  11.722
12534W        W84860  40.601   2.115  11.256
12535W        W84861  33.458   9.762  14.984
12536W        W84862  14.989  17.645  10.348
12537W        W84863  25.453  24.057   1.928
12538W        W84864  32.383  41.379   2.595
12539W        W84865  37.457  18.721  12.637
12540W        W84866  43.764  28.562   1.456
12541W        W84867   1.798  29.340  11.488
12542W        W84868   1.032  17.505   1.275
12543W        W84869  35.256  35.615  11.110
12544W        W84870  43.443  39.875  10.823
12545W        W84871  28.045   0.349  10.689
12546W        W84872   7.332  25.988   1.784
12547W        W84873  33.340   1.493  13.025
12548W        W84874  35.675  18.329  13.930
12549W        W84875  19.614  32.834   4.661
12550W        W84876  34.890  34.960  13.339
12551W        W84877  11.875  26.725   1.961
12552W        W84878  12.528   6.819  13.873
12553W        W84879  13.386  22.692   1.708
12554W        W84880   4.444  10.584  14.878
12555W        W84881  17.202  18.858   1.411
12556W        W84882  25.129  26.015   1.798
12557W        W84883  31.135  19.982  14.866
12558W        W84884  24.712   8.939  11.042
12559W        W84885   1.683   0.828  11.027
12560W        W84886  29.856  27.972  14.857
12561W        W84887  26.419  43.040  12.387
12562W        W84888   7.638  43.043  14.033
12563W        W84889   6.898  11.575  10.634
12564W        W84890  30.544  24.729  12.154
12565W        W84891  17.041  26.581   4.172
12566W        W84892   2.730   5.420   5.346
12567W        W84893  21.203  42.563  14.825
12568W        W84894  12.438  13.828  13.005
12569W        W84895  17.783  21.060   2.671
12570W        W84896  19.088  42.861   0.232
12571W        W84897  33.845  13.345  12.869
12572W        W84898  19.482  33.079  11.000
12573W        W84899   2.378  39.115   4.496
12574W        W84900   2.562  24.467  14.792
12575W        W84901  43.824  25.920   4.134
12576W        W84902  16.306   8.113   0.304
12577W        W84903  11.104  25.092   0.657
12578W        W84904  28.524  28.453   9.741
12579W        W84905   1.273  36.939  12.340
12580W        W84906  40.770  15.639   1.703
12581W        W84907   9.279  41.104  13.301
12582W        W84908   0.840  22.485   0.318
12583W        W84909  30.261   4.789  11.638
12584W        W84910  41.247  23.093   3.646
12585W        W84911  28.651  14.380   3.900
12586W        W84912  35.586  29.988  12.477
12587W        W84913  25.385  15.042  13.464
12588W        W84914  30.997  33.155  12.809
12589W        W84915   6.454  42.294   0.857
12590W        W84916   3.423  44.519  14.882
12591W        W84917   1.837  33.127   3.349
12592W        W84918   0.564  43.005  11.548
12593W        W84919  27.172  14.292  13.819
12594W        W84920  27.927  44.301   0.334
12595W        W84921  19.785   3.180   4.322
12596W        W84922  25.416  33.945  11.617
12597W        W84923  20.254  34.853   1.393
12598W        W84924  26.265   8.842   0.159
12599W        W84925   5.154  29.565   2.701
12600W        W84926   7.959  13.291  12.552
12601W        W84927  43.970  44.718   0.874
12602W        W84928  29.991  27.424  14.251
12603W        W84929  21.459  34.027  10.694
12604W        W84930  39.804  17.652   1.520
12605W        W84931   5.156  44.698  11.539
12606W        W84932   2.230  14.405   1.864
12607W        W84933  35.390  13.548  10.427
12608W        W84934  11.818  34.621   1.241
12609W        W84935   1.855  25.300   2.807
12610W        W84936  39.414   1.307   2.714
12611W        W84937   9.204  28.992  10.492
12612W        W84938  34.118  19.151  14.022
12613W        W84939  37.824  10.870   2.893
12614W        W84940  16.172  42.213  13.407
12615W        W84941  24.060  37.429   3.815
12616W        W84942   0.852  18.642   4.414
12617W        W84943  24.514   0.494   0.887
12618W        W84944  14.674  25.577   0.190
12619W        W84945  12.183   9.917   0.000
12620W        W84946  27.188  42.034   3.716
12621W        W84947  22.676  11.898  13.568
12622W        W84948   7.451   0.281   2.348
12623W        W84949  18.457  15.083   3.313
12624W        W84950  32.168  43.038   3.199
12625W        W84951  26.020   7.366   2.452
12626W        W84952  14.825  23.909  11.369
12627W        W84953  20.345  43.454  11.871
12628W        W84954   3.314  21.233   0.816
12629W        W84955  17.812  28.952   1.190
12630W        W84956  44.023  27.050  11.125
12631W        W84957  13.694   1.005  14.335
12632W        W84958   1.675  21.587  12.482
12633W        W84959  30.545   5.268  14.707
12634W        W84960  15.513  22.480  10.108
12635W        W84961  42.073  22.715   3.658
12636W        W84962  11.333  16.260  10.698
12637W        W84963  20.739  30.480  13.050
12638W        W84964   3.325  25.535   1.768
12639W        W84965  12.300  13.864   3.250
12640W        W84966  16.632  16.331   1.831
12641W        W84967  13.805  41.520  14.989
12642W        W84968  34.831  11.714   3.722
12643W        W84969   5.223   2.865  13.762
12644W        W84970   9.827  38.834   0.226
12645W        W84971  37.551   2.787   1.450
12646W        W84972   3.973   1.801  13.149
12647W        W84973  41.339  20.127   3.631
12648W        W84974  21.892  20.602   4.010
12649W        W84975  26.586  15.163  12.160
12650W        W84976   0.416  33.835   0.834
12651W        W84977  26.517   7.430   0.401
12652W        W84978  33.545   5.345   4.627
12653W        W84979  15.304  30.491   0.927
12654W        W84980   0.906  32.976  13.930
12655W        W84981  25.631  19.473   4.185
12656W        W84982   7.726   8.807  14.936
12657W        W84983  13.077  40.923  12.474
12658W        W84984  43.446  40.297  10.541
12659W        W84985  42.212   5.016   5.121
12660W        W84986   2.831  20.235   1.888
12661W        W84987  13.671   2.470   0.407
12662W        W84988  27.590  11.111   2.196
12663W        W84989  28.849  44.703  13.641
12664W        W84990  36.624  35.951   2.419
12665W        W84991   0.820   1.681   0.874
12666W        W84992  17.691  25.246   3.730
12667W        W84993   6.750  21.987   0.507
12668W        W84994  21.515  10.342  10.588
12669W        W84995  23.915  27.036  13.812
12670W        W84996  40.678  27.732  13.716
12671W        W84997  13.892  24.603   0.052
12672W        W84998  26.235  29.130  12.198
12673W        W84999   3.040   0.143   1.248
12674W        W85000  17.797  31.502  11.530
12675W        W85001   1.665  40.785  12.744
12676W        W85002  23.486   5.739  13.415
12677W        W85003  43.573  32.000  12.124
12678W        W85004  34.437  28.066  13.123
12679W        W85005  29.119   6.447  14.376
12680W        W85006  18.452  33.588  13.509
12681W        W85007  29.229  37.948   0.811
12682W        W85008  30.181   2.183  14.116
12683W        W85009   5.299  31.806   5.084
12684W        W85010  44.349   3.437   2.158
12685W        W85011   2.329  32.926   0.215
12686W        W85012  34.047  10.816   3.113
12687W        W85013  36.779  29.551   0.878
12688W        W85014  17.765   9.069  14.830
12689W        W85015  23.690  10.406   2.320
12690W        W85016  37.568  30.386  14.262
12691W        W85017  36.402  17.204   1.482
12692W        W85018  14.065  41.050  12.228
12693W        W85019  19.946   8.708   4.066
12694W        W85020   8.485  42.630   1.670
12695W        W85021  39.783  37.084   0.046
12696W        W85022  44.122  37.553  10.683
12697W        W85023  24.405  11.721   1.450
12698W        W85024   1.499  30.372   3.740
12699W        W85025  35.857  31.957  13.563
12700W        W85026  20.595  21.255   0.061
12701W        W85027  23.206  27.258  12.973
12702W        W85028  43.965   4.469  14.415
12703W        W85029  40.411  25.214   0.234
12704W        W85030  40.936  44.453   0.485
12705W        W85031  19.018  43.533  10.969
12706W        W85032  41.754  43.812   1.503
12707W        W85033   0.806  38.779   0.771
12708W        W85034  28.865  17.225   0.295
12709W        W85035  14.378  41.398  13.444
12710W        W85036   9.448  16.855  12.419
12711W        W85037  43.433  29.591  13.114
12712W        W85038  15.329  11.750   0.025
12713W        W85039  30.988  16.140   2.314
12714W        W85040   9.652  17.165  11.601
12715W        W85041   4.876  27.919  13.005
12716W        W85042  27.158  40.423  14.263
12717W        W85043  13.884  14.677   0.372
12718W        W85044   2.237  14.076   4.680
12719W        W85045  44.361  40.348  13.799
12720W        W85046  23.541  21.524   1.228
12721W        W85047  17.651   8.685   3.482
12722W        W85048   8.281  15.449  10.150
12723W        W85049  19.943  43.813  12.552
12724W        W85050  17.282  40.146   2.071
12725W        W85051  11.548   0.344  11.386
12726W        W85052  39.581  18.340  14.769
12727W        W85053  16.572   0.485   2.739
12728W        W85054   4.542  27.226  13.245
12729W        W85055  11.703  38.001   1.620
12730W        W85056  12.669  26.261  11.565
12731W        W85057   0.343  17.518  12.053
12732W        W85058  38.243   5.562  13.874
12733W        W85059  23.029  36.221  12.504
12734W        W85060   0.463  13.039   2.021
12735W        W85061  27.114  31.237   0.424
12736W        W85062  20.566  44.304  13.950
12737W        W85063  26.055  44.290  11.127
12738W        W85064  39.742  23.421  12.801
12739W        W85065   3.406   3.690   4.691
12740W        W85066   1.205  17.180  13.637
12741W        W85067  41.484   7.098   4.057
12742W        W85068   8.312  18.579   2.364
12743W        W85069  22.237   0.339  11.485
12744W        W85070   2.110   4.396  10.212
12745W        W85071  12.067   8.843  12.358
12746W        W85072  23.077  44.881  11.425
12747W        W85073  41.306  39.600   0.393
12748W        W85074  38.404   8.239   1.453
12749W        W85075  18.292  35.639   0.707
12750W        W85076  29.457   4.424   0.406
12751W        W85077   3.926  24.717  12.537
12752W        W85078  40.524  25.647   1.738
12753W        W85079  42.170  36.963   2.598
12754W        W85080  13.094  24.482  11.419
12755W        W85081  42.466   8.500  11.910
12756W        W85082  26.703   0.445   1.970
12757W        W85083   5.736  44.314  11.062
12758W        W85084  32.713  24.898  12.505
12759W        W85085  41.661  28.641  13.945
12760W        W85086  39.515  15.560  12.085
12761W        W85087  13.305   1.835   4.362
12762W        W85088  23.279   6.710  13.933
12763W        W85089  19.161  21.742   3.334
12764W        W85090  19.102   6.897  14.464
12765W        W85091   7.991  12.173  12.892
12766W        W85092  28.130   8.463  12.036
12767W        W85093  18.585  27.079   1.175
12768W        W85094  43.987  34.473   1.979
12769W        W85095  33.648  39.124  11.120
12770W        W85096  42.104  34.582  13.954
12771W        W85097   2.844   7.644   2.829
12772W        W85098  11.680  33.455  12.461
12773W        W85099  36.596  30.055   1.022
12774W        W85100  44.566  40.441  12.481
12775W        W85101  14.694  43.478   4.257
12776W        W85102   2.194  14.206  10.173
12777W        W85103  41.499  16.011  11.034
12778W        W85104  41.093  43.834  12.895
12779W        W85105  38.562  20.964   4.777
12780W        W85106  40.911  11.570   4.727
12781W        W85107  10.460   1.973   4.245
12782W        W85108   9.243  29.543   4.422
12783W        W85109  44.804  30.065   2.802
12784W        W85110  19.752  37.992   2.196
12785W        W85111  26.059  37.922   0.947
12786W        W85112  31.353  13.683   2.773
12787W        W85113  34.792   7.193  12.623
12788W        W85114  26.698  27.398   5.256
12789W        W85115  20.514   2.774  11.072
12790W        W85116   6.936   7.290  12.909
12791W        W85117  36.097   1.218   4.149
12792W        W85118  12.172   4.918  13.959
12793W        W85119   4.609   3.948  14.834
12794W        W85120  14.728  13.262   3.979
12795W        W85121  19.953   5.304  13.969
12796W        W85122  17.171  34.827  11.533
12797W        W85123   4.334  40.629   1.217
12798W        W85124   1.755  19.827  11.514
12799W        W85125  24.797  20.536  11.540
12800W        W85126  22.653   7.334   1.045
12801W        W85127  33.376  30.111   1.986
12802W        W85128   9.358  18.344   2.397
12803W        W85129  27.688  19.562   3.307
12804W        W85130   1.269  39.094   1.697
12805W        W85131  30.789  15.570   3.758
12806W        W85132  36.804   4.646  11.194
12807W        W85133  33.181  37.433   0.380
12808W        W85134  22.281  42.327   4.380
12809W        W85135  15.630  36.325   3.644
12810W        W85136   4.109   7.195  11.916
12811W        W85137  43.256  23.850   0.373
12812W        W85138  22.431  21.448   2.755
12813W        W85139   2.542  11.354   1.402
12814W        W85140  26.456   2.408   0.639
12815W        W85141  13.711  38.848   1.264
12816W        W85142   5.446  17.735  10.526
12817W        W85143  14.092  36.662   3.579
12818W        W85144  44.331   1.558  10.321
12819W        W85145   3.973   1.179   2.780
12820W        W85146  14.846  41.986   2.390
12821W        W85147  33.095  20.355   3.362
12822W        W85148  38.799  44.929  10.278
12823W        W85149   0.936  37.460   3.042
12824W        W85150  24.292  21.566   0.202
12825W        W85151  16.802   0.262   2.338
12826W        W85152  34.676  23.106   2.287
12827W        W85153   5.328  11.783   2.611
12828W        W85154  37.996  16.709   4.739
12829W        W85155  38.520   2.396   2.339
12830W        W85156  32.076   7.724  12.091
12831W        W85157  19.767  41.020  12.571
12832W        W85158   6.301  16.990   5.165
12833W        W85159  22.454  33.155   0.915
12834W        W85160  33.723  21.066   4.705
12835W        W85161  26.079  35.345   0.443
12836W        W85162   0.517  20.349   1.447
12837W        W85163  11.377   3.919   0.513
12838W        W85164  18.436  20.657  13.248
12839W        W85165  17.029  21.062   0.877
12840W        W85166  35.075  40.604  10.730
12841W        W85167  32.508  39.578   2.406
12842W        W85168  19.727  23.531  12.540
12843W        W85169  40.021   4.682   3.229
12844W        W85170  22.965  19.664   0.070
12845W        W85171  19.522   3.924   0.252
12846W        W85172  40.845   9.291   4.353
12847W        W85173   5.745  44.296  12.093
12848W        W85174   7.131  24.130  11.557
12849W        W85175  37.022  28.054   3.803
12850W        W85176  34.787  43.916  13.561
12851W        W85177  33.471  29.908  12.829
12852W        W85178  13.066  38.836   1.945
12853W        W85179  17.618   7.720  14.378
12854W        W85180  41.969  20.268   0.288
12855W        W85181  37.968  26.052   0.272
12856W        W85182  23.458   0.536   0.857
12857W        W85183  33.567  10.148   1.905
12858W        W85184  10.110  32.078   4.058
12859W        W85185  39.976  36.077   1.595
12860W        W85186   3.811  44.381  10.235
12861W        W85187  14.268  32.397  12.592
12862W        W85188  33.932   0.033  13.310
12863W        W85189  31.608  25.585  12.476
12864W        W85190  15.230  42.771  11.503
12865W        W85191   1.929  32.204  11.031
12866W        W85192  29.817  14.237  11.620
12867W        W85193  27.203   8.372   1.114
12868W        W85194  33.977  12.825  14.862
12869W        W85195  16.797  12.896   0.916
12870W        W85196  16.622  41.452  13.087
12871W        W85197  14.793   1.201   0.984
12872W        W85198  19.987  24.747   1.472
12873W        W85199  35.016  12.741   2.892
12874W        W85200  30.906   2.486  10.645
12875W        W85201  10.833  19.660   4.031
12876W        W85202  41.370  22.468   0.398
12877W        W85203  28.266  14.274   4.244
12878W        W85204   4.170  25.668   0.377
12879W        W85205  27.174  20.640   3.481
12880W        W85206  39.355  28.408  14.266
12881W        W85207   0.938  19.526   4.169
12882W        W85208  42.309   7.577   4.551
12883W        W85209   6.120  33.381   1.841
12884W        W85210  33.641  22.846   3.222
12885W        W85211  13.342   8.717  12.405
12886W        W85212  16.295  21.095   2.939
12887W        W85213  29.251  14.513  12.481
12888W        W85214  34.008   7.679   2.192
12889W        W85215  12.736  39.066  11.059
12890W        W85216  13.189  36.766   5.480
12891W        W85217  37.040  31.132   0.520
12892W        W85218  44.975  29.121  11.521
12893W        W85219  22.995  13.404  10.822
12894W        W85220  42.443  36.389   0.427
12895W        W85221  20.767  34.584  13.867
12896W        W85222  44.029   1.216  14.018
12897W        W85223  24.088  31.862  10.476
12898W        W85224   7.273  32.902  11.625
12899W        W85225  43.631  15.798   0.269
12900W        W85226   1.356  41.896   0.919
12901W        W85227  20.912   9.633  10.724
12902W        W85228   3.089  42.113   0.473
12903W        W85229  21.773  10.270   1.461
12904W        W85230  37.382  23.219  11.129
12905W        W85231  17.340  32.357  11.473
12906W        W85232  34.361   0.462  10.621
12907W        W85233  15.182  25.609   2.420
12908W        W85234  41.994   5.501   3.152
12909W        W85235   2.783  31.450  11.493
12910W        W85236  16.686   4.542   4.786
12911W        W85237  32.557  13.946  14.942
12912W        W85238   8.666  16.763  14.271
12913W        W85239  37.003  27.606   1.213
12914W        W85240  27.863  38.495  11.087
12915W        W85241  32.841  16.592  14.387
12916W        W85242  30.906  18.038  12.281
12917W        W85243   2.835  30.480   2.891
12918W        W85244  10.217  25.043   4.160
12919W        W85245  12.501  32.336  12.580
12920W        W85246  41.699  23.063  14.304
12921W        W85247  44.459  24.993  14.895
12922W        W85248  16.581  25.242   2.148
12923W        W85249  32.568  44.874   1.785
12924W        W85250  34.069  33.121   2.296
12925W        W85251  27.430  36.268   4.155
12926W        W85252  38.457  40.490   3.438
12927W        W85253   5.213  23.413   3.371
12928W        W85254   2.810  18.050   3.976
12929W        W85255   2.517  15.827  13.373
12930W        W85256  10.187  28.505   3.864
12931W        W85257  18.221   9.810   3.719
12932W        W85258  13.629   0.771   3.746
12933W        W85259  10.125  28.194  14.342
12934W        W85260  10.413  38.157   0.823
12935W        W85261  42.356  18.344   1.368
12936W        W85262  32.084  31.118  11.131
12937W        W85263  30.473   1.858  13.002
12938W        W85264  36.869  32.382  11.507
12939W        W85265  15.570  43.222  11.490
12940W        W85266  24.287  32.436   4.557
12941W        W85267  13.251   6.611   1.722
12942W        W85268  15.290  44.851  11.306
12943W        W85269  28.169  15.922   1.803
12944W        W85270  13.099  31.398   0.894
12945W        W85271  15.070  39.943   0.962
12946W        W85272  20.170  17.958   3.051
12947W        W85273  38.459  38.385   4.760
12948W        W85274  31.691  18.199   1.039
12949W        W85275  17.678  30.403   1.307
12950W        W85276  40.958  38.577   4.275
12951W        W85277  37.840   7.620   4.423
12952W        W85278  25.499   0.337   1.846
12953W        W85279  31.216  15.230  11.416
12954W        W85280  18.626  41.814  13.753
12955W        W85281  42.717  28.751   0.172
12956W        W85282  35.803  35.389  13.175
12957W        W85283   7.786  31.819   0.772
12958W        W85284  36.673  11.583  13.908
12959W        W85285  26.338  25.231  12.963
12960W        W85286  14.708  19.785   1.673
12961W        W85287  15.685   1.875  14.093
12962W        W85288  36.971  12.902   0.777
12963W        W85289   8.896  23.301  11.594
12964W        W85290  31.109  37.101  10.536
12965W        W85291  44.574  12.221   1.229
12966W        W85292  24.151  10.264  13.985
12967W        W85293  22.561   0.661  13.884
12968W        W85294   4.949  40.231   1.273
12969W        W85295  29.276   4.008   2.068
12970W        W85296  15.319  24.322   0.357
12971W        W85297   0.440  27.601   1.485
12972W        W85298  43.740  14.196  13.351
12973W        W85299  38.379  31.146  13.444
12974W        W85300  26.500  34.090   1.163
12975W        W85301   2.299  27.092  11.583
12976W        W85302  38.739  13.158   0.712
12977W        W85303  32.154   9.162   5.193
12978W        W85304   9.606  20.242   2.716
12979W        W85305   8.226  16.856  14.564
12980W        W85306  20.517  28.701   4.372
12981W        W85307  44.468  33.529  13.048
12982W        W85308  32.986   6.051   4.350
12983W        W85309  19.507  13.828   0.513
12984W        W85310   8.684  32.501  13.781
12985W        W85311  21.798   2.009  14.334
12986W        W85312  41.531  40.867   0.553
12987W        W85313   6.924  40.479  12.489
12988W        W85314  41.735  23.871   2.648
12989W        W85315  31.461  44.261  11.190
12990W        W85316  23.270   6.732   0.463
12991W        W85317  44.860  34.562   0.313
12992W        W85318  36.556  28.131  14.450
12993W        W85319  44.566  38.770  13.871
12994W        W85320  41.457  39.916   4.268
12995W        W85321   4.935  40.237   4.626
12996W        W85322  19.826  28.514  10.542
12997W        W85323   1.332  31.576   0.211
12998W        W85324  26.583  37.620   4.250
12999W        W85325   8.815  37.910   3.573
13000W        W85326  41.854  18.246   3.006
13001W        W85327  39.602  37.207   3.290
13002W        W85328  28.546   9.245   4.765
13003W        W85329   1.515  17.551  13.922
13004W        W85330  44.087  38.023   1.684
13005W        W85331  38.832  30.048  14.777
13006W        W85332  37.842  16.848   2.865
13007W        W85333  29.610  31.668  13.961
13008W        W85334  24.257  39.297   3.592
13009W        W85335  15.209   3.906  13.400
13010W        W85336  42.706   8.951  13.962
13011W        W85337  26.719  15.115   4.911
13012W        W85338  14.829  24.164   0.385
13013W        W85339  28.093  24.001   4.519
13014W        W85340   7.300  23.080  12.419
13015W        W85341  18.084  17.582  14.430
13016W        W85342   8.516  22.634  11.982
13017W        W85343   7.317  36.745  14.112
13018W        W85344  23.432  38.872   1.808
13019W        W85345   2.467  37.299  14.406
13020W        W85346  26.987   8.098  10.531
13021W        W85347  13.330  27.054   3.260
13022W        W85348   6.337   1.716  10.309
13023W        W85349   9.299  25.245  14.672
13024W        W85350  31.903  30.121  10.669
13025W        W85351  35.400  22.638  13.233
13026W        W85352  41.345  28.048  12.119
13027W        W85353  26.900  14.525  12.985
13028W        W85354  19.161  31.821  14.283
13029W        W85355  32.708  31.097  14.960
13030W        W85356   2.877  14.710   3.888
13031W        W85357   6.770  25.367   4.499
13032W        W85358  30.968  21.616  13.967
13033W        W85359   8.114  27.445   0.818
13034W        W85360  24.263   1.286   2.568
13035W        W85361  15.587  25.993   1.218
13036W        W85362  18.033  43.115  13.076
13037W        W85363  12.894  18.182   3.470
13038W        W85364  19.056  18.842   2.167
13039W        W85365  39.770  17.231  14.747
13040W        W85366  16.013   5.848  14.193
13041W        W85367  17.969  14.726  12.085
13042W        W85368  19.690   1.742  11.265
13043W        W85369  33.512  34.549   3.829
13044W        W85370  33.945  37.311  14.169
13045W        W85371  30.652  39.904   1.182
13046W        W85372  40.661  16.988   2.954
13047W        W85373  11.826  44.410   2.243
13048W        W85374  10.341  37.093   0.383
13049W        W85375  43.011  39.422   3.282
13050W        W85376  37.885  19.219   3.701
13051W        W85377   0.409  44.192   1.781
13052W        W85378  19.644  19.362   1.794
13053W        W85379  38.526  19.500   3.629
13054W        W85380  36.402  28.198   1.300
13055W        W85381  27.571  35.133  10.596
13056W        W85382  41.273  40.056   2.322
13057W        W85383  32.946  22.586  14.506
13058W        W85384   0.950  39.791  12.384
13059W        W85385  12.099  20.977  11.164
13060W        W85386  28.060  10.909   0.370
13061W        W85387  22.614  21.740  11.153
13062W        W85388   7.830  34.878   1.111
13063W        W85389  36.371  32.934  10.280
13064W        W85390  26.426  43.529  12.493
13065W        W85391  44.875  28.700   3.941
13066W        W85392  32.843  26.077  12.875
13067W        W85393  34.888  21.073  14.320
13068W        W85394  39.448   5.500  13.489
13069W        W85395  21.432  17.329   4.647
13070W        W85396  35.166  12.352   1.554
13071W        W85397  44.989  22.735  10.194
13072W        W85398   5.397  36.103   3.745
13073W        W85399  37.133   8.256   4.039
13074W        W85400  40.798  20.229  13.545
13075W        W85401   0.748  36.549  14.016
13076W        W85402  36.364  14.266   3.270
13077W        W85403  42.481  25.459  14.929
13078W        W85404   8.401  38.542  12.118
13079W        W85405   1.264  37.070   3.074
13080W        W85406  18.601  14.369  11.671
13081W        W85407  11.249  37.333   0.554
13082W        W85408   5.937  41.583  13.525
13083W        W85409  24.737  40.257  11.623
13084W        W85410  32.078  32.522  10.413
13085W        W85411   6.629  16.094  13.452
13086W        W85412   1.842   7.939   3.951
13087W        W85413  14.016   6.766  10.713
13088W        W85414  40.698  33.414   2.497
13089W        W85415   0.861  38.047  11.943
13090W        W85416   6.661  34.573   0.426
13091W        W85417  41.816  42.777   2.373
13092W        W85418  22.269  15.214   4.700
13093W        W85419  24.005  39.289  12.072
13094W        W85420  25.209   6.324  14.806
13095W        W85421  36.422  42.273  13.470
13096W        W85422  14.348   3.648  12.907
13097W        W85423  40.295   0.507  13.763
13098W        W85424  21.736   1.282   4.630
13099W        W85425  30.622  11.941   3.196
13100W        W85426  33.525   8.378  14.037
13101W        W85427  35.546  34.891  13.985
13102W        W85428   7.632   6.288  14.041
13103W        W85429  41.457  26.111   3.627
13104W        W85430  11.249  39.869   4.066
13105W        W85431   2.487  37.870  12.390
13106W        W85432  32.985  25.322  12.361
13107W        W85433  21.164  13.366   3.678
13108W        W85434  14.796  33.946  10.961
13109W        W85435  41.935  19.065   3.241
13110W        W85436  23.147  25.618   4.614
13111W        W85437  11.311  26.911  14.442
13112W        W85438  23.965  28.644  12.002
13113W        W85439  43.477  20.486  14.379
13114W        W85440  25.671  29.373  13.487
13115W        W85441  24.502   1.404  14.320
13116W        W85442  41.391  22.295  14.575
13117W        W85443  32.809   3.192  13.875
13118W        W85444   1.845   4.937   3.752
13119W        W85445   2.284  43.826  10.646
13120W        W85446  31.066  23.742  13.036
13121W        W85447  33.935  11.162   0.075
13122W        W85448  28.729  40.992  12.840
13123W        W85449  30.866  44.113   3.743
13124W        W85450  21.566  22.038  14.103
13125W        W85451  24.144  21.241  11.600
13126W        W85452   6.483   8.370   4.287
13127W        W85453   3.383  30.760   4.772
13128W        W85454  13.229   9.725  13.439
13129W        W85455  30.135  17.703  12.009
13130W        W85456   9.852   5.298   0.610
13131W        W85457  23.584  18.179   4.572
13132W        W85458  21.457  43.186   4.764
13133W        W85459  16.623  43.910   4.378
13134W        W85460  42.641  25.087  10.295
13135W        W85461   9.894  19.958   1.776
13136W        W85462  22.185  24.185   2.125
13137W        W85463  21.636  44.891  14.372
13138W        W85464  28.640  22.199  12.538
13139W        W85465   8.636  18.680  13.710
13140W        W85466   1.380  31.174  12.508
13141W        W85467  38.120  18.793  14.179
13142W        W85468  23.961  41.971  13.231
13143W        W85469  21.603  33.873  11.580
13144W        W85470   9.965  33.664  14.227
13145W        W85471  28.062  27.952  13.511
13146W        W85472  34.843  38.443  11.013
13147W        W85473  44.324  27.076  11.542
13148W        W85474  41.797   0.778   0.528
13149W        W85475  27.989  22.640   4.552
13150W        W85476  12.177  34.418  13.339
13151W        W85477  10.843  26.947  14.200
13152W        W85478  36.566  42.039  10.577
13153W        W85479  27.533  41.582  13.052
13154W        W85480  41.285   9.218  13.788
13155W        W85481  10.781  11.836  11.683
13156W        W85482  29.437  44.688   1.300
13157W        W85483  14.801   9.148  14.068
13158W        W85484  23.989  26.448  12.410
13159W        W85485  31.193  30.227  13.139
13160W        W85486  24.204   8.437  13.399
13161W        W85487   5.027   8.836  13.782
13162W        W85488  24.275  33.736   2.721
13163W        W85489  20.200  31.617  11.205
13164W        W85490  20.543  18.794   3.255
13165W        W85491  39.710   0.944   1.790
13166W        W85492  10.326   7.425   0.225
13167W        W85493  23.602   2.308  13.363
13168W        W85494  21.752  37.776  10.643
13169W        W85495  19.113  23.798  12.078
13170W        W85496  28.967  21.022   4.377
13171W        W85497  29.817  32.534   2.199
13172W        W85498   6.042  23.888  12.944
13173W        W85499  34.744  11.510  12.022
13174W        W85500  21.265  17.413  13.930
13175W        W85501  29.692  15.601  13.885
13176W        W85502  43.879   1.397   2.637
13177W        W85503  18.259  16.297   3.612
13178W        W85504  40.701  35.919  10.813
13179W        W85505  17.255  41.988  11.523
13180W        W85506  40.511  32.380   0.298
13181W        W85507  11.594   9.216   0.302
13182W        W85508  30.651  32.911   2.267
13183W        W85509   1.771  10.740  10.510
13184W        W85510  13.070  27.479  13.099
13185W        W85511  32.649  19.392   1.279
13186W        W85512   1.270  27.170   1.834
13187W        W85513   9.418  18.554  11.479
13188W        W85514  40.653  11.900   5.166
13189W        W85515  10.203   0.474   2.134
13190W        W85516  11.215  24.321  14.356
13191W        W85517  11.373  25.099   2.873
13192W        W85518  14.867  10.456   1.210
13193W        W85519   5.872  30.587   1.234
13194W        W85520  25.965  32.035   4.539
13195W        W85521  38.623  30.652  10.656
13196W        W85522  21.413  11.727   3.087
13197W        W85523  31.674  31.990   0.846
13198W        W85524  12.914   8.305   0.137
13199W        W85525   0.497  25.589   3.225
13200W        W85526  43.019  24.977   1.837
13201W        W85527   0.379  43.330  13.940
13202W        W85528   1.081  22.064   4.538
13203W        W85529  14.441  19.328  12.424
13204W        W85530  44.282  40.769   1.127
13205W        W85531  37.838  18.166   3.082
13206W        W85532  44.606   5.435   1.319
13207W        W85533  31.874  35.396  12.073
13208W        W85534  29.633  36.155  12.112
13209W        W85535  41.740  43.568  14.864
13210W        W85536  31.065   3.794   2.814
13211W        W85537  43.764  13.635  14.816
13212W        W85538  18.015   0.999   4.327
13213W        W85539   5.421  12.306   1.217
13214W        W85540  31.051  41.356   5.040
13215W        W85541  32.914  38.886   3.769
13216W        W85542  14.542   7.314  12.570
13217W        W85543  21.099  41.978  10.722
13218W        W85544  40.734  15.181  14.509
13219W        W85545  36.026  15.352   0.679
13220W        W85546  27.427  38.726   1.485
13221W        W85547   9.618  33.904  12.976
13222W        W85548  43.517  18.672   2.319
13223W        W85549  15.127  20.293  14.011
13224W        W85550   0.852  44.590  12.979
13225W        W85551   0.372   2.146   1.992
13226W        W85552  44.475   8.451   4.087
13227W        W85553  22.034   6.663  12.206
13228W        W85554  28.996   2.686   1.947
13229W        W85555  14.785   1.927   1.743
13230W        W85556  28.022  17.295  13.331
13231W        W85557  41.115  25.860  13.002
13232W        W85558  18.148  39.033  14.463
13233W        W85559   2.454  13.420   2.773
13234W        W85560   1.294  21.730   0.575
13235W        W85561   9.243  43.846   3.203
13236W        W85562   7.453   4.413  11.636
13237W        W85563  28.212  35.281  14.344
13238W        W85564  28.941  37.594   4.699
13239W        W85565   1.154  16.226  11.957
13240W        W85566  13.554  18.304   4.415
13241W        W85567  16.878  18.254   1.015
13242W        W85568  13.539  37.848   1.406
13243W        W85569  39.865   4.248   2.266
13244W        W85570  28.957  38.401   0.728
13245W        W85571   6.754  32.502   0.381
13246W        W85572  34.936  44.017  14.825
13247W        W85573  11.705  39.133   2.603
13248W        W85574  10.998  37.976   4.428
13249W        W85575  26.098   5.035   5.141
13250W        W85576  36.886  44.359   3.143
13251W        W85577  41.965   7.796  14.450
13252W        W85578  32.505   3.973  13.390
13253W        W85579  11.415  42.251   1.804
13254W        W85580  23.329  41.955   1.313
13255W        W85581  21.409   8.742  10.690
13256W        W85582  20.068  32.620  14.505
13257W        W85583  20.171  13.185   3.549
13258W        W85584  40.979  19.161   4.598
13259W        W85585  30.422  34.434  14.693
13260W        W85586  12.198  22.620   0.517
13261W        W85587   6.244   0.301  11.203
13262W        W85588  38.751  24.809  11.988
13263W        W85589  42.565   6.410  14.409
13264W        W85590  26.871  20.655   4.283
13265W        W85591  36.405   6.258   4.640
13266W        W85592  26.171  32.073   1.988
13267W        W85593  24.331   3.391  14.804
13268W        W85594  18.357  18.175  12.885
13269W        W85595  44.961  29.643   2.161
13270W        W85596  41.573  33.457  12.543
13271W        W85597  32.084  44.971   4.164
13272W        W85598  32.616  39.796  12.844
13273W        W85599  12.634   7.308  12.501
13274W        W85600  34.129  16.225  13.259
13275W        W85601  30.973  28.553   2.348
13276W        W85602   3.345  36.716   1.023
13277W        W85603  26.082   3.571  11.365
13278W        W85604   0.534  23.269  11.033
13279W        W85605  30.003  21.517   3.352
13280W        W85606  20.831  13.625  14.346
13281W        W85607  10.795  31.818   5.092
13282W        W85608  38.459  11.649  13.449
13283W        W85609  17.687  19.123   2.988
13284W        W85610   1.017  23.297   2.058
13285W        W85611  39.826   7.775   3.629
13286W        W85612  43.244  17.308  11.968
13287W        W85613  33.607  29.216  14.525
13288W        W85614   5.520  33.676  12.115
13289W        W85615  38.391   7.948  14.917
13290W        W85616  36.531  10.624  10.058
13291W        W85617   8.297  20.051   4.904
13292W        W85618   9.238  41.249   4.119
13293W        W85619   4.373  31.779   2.800
13294W        W85620  13.027  20.557  14.342
13295W        W85621  44.723  21.524  14.999
13296W        W85622  37.401   6.854   3.178
13297W        W85623  13.802  22.621   3.173
13298W        W85624  36.848  25.074   0.487
13299W        W85625  21.558   0.794   3.932
13300W        W85626  19.194   3.717  14.871
13301W        W85627  18.047  37.643   3.646
13302W        W85628   2.531   9.630   4.955
13303W        W85629  35.610  33.574   4.590
13304W        W85630  19.302  26.731  13.436
13305W        W85631  24.012  41.960  12.523
13306W        W85632  22.565  42.313   0.300
13307W        W85633  43.204  42.060  13.144
13308W        W85634  20.659   1.879   4.253
13309W        W85635  27.401  15.774  12.049
13310W        W85636   8.053  21.956  11.141
13311W        W85637  33.359  27.057  10.923
13312W        W85638  29.418  34.461   1.327
13313W        W85639  38.293  39.487  14.803
13314W        W85640  15.494  34.023  13.480
13315W        W85641  42.790  37.556   0.288
13316W        W85642  25.450   0.617   3.698
13317W        W85643  20.346  27.022   2.336
13318W        W85644  21.514  33.365   2.750
13319W        W85645  41.445  33.400  11.231
13320W        W85646   1.245  22.466   2.144
13321W        W85647  39.560   6.655   0.298
13322W        W85648  36.280  24.514   1.264
13323W        W85649  35.441  33.605  12.008
13324W        W85650   2.414  14.408   2.721
13325W        W85651  42.418  43.001  12.902
13326W        W85652  31.000  14.786  13.128
13327W        W85653  18.029   2.312  12.863
13328W        W85654  27.657  20.428  11.121
13329W        W85655  17.710  27.137   0.097
13330W        W85656  31.462  17.295   2.681
13331W        W85657  33.957  26.487  13.867
13332W        W85658   6.387  13.315  14.759
13333W        W85659  17.343  43.582  11.068
13334W        W85660  20.831  36.629   3.617
13335W        W85661   5.834  27.475  12.811
13336W        W85662   7.430  18.533  12.365
13337W        W85663  36.328   5.965   3.985
13338W        W85664  39.403  36.938  14.089
13339W        W85665   1.365  42.794   4.063
13340W        W85666  12.464  42.733   3.728
13341W        W85667   5.302  31.086   4.595
13342W        W85668  19.673  11.603  11.578
13343W        W85669   7.679  37.400   2.852
13344W        W85670  24.717   9.576   2.344
13345W        W85671  20.132  18.261  14.737
13346W        W85672  24.644  11.336  12.546
13347W        W85673   8.767  12.900  12.137
13348W        W85674  21.007   9.164  13.087
13349W        W85675   1.226  34.116  13.528
13350W        W85676  43.302  28.653   4.364
13351W        W85677   0.639  25.665   1.428
13352W        W85678  33.038   3.961  13.517
13353W        W85679   1.107  32.276  12.669
13354W        W85680   8.763  41.244   1.813
13355W        W85681   0.950  31.500  11.548
13356W        W85682  12.876   5.104   2.414
13357W        W85683  37.002   1.872   0.886
13358W        W85684   2.399  30.975   1.231
13359W        W85685  43.044  43.341   4.559
13360W        W85686  41.420  13.066   1.221
13361W        W85687  44.953  31.341  14.726
13362W        W85688  39.940  43.894  12.053
13363W        W85689  14.590  31.950   1.963
13364W        W85690  44.861  19.615  12.252
13365W        W85691  17.789   3.350   4.899
13366W        W85692  14.205  15.760  10.864
13367W        W85693  36.318  37.326  14.204
13368W        W85694  21.923  22.887  10.176
13369W        W85695  27.277  41.204   0.603
13370W        W85696  32.427  38.049  12.694
13371W        W85697   1.329  40.455   0.315
13372W        W85698  20.281  22.678  13.670
13373W        W85699  41.380   0.577  13.065
13374W        W85700  42.322   7.753  10.596
13375W        W85701  38.434  13.578  11.816
13376W        W85702  35.551   2.556  12.928
13377W        W85703  34.121   9.089  10.943
13378W        W85704  30.259  25.922   5.559
13379W        W85705   3.896  16.356   4.516
13380W        W85706  12.584   3.425   3.012
13381W        W85707  35.199  24.907  11.147
13382W        W85708  21.164  37.632  13.482
13383W        W85709   6.911  29.448   3.215
13384W        W85710  38.814   4.318  13.940
13385W        W85711  38.920  31.996   2.347
13386W        W85712  38.092  22.959  13.796
13387W        W85713  42.843  35.063   2.837
13388W        W85714  25.538  12.078  13.162
13389W        W85715  41.692  39.534   1.184
13390W        W85716  21.936   3.817   1.823
13391W        W85717  28.634  13.609   4.540
13392W        W85718  27.428  38.975  11.065
13393W        W85719  42.209  42.846  14.436
13394W        W85720   0.925  28.779  11.276
13395W        W85721   8.128  31.692   4.591
13396W        W85722  37.182  12.659   9.706
13397W        W85723   7.279  12.999   4.025
13398W        W85724   4.200  44.052   3.693
13399W        W85725   3.278  10.337   1.912
13400W        W85726  31.316  34.201  13.860
13401W        W85727  30.146  33.464   1.735
13402W        W85728  36.610  37.451   3.167
13403W        W85729  18.911  11.442   3.727
13404W        W85730  20.308  41.034  14.993
13405W        W85731  13.585  15.682  14.282
13406W        W85732   3.691  24.534  12.955
13407W        W85733  31.216  19.207   1.029
13408W        W85734  24.499  13.157   1.348
13409W        W85735  22.498   9.077   3.170
13410W        W85736  18.429   0.773   0.320
13411W        W85737  29.983   3.831   3.816
13412W        W85738  38.425  20.077   1.642
13413W        W85739  16.798  31.401   3.721
13414W        W85740  18.549  35.528  14.305
13415W        W85741   6.190  21.956  11.993
13416W        W85742  20.230  14.895  13.019
13417W        W85743  44.440  44.785   2.946
13418W        W85744  35.581  37.444   4.124
13419W        W85745  31.532  42.354  13.316
13420W        W85746  19.244  41.206  14.727
13421W        W85747  31.839  40.436   3.371
13422W        W85748  33.439   4.855  12.496
13423W        W85749   7.774   8.935  12.899
13424W        W85750  24.483   1.750   1.238
13425W        W85751  31.551  12.073  13.410
13426W        W85752   3.327   2.856  13.284
13427W        W85753  30.511  11.629  10.717
13428W        W85754  15.764  37.728   2.733
13429W        W85755  34.511  39.521  13.373
13430W        W85756   9.882  14.872  14.584
13431W        W85757  36.079  18.003  13.050
13432W        W85758   7.893  25.953   1.196
13433W        W85759  15.799  13.802   3.280
13434W        W85760  32.998  17.695  13.623
13435W        W85761  32.603   9.802   2.151
13436W        W85762  31.777  34.585  13.312
13437W        W85763   4.604  40.262  11.630
13438W        W85764  27.051  38.769   0.925
13439W        W85765  35.092  20.603  12.829
13440W        W85766  33.921  37.869   3.364
13441W        W85767   3.500   6.642   3.613
13442W        W85768  12.074  35.598   4.221
13443W        W85769  37.562  29.545  11.707
13444W        W85770  34.350   9.880   1.392
13445W        W85771  32.353  19.167  11.124
13446W        W85772  20.203  12.758   3.810
13447W        W85773  44.882  27.614  10.927
13448W        W85774  37.503  10.638   1.670
13449W        W85775  17.819  22.765   1.690
13450W        W85776  36.791  16.753   0.059
13451W        W85777  37.094  17.234   5.051
13452W        W85778   3.892  12.123   2.167
13453W        W85779  17.546  33.156  11.196
13454W        W85780   7.933   0.896   2.694
13455W        W85781  14.121  30.240  13.409
13456W        W85782  12.901   2.828  14.272
13457W        W85783  40.937  16.144  10.624
13458W        W85784   4.980   8.321   0.996
13459W        W85785  13.385  32.673   0.512
13460W        W85786  17.917   7.754  11.018
13461W        W85787  26.467   5.790  13.619
13462W        W85788  16.747  10.368  11.609
13463W        W85789  37.270   6.809  11.145
13464W        W85790  15.265  25.564  14.287
13465W        W85791  24.391  42.914  11.519
13466W        W85792  32.465   5.827  13.932
13467W        W85793  13.119  42.777   5.101
13468W        W85794  17.892  13.209   1.489
13469W        W85795  16.003  21.529   2.741
13470W        W85796  38.018  24.622  14.863
13471W        W85797  37.175  23.108  13.365
13472W        W85798  28.963  34.260   3.582
13473W        W85799  23.579  37.686   5.038
13474W        W85800  34.469  41.285   1.220
13475W        W85801  16.722  25.650  11.073
13476W        W85802  12.323  21.112  12.460
13477W        W85803  20.488  28.350  14.498
13478W        W85804  42.978   3.941  12.959
13479W        W85805  38.262  36.536   2.749
13480W        W85806  21.218  31.027  12.452
13481W        W85807  43.831  11.579  11.542
13482W        W85808  16.739  41.140   0.900
13483W        W85809  33.121  27.464  11.711
13484W        W85810  28.464   8.389   2.028
13485W        W85811  24.452  34.124   0.924
13486W        W85812  12.269   1.483  10.714
13487W        W85813  30.309  19.772  11.616
13488W        W85814   1.946  11.833  14.687
13489W        W85815  43.311   9.786   4.542
13490W        W85816  15.623  42.851   0.503
13491W        W85817  20.040  12.017   2.324
13492W        W85818  27.411   0.990   0.136
13493W        W85819  18.497  20.082   2.257
13494W        W85820   5.900   7.604  11.575
13495W        W85821   1.285   7.588  13.027
13496W        W85822  14.261  42.987  13.178
13497W        W85823  44.362  24.585   0.868
13498W        W85824  35.341  20.700   2.211
13499W        W85825  31.530   1.762   0.458
13500W        W85826   8.653  38.999  10.814
13501W        W85827  11.830  17.205  14.894
13502W        W85828  30.540  18.338   2.920
13503W        W85829  44.473   0.015  14.439
13504W        W85830  38.171  22.567  13.413
13505W        W85831  43.982  12.694   4.179
13506W        W85832   0.832   4.873   3.184
13507W        W85833  23.002   1.843   2.963
13508W        W85834  13.163   3.501   0.872
13509W        W85835  39.820  22.387   2.573
13510W        W85836  35.544  25.646   3.194
13511W        W85837  37.587   4.366  13.598
13512W        W85838  29.430  18.683  10.599
13513W        W85839   8.313  21.648  12.141
13514W        W85840   1.527  19.243  14.307
13515W        W85841  29.942  43.202  12.467
13516W        W85842  44.906   2.018   4.317
13517W        W85843  40.768  40.539   3.843
13518W        W85844  31.003  42.752   0.451
13519W        W85845   4.381  33.343  11.633
13520W        W85846  32.172  15.802   2.139
13521W        W85847   3.011   5.356   0.512
13522W        W85848  38.335  26.602  12.706
13523W        W85849  17.714  29.895   1.393
13524W        W85850  10.736   3.495   1.736
13525W        W85851  14.368  41.943  14.775
13526W        W85852  39.035   9.846  10.727
13527W        W85853  40.822  34.391   3.871
13528W        W85854  29.217   4.704  11.652
13529W        W85855  10.757  28.054   4.461
13530W        W85856  37.520   9.328  11.510
13531W        W85857  31.449  10.878   1.862
13532W        W85858  21.308  31.180  14.625
13533W        W85859  35.097  26.853   4.147
13534W        W85860   2.189   9.786  11.776
13535W        W85861  27.071  15.150  10.783
13536W        W85862  43.201  24.476   3.562
13537W        W85863   0.880  24.653  10.635
13538W        W85864  16.066  19.143   0.513
13539W        W85865  12.975  21.796   0.677
13540W        W85866   7.994  37.412   2.385
13541W        W85867  41.983  14.343  13.086
13542W        W85868   0.193  12.890  10.942
13543W        W85869  25.056   5.624   0.558
13544W        W85870  14.682  14.312   3.148
13545W        W85871  18.017  41.023  12.385
13546W        W85872  44.151   1.827  10.737
13547W        W85873  30.604  20.074  10.500
13548W        W85874   0.411  19.714   3.958
13549W        W85875  34.499  33.968   4.186
13550W        W85876  25.476  39.872  14.489
13551W        W85877   3.203   6.938   2.438
13552W        W85878  18.691  39.558   2.602
13553W        W85879  20.515   3.192   0.327
13554W        W85880  14.840  19.154   4.642
13555W        W85881  23.721  20.999   2.348
13556W        W85882  28.631  34.402  10.639
13557W        W85883  14.194   9.908  14.228
13558W        W85884  30.064  12.398  14.097
13559W        W85885   8.564  24.794   2.367
13560W        W85886  28.529   6.868   0.479
13561W        W85887  18.499  27.124  10.781
13562W        W85888  11.647  20.021   1.394
13563W        W85889  27.939  19.046   1.616
13564W        W85890   9.430  34.836  13.773
13565W        W85891  43.335  21.793  10.610
13566W        W85892  20.745  37.339   2.234
13567W        W85893  43.782   1.659  13.913
13568W        W85894  42.044   5.478  14.745
13569W        W85895  12.323  21.152   2.186
13570W        W85896  17.908  42.941   0.569
13571W        W85897  33.935  35.938   2.852
13572W        W85898  21.276   0.129   2.114
13573W        W85899  43.081   3.721   0.883
13574W        W85900  35.623  23.746   3.040
13575W        W85901  19.144  44.574   2.798
13576W        W85902  14.255  23.985  11.937
13577W        W85903  28.540  43.798  14.043
13578W        W85904  41.546  34.163  14.891
13579W        W85905   6.340  11.656   2.308
13580W        W85906   3.207  12.717   2.676
13581W        W85907   9.841  19.091  14.897
13582W        W85908  44.236  22.278   4.090
13583W        W85909  16.312  40.271   0.763
13584W        W85910  31.383  27.043   2.760
13585W        W85911  22.333  23.614   2.805
13586W        W85912  21.735  42.729  12.048
13587W        W85913  24.559  19.700   0.309
13588W        W85914  39.858  24.074   0.761
13589W        W85915  31.475  38.448  13.820
13590W        W85916  40.521  42.524  13.389
13591W        W85917  35.856  24.183  11.537
13592W        W85918  17.282  12.754  11.358
13593W        W85919  24.326  18.637  10.689
13594W        W85920   6.714  33.231  11.542
13595W        W85921  30.663  10.117   1.460
13596W        W85922   9.260  38.631   3.090
13597W        W85923  13.659  21.458   3.781
13598W        W85924  19.657   1.889  14.458
13599W        W85925  35.402  21.177   4.424
13600W        W85926  25.420  34.966  14.894
13601W        W85927  22.100  39.833  14.039
13602W        W85928  24.079  31.623  10.932
13603W        W85929  30.198  31.726  13.516
13604W        W85930   4.029  12.627   2.177
13605W        W85931  29.659  30.264   2.361
13606W        W85932  19.617  44.819   4.051
13607W        W85933  44.652  34.725  10.249
13608W        W85934   7.469  21.703  10.868
13609W        W85935   6.497  26.982  12.628
13610W        W85936  33.174  23.136  11.538
13611W        W85937  23.465   3.508   2.261
13612W        W85938   2.732   3.505   0.404
13613W        W85939  17.096  41.787  13.339
13614W        W85940  39.383   4.888  12.930
13615W        W85941  28.471  32.913  12.955
13616W        W85942   0.345   9.288  12.894
13617W        W85943  30.942  35.591  13.915
13618W        W85944  43.451   7.805   0.815
13619W        W85945  16.701  21.463  14.699
13620W        W85946  18.767  39.799  12.488
13621W        W85947  17.692   1.471  10.662
13622W        W85948   4.741  27.407  14.856
13623W        W85949  23.165  35.331  13.361
13624W        W85950  43.622  36.649   0.158
13625W        W85951  23.919  26.260   2.270
13626W        W85952  19.528  39.931   0.992
13627W        W85953  32.231  21.145   3.816
13628W        W85954  33.094  30.359   2.401
13629W        W85955  14.295  43.720   1.132
13630W        W85956   6.074   7.266   2.447
13631W        W85957  13.069  13.651   3.709
13632W        W85958  31.983  14.799   0.852
13633W        W85959  40.750  30.656  13.536
13634W        W85960  37.814  36.860  13.846
13635W        W85961  40.303  41.581   3.216
13636W        W85962  12.285  31.895   2.782
13637W        W85963  30.656  37.989   4.762
13638W        W85964  22.655  42.423   1.764
13639W        W85965  31.628  15.038  14.581
13640W        W85966   5.846  38.877  12.434
13641W        W85967  17.042  11.161  13.126
13642W        W85968  27.541  44.440  12.241
13643W        W85969  41.122  25.515   1.159
13644W        W85970  33.650  44.566  11.069
13645W        W85971  15.180   7.960   3.151
13646W        W85972   7.012  30.019   2.683
13647W        W85973  19.130  35.534  13.023
13648W        W85974  15.074   9.808  10.933
13649W        W85975  16.586  27.819   3.686
13650W        W85976  42.173   8.846  14.918
13651W        W85977  38.148  24.456   0.341
13652W        W85978  32.866  41.434   1.330
13653W        W85979  30.638  18.826   1.634
13654W        W85980  26.929  33.742  14.761
13655W        W85981  24.176  13.659  10.791
13656W        W85982   6.723   8.357   3.384
13657W        W85983  13.361  13.324  10.703
13658W        W85984   3.028  20.910   4.167
13659W        W85985  43.210  14.201   3.751
13660W        W85986  16.293  23.671   4.597
13661W        W85987  41.741  25.509  11.552
13662W        W85988  38.807  20.039   0.647
13663W        W85989  19.244  19.257   4.379
13664W        W85990  26.620  20.731   0.298
13665W        W85991  15.532  27.672  14.716
13666W        W85992  37.965  30.885   3.702
13667W        W85993  35.148  12.787   1.864
13668W        W85994  16.726  22.780  13.580
13669W        W85995  26.082  15.296  13.914
13670W        W85996  42.741  14.567  11.999
13671W        W85997   5.829  15.872  10.585
13672W        W85998  42.548  20.401  11.660
13673W        W85999  24.286  38.873  12.091
13674W        W86000   9.809   1.471   3.626
13675W        W86001  43.414  32.100  14.003
13676W        W86002  27.555  11.610   2.354
13677W        W86003  13.576   2.417   4.561
13678W        W86004  35.116  42.315  10.736
13679W        W86005  10.537  29.032  14.910
13680W        W86006  20.110  18.239  12.051
13681W        W86007  16.926   7.296  11.510
13682W        W86008  12.205  19.723   4.639
13683W        W86009  31.443   5.809  14.229
13684W        W86010  30.449  35.508   2.852
13685W        W86011  38.326  28.336   2.109
13686W        W86012   7.801  40.923   3.234
13687W        W86013  23.645  30.414  11.939
13688W        W86014  12.828   0.303  11.644
13689W        W86015  26.615  35.895  13.052
13690W        W86016   6.435  39.883   0.712
13691W        W86017  26.466  25.448   2.885
13692W        W86018  35.386  35.612   5.469
13693W        W86019   6.756  25.236   0.682
13694W        W86020   7.825  26.688  10.618
13695W        W86021   4.675   8.901  11.516
13696W        W86022   2.372   7.305   0.729
13697W        W86023   6.861  14.224  13.330
13698W        W86024  36.584   0.801  14.882
13699W        W86025  18.050  31.810   5.006
13700W        W86026  10.850  38.370  14.084
13701W        W86027  41.499  18.433  13.469
13702W        W86028  34.969  43.116  12.144
13703W        W86029  43.702  38.082   0.836
13704W        W86030  16.873  42.522   1.929
13705W        W86031  15.301   6.895   2.281
13706W        W86032  15.343  21.223  10.477
13707W        W86033  20.726  22.206  14.568
13708W        W86034  34.324   1.668  11.977
13709W        W86035  11.346   7.610  13.011
13710W        W86036  20.084  33.344  10.657
13711W        W86037   0.307   5.990   1.266
13712W        W86038  10.223   6.439  10.682
13713W        W86039  33.327   6.227  11.934
13714W        W86040  21.900  11.678   3.173
13715W        W86041  16.060  20.670   1.051
13716W        W86042  26.113  44.710   4.358
13717W        W86043   0.445   1.272   2.191
13718W        W86044  27.142  21.001  13.086
13719W        W86045  38.012  41.330   1.473
13720W        W86046  16.302   9.887  10.594
13721W        W86047  39.350  19.528   3.184
13722W        W86048   7.268   9.893  10.954
13723W        W86049  19.597   2.433  12.774
13724W        W86050   7.449  29.106   0.091
13725W        W86051  25.158  16.060   3.173
13726W        W86052  40.530  18.157  14.744
13727W        W86053  37.543   5.408   1.470
13728W        W86054  25.678  28.639   2.859
13729W        W86055  36.473   9.889   2.419
13730W        W86056   3.645   1.801   3.902
13731W        W86057  37.519  40.566  12.203
13732W        W86058   1.632  11.885  10.215
13733W        W86059  39.613  15.778  13.935
13734W        W86060   8.798  16.780   2.731
13735W        W86061  37.413  11.055   2.447
13736W        W86062   6.400  12.114  13.926
13737W        W86063   9.161   1.032  13.739
13738W        W86064  22.342  25.701   0.340
13739W        W86065  33.484  44.405  10.195
13740W        W86066  29.831  21.267  13.358
13741W        W86067  36.988  31.643   0.808
13742W        W86068  17.639  22.005  12.012
13743W        W86069  29.555   7.663   4.671
13744W        W86070  40.136   9.617  12.975
13745W        W86071   9.362   4.935   4.579
13746W        W86072  25.031  10.862  10.548
13747W        W86073  10.026  33.156   1.377
13748W        W86074  30.480  10.585   1.269
13749W        W86075  10.212  25.982   1.394
13750W        W86076  33.669  38.830   0.907
13751W        W86077  22.685  16.081   4.245
13752W        W86078   4.823  25.627  14.387
13753W        W86079  28.105   4.953   4.663
13754W        W86080  13.153  23.736  13.549
13755W        W86081  31.138  35.189  10.606
13756W        W86082  27.879  24.260  12.262
13757W        W86083  13.612   2.305  11.080
13758W        W86084   0.550  32.198  14.354
13759W        W86085  33.255  36.012   2.165
13760W        W86086  38.312  34.469   3.159
13761W        W86087  13.575  27.894   0.537
13762W        W86088  42.916   7.795   1.278
13763W        W86089  22.561  32.617  11.862
13764W        W86090   7.796   7.146  11.199
13765W        W86091  34.406  40.888  12.452
13766W        W86092  39.797  39.706  10.681
13767W        W86093  32.855  31.006  13.311
13768W        W86094  36.024  37.025   0.742
13769W        W86095  24.597   4.322   4.115
13770W        W86096  33.930  31.295   2.393
13771W        W86097  36.961   3.198   0.497
13772W        W86098  14.295  38.339   3.205
13773W        W86099  33.994  18.578   4.585
13774W        W86100  27.204  23.595   3.676
13775W        W86101  44.853  44.833   1.408
13776W        W86102  33.049  17.300  14.723
13777W        W86103  32.272  14.714   0.403
13778W        W86104  34.193  15.654  12.566
13779W        W86105  29.168   9.439  11.084
13780W        W86106  36.957   1.647  14.481
13781W        W86107  36.068   2.764   4.649
13782W        W86108  27.406  27.020  10.649
13783W        W86109   9.126   9.908  12.881
13784W        W86110  17.627  22.018  14.065
13785W        W86111   9.969  25.537   1.240
13786W        W86112  19.385  23.745   3.776
13787W        W86113  18.785  41.383  14.471
13788W        W86114  25.072  17.815   2.428
13789W        W86115  23.388  13.339  10.498
13790W        W86116  16.304   8.592   4.128
13791W        W86117  29.547  40.503  14.948
13792W        W86118  33.174  22.337   4.039
13793W        W86119   9.200  15.721   1.970
13794W        W86120   8.364  17.161  14.158
13795W        W86121  36.964  41.955  13.089
13796W        W86122  40.900  13.555  14.902
13797W        W86123  19.652  17.133  12.617
13798W        W86124   5.809  37.324   4.492
13799W        W86125  31.914  21.791  14.325
13800W        W86126  11.062  39.196   3.215
13801W        W86127  20.059  38.525  13.962
13802W        W86128  29.955  21.608  13.751
13803W        W86129   7.135   5.456   4.149
13804W        W86130  28.203   6.122  11.875
13805W        W86131  27.188  34.426   1.230
13806W        W86132  31.496  18.704   1.117
13807W        W86133   1.956  34.945   2.782
13808W        W86134   4.705  34.957  14.295
13809W        W86135  18.793  18.059  12.037
13810W        W86136  44.761  33.727  11.485
13811W        W86137  42.406   1.035   1.258
13812W        W86138  15.878  17.344   0.633
13813W        W86139  44.596   9.582   5.223
13814W        W86140   4.287   6.725  14.287
13815W        W86141   2.978  12.847   5.053
13816W        W86142  32.466  29.419   0.758
13817W        W86143  12.674  29.288  10.658
13818W        W86144  37.451  34.790   3.151
13819W        W86145   1.361  12.127   1.238
13820W        W86146   8.358  38.326  12.959
13821W        W86147  31.007  13.083   3.735
13822W        W86148  41.069  40.118  15.000
13823W        W86149  22.022  13.887   4.133
13824W        W86150  43.476  10.403  10.582
13825W        W86151  27.034   3.192  11.612
13826W        W86152  13.362  26.514   1.877
13827W        W86153   7.859   9.573  12.018
13828W        W86154  40.463   2.318   4.953
13829W        W86155  15.420   3.752  14.410
13830W        W86156  38.955  13.189  11.446
13831W        W86157  13.060  29.928  10.367
13832W        W86158   6.578  40.399   3.638
13833W        W86159  40.399  13.757  14.626
13834W        W86160  11.203  20.584   3.273
13835W        W86161  20.733  32.891   3.168
13836W        W86162  22.547  17.898   0.297
13837W        W86163  39.930  20.836   0.815
13838W        W86164  14.755  25.903   1.667
13839W        W86165  23.205  38.575   1.301
13840W        W86166  26.481  10.609   1.222
13841W        W86167   1.224  15.106  11.846
13842W        W86168   8.378  10.784  11.059
13843W        W86169  35.875  19.700  14.794
13844W        W86170   7.869  44.017  12.396
13845W        W86171  10.298  44.059   3.158
13846W        W86172  24.214   9.753   4.291
13847W        W86173  11.239   6.395  14.019
13848W        W86174  22.282  22.256   1.809
13849W        W86175  14.664  34.952  11.919
13850W        W86176  30.376  29.369  12.404
13851W        W86177  25.485  11.169  14.655
13852W        W86178  13.514  25.895  11.338
13853W        W86179  17.674  35.279  10.803
13854W        W86180  41.469  28.372   4.614
13855W        W86181  19.654   0.536   2.908
13856W        W86182  28.522  42.858  11.614
13857W        W86183  21.988  38.856   2.099
13858W        W86184   3.233   0.306  13.949
13859W        W86185  33.136  32.535  10.545
13860W        W86186   5.206  42.537   2.827
13861W        W86187  31.070  12.259   4.949
13862W        W86188  35.477  11.557   0.477
13863W        W86189  13.613  36.316   2.469
13864W        W86190  13.294  26.861   3.763
13865W        W86191  31.896  15.046   0.252
13866W        W86192  41.309  22.153  11.992
13867W        W86193  29.843   7.797   4.250
13868W        W86194  40.627   8.721   1.831
13869W        W86195  36.783  18.603   3.110
13870W        W86196   4.679   3.480  10.580
13871W        W86197   8.202  23.180  12.658
13872W        W86198  21.588  24.877  14.977
13873W        W86199  12.359   3.317   4.509
13874W        W86200  26.032   5.439   2.271
13875W        W86201   7.853  32.700  14.718
13876W        W86202  42.954  24.102  13.983
13877W        W86203  22.008  33.474   3.685
13878W        W86204  43.778  26.481   3.637
13879W        W86205  30.832  19.211   0.643
13880W        W86206   1.145  36.035   0.956
13881W        W86207  39.793  19.593  13.498
13882W        W86208   2.485  27.875  14.950
13883W        W86209  33.501  29.512  11.957
13884W        W86210  39.643   1.066  14.202
13885W        W86211  31.215  35.389  12.521
13886W        W86212  13.522  43.257   1.202
13887W        W86213  31.678   9.789  10.400
13888W        W86214  21.237   0.857   1.740
13889W        W86215  25.102  41.368   4.766
13890W        W86216   1.969  30.689   0.759
13891W        W86217   4.899  17.796  11.522
13892W        W86218  32.772  32.412   3.145
13893W        W86219  28.395  14.840  10.898
13894W        W86220  11.852   2.814  10.258
13895W        W86221   4.064  30.188   4.654
13896W        W86222  17.139  23.599   0.563
13897W        W86223  12.598  38.927  12.599
13898W        W86224   1.826  24.996  12.402
13899W        W86225  44.855  40.615   3.187
13900W        W86226  35.258  23.523   0.321
13901W        W86227  34.613  35.337   2.811
13902W        W86228  24.687  28.446  12.957
13903W        W86229  22.549  17.475   1.488
13904W        W86230  36.938  31.963  10.254
13905W        W86231  23.667  36.411   4.409
13906W        W86232   6.196  36.344  12.962
13907W        W86233  35.474  26.186   3.200
13908W        W86234   2.958  43.814   0.865
13909W        W86235  36.253  24.976   2.300
13910W        W86236  12.849   7.317   1.945
13911W        W86237  23.383   8.985   0.567
13912W        W86238   0.411  38.567  14.760
13913W        W86239  42.627   6.507   4.412
13914W        W86240  27.943   6.123  11.443
13915W        W86241  12.644   9.786   0.909
13916W        W86242  15.148  35.879  14.479
13917W        W86243  42.190  19.392   0.339
13918W        W86244  12.651  14.567  14.304
13919W        W86245  26.176  39.863   1.321
13920W        W86246   9.720  31.220  14.369
13921W        W86247   6.978  43.349   2.266
13922W        W86248  14.217   4.293   1.742
13923W        W86249  11.717  35.778  11.575
13924W        W86250  20.676  27.121   2.747
13925W        W86251  19.160  20.734   0.516
13926W        W86252  35.063   4.940   4.119
13927W        W86253  21.917  12.630   1.826
13928W        W86254   6.742  12.785  12.828
13929W        W86255  41.955  42.021  14.947
13930W        W86256  31.233  29.495  10.764
13931W        W86257   3.420  13.734   2.856
13932W        W86258  31.104   7.264  13.279
13933W        W86259  24.904  17.193   4.032
13934W        W86260  25.843  27.705  10.090
13935W        W86261  15.281  41.156   1.374
13936W        W86262  41.930  30.085  13.125
13937W        W86263   0.147  40.926   1.778
13938W        W86264  40.912  30.540   2.282
13939W        W86265  11.615  31.271  14.314
13940W        W86266  28.716  35.371   0.762
13941W        W86267  28.684  35.499  14.437
13942W        W86268  25.585  10.591   1.226
13943W        W86269   1.484  11.877  14.929
13944W        W86270  40.502  19.101  12.084
13945W        W86271  24.998  21.272   4.090
13946W        W86272  43.465  18.068   2.653
13947W        W86273  31.618  18.572   3.284
13948W        W86274  40.326  40.328   0.972
13949W        W86275  42.822   1.482   4.644
13950W        W86276   7.931   4.871   4.702
13951W        W86277   7.828  39.367  11.158
13952W        W86278  34.109  35.910   2.050
13953W        W86279  13.319   6.160  11.584
13954W        W86280   1.481  14.764  11.508
13955W        W86281   7.905   9.325   2.883
13956W        W86282   7.072  31.197  14.358
13957W        W86283  12.907  29.501  12.498
13958W        W86284  22.776  25.700   9.986
13959W        W86285  21.957  35.398  11.959
13960W        W86286   3.878  20.011  12.985
13961W        W86287   5.751  28.209  13.540
13962W        W86288  44.416   8.223  11.062
13963W        W86289   0.222  10.098  12.479
13964W        W86290  13.107  23.703   0.039
13965W        W86291  38.441   3.245   0.407
13966W        W86292  43.113   4.141  11.119
13967W        W86293  24.218  37.132  10.202
13968W        W86294  16.341  18.934   1.424
13969W        W86295  11.172  31.545  11.970
13970W        W86296  15.009  17.164   3.107
13971W        W86297  23.127  21.570  11.167
13972W        W86298  12.125   2.869  11.563
13973W        W86299  39.094   2.422   4.490
13974W        W86300  17.044  29.040  13.983
13975W        W86301  21.272  41.387   4.167
13976W        W86302  12.796  41.322  14.963
13977W        W86303  43.541  13.812   3.342
13978W        W86304  39.880   6.811  12.440
13979W        W86305   5.343  37.236  13.385
13980W        W86306  35.458  15.786   5.082
13981W        W86307  39.016  16.225  11.946
13982W        W86308   9.477  19.993  12.024
13983W        W86309  13.818  10.665  11.853
13984W        W86310  30.619  27.446  14.925
13985W        W86311  16.580  25.424  12.067
13986W        W86312   0.979   3.284  12.527
13987W        W86313  20.127  12.558  11.663
13988W        W86314  18.075   6.857  14.886
13989W        W86315  19.792   9.640  14.530
13990W        W86316   2.995  33.870   3.722
13991W        W86317  43.700  37.842  14.773
13992W        W86318   5.232  27.529  13.668
13993W        W86319  28.629  29.994   3.128
13994W        W86320  29.183  36.549  12.703
13995W        W86321   5.290  23.894  12.580
13996W        W86322  12.107  16.346   1.261
13997W        W86323   0.192  20.183  13.989
13998W        W86324  26.063  36.676   0.335
13999W        W86325   7.148  14.209  14.829
14000W        W86326   1.227  16.596  11.601
14001W        W86327   3.788  42.474  11.562
14002W        W86328  24.676  35.627   1.664
14003W        W86329  23.473  26.949   3.632
14004W        W86330  19.208  36.982   4.582
14005W        W86331  11.393  27.199   2.744
14006W        W86332   5.264  24.583  11.933
14007W        W86333   8.564  39.425   4.166
14008W        W86334   7.424  28.318   3.797
14009W        W86335   9.557   4.446  11.236
14010W        W86336  36.618  18.656  11.178
14011W        W86337  10.199  19.011   1.409
14012W        W86338  40.915  33.079  14.549
14013W        W86339  23.076   2.318   3.278
14014W        W86340  28.108  38.025  10.951
14015W        W86341  39.564  10.168   4.421
14016W        W86342  41.146  16.800   4.662
14017W        W86343   9.647  19.083  11.233
14018W        W86344  15.844  30.033  11.189
14019W        W86345  40.412  24.594   3.889
14020W        W86346  42.863  41.535   4.138
14021W        W86347  28.202  25.507   4.972
14022W        W86348  15.631  34.667   0.897
14023W        W86349   7.256  33.614  12.677
14024W        W86350  34.458  30.901   4.462
14025W        W86351  30.776  41.219   4.504
14026W        W86352  41.799  18.209   3.538
14027W        W86353   0.250  29.048   2.633
14028W        W86354   7.177  22.455  11.298
14029W        W86355  12.589  32.058   3.194
14030W        W86356  27.622  18.790   4.331
14031W        W86357  38.599  36.600   1.700
14032W        W86358   1.368   7.273  10.796
14033W        W86359  17.026  31.224   4.162
14034W        W86360  34.638  40.290   2.741
14035W        W86361  20.471  22.160   0.509
14036W        W86362  22.007  22.726   2.681
14037W        W86363   0.723  34.741   4.943
14038W        W86364  15.123  19.687   2.926
14039W        W86365   3.263  34.855   3.676
14040W        W86366  14.289  44.313   2.384
14041W        W86367  39.784  10.334  11.159
14042W        W86368   6.605  23.188  14.274
14043W        W86369  40.003  11.625   2.260
14044W        W86370   2.428  12.014   1.513
14045W        W86371  15.808  10.294  12.286
14046W        W86372   2.026  13.603   4.500
14047W        W86373   7.301  16.627   0.028
14048W        W86374  41.251  37.058  11.188
14049W        W86375   2.178  13.228   3.190
14050W        W86376  21.951  12.654  13.016
14051W        W86377   9.025  42.913   9.865
14052W        W86378  34.117  12.238  11.094
14053W        W86379  38.906  42.380   2.522
14054W        W86380  19.435   8.355   1.193
14055W        W86381  20.674   4.752   3.242
14056W        W86382  20.132  16.177   4.138
14057W        W86383  42.274  12.864  14.882
14058W        W86384  38.786   9.695  10.289
14059W        W86385  30.613  22.001   1.814
14060W        W86386  44.815  13.413  14.875
14061W        W86387  14.742  34.742  10.305
14062W        W86388  27.254  44.820  12.057
14063W        W86389  38.839  21.834  10.232
14064W        W86390   0.712   0.186  13.903
14065W        W86391   9.342  17.155   3.759
14066W        W86392  36.447  11.649   0.473
14067W        W86393   6.470  34.439  11.101
14068W        W86394   9.129  39.428  12.505
14069W        W86395  23.180  26.628  14.017
14070W        W86396  40.726   8.932   2.703
14071W        W86397  12.170  40.738   4.638
14072W        W86398  23.674  39.286   3.566
14073W        W86399   4.685  18.864  13.824
14074W        W86400  34.001  38.748  11.503
14075W        W86401  31.945  31.108   0.373
14076W        W86402  40.017  21.289  11.876
14077W        W86403  15.221  17.557   2.250
14078W        W86404  36.269  18.636   3.199
14079W        W86405  21.950  42.044   1.827
14080W        W86406  43.094  16.227  11.376
14081W        W86407  44.345   6.113   2.660
14082W        W86408  42.805  35.803   2.361
14083W        W86409  10.796  35.929   4.986
14084W        W86410   8.415  26.080  13.113
14085W        W86411  41.755  43.290   2.818
14086W        W86412  35.982   5.373   3.184
14087W        W86413  29.963   9.389  14.897
14088W        W86414  40.083  29.774   5.054
14089W        W86415  10.592  44.431  10.748
14090W        W86416  21.265  13.704   3.138
14091W        W86417  14.463  24.250  11.522
14092W        W86418  40.624  39.318  11.681
14093W        W86419  28.535  18.134  14.337
14094W        W86420  20.351  13.819   1.942
14095W        W86421  27.441  30.974  11.674
14096W        W86422  33.942  37.500   3.732
14097W        W86423  32.367  34.180  12.668
14098W        W86424  40.873  15.610   3.112
14099W        W86425   4.373  16.525  14.341
14100W        W86426  10.839   3.179  14.902
14101W        W86427  28.480  41.500  12.143
14102W        W86428  11.750  42.813   1.038
14103W        W86429  27.104  35.335  13.128
14104W        W86430  28.663  25.933   5.213
14105W        W86431  18.059  28.180   1.760
14106W        W86432  24.634  37.832  12.599
14107W        W86433  36.478  12.381   3.725
14108W        W86434  35.521   2.449  13.812
14109W        W86435   2.907  19.081   2.478
14110W        W86436  12.123  22.549  11.113
14111W        W86437  24.417   3.591  12.606
14112W        W86438  14.338   2.888  11.564
14113W        W86439  35.126  39.544   0.557
14114W        W86440  22.720  15.019   0.102
14115W        W86441   3.642  36.769   0.575
14116W        W86442   3.698  15.326  12.459
14117W        W86443   5.430  11.888  12.471
14118W        W86444  32.445  22.065   1.208
14119W        W86445  37.910  12.892  11.594
14120W        W86446  17.201   9.897  10.405
14121W        W86447  21.200  40.943   2.859
14122W        W86448   1.425  21.154   4.036
14123W        W86449   1.783  30.974   0.234
14124W        W86450  31.807  25.525   3.440
14125W        W86451  19.011  33.000  11.279
14126W        W86452   1.712  44.220   0.585
14127W        W86453  42.040   1.918   1.836
14128W        W86454   5.688  14.256   5.197
14129W        W86455  33.937   3.593   4.560
14130W        W86456  13.353  36.415  14.657
14131W        W86457  11.841  34.364   0.786
14132W        W86458   4.443  36.820   2.358
14133W        W86459   5.050   9.350   0.410
14134W        W86460  19.131   8.435   2.391
14135W        W86461  21.621  33.166  14.006
14136W        W86462  22.816  16.957  13.190
14137W        W86463  25.625   8.083   1.908
14138W        W86464  20.818  13.169  11.524
14139W        W86465   6.909   5.787   2.605
14140W        W86466   0.591  15.147   0.669
14141W        W86467  27.147  37.402   3.333
14142W        W86468   8.952  44.549  11.010
14143W        W86469  22.706  29.142  10.583
14144W        W86470  42.949  17.332   2.832
14145W        W86471  11.097   5.741   2.829
14146W        W86472  29.520  19.741  11.248
14147W        W86473  19.035  38.948  11.577
14148W        W86474  37.947  26.505   2.560
14149W        W86475  20.523  21.699   0.747
14150W        W86476  15.191  15.379  11.519
14151W        W86477  19.286  16.152   0.357
14152W        W86478  21.795   1.193  12.489
14153W        W86479  15.015  22.514  11.669
14154W        W86480  27.142  31.421  12.162
14155W        W86481  41.889   6.607  11.055
14156W        W86482  41.809   8.436  13.449
14157W        W86483  15.701  40.274   2.671
14158W        W86484  38.797   9.662   3.263
14159W        W86485  43.968  22.277  10.539
14160W        W86486  18.413   7.341   4.745
14161W        W86487  17.785   8.550   1.597
14162W        W86488  27.563  43.249  14.999
14163W        W86489  15.258  44.768   2.880
14164W        W86490  29.557  10.275  12.189
14165W        W86491  36.050   4.456  14.874
14166W        W86492   5.391   1.663   0.947
14167W        W86493  14.067  25.762  13.858
14168W        W86494  44.893  23.741   2.252
14169W        W86495  22.579  10.223  14.396
14170W        W86496  14.001   1.744   2.059
14171W        W86497   2.944   3.151   0.102
14172W        W86498  30.400  39.126  13.375
14173W        W86499  19.223  10.890   1.244
14174W        W86500  43.785  42.059  11.431
14175W        W86501   3.407  31.043   1.423
14176W        W86502  10.888  41.999   4.643
14177W        W86503  31.425  24.548  10.445
14178W        W86504  10.442   4.372  13.438
14179W        W86505  43.778   7.836   1.217
14180W        W86506  36.084  36.822   2.370
14181W        W86507  33.191  11.598  14.407
14182W        W86508   5.699  34.965  10.937
14183W        W86509  26.135  41.098   1.859
14184W        W86510  14.294  19.143   4.606
14185W        W86511   3.005  15.212   4.732
14186W        W86512   1.333  27.688   1.817
14187W        W86513   8.206  15.136   1.249
14188W        W86514  28.045  12.866   2.479
14189W        W86515  20.271   9.876   2.683
14190W        W86516  38.889  26.872  11.422
14191W        W86517  38.278  35.777  11.232
14192W        W86518   8.586  42.393   2.345
14193W        W86519  28.402   7.942  12.902
14194W        W86520  30.607   4.207  14.871
14195W        W86521   0.667   6.688  12.025
14196W        W86522  13.273   6.866  11.187
14197W        W86523  16.200   8.285   0.911
14198W        W86524  26.660  31.919  12.655
14199W        W86525  32.084   3.446   1.882
14200W        W86526  38.229  40.271  12.988
14201W        W86527  17.402   4.827   3.592
14202W        W86528  30.582  27.640   3.685
14203W        W86529   5.311  24.003   1.647
14204W        W86530  27.552  38.321   2.847
14205W        W86531  19.993  35.795   4.232
14206W        W86532   5.882  21.525  12.041
14207W        W86533  39.298  40.466   1.717
14208W        W86534  34.079  39.490  10.514
14209W        W86535   1.506   3.910  14.016
14210W        W86536   6.681  20.274   4.839
14211W        W86537  18.280  10.232  10.356
14212W        W86538  13.120   6.650   4.137
14213W        W86539   5.939  31.887  11.873
14214W        W86540  38.390  44.450  10.926
14215W        W86541  11.411  32.674  13.349
14216W        W86542  15.620  27.516   1.225
14217W        W86543  38.048  36.889  10.583
14218W        W86544  15.381  38.950   1.777
14219W        W86545  26.210   0.280   2.308
14220W        W86546  24.289  34.547  10.714
14221W        W86547  40.913  39.203   3.715
14222W        W86548  19.720  31.490   1.385
14223W        W86549  35.511  38.851   2.254
14224W        W86550  42.833   6.486   1.870
14225W        W86551   2.259  28.604  12.843
14226W        W86552  39.481  15.720   4.275
14227W        W86553  25.385  11.716  10.678
14228W        W86554  19.612  17.443   5.113
14229W        W86555  27.578   0.513  12.430
14230W        W86556  22.735  20.274   3.577
14231W        W86557  29.105  26.880  14.300
14232W        W86558  36.939   0.447   3.574
14233W        W86559  38.367  11.352  13.046
14234W        W86560   0.255  22.110  14.271
14235W        W86561  32.079  25.532  10.755
14236W        W86562  27.607  16.698   0.280
14237W        W86563  43.220  11.769  13.362
14238W        W86564  23.026   3.018  11.995
14239W        W86565   4.272  34.572   4.178
14240W        W86566  12.711  12.427   3.743
14241W        W86567  37.401  38.510  14.593
14242W        W86568   2.844  13.356   3.181
14243W        W86569  31.961  41.329  12.924
14244W        W86570  22.264  42.402   3.888
14245W        W86571  11.816  22.084   0.512
14246W        W86572  10.308   0.455   1.217
14247W        W86573   1.302   0.330   0.397
14248W        W86574  10.264  31.843  11.187
14249W        W86575  38.320  15.557   0.029
14250W        W86576  26.145   0.676   2.645
14251W        W86577   6.184  40.022   3.663
14252W        W86578  32.302  42.969  12.110
14253W        W86579  13.615  25.604  14.742
14254W        W86580  36.998   6.074  11.162
14255W        W86581   3.517  12.609  10.137
14256W        W86582  41.345  13.830   0.765
14257W        W86583  30.211  29.502  10.593
14258W        W86584  16.098  39.487  12.049
14259W        W86585  11.193  23.108   1.417
14260W        W86586  13.734  28.664   4.550
14261W        W86587  29.519  25.269  13.014
14262W        W86588  34.403   3.910  12.550
14263W        W86589  44.507  22.993  11.043
14264W        W86590   9.876   2.833   3.563
14265W        W86591  29.315  11.359   0.388
14266W        W86592  28.145  30.147   0.251
14267W        W86593  10.298  34.601  11.031
14268W        W86594  14.137  13.288  11.142
14269W        W86595  10.816  16.096   2.705
14270W        W86596   3.287  29.900  12.963
14271W        W86597  33.921  26.984  13.052
14272W        W86598   7.747  35.905   1.887
14273W        W86599  26.971  25.566   3.092
14274W        W86600  41.769  42.926   3.370
14275W        W86601   0.030  33.190   0.317
14276W        W86602  43.348  31.005   0.704
14277W        W86603  13.932  41.492   1.763
14278W        W86604  37.787   6.866   2.789
14279W        W86605  21.426  14.856   4.654
14280W        W86606  18.746  33.931  11.414
14281W        W86607  22.734  20.202  12.961
14282W        W86608  28.983   6.324  12.357
14283W        W86609   3.788  29.880  11.588
14284W        W86610  14.516   6.885   4.268
14285W        W86611   7.787   1.190   0.675
14286W        W86612   9.008   1.586   3.201
14287W        W86613  41.895   6.882  11.473
14288W        W86614  32.698  22.135   1.688
14289W        W86615   5.945   6.732  10.630
14290W        W86616  30.537  35.957   3.151
14291W        W86617   5.754  38.497   1.160
14292W        W86618  23.112  18.193   2.682
14293W        W86619  43.071   6.355  14.444
14294W        W86620   6.877  35.622  12.848
14295W        W86621  17.762  15.560   0.917
14296W        W86622  35.374  43.987   2.328
14297W        W86623  39.051  24.066   1.288
14298W        W86624  35.352   3.312   0.447
14299W        W86625  12.705   6.346  13.772
14300W        W86626  33.041  32.443  13.341
14301W        W86627  21.540  38.552  11.571
14302W        W86628  40.431  33.651   2.108
14303W        W86629  13.110  25.955   1.313
14304W        W86630  44.742  13.110   0.483
14305W        W86631  43.960  28.786   0.571
14306W        W86632  25.564   5.156  13.825
14307W        W86633  43.870   6.948  13.429
14308W        W86634  20.980  29.389   3.828
14309W        W86635  29.507  15.403  12.552
14310W        W86636  21.060  15.416  13.775
14311W        W86637  42.098  31.530  10.273
14312W        W86638  19.632  21.472   3.427
14313W        W86639  29.652  14.082   0.913
14314W        W86640   3.268  24.998  13.784
14315W        W86641   9.676  43.031   4.078
14316W        W86642  10.170   5.684  13.357
14317W        W86643   8.356  22.615   1.907
14318W        W86644  44.114   2.481  11.930
14319W        W86645  16.337  14.077  11.926
14320W        W86646   2.934  31.008   4.567
14321W        W86647   7.095   8.308  12.880
14322W        W86648  25.491  11.317  12.083
14323W        W86649   1.331  33.569  14.441
14324W        W86650  13.621  17.706  13.799
14325W        W86651  27.884  40.239   1.772
14326W        W86652   8.804  43.714   0.808
14327W        W86653  38.500  39.300   4.466
14328W        W86654  17.804  29.221  10.371
14329W        W86655   5.647  17.127  14.776
14330W        W86656  21.137  41.080  10.616
14331W        W86657  11.012  39.451  13.974
14332W        W86658  44.261  29.923   4.895
14333W        W86659   3.883   5.026  10.155
14334W        W86660  28.546  21.134  11.894
14335W        W86661  18.847   2.735  13.862
14336W        W86662  41.893  37.832   5.011
14337W        W86663  44.812   5.444  10.461
14338W        W86664  31.054  15.479   2.815
14339W        W86665  14.468  42.859  11.927
14340W        W86666  31.133  18.580   4.006
14341W        W86667   2.777   3.375   1.364
14342W        W86668   2.890  19.183  12.957
14343W        W86669  40.372   5.363   4.077
14344W        W86670  35.383  32.439   2.316
14345W        W86671   3.903  40.721   4.207
14346W        W86672  43.762   4.507   0.982
14347W        W86673   4.246  16.710   4.663
14348W        W86674   3.748   2.748  11.034
14349W        W86675  35.440  24.668  10.509
14350W        W86676   8.285  42.014  13.850
14351W        W86677   3.884  29.458  13.490
14352W        W86678  43.913  41.035   2.266
14353W        W86679   2.189  29.741  14.342
14354W        W86680  23.768  41.992  14.471
14355W        W86681   1.477   2.839  12.102
14356W        W86682  23.872  34.721   1.386
14357W        W86683  11.057   3.214  12.962
14358W        W86684  31.287  38.328   4.235
14359W        W86685   0.290  26.706   2.947
14360W        W86686   9.352  14.598  14.380
14361W        W86687  11.286  13.345  14.834
14362W        W86688   2.839  38.445  12.946
14363W        W86689  21.147   6.461  14.369
14364W        W86690  10.741   8.941   1.849
14365W        W86691  10.726  24.483  13.028
14366W        W86692  33.912  22.550  14.976
14367W        W86693  31.685  33.593  13.314
14368W        W86694  25.471  44.538   2.197
14369W        W86695  28.067  18.784  13.667
14370W        W86696  42.228  33.615  11.911
14371W        W86697  32.859  38.393  11.160
14372W        W86698   5.783  31.939   1.254
14373W        W86699   7.793  13.780  11.970
14374W        W86700  23.501   6.178  10.699
14375W        W86701  15.685  41.409   1.156
14376W        W86702   6.997  21.533  10.991
14377W        W86703  24.264   5.863  14.277
14378W        W86704  10.824  13.406  14.016
14379W        W86705  26.123   5.913  11.584
14380W        W86706  35.881  33.075  12.820
14381W        W86707  13.883  35.857  12.971
14382W        W86708   8.419  24.694  11.059
14383W        W86709  19.386  28.119   3.290
14384W        W86710   6.314  43.273   4.105
14385W        W86711   2.228  41.498  10.267
14386W        W86712  39.651  40.891  11.923
14387W        W86713  33.166  42.976  10.529
14388W        W86714  39.823   6.630   0.836
14389W        W86715   7.277  32.644   0.430
14390W        W86716  30.394   1.320  11.581
14391W        W86717  13.678  14.330  11.786
14392W        W86718  32.101  30.551  10.443
14393W        W86719  18.618  21.043   4.493
14394W        W86720   5.837  24.649  12.591
14395W        W86721  40.369  27.626   4.330
14396W        W86722  36.977  17.205   1.814
14397W        W86723  22.144  41.138   3.030
14398W        W86724   4.145   5.902   2.137
14399W        W86725  43.267  22.068  13.592
14400W        W86726  10.794  38.262  14.585
14401W        W86727  43.064  32.099  11.907
14402W        W86728   9.372  43.185  11.177
14403W        W86729   1.316   1.534   2.342
14404W        W86730   7.724  43.629   2.638
14405W        W86731  29.505  34.880   0.447
14406W        W86732  25.231  29.579   2.712
14407W        W86733  13.623  36.854  12.896
14408W        W86734   8.690  14.077   0.428
14409W        W86735  28.174  37.006   2.217
14410W        W86736  14.737  33.921   9.778
14411W        W86737  36.594  34.519  10.677
14412W        W86738  26.534   4.626   2.466
14413W        W86739  30.935  42.600  14.949
14414W        W86740  23.510  15.588  10.676
14415W        W86741   7.366  43.761   0.715
14416W        W86742  41.760  31.478  12.084
14417W        W86743  23.671  21.103  10.836
14418W        W86744  31.390  39.252  14.213
14419W        W86745  41.407  31.657   2.189
14420W        W86746  13.590  30.944  13.228
14421W        W86747  11.744  17.746  14.674
14422W        W86748  13.260  20.283   1.725
14423W        W86749   9.001  17.448   4.202
14424W        W86750   7.121  25.034   2.275
14425W        W86751  41.817  37.752  12.399
14426W        W86752  28.472  34.058   1.320
14427W        W86753  16.643   6.265  14.045
14428W        W86754  13.222  39.254  13.035
14429W        W86755   6.868  43.447  10.793
14430W        W86756   5.777  41.763   4.497
14431W        W86757  32.396  12.066  12.155
14432W        W86758  10.692  44.868   0.536
14433W        W86759  20.541   3.394  11.641
14434W        W86760   9.418   6.928  12.469
14435W        W86761   4.367  39.779   0.819
14436W        W86762  42.012  39.757   0.827
14437W        W86763  18.717  10.951   0.004
14438W        W86764  19.589  12.959   4.488
14439W        W86765  24.052  11.911   3.153
14440W        W86766   7.399  11.093   3.326
14441W        W86767  11.264  19.660  10.517
14442W        W86768  38.985  19.562  10.228
14443W        W86769  33.405  26.203   4.287
14444W        W86770  29.552  16.864   0.245
14445W        W86771  18.545  28.237   1.872
14446W        W86772   1.180  25.512   0.250
14447W        W86773  34.245  24.698  11.930
14448W        W86774  25.524  11.567  13.032
14449W        W86775  17.229  39.011   1.721
14450W        W86776  31.643  41.439  14.995
14451W        W86777  38.346   0.188  13.375
14452W        W86778  18.203  17.083   0.096
14453W        W86779  33.063   0.688   3.394
14454W        W86780  24.467  41.111  14.682
14455W        W86781   7.701  32.980   0.731
14456W        W86782  31.184  27.667  12.898
14457W        W86783   5.969  39.428   2.878
14458W        W86784  22.607  26.634  13.983
14459W        W86785  37.467  31.959  10.396
14460W        W86786   3.550  41.293   1.745
14461W        W86787  21.267  26.880  10.173
14462W        W86788  30.806   4.693   2.892
14463W        W86789  15.544  12.264   1.004
14464W        W86790  43.964   1.410   3.616
14465W        W86791   9.716  29.007  10.662
14466W        W86792  40.022  30.907   2.092
14467W        W86793  16.694  42.332  12.246
14468W        W86794  44.039  27.964  12.985
14469W        W86795  21.416  16.662   0.784
14470W        W86796  31.843   7.804   4.537
14471W        W86797  18.743  34.987   4.326
14472W        W86798   9.147  27.661  10.512
14473W        W86799  27.567  43.320   3.191
14474W        W86800  26.409  25.862   0.215
14475W        W86801  18.660  24.303  11.511
14476W        W86802  16.633  41.323  11.099
14477W        W86803   1.965  37.954   4.240
14478W        W86804  34.454  38.459  11.940
14479W        W86805  27.152  41.496  12.138
14480W        W86806   1.297  11.175   2.338
14481W        W86807   5.484  36.625   1.631
14482W        W86808  40.327  19.646   0.730
14483W        W86809  43.345  17.319  10.687
14484W        W86810  14.608  24.179   0.857
14485W        W86811  26.560  40.002   4.371
14486W        W86812  11.831  40.435  14.944
14487W        W86813  39.114   2.279  10.657
14488W        W86814  24.565  10.668   2.386
14489W        W86815   8.749  27.125   0.163
14490W        W86816   7.242  31.123   3.286
14491W        W86817   8.182  44.750  11.321
14492W        W86818  13.522  26.534   0.540
14493W        W86819  20.642  18.126   0.444
14494W        W86820  15.199   9.117   1.394
14495W        W86821  22.151  11.276   3.399
14496W        W86822  17.567  42.030  10.604
14497W        W86823  23.234   3.891   0.154
14498W        W86824  29.675   9.998   0.577
14499W        W86825  38.390  22.255  14.811
14500W        W86826  22.733  28.247   4.610
14501W        W86827   9.773  36.388  13.295
14502W        W86828  16.864   1.472  13.489
14503W        W86829  31.418  14.666   2.626
14504W        W86830  36.469  35.973   5.516
14505W        W86831   0.537  13.259  11.032
14506W        W86832  11.293  16.539   1.367
14507W        W86833  36.930  22.531  11.511
14508W        W86834  15.150  43.366  10.863
14509W        W86835   4.273   7.717   2.943
14510W        W86836  23.727  37.874  10.299
14511W        W86837   1.398  33.898   4.149
14512W        W86838  10.526  36.888  11.188
14513W        W86839  29.838  18.179  13.913
14514W        W86840  18.229  44.909  12.793
14515W        W86841   1.951  36.078   1.943
14516W        W86842   2.440  30.005   3.880
14517W        W86843  29.985   1.022  11.408
14518W        W86844  10.402  13.700   3.368
14519W        W86845  33.387  13.564   3.068
14520W        W86846  11.786  24.697  11.185
14521W        W86847  28.438  16.155  12.857
14522W        W86848  19.368  34.044   2.712
14523W        W86849   9.063  31.583  14.530
14524W        W86850  21.692  33.450   2.238
14525W        W86851   6.620  22.165   4.716
14526W        W86852  11.767  11.844  10.195
14527W        W86853   0.257  14.438  11.088
14528W        W86854  43.007   4.613   1.392
14529W        W86855  10.324   0.842   2.885
14530W        W86856   4.705   0.037  14.352
14531W        W86857  28.479  23.973  13.006
14532W        W86858   1.969   6.262   4.519
14533W        W86859  11.808  17.527  11.022
14534W        W86860   2.604  41.109  13.969
14535W        W86861   8.267  35.620  11.618
14536W        W86862  17.649  11.579  13.329
14537W        W86863  24.927  23.130   0.440
14538W        W86864  21.033   5.390  14.050
14539W        W86865  14.084  16.860  12.595
14540W        W86866  12.330  18.331  14.454
14541W        W86867  13.779  34.462  14.492
14542W        W86868   9.334  40.478  14.442
14543W        W86869   5.155  38.114   3.109
14544W        W86870   7.905  17.219   2.764
14545W        W86871  24.966   4.479   3.775
14546W        W86872  13.628  44.693   1.879
14547W        W86873  43.494  42.270   0.769
14548W        W86874   0.525  13.601   1.909
14549W        W86875  42.221   0.494  13.913
14550W        W86876   7.328  38.034   3.597
14551W        W86877  10.762   9.615  11.208
14552W        W86878  33.891  42.147   2.783
14553W        W86879  21.263  21.017  11.808
14554W        W86880  28.625  17.562   3.298
14555W        W86881   1.976  20.007   3.130
14556W        W86882  31.169  23.158  11.520
14557W        W86883   4.526   4.403   1.693
14558W        W86884  44.377  37.515  11.683
14559W        W86885  10.140   5.020   4.189
14560W        W86886  25.447  40.911  13.294
14561W        W86887   4.608   0.893  13.067
14562W        W86888  20.746  43.045   2.144
14563W        W86889  39.273  10.515  13.339
14564W        W86890   6.204  35.062   4.720
14565W        W86891   5.096  27.097   0.382
14566W        W86892  28.000  36.408  13.049
14567W        W86893  25.618  38.237   1.621
14568W        W86894  37.888  18.266  11.967
14569W        W86895  27.668  13.345   1.278
14570W        W86896  38.572  34.010  10.699
14571W        W86897  43.829  40.393   3.873
14572W        W86898  24.568  14.008  13.814
14573W        W86899  26.969   3.784  14.528
14574W        W86900  29.993  28.631  10.146
14575W        W86901   3.151  41.618   3.209
14576W        W86902  19.098  35.941   2.751
14577W        W86903   4.124  41.786  11.167
14578W        W86904  20.168  10.809  12.960
14579W        W86905   2.391  27.612  11.574
14580W        W86906  41.148  25.460  13.736
14581W        W86907  39.843   4.499  12.078
14582W        W86908   4.438  35.806   1.298
14583W        W86909  39.481  12.442   0.800
14584W        W86910  39.018  27.516   0.036
14585W        W86911   0.816  40.294  14.000
14586W        W86912  42.839  33.114  10.714
14587W        W86913   3.867   9.465   1.468
14588W        W86914   2.742  44.805  12.877
14589W        W86915  29.195   6.302  11.900
14590W        W86916  29.956  30.430  14.741
14591W        W86917  36.164   2.579   3.418
14592W        W86918  20.843   6.212   2.278
14593W        W86919  28.386  27.619   4.576
14594W        W86920  30.586  21.051   4.688
14595W        W86921  22.340  33.459  14.332
14596W        W86922   1.886  27.602   0.877
14597W        W86923  10.145   5.769  14.226
14598W        W86924  39.190  37.828  12.587
14599W        W86925  41.446  31.548  13.482
14600W        W86926  43.921  11.320  12.934
14601W        W86927  14.194  15.630   1.027
14602W        W86928  29.559  25.658  11.949
14603W        W86929  18.182  24.691   1.655
14604W        W86930  13.875  11.822  11.995
14605W        W86931  40.433  27.185   4.568
14606W        W86932  44.770   9.683   4.695
14607W        W86933   9.673  16.875   2.560
14608W        W86934   8.173  24.074   0.997
14609W        W86935  35.650  10.858  13.982
14610W        W86936  35.760  17.009  11.557
14611W        W86937  18.153  18.458  13.845
14612W        W86938  28.860  34.989   2.312
14613W        W86939  19.604  16.105   2.639
14614W        W86940  17.557  30.565   4.191
14615W        W86941   5.336  40.363  11.103
14616W        W86942  43.732   4.672  10.629
14617W        W86943   4.650  25.688  13.569
14618W        W86944   6.379  24.507  13.748
14619W        W86945   8.499  38.881   3.858
14620W        W86946  22.980  44.114   3.759
14621W        W86947   4.398   7.834   2.445
14622W        W86948  29.501  44.478  12.077
14623W        W86949  11.406  25.118   3.419
14624W        W86950   7.223  41.297  13.612
14625W        W86951  25.633  12.188  10.553
14626W        W86952  22.638   7.131  10.300
14627W        W86953   9.338   9.879   2.879
14628W        W86954  15.667   9.740  11.148
14629W        W86955  22.356  38.053   2.961
14630W        W86956  10.952  43.497   2.923
14631W        W86957  18.329   6.856  12.554
14632W        W86958  35.865  35.810   5.379
14633W        W86959  18.617   8.877  12.141
14634W        W86960  19.515   1.898   0.303
14635W        W86961  30.109  19.165   0.037
14636W        W86962  30.165  14.146   0.946
14637W        W86963  23.146  30.465   3.893
14638W        W86964  33.339  34.719   0.817
14639W        W86965  24.989  42.928   0.118
14640W        W86966  25.899   6.088  11.157
14641W        W86967  31.123  19.786  13.320
14642W        W86968  28.068  15.248   2.690
14643W        W86969   2.786  38.272   0.355
14644W        W86970  44.205  17.106   0.065
14645W        W86971  13.586  21.349  12.977
14646W        W86972  30.029  22.603  11.459
14647W        W86973  36.458  37.461   5.020
14648W        W86974  15.248  34.369   1.225
14649W        W86975  32.539  18.493   3.332
14650W        W86976  34.878  36.854  13.480
14651W        W86977  21.710  25.552   2.435
14652W        W86978  44.477  23.228   3.221
14653W        W86979  34.054   4.746   2.340
14654W        W86980  24.194  11.613  14.588
14655W        W86981  42.365  20.730  13.817
14656W        W86982  17.005  23.823   1.067
14657W        W86983  41.210  13.880  14.040
14658W        W86984  43.329  39.935  13.702
14659W        W86985  34.864  40.918   0.346
14660W        W86986  27.940  32.476   4.035
14661W        W86987  20.190  19.234   3.265
14662W        W86988  22.249  28.127   1.313
14663W        W86989  36.390  20.189  14.448
14664W        W86990  34.712  37.456   9.945
14665W        W86991  43.768   8.379   0.003
14666W        W86992  41.895  42.492   4.217
14667W        W86993  28.679  17.751  12.569
14668W        W86994   7.913  15.101   3.035
14669W        W86995  15.820  31.079   0.337
14670W        W86996   7.727  37.460  10.683
14671W        W86997   8.794  42.050  12.028
14672W        W86998  14.627  19.079  11.087
14673W        W86999   3.842  28.438  10.481
14674W        W87000  40.987  11.659  13.814
14675W        W87001  32.563  44.343   1.905
14676W        W87002  21.057   5.737  13.412
14677W        W87003  25.452  38.514   1.222
14678W        W87004  43.879  36.373  11.302
14679W        W87005  20.843  18.254  10.382
14680W        W87006  12.545   3.199  11.689
14681W        W87007  37.346  40.358   3.865
14682W        W87008   1.294  33.287  10.868
14683W        W87009  27.662   4.506   1.204
14684W        W87010  33.906  13.360  13.982
14685W        W87011  22.519  23.760  13.706
14686W        W87012  39.032  15.219  12.149
14687W        W87013  43.249  32.629  12.685
14688W        W87014   8.972  22.730   3.171
14689W        W87015  36.431   7.999  11.069
14690W        W87016  35.505  43.711  13.084
14691W        W87017  36.337  27.497  12.888
14692W        W87018  18.152  33.365  14.812
14693W        W87019  27.541  32.514  14.803
14694W        W87020  34.653   4.380   1.904
14695W        W87021  25.635  12.019  14.096
14696W        W87022  12.891  39.662   2.896
14697W        W87023  10.410  36.422   1.924
14698W        W87024  26.842   6.260  14.384
14699W        W87025   5.001  41.580   1.685
14700W        W87026  13.557  23.966  14.280
14701W        W87027  35.072  25.626   4.564
14702W        W87028  40.018  11.122  12.996
14703W        W87029  43.306  18.430  11.551
14704W        W87030  41.279  15.316   0.863
14705W        W87031  16.629  39.923  12.705
14706W        W87032  30.435  22.194  10.573
14707W        W87033  17.912  20.402   3.734
14708W        W87034  35.477   3.768   2.087
14709W        W87035  19.639  18.274   0.484
14710W        W87036   6.734  24.323   4.493
14711W        W87037  25.584  32.644  14.023
14712W        W87038  28.936  39.939  13.435
14713W        W87039  40.253   1.671  13.939
14714W        W87040   5.652  33.993   3.944
14715W        W87041  40.356  31.899   0.310
14716W        W87042  26.450  14.644  14.797
14717W        W87043  17.099  21.947  14.057
14718W        W87044  13.802  34.553  11.189
14719W        W87045  23.491   9.826  14.437
14720W        W87046  44.821  35.863   1.616
14721W        W87047  35.367  20.080  14.600
14722W        W87048  30.069  12.908  14.222
14723W        W87049   3.120  40.837   2.777
14724W        W87050  27.773  18.623  14.441
14725W        W87051   0.157  26.479   3.400
14726W        W87052  26.567  11.079  12.074
14727W        W87053  31.956  25.741   4.166
14728W        W87054  10.336   8.042  13.872
14729W        W87055  26.188  36.004  11.342
14730W        W87056  12.785  25.170   3.592
14731W        W87057  27.216  18.065   4.289
14732W        W87058  27.251   9.881  10.578
14733W        W87059  35.993  44.918   1.121
14734W        W87060  33.513  34.132  11.902
14735W        W87061  40.456  15.279   3.178
14736W        W87062  13.581  30.659   1.297
14737W        W87063  22.139  27.107  13.323
14738W        W87064  24.685  13.238  11.589
14739W        W87065  11.917  44.989  11.444
14740W        W87066  10.870  41.840  11.348
14741W        W87067  44.541  35.597   0.038
14742W        W87068  11.740  40.526  13.432
14743W        W87069  21.690  15.561  12.649
14744W        W87070  37.486  44.069  13.146
14745W        W87071  19.753   8.232   4.220
14746W        W87072  23.320  40.888   9.951
14747W        W87073  26.232  30.613   3.203
14748W        W87074  38.265  34.504  13.435
14749W        W87075  13.635   0.069  12.051
14750W        W87076  25.109   4.693   1.061
14751W        W87077  21.663  39.226   0.046
14752W        W87078  16.628   8.901  13.504
14753W        W87079  13.743  26.438   1.000
14754W        W87080  27.951  39.834  11.102
14755W        W87081  11.211  10.414  12.057
14756W        W87082  43.396   5.081  10.755
14757W        W87083  31.648   3.272   1.325
14758W        W87084  34.707  15.334   1.333
14759W        W87085  13.132  11.871   1.392
14760W        W87086  38.393  18.510  12.498
14761W        W87087  28.431   9.411   4.079
14762W        W87088   3.371   4.927  12.816
14763W        W87089   7.816  21.298  14.821
14764W        W87090   3.277  21.964   2.376
14765W        W87091  43.514   8.326  13.082
14766W        W87092  44.076   9.828   1.297
14767W        W87093  23.664  41.259   3.963
14768W        W87094  28.163  42.807  14.151
14769W        W87095  10.715  25.201   4.269
14770W        W87096  13.318   6.432   0.983
14771W        W87097  32.560   5.342   1.843
14772W        W87098  28.476   2.695  11.201
14773W        W87099  38.332  11.086  12.610
14774W        W87100  23.063   5.187   1.873
14775W        W87101  17.680   5.717   1.775
14776W        W87102  38.065   4.392  12.114
14777W        W87103  30.108  43.465   4.793
14778W        W87104   8.673  32.971   0.814
14779W        W87105  13.722  40.319  14.515
14780W        W87106   7.778  16.233   0.525
14781W        W87107  25.224  38.775   4.196
14782W        W87108  28.265   9.724  12.472
14783W        W87109  10.648  22.146  11.095
14784W        W87110  26.546  32.956  11.160
14785W        W87111  28.689   3.001  11.556
14786W        W87112  41.829   7.293  11.999
14787W        W87113  23.438  37.379   1.066
14788W        W87114  42.190  35.943   1.203
14789W        W87115  28.818  37.899  13.796
14790W        W87116  25.495  14.099  14.265
14791W        W87117  16.402   0.430   0.337
14792W        W87118  36.364  43.014   0.412
14793W        W87119  20.588  27.654   2.774
14794W        W87120  41.292  39.844  10.651
14795W        W87121  32.531  13.731   4.619
14796W        W87122   7.896  16.072  10.503
14797W        W87123   0.398  11.578  11.426
14798W        W87124  29.578  21.018   4.563
14799W        W87125  34.537  18.982  13.101
14800W        W87126  36.115  42.063   0.385
14801W        W87127  37.151   2.718   0.360
14802W        W87128  13.415  12.769   2.328
14803W        W87129  43.513  29.125   0.510
14804W        W87130  37.924  38.632   1.726
14805W        W87131  18.976   2.779   1.996
14806W        W87132  14.026  44.865   3.448
14807W        W87133  32.215  16.804  11.140
14808W        W87134  34.783  34.037   3.750
14809W        W87135   6.808  39.606   0.963
14810W        W87136  15.104  24.224   2.674
14811W        W87137  11.109  31.393   1.396
14812W        W87138   4.234  42.884   3.363
14813W        W87139  37.637   4.293  11.844
14814W        W87140  33.929   2.934   2.400
14815W        W87141  38.274  21.625   3.170
14816W        W87142  29.921  14.496   2.771
14817W        W87143  19.598  36.125   4.817
14818W        W87144  34.157   2.181   1.904
14819W        W87145  25.093  29.641  14.296
14820W        W87146  26.266   2.981  13.417
14821W        W87147  44.928  37.184  13.696
14822W        W87148  18.089  16.781   2.739
14823W        W87149  20.256  37.404   2.978
14824W        W87150  28.697  32.870   1.487
14825W        W87151   2.881  41.815   4.820
14826W        W87152  14.824  12.623  14.760
14827W        W87153  37.374  16.114  11.124
14828W        W87154   2.398  44.600   3.344
14829W        W87155  33.018  42.795  10.999
14830W        W87156  40.490  41.238  10.372
14831W        W87157  10.359   9.834   0.440
14832W        W87158   9.392  10.089  14.843
14833W        W87159  11.310  11.157   2.755
14834W        W87160  10.266   0.565   0.330
14835W        W87161  11.386  43.783  11.004
14836W        W87162  22.508   3.773  12.616
14837W        W87163   6.340  36.525   4.647
14838W        W87164  27.681  34.873  11.047
14839W        W87165  16.602  30.380  11.382
14840W        W87166  33.043  39.511  10.648
14841W        W87167  33.697   3.870   2.902
14842W        W87168   4.884   4.221   1.327
14843W        W87169  23.543  30.089   1.608
14844W        W87170  19.206  35.164   0.845
14845W        W87171  12.174  26.487  14.201
14846W        W87172  16.296  18.933  10.656
14847W        W87173  38.332  21.599  12.006
14848W        W87174  25.989   2.140   2.929
14849W        W87175  27.494   5.723   4.145
14850W        W87176  17.289  42.567   4.690
14851W        W87177  23.777  42.928  10.610
14852W        W87178  31.109  39.472   4.899
14853W        W87179  30.940  20.472  14.871
14854W        W87180   1.344  25.782  14.779
14855W        W87181  17.214  17.333   4.558
14856W        W87182  21.135  27.693   2.218
14857W        W87183   1.848   0.236   0.970
14858W        W87184   4.363   2.824  10.303
14859W        W87185   1.293   7.176  13.867
14860W        W87186  23.089  42.237   3.318
14861W        W87187   2.038   7.205   4.414
14862W        W87188  16.043  13.108   3.376
14863W        W87189  16.631  33.652  12.819
14864W        W87190  10.972  18.710   4.197
14865W        W87191  33.085   4.670   0.334
14866W        W87192  16.793  13.248  13.834
14867W        W87193  39.269  36.650  11.415
14868W        W87194  12.550  33.721   1.857
14869W        W87195  31.577  20.787   2.202
14870W        W87196  39.310   9.611  12.638
14871W        W87197   6.560  16.728  10.524
14872W        W87198   9.326  27.173   1.773
14873W        W87199   6.872  33.529   0.484
14874W        W87200  19.730  16.138   3.814
14875W        W87201  13.237  33.840   5.778
14876W        W87202  21.436  12.636  12.946
14877W        W87203  33.717  30.667   0.974
14878W        W87204  41.971  30.649  14.832
14879W        W87205  20.860  30.678  11.561
14880W        W87206  36.069  12.620  11.631
14881W        W87207  28.803   0.819  12.233
14882W        W87208  31.344   4.457   0.551
14883W        W87209   6.599   8.173  12.946
14884W        W87210  10.810  29.382  11.635
14885W        W87211  30.280  43.857  13.013
14886W        W87212  11.151  24.995   0.149
14887W        W87213  28.155   8.841  14.100
14888W        W87214  40.823  37.521   3.743
14889W        W87215  23.484  24.979  14.946
14890W        W87216  43.515  36.365  12.564
14891W        W87217  34.319  22.072   3.331
14892W        W87218  12.371  23.414  13.813
14893W        W87219   3.426  38.941  13.506
14894W        W87220  35.059  20.982  13.853
14895W        W87221  32.520  22.252  12.680
14896W        W87222  29.221  32.203   0.372
14897W        W87223   0.346  17.028  10.730
14898W        W87224  23.997  18.991  13.870
14899W        W87225  26.173   5.129   2.698
14900W        W87226  17.163   1.265   0.307
14901W        W87227   3.364  20.567   4.397
14902W        W87228  19.130  20.718   1.509
14903W        W87229   1.433   2.889   2.643
14904W        W87230  39.613  11.205   1.250
14905W        W87231   2.969  14.102  11.497
14906W        W87232  38.641  37.693  12.567
14907W        W87233  21.031   9.481  12.033
14908W        W87234  34.866  35.222  14.131
14909W        W87235  11.302  26.986  11.667
14910W        W87236  44.752  14.175  10.351
14911W        W87237  16.231  10.979   0.570
14912W        W87238   9.660  12.936  12.059
14913W        W87239   4.259  23.495  12.852
14914W        W87240  18.155  38.058  12.591
14915W        W87241   5.136  23.400  14.767
14916W        W87242  16.905  19.233  14.262
14917W        W87243  44.318  17.741  14.415
14918W        W87244   5.922  11.295   0.944
14919W        W87245  22.508  22.652  14.326
14920W        W87246  24.067   7.756   4.022
14921W        W87247  11.287   8.150   3.651
14922W        W87248  37.311  18.480  14.929
14923W        W87249  12.766  21.791  11.940
14924W        W87250  37.931  32.591   4.524
14925W        W87251   3.295  11.717   2.800
14926W        W87252  31.480  14.188   1.397
14927W        W87253  14.614  33.861   3.119
14928W        W87254  17.845  28.508  14.030
14929W        W87255   9.131   8.232   0.925
14930W        W87256  29.860  20.247   0.388
14931W        W87257  34.168  44.732  11.103
14932W        W87258  39.884   4.122  12.427
14933W        W87259  25.716   1.373  14.042
14934W        W87260   3.775  18.757  12.381
14935W        W87261  25.089  33.655  13.343
14936W        W87262  10.791  34.046  10.633
14937W        W87263   7.272  38.748   1.723
14938W        W87264  14.285   9.812   4.144
14939W        W87265  15.593  42.486  12.010
14940W        W87266   1.435  25.689   1.161
14941W        W87267  13.762  44.888   1.372
14942W        W87268  38.031   2.400   2.194
14943W        W87269   4.891  30.758   4.560
14944W        W87270  20.696   5.012   1.910
14945W        W87271   4.148   6.407   3.579
14946W        W87272  23.298   9.960  13.068
14947W        W87273  27.082  21.991  13.867
14948W        W87274   6.118  27.214   2.154
14949W        W87275   8.087   2.023   5.042
14950W        W87276   5.815  27.960   1.009
14951W        W87277   3.589   5.683   3.752
14952W        W87278  14.804  30.391   1.019
14953W        W87279  40.372  25.103  14.722
14954W        W87280   2.929  29.915  12.525
14955W        W87281  20.986  18.877   3.602
14956W        W87282  30.159  28.379   2.116
14957W        W87283   5.663  26.741   4.016
14958W        W87284  14.635  38.178   2.306
14959W        W87285   0.704  20.203  12.936
14960W        W87286  31.517  32.881   0.845
14961W        W87287  20.794  37.575  12.025
14962W        W87288   7.714  23.388  11.161
14963W        W87289   8.748   5.902  11.156
14964W        W87290  24.426  27.916  14.775
14965W        W87291   8.138  32.370   4.204
14966W        W87292  41.483   6.551   1.658
14967W        W87293  37.326  41.764  13.910
14968W        W87294  31.544   3.761  12.108
14969W        W87295   4.811   9.060   2.805
14970W        W87296  44.385  11.073   1.791
14971W        W87297  39.218  21.905  14.810
14972W        W87298  36.019  44.262   2.955
14973W        W87299  18.875  17.333  14.829
14974W        W87300  11.362  12.436  13.589
14975W        W87301  43.775  38.864   1.275
14976W        W87302  16.190  18.816   2.804
14977W        W87303  27.942  19.484   4.745
14978W        W87304  23.084  31.140   2.119
14979W        W87305  40.775  10.758   3.689
14980W        W87306  34.271  34.095   0.821
14981W        W87307  23.040  37.422   4.771
14982W        W87308  11.546   6.885  13.098
14983W        W87309   3.345  20.460  14.416
14984W        W87310  37.734  20.150  14.550
14985W        W87311   8.281   7.341   3.834
14986W        W87312   6.467  16.569   3.189
14987W        W87313  10.983  16.005  12.068
14988W        W87314  26.952  12.678   0.919
14989W        W87315   8.085  23.767  11.145
14990W        W87316  16.063   0.946  10.565
14991W        W87317  38.570  39.546  13.438
14992W        W87318  23.252   9.297   3.331
14993W        W87319  19.497  34.891  10.733
14994W        W87320  31.875   7.247  12.048
14995W        W87321  16.163  39.060  12.374
14996W        W87322  18.553  15.709  12.941
14997W        W87323   1.509  41.913  14.058
14998W        W87324   7.819   5.040  14.846
14999W        W87325  18.129   0.871   1.305
15000W        W87326  30.528  27.482   5.035
15001W        W87327  21.474  30.524   2.835
15002W        W87328  28.727  18.484   4.314
15003W        W87329  39.505  44.172   0.065
15004W        W87330   0.012  23.610  12.452
15005W        W87331  19.372   9.526  14.816
15006W        W87332   9.351  42.852  12.048
15007W        W87333   2.473   1.842   0.465
15008W        W87334  37.643  40.097   0.397
15009W        W87335   9.123  31.869   0.723
15010W        W87336  10.885  16.950  11.916
15011W        W87337  37.085  23.050   4.960
15012W        W87338  33.437  28.135  12.497
15013W        W87339   1.858  35.425  11.480
15014W        W87340   4.031  35.824   4.563
15015W        W87341   8.102  17.295  11.474
15016W        W87342  43.452  31.821  10.409
15017W        W87343  27.722  20.607  12.398
15018W        W87344   7.375   6.558  10.918
15019W        W87345  26.519  42.583  12.585
15020W        W87346  31.113  31.356  13.976
15021W        W87347  24.479  30.542   4.768
15022W        W87348   5.913  16.555  11.835
15023W        W87349  31.076  33.073  14.303
15024W        W87350  34.314  17.540   3.229
15025W        W87351  37.779   5.251  10.465
15026W        W87352   1.025  10.074  12.923
15027W        W87353  14.757  16.839  12.208
15028W        W87354  35.605   3.238  13.252
15029W        W87355  29.543   4.244   0.888
15030W        W87356  26.493   7.842  14.107
15031W        W87357   1.610  10.926  14.986
15032W        W87358  33.057  40.717  13.974
15033W        W87359  27.673  40.250   1.263
15034W        W87360  33.140  14.836  14.470
15035W        W87361   7.305  34.575   0.019
15036W        W87362  23.132  34.148   0.775
15037W        W87363  10.328  21.202  12.977
15038W        W87364   5.212  26.458  11.493
15039W        W87365  31.917  42.059   3.391
15040W        W87366  22.020  12.850   0.512
15041W        W87367  17.912  25.580  11.520
15042W        W87368  18.124  41.038  11.900
15043W        W87369  38.838  35.551   4.765
15044W        W87370   5.131  29.969   3.171
15045W        W87371   0.275  16.934   3.231
15046W        W87372  43.011  18.195   3.538
15047W        W87373  44.224  23.762  13.106
15048W        W87374  40.809  39.842   1.268
15049W        W87375  25.746  36.227   1.792
15050W        W87376  33.395  11.758   2.173
15051W        W87377  22.143  38.068  10.496
15052W        W87378  31.744  12.706  11.573
15053W        W87379  40.319  39.008  10.754
15054W        W87380  22.542   5.135  14.545
15055W        W87381  10.710   8.418  14.541
15056W        W87382  29.628  32.079   4.588
15057W        W87383   0.338  27.517   1.990
15058W        W87384  23.944  38.212   0.440
15059W        W87385  33.305  28.682  13.318
15060W        W87386  15.266   6.329   1.415
15061W        W87387  32.856  42.829  14.869
15062W        W87388  39.733  38.685  10.072
15063W        W87389  37.847  10.864  12.482
15064W        W87390  40.345   3.138  12.431
15065W        W87391  28.590  23.769  11.345
15066W        W87392   6.420  10.381   0.800
15067W        W87393  36.497   1.434   2.865
15068W        W87394   0.153  23.165   9.883
15069W        W87395  44.823   7.798   3.688
15070W        W87396  12.329  25.488  14.870
15071W        W87397   8.171  39.596  13.788
15072W        W87398   2.194  44.991   2.408
15073W        W87399  37.400   5.499  13.002
15074W        W87400  32.962  41.066  11.529
15075W        W87401  44.267  43.234  12.383
15076W        W87402   5.021  42.100   4.052
15077W        W87403   5.656  16.836   1.474
15078W        W87404   3.029  23.441   1.689
15079W        W87405  24.785   3.630  14.509
15080W        W87406  25.103  16.190  13.836
15081W        W87407   5.643  17.759   3.642
15082W        W87408  23.471  38.010   3.722
15083W        W87409  42.392   9.094  14.393
15084W        W87410  22.803   1.480   2.157
15085W        W87411  11.648  39.497   4.050
15086W        W87412  36.201  40.922  10.662
15087W        W87413  23.302  13.765  11.076
15088W        W87414  27.635  24.222  12.801
15089W        W87415  14.284  14.634  12.684
15090W        W87416  25.907  43.009   2.084
15091W        W87417  20.822  12.360  13.442
15092W        W87418  22.857   9.868   2.299
15093W        W87419  42.066  26.026  11.650
15094W        W87420  41.563  35.402   1.794
15095W        W87421  10.202  24.550   1.361
15096W        W87422  26.104   6.483   0.172
15097W        W87423  18.333  28.624   0.247
15098W        W87424  18.631   4.439   2.188
15099W        W87425  29.136   1.742   1.952
15100W        W87426  19.261  10.876  14.776
15101W        W87427   0.358  20.366  11.141
15102W        W87428  43.256   7.910   0.327
15103W        W87429  19.182  33.202  11.732
15104W        W87430  11.330  40.211  13.412
15105W        W87431   9.120  34.678   4.081
15106W        W87432  44.447  27.635   4.575
15107W        W87433  21.061   8.178  10.804
15108W        W87434  24.550  40.497   1.813
15109W        W87435  31.080  34.814   3.719
15110W        W87436  20.063  30.443   0.155
15111W        W87437  40.235  31.525   1.769
15112W        W87438  10.342  28.183  13.834
15113W        W87439  36.141  27.036  10.886
15114W        W87440   6.242  41.046   2.374
15115W        W87441  39.512  28.033   1.607
15116W        W87442  25.778  44.378  10.701
15117W        W87443  23.530  23.030   4.270
15118W        W87444  16.108  25.136  14.671
15119W        W87445  30.555  10.778   2.268
15120W        W87446  14.849  42.906   2.260
15121W        W87447   6.938  40.421  14.494
15122W        W87448  14.948  27.526   0.889
15123W        W87449  18.623   1.394  12.613
15124W        W87450  32.992  40.453   4.294
15125W        W87451   0.077  33.804  11.050
15126W        W87452  41.383   1.274  12.393
15127W        W87453  26.412   2.253  10.450
15128W        W87454  17.344  17.211  13.350
15129W        W87455  14.349  11.459   2.351
15130W        W87456  40.864  17.592  14.202
15131W        W87457  43.033  27.597  11.662
15132W        W87458   2.385  13.370  11.273
15133W        W87459  33.393  26.980  13.934
15134W        W87460  10.095  44.777   3.640
15135W        W87461  37.503  24.121  11.642
15136W        W87462   6.711  10.750   1.517
15137W        W87463   1.387  32.375  11.632
15138W        W87464   1.478   9.931   2.703
15139W        W87465  21.075  22.001  10.277
15140W        W87466  15.077  15.663  13.821
15141W        W87467  14.695  31.439  12.052
15142W        W87468  30.394  44.333   3.711
15143W        W87469  13.570   8.152   2.725
15144W        W87470  14.805   0.796   1.742
15145W        W87471  44.857  18.875  12.837
15146W        W87472   5.948  11.014  12.425
15147W        W87473  29.548   0.962  11.148
15148W        W87474  39.922  17.196   4.153
15149W        W87475  16.267  24.316  14.427
15150W        W87476  18.985  26.337   3.317
15151W        W87477  19.048  18.169  14.344
15152W        W87478  25.771  30.348  14.329
15153W        W87479  42.915  21.647   1.252
15154W        W87480   3.662   3.771  12.196
15155W        W87481  11.802  24.985  10.239
15156W        W87482   6.422  11.584   3.569
15157W        W87483  23.732  14.683   2.745
15158W        W87484  40.825  17.951   0.486
15159W        W87485  43.650  21.194   2.256
15160W        W87486  42.853  22.602   2.520
15161W        W87487   9.877  39.518   3.319
15162W        W87488  31.484   7.708  13.851
15163W        W87489   2.243   2.302  13.090
15164W        W87490  14.303   1.052   1.712
15165W        W87491  35.077   5.262   0.107
15166W        W87492  40.561  29.811   4.201
15167W        W87493   0.148  14.577   0.460
15168W        W87494   8.665  19.153  14.345
15169W        W87495  41.573  33.019  12.046
15170W        W87496  33.975  21.571   1.662
15171W        W87497  15.806  41.305   4.514
15172W        W87498   8.670   8.402   4.210
15173W        W87499  15.858  32.569   2.154
15174W        W87500  13.834  39.573  13.603
15175W        W87501  19.665   2.758   1.278
15176W        W87502  41.549  12.576   2.393
15177W        W87503  37.842  12.409  13.619
15178W        W87504  24.276  10.237  14.504
15179W        W87505   6.926   0.014   2.783
15180W        W87506  26.675  16.807   1.339
15181W        W87507  31.113   4.627   3.336
15182W        W87508  30.384  34.521   1.210
15183W        W87509  35.452  14.208  14.960
15184W        W87510  13.652  14.305   3.392
15185W        W87511  22.660   5.865  11.166
15186W        W87512  29.660  22.196   2.205
15187W        W87513   0.363  39.922  11.084
15188W        W87514   2.831  42.427  11.574
15189W        W87515  41.554  25.935  14.853
15190W        W87516  35.546  36.950  10.273
15191W        W87517  33.985  43.046  13.464
15192W        W87518  28.557   5.724   4.846
15193W        W87519  33.743   0.014   1.593
15194W        W87520  34.382  38.839  14.499
15195W        W87521  19.064  10.793  11.978
15196W        W87522  13.858  38.963  13.763
15197W        W87523  17.857  32.912  13.519
15198W        W87524  16.556  12.772  11.460
15199W        W87525  13.200  30.366   2.593
15200W        W87526  33.678   6.116   3.241
15201W        W87527  14.745  23.196   2.313
15202W        W87528  40.565  30.874  14.393
15203W        W87529  38.006  14.544  10.638
15204W        W87530   6.327  19.252   4.072
15205W        W87531  39.609  27.006   4.668
15206W        W87532  21.013   7.460  12.925
15207W        W87533  42.173   1.428   3.256
15208W        W87534  14.044  42.436   2.283
15209W        W87535  19.319  13.186  11.530
15210W        W87536  19.983  23.521   5.072
15211W        W87537  30.978   0.624  11.639
15212W        W87538  37.445  23.617  12.361
15213W        W87539  11.209  42.873  11.910
15214W        W87540   0.034  31.264  11.607
15215W        W87541  42.804  26.907  13.113
15216W        W87542   0.025  40.663   2.686
15217W        W87543  26.513  21.709  10.199
15218W        W87544  21.766  43.021   0.036
15219W        W87545  18.589  40.591  12.612
15220W        W87546  30.041  36.304   4.959
15221W        W87547   6.593  19.656  10.641
15222W        W87548   0.816  19.647  10.276
15223W        W87549  22.310  19.215   0.299
15224W        W87550  43.557  28.442   1.926
15225W        W87551   0.266  10.088   2.299
15226W        W87552  30.443  40.413   0.035
15227W        W87553  27.525  41.787  11.477
15228W        W87554  26.047  13.598  11.493
15229W        W87555  15.358  33.711  13.001
15230W        W87556  32.855  13.729  11.137
15231W        W87557   1.493   0.746   2.696
15232W        W87558  36.586   4.398  10.170
15233W        W87559  22.072   5.239   1.809
15234W        W87560  22.147   7.699   0.493
15235W        W87561   6.516   4.874   2.162
15236W        W87562  27.117  33.053  13.101
15237W        W87563   4.878   2.187  12.502
15238W        W87564  43.582  40.909  12.243
15239W        W87565  31.944  36.567   0.893
15240W        W87566  35.339   1.996  13.994
15241W        W87567   3.884  41.545  12.581
15242W        W87568  36.451  44.429  12.524
15243W        W87569  26.963  32.500  10.613
15244W        W87570  40.119   4.705  14.447
15245W        W87571   2.542  32.943  14.735
15246W        W87572  13.820  24.749   1.792
15247W        W87573  10.116  13.178  12.138
15248W        W87574  43.404  41.678  10.729
15249W        W87575  40.835  24.810   4.680
15250W        W87576   7.863  35.293  11.574
15251W        W87577  13.112  11.837  11.692
15252W        W87578  39.851  10.698   0.264
15253W        W87579  33.506  35.074  12.884
15254W        W87580  44.107  40.380   4.621
15255W        W87581  20.225  43.296  10.588
15256W        W87582  13.050  37.695   0.896
15257W        W87583  24.461   3.401   4.552
15258W        W87584  21.145  21.077   0.257
15259W        W87585  43.826   8.832   3.472
15260W        W87586   6.176   5.864  14.870
15261W        W87587  17.384  44.295  13.442
15262W        W87588   8.736  29.527  11.912
15263W        W87589  26.963  43.398  11.397
15264W        W87590   5.649  37.091  11.299
15265W        W87591  24.713  32.056   5.052
15266W        W87592  17.755  18.182   3.353
15267W        W87593  11.077   9.396  14.948
15268W        W87594  14.554   6.054  10.330
15269W        W87595  34.101  37.608  11.071
15270W        W87596   6.387  20.646   0.335
15271W        W87597  26.291  29.862   1.786
15272W        W87598  36.471  39.770  11.112
15273W        W87599  18.304   1.893  13.119
15274W        W87600  28.643  19.446   0.557
15275W        W87601  10.183  44.899   1.128
15276W        W87602  13.097  36.869  14.804
15277W        W87603   3.424  16.715  11.092
15278W        W87604  26.029   6.315  12.111
15279W        W87605  10.203  21.182  11.021
15280W        W87606  38.804  34.377  11.930
15281W        W87607  10.882  31.909   0.743
15282W        W87608  25.612  25.688  10.717
15283W        W87609   9.926  44.930  12.922
15284W        W87610  12.339   8.989   3.845
15285W        W87611  13.224  44.586   9.644
15286W        W87612  21.772  38.582   1.302
15287W        W87613  39.286  29.601   4.693
15288W        W87614  24.454  17.016  11.964
15289W        W87615  19.506  43.443  13.947
15290W        W87616  43.151  22.841   2.897
15291W        W87617  38.388  41.962   2.562
15292W        W87618  21.425  32.608   4.164
15293W        W87619  38.812  12.743   5.641
15294W        W87620   9.396  42.115  12.538
15295W        W87621  34.689  29.574  12.460
15296W        W87622  32.051  34.692   5.016
15297W        W87623  28.170   6.681  14.782
15298W        W87624  17.641   0.309   0.347
15299W        W87625  27.163  31.939   2.726
15300W        W87626  16.572  27.123   2.666
15301W        W87627   6.213   9.157   3.371
15302W        W87628   3.419  12.550   5.026
15303W        W87629  20.629  36.033  11.879
15304W        W87630  32.013   3.638   3.787
15305W        W87631  38.458  27.224   3.990
15306W        W87632  18.866  32.429   0.351
15307W        W87633   2.289  32.981  11.802
15308W        W87634  31.019  28.039   2.424
15309W        W87635  39.209  20.369  13.845
15310W        W87636   7.748  12.983  14.514
15311W        W87637  31.570  23.009  12.918
15312W        W87638  39.916   1.023  12.788
15313W        W87639  13.663  11.159   0.133
15314W        W87640   0.356  26.954  12.823
15315W        W87641  14.423   0.860   4.696
15316W        W87642  33.538   2.801   1.695
15317W        W87643   1.883   9.851  13.587
15318W        W87644   4.899  22.617   1.341
15319W        W87645  42.808  24.778  10.711
15320W        W87646  30.865  14.306   3.184
15321W        W87647  13.075   5.453  14.040
15322W        W87648  28.404  43.875  14.539
15323W        W87649  22.701  34.028   3.334
15324W        W87650  43.283  19.200  11.989
15325W        W87651  32.582  44.584  13.784
15326W        W87652  41.474   9.856  13.615
15327W        W87653  15.663  33.160   1.149
15328W        W87654   4.039   6.560  12.568
15329W        W87655  44.797  13.807   2.777
15330W        W87656  16.189  34.181  11.136
15331W        W87657  23.453  21.389  12.459
15332W        W87658  29.394  40.999  14.784
15333W        W87659  39.895  13.051   2.403
15334W        W87660  21.697  28.958  14.452
15335W        W87661  12.608  27.575  14.743
15336W        W87662  33.170  42.987   4.369
15337W        W87663  10.777  16.466   1.292
15338W        W87664  41.969   2.044   2.879
15339W        W87665  11.612  29.980  11.914
15340W        W87666  38.857  23.089   3.252
15341W        W87667   2.395  14.195   1.410
15342W        W87668  22.203  33.387   0.428
15343W        W87669   2.819  28.675   0.693
15344W        W87670   2.345  39.029  14.355
15345W        W87671  30.437  22.957  13.918
15346W        W87672   0.291  37.432  12.850
15347W        W87673  31.413  36.486   2.865
15348W        W87674  19.748  17.771   3.691
15349W        W87675  25.485  39.237   4.250
15350W        W87676   2.797   2.497   4.179
15351W        W87677  22.075   2.919   0.330
15352W        W87678  15.346   1.877   4.745
15353W        W87679  32.468  13.428   4.200
15354W        W87680  13.912   1.682  13.031
15355W        W87681  22.947  24.958   4.095
15356W        W87682  40.809  41.993  14.811
15357W        W87683  36.959  11.353  10.238
15358W        W87684  41.447  25.151   2.822
15359W        W87685  26.096  16.811  14.484
15360W        W87686  25.782  28.422  12.469
15361W        W87687  17.292  15.611  14.266
15362W        W87688   3.942  13.144   1.965
15363W        W87689  32.377  35.324  12.033
15364W        W87690  19.210  22.671  13.304
15365W        W87691   2.840  22.201   2.223
15366W        W87692  21.082  37.999   4.213
15367W        W87693  35.536  21.158  12.199
15368W        W87694  24.914  42.884  14.592
15369W        W87695  15.737  12.508   4.579
15370W        W87696   9.158  40.431   2.250
15371W        W87697  34.894   2.344   4.976
15372W        W87698  24.076  23.190   3.125
15373W        W87699  38.390  18.578   1.438
15374W        W87700   7.667  38.816   4.136
15375W        W87701   9.643  35.014   0.139
15376W        W87702  15.603   6.704   0.321
15377W        W87703  22.628   1.250  10.432
15378W        W87704  40.636  18.770   3.590
15379W        W87705  21.663  23.103  14.435
15380W        W87706  31.356  35.259   3.670
15381W        W87707   8.654  33.917  14.006
15382W        W87708  37.838   4.238   1.900
15383W        W87709   9.229  23.761  12.074
15384W        W87710  13.315  30.873   3.905
15385W        W87711   2.553  13.587  13.379
15386W        W87712  26.411  42.691   3.728
15387W        W87713  11.699   5.211   4.004
15388W        W87714  22.273  44.025  11.178
15389W        W87715  14.192  31.357   2.667
15390W        W87716  21.263  36.674   2.220
15391W        W87717  40.691  12.157   3.392
15392W        W87718  38.213  12.342   2.316
15393W        W87719  43.390  21.368  11.898
15394W        W87720   2.496  31.436   2.631
15395W        W87721   0.227  20.250  13.102
15396W        W87722  25.262  11.657  12.439
15397W        W87723  44.892  17.314  12.935
15398W        W87724  14.358  10.420   1.323
15399W        W87725  28.207  12.454  12.190
15400W        W87726  33.986  10.848   0.470
15401W        W87727  37.918   1.167   1.725
15402W        W87728  15.026   9.075  10.665
15403W        W87729  23.295   7.322  12.089
15404W        W87730  40.323  31.736  14.359
15405W        W87731   6.295  38.082   3.592
15406W        W87732  17.557  38.676  13.906
15407W        W87733  44.475  13.997   0.422
15408W        W87734  20.784  44.744  10.733
15409W        W87735  15.676   3.656  13.410
15410W        W87736  15.064  10.855   3.900
15411W        W87737   5.818  22.741  11.842
15412W        W87738  20.667  19.153   4.627
15413W        W87739  33.450   9.761   0.885
15414W        W87740  21.024  39.177  11.791
15415W        W87741  12.088   2.775   1.901
15416W        W87742  43.402   5.456   4.122
15417W        W87743   6.319   8.271   0.729
15418W        W87744   2.658  29.648   2.650
15419W        W87745  26.926  41.540   0.458
15420W        W87746  43.389  17.849   0.397
15421W        W87747  26.977   3.677   3.187
15422W        W87748  30.232   0.780  13.864
15423W        W87749  28.531  40.260  11.588
15424W        W87750  10.565   2.472   3.577
15425W        W87751  25.150  21.026  12.472
15426W        W87752  19.714   6.617  12.818
15427W        W87753  25.526  14.316   5.125
15428W        W87754  16.660  16.834   1.712
15429W        W87755  19.477  19.306  12.409
15430W        W87756  37.153  16.076  12.469
15431W        W87757  37.121   9.314  12.385
15432W        W87758  27.455  32.449   1.845
15433W        W87759   2.609  10.101   0.454
15434W        W87760  36.115  38.555   0.023
15435W        W87761  44.262  33.902   2.712
15436W        W87762   9.343  30.486  14.963
15437W        W87763  24.168  18.679   3.626
15438W        W87764   7.627  43.752  14.949
15439W        W87765  15.024  44.916   3.320
15440W        W87766  29.828  33.137  13.402
15441W        W87767  22.534  20.114  11.433
15442W        W87768  20.700  16.599  14.514
15443W        W87769   2.382   5.006  11.050
15444W        W87770   4.351   8.901   4.563
15445W        W87771  28.749  26.298   3.536
15446W        W87772   8.135   0.971  10.943
15447W        W87773  36.851  21.769   1.442
15448W        W87774  15.768  29.933   3.911
15449W        W87775  23.586   8.601   1.351
15450W        W87776  11.925  14.829  11.600
15451W        W87777  18.033  43.273   1.234
15452W        W87778   9.992  11.783  13.594
15453W        W87779  37.395   9.916   4.677
15454W        W87780  15.073  23.275  12.800
15455W        W87781  23.502  31.438   3.411
15456W        W87782   7.331   2.661   4.318
15457W        W87783  44.490   5.152   3.060
15458W        W87784  11.419   0.825  10.387
15459W        W87785   9.451  42.624  12.500
15460W        W87786  20.191  16.660  13.481
15461W        W87787   0.694  43.344  12.489
15462W        W87788  37.973   8.330  13.689
15463W        W87789  34.277  31.197   4.076
15464W        W87790   0.239  13.280  10.597
15465W        W87791  38.333   6.833  10.945
15466W        W87792  35.562   2.875  10.941
15467W        W87793   8.782  37.240   4.303
15468W        W87794  23.370  17.676  14.028
15469W        W87795   6.888   3.486  10.643
15470W        W87796  24.979   6.246   2.764
15471W        W87797   3.346  40.735   2.324
15472W        W87798  16.389  42.072  13.884
15473W        W87799  12.874  24.658   4.633
15474W        W87800  32.831  11.761   1.227
15475W        W87801  37.381   7.830   1.949
15476W        W87802  27.878  24.525  14.402
15477W        W87803   2.907  16.216   4.542
15478W        W87804   0.474  40.454   1.806
15479W        W87805  30.386  40.244   1.911
15480W        W87806  42.902  20.438  11.241
15481W        W87807  15.109  24.893  11.541
15482W        W87808  33.076  25.892   4.585
15483W        W87809  10.922   6.913   3.623
15484W        W87810  24.486  20.635  14.778
15485W        W87811   2.677  14.712   0.251
15486W        W87812   9.728   3.845  14.862
15487W        W87813  17.703  32.018   4.454
15488W        W87814  41.412  18.512  11.735
15489W        W87815  35.840  22.246  11.516
15490W        W87816  24.097  38.366   1.209
15491W        W87817  42.443  10.960   2.140
15492W        W87818  11.607  33.110  13.559
15493W        W87819  29.552  27.067   2.639
15494W        W87820   1.304  38.790   0.852
15495W        W87821  17.729  18.789  14.720
15496W        W87822  31.547  43.902  12.466
15497W        W87823  37.425  15.376  10.435
15498W        W87824  35.906  12.993   2.304
15499W        W87825  12.803  17.184  12.244
15500W        W87826  14.055  16.313   3.626
15501W        W87827  30.235  17.088  12.630
15502W        W87828   5.866  32.070   0.331
15503W        W87829  21.105  10.671  12.911
15504W        W87830  25.096  41.301  14.443
15505W        W87831  39.939   2.942   2.707
15506W        W87832  24.734  43.717   3.151
15507W        W87833  21.552  42.814   3.730
15508W        W87834  17.282  44.063   2.205
15509W        W87835   6.646  33.075   0.795
15510W        W87836  31.566  23.748   5.244
15511W        W87837  17.571  34.527  12.102
15512W        W87838   1.085  21.561   3.378
15513W        W87839  42.788  36.746  13.106
15514W        W87840  33.421  44.041   2.816
15515W        W87841   9.398   3.451   2.428
15516W        W87842   2.943   3.377  14.094
15517W        W87843  39.455  13.673  14.644
15518W        W87844  37.789  37.711   3.723
15519W        W87845  39.226   6.294  11.443
15520W        W87846  19.025  14.669   3.718
15521W        W87847  42.722  40.958   2.766
15522W        W87848  13.205  21.961  11.180
15523W        W87849   5.816  19.228  14.775
15524W        W87850  40.134   5.810  12.355
15525W        W87851  31.051   3.273   2.578
15526W        W87852  36.096   4.844   3.864
15527W        W87853  37.335  41.023  14.390
15528W        W87854  33.078  11.819   1.727
15529W        W87855  19.998   0.036   1.531
15530W        W87856  43.624  12.187   2.285
15531W        W87857  10.754  40.773  10.692
15532W        W87858  34.925  35.876  11.465
15533W        W87859  16.113   1.886  10.664
15534W        W87860  12.346  33.105   4.397
15535W        W87861  38.561   2.417   4.551
15536W        W87862  21.433   7.536   2.100
15537W        W87863   9.811  23.032   0.426
15538W        W87864  22.595   1.408  12.815
15539W        W87865  27.521   3.749   3.225
15540W        W87866  33.072  42.520  12.195
15541W        W87867  38.140  19.567  12.070
15542W        W87868  36.968  16.277  12.900
15543W        W87869  34.999  23.696  13.799
15544W        W87870   0.590  44.427  10.558
15545W        W87871   1.119  10.563   0.236
15546W        W87872   7.993  41.294  12.904
15547W        W87873  23.486  10.752  14.472
15548W        W87874  40.984  41.860   4.131
15549W        W87875   6.753  44.900   4.806
15550W        W87876  28.066  16.052  13.192
15551W        W87877  36.006  11.293   0.679
15552W        W87878   0.476  31.532   3.664
15553W        W87879  17.311  31.335   2.128
15554W        W87880  34.294  20.249   2.585
15555W        W87881  15.509   8.438   1.009
15556W        W87882  17.616  31.047  14.287
15557W        W87883  31.621  12.251   0.519
15558W        W87884   6.987  39.862   1.625
15559W        W87885   5.741  18.147  14.870
15560W        W87886  43.062  13.447   4.200
15561W        W87887  31.044  43.307   0.849
15562W        W87888  13.289  28.908   4.580
15563W        W87889  40.488  11.797   2.127
15564W        W87890  14.028  14.848  14.469
15565W        W87891  21.454  27.901  12.562
15566W        W87892  11.705  17.949  13.762
15567W        W87893   2.705   6.807   4.561
15568W        W87894   9.637  25.100   4.562
15569W        W87895  30.121  42.343  12.150
15570W        W87896  20.459   6.037   3.193
15571W        W87897  30.738  17.597  13.253
15572W        W87898   9.568  42.509  11.606
15573W        W87899   1.798  35.051   1.940
15574W        W87900  26.313  12.132   4.571
15575W        W87901  32.608   7.363   1.672
15576W        W87902   6.701  35.320  13.850
15577W        W87903  32.762  18.121   1.755
15578W        W87904  11.125  44.333   1.730
15579W        W87905   9.849  37.038   1.299
15580W        W87906  23.981  14.836  14.313
15581W        W87907  10.817  31.110  12.091
15582W        W87908  40.280   4.959   9.944
15583W        W87909   0.508  20.198  13.549
15584W        W87910   3.458  15.610   0.045
15585W        W87911  38.833   6.768  11.087
15586W        W87912  35.382  42.242  12.907
15587W        W87913  23.514  21.162   5.035
15588W        W87914  12.019  11.800  13.920
15589W        W87915  41.381  38.935  10.272
15590W        W87916  19.211  16.321  14.542
15591W        W87917   5.372   3.418   3.590
15592W        W87918  21.704  39.591  12.354
15593W        W87919  17.709  12.664  12.170
15594W        W87920   7.681  10.461  11.062
15595W        W87921  21.665  42.154   1.396
15596W        W87922  17.409   8.404  10.016
15597W        W87923  27.562  29.276   2.055
15598W        W87924  43.627  19.113  13.553
15599W        W87925   9.332  19.641   3.701
15600W        W87926   3.265  13.835   0.375
15601W        W87927  26.589  31.939   4.997
15602W        W87928  23.194  43.090   3.741
15603W        W87929  33.568  10.275  14.934
15604W        W87930   8.697  16.084   4.159
15605W        W87931   9.569  34.328   4.194
15606W        W87932  29.051  20.628   2.216
15607W        W87933  42.446  31.837  12.913
15608W        W87934   7.085  16.682  10.593
15609W        W87935  18.778   6.144   3.694
15610W        W87936   6.266  36.728   0.145
15611W        W87937  44.180  43.835   1.253
15612W        W87938  37.319  22.790  10.733
15613W        W87939  35.425  43.004   5.048
15614W        W87940  36.083  22.490   3.165
15615W        W87941  42.481  27.958   3.885
15616W        W87942  16.806  23.696   3.104
15617W        W87943  22.727  22.311  12.952
15618W        W87944  36.179  14.725  14.573
15619W        W87945  41.630  41.525   2.293
15620W        W87946  33.952  35.517  14.309
15621W        W87947   6.627  35.959   0.457
15622W        W87948  26.465  19.209  10.678
15623W        W87949  21.510  31.881  14.278
15624W        W87950  11.330   6.905   3.939
15625W        W87951  37.289  40.999  13.574
15626W        W87952  34.744  35.527  11.124
15627W        W87953  20.249  14.640  12.563
15628W        W87954  30.845   5.255   1.227
15629W        W87955  34.642  41.562  14.460
15630W        W87956  20.069  27.530   2.856
15631W        W87957   0.856  28.617   1.185
15632W        W87958  41.133  25.228   4.770
15633W        W87959  12.583  23.776   3.106
15634W        W87960   7.497  34.016   4.695
15635W        W87961  15.618   4.755   4.150
15636W        W87962   5.923  24.353  13.971
15637W        W87963  43.026  32.238  11.048
15638W        W87964  13.294   8.426   4.711
15639W        W87965   2.116   2.005   1.374
15640W        W87966  12.135  23.635  12.070
15641W        W87967  11.218  44.032   0.392
15642W        W87968   2.581   9.593   0.383
15643W        W87969   8.441  17.084   1.408
15644W        W87970  31.866  18.612  10.927
15645W        W87971   0.205   9.882  14.819
15646W        W87972  17.347  24.186   1.251
15647W        W87973  43.137  25.835  11.964
15648W        W87974  11.173  16.549  12.841
15649W        W87975  10.046  21.999   3.544
15650W        W87976  42.902  37.487   1.713
15651W        W87977  14.157  36.885   1.948
15652W        W87978  22.665  18.846   0.735
15653W        W87979  24.981  26.924   3.752
15654W        W87980  41.757  35.898   4.200
15655W        W87981  27.173  26.221  11.959
15656W        W87982   3.353   8.903   0.917
15657W        W87983  29.364   6.213  13.298
15658W        W87984  27.258   9.196   0.880
15659W        W87985  12.799  24.656   3.754
15660W        W87986   3.958  21.033  12.952
15661W        W87987   3.698   6.186  14.783
15662W        W87988  33.599  35.603  10.170
15663W        W87989  44.673  10.787   1.373
15664W        W87990  32.214  16.670   1.726
15665W        W87991   6.176  16.124  13.191
15666W        W87992   6.721  19.689  13.439
15667W        W87993  25.631  16.215  13.910
15668W        W87994  44.997  24.620   1.911
15669W        W87995  34.362  42.587  13.874
15670W        W87996  24.074  10.204   1.257
15671W        W87997  39.143  14.400  14.885
15672W        W87998   3.238  38.472  13.472
15673W        W87999  13.646  44.516  12.698
15674W        W88000  37.984  14.756   1.268
15675W        W88001   1.846  23.458  11.071
15676W        W88002   2.297  22.551  14.020
15677W        W88003  11.775   2.220  12.809
15678W        W88004  41.019  31.977   2.840
15679W        W88005  30.957  18.148   3.678
15680W        W88006   8.817  21.233   2.246
15681W        W88007  14.486  12.887   1.421
15682W        W88008  17.782  27.906  14.192
15683W        W88009   3.231  31.077   0.424
15684W        W88010  18.730  25.028   3.719
15685W        W88011  14.750  26.745  13.476
15686W        W88012  12.590  37.864   2.381
15687W        W88013  38.493  17.341   0.385
15688W        W88014  17.321  44.974  12.346
15689W        W88015  32.651  17.333   4.545
15690W        W88016  24.520  14.740   0.847
15691W        W88017  25.679  27.203  11.511
15692W        W88018  40.000  38.393   2.836
15693W        W88019  21.213   9.598  12.901
15694W        W88020  41.792   3.446   1.806
15695W        W88021  15.388  11.558   1.901
15696W        W88022   5.040  30.039  11.940
15697W        W88023  44.811  39.338   3.179
15698W        W88024  18.393  17.576  14.872
15699W        W88025  23.219  32.185  13.418
15700W        W88026  27.863  35.620  14.133
15701W        W88027  36.433   1.705  14.896
15702W        W88028  12.374  22.642   3.929
15703W        W88029  26.387  44.604  12.926
15704W        W88030  17.163  20.791   1.739
15705W        W88031  38.044  16.093   3.130
15706W        W88032  14.641  39.349   4.272
15707W        W88033  29.071  19.047   2.330
15708W        W88034  40.019  37.532  12.073
15709W        W88035   8.917   9.302   1.480
15710W        W88036  35.348  19.758  11.609
15711W        W88037   4.158  12.415  12.572
15712W        W88038  36.999  33.928  13.903
15713W        W88039  31.367  26.813   2.292
15714W        W88040   8.401   8.484   1.411
15715W        W88041   6.131   4.047  14.931
15716W        W88042   7.767  34.114  14.542
15717W        W88043  18.530  26.959  12.484
15718W        W88044  28.042  24.167   0.291
15719W        W88045   1.338  34.317  12.040
15720W        W88046   5.152  16.878   1.397
15721W        W88047  12.221  44.215  10.169
15722W        W88048  35.170  18.832   2.186
15723W        W88049  24.497  42.834   2.533
15724W        W88050  32.639  20.164   3.506
15725W        W88051  44.750   2.741  14.596
15726W        W88052  28.158  22.164  14.239
15727W        W88053  37.543  44.416  11.171
15728W        W88054  40.503  24.158   1.924
15729W        W88055  27.092  16.581   4.534
15730W        W88056  37.072  42.172  10.815
15731W        W88057   6.154  42.430  11.524
15732W        W88058  15.109   5.401   0.201
15733W        W88059   3.968  20.213   0.266
15734W        W88060  24.732  41.735   2.223
15735W        W88061  32.408  20.544  13.555
15736W        W88062   9.104   5.287  13.812
15737W        W88063  13.244  18.563  12.018
15738W        W88064  17.204   2.205  11.970
15739W        W88065  42.314   5.604   3.530
15740W        W88066  22.703  35.895   4.546
15741W        W88067  35.834   4.769  11.101
15742W        W88068  37.100  39.794  13.789
15743W        W88069  39.055  40.265   1.286
15744W        W88070  35.383  18.747  10.686
15745W        W88071  38.157  41.150   2.849
15746W        W88072   2.684  24.618  11.144
15747W        W88073  44.420   2.670   3.944
15748W        W88074  19.790   8.779  10.886
15749W        W88075  28.677  34.116  11.691
15750W        W88076  39.029  14.307   2.188
15751W        W88077  29.340  16.852  12.409
15752W        W88078  12.198  29.378  13.036
15753W        W88079   2.470  28.134  11.203
15754W        W88080  25.465  42.277  11.043
15755W        W88081   8.100   9.307   3.365
15756W        W88082   2.491  14.212   3.222
15757W        W88083  33.266  34.984   3.630
15758W        W88084  20.201  34.866   2.370
15759W        W88085   4.345  11.845   2.878
15760W        W88086  22.167  39.137   4.632
15761W        W88087   1.562   8.240   2.598
15762W        W88088   0.232  29.082   0.743
15763W        W88089  28.863  44.841   2.913
15764W        W88090  35.100  10.693   0.949
15765W        W88091  23.474  11.856  13.712
15766W        W88092   4.865  16.649  14.626
15767W        W88093   6.471  30.175   2.355
15768W        W88094  20.881   7.447  14.254
15769W        W88095  13.268  24.036   3.424
15770W        W88096  16.041  24.067  14.872
15771W        W88097  15.572  30.672   4.995
15772W        W88098   5.742  36.105  11.595
15773W        W88099  16.171  32.139  12.127
15774W        W88100  37.141  22.653  13.622
15775W        W88101  44.254  21.253  13.788
15776W        W88102  19.610   1.366   4.400
15777W        W88103  39.873  34.662  13.418
15778W        W88104  21.604   2.138   1.715
15779W        W88105   5.163  14.870   2.843
15780W        W88106   7.883  31.120   3.884
15781W        W88107  40.946  39.782  12.884
15782W        W88108  28.676  26.060   2.198
15783W        W88109  26.165  15.505   1.056
15784W        W88110  35.523  27.732   3.056
15785W        W88111  21.728   3.530   4.132
15786W        W88112  41.882  23.213  11.926
15787W        W88113  36.851   3.013   2.303
15788W        W88114  41.922   6.375   1.886
15789W        W88115   5.744  36.307   2.931
15790W        W88116   5.572  18.707   4.097
15791W        W88117   0.760  28.457  14.436
15792W        W88118   8.453   7.340   0.630
15793W        W88119   4.983   7.265  11.518
15794W        W88120  24.744  36.356  13.108
15795W        W88121  44.705  23.742  12.881
15796W        W88122   3.519   7.775   1.340
15797W        W88123  16.205   9.437  13.769
15798W        W88124  32.626   6.436   3.684
15799W        W88125  19.823   8.843  11.955
15800W        W88126  29.368   6.777   4.174
15801W        W88127  38.560  35.885   0.912
15802W        W88128  36.388   4.840   1.200
15803W        W88129  30.058  28.226   3.365
15804W        W88130  29.994  40.595   1.869
15805W        W88131  36.948  42.026   2.380
15806W        W88132  25.442  31.374   3.966
15807W        W88133  11.251  40.010   3.568
15808W        W88134  27.528   2.821  10.687
15809W        W88135   9.444   5.671   1.738
15810W        W88136  38.051   5.175  11.518
15811W        W88137  12.296   1.927   0.312
15812W        W88138  19.637  42.880  10.258
15813W        W88139   5.264  19.298   0.194
15814W        W88140  10.912   0.416  13.907
15815W        W88141  34.545  29.425   1.583
15816W        W88142  19.669  23.244  14.586
15817W        W88143  40.779  40.404   4.663
15818W        W88144  19.541  21.998  10.494
15819W        W88145   4.848  11.871  10.759
15820W        W88146  25.645  24.123   4.110
15821W        W88147  30.937   5.910  11.128
15822W        W88148  40.752  42.730   4.682
15823W        W88149  43.813  43.265   4.089
15824W        W88150  14.558  17.028  12.710
15825W        W88151  13.972  34.836  11.625
15826W        W88152   8.922  28.075  14.778
15827W        W88153  27.871  29.418   1.288
15828W        W88154   7.904  12.457  14.455
15829W        W88155  18.571   0.592  12.180
15830W        W88156   7.647   6.332   2.590
15831W        W88157  27.440  26.296  10.524
15832W        W88158  43.948  30.989  13.014
15833W        W88159  13.862  34.030   0.127
15834W        W88160   9.292  37.753   3.748
15835W        W88161  14.081  17.668   4.595
15836W        W88162  20.272  22.582   0.263
15837W        W88163  39.786  42.900  10.558
15838W        W88164  24.293  17.687   3.044
15839W        W88165  42.992  29.636   0.243
15840W        W88166  27.753  37.975   0.350
15841W        W88167  44.013  29.989   1.326
15842W        W88168  34.859   6.859  14.276
15843W        W88169  17.138  20.264  13.399
15844W        W88170  17.932  41.433  11.668
15845W        W88171  15.216  17.244   1.814
15846W        W88172  29.891  39.037   4.596
15847W        W88173  38.798  22.073  14.544
15848W        W88174   0.349  19.966   4.766
15849W        W88175  29.701  11.441   3.687
15850W        W88176  41.360  41.470  14.210
15851W        W88177  10.316   9.044  14.215
15852W        W88178  25.598  10.450   0.372
15853W        W88179  32.912  41.575  11.632
15854W        W88180   8.263  17.676  12.467
15855W        W88181  19.122  35.610  11.984
15856W        W88182  24.779  30.958   3.600
15857W        W88183  42.954  30.643  13.943
15858W        W88184  34.473  21.058   4.065
15859W        W88185  20.698  13.235  11.004
15860W        W88186  33.205  15.587  13.972
15861W        W88187  32.072  37.020   3.377
15862W        W88188  10.615  30.451   1.029
15863W        W88189  20.211   0.469   1.309
15864W        W88190  36.940  24.486   3.291
15865W        W88191  30.462  24.623   2.239
15866W        W88192  16.226  21.656  10.746
15867W        W88193  16.192  24.796   3.324
15868W        W88194  22.718   3.433  12.957
15869W        W88195  39.336  20.972   2.290
15870W        W88196  24.110  24.320  11.085
15871W        W88197  23.578  26.609  14.739
15872W        W88198   9.901  44.240  14.937
15873W        W88199  30.589  10.190  13.927
15874W        W88200  21.026  43.470  10.933
15875W        W88201  41.240  40.121  12.623
15876W        W88202  30.033  44.224  13.962
15877W        W88203  39.917  24.148  11.592
15878W        W88204  13.509   3.472  11.471
15879W        W88205   4.746  10.707   3.256
15880W        W88206   3.197  39.617   3.289
15881W        W88207   1.755  38.942  12.133
15882W        W88208  12.035  33.455   4.689
15883W        W88209  16.348   8.098   4.157
15884W        W88210  13.116  28.659  11.202
15885W        W88211  29.748  38.122  12.442
15886W        W88212   3.020  12.771   0.719
15887W        W88213   8.355  38.852  10.414
15888W        W88214   4.397  28.256   3.239
15889W        W88215  25.164  32.155  14.388
15890W        W88216  35.819  15.665   4.255
15891W        W88217   7.087  37.051   2.373
15892W        W88218  18.102  24.794   3.756
15893W        W88219   5.290  24.355   4.644
15894W        W88220   4.697   0.562  14.418
15895W        W88221   3.808  26.064  13.070
15896W        W88222  31.369   3.252  10.990
15897W        W88223  43.929  29.439   4.613
15898W        W88224  16.178  13.541  12.905
15899W        W88225  38.953  10.679  14.792
15900W        W88226   8.515  23.318  13.056
15901W        W88227   8.772   1.106  12.204
15902W        W88228  44.605  27.647  14.449
15903W        W88229  27.683  39.903  12.490
15904W        W88230  21.190  34.189  14.544
15905W        W88231   8.911  34.020  13.551
15906W        W88232  36.562  34.853  13.810
15907W        W88233  28.175  33.146  12.467
15908W        W88234  26.188   3.730  13.022
15909W        W88235   4.302  15.425  13.205
15910W        W88236  19.941  44.618  10.278
15911W        W88237  37.118  37.342   3.190
15912W        W88238   2.203   7.287  10.623
15913W        W88239  30.384   8.078  13.047
15914W        W88240   3.261  22.337   2.911
15915W        W88241  29.670   8.322  14.306
15916W        W88242  20.128  36.025   4.700
15917W        W88243  44.953   4.352  13.858
15918W        W88244  19.698  26.401   2.783
15919W        W88245   2.955  22.129   1.684
15920W        W88246  14.680   0.399   4.599
15921W        W88247  16.862  30.887  13.886
15922W        W88248  38.862  26.119  11.075
15923W        W88249   8.625  21.760  12.556
15924W        W88250   2.425  12.643  11.679
15925W        W88251  20.613  34.662   3.779
15926W        W88252  37.589  20.791  10.754
15927W        W88253  44.514  41.081   1.475
15928W        W88254  31.178   0.265  14.451
15929W        W88255   5.968  39.162   1.241
15930W        W88256  34.365  10.673  11.197
15931W        W88257   3.721  30.500   2.249
15932W        W88258  42.991   6.631   0.563
15933W        W88259  19.650  34.017   4.064
15934W        W88260  18.036  15.233  13.719
15935W        W88261   8.252  23.969  14.993
15936W        W88262  26.561  44.216  13.407
15937W        W88263  11.410  35.424   2.261
15938W        W88264  35.071   3.895   3.916
15939W        W88265   8.343   4.541   0.382
15940W        W88266  16.344  44.326  13.387
15941W        W88267   0.327  11.532   1.831
15942W        W88268   2.143  15.207  12.644
15943W        W88269  26.110   8.382  11.684
15944W        W88270   1.255  27.908  10.934
15945W        W88271  15.610   5.599   4.264
15946W        W88272  43.474  15.601  13.783
15947W        W88273   5.325  29.163   2.433
15948W        W88274  39.860   1.253  13.275
15949W        W88275  43.857  21.676  14.606
15950W        W88276   5.512  15.999   4.454
15951W        W88277  14.341  20.221  12.828
15952W        W88278  37.983  13.585   4.752
15953W        W88279   8.314  30.420  14.812
15954W        W88280  31.088  21.164   4.611
15955W        W88281   2.430   0.517  12.922
15956W        W88282  42.400   5.385  14.326
15957W        W88283  17.822   5.675  11.170
15958W        W88284  37.979  31.449  10.923
15959W        W88285   8.521  15.566   1.204
15960W        W88286  37.857  28.539  14.054
15961W        W88287   6.608  41.938   3.856
15962W        W88288  14.322  28.302   3.798
15963W        W88289  18.434  32.326  13.896
15964W        W88290  22.302  38.626  14.820
15965W        W88291  21.261  30.350   2.378
15966W        W88292  39.834  19.608  12.567
15967W        W88293  27.531  34.507   4.521
15968W        W88294  27.354  24.556  14.436
15969W        W88295  43.411  12.686   2.754
15970W        W88296  37.041   5.157   3.216
15971W        W88297  35.386  26.567  12.598
15972W        W88298  43.943  16.191   0.449
15973W        W88299  13.071  40.819   2.234
15974W        W88300  37.797  30.975  14.873
15975W        W88301  15.680  15.125   3.377
15976W        W88302  12.804   1.665   4.257
15977W        W88303  34.596  14.583  11.200
15978W        W88304  14.066  35.888   1.439
15979W        W88305   0.830  30.385   0.790
15980W        W88306  10.365  28.315   0.643
15981W        W88307  35.353  39.406   4.797
15982W        W88308  12.555  15.005   1.142
15983W        W88309   4.395  15.030  14.751
15984W        W88310  28.119   8.228   1.379
15985W        W88311  12.523  30.478  14.061
15986W        W88312  10.974   1.924   4.160
15987W        W88313  32.690  29.116   1.171
15988W        W88314  15.073  13.743  14.221
15989W        W88315  24.216  28.885   3.301
15990W        W88316  13.408  41.833   4.092
15991W        W88317  28.225  24.631  12.459
15992W        W88318   6.578   8.792   2.633
15993W        W88319  38.869   0.092   4.379
15994W        W88320  15.442  27.566   0.742
15995W        W88321   7.871  37.869   2.595
15996W        W88322   6.610   7.761  12.031
15997W        W88323  39.776  13.107  12.373
15998W        W88324  11.876  20.191   3.452
15999W        W88325  20.055  44.349  13.938
16000W        W88326  42.429   1.227  12.457
16001W        W88327  28.652   6.228  12.981
16002W        W88328  25.345  17.297   5.731
16003W        W88329  11.399  10.361  11.026
16004W        W88330  44.803  24.331   0.938
16005W        W88331  38.035  16.312  13.942
16006W        W88332  23.684  38.912   4.247
16007W        W88333  15.592  15.080  14.338
16008W        W88334  44.361  41.759  13.017
16009W        W88335  28.493   6.832  13.409
16010W        W88336  43.023  43.952   0.682
16011W        W88337   3.382  28.739  12.573
16012W        W88338  39.530  22.002  11.607
16013W        W88339  17.028  25.091   3.130
16014W        W88340  38.872  35.397   4.286
16015W        W88341  13.883   9.217   4.316
16016W        W88342   7.238  17.130  13.628
16017W        W88343  18.539  12.580  11.806
16018W        W88344  38.870   9.291   3.622
16019W        W88345  20.808   7.772   3.857
16020W        W88346  43.867  32.336   0.736
16021W        W88347   8.334  43.936  11.135
16022W        W88348  24.567  29.539  11.570
16023W        W88349   5.207   2.364   0.281
16024W        W88350   3.231   4.261  10.649
16025W        W88351  11.820  44.537   3.784
16026W        W88352  24.558   3.398   3.666
16027W        W88353  41.579  44.177   2.804
16028W        W88354  40.956   1.497   1.989
16029W        W88355  33.232  31.062  12.514
16030W        W88356  18.323  20.059   1.371
16031W        W88357   2.212   7.389   1.623
16032W        W88358  37.630  13.781  14.026
16033W        W88359   2.908  18.581   0.665
16034W        W88360  24.278  44.799   4.580
16035W        W88361  40.492   9.155  14.308
16036W        W88362  31.999  19.775   0.537
16037W        W88363  28.514  39.375  10.566
16038W        W88364   8.312  32.986   0.022
16039W        W88365  23.688  27.585  14.741
16040W        W88366   7.945  17.300  11.995
16041W        W88367   4.716  15.268  11.820
16042W        W88368  43.931  29.127   0.180
16043W        W88369  38.104  28.062   9.953
16044W        W88370  36.425  37.356   3.660
16045W        W88371  26.127   9.447  11.911
16046W        W88372  34.335  38.912   0.265
16047W        W88373  15.806  38.453   0.923
16048W        W88374  42.481   3.461   2.697
16049W        W88375  42.907   7.028   1.948
16050W        W88376   7.807  23.076   4.359
16051W        W88377  27.763  31.698  10.940
16052W        W88378  26.521  12.279  13.063
16053W        W88379  12.809  20.107  11.565
16054W        W88380  31.124   0.397  12.082
16055W        W88381   1.843  28.699   1.853
16056W        W88382   8.453  35.811  10.625
16057W        W88383  32.998  44.576   3.626
16058W        W88384  26.985  31.772  11.361
16059W        W88385  25.520   6.091  10.224
16060W        W88386  26.409   1.500   2.165
16061W        W88387  27.929  18.582   1.829
16062W        W88388  32.001  13.183   4.222
16063W        W88389   1.347   0.015  14.963
16064W        W88390   1.988  44.342   1.005
16065W        W88391   1.223   5.327  14.291
16066W        W88392  37.408  10.317  12.916
16067W        W88393  27.046  40.815   5.084
16068W        W88394  38.111  39.333  11.210
16069W        W88395  14.802  42.469  13.622
16070W        W88396  18.141  36.915  11.154
16071W        W88397  12.701  27.669  12.757
16072W        W88398  32.436  13.082  14.671
16073W        W88399  32.271   8.613  13.575
16074W        W88400  29.172  36.521   3.340
16075W        W88401  11.915  15.478   4.212
16076W        W88402  41.979  13.778   5.040
16077W        W88403   5.171  21.377  10.170
16078W        W88404  41.599  23.681  12.625
16079W        W88405  24.945  44.986  13.501
16080W        W88406  15.694  11.798  12.163
16081W        W88407  18.300  17.235  11.615
16082W        W88408  17.001   8.904   0.342
16083W        W88409  33.596  43.831   3.722
16084W        W88410   2.809  38.786   0.275
16085W        W88411  10.765  23.521   4.859
16086W        W88412   5.331   8.118   1.898
16087W        W88413  18.030  36.177   4.221
16088W        W88414  25.990   2.250   1.885
16089W        W88415  29.732   6.421   4.197
16090W        W88416  31.039   6.160  14.267
16091W        W88417  21.189  25.667   1.129
16092W        W88418  22.174  43.291   0.742
16093W        W88419  24.195  39.072   4.218
16094W        W88420  41.470  40.956  14.206
16095W        W88421  38.345  20.250  11.166
16096W        W88422   8.314  41.914  11.294
16097W        W88423   0.018  26.849   9.992
16098W        W88424  30.826  25.266  12.936
16099W        W88425  25.727  11.422  12.591
16100W        W88426  33.549  12.901  13.325
16101W        W88427   5.666   6.687   1.211
16102W        W88428  34.832   6.376  11.110
16103W        W88429  38.580  40.570   0.470
16104W        W88430  39.948  30.892  12.846
16105W        W88431  39.374   6.791  12.571
16106W        W88432  33.264  10.904   3.488
16107W        W88433   9.339  44.866  11.744
16108W        W88434  16.055  42.233   4.142
16109W        W88435  34.005  17.981  12.635
16110W        W88436  26.928  30.571  12.554
16111W        W88437   6.963  44.821  12.048
16112W        W88438   9.370  37.175   3.902
16113W        W88439  38.557  23.939   1.980
16114W        W88440   8.831  29.953   2.297
16115W        W88441  34.365  36.605  14.906
16116W        W88442  44.896   7.477  10.722
16117W        W88443   0.408   1.408  14.132
16118W        W88444  14.903  21.204   1.136
16119W        W88445  16.208  24.273   3.296
16120W        W88446  44.508  21.027   2.770
16121W        W88447  22.776  15.194  13.416
16122W        W88448  27.078  22.029  13.313
16123W        W88449  31.050  28.880   0.901
16124W        W88450  36.333  15.174   4.576
16125W        W88451   0.798  26.711  12.774
16126W        W88452   2.491  25.286   4.089
16127W        W88453  31.887  24.479  14.120
16128W        W88454  24.068  42.817   2.276
16129W        W88455  38.689   1.205   3.300
16130W        W88456  32.749  32.236  14.741
16131W        W88457  16.742  14.429   2.430
16132W        W88458  15.050   0.993  10.594
16133W        W88459  30.666  15.368   3.203
16134W        W88460  39.963  19.099  13.520
16135W        W88461   0.623  41.790  14.058
16136W        W88462  11.149  26.851   2.423
16137W        W88463  29.834   4.205  11.168
16138W        W88464  10.969  13.889   0.653
16139W        W88465  31.630  33.494  11.083
16140W        W88466  44.928  22.394   0.101
16141W        W88467  15.504  18.256   2.734
16142W        W88468  33.637  42.553   4.453
16143W        W88469  24.119  16.186  14.410
16144W        W88470  14.127  17.114  13.973
16145W        W88471  11.327  21.004   1.275
16146W        W88472   5.616  24.140   3.772
16147W        W88473  36.080   0.978   0.894
16148W        W88474   1.332  22.259   4.031
16149W        W88475   1.295  35.478   4.575
16150W        W88476  41.335   1.955  12.933
16151W        W88477  25.097  20.605   2.337
16152W        W88478  39.643  27.137  12.368
16153W        W88479  27.717  11.197  14.360
16154W        W88480   1.571  39.965   3.780
16155W        W88481  39.348  22.650   1.683
16156W        W88482  21.628  20.631  12.133
16157W        W88483  39.354   0.122  13.982
16158W        W88484  26.630  21.588   1.266
16159W        W88485   2.372   3.914  11.057
16160W        W88486  17.743  39.232   2.277
16161W        W88487  22.390  27.687   3.887
16162W        W88488   9.403  24.795  14.905
16163W        W88489  13.421   9.259  12.640
16164W        W88490   0.461  28.586  10.715
16165W        W88491  10.290  30.019  12.516
16166W        W88492  44.114  30.708  12.603
16167W        W88493  28.664  44.709   0.801
16168W        W88494  18.784  34.491  10.635
16169W        W88495  33.496  29.874   0.418
16170W        W88496  18.801  28.189   2.318
16171W        W88497   8.902  32.677  11.036
16172W        W88498  27.051  17.063  13.551
16173W        W88499   4.358   2.915  11.681
16174W        W88500   0.204  36.452  11.229
16175W        W88501  37.022  17.210  11.625
16176W        W88502  21.325  41.139  14.884
16177W        W88503  20.684  22.687  12.183
16178W        W88504  17.066  20.255  14.923
16179W        W88505  43.541   7.872   3.136
16180W        W88506  33.557  35.000   5.117
16181W        W88507  11.529   9.310   3.268
16182W        W88508  33.576  12.781  11.872
16183W        W88509   3.754  42.055   4.550
16184W        W88510  27.234  33.630   0.147
16185W        W88511  26.132   5.070   1.285
16186W        W88512  32.426  24.805  10.458
16187W        W88513  24.009  34.144  10.505
16188W        W88514  20.587   7.947  10.719
16189W        W88515  25.267   1.346   4.158
16190W        W88516  31.923  31.812  14.140
16191W        W88517  29.716  13.203  14.488
16192W        W88518  21.216   6.880   3.278
16193W        W88519  34.795  42.236   1.555
16194W        W88520  13.696  14.804   4.160
16195W        W88521  15.734  11.773   0.828
16196W        W88522   8.779   6.623   3.608
16197W        W88523  13.602  37.299   4.116
16198W        W88524  22.156  44.529  12.932
16199W        W88525   9.644  13.857   3.595
16200W        W88526  14.503  28.933   1.240
16201W        W88527  23.696  15.641   4.568
16202W        W88528   1.382   1.749  10.289
16203W        W88529  22.224   3.661  14.808
16204W        W88530  18.156  42.054   0.772
16205W        W88531   6.635  38.423  12.410
16206W        W88532  15.155  39.780  11.887
16207W        W88533   0.490  41.969   2.377
16208W        W88534  35.848  22.002  11.025
16209W        W88535   0.263   6.494  11.532
16210W        W88536   2.780  23.661   2.715
16211W        W88537  26.539   0.931   2.167
16212W        W88538   9.844  17.792  12.404
16213W        W88539  27.021  37.597  13.209
16214W        W88540  27.232  38.722   3.153
16215W        W88541   5.153   6.624   3.867
16216W        W88542  15.263  30.010   0.021
16217W        W88543   6.727   5.337  12.866
16218W        W88544  23.831  14.015   4.516
16219W        W88545  21.147   4.662   3.781
16220W        W88546  17.793  10.100  13.762
16221W        W88547   1.547  37.379   1.897
16222W        W88548  26.537  19.296   2.120
16223W        W88549  21.040  43.690   5.197
16224W        W88550   6.165  33.592   2.378
16225W        W88551  10.161  15.140   2.165
16226W        W88552   0.780  11.297   1.151
16227W        W88553  12.556  16.243   4.347
16228W        W88554  14.694  32.418  13.545
16229W        W88555  12.719  29.683  13.015
16230W        W88556   7.094  42.042   3.748
16231W        W88557  25.744  25.286  11.499
16232W        W88558  16.226  16.063  13.011
16233W        W88559   7.924   0.469  14.043
16234W        W88560   3.786  43.851   3.922
16235W        W88561   3.443  43.394  12.150
16236W        W88562  42.595  20.822  12.072
16237W        W88563  43.856  34.694  14.043
16238W        W88564  10.176  31.858   1.548
16239W        W88565  25.072  35.461   4.453
16240W        W88566  44.838  19.751   4.766
16241W        W88567  22.712  19.241   3.207
16242W        W88568  29.174  17.713   2.705
16243W        W88569  10.676  38.544   0.537
16244W        W88570  19.006  22.981  14.300
16245W        W88571  12.265   0.668  11.039
16246W        W88572   1.216  13.678  13.072
16247W        W88573  16.364  18.790  13.311
16248W        W88574  29.022   8.678   4.147
16249W        W88575  32.818  35.062   3.879
16250W        W88576  30.008  30.110  11.170
16251W        W88577  44.358  17.301  10.635
16252W        W88578  11.034  15.960  11.079
16253W        W88579  25.133  41.910   4.658
16254W        W88580   0.733   4.274  14.077
16255W        W88581  13.055  14.255  14.106
16256W        W88582  33.364   4.586  14.893
16257W        W88583  31.613  20.296   3.287
16258W        W88584  22.693  28.365  11.649
16259W        W88585  33.747  24.238   3.239
16260W        W88586  14.596  29.743   4.676
16261W        W88587   1.236  13.650   4.008
16262W        W88588  21.250  23.092   3.059
16263W        W88589  25.153  22.981  10.613
16264W        W88590  43.883  41.877  12.873
16265W        W88591  12.305   5.251   1.378
16266W        W88592  26.685  38.503  13.979
16267W        W88593   9.448  12.297   0.415
16268W        W88594  39.036  35.737  10.253
16269W        W88595  16.025  26.591   3.919
16270W        W88596  20.712  41.974  14.796
16271W        W88597  30.233  24.100   4.075
16272W        W88598  30.961  34.801   2.799
16273W        W88599  21.173  14.197   0.780
16274W        W88600  16.114  41.802  11.559
16275W        W88601  44.488  19.137   3.256
16276W        W88602  33.437   5.641   3.146
16277W        W88603   8.140  35.683   2.589
16278W        W88604  28.984   9.592  13.133
16279W        W88605  36.065  42.582   0.382
16280W        W88606  17.773  22.084   3.386
16281W        W88607  38.329  22.781  12.950
16282W        W88608  19.507  11.680   1.180
16283W        W88609  40.323  33.594   3.484
16284W        W88610  39.994   1.735  13.037
16285W        W88611   6.406  32.106  10.706
16286W        W88612  23.669  43.517   4.585
16287W        W88613   1.832  44.284   2.007
16288W        W88614  32.594   4.879  10.552
16289W        W88615  12.806  44.064   1.006
16290W        W88616  29.022  16.234  11.605
16291W        W88617  17.776  15.164  10.966
16292W        W88618  34.809  41.030   4.757
16293W        W88619   3.957   4.427   5.522
16294W        W88620   5.881  22.810  10.406
16295W        W88621  15.945  28.506   2.813
16296W        W88622  16.325  28.167  14.429
16297W        W88623   9.279  39.966  10.395
16298W        W88624  44.425   6.290  12.956
16299W        W88625  32.029  21.950   0.925
16300W        W88626  10.095   4.376   1.532
16301W        W88627  21.642  35.148   1.227
16302W        W88628  13.613  32.516   0.939
16303W        W88629  33.620  40.298   0.798
16304W        W88630   6.147  21.604  11.617
16305W        W88631  19.011  19.524   2.687
16306W        W88632  23.685  28.174  14.271
16307W        W88633  17.998  29.143   1.865
16308W        W88634   0.506  40.886   0.470
16309W        W88635  14.463  32.426  12.053
16310W        W88636   4.748   8.409  11.693
16311W        W88637  29.093  17.291  12.531
16312W        W88638  10.475   4.750  11.630
16313W        W88639  13.662  18.835   0.027
16314W        W88640  40.253  26.530  12.431
16315W        W88641  14.737   5.949  13.851
16316W        W88642  42.275  10.359  13.877
16317W        W88643  42.696  35.933  10.530
16318W        W88644   0.489  13.009  13.891
16319W        W88645  38.271   9.788  10.278
16320W        W88646   5.975  15.076   3.573
16321W        W88647  39.115  32.586   4.105
16322W        W88648  23.114  15.371   4.643
16323W        W88649  29.261  23.196  11.987
16324W        W88650   7.105   9.626  14.914
16325W        W88651  20.008  37.351   1.577
16326W        W88652  31.648  38.762  11.042
16327W        W88653  40.413  38.843   0.852
16328W        W88654  31.708  10.717  10.645
16329W        W88655  15.717  39.339   1.886
16330W        W88656   4.486   2.852   5.393
16331W        W88657  17.256  32.976  14.358
16332W        W88658  44.084  12.628  12.656
16333W        W88659   2.772   3.851   3.621
16334W        W88660   4.907   0.229   3.578
16335W        W88661  40.253   7.380   2.929
16336W        W88662   6.510  28.989   9.783
16337W        W88663  10.423  17.733  11.728
16338W        W88664  12.220  22.204   0.813
16339W        W88665  37.536  36.214   4.891
16340W        W88666  43.373   9.587  14.324
16341W        W88667  22.064  42.866   3.686
16342W        W88668  14.077  38.333  10.891
16343W        W88669   9.567  13.919  13.003
16344W        W88670  40.925  15.394   0.337
16345W        W88671  18.634  33.496  14.660
16346W        W88672  20.454  15.536  11.058
16347W        W88673  44.233  29.155   4.283
16348W        W88674   3.193  36.947   3.985
16349W        W88675   9.680  33.881   2.786
16350W        W88676  26.048   2.764   1.911
16351W        W88677  44.829  13.859   1.835
16352W        W88678  13.118   6.373   2.377
16353W        W88679   4.203  14.111   0.057
16354W        W88680  44.021  41.075   3.234
16355W        W88681  31.416  33.537   4.337
16356W        W88682  43.556   0.068   2.740
16357W        W88683   0.359   2.071   4.027
16358W        W88684   2.309  42.995   2.333
16359W        W88685  13.871  34.461  12.914
16360W        W88686  24.041  12.824  13.114
16361W        W88687   7.233   0.222  12.258
16362W        W88688  19.316  28.965  11.330
16363W        W88689  31.927  33.750   1.341
16364W        W88690  15.881   4.455   2.952
16365W        W88691   7.929  27.060   2.583
16366W        W88692  18.657  44.663  12.980
16367W        W88693  38.327  18.027   3.280
16368W        W88694   0.766  13.097  14.768
16369W        W88695  25.473  17.706  13.732
16370W        W88696  11.232  42.005  11.656
16371W        W88697   7.419  28.597   0.959
16372W        W88698   6.657  11.115   3.702
16373W        W88699  17.700  32.128  12.904
16374W        W88700   4.120  27.536   4.078
16375W        W88701  30.880  12.951   2.691
16376W        W88702  40.553  38.806  11.707
16377W        W88703  30.385   3.625  14.034
16378W        W88704  37.866   7.140  11.920
16379W        W88705  14.746   2.044  11.597
16380W        W88706  15.287  12.628   2.815
16381W        W88707  29.540  16.689  14.251
16382W        W88708   7.362  19.481  11.576
16383W        W88709  22.955  19.753  14.534
16384W        W88710  27.610   5.249  11.070
16385W        W88711  42.143  32.498  14.604
16386W        W88712  18.304  12.268  10.915
16387W        W88713  11.409  20.800   3.745
16388W        W88714   5.277   7.741  12.595
16389W        W88715   7.818  32.964   4.247
16390W        W88716  23.780  21.237   4.591
16391W        W88717  33.032  36.322  13.880
16392W        W88718  32.711  34.391   1.741
16393W        W88719   9.689  37.691  14.098
16394W        W88720  25.385  13.738   0.899
16395W        W88721  20.110  40.537   1.198
16396W        W88722  33.314  42.855  11.436
16397W        W88723  31.231  33.447   3.865
16398W        W88724  17.798  26.676   1.461
16399W        W88725   0.776  38.866  14.239
16400W        W88726   0.317  39.453   1.969
16401W        W88727   1.369  27.128  14.783
16402W        W88728  32.321  23.354  14.223
16403W        W88729  14.808  44.536  11.476
16404W        W88730  43.056  30.131   0.435
16405W        W88731   7.615   2.489   2.799
16406W        W88732   5.178   5.497   3.257
16407W        W88733  32.478  13.044   3.221
16408W        W88734  21.245  34.431  12.764
16409W        W88735  39.960   3.282  14.985
16410W        W88736   7.656  18.174  11.154
16411W        W88737  15.157  18.034  12.571
16412W        W88738  40.727  28.563   0.291
16413W        W88739  30.377  39.097  11.500
16414W        W88740  44.396  16.187   3.808
16415W        W88741   5.230  22.602  11.343
16416W        W88742  39.276   2.326   1.883
16417W        W88743  27.437  33.064   4.837
16418W        W88744  31.225  15.690   4.697
16419W        W88745  21.240  12.818  14.117
16420W        W88746  34.873  35.578  12.875
16421W        W88747  38.458   9.342  13.075
16422W        W88748   3.071  36.895   4.471
16423W        W88749  30.930  23.602  10.928
16424W        W88750  39.218  21.821  11.161
16425W        W88751   2.745  33.129  13.748
16426W        W88752   8.675   1.192   3.122
16427W        W88753  41.482  24.287  14.399
16428W        W88754  19.273   0.198   4.295
16429W        W88755   3.363  27.923   4.737
16430W        W88756  10.354  30.999  12.406
16431W        W88757  10.414   0.446  12.454
16432W        W88758  37.524  13.351   4.673
16433W        W88759  31.165  15.238  13.823
16434W        W88760  31.534   7.846  11.839
16435W        W88761  19.660   0.208   2.242
16436W        W88762   3.656   8.315  10.845
16437W        W88763   3.720  20.409  11.761
16438W        W88764  16.225   4.418   4.563
16439W        W88765  42.597  13.313  14.876
16440W        W88766  34.402  36.013  10.065
16441W        W88767  30.833  11.969  13.277
16442W        W88768  20.560   3.637   1.919
16443W        W88769  35.858   6.456  12.882
16444W        W88770  13.259   6.228  10.730
16445W        W88771  28.422  13.693   3.257
16446W        W88772  14.636  21.251  13.049
16447W        W88773  29.824  27.586  10.100
16448W        W88774  10.295  37.890   1.798
16449W        W88775   9.813  29.789   0.862
16450W        W88776  11.951  20.045  11.928
16451W        W88777  42.464  10.143   1.804
16452W        W88778   9.687  23.279  11.219
16453W        W88779  34.012  15.568   0.403
16454W        W88780  16.858   8.742  14.853
16455W        W88781  40.841   1.832  12.788
16456W        W88782  30.200  35.012  12.760
16457W        W88783  26.217  13.253   2.396
16458W        W88784  39.815   7.427   4.765
16459W        W88785  39.630  43.790   3.683
16460W        W88786  18.839  24.250  13.470
16461W        W88787  16.639  26.252  13.197
16462W        W88788   3.252  26.918   0.809
16463W        W88789  32.156  39.533   3.158
16464W        W88790  14.427  12.327   1.368
16465W        W88791  41.871  26.410  10.196
16466W        W88792  24.416  37.851   9.740
16467W        W88793  43.251   8.431  12.631
16468W        W88794   2.170  24.653  13.346
16469W        W88795  17.615   2.527  12.622
16470W        W88796  38.417  27.089  11.458
16471W        W88797  42.512  27.059  11.150
16472W        W88798   3.191  27.166   2.736
16473W        W88799  35.577  13.147   4.563
16474W        W88800  43.355  10.320   4.560
16475W        W88801  19.045  32.481   4.638
16476W        W88802  18.769  35.440   0.783
16477W        W88803  38.821  19.123   3.794
16478W        W88804  12.663  36.200  12.450
16479W        W88805  29.870  40.419  13.583
16480W        W88806   8.783  43.938   2.177
16481W        W88807  41.899  34.088  12.544
16482W        W88808  34.996  30.933  14.354
16483W        W88809   2.474  34.364   4.623
16484W        W88810   0.857  15.618  14.929
16485W        W88811  23.556   4.408  13.540
16486W        W88812  41.538  13.638   4.816
16487W        W88813  20.227  23.876   3.990
16488W        W88814  37.300  15.178   2.319
16489W        W88815  42.963  22.544   3.859
16490W        W88816  35.879   4.380  11.425
16491W        W88817  33.025  22.983   0.319
16492W        W88818  31.407  37.430   3.764
16493W        W88819   8.023  11.462  11.591
16494W        W88820  16.532  22.580  11.422
16495W        W88821  17.406  14.448  13.899
16496W        W88822  19.441   0.308   0.713
16497W        W88823   4.406  20.119  14.360
16498W        W88824  42.444  28.659  10.649
16499W        W88825  20.846  44.683  12.879
16500W        W88826  22.239  28.126   4.751
16501W        W88827   4.817  36.329   1.888
16502W        W88828  31.552  39.082  12.878
16503W        W88829  16.578  34.631  12.908
16504W        W88830  24.197  16.931   2.713
16505W        W88831  30.217  16.098   1.732
16506W        W88832  41.861   7.793  11.234
16507W        W88833  15.672   7.567   4.025
16508W        W88834  24.996  30.711   0.437
16509W        W88835  21.879  24.971   3.563
16510W        W88836  36.929  11.811  13.498
16511W        W88837  29.074  32.862  13.801
16512W        W88838  36.135  13.797   3.319
16513W        W88839  12.594  19.621  11.561
16514W        W88840  35.591  18.230   4.147
16515W        W88841  17.108  40.430   3.425
16516W        W88842  28.218  44.843   4.652
16517W        W88843  21.604   0.400  12.982
16518W        W88844  22.136   7.245   0.248
16519W        W88845  35.760  21.011   2.157
16520W        W88846   7.443   8.102   1.795
16521W        W88847  19.813  11.310   1.914
16522W        W88848  22.014  13.658  10.571
16523W        W88849  38.035  39.563  13.492
16524W        W88850  33.532  13.148   3.897
16525W        W88851   9.415  43.363  12.107
16526W        W88852   4.839  22.180   5.213
16527W        W88853  30.032  35.096  10.748
16528W        W88854  18.160   9.604  14.021
16529W        W88855  40.829  22.605   3.055
16530W        W88856  17.212   3.738  14.947
16531W        W88857  44.105  10.107  13.019
16532W        W88858  27.536  36.041   1.877
16533W        W88859  20.023  10.820   1.777
16534W        W88860  13.185  21.935  13.043
16535W        W88861  16.501   0.908  14.133
16536W        W88862  39.839   0.349  13.550
16537W        W88863  21.188  25.319   0.234
16538W        W88864   7.773   5.178  11.491
16539W        W88865   6.094  13.318  12.618
16540W        W88866  43.573  16.251   4.684
16541W        W88867  15.795  24.563   0.174
16542W        W88868   2.895  44.727  11.954
16543W        W88869  27.592  14.002  11.044
16544W        W88870  42.040  44.972   3.828
16545W        W88871  19.605   3.326   2.389
16546W        W88872   0.792   3.159   5.076
16547W        W88873  40.795  36.809  11.165
16548W        W88874  22.743  23.918   3.258
16549W        W88875   3.042  17.667   2.195
16550W        W88876  36.525  39.590   3.531
16551W        W88877  34.085   3.970  11.986
16552W        W88878  17.653  13.372   1.936
16553W        W88879  30.673   5.919   2.108
16554W        W88880   6.943  33.888   3.786
16555W        W88881   2.890  34.817  14.814
16556W        W88882   4.834  27.427   2.363
16557W        W88883  44.268  23.160  10.572
16558W        W88884   3.804   6.879  11.648
16559W        W88885  43.616   2.949  14.264
16560W        W88886  26.556  33.469  12.062
16561W        W88887  44.668  34.335  14.895
16562W        W88888  14.690  20.294   0.910
16563W        W88889   9.171  12.809  11.403
16564W        W88890  40.905  21.590   3.168
16565W        W88891   4.708   3.303  11.654
16566W        W88892  34.934  19.490  11.167
16567W        W88893  37.596  34.349   0.289
16568W        W88894  28.626  37.769   1.845
16569W        W88895  42.774   3.419   4.543
16570W        W88896   5.088  29.297   9.989
16571W        W88897  18.535  20.127  12.490
16572W        W88898  30.186  21.753   1.219
16573W        W88899  28.671  39.898  10.706
16574W        W88900  33.972  44.850   0.331
16575W        W88901  26.404  41.385   1.248
16576W        W88902  13.136   5.441   3.433
16577W        W88903  20.472  29.003  13.129
16578W        W88904  25.600  44.040  11.091
16579W        W88905   8.457   1.463  12.034
16580W        W88906  10.672   1.253  12.007
16581W        W88907  13.908  36.477   4.167
16582W        W88908  37.360  34.448  14.794
16583W        W88909  31.023   5.246   0.753
16584W        W88910  39.874   6.250  13.446
16585W        W88911  20.587  38.555   4.005
16586W        W88912   1.846  17.781   0.244
16587W        W88913  16.348  42.233  12.859
16588W        W88914  36.291   9.292   0.891
16589W        W88915  16.093  33.786  14.395
16590W        W88916   4.373  14.022   4.120
16591W        W88917  24.072  27.948   1.283
16592W        W88918  38.372  29.932  13.981
16593W        W88919   0.361  35.507   3.288
16594W        W88920  19.062  22.862   4.627
16595W        W88921  20.702  34.160  13.081
16596W        W88922   5.878  38.487   0.664
16597W        W88923  14.595  19.002  10.581
16598W        W88924  26.766  38.084  11.417
16599W        W88925   0.172   3.623  13.903
16600W        W88926  28.685  13.613  12.049
16601W        W88927   9.693  32.022   1.684
16602W        W88928  21.077   1.022  10.953
16603W        W88929  17.022  43.903   3.154
16604W        W88930  20.484  43.400   3.322
16605W        W88931   9.309  29.077  12.962
16606W        W88932  39.719  31.659  10.507
16607W        W88933   0.273  42.637  14.095
16608W        W88934   2.522  37.063   3.327
16609W        W88935  35.343   9.378  12.544
16610W        W88936  43.420   6.562  12.727
16611W        W88937  34.384  30.311   3.108
16612W        W88938  31.868  18.568   2.827
16613W        W88939  29.026  14.744   3.864
16614W        W88940  38.069  19.363  10.578
16615W        W88941  38.847  40.369  13.952
16616W        W88942  21.638  38.556  10.197
16617W        W88943  29.667  41.287  12.564
16618W        W88944  25.516   2.921  11.977
16619W        W88945  39.466  39.942   0.426
16620W        W88946  14.670  32.105  14.518
16621W        W88947  15.851  41.121  14.170
16622W        W88948  40.289   9.831   0.152
16623W        W88949   9.319   8.994  12.879
16624W        W88950  31.151  22.109  11.144
16625W        W88951  25.626  11.719   4.924
16626W        W88952  27.056  43.160  10.362
16627W        W88953  39.578  21.062  12.676
16628W        W88954  33.530  19.999  10.762
16629W        W88955  22.353  28.990   3.395
16630W        W88956  44.463  11.324   2.266
16631W        W88957  22.970  43.714  14.242
16632W        W88958   0.963  43.306  12.906
16633W        W88959  44.996   5.815   4.521
16634W        W88960  23.891   8.426  14.585
16635W        W88961  14.483  12.103  14.073
16636W        W88962  12.114  38.558   0.573
16637W        W88963   2.690  40.542  12.508
16638W        W88964  24.549  15.289   9.703
16639W        W88965  30.310   4.183   1.432
16640W        W88966  42.498  35.374  11.007
16641W        W88967  24.554  14.867   3.219
16642W        W88968  20.562  15.734  13.048
16643W        W88969  30.970  30.369  14.692
16644W        W88970  11.091  30.105   1.729
16645W        W88971  23.534  40.503  11.957
16646W        W88972  32.149  44.051   4.120
16647W        W88973  23.154  23.882  13.449
16648W        W88974  17.916  34.574   2.213
16649W        W88975  24.376   7.712  11.093
16650W        W88976   9.325  44.123   2.288
16651W        W88977  35.811   5.861   3.196
16652W        W88978  23.063   0.551   1.718
16653W        W88979  27.480   1.500  12.309
16654W        W88980  37.786  20.542   2.642
16655W        W88981   8.574  33.906  11.910
16656W        W88982  43.335   4.967   4.281
16657W        W88983  32.350  10.789   0.916
16658W        W88984  44.575   1.728  12.841
16659W        W88985  35.018   7.256  13.534
16660W        W88986  14.033  36.974   4.105
16661W        W88987  24.641  15.369   3.346
16662W        W88988  25.540   8.842  11.596
16663W        W88989   8.684  39.265  11.539
16664W        W88990  21.400  20.774  13.371
16665W        W88991  39.539  18.000   0.725
16666W        W88992   9.048  38.006   2.196
16667W        W88993   5.668   3.928   2.830
16668W        W88994  26.166  37.881  12.977
16669W        W88995   9.620  20.594   2.336
16670W        W88996  26.525  32.156   4.198
16671W        W88997   1.343  19.497   2.586
16672W        W88998  11.260   5.378  14.095
16673W        W88999  15.066   8.716   3.644
16674W        W89000  40.381  25.274  11.365
16675W        W89001  18.672  36.534  11.555
16676W        W89002  34.123  23.041   2.232
16677W        W89003  26.070  15.335  11.022
16678W        W89004  11.375  11.281  11.993
16679W        W89005  43.305   2.356  11.513
16680W        W89006  13.052  16.109  12.930
16681W        W89007   8.392  40.529   4.808
16682W        W89008   3.182  22.032  10.636
16683W        W89009  15.824  15.569   1.821
16684W        W89010   1.350  37.396   0.951
16685W        W89011  30.664  29.674   3.757
16686W        W89012  10.446  40.873   1.293
16687W        W89013  42.243  31.855   4.996
16688W        W89014   3.750  31.130  10.566
16689W        W89015   5.127  39.956  10.339
16690W        W89016  35.830  30.427   0.321
16691W        W89017  19.796  27.246   1.107
16692W        W89018  10.377  21.181   3.200
16693W        W89019  13.560  10.080   0.072
16694W        W89020  42.935  18.394  14.831
16695W        W89021  43.265  27.634   4.054
16696W        W89022  35.078  41.849   2.628
16697W        W89023   6.163   1.856  11.178
16698W        W89024  42.408  37.577  11.613
16699W        W89025  21.022   6.224  11.542
16700W        W89026   6.919  11.635  14.371
16701W        W89027   8.763  30.217  14.322
16702W        W89028  39.806  12.350  14.145
16703W        W89029  32.878  30.662   0.206
16704W        W89030  12.768  13.734  12.642
16705W        W89031  41.297  39.856  11.678
16706W        W89032  15.129  31.427   3.557
16707W        W89033  34.822   4.620   2.877
16708W        W89034  13.188   2.503   3.619
16709W        W89035  18.764  22.417  14.000
16710W        W89036   4.354  20.548  13.575
16711W        W89037   4.900  14.817  14.752
16712W        W89038  39.823   3.729   2.316
16713W        W89039  22.547   4.970   1.815
16714W        W89040  12.045   3.042   5.225
16715W        W89041   3.719  44.280   3.596
16716W        W89042  15.878  41.552  14.463
16717W        W89043  34.618  21.175  12.081
16718W        W89044  11.060  11.268   1.312
16719W        W89045  42.337   7.323   3.238
16720W        W89046  10.340  17.660  12.229
16721W        W89047   0.216  40.487   2.241
16722W        W89048   5.786  13.870   4.380
16723W        W89049  29.957  31.958  13.114
16724W        W89050  17.509  16.372  14.318
16725W        W89051  40.238  14.451  10.113
16726W        W89052   0.821  11.775  10.675
16727W        W89053  24.297  43.619  13.052
16728W        W89054   5.436   7.220  11.847
16729W        W89055   5.215  37.038  14.064
16730W        W89056  16.620  43.018   0.290
16731W        W89057  33.479  19.641   2.356
16732W        W89058   5.781  32.254  14.839
16733W        W89059   4.271  22.149   2.420
16734W        W89060  11.138   0.941  10.797
16735W        W89061   9.180  23.282  11.106
16736W        W89062   5.236  41.059  12.967
16737W        W89063  30.443  16.592  12.794
16738W        W89064  25.794   0.948   0.853
16739W        W89065  40.326  28.432   4.733
16740W        W89066   8.121  39.654  12.385
16741W        W89067  27.948  42.122   3.240
16742W        W89068  17.131  26.930  12.800
16743W        W89069  33.769  18.127   0.965
16744W        W89070  17.531  21.058   1.088
16745W        W89071  22.529  23.071   0.859
16746W        W89072  41.685  39.916  14.461
16747W        W89073  40.846  35.679  14.518
16748W        W89074  21.351  26.642  11.494
16749W        W89075  36.878  33.636  13.419
16750W        W89076  10.656   5.816  14.576
16751W        W89077   4.671  39.167  12.871
16752W        W89078  38.678  37.578   5.008
16753W        W89079  27.226   7.215   3.320
16754W        W89080  44.716   0.328  11.441
16755W        W89081  17.837  29.981  14.857
16756W        W89082  39.839   1.716  13.552
16757W        W89083  20.577  28.131   1.822
16758W        W89084  14.302  33.156   0.342
16759W        W89085  28.507  22.610  14.309
16760W        W89086   0.210  38.459   1.371
16761W        W89087   8.398  23.786   2.380
16762W        W89088  14.347   9.113   3.493
16763W        W89089  22.099  35.762  12.483
16764W        W89090  13.731  42.297  11.570
16765W        W89091  24.127  19.064  10.928
16766W        W89092  36.437  44.009   3.300
16767W        W89093  21.651  39.134   1.379
16768W        W89094  38.594  35.637   2.204
16769W        W89095  19.622   3.913   3.763
16770W        W89096   5.926   0.451   1.242
16771W        W89097  15.701  27.120  11.047
16772W        W89098   9.387  27.401   3.596
16773W        W89099  40.931  12.252  11.836
16774W        W89100  13.267  29.907   4.417
16775W        W89101   0.422  13.634  11.368
16776W        W89102  15.341  16.374   4.190
16777W        W89103   0.959  43.081  14.474
16778W        W89104  32.072  11.222  11.457
16779W        W89105  29.687  18.819   3.217
16780W        W89106   3.097  17.041  11.328
16781W        W89107  23.265  10.592   4.520
16782W        W89108  21.385  26.027   3.835
16783W        W89109  35.367  22.133  13.361
16784W        W89110  41.358  42.115  12.568
16785W        W89111  31.466  14.667  12.133
16786W        W89112  30.182   4.890   3.630
16787W        W89113  32.982  14.206  12.668
16788W        W89114  38.903  40.419  12.065
16789W        W89115  16.833  28.422   3.120
16790W        W89116   9.673  25.128   1.149
16791W        W89117  23.866  21.149   1.405
16792W        W89118  32.191  16.232  10.707
16793W        W89119   1.895   5.998   0.049
16794W        W89120   1.678  16.297   1.626
16795W        W89121  43.400  34.486   5.691
16796W        W89122  30.677  22.537  12.582
16797W        W89123   7.153  23.943  13.539
16798W        W89124  42.060  31.647  11.156
16799W        W89125  37.370   3.522  13.466
16800W        W89126  40.936  42.416   0.384
16801W        W89127  28.666  19.004   2.762
16802W        W89128  24.382  19.270   4.319
16803W        W89129   8.605  17.059  12.775
16804W        W89130  23.132  39.460   2.285
16805W        W89131   3.229  20.158   4.670
16806W        W89132   3.437  14.703   1.986
16807W        W89133  27.019  15.362   0.883
16808W        W89134   0.780   0.976   4.634
16809W        W89135  25.771   9.408  13.409
16810W        W89136   4.308  14.252   5.034
16811W        W89137  32.958  39.703   0.296
16812W        W89138  13.305  20.713  13.869
16813W        W89139   9.120  43.379  13.435
16814W        W89140  27.647  21.492   2.474
16815W        W89141  20.565  40.597  13.294
16816W        W89142   2.274  10.631  10.598
16817W        W89143  20.109   0.758  11.133
16818W        W89144  38.452   9.622   2.868
16819W        W89145  32.991   9.183   4.578
16820W        W89146  39.040  31.106  13.765
16821W        W89147  31.890  16.657  13.087
16822W        W89148  27.617  31.555  12.356
16823W        W89149  42.414   6.951   2.194
16824W        W89150   2.393  31.139  11.572
16825W        W89151  36.033  44.656   0.656
16826W        W89152  11.684  18.664  10.480
16827W        W89153  35.502   8.736  14.420
16828W        W89154  12.648  26.946   0.919
16829W        W89155  43.368  16.246   0.263
16830W        W89156  15.075   4.994  12.515
16831W        W89157  22.167  29.916   3.095
16832W        W89158  42.851  36.016  12.182
16833W        W89159  33.149  15.071  10.444
16834W        W89160  25.556   4.686  10.985
16835W        W89161  21.264  32.952   0.396
16836W        W89162  35.495   8.422   4.109
16837W        W89163  40.707  29.523  11.229
16838W        W89164  43.697  36.100   3.556
16839W        W89165  38.359   6.714   0.756
16840W        W89166  20.111  17.689   4.042
16841W        W89167  35.336  43.487  11.057
16842W        W89168  16.761  17.527   4.741
16843W        W89169  32.666  16.325   4.448
16844W        W89170  34.874   9.112  13.692
16845W        W89171   6.665  41.399  11.373
16846W        W89172  12.365  24.942   3.790
16847W        W89173  17.286  33.017   1.804
16848W        W89174  36.089  19.679   4.917
16849W        W89175  28.910  26.112  10.509
16850W        W89176   8.786   3.803   0.205
16851W        W89177  25.255  12.183  12.435
16852W        W89178   9.485   1.892  12.517
16853W        W89179  22.611   7.733   4.160
16854W        W89180  26.546  41.849   0.316
16855W        W89181  26.708  38.880  13.156
16856W        W89182  23.329  15.158  14.909
16857W        W89183  16.204  31.970   2.871
16858W        W89184  18.218   1.281  13.816
16859W        W89185   5.783  44.031   4.194
16860W        W89186  21.294   3.275  14.325
16861W        W89187   9.381  22.633  13.352
16862W        W89188  30.365  40.035  13.339
16863W        W89189  33.123  17.226  10.545
16864W        W89190  41.881   1.431   1.728
16865W        W89191  25.020  27.917  13.898
16866W        W89192  26.439  20.055   4.059
16867W        W89193  11.145  35.265  12.567
16868W        W89194  44.622  11.607  10.974
16869W        W89195  31.470  22.815  14.964
16870W        W89196   8.814  17.176   0.413
16871W        W89197  25.915  42.560  13.136
16872W        W89198  27.384  23.257   2.264
16873W        W89199  31.491  15.554   3.108
16874W        W89200  25.672  37.059   2.614
16875W        W89201  23.782   8.247  14.113
16876W        W89202  11.288   6.458   1.137
16877W        W89203  12.785   1.335   3.808
16878W        W89204  26.450   9.757  13.821
16879W        W89205  20.077  36.408  12.944
16880W        W89206   9.839   8.848  14.323
16881W        W89207  19.914   3.161  14.698
16882W        W89208  10.647  20.736   2.400
16883W        W89209  42.561  44.435   5.012
16884W        W89210  12.548   6.479  10.966
16885W        W89211  24.489  19.634   3.532
16886W        W89212  24.967   2.818   1.338
16887W        W89213  22.998  30.614   4.928
16888W        W89214  32.978  27.835  13.503
16889W        W89215  15.896  42.060  11.124
16890W        W89216  36.350  35.366   2.001
16891W        W89217  42.733  42.504   1.237
16892W        W89218   9.726  40.942   3.378
16893W        W89219  20.271  31.079  13.515
16894W        W89220   9.184  36.622  13.053
16895W        W89221  26.302   1.849  11.108
16896W        W89222  43.660  19.836   3.342
16897W        W89223   4.847   3.777   0.723
16898W        W89224   5.473  43.464   2.298
16899W        W89225   5.221  34.540  13.351
16900W        W89226  38.058  18.124   2.197
16901W        W89227  34.506  31.637  14.141
16902W        W89228  11.875  22.786   0.890
16903W        W89229  11.671   4.928   1.776
16904W        W89230  38.027   3.797  11.084
16905W        W89231  40.359   0.268  12.392
16906W        W89232  31.434   4.850   1.934
16907W        W89233  17.567  38.305   0.364
16908W        W89234   6.760  38.306  13.256
16909W        W89235   6.229  15.421  14.930
16910W        W89236  39.851  29.221  11.568
16911W        W89237  25.754   7.457  14.773
16912W        W89238  14.705  21.322  13.877
16913W        W89239  26.902   4.648  11.305
16914W        W89240   5.855   5.618   4.069
16915W        W89241  16.185   9.962  13.593
16916W        W89242  16.516  27.613   2.338
16917W        W89243   1.830  34.668  13.850
16918W        W89244  27.930  13.209   2.843
16919W        W89245  23.851  15.203  13.455
16920W        W89246  26.385  18.045   4.727
16921W        W89247  31.102  28.855   1.433
16922W        W89248   2.156  15.675   3.700
16923W        W89249  40.344  32.369  11.467
16924W        W89250  38.894  16.636   4.153
16925W        W89251  30.272  16.501   0.196
16926W        W89252  22.761  16.221  11.412
16927W        W89253   5.456  41.343  13.347
16928W        W89254  26.571  23.799   4.538
16929W        W89255  16.605  29.989   4.397
16930W        W89256   1.412  14.618   4.954
16931W        W89257   9.258  10.413   3.738
16932W        W89258   7.681  11.008  13.285
16933W        W89259  35.088   3.276   4.066
16934W        W89260   3.433  17.354  13.864
16935W        W89261  37.064  10.716   2.275
16936W        W89262  24.518  34.937  12.560
16937W        W89263   7.430  11.574  12.431
16938W        W89264  28.109  22.916   0.903
16939W        W89265  37.400  16.828  14.335
16940W        W89266   7.364  22.518   1.633
16941W        W89267  23.795  35.149   3.356
16942W        W89268  32.651  42.950  10.622
16943W        W89269  43.241  16.620   1.793
16944W        W89270  17.803  23.977   1.383
16945W        W89271  17.330  20.267   2.777
16946W        W89272   7.614   3.497   9.885
16947W        W89273   1.900  19.805   0.097
16948W        W89274  30.437  28.819  11.906
16949W        W89275  14.659  18.788   3.651
16950W        W89276  34.143  14.131   2.359
16951W        W89277  10.115   8.105   0.763
16952W        W89278  19.120   8.377  11.217
16953W        W89279  40.872   8.571   1.367
16954W        W89280   0.760  35.962   0.199
16955W        W89281  10.216  31.075  13.431
16956W        W89282  14.928  40.519  13.350
16957W        W89283   7.048  31.543   3.690
16958W        W89284  22.172  19.336  10.625
16959W        W89285  39.780   8.621  14.404
16960W        W89286  28.835  37.618  11.495
16961W        W89287   6.467   5.037   2.714
16962W        W89288  27.690   5.244  13.109
16963W        W89289  21.065  37.774  11.576
16964W        W89290  28.168   5.796   2.745
16965W        W89291   1.243  39.517   2.429
16966W        W89292   3.411   9.511   2.194
16967W        W89293  28.710  10.964   3.652
16968W        W89294   6.293  11.667  12.005
16969W        W89295   1.458   2.184   3.902
16970W        W89296  27.058   7.175   1.299
16971W        W89297  42.541  29.398  13.347
16972W        W89298  36.135  10.690   3.350
16973W        W89299   9.905   9.720  13.911
16974W        W89300  10.796  23.585   0.775
16975W        W89301  20.813  43.190  14.356
16976W        W89302  42.056  17.084   0.281
16977W        W89303  21.501   9.983   4.140
16978W        W89304  39.270  35.991  10.876
16979W        W89305  15.410  29.447  11.599
16980W        W89306  35.939  39.357  10.676
16981W        W89307  36.933  35.813   3.225
16982W        W89308  16.754  17.444   2.888
16983W        W89309  24.768  33.529   2.702
16984W        W89310  28.932  33.120  14.238
16985W        W89311  20.677  43.840   3.893
16986W        W89312  13.093  37.334  10.183
16987W        W89313  18.216  11.391   4.813
16988W        W89314   6.659  35.420   4.302
16989W        W89315  15.722  35.418  14.203
16990W        W89316  13.656  37.044   1.714
16991W        W89317  21.779  36.801   0.860
16992W        W89318  36.466  24.220   0.850
16993W        W89319  22.462  25.978  12.859
16994W        W89320  44.967  33.081   2.154
16995W        W89321  33.803  34.583  11.018
16996W        W89322  16.095  16.809  11.193
16997W        W89323  21.779  42.338   3.729
16998W        W89324  38.867  10.357  14.386
16999W        W89325  13.031  30.468  12.638
17000W        W89326  21.594   2.430   0.256
17001W        W89327   8.889  22.444  13.057
17002W        W89328  40.768  36.065   1.260
17003W        W89329  39.240  41.628  12.269
17004W        W89330   4.747   8.740   2.351
17005W        W89331  13.204  38.413   4.495
17006W        W89332  16.422  43.136   4.154
17007W        W89333   6.284  31.709  14.051
17008W        W89334  11.808   0.536  13.765
17009W        W89335  31.827  21.329  11.083
17010W        W89336  12.492  17.215  13.593
17011W        W89337   3.548  27.498  14.114
17012W        W89338  15.222  43.282   3.276
17013W        W89339   8.832   1.365   1.084
17014W        W89340  14.718   5.115   4.619
17015W        W89341  14.178  27.211   0.422
17016W        W89342  43.018  22.524   1.535
17017W        W89343  12.037  36.016   0.927
17018W        W89344   5.069   5.835   1.793
17019W        W89345  42.469  13.536  10.366
17020W        W89346  26.003  20.555   0.815
17021W        W89347  24.521   0.877   0.249
17022W        W89348  36.163  37.806  14.387
17023W        W89349  12.856  27.354  12.385
17024W        W89350  23.719  27.612  11.168
17025W        W89351  44.276  38.844   5.062
17026W        W89352  15.746  13.294   0.417
17027W        W89353  24.212   6.161   2.363
17028W        W89354  12.554  38.363  11.981
17029W        W89355   2.451  39.354  11.508
17030W        W89356   4.290  26.711  10.505
17031W        W89357  19.208  18.567   0.337
17032W        W89358  14.723  14.024  10.716
17033W        W89359  28.454  41.126  14.696
17034W        W89360  42.525   3.222   3.161
17035W        W89361  17.730   0.295  12.918
17036W        W89362  35.483   8.722   0.970
17037W        W89363  13.130  40.484  13.962
17038W        W89364   3.772  31.951  12.438
17039W        W89365  25.978  38.953   4.593
17040W        W89366   1.821  35.544  10.427
17041W        W89367  19.588  41.509  14.898
17042W        W89368  22.958  36.932   3.157
17043W        W89369  19.655  25.742  14.649
17044W        W89370  22.181  38.265  12.355
17045W        W89371  30.710  39.856   1.716
17046W        W89372  14.714  35.109   4.551
17047W        W89373  40.386  25.470   2.240
17048W        W89374   6.486   2.840   0.554
17049W        W89375  29.052   9.869  11.579
17050W        W89376  40.916  38.283  11.354
17051W        W89377  39.337  41.678   3.735
17052W        W89378  39.518  39.104   0.956
17053W        W89379  19.603  31.640   2.820
17054W        W89380  21.715  31.615   3.615
17055W        W89381   7.830  33.743  14.993
17056W        W89382  41.284  10.793   3.605
17057W        W89383  27.050  39.685   2.816
17058W        W89384  15.690  15.334  12.128
17059W        W89385  37.282  22.515  14.485
17060W        W89386  22.198   7.710   1.013
17061W        W89387  12.749   9.555  13.485
17062W        W89388   7.230  19.259   3.271
17063W        W89389   3.381  18.787  13.798
17064W        W89390  34.115  22.157  13.918
17065W        W89391   3.451  16.802  13.490
17066W        W89392   3.052  36.356  14.929
17067W        W89393   8.680  12.538  11.653
17068W        W89394  32.913   5.009  13.093
17069W        W89395  20.219  42.390  12.843
17070W        W89396  10.300  15.522   3.662
17071W        W89397  33.169  34.592   0.350
17072W        W89398   7.670  14.215  14.679
17073W        W89399  13.330  31.831   3.627
17074W        W89400  31.864  39.981  12.165
17075W        W89401  12.717   5.154  10.257
17076W        W89402   2.298  26.820   0.008
17077W        W89403  16.605  39.632   1.835
17078W        W89404  21.067   4.264  13.240
17079W        W89405  28.913   0.466   3.377
17080W        W89406  27.456  28.005  12.930
17081W        W89407  18.632  22.134  11.147
17082W        W89408  12.344  32.957   1.317
17083W        W89409  31.727  43.713  11.223
17084W        W89410  35.773  42.071  14.136
17085W        W89411  12.946  12.973   0.515
17086W        W89412  14.804  27.115   5.763
17087W        W89413  20.726   6.699   0.835
17088W        W89414   3.023   6.103  11.985
17089W        W89415  18.125  12.051   3.411
17090W        W89416  22.787  34.961  12.121
17091W        W89417  38.231   6.223  11.637
17092W        W89418   8.401  23.638   2.883
17093W        W89419  20.030   3.831   1.799
17094W        W89420  23.167   0.075  11.887
17095W        W89421  12.492  30.261  11.453
17096W        W89422  19.254  41.390   4.933
17097W        W89423   4.791  34.003  14.285
17098W        W89424  12.543  42.054  14.935
17099W        W89425   7.705  37.516  11.647
17100W        W89426  12.331   3.449  12.103
17101W        W89427  28.163  12.396   1.259
17102W        W89428  37.145  32.100   0.997
17103W        W89429  31.052  30.379   1.893
17104W        W89430  17.752   2.206  11.071
17105W        W89431  24.816   6.974  12.920
17106W        W89432  12.625  10.393  13.853
17107W        W89433  43.254  15.671   1.969
17108W        W89434  41.227  25.227  10.936
17109W        W89435   3.947   1.460   3.632
17110W        W89436  24.779  21.208   3.638
17111W        W89437   3.188  35.186   3.267
17112W        W89438  42.393  32.348   0.483
17113W        W89439  15.909  44.048   0.707
17114W        W89440  15.754   0.911  13.853
17115W        W89441  34.442  18.547   3.299
17116W        W89442  25.166   7.720   2.472
17117W        W89443  23.737  43.263   1.782
17118W        W89444  34.505  38.289  13.795
17119W        W89445  10.721  17.699   4.645
17120W        W89446  11.729  36.612  13.982
17121W        W89447   6.263  34.203  12.403
17122W        W89448  28.477   6.353   1.303
17123W        W89449  24.213  40.266   2.680
17124W        W89450  20.101  30.558  11.196
17125W        W89451  23.241  34.837   3.768
17126W        W89452  26.015  10.380  10.688
17127W        W89453  14.705  19.568   3.201
17128W        W89454  35.378  10.697  13.568
17129W        W89455  22.671  23.480   1.431
17130W        W89456  20.528  34.524   4.285
17131W        W89457  23.563  30.536   3.587
17132W        W89458  13.425  35.647  10.262
17133W        W89459  26.896  39.757  12.100
17134W        W89460  34.363  10.248   4.614
17135W        W89461  23.516  41.866  12.535
17136W        W89462   5.879   2.729  10.636
17137W        W89463  22.108   5.458   3.712
17138W        W89464  37.998   1.972   1.257
17139W        W89465  36.092   3.202   1.821
17140W        W89466  15.219  14.540  13.039
17141W        W89467  39.065  12.167  12.988
17142W        W89468  25.602  30.090   4.249
17143W        W89469  35.510   2.655   1.277
17144W        W89470  41.862  23.890   0.365
17145W        W89471   7.564  32.914  11.193
17146W        W89472  32.606  24.451   2.285
17147W        W89473  12.820  22.745   3.126
17148W        W89474  29.441  15.796   2.130
17149W        W89475  25.200  15.432  13.082
17150W        W89476   9.820  39.983  12.891
17151W        W89477  40.781  12.575   3.728
17152W        W89478  18.117  24.725  13.213
17153W        W89479  22.694  18.340   0.546
17154W        W89480  19.494  31.060   2.824
17155W        W89481  35.344  39.883   3.198
17156W        W89482   5.258  13.379  13.811
17157W        W89483  16.177   8.839  14.790
17158W        W89484   7.887   9.372   1.581
17159W        W89485  35.870  21.225   0.894
17160W        W89486  39.366  38.524   2.362
17161W        W89487  36.886  38.774   2.207
17162W        W89488   0.668  32.594   0.234
17163W        W89489  12.327   0.998   3.217
17164W        W89490  10.053  10.183   2.465
17165W        W89491  21.599  20.309   0.888
17166W        W89492   7.625  38.482  13.523
17167W        W89493  16.253  11.676   1.402
17168W        W89494   9.191  33.594  13.510
17169W        W89495  17.415  42.571   9.987
17170W        W89496  24.974  17.006  12.586
17171W        W89497  31.915   0.431   3.375
17172W        W89498   1.775  26.179  10.423
17173W        W89499  36.461  16.671   1.376
17174W        W89500  23.637  34.642  12.058
17175W        W89501   8.947   3.363   2.744
17176W        W89502  20.714  42.332   1.843
17177W        W89503  20.634  12.738  14.277
17178W        W89504   1.982  24.514   2.326
17179W        W89505  37.844  41.209   0.282
17180W        W89506  10.448  37.996  12.440
17181W        W89507  34.368  44.492  14.083
17182W        W89508  17.832  16.776   2.275
17183W        W89509  38.917  33.602   4.144
17184W        W89510  42.177  16.020  14.395
17185W        W89511  14.001  17.788   2.824
17186W        W89512   0.475   0.176  11.261
17187W        W89513  16.015  17.049   0.047
17188W        W89514  43.271   8.361   0.808
17189W        W89515  40.003  38.880   0.146
17190W        W89516   3.753   0.951  13.012
17191W        W89517  16.516  19.709  12.945
17192W        W89518  44.746  28.570  12.847
17193W        W89519   7.587  22.084   0.557
17194W        W89520  16.335  14.539   3.254
17195W        W89521  29.448   7.081  11.435
17196W        W89522   6.407  43.558  10.995
17197W        W89523  13.401   2.893   4.887
17198W        W89524  16.820   3.052   2.370
17199W        W89525   4.767   7.750  14.385
17200W        W89526  33.918  31.410  13.624
17201W        W89527  44.959  41.888  13.433
17202W        W89528  25.117  10.375   1.289
17203W        W89529   5.406  26.163   3.284
17204W        W89530  31.366   2.317   4.809
17205W        W89531  29.686  25.627   1.304
17206W        W89532  38.469  14.862   1.425
17207W        W89533  43.900  40.275  14.926
17208W        W89534  22.234  17.133   0.813
17209W        W89535  43.754  10.381  14.451
17210W        W89536  27.928  32.389  12.649
17211W        W89537  44.433  40.819  10.697
17212W        W89538   6.165  23.800   2.262
17213W        W89539   1.460   0.072   3.362
17214W        W89540   9.394  21.219   3.131
17215W        W89541  28.966   0.124   3.828
17216W        W89542  39.116  28.145   0.651
17217W        W89543  37.514  16.821  10.622
17218W        W89544   4.842  32.143   0.261
17219W        W89545  13.860  26.702  12.509
17220W        W89546   0.798  29.919  14.833
17221W        W89547  29.400  41.807   4.988
17222W        W89548  17.976  30.871  11.983
17223W        W89549  31.059  24.947   1.373
17224W        W89550   6.781  44.964  13.394
17225W        W89551   9.583   7.211  14.909
17226W        W89552  25.771  22.722   1.189
17227W        W89553  21.582  34.615  11.083
17228W        W89554  38.025  19.001  10.970
17229W        W89555  40.866  44.902   3.947
17230W        W89556   6.197  22.468  12.079
17231W        W89557  24.158  17.598   2.007
17232W        W89558   7.711  27.942  12.863
17233W        W89559   0.986  21.128  11.989
17234W        W89560   8.197  12.240  14.052
17235W        W89561  21.789  33.517   4.162
17236W        W89562  12.804   2.166   4.229
17237W        W89563   1.449  34.394   3.880
17238W        W89564  15.181  12.633  13.373
17239W        W89565  20.383   7.249   4.987
17240W        W89566  22.990  26.270   2.168
17241W        W89567  23.405  34.190   4.889
17242W        W89568  15.698  36.393   0.043
17243W        W89569  21.640  34.037   2.197
17244W        W89570  42.946  31.166  13.996
17245W        W89571  40.747  39.434   2.284
17246W        W89572  19.584  25.124   4.573
17247W        W89573  39.590  11.622  14.368
17248W        W89574   2.760   2.258   3.728
17249W        W89575  22.276   3.331  14.380
17250W        W89576  37.820  33.401  12.021
17251W        W89577  17.254  16.271   3.735
17252W        W89578  35.433  30.621   0.019
17253W        W89579  39.246  36.155  11.356
17254W        W89580  24.069  39.861   0.266
17255W        W89581   5.211   7.448  14.854
17256W        W89582  19.730  38.277  14.855
17257W        W89583  41.092  12.491  13.998
17258W        W89584  37.345  32.131  14.087
17259W        W89585  14.566   5.691   1.437
17260W        W89586   4.916  39.322  10.728
17261W        W89587   0.844  40.760   2.746
17262W        W89588   7.820   6.451   3.925
17263W        W89589  24.771  15.839   2.229
17264W        W89590  12.847  32.140  10.688
17265W        W89591   3.802  33.402   1.319
17266W        W89592  21.077  19.506   1.051
17267W        W89593   3.792  39.507   4.668
17268W        W89594  12.873   8.727  11.018
17269W        W89595  28.224  17.170   2.713
17270W        W89596  12.859  16.606  13.427
17271W        W89597   0.772  26.515  11.732
17272W        W89598  21.013  13.335  13.036
17273W        W89599   6.901  32.034  10.458
17274W        W89600  30.628  27.743   1.693
17275W        W89601  19.605  16.118  10.787
17276W        W89602  33.989  32.384  13.305
17277W        W89603  20.279  43.402   0.943
17278W        W89604  25.619  37.446   2.268
17279W        W89605  22.535   8.539   3.123
17280W        W89606  43.602  15.626  12.433
17281W        W89607  29.444  23.022   1.645
17282W        W89608  44.503  43.709  11.205
17283W        W89609  32.999   1.118  14.327
17284W        W89610  41.621  24.675  14.855
17285W        W89611  10.803  20.897  11.556
17286W        W89612  24.255   5.172  13.527
17287W        W89613  10.594  23.237   3.648
17288W        W89614  12.726  17.794  14.080
17289W        W89615  12.350  42.984   0.325
17290W        W89616  13.216   1.310   2.351
17291W        W89617   9.324  25.547  13.588
17292W        W89618   4.683  37.927  14.166
17293W        W89619  15.291  26.026   1.646
17294W        W89620  29.906  34.925   2.511
17295W        W89621  27.206  42.994   3.331
17296W        W89622  11.253  32.952  11.975
17297W        W89623  34.163  17.644   4.229
17298W        W89624   7.424  44.066  14.083
17299W        W89625  21.308  17.803   3.320
17300W        W89626  15.702  34.549   4.837
17301W        W89627   9.918   5.193  14.374
17302W        W89628  17.175  24.727  14.460
17303W        W89629  24.939  14.519   4.084
17304W        W89630  11.567  23.070  12.447
17305W        W89631  42.734  22.962   1.605
17306W        W89632  23.248  14.412   5.351
17307W        W89633   9.181  11.280  11.110
17308W        W89634  24.183   5.882  11.405
17309W        W89635   3.850  38.903  10.054
17310W        W89636   8.638  40.443  13.944
17311W        W89637   4.429   3.422   3.831
17312W        W89638  24.054  42.309  14.833
17313W        W89639  43.236   6.350  12.243
17314W        W89640  15.219  12.612   0.415
17315W        W89641  12.758   7.698   1.311
17316W        W89642  27.443  36.309   0.754
17317W        W89643  29.193  44.100  10.843
17318W        W89644  22.394  14.208   2.792
17319W        W89645  19.811  13.241   0.021
17320W        W89646   3.331  34.692  11.107
17321W        W89647  10.377  10.414   2.803
17322W        W89648  10.986  24.464   0.901
17323W        W89649  33.859   1.945  12.031
17324W        W89650  33.209  31.738  10.402
17325W        W89651  44.441  17.065   0.506
17326W        W89652  22.514  24.503  13.321
17327W        W89653  43.000  26.890   3.831
17328W        W89654  28.824  15.141   2.237
17329W        W89655   2.941  18.146  11.222
17330W        W89656  13.591   0.911   1.346
17331W        W89657  41.568  36.424   0.180
17332W        W89658  28.129   1.949  10.800
17333W        W89659  15.132   6.720   0.553
17334W        W89660  40.859  38.403  12.310
17335W        W89661  16.648  41.451   1.322
17336W        W89662  32.088  24.506  14.961
17337W        W89663  36.356   1.965  10.328
17338W        W89664  39.352  22.083   2.269
17339W        W89665  24.972  42.320  11.914
17340W        W89666  27.162  42.223  14.571
17341W        W89667  22.884  27.712   4.048
17342W        W89668  37.611  21.240   1.164
17343W        W89669  10.795  43.389   1.087
17344W        W89670  19.634  43.727   4.215
17345W        W89671  24.751  38.988   4.229
17346W        W89672   9.261   0.717   1.893
17347W        W89673  44.343  28.194   4.447
17348W        W89674  12.596  37.784  14.325
17349W        W89675  10.442  38.570  11.639
17350W        W89676  16.817  43.010  12.871
17351W        W89677  44.369  20.628   2.455
17352W        W89678  22.030  29.211  14.752
17353W        W89679  33.609  27.894   3.659
17354W        W89680  10.395  16.135   3.416
17355W        W89681  39.059  15.606  13.520
17356W        W89682   9.946  40.811   2.250
17357W        W89683   2.754  33.538  14.064
17358W        W89684  38.318  30.109   0.027
17359W        W89685  24.295  38.788  10.226
17360W        W89686  36.971  17.126   3.369
17361W        W89687  27.147  44.348  11.879
17362W        W89688  16.623  24.172   2.967
17363W        W89689  15.299   4.769   0.318
17364W        W89690  28.968  20.502   2.751
17365W        W89691   0.192  31.098  10.731
17366W        W89692  15.191  25.080  14.080
17367W        W89693  16.243  26.533  11.586
17368W        W89694   5.489  15.415  14.123
17369W        W89695   8.401  43.296  11.521
17370W        W89696  42.472  32.711  13.287
17371W        W89697  34.553   7.682   1.022
17372W        W89698  15.021  14.217   1.873
17373W        W89699   8.617  14.633  14.767
17374W        W89700  21.991  39.512  10.499
17375W        W89701  34.030  24.541   2.327
17376W        W89702  24.429  42.406   0.652
17377W        W89703   1.196  41.517   2.353
17378W        W89704   8.613   5.593   3.628
17379W        W89705  29.383  17.592   0.879
17380W        W89706  43.580  24.940   4.915
17381W        W89707  22.724  42.072   2.135
17382W        W89708   6.154  17.849   5.092
17383W        W89709  34.515  16.295   4.162
17384W        W89710  34.846  10.232   3.213
17385W        W89711  21.727  26.779   3.768
17386W        W89712  30.060  14.903  12.041
17387W        W89713  13.704  43.730   3.399
17388W        W89714  37.911  39.885  14.592
17389W        W89715   7.468   2.292  11.309
17390W        W89716  44.008  28.606  10.430
17391W        W89717  18.307  38.526  12.347
17392W        W89718  10.691  40.580   0.844
17393W        W89719  19.995   5.325  14.834
17394W        W89720  15.228  33.039   2.349
17395W        W89721  43.750  18.198   2.247
17396W        W89722   2.056  25.610  14.314
17397W        W89723  41.383  24.230   2.785
17398W        W89724  40.444   0.943   4.837
17399W        W89725  24.569   6.152  13.905
17400W        W89726   9.850  39.391   1.384
17401W        W89727  25.915  34.714  12.029
17402W        W89728  34.973  15.689   2.438
17403W        W89729  12.162  28.940  13.455
17404W        W89730   2.435  17.101   3.084
17405W        W89731  16.026  41.574   1.939
17406W        W89732  35.131  43.780  13.967
17407W        W89733  13.330  13.761   2.121
17408W        W89734   0.373  28.417   3.909
17409W        W89735  18.292   9.172  14.903
17410W        W89736  23.028  37.422  10.998
17411W        W89737  22.598   7.344  12.573
17412W        W89738   3.265  32.858  12.981
17413W        W89739   7.905  26.667  10.080
17414W        W89740  43.155  31.601   0.481
17415W        W89741  33.542  19.196  14.044
17416W        W89742  13.608  12.807  14.785
17417W        W89743   9.133  20.977  14.331
17418W        W89744  13.901  18.576   2.281
17419W        W89745  24.139  17.854   0.233
17420W        W89746  29.008   0.034  14.844
17421W        W89747  42.312  41.408   1.452
17422W        W89748  29.107  42.121   2.202
17423W        W89749  12.714  40.498   2.449
17424W        W89750   6.399  12.630  11.954
17425W        W89751  10.640  40.958   0.011
17426W        W89752  12.165  19.321   1.420
17427W        W89753  33.703  37.365   1.906
17428W        W89754  23.129  12.080  12.050
17429W        W89755   9.749  12.796  10.675
17430W        W89756  24.388  32.781   2.678
17431W        W89757  14.727  19.334  11.517
17432W        W89758  13.135  37.295   3.325
17433W        W89759   3.360  20.060   4.160
17434W        W89760   9.808  40.723  14.468
17435W        W89761   0.645   5.446  11.682
17436W        W89762  10.085  28.675   4.718
17437W        W89763  21.276  43.528  11.970
17438W        W89764  14.406  41.269  11.632
17439W        W89765  26.912  30.384   1.541
17440W        W89766   4.452  10.244  11.194
17441W        W89767  30.778  35.085  13.918
17442W        W89768   3.270   1.530  13.530
17443W        W89769  20.304  16.247  13.781
17444W        W89770  27.994   0.778   1.806
17445W        W89771  12.909  42.965  10.894
17446W        W89772  40.499  44.294   1.778
17447W        W89773   5.272  36.360  11.591
17448W        W89774  14.254   3.416   3.748
17449W        W89775  31.440   0.423   0.813
17450W        W89776  11.303  27.883  14.867
17451W        W89777  18.400   4.281   3.250
17452W        W89778  18.992   3.597   4.736
17453W        W89779  36.719  35.070   2.785
17454W        W89780  35.140   0.897  10.553
17455W        W89781   3.750  23.910   2.304
17456W        W89782   2.618  38.455   0.811
17457W        W89783  14.559  42.270   0.394
17458W        W89784  25.305   2.900  10.609
17459W        W89785   5.373  35.622   1.903
17460W        W89786  41.853  39.307  11.193
17461W        W89787  26.073  31.978  10.596
17462W        W89788  40.308   9.309   4.315
17463W        W89789   0.039  10.310  13.331
17464W        W89790  33.337  44.260  10.727
17465W        W89791  30.055   0.217   1.774
17466W        W89792  20.325  36.372   3.296
17467W        W89793   0.435  14.674  14.715
17468W        W89794  37.566   0.778   0.409
17469W        W89795  20.563  35.911  13.888
17470W        W89796  18.852  41.507   2.304
17471W        W89797  22.026  41.890   0.810
17472W        W89798  11.570   1.230  11.068
17473W        W89799  17.624   3.624   2.694
17474W        W89800   7.932  14.527  13.582
17475W        W89801  18.012  21.301  12.764
17476W        W89802  16.301  43.050  12.886
17477W        W89803  21.542  16.157  13.979
17478W        W89804  44.195   1.989   9.755
17479W        W89805   0.205   7.947   1.402
17480W        W89806  21.280   4.148   4.661
17481W        W89807  13.205  30.842  14.032
17482W        W89808   0.286   8.682  10.673
17483W        W89809  31.145  25.385   2.756
17484W        W89810  25.859  31.094   2.208
17485W        W89811  20.797  13.280  12.527
17486W        W89812  17.640  32.205   0.891
17487W        W89813  11.559   6.537   0.360
17488W        W89814   3.321  17.543  10.545
17489W        W89815  18.437   9.999  14.896
17490W        W89816  39.672  42.497   0.391
17491W        W89817  22.215  22.550   1.337
17492W        W89818  14.782  22.534  11.212
17493W        W89819  40.839   5.395   2.712
17494W        W89820   2.880  41.883   3.790
17495W        W89821  43.951  17.402  10.927
17496W        W89822  21.890  23.392   1.479
17497W        W89823  18.840  11.190  13.448
17498W        W89824  24.791   2.467  12.050
17499W        W89825  35.794  31.206   4.016
17500W        W89826  43.347  42.854   0.556
17501W        W89827  30.590  17.534  12.773
17502W        W89828   6.430  16.845   2.296
17503W        W89829  42.284  40.885  11.134
17504W        W89830  22.212   4.296  14.439
17505W        W89831  18.308  44.937  14.866
17506W        W89832  33.733  22.676  13.103
17507W        W89833  23.785   5.755  10.617
17508W        W89834  22.659  27.789   1.355
17509W        W89835  18.089  43.543   4.484
17510W        W89836  44.361  41.781   0.972
17511W        W89837   0.734   3.357  13.888
17512W        W89838  30.353  40.495  12.452
17513W        W89839  34.955  43.996   1.828
17514W        W89840  19.179  20.211  13.062
17515W        W89841  22.726   0.103  13.967
17516W        W89842  30.011  44.401  12.102
17517W        W89843  29.448  39.919   3.813
17518W        W89844  40.833  37.405   2.885
17519W        W89845  16.169  19.273  13.271
17520W        W89846  34.147   7.179  14.249
17521W        W89847  30.224  17.289  14.882
17522W        W89848  12.561  37.541   4.577
17523W        W89849   6.821  35.481  13.348
17524W        W89850  44.581  33.231  11.506
17525W        W89851  29.454  32.270  13.858
17526W        W89852  18.657  23.232   1.427
17527W        W89853  21.928  25.026  13.079
17528W        W89854  20.880  26.041   1.742
17529W        W89855  17.913   4.323   3.074
17530W        W89856  12.767   4.751   3.184
17531W        W89857  34.420  42.763  13.405
17532W        W89858  40.625  29.526   2.781
17533W        W89859  29.317   4.177  11.061
17534W        W89860  12.948  12.655  10.508
17535W        W89861  35.828  36.566  13.883
17536W        W89862   9.694  36.861  12.440
17537W        W89863  28.454  18.540   0.193
17538W        W89864  23.973  13.251  11.059
17539W        W89865   5.318  44.083   2.820
17540W        W89866  34.379  17.698  12.355
17541W        W89867  13.021   3.392  11.632
17542W        W89868  26.324  12.228   4.062
17543W        W89869  35.089   1.780   2.876
17544W        W89870  17.693  40.683   3.839
17545W        W89871  11.322  25.612  10.617
17546W        W89872  19.621  12.290   2.210
17547W        W89873  44.981   8.775   0.442
17548W        W89874  40.915  24.404   0.267
17549W        W89875  15.689  23.621   0.696
17550W        W89876  27.934  26.446   3.676
17551W        W89877  24.171  18.175  10.490
17552W        W89878  36.354  15.599  14.368
17553W        W89879  24.966  15.557   1.830
17554W        W89880  24.790  43.456  13.028
17555W        W89881  33.113   7.760  13.441
17556W        W89882  35.519   1.615  11.958
17557W        W89883  34.677   1.371   3.698
17558W        W89884  35.474  19.018   0.322
17559W        W89885   8.166  11.302  13.446
17560W        W89886  17.625   6.847   2.902
17561W        W89887  37.787  24.618   4.563
17562W        W89888  42.168  21.142   3.149
17563W        W89889  20.311  17.725  14.592
17564W        W89890  32.438  15.261   1.607
17565W        W89891   7.952  13.632  11.493
17566W        W89892  22.594  34.949  14.808
17567W        W89893   2.646  15.098  13.764
17568W        W89894  31.917   5.082  11.041
17569W        W89895   6.300  41.749   3.073
17570W        W89896  41.120   9.053   3.988
17571W        W89897  26.651  44.441  12.499
17572W        W89898   7.801  35.713   1.001
17573W        W89899  10.902  22.500   3.318
17574W        W89900  12.408  33.986  14.490
17575W        W89901  38.574   0.994  12.849
17576W        W89902  28.846   0.499   4.608
17577W        W89903   0.276  34.838   0.804
17578W        W89904  25.699  35.521  12.338
17579W        W89905  10.115  38.736   3.040
17580W        W89906  16.594  13.583  13.464
17581W        W89907  13.072  33.473   2.184
17582W        W89908  22.636  19.085  10.566
17583W        W89909  10.821  24.190  14.021
17584W        W89910  14.684  11.168   2.647
17585W        W89911  20.161   5.330  11.162
17586W        W89912  14.862  17.126  10.355
17587W        W89913  20.624   1.479  11.499
17588W        W89914  32.929  36.088   4.758
17589W        W89915   1.172   5.804  14.524
17590W        W89916  27.167  29.379  13.012
17591W        W89917  10.937  40.703   1.945
17592W        W89918  10.671  12.052   4.757
17593W        W89919  36.366  32.494   4.984
17594W        W89920  32.058   8.406   1.138
17595W        W89921  24.009  21.277   4.140
17596W        W89922  25.229  27.202   4.215
17597W        W89923  38.795  43.884   3.136
17598W        W89924  34.876  30.114   2.288
17599W        W89925  35.656  32.537  13.999
17600W        W89926  40.738  23.175  11.255
17601W        W89927   7.412  27.142  12.552
17602W        W89928  31.912  20.621   1.654
17603W        W89929  28.703  41.765  13.992
17604W        W89930  15.640   4.728  12.588
17605W        W89931  26.570  13.824  13.084
17606W        W89932  38.499  27.569  12.163
17607W        W89933   0.073  28.707  13.486
17608W        W89934  41.601  20.630   1.475
17609W        W89935  25.889   5.838   4.240
17610W        W89936  38.965   5.812   3.077
17611W        W89937  41.087  39.029   2.283
17612W        W89938  10.390  11.475  14.747
17613W        W89939  17.020  12.406  11.632
17614W        W89940  12.122  29.738  13.861
17615W        W89941  40.282   1.533   3.058
17616W        W89942   6.132   1.715   3.274
17617W        W89943  32.696  32.152  12.078
17618W        W89944  24.266  30.123  12.887
17619W        W89945  11.509  34.219  14.014
17620W        W89946  16.206  35.574  14.402
17621W        W89947  14.708  37.998   4.334
17622W        W89948  24.096   2.191   0.190
17623W        W89949   9.537   1.973   0.010
17624W        W89950   2.685  12.807  12.935
17625W        W89951  16.252  39.261   1.863
17626W        W89952  33.636  19.272   4.146
17627W        W89953  15.250  43.189  13.468
17628W        W89954  27.641  39.425  11.066
17629W        W89955  42.725  29.584   2.269
17630W        W89956   8.006  17.568  13.489
17631W        W89957  38.454  21.022   0.662
17632W        W89958  22.526  13.174  10.656
17633W        W89959  40.264   5.438  11.168
17634W        W89960   7.103  32.411   3.181
17635W        W89961   3.525  40.978   3.202
17636W        W89962  19.300   9.713  12.885
17637W        W89963  17.617  25.142  13.532
17638W        W89964  33.522  37.099  13.991
17639W        W89965  32.952   1.933  12.132
17640W        W89966  14.687  22.725  14.737
17641W        W89967  12.231  14.021  13.850
17642W        W89968  29.198  24.588  11.459
17643W        W89969  21.228  17.596  10.885
17644W        W89970   5.675  37.623   0.788
17645W        W89971  27.727  43.113  11.133
17646W        W89972  15.035  25.530  11.784
17647W        W89973  10.205  31.376   4.817
17648W        W89974  35.624  18.644   3.794
17649W        W89975  15.770  34.523   2.773
17650W        W89976  29.410  38.827   1.757
17651W        W89977  12.083  39.267   3.349
17652W        W89978  43.896  30.733  13.477
17653W        W89979   4.277  19.746  11.645
17654W        W89980  15.905  13.267  14.018
17655W        W89981  14.816  12.815  13.874
17656W        W89982   2.194  26.206   2.807
17657W        W89983  41.215   2.758  10.707
17658W        W89984   0.070  21.812   2.444
17659W        W89985  14.770  26.954  14.322
17660W        W89986   3.475  36.593  14.750
17661W        W89987  24.550  32.401   0.528
17662W        W89988  35.902  38.976  14.702
17663W        W89989  22.863  31.934   1.412
17664W        W89990  32.781   9.616   3.121
17665W        W89991   5.444  19.291  11.584
17666W        W89992  38.449  37.046  11.453
17667W        W89993  11.348  33.163  11.494
17668W        W89994  11.153  29.889  11.083
17669W        W89995   3.396  31.671   3.780
17670W        W89996  16.763   9.072   3.374
17671W        W89997  35.476  29.555  11.535
17672W        W89998   2.814  38.946   0.772
17673W        W89999  32.334  34.971   3.703
17674W        W90000  44.918  23.482  11.953
17675W        W90001  12.515  32.454   1.752
17676W        W90002  12.218  15.840   2.197
17677W        W90003  29.962  27.435   2.550
17678W        W90004  39.024  12.927   5.170
17679W        W90005  12.581  31.417   0.820
17680W        W90006  22.840  38.291   2.296
17681W        W90007  12.254   1.518   3.097
17682W        W90008  35.568  42.792   3.290
17683W        W90009   9.802  33.037   3.060
17684W        W90010  44.073  11.093  10.308
17685W        W90011  36.144  33.096  13.277
17686W        W90012  43.841  39.532   3.652
17687W        W90013  29.030   4.976  11.213
17688W        W90014  29.346  36.703   0.300
17689W        W90015  13.294  21.239  13.982
17690W        W90016  42.457  22.259  13.425
17691W        W90017  39.358   4.815  11.926
17692W        W90018  16.237   2.327  12.479
17693W        W90019   5.955   1.067   2.896
17694W        W90020  14.382  14.746   3.131
17695W        W90021  44.976  22.433  14.571
17696W        W90022   4.295   5.753  11.489
17697W        W90023   5.185  33.360  11.263
17698W        W90024  25.687  43.096  14.426
17699W        W90025  15.562  30.107  14.316
17700W        W90026  29.249  16.722   3.256
17701W        W90027   5.183   2.230  13.388
17702W        W90028  35.041  24.550   2.389
17703W        W90029  14.722  15.776  12.939
17704W        W90030   2.810  32.031   0.395
17705W        W90031   5.971  43.555   2.260
17706W        W90032   3.690  26.593  12.561
17707W        W90033  36.869  41.239  12.605
17708W        W90034   8.864  27.919   3.751
17709W        W90035  38.485  33.361  12.145
17710W        W90036   5.765  39.568  14.497
17711W        W90037  29.253   5.479  11.149
17712W        W90038  13.652  24.375   9.899
17713W        W90039  28.955  13.602  14.187
17714W        W90040  41.282   1.038  11.959
17715W        W90041   3.372  19.191   4.655
17716W        W90042   6.397  42.746  11.170
17717W        W90043   9.821  42.536   4.102
17718W        W90044   2.164  26.126  14.307
17719W        W90045  21.178  29.410  12.959
17720W        W90046   6.978  31.991  12.843
17721W        W90047   4.965  30.941   2.666
17722W        W90048  25.674  34.457   3.695
17723W        W90049  13.620  35.415   3.979
17724W        W90050  18.306  24.291  13.459
17725W        W90051  28.870  28.684  12.369
17726W        W90052  40.368  32.592   0.770
17727W        W90053   1.278  18.220   3.904
17728W        W90054   8.766  33.090   0.304
17729W        W90055  28.154   7.057  12.948
17730W        W90056  20.736  13.225  13.471
17731W        W90057  13.544  17.669  10.626
17732W        W90058  29.137  14.753  13.922
17733W        W90059  19.031  15.565   2.671
17734W        W90060  28.944  44.407   4.651
17735W        W90061   1.747   6.943   0.355
17736W        W90062  10.015  31.583  13.466
17737W        W90063  33.188   6.767  10.492
17738W        W90064   2.888  33.078   2.001
17739W        W90065  25.052  35.410  10.665
17740W        W90066   2.875  33.591   2.399
17741W        W90067  23.827  43.518  12.103
17742W        W90068  25.873  24.505  13.134
17743W        W90069  32.687  26.592  10.972
17744W        W90070  29.623  26.655   5.463
17745W        W90071  24.538  13.352   4.633
17746W        W90072  19.979  43.447  11.027
17747W        W90073  18.668  27.656   2.333
17748W        W90074   1.286  10.904   3.828
17749W        W90075   2.785  17.637  10.654
17750W        W90076  23.979   0.528   4.326
17751W        W90077   4.364   9.170   2.594
17752W        W90078   9.995   6.932   1.409
17753W        W90079  25.919  30.406  12.520
17754W        W90080  25.134  38.014   0.702
17755W        W90081  24.525  34.078  10.580
17756W        W90082   6.831  35.481   2.590
17757W        W90083  18.247  26.055   3.962
17758W        W90084  11.275   1.949  12.025
17759W        W90085  43.730  26.154  14.370
17760W        W90086  35.603  22.434   1.188
17761W        W90087  27.929  27.040  10.364
17762W        W90088  38.342   1.820  11.366
17763W        W90089   0.480   5.272   2.441
17764W        W90090  27.784  14.363  10.721
17765W        W90091  37.542  44.304   0.032
17766W        W90092  35.449  39.869   2.299
17767W        W90093   5.185  29.247  13.359
17768W        W90094  36.774  32.363   0.097
17769W        W90095   3.223  33.706   5.269
17770W        W90096  41.810  21.510   3.214
17771W        W90097  28.968  27.448  13.498
17772W        W90098  25.494  34.420  12.092
17773W        W90099  29.436  25.562   3.401
17774W        W90100  34.167   4.314  12.334
17775W        W90101  19.860   8.660   3.178
17776W        W90102  26.721  21.620   2.160
17777W        W90103  12.643  15.753   4.556
17778W        W90104  36.561  33.420   4.560
17779W        W90105  26.621  30.119   4.015
17780W        W90106   6.725  29.870  12.487
17781W        W90107  32.501   7.179   1.185
17782W        W90108  21.038  42.987   3.969
17783W        W90109  41.461   9.097  14.273
17784W        W90110  22.877  13.221  12.610
17785W        W90111  19.414  14.753  14.589
17786W        W90112  14.891  40.301  14.778
17787W        W90113  34.509  29.216  13.941
17788W        W90114  37.868  22.571   4.648
17789W        W90115  18.054  15.167  13.203
17790W        W90116   5.823  10.755  11.074
17791W        W90117   6.805  29.766   5.011
17792W        W90118  14.738  22.565   2.790
17793W        W90119   9.572  39.453   2.399
17794W        W90120  26.868  21.165  14.404
17795W        W90121   5.463  19.586   2.178
17796W        W90122  25.424  21.626   1.313
17797W        W90123  42.376   8.262  13.779
17798W        W90124  12.558  29.433  11.143
17799W        W90125  22.159   6.929   3.789
17800W        W90126  13.144  24.710   2.223
17801W        W90127   9.716  41.337  12.541
17802W        W90128  34.384  10.451  14.631
17803W        W90129   3.703   5.666  10.509
17804W        W90130  18.816   2.884   0.812
17805W        W90131  27.217   7.876   2.294
17806W        W90132   0.318  35.109  14.031
17807W        W90133  12.301  38.053   2.763
17808W        W90134  43.018   9.432  13.429
17809W        W90135  24.715  29.449   1.957
17810W        W90136  16.074  39.324  14.574
17811W        W90137  42.599   2.271  12.031
17812W        W90138   9.867  20.152   2.247
17813W        W90139  19.079  16.188   0.832
17814W        W90140  44.687  22.180   2.420
17815W        W90141  12.173  15.949   4.529
17816W        W90142   9.162  38.739  13.860
17817W        W90143  19.946   3.194  13.405
17818W        W90144  37.376  27.954   1.384
17819W        W90145   1.851  12.073   1.426
17820W        W90146  29.971  43.499  13.396
17821W        W90147   9.811  23.211  12.789
17822W        W90148   7.650  22.183  13.254
17823W        W90149  44.277   3.799  10.542
17824W        W90150  38.527  15.095   0.957
17825W        W90151  40.559  12.016   1.133
17826W        W90152  23.676   4.153   4.300
17827W        W90153   5.216  16.710  11.372
17828W        W90154  33.765  20.490  13.647
17829W        W90155   0.266  38.780   2.901
17830W        W90156  41.958   9.357  12.904
17831W        W90157  35.278  14.956   4.517
17832W        W90158  14.722  14.538  13.359
17833W        W90159  10.180  32.387  10.494
17834W        W90160   1.257  34.650  11.123
17835W        W90161  35.893  26.246  13.951
17836W        W90162  34.033  12.133  11.613
17837W        W90163  21.472  12.890  11.072
17838W        W90164  26.659   1.423   4.754
17839W        W90165  14.131   3.363   0.734
17840W        W90166  42.458   0.238  10.723
17841W        W90167  27.518  10.192   4.155
17842W        W90168   4.029  23.368   5.382
17843W        W90169  12.755  44.970   2.070
17844W        W90170  10.891   7.363  12.856
17845W        W90171  36.285  39.887   0.053
17846W        W90172  44.333  41.251  13.008
17847W        W90173  27.709  12.874   1.894
17848W        W90174   1.192  28.816   3.524
17849W        W90175   6.785   3.422  12.425
17850W        W90176  35.343   1.332  10.771
17851W        W90177  11.614  43.504   2.182
17852W        W90178   6.453  23.535  10.586
17853W        W90179  14.536  23.453   2.721
17854W        W90180  16.342  25.103   4.651
17855W        W90181   4.757  35.225  11.931
17856W        W90182  36.361  18.207  11.028
17857W        W90183  43.325  31.433  14.208
17858W        W90184  41.280   6.776  14.307
17859W        W90185  12.851  24.953   5.047
17860W        W90186  41.981  43.778   2.820
17861W        W90187  16.266  33.205  12.115
17862W        W90188  32.033   4.675  14.380
17863W        W90189  33.880  43.450   3.250
17864W        W90190  17.706  13.709   0.632
17865W        W90191  39.902  22.288   3.968
17866W        W90192   6.917  14.757  13.489
17867W        W90193   5.915  26.457   0.949
17868W        W90194  35.037  30.297   3.726
17869W        W90195  21.153  15.841   0.467
17870W        W90196  27.081  25.659   2.207
17871W        W90197   7.626  26.850   4.092
17872W        W90198  36.402  33.870   0.583
17873W        W90199  40.410  14.299  12.925
17874W        W90200   8.623  22.657  10.627
17875W        W90201  30.936   6.920  11.084
17876W        W90202  32.832   0.732  14.798
17877W        W90203  25.149  30.112  11.205
17878W        W90204  38.512   0.281   2.378
17879W        W90205  13.866  41.385  12.571
17880W        W90206  21.454  38.867  14.734
17881W        W90207  40.492  32.083  12.762
17882W        W90208  13.398  12.946  12.758
17883W        W90209  39.536  22.888  14.983
17884W        W90210  38.146   8.217  11.885
17885W        W90211  14.584  16.675   0.829
17886W        W90212  36.518   5.309   3.219
17887W        W90213  16.819  38.728   2.351
17888W        W90214   8.337  37.041   4.526
17889W        W90215  19.400  29.851  13.587
17890W        W90216  23.264  15.643   4.220
17891W        W90217  28.119  11.372  14.065
17892W        W90218  33.971  12.469  14.457
17893W        W90219  39.640  30.489  11.449
17894W        W90220  18.410  20.627   3.750
17895W        W90221  36.406  10.275  12.763
17896W        W90222  30.165  17.339   1.721
17897W        W90223   6.702  26.562   1.431
17898W        W90224   1.241  38.042   3.750
17899W        W90225  14.743   8.711  14.334
17900W        W90226   2.471   3.942   0.335
17901W        W90227  20.641   0.198  13.874
17902W        W90228  11.607  36.394   3.841
17903W        W90229  36.418  32.553   3.679
17904W        W90230  37.868  15.311   4.530
17905W        W90231  37.350  28.351  10.990
17906W        W90232  31.921   8.169   2.695
17907W        W90233  27.416  11.310  11.272
17908W        W90234  34.911  26.349   1.808
17909W        W90235   3.407  30.230   0.853
17910W        W90236  19.633  39.515   4.662
17911W        W90237  29.642  31.548  14.504
17912W        W90238  36.659  37.985  14.443
17913W        W90239  44.287  31.139   4.189
17914W        W90240  12.007  34.435  10.120
17915W        W90241  20.257  26.221  10.517
17916W        W90242  15.078   0.271  11.048
17917W        W90243  11.616  12.695  14.925
17918W        W90244  12.464   3.919   4.065
17919W        W90245   1.504  24.941   1.830
17920W        W90246  34.849  30.898   1.859
17921W        W90247  25.528   2.154   1.653
17922W        W90248  42.525   9.897  12.198
17923W        W90249  33.412  21.861  11.737
17924W        W90250  26.427  32.493  13.336
17925W        W90251   4.770  44.991  12.920
17926W        W90252  40.085  17.197   1.734
17927W        W90253  13.185  10.722  14.471
17928W        W90254  14.240  18.753  11.156
17929W        W90255  29.767  10.874   4.319
17930W        W90256  22.044   2.425  10.507
17931W        W90257   8.784  44.333   4.630
17932W        W90258  28.181  21.840   9.990
17933W        W90259   2.974  43.425  13.851
17934W        W90260   8.869  21.672   0.660
17935W        W90261  41.544  18.055  13.797
17936W        W90262  28.566  40.683  13.822
17937W        W90263  25.488  15.178   3.303
17938W        W90264  35.198  40.448  12.950
17939W        W90265  31.444  24.669   2.397
17940W        W90266  31.669  31.631   3.850
17941W        W90267   1.833  36.861  11.505
17942W        W90268   9.888  15.351  14.817
17943W        W90269  17.686  35.072   0.281
17944W        W90270   8.381  23.089  11.585
17945W        W90271  43.781   5.799   1.202
17946W        W90272  37.458  10.431  13.911
17947W        W90273  16.802  20.858  12.485
17948W        W90274  39.675  38.604  11.460
17949W        W90275  44.848   6.686   4.838
17950W        W90276  37.315   1.054  12.009
17951W        W90277  38.014  25.258   0.691
17952W        W90278  41.292   2.825  14.939
17953W        W90279  36.357  16.301   2.677
17954W        W90280  25.308  13.693   1.774
17955W        W90281  38.286  41.007  13.497
17956W        W90282  30.607  21.060  10.818
17957W        W90283   7.677   8.331   3.730
17958W        W90284  23.748  20.315   1.785
17959W        W90285  42.289  36.992   0.278
17960W        W90286  26.139  13.380   4.928
17961W        W90287   0.785  42.150  11.384
17962W        W90288  14.876   4.426  11.364
17963W        W90289  29.438   5.798  14.088
17964W        W90290   8.799  38.646   0.210
17965W        W90291  33.098  29.071  12.294
17966W        W90292   5.703  44.535   4.131
17967W        W90293  15.274  27.648  10.443
17968W        W90294  33.167   4.359  12.330
17969W        W90295  43.698   7.431  13.522
17970W        W90296  36.396  36.939  13.036
17971W        W90297  22.758   8.806  11.949
17972W        W90298   9.321  29.113   1.771
17973W        W90299  30.688  18.261   1.494
17974W        W90300  37.426  12.689  10.181
17975W        W90301  24.515  36.451  10.873
17976W        W90302  33.274  15.611   1.489
17977W        W90303  40.259   5.576   3.631
17978W        W90304   0.741   8.418  12.539
17979W        W90305  40.264  29.427   2.283
17980W        W90306  43.958  44.990  14.428
17981W        W90307  23.106  24.149   2.741
17982W        W90308  12.710  18.106   2.493
17983W        W90309  31.204  12.820   3.081
17984W        W90310   9.401  36.946  10.737
17985W        W90311  26.920  41.004   0.269
17986W        W90312   7.361  20.117  10.753
17987W        W90313  42.221  40.468  11.819
17988W        W90314  25.977  12.666   1.085
17989W        W90315  14.543  27.979   1.644
17990W        W90316  30.234  29.915   4.312
17991W        W90317   9.450  33.432   2.863
17992W        W90318  35.683  26.583  12.148
17993W        W90319  22.151  33.933   1.926
17994W        W90320  21.649  14.239  14.543
17995W        W90321  20.170  16.297  14.276
17996W        W90322  16.342  18.728  14.981
17997W        W90323  27.297  34.252   4.128
17998W        W90324   4.755  29.521   5.104
17999W        W90325  41.412  34.914   1.942
18000W        W90326  14.266  20.099  11.355
18001W        W90327  24.595  38.366  12.629
18002W        W90328  44.934  18.310   3.177
18003W        W90329  37.555   0.446  12.601
18004W        W90330  36.500  25.660   4.731
18005W        W90331  38.945  26.806   1.878
18006W        W90332   3.740  24.070   0.964
18007W        W90333   0.852  22.473  13.054
18008W        W90334  33.086  44.871  12.340
18009W        W90335  26.481  44.370   4.504
18010W        W90336   9.103  36.960  11.175
18011W        W90337  37.028  17.160   4.435
18012W        W90338   5.694   9.265  11.784
18013W        W90339  20.080  36.447  14.988
18014W        W90340   5.439   4.104  13.371
18015W        W90341   2.284  23.551   0.924
18016W        W90342  28.360   7.937  10.888
18017W        W90343   4.352   1.130   2.005
18018W        W90344  29.706  20.754  14.478
18019W        W90345   5.795  28.887  12.838
18020W        W90346  20.647  42.012  13.367
18021W        W90347  43.522  10.773  10.963
18022W        W90348  35.473  12.837  14.553
18023W        W90349   9.207  15.864   0.351
18024W        W90350  11.877  38.303   3.582
18025W        W90351  35.610  35.878   2.297
18026W        W90352   8.366  37.857   3.833
18027W        W90353  23.608  27.256   3.198
18028W        W90354   6.923  26.629   3.589
18029W        W90355   2.527   0.274   2.690
18030W        W90356   8.117  41.318  13.410
18031W        W90357   0.975  14.110   4.038
18032W        W90358  43.569  13.311   4.148
18033W        W90359   5.289   8.343   0.363
18034W        W90360  15.817  36.138   0.929
18035W        W90361   9.158  28.506  11.539
18036W        W90362  37.867  35.025   3.539
18037W        W90363  28.035  35.439  13.671
18038W        W90364   0.550  19.152  12.152
18039W        W90365   7.108  15.746  14.486
18040W        W90366  20.503  12.759  10.998
18041W        W90367  13.250   7.648  13.358
18042W        W90368  12.669  14.741  11.265
18043W        W90369  33.654  24.700  13.338
18044W        W90370  20.634   1.305   4.726
18045W        W90371  22.980  39.794  14.138
18046W        W90372  38.480  18.267   0.865
18047W        W90373  33.555  19.053   1.710
18048W        W90374  23.765  39.640   2.239
18049W        W90375  34.054  40.516  14.530
18050W        W90376  33.864  10.232   3.736
18051W        W90377   5.653  37.877  11.913
18052W        W90378  29.185  20.747   4.785
18053W        W90379  37.166   1.985  12.398
18054W        W90380  25.100  30.078  12.714
18055W        W90381   8.161   1.395  13.781
18056W        W90382  17.665  22.290   1.806
18057W        W90383   8.378  19.177  13.007
18058W        W90384  11.613  12.078   1.724
18059W        W90385  35.944  44.379   3.489
18060W        W90386  30.476  30.394  12.542
18061W        W90387  40.904  44.425  14.447
18062W        W90388  43.458  41.348  12.494
18063W        W90389  29.073   1.780   3.811
18064W        W90390  28.221  37.570   0.488
18065W        W90391  21.928  25.992  14.308
18066W        W90392   6.832   1.405  14.069
18067W        W90393  30.864  16.846   4.046
18068W        W90394  15.301   1.890   1.773
18069W        W90395   0.736  39.769   3.389
18070W        W90396   2.313   8.149   4.079
18071W        W90397  41.473  26.262  13.113
18072W        W90398  25.648  43.824  13.773
18073W        W90399   2.034  16.222  13.955
18074W        W90400  30.435  31.016   3.153
18075W        W90401  42.744   2.839  14.909
18076W        W90402  42.450  43.439   3.582
18077W        W90403  31.094   8.705  10.617
18078W        W90404  22.239  30.883   0.372
18079W        W90405   6.661  33.942  14.087
18080W        W90406  35.102  18.284   4.009
18081W        W90407   2.503  28.716   3.387
18082W        W90408  30.700  38.954  12.952
18083W        W90409  31.945  30.995  14.435
18084W        W90410  14.886   2.423   1.903
18085W        W90411  19.102  29.518  14.504
18086W        W90412  38.040  39.332   0.329
18087W        W90413   8.142  28.731  14.580
18088W        W90414  38.715  32.053   9.953
18089W        W90415  37.579  39.080   0.307
18090W        W90416  22.088  30.500  13.841
18091W        W90417  35.564  28.045  13.913
18092W        W90418  20.052  14.711  12.099
18093W        W90419  44.335  12.114   1.702
18094W        W90420  13.563  44.717   3.631
18095W        W90421  16.021  11.776   5.016
18096W        W90422  29.675  22.065   3.745
18097W        W90423   5.401  18.536  12.926
18098W        W90424   4.044   9.661   1.941
18099W        W90425  15.923   4.820   3.740
18100W        W90426  21.710  38.390   4.528
18101W        W90427  11.879  38.441   2.260
18102W        W90428   3.730   6.708   2.338
18103W        W90429   8.792  30.724   0.768
18104W        W90430  35.858  41.503   3.216
18105W        W90431   8.442  22.263   4.101
18106W        W90432  23.536   5.162   3.377
18107W        W90433  27.190   5.225   0.404
18108W        W90434  12.956  40.476  11.863
18109W        W90435  25.047  20.683  11.094
18110W        W90436  35.424   1.452  12.717
18111W        W90437  44.949  25.701   0.848
18112W        W90438  22.613  28.845  11.580
18113W        W90439  21.151  17.573  12.977
18114W        W90440  39.051  34.304  11.470
18115W        W90441  28.999   3.194   2.018
18116W        W90442  19.019  27.134  13.144
18117W        W90443  34.109  21.198  12.038
18118W        W90444   9.209  10.214  11.118
18119W        W90445  20.966   4.751  11.980
18120W        W90446  29.984   8.335   3.179
18121W        W90447  27.124  19.279   0.476
18122W        W90448  30.288  28.657   0.196
18123W        W90449   8.673  42.181  11.537
18124W        W90450  27.274  30.479  11.888
18125W        W90451  18.114  39.964   4.087
18126W        W90452  18.745  21.078  14.048
18127W        W90453  33.474  15.005   4.585
18128W        W90454  13.514  34.808  10.853
18129W        W90455   0.855  34.363  12.204
18130W        W90456  10.423  35.460   1.467
18131W        W90457  15.678  12.651  10.693
18132W        W90458   1.890  21.101   4.980
18133W        W90459   5.800   3.869   3.951
18134W        W90460  26.096  34.941  13.351
18135W        W90461  40.455   6.225  14.462
18136W        W90462  19.273  23.464  14.305
18137W        W90463  18.132  30.619  10.698
18138W        W90464  43.229  20.730  14.744
18139W        W90465  18.043  25.666  12.903
18140W        W90466  21.340   0.894   4.772
18141W        W90467  15.175   0.730   3.182
18142W        W90468  27.094  38.861  10.718
18143W        W90469   4.200   0.586   1.841
18144W        W90470  11.675  32.505  14.721
18145W        W90471  10.157  23.585  12.926
18146W        W90472  14.339  44.434   4.643
18147W        W90473   6.700  43.774   3.247
18148W        W90474  38.990  35.001  10.718
18149W        W90475  26.906  27.630  11.118
18150W        W90476  39.760  17.670   2.398
18151W        W90477  34.939   3.617   3.108
18152W        W90478   7.249  28.414  11.730
18153W        W90479  13.633  19.945   2.271
18154W        W90480  14.668  31.506   2.857
18155W        W90481  30.845  38.404  11.042
18156W        W90482   4.098  35.881   2.138
18157W        W90483  28.624   9.866  10.500
18158W        W90484  18.361   6.394  14.842
18159W        W90485  38.936   8.876  13.579
18160W        W90486   9.903   4.770   0.473
18161W        W90487  21.567  39.140  12.991
18162W        W90488   3.829  17.040  13.806
18163W        W90489  36.190   7.127   4.333
18164W        W90490  26.918  29.035   3.242
18165W        W90491  26.500  17.281   4.138
18166W        W90492  32.365   3.876  12.441
18167W        W90493  16.735   5.189  10.487
18168W        W90494  12.477  40.272  11.012
18169W        W90495   4.736  40.899  14.817
18170W        W90496  29.640  30.888  12.147
18171W        W90497   3.261  26.036  13.111
18172W        W90498   0.625   8.305   4.524
18173W        W90499   8.620  34.423   4.158
18174W        W90500  36.530  33.608  10.272
18175W        W90501  18.255   8.210   2.757
18176W        W90502  39.613   8.757   4.581
18177W        W90503  26.632  12.803  11.064
18178W        W90504  12.878  25.743  12.458
18179W        W90505  23.112  39.325  13.985
18180W        W90506   7.367  35.167   0.459
18181W        W90507  39.539  41.062   0.012
18182W        W90508  44.077   2.611   2.390
18183W        W90509  34.937  13.085  13.899
18184W        W90510   3.754  23.112  12.153
18185W        W90511  34.837  23.535  12.397
18186W        W90512  31.050   7.388   4.777
18187W        W90513  18.305  23.573   1.244
18188W        W90514  37.781  25.694   2.247
18189W        W90515   7.340   6.305   4.690
18190W        W90516  12.132  30.910  14.921
18191W        W90517  11.191  29.068  10.522
18192W        W90518  26.060   0.770   4.251
18193W        W90519   8.776  18.342   1.645
18194W        W90520  19.482   9.829  11.524
18195W        W90521  20.442  11.752  14.275
18196W        W90522  41.891  12.639  10.474
18197W        W90523  34.962   4.962  13.022
18198W        W90524  19.346   3.733  12.920
18199W        W90525  19.610  42.229  11.137
18200W        W90526  14.049   1.339  11.931
18201W        W90527  11.117  29.435  14.379
18202W        W90528  26.920   7.921   4.530
18203W        W90529  26.129  19.125   0.800
18204W        W90530  44.280  27.696   4.091
18205W        W90531   1.660  13.317   0.484
18206W        W90532  30.491   3.451  10.438
18207W        W90533  36.834  33.374   3.182
18208W        W90534   7.620  16.527   3.773
18209W        W90535   0.538  43.801   0.787
18210W        W90536  37.808  37.368  14.508
18211W        W90537  35.857  28.668   0.999
18212W        W90538  29.595  13.709  13.758
18213W        W90539   9.184  40.012  12.003
18214W        W90540  23.555  33.258  13.022
18215W        W90541  42.269  33.454   1.112
18216W        W90542  37.043  14.514   3.722
18217W        W90543  42.852  40.316  13.019
18218W        W90544   1.226  35.931   0.424
18219W        W90545   8.439  41.372  10.682
18220W        W90546  24.730  43.003  10.423
18221W        W90547  23.675  16.285  12.044
18222W        W90548  17.575  24.757   3.811
18223W        W90549  35.479   6.635  11.159
18224W        W90550  34.397  12.731   2.173
18225W        W90551  12.900  24.278  13.089
18226W        W90552  13.666  43.576  13.818
18227W        W90553  19.369  22.334   0.982
18228W        W90554  11.097   0.292   3.988
18229W        W90555  17.318  42.578   0.759
18230W        W90556  13.360  31.009  14.865
18231W        W90557  39.405  12.776  13.516
18232W        W90558   4.636  26.173   4.531
18233W        W90559  13.293  27.448  12.131
18234W        W90560  20.464   7.944   2.911
18235W        W90561  32.030   1.112  13.483
18236W        W90562   5.377   2.249   1.809
18237W        W90563  17.173  15.210  14.597
18238W        W90564   8.920   6.952  11.899
18239W        W90565  10.093  36.535   3.740
18240W        W90566   4.436   5.651  12.139
18241W        W90567  36.102  43.497  10.666
18242W        W90568  19.573   6.231  14.113
18243W        W90569  11.468   5.566   2.486
18244W        W90570  14.141  29.601  12.937
18245W        W90571  40.274  31.155  14.077
18246W        W90572  11.727  42.437   4.446
18247W        W90573  35.913   6.571   0.384
18248W        W90574  21.697   6.999   0.849
18249W        W90575  32.398   2.825  14.560
18250W        W90576  29.911  28.634   3.091
18251W        W90577  13.493   9.758  12.058
18252W        W90578  13.805  14.824  13.952
18253W        W90579  19.612  30.538   2.864
18254W        W90580  42.365  23.205   2.427
18255W        W90581  30.411  23.671   2.349
18256W        W90582  23.989  31.893   2.774
18257W        W90583   8.895  26.573  12.578
18258W        W90584  27.505  34.832  12.549
18259W        W90585  41.617  13.837  11.587
18260W        W90586   6.391   3.641  13.316
18261W        W90587  41.034  29.007   1.946
18262W        W90588  12.039  40.602  11.894
18263W        W90589  12.755  31.027   1.123
18264W        W90590  16.664  25.029  13.902
18265W        W90591  16.191  14.797   0.218
18266W        W90592  29.729  12.430   2.075
18267W        W90593   3.287  35.898  13.444
18268W        W90594  30.731  12.901   4.862
18269W        W90595  22.201  10.232  12.818
18270W        W90596  14.825  44.819  11.067
18271W        W90597  37.102  22.558   3.249
18272W        W90598   2.408  25.749  12.299
18273W        W90599  29.116  37.394  10.740
18274W        W90600  13.697  30.099  13.077
18275W        W90601  18.822  11.869  10.097
18276W        W90602  35.245  26.310   4.205
18277W        W90603  39.508  40.019  10.388
18278W        W90604   5.357  41.893   0.917
18279W        W90605  21.166   7.685   4.882
18280W        W90606  30.462   3.994   3.717
18281W        W90607   0.358   8.911  13.256
18282W        W90608  35.114  43.290  13.782
18283W        W90609  36.570  11.572   1.839
18284W        W90610  39.119  25.045   2.179
18285W        W90611   9.380  20.567  12.877
18286W        W90612  41.899  32.214  13.823
18287W        W90613  22.563   0.268   3.436
18288W        W90614  41.845  35.649   2.496
18289W        W90615  26.014   2.006  12.031
18290W        W90616   9.818   2.852  13.052
18291W        W90617  35.944  24.923  13.508
18292W        W90618  16.367   1.627  12.796
18293W        W90619  36.377  19.591  12.397
18294W        W90620  12.809  42.010  12.963
18295W        W90621  31.080  42.517   4.574
18296W        W90622  19.765  36.857   0.827
18297W        W90623  33.890  44.873   3.588
18298W        W90624  18.698  10.687  13.531
18299W        W90625  25.620  41.801   0.758
18300W        W90626  25.583  32.232  13.466
18301W        W90627   5.806   8.211   4.088
18302W        W90628   8.598   5.800  14.468
18303W        W90629  34.460  15.716  10.402
18304W        W90630  44.360  12.776   0.454
18305W        W90631  14.099  40.474  12.944
18306W        W90632   2.517  21.617  14.683
18307W        W90633   9.467   4.217   0.764
18308W        W90634  32.099   6.897   2.349
18309W        W90635  33.583  13.854  10.711
18310W        W90636  26.232  39.992  11.501
18311W        W90637  27.391  30.741   1.804
18312W        W90638  23.823  15.853  12.844
18313W        W90639  23.591  34.921  11.593
18314W        W90640  31.617  11.202   1.033
18315W        W90641   5.523  22.235   1.840
18316W        W90642  40.416   2.138  12.561
18317W        W90643   2.701  19.460   0.040
18318W        W90644   5.480  41.544  12.877
18319W        W90645  32.919   3.349   0.477
18320W        W90646   4.341  21.339  13.128
18321W        W90647  15.318  10.266  13.027
18322W        W90648  28.009  44.632   4.237
18323W        W90649  16.343  42.320   3.722
18324W        W90650  34.122  21.188  11.129
18325W        W90651  11.993   8.403  14.792
18326W        W90652   6.309   3.806   4.570
18327W        W90653  13.153  16.472   3.651
18328W        W90654   1.329  19.863   4.156
18329W        W90655  44.087  29.487  10.548
18330W        W90656   0.511  29.260   3.798
18331W        W90657  14.078  31.898  12.575
18332W        W90658  25.499  34.854  14.387
18333W        W90659  15.672  41.996   3.857
18334W        W90660  33.021  15.333   0.079
18335W        W90661  13.721  37.593   3.111
18336W        W90662  15.300  38.767   4.100
18337W        W90663  14.411  30.120  10.940
18338W        W90664  13.147  34.451  13.286
18339W        W90665  22.679  34.083   0.509
18340W        W90666   0.842  39.351   3.675
18341W        W90667  24.922  35.908   2.254
18342W        W90668  22.025   5.843   4.880
18343W        W90669  11.130  39.446  13.141
18344W        W90670  34.018   0.216  13.766
18345W        W90671  41.546  17.154  13.336
18346W        W90672  17.075  39.317  14.340
18347W        W90673  19.652   9.148  13.607
18348W        W90674  39.449  42.861  11.802
18349W        W90675  12.099  26.515   2.357
18350W        W90676   4.938   6.779  10.720
18351W        W90677  26.063  25.738   3.314
18352W        W90678   3.361  18.733  12.069
18353W        W90679  21.492  36.329   0.866
18354W        W90680   6.866  24.367   0.552
18355W        W90681   0.702  36.289  11.170
18356W        W90682  29.130  42.087  11.182
18357W        W90683  20.298  17.849  12.929
18358W        W90684   3.378  37.282  12.053
18359W        W90685  16.278   3.670  12.132
18360W        W90686  23.568  39.143   2.296
18361W        W90687  25.479   1.842   2.514
18362W        W90688  35.613  10.417  14.893
18363W        W90689  44.498   9.671   0.399
18364W        W90690   3.940  37.145   3.665
18365W        W90691  16.682  23.909  11.715
18366W        W90692  32.419  41.046  11.010
18367W        W90693  41.869  42.786  10.721
18368W        W90694   4.791   8.722  14.741
18369W        W90695  13.699   8.108  12.608
18370W        W90696  21.953  19.332  12.500
18371W        W90697  18.609   0.161  13.051
18372W        W90698  16.822  27.518   4.621
18373W        W90699  15.076  28.123  13.901
18374W        W90700  24.660   5.571  10.725
18375W        W90701  10.638  24.031   2.731
18376W        W90702  35.969  30.063   2.837
18377W        W90703   3.224  19.145   3.278
18378W        W90704  24.348  32.945  13.509
18379W        W90705  15.672  20.149  12.201
18380W        W90706  10.214  13.321   2.606
18381W        W90707  35.567  18.568   2.415
18382W        W90708  16.351  36.402   2.805
18383W        W90709  42.499  15.666  13.457
18384W        W90710   2.485  24.637  14.309
18385W        W90711   6.777  26.598  10.714
18386W        W90712  23.242  17.303  14.780
18387W        W90713  43.145  40.103   5.180
18388W        W90714   7.559  16.178  13.596
18389W        W90715  37.886  22.129   2.989
18390W        W90716   6.379  41.530  13.816
18391W        W90717  10.098  37.005   3.135
18392W        W90718  26.703  16.563  11.982
18393W        W90719  10.184  28.894   1.691
18394W        W90720  26.197  36.048  14.832
18395W        W90721  15.789  36.837   4.085
18396W        W90722  16.575  26.924  11.657
18397W        W90723  42.578  30.696  13.349
18398W        W90724   8.707  32.694  11.529
18399W        W90725  10.727   6.266   3.286
18400W        W90726  19.127  42.489   4.889
18401W        W90727   3.944  32.277  12.042
18402W        W90728  29.011  43.742  13.838
18403W        W90729   4.917  20.138   0.268
18404W        W90730   8.308   9.423  14.411
18405W        W90731  20.344  15.739   0.657
18406W        W90732   8.163  40.435   1.976
18407W        W90733   3.418  21.003   2.584
18408W        W90734  13.086  34.535   3.676
18409W        W90735  32.474  25.257   2.781
18410W        W90736  22.407  36.873   4.070
18411W        W90737  27.241   9.303   1.743
18412W        W90738  25.560  33.625   0.585
18413W        W90739  27.969  38.930  10.797
18414W        W90740  14.681  40.438  14.315
18415W        W90741   0.401  28.924   4.641
18416W        W90742   4.307  20.329  13.094
18417W        W90743  24.938  24.042   2.725
18418W        W90744   5.085  17.150  10.086
18419W        W90745   7.307   7.705  12.503
18420W        W90746  36.427  19.988  10.820
18421W        W90747   7.810  23.415   0.443
18422W        W90748   9.942   5.957   0.320
18423W        W90749  12.148  27.033   1.043
18424W        W90750  27.582  38.349  10.267
18425W        W90751  21.180  36.973  10.427
18426W        W90752   7.464  35.836   4.172
18427W        W90753  35.893  13.188   4.950
18428W        W90754  37.471   1.869   4.599
18429W        W90755  37.390   5.619  10.484
18430W        W90756  37.931  43.310   4.248
18431W        W90757   4.424  12.403  13.071
18432W        W90758   2.186   8.259   1.753
18433W        W90759   1.920  11.998   9.797
18434W        W90760  25.082  41.397  13.152
18435W        W90761  42.837  22.066  11.454
18436W        W90762  44.856  18.718  10.646
18437W        W90763  42.431  34.503   0.075
18438W        W90764   9.783   1.907  14.524
18439W        W90765  20.775  29.976   3.140
18440W        W90766   4.618  22.355   4.285
18441W        W90767   1.465  36.262   1.909
18442W        W90768  13.596  26.187   1.477
18443W        W90769  30.092  26.696  10.080
18444W        W90770  25.530   6.176  11.998
18445W        W90771  12.674  44.007   3.591
18446W        W90772  21.978  43.738   3.136
18447W        W90773   4.328  39.487   1.897
18448W        W90774  15.425   5.595   1.808
18449W        W90775  38.616  17.029  14.931
18450W        W90776   4.480  13.612   4.415
18451W        W90777   0.960  34.833  11.999
18452W        W90778  30.416  15.786  14.972
18453W        W90779   9.342   4.968   1.401
18454W        W90780  30.655   2.841   4.636
18455W        W90781  44.299  33.103  12.742
18456W        W90782   9.192  22.459  11.504
18457W        W90783  36.973  26.682  11.599
18458W        W90784  44.426  32.554   4.203
18459W        W90785   5.674  38.455   1.701
18460W        W90786   5.993  27.985   1.864
18461W        W90787   8.280  14.269  10.294
18462W        W90788  27.407  30.057  11.500
18463W        W90789  35.108  12.036  13.796
18464W        W90790  22.559   3.531   3.811
18465W        W90791  10.918  33.870  11.887
18466W        W90792  17.286  11.689  14.961
18467W        W90793  41.728  31.682   1.777
18468W        W90794  13.297  29.712  13.381
18469W        W90795  11.314   5.406   1.971
18470W        W90796   7.387  13.164  10.728
18471W        W90797  21.741   5.639   2.218
18472W        W90798   9.796  27.673  12.530
18473W        W90799  13.280  40.078  14.246
18474W        W90800   4.696  24.228  12.455
18475W        W90801  21.266   1.999  12.943
18476W        W90802  36.032  32.608  11.921
18477W        W90803  40.808  27.299   2.011
18478W        W90804   7.048  41.596  12.619
18479W        W90805   0.487  25.988  10.785
18480W        W90806  30.973   7.617   2.686
18481W        W90807  21.147   8.199   4.132
18482W        W90808  39.336  17.682  10.694
18483W        W90809  12.844  32.213  11.204
18484W        W90810  37.923  21.628   1.272
18485W        W90811  14.297  24.237   1.882
18486W        W90812  10.721  37.192  11.571
18487W        W90813  35.497  15.658  10.175
18488W        W90814  17.806  37.462  11.410
18489W        W90815  42.202  10.017  12.557
18490W        W90816  15.272  44.295  10.555
18491W        W90817  35.327  13.368   4.181
18492W        W90818  11.137  44.426   2.654
18493W        W90819  23.182   1.342  10.726
18494W        W90820  35.782  18.503   3.330
18495W        W90821  30.611  41.559   4.845
18496W        W90822   6.933  17.274  12.042
18497W        W90823  37.998  20.222   0.380
18498W        W90824   2.174  13.219   0.515
18499W        W90825  15.767  42.989  13.810
18500W        W90826  16.829  36.795  10.670
18501W        W90827   6.912  34.606  10.862
18502W        W90828  35.662  34.772   4.189
18503W        W90829  30.988  11.722   0.931
18504W        W90830   7.760  25.751   4.725
18505W        W90831  13.740  29.364   0.939
18506W        W90832  38.716  32.985   3.618
18507W        W90833  17.931   4.770  12.395
18508W        W90834  37.479   1.439   1.589
18509W        W90835   4.797  25.923  13.101
18510W        W90836  26.645  42.370  14.481
18511W        W90837  35.819  34.456  14.031
18512W        W90838   7.767   6.437  13.566
18513W        W90839  15.335  33.683   3.131
18514W        W90840  31.984  26.297   0.493
18515W        W90841  22.457  11.894  11.195
18516W        W90842  35.320  10.187  14.521
18517W        W90843  41.993  25.788  13.486
18518W        W90844   1.180  24.630  13.298
18519W        W90845   3.363  39.369  14.183
18520W        W90846  38.548  43.284   4.698
18521W        W90847  11.703  20.885  13.068
18522W        W90848  24.047   9.487   2.628
18523W        W90849  28.908  27.081   4.490
18524W        W90850  10.970  43.870  12.514
18525W        W90851   5.748  16.392  10.619
18526W        W90852  39.433  17.264  13.311
18527W        W90853   9.488   8.835   2.230
18528W        W90854  14.804   7.321   4.408
18529W        W90855  26.020  14.831  11.048
18530W        W90856  26.765  35.689   3.224
18531W        W90857  38.961  20.774   5.033
18532W        W90858  16.708  15.748  14.929
18533W        W90859  40.693  34.439  11.910
18534W        W90860  18.189  30.772   2.901
18535W        W90861  27.175  17.746   1.195
18536W        W90862   4.960  42.819   1.240
18537W        W90863   7.919  39.420  11.924
18538W        W90864  15.477   5.199   0.537
18539W        W90865  34.735   4.277  12.503
18540W        W90866  31.949  27.591   0.407
18541W        W90867   5.182   8.783   4.049
18542W        W90868   1.050   5.739  13.078
18543W        W90869  30.644  24.116   2.200
18544W        W90870  35.488  36.067  13.480
18545W        W90871  43.944  19.090  14.376
18546W        W90872  32.113  35.571  11.640
18547W        W90873  19.024  27.610  12.002
18548W        W90874  16.189  36.595  14.302
18549W        W90875  18.938  34.819   0.339
18550W        W90876  33.054  21.146   1.953
18551W        W90877  36.619  27.148  11.030
18552W        W90878  15.111  20.867   5.345
18553W        W90879  31.117   5.738   2.330
18554W        W90880   5.742  28.273   1.477
18555W        W90881  23.121  35.195  12.480
18556W        W90882  19.537  28.089  14.414
18557W        W90883   8.313  41.538   2.140
18558W        W90884  22.989   3.703   4.112
18559W        W90885  22.026  21.375  11.672
18560W        W90886   6.090  21.588   3.400
18561W        W90887  41.130  36.321  14.926
18562W        W90888  40.539  40.975   3.699
18563W        W90889   6.791  43.989  10.690
18564W        W90890   7.243  30.002  12.210
18565W        W90891  18.282  30.552   4.646
18566W        W90892  31.209  20.182   0.755
18567W        W90893  25.120  13.111  10.659
18568W        W90894   5.734  33.235  14.758
18569W        W90895  44.959   8.781   2.388
18570W        W90896  37.868   0.500   4.105
18571W        W90897  24.085  17.514  13.424
18572W        W90898  28.508   5.148  14.810
18573W        W90899   0.767  44.929  10.587
18574W        W90900  20.360  28.472  10.590
18575W        W90901  33.842  32.650   2.354
18576W        W90902   9.254  30.886  13.486
18577W        W90903  17.363  22.554   3.962
18578W        W90904  33.146  26.031   1.450
18579W        W90905  36.884  32.638   1.691
18580W        W90906  24.485   6.799  14.752
18581W        W90907  24.193  27.104  12.010
18582W        W90908  38.444   6.679   1.620
18583W        W90909  35.035  19.285  12.434
18584W        W90910  10.658  11.415  14.252
18585W        W90911  20.420  18.800   2.267
18586W        W90912  41.954  10.135  11.589
18587W        W90913  23.635  36.284  10.916
18588W        W90914  24.594  11.691  12.940
18589W        W90915  20.594  32.109   5.014
18590W        W90916   9.165  35.253  13.605
18591W        W90917  38.927   1.730   3.414
18592W        W90918  22.200  43.462  14.291
18593W        W90919   6.212  23.562   4.120
18594W        W90920  41.612   0.549   3.561
18595W        W90921  32.555  41.768  12.635
18596W        W90922  23.104  19.535   2.547
18597W        W90923  34.975  32.694  14.836
18598W        W90924  41.587  15.556   5.201
18599W        W90925  31.508  44.195   0.750
18600W        W90926  20.982  29.259  14.880
18601W        W90927  40.276  19.631   0.233
18602W        W90928  39.356  25.304   3.757
18603W        W90929   7.900  27.054   0.313
18604W        W90930   3.043  41.022   1.745
18605W        W90931  21.675  40.937  13.276
18606W        W90932  11.698  15.146  14.405
18607W        W90933  14.666  20.932   1.995
18608W        W90934  44.818  16.556  14.780
18609W        W90935  29.071   9.174  12.762
18610W        W90936  24.984   1.399  14.531
18611W        W90937  12.630  29.675  12.037
18612W        W90938  18.170   1.883  12.610
18613W        W90939  11.696  39.084   5.103
18614W        W90940  42.034   2.671   1.719
18615W        W90941  43.739  42.317   1.225
18616W        W90942   0.780  33.928   2.019
18617W        W90943  44.538  18.642   2.290
18618W        W90944  37.967  29.766   0.280
18619W        W90945   1.939  20.038   2.204
18620W        W90946  22.022  28.714  14.765
18621W        W90947  40.370  16.847   1.987
18622W        W90948  38.004  24.169   3.249
18623W        W90949  11.319   4.307   4.357
18624W        W90950  16.291  43.264  13.588
18625W        W90951  22.947  42.229  12.150
18626W        W90952  10.127   4.675   2.829
18627W        W90953   5.152  32.375  12.082
18628W        W90954   0.357   3.177   1.628
18629W        W90955  24.619  30.150   2.616
18630W        W90956  35.747   4.275   0.957
18631W        W90957  14.275  26.255   3.655
18632W        W90958  36.227  26.881  10.067
18633W        W90959  31.015  25.986   2.936
18634W        W90960  32.466  18.740   9.979
18635W        W90961  16.166  23.212  11.396
18636W        W90962  29.629  24.668  13.570
18637W        W90963   1.956  22.775  12.822
18638W        W90964  11.416  32.628   2.877
18639W        W90965  26.384  12.366  11.005
18640W        W90966  31.716  41.266   4.226
18641W        W90967  23.545  44.757  10.709
18642W        W90968  32.950   3.752   3.599
18643W        W90969  29.554   2.426  14.461
18644W        W90970  30.835  14.407  12.392
18645W        W90971  33.594  12.665   0.203
18646W        W90972  39.771  15.590  12.998
18647W        W90973  33.553   5.344   0.379
18648W        W90974  34.775  17.310  12.520
18649W        W90975   9.762  23.894  11.526
18650W        W90976   2.619  31.144   4.174
18651W        W90977  24.017  35.451   0.803
18652W        W90978  42.850  43.316   1.315
18653W        W90979  40.305  17.817  11.546
18654W        W90980   1.804   7.424   3.984
18655W        W90981   5.199  12.769  12.997
18656W        W90982   0.925  12.684  12.311
18657W        W90983  35.822  15.026  14.824
18658W        W90984  14.146  43.940   3.681
18659W        W90985   2.386  10.195  13.788
18660W        W90986   0.973  44.935   4.622
18661W        W90987  13.349  24.651  14.399
18662W        W90988  13.697  26.004   0.755
18663W        W90989   3.386  20.724   1.460
18664W        W90990  13.031  35.364  12.505
18665W        W90991  36.951   9.696   2.240
18666W        W90992  24.293  37.927   1.982
18667W        W90993  11.734  21.122   2.973
18668W        W90994  43.856  21.811   0.938
18669W        W90995  36.326  19.500   3.048
18670W        W90996   8.576  21.771   4.084
18671W        W90997  42.102  31.141   3.170
18672W        W90998  35.390  38.520   0.389
18673W        W90999  29.903  14.725   3.225
18674W        W91000  20.690  12.791   0.747
18675W        W91001  44.944   2.911  11.953
18676W        W91002   8.147  38.871   1.768
18677W        W91003  14.352  33.538   3.387
18678W        W91004  22.850   9.441  13.990
18679W        W91005   6.309   6.487  12.997
18680W        W91006  39.602  28.521   2.397
18681W        W91007  12.272   2.816   2.743
18682W        W91008  11.085  30.383   1.267
18683W        W91009  29.595  21.640  14.582
18684W        W91010  39.230  11.538   3.703
18685W        W91011   7.396  36.958  12.155
18686W        W91012  14.578  15.162  14.426
18687W        W91013  26.234  30.523  12.047
18688W        W91014  41.894  14.641   4.786
18689W        W91015  20.834  44.447  14.375
18690W        W91016  12.113  12.643   0.855
18691W        W91017  36.785  43.969  14.810
18692W        W91018  14.274   3.801   1.930
18693W        W91019  19.407  37.131   5.023
18694W        W91020   3.379  16.754   1.167
18695W        W91021   3.694  30.646   2.760
18696W        W91022  16.131  39.060   3.637
18697W        W91023  41.589  37.354  12.106
18698W        W91024  22.585   6.908   0.758
18699W        W91025  19.155   3.223   0.339
18700W        W91026  38.585   4.178  14.447
18701W        W91027  38.415   8.196   3.826
18702W        W91028  18.260  10.353  13.733
18703W        W91029  14.219  16.910   2.780
18704W        W91030  16.665  13.109   1.672
18705W        W91031  35.151  14.789  12.376
18706W        W91032  11.932  25.706   0.754
18707W        W91033  44.843  11.729   1.790
18708W        W91034  33.879  13.309   4.266
18709W        W91035   6.148  40.453   1.844
18710W        W91036  23.820  17.180   5.250
18711W        W91037  13.601  42.387   3.180
18712W        W91038  35.028  18.599   1.306
18713W        W91039  36.443  39.537  10.644
18714W        W91040  38.897  19.261   3.307
18715W        W91041  44.925  15.662  11.621
18716W        W91042  43.411  17.127   0.013
18717W        W91043  33.498  39.865   2.425
18718W        W91044  43.545   2.253   1.353
18719W        W91045  17.307  10.233   0.811
18720W        W91046  32.048  33.420  10.586
18721W        W91047  43.287  23.200   0.802
18722W        W91048   2.808   5.965  11.517
18723W        W91049  44.075  23.647   0.632
18724W        W91050  21.446  28.671  12.192
18725W        W91051  40.586  21.268   1.863
18726W        W91052  34.599  10.321  13.590
18727W        W91053   4.838  44.258   2.701
18728W        W91054  43.395   9.336   0.787
18729W        W91055   2.622   4.416   1.894
18730W        W91056  21.207  32.046   0.975
18731W        W91057  24.316  37.351  12.416
18732W        W91058  38.524   3.727   4.793
18733W        W91059  37.412   4.537   1.762
18734W        W91060  20.656  38.825  13.421
18735W        W91061  39.925  26.544   3.580
18736W        W91062  29.382   0.530  14.859
18737W        W91063  29.672  27.034  10.134
18738W        W91064  22.724   4.428  14.860
18739W        W91065  27.717  35.605   2.121
18740W        W91066   8.602  38.355  11.055
18741W        W91067  18.156   4.252   2.261
18742W        W91068  31.471  32.108   1.698
18743W        W91069   8.394  31.378   2.253
18744W        W91070   1.017   2.270  14.238
18745W        W91071  25.216  12.565  14.877
18746W        W91072   8.622  13.899   4.981
18747W        W91073  15.705   4.726  14.979
18748W        W91074   3.658  30.107  13.322
18749W        W91075  19.827  19.214   0.120
18750W        W91076  29.500  31.613   4.395
18751W        W91077  29.871  19.734  11.918
18752W        W91078  21.597  30.382  13.553
18753W        W91079   5.695  44.447   1.664
18754W        W91080  17.999  16.054  12.380
18755W        W91081  25.549  42.707  10.741
18756W        W91082  13.940  15.808  12.357
18757W        W91083  42.000  28.107  14.067
18758W        W91084  26.524  31.379  13.908
18759W        W91085   6.441  10.084  12.937
18760W        W91086  41.306  36.030   0.380
18761W        W91087   9.860  35.824  14.459
18762W        W91088  22.824  41.461  13.887
18763W        W91089  41.595  20.673   4.329
18764W        W91090  20.658   1.705   0.931
18765W        W91091  10.767   2.749   1.287
18766W        W91092  30.480   2.172  10.542
18767W        W91093  26.102  31.139   0.154
18768W        W91094  31.954  42.300  12.992
18769W        W91095  16.939  12.196  10.765
18770W        W91096  28.975   2.489   4.465
18771W        W91097  34.974  33.950  14.122
18772W        W91098  41.592  22.787   1.387
18773W        W91099  19.165   4.200  11.637
18774W        W91100   0.421  11.529   0.437
18775W        W91101   9.109  43.629   2.441
18776W        W91102  34.027  33.179   3.239
18777W        W91103  17.132   4.916  12.449
18778W        W91104  35.981  36.048  10.948
18779W        W91105  30.880  15.889   5.054
18780W        W91106  18.581   5.915  11.665
18781W        W91107  36.473  44.706  10.971
18782W        W91108  15.779  44.764   2.845
18783W        W91109  16.126  12.782   1.475
18784W        W91110  32.113  36.493   4.651
18785W        W91111  32.310  21.841  11.100
18786W        W91112   7.256  28.920  14.118
18787W        W91113  32.037  12.182   4.651
18788W        W91114  28.947  22.104   0.320
18789W        W91115  18.818  39.844   4.340
18790W        W91116  21.017  37.911  10.138
18791W        W91117  37.127  12.259  14.918
18792W        W91118  31.710  39.932   1.922
18793W        W91119  19.124  36.897  14.342
18794W        W91120  22.783  33.991  13.943
18795W        W91121  29.859  29.161  11.320
18796W        W91122  25.593  44.020  12.788
18797W        W91123  44.043  43.774  10.999
18798W        W91124   0.458  34.139  11.945
18799W        W91125   5.261  14.325   4.885
18800W        W91126  14.115   0.745   1.322
18801W        W91127  15.627  25.765   4.258
18802W        W91128  44.256   5.167   1.731
18803W        W91129  31.622  11.719   3.319
18804W        W91130  20.001  20.533   2.812
18805W        W91131  28.945  42.758  14.571
18806W        W91132   2.535   0.185   1.195
18807W        W91133  38.615  42.465   3.813
18808W        W91134   1.841  18.495  14.574
18809W        W91135  10.159  18.179   3.115
18810W        W91136  13.300  19.732  10.283
18811W        W91137   8.607  29.412   1.358
18812W        W91138  25.679  12.583  13.799
18813W        W91139  37.334   7.137   0.342
18814W        W91140  13.216  28.194   3.289
18815W        W91141   6.697  31.076  11.201
18816W        W91142   2.983  24.358   0.061
18817W        W91143  23.930  41.006  13.511
18818W        W91144  20.683  40.746   2.738
18819W        W91145  37.024  28.255  14.682
18820W        W91146  36.137   9.061  12.551
18821W        W91147   5.869  27.190  11.135
18822W        W91148  23.168   9.197   4.211
18823W        W91149  30.010  19.818  13.469
18824W        W91150  37.811   3.335  10.266
18825W        W91151   3.251  31.672  14.409
18826W        W91152   0.409  39.084   0.959
18827W        W91153  35.044  37.844   2.762
18828W        W91154  42.831   6.866  14.337
18829W        W91155  28.025  28.512   2.872
18830W        W91156  34.593   2.879  12.989
18831W        W91157  39.838  43.005   4.081
18832W        W91158  44.494  32.036  12.132
18833W        W91159  35.700  41.799  12.893
18834W        W91160  44.460  37.120  14.767
18835W        W91161  21.495   0.893  14.903
18836W        W91162  21.304   5.900   1.369
18837W        W91163  35.300  11.140  14.478
18838W        W91164  12.882  19.441   0.610
18839W        W91165  27.021  18.200   1.383
18840W        W91166  35.855   4.510   3.072
18841W        W91167  30.320  21.307  13.508
18842W        W91168  31.979   9.695   2.766
18843W        W91169   0.588  41.474   4.481
18844W        W91170  37.612   7.621  13.605
18845W        W91171   6.876  17.695  14.313
18846W        W91172  26.348  13.308  12.172
18847W        W91173  17.527  37.632  14.343
18848W        W91174  43.918  18.491   1.865
18849W        W91175   9.633  26.624   2.341
18850W        W91176  11.905  43.843  11.455
18851W        W91177  30.951   4.172  12.904
18852W        W91178  29.078  40.088   2.466
18853W        W91179  33.824  13.686  12.468
18854W        W91180  15.035   8.760  13.301
18855W        W91181  15.848  30.686  13.324
18856W        W91182  26.167   6.443   2.157
18857W        W91183  27.850  15.434   3.130
18858W        W91184  15.788   2.821  12.055
18859W        W91185   8.374   9.345  12.464
18860W        W91186  43.980  10.410  12.576
18861W        W91187  29.817  21.181   0.420
18862W        W91188  10.176  25.628  12.807
18863W        W91189  35.955  22.447   4.068
18864W        W91190   7.824  26.615  12.125
18865W        W91191  25.677  16.860   0.284
18866W        W91192   8.224  39.083  11.066
18867W        W91193  23.488   7.871  10.767
18868W        W91194  25.108  11.871   3.153
18869W        W91195   6.319  18.181   0.727
18870W        W91196  10.331  31.431  14.761
18871W        W91197  21.200   7.167  13.324
18872W        W91198  34.440  22.755   4.595
18873W        W91199  34.568  20.045   4.197
18874W        W91200   7.236  32.463  13.457
18875W        W91201  13.258  15.367  11.576
18876W        W91202   9.632  38.877  14.739
18877W        W91203  13.303  20.118  11.379
18878W        W91204   5.840  15.819  14.095
18879W        W91205   3.350  16.816   2.084
18880W        W91206  18.588  38.078  11.238
18881W        W91207  26.355   3.986  12.525
18882W        W91208  28.582  26.098  10.910
18883W        W91209   0.055  40.290  12.392
18884W        W91210  19.136  44.425   4.748
18885W        W91211  14.849   3.852  12.038
18886W        W91212   5.662  24.738   3.176
18887W        W91213  11.466  38.289   3.244
18888W        W91214  15.343  41.475   3.630
18889W        W91215   2.669  12.264  13.534
18890W        W91216  27.506   3.768  13.317
18891W        W91217  20.776  34.492  10.592
18892W        W91218  39.833  40.413   0.746
18893W        W91219  44.917  29.459   2.655
18894W        W91220   6.748  18.778  13.088
18895W        W91221  44.533  23.493  11.084
18896W        W91222  16.353  33.550   3.706
18897W        W91223  22.900  25.957   4.294
18898W        W91224  22.596  38.097  10.736
18899W        W91225  40.769   5.901   0.224
18900W        W91226   7.815   6.621  12.574
18901W        W91227  11.865  27.553  12.483
18902W        W91228  39.591  29.090  13.021
18903W        W91229  23.533  38.506   0.408
18904W        W91230  11.211  33.420   0.058
18905W        W91231   0.448  17.401   3.390
18906W        W91232  43.320   3.008   1.054
18907W        W91233  14.632  14.313  12.019
18908W        W91234  35.402  32.696  14.475
18909W        W91235  41.589  20.575   3.794
18910W        W91236  27.068  32.135   5.032
18911W        W91237  22.157  44.909  12.565
18912W        W91238  23.668  35.497  10.358
18913W        W91239  40.867  44.014   0.174
18914W        W91240  21.182  40.661   3.652
18915W        W91241   6.776  17.660  10.565
18916W        W91242  39.391  15.328   1.485
18917W        W91243   5.551  33.502  12.760
18918W        W91244   6.674  31.304  13.510
18919W        W91245  30.854  36.788  14.290
18920W        W91246  43.383  36.868   2.293
18921W        W91247  42.455  28.074   0.842
18922W        W91248   5.517  29.084   0.230
18923W        W91249  23.582  16.683   4.562
18924W        W91250  35.196  38.935  12.486
18925W        W91251  16.190  27.474  14.206
18926W        W91252  21.453   6.433   3.158
18927W        W91253  11.665  20.570   2.201
18928W        W91254  14.615  14.597   0.829
18929W        W91255  29.639   3.332  11.484
18930W        W91256  14.201  44.386  11.983
18931W        W91257  11.151  18.253   0.381
18932W        W91258   3.471   5.449   4.229
18933W        W91259  31.488   3.827  13.586
18934W        W91260   9.240   6.617  12.079
18935W        W91261  43.956  26.606   3.150
18936W        W91262  26.643  16.152   2.725
18937W        W91263   5.270  43.530  13.024
18938W        W91264  35.152  19.123  14.903
18939W        W91265  29.911  42.857   1.360
18940W        W91266  37.411  10.240   5.067
18941W        W91267  17.733   9.737  14.380
18942W        W91268  43.406  37.266   1.924
18943W        W91269  15.793  13.994   1.759
18944W        W91270  42.511  12.601   4.196
18945W        W91271  28.060  29.227   5.132
18946W        W91272   6.742  17.657   3.972
18947W        W91273  10.408   9.782  13.029
18948W        W91274  19.309  42.516   3.218
18949W        W91275  26.106  28.015  12.432
18950W        W91276   0.370  23.994   4.416
18951W        W91277  34.906  10.656  13.338
18952W        W91278  21.607   0.743   3.405
18953W        W91279   0.223   1.004   3.753
18954W        W91280   5.332   5.255  14.496
18955W        W91281  44.510   9.221   4.716
18956W        W91282  35.768  11.791   3.648
18957W        W91283  20.263   0.880   3.729
18958W        W91284   4.688  26.963   1.002
18959W        W91285  22.365  24.728  11.536
18960W        W91286  41.638  32.545  14.476
18961W        W91287   7.006  19.796  13.984
18962W        W91288  22.065  38.939   1.604
18963W        W91289  22.973   8.910  12.778
18964W        W91290  22.599  10.140  11.416
18965W        W91291  26.238  36.372  12.154
18966W        W91292  28.209   8.091   2.879
18967W        W91293   4.258  22.126  12.528
18968W        W91294  37.925  32.738   3.845
18969W        W91295  42.501  28.977  12.979
18970W        W91296  43.453  33.605   1.932
18971W        W91297   4.262  39.344  11.227
18972W        W91298  34.021  23.495  11.799
18973W        W91299  25.652  18.007   1.102
18974W        W91300   6.762  16.163   3.839
18975W        W91301  14.724  25.191  12.019
18976W        W91302  37.537  22.760   0.826
18977W        W91303  39.055   1.190  14.889
18978W        W91304  20.308  13.795   2.500
18979W        W91305  36.368   8.374   2.766
18980W        W91306  32.635  12.362  12.509
18981W        W91307  29.800   2.213  12.015
18982W        W91308  22.268  28.706  12.549
18983W        W91309   4.335  42.960  11.947
18984W        W91310  27.019  15.161  11.291
18985W        W91311  32.812   0.779   4.799
18986W        W91312  41.573   4.289   1.466
18987W        W91313  28.581   3.510   2.870
18988W        W91314  29.197  36.983  13.001
18989W        W91315  42.432   4.653   1.022
18990W        W91316  36.621  13.672  11.343
18991W        W91317  29.021   1.987   0.857
18992W        W91318  17.671  14.406   4.669
18993W        W91319  17.824   4.706  14.909
18994W        W91320   3.506  36.477   2.900
18995W        W91321  15.953  10.483  14.765
18996W        W91322  19.106  40.569  11.422
18997W        W91323  35.992  11.197  12.565
18998W        W91324   9.447  20.183   0.576
18999W        W91325   6.909  42.901  10.602
19000W        W91326   9.085  15.889  12.637
19001W        W91327  38.339  41.731   4.768
19002W        W91328   4.850   5.409  14.693
19003W        W91329   9.144  30.904  11.591
19004W        W91330  43.839   9.796   4.536
19005W        W91331  15.872  40.003   2.262
19006W        W91332  31.118  15.990   1.807
19007W        W91333  17.086  24.963  12.292
19008W        W91334  15.576   8.107   1.474
19009W        W91335  15.221   5.466   0.906
19010W        W91336  23.151   7.344   2.158
19011W        W91337  16.330   1.247   0.360
19012W        W91338  39.398  16.885  12.525
19013W        W91339  43.254   9.331  13.887
19014W        W91340   7.455  32.663   4.508
19015W        W91341  25.495  26.117   1.369
19016W        W91342  12.903   1.767   0.393
19017W        W91343  32.988  23.133  10.622
19018W        W91344  31.930  41.506   3.396
19019W        W91345   6.583   3.201  12.028
19020W        W91346  29.663   7.856  13.981
19021W        W91347  21.471  15.147   2.638
19022W        W91348   6.287  44.433   2.863
19023W        W91349  40.891  17.615  12.162
19024W        W91350  30.616  17.228  10.954
19025W        W91351   9.728  22.159  11.395
19026W        W91352  32.328   3.855  10.647
19027W        W91353   3.760  23.750   3.732
19028W        W91354  20.080  16.655   1.521
19029W        W91355  21.661  14.372   4.630
19030W        W91356  31.516  34.111  13.379
19031W        W91357   4.511  34.933   2.235
19032W        W91358  28.747   0.300   2.676
19033W        W91359  30.378   7.260   2.174
19034W        W91360  29.152   2.732  12.450
19035W        W91361   1.770  24.751  11.037
19036W        W91362  19.083  40.554   0.456
19037W        W91363   5.494   3.015   3.923
19038W        W91364   8.704  26.628  11.150
19039W        W91365  43.907  17.904  14.804
19040W        W91366  36.898  37.345  10.266
19041W        W91367   3.003  37.350  13.144
19042W        W91368  43.986  15.154  10.797
19043W        W91369  15.059  29.832  11.603
19044W        W91370  20.736   1.359  13.441
19045W        W91371   9.754  38.730  13.404
19046W        W91372  20.341  13.909   0.221
19047W        W91373   8.886  16.784   0.728
19048W        W91374   1.142  33.731   1.704
19049W        W91375   0.337  36.546   3.215
19050W        W91376  12.202  29.825  10.557
19051W        W91377   9.271  31.956   4.615
19052W        W91378  12.942  29.506   4.217
19053W        W91379  15.144  19.830  12.362
19054W        W91380  38.094  37.045   2.814
19055W        W91381  11.393  19.786  11.041
19056W        W91382  21.193  39.843   3.905
19057W        W91383  19.612  21.312  11.603
19058W        W91384  31.607  25.252   0.019
19059W        W91385  17.416  44.531   2.328
19060W        W91386  37.731  23.179  14.091
19061W        W91387  29.445  16.360   1.158
19062W        W91388  31.558  12.724   0.738
19063W        W91389   0.418   6.416  14.418
19064W        W91390  33.151  43.257  11.150
19065W        W91391   6.923  37.444  14.422
19066W        W91392   3.000  44.850  13.339
19067W        W91393  34.150  42.865  14.797
19068W        W91394  15.122   5.739  14.423
19069W        W91395   7.291  28.182   2.886
19070W        W91396  18.988  36.111  11.594
19071W        W91397  41.458  44.777  14.812
19072W        W91398   7.044  21.133   0.268
19073W        W91399  31.988  34.284  10.856
19074W        W91400  13.052  19.554   3.677
19075W        W91401   0.192  31.501   4.627
19076W        W91402  42.916  32.656   9.982
19077W        W91403  31.610  38.531  12.901
19078W        W91404  22.134   5.967  11.095
19079W        W91405  13.867  20.370  13.072
19080W        W91406  18.159  24.024  12.479
19081W        W91407  33.418   6.269  14.442
19082W        W91408   7.051  20.461  14.020
19083W        W91409  30.212  32.629  12.298
19084W        W91410  24.892  12.686  10.861
19085W        W91411  22.832  23.703   2.755
19086W        W91412  32.452   2.402  11.615
19087W        W91413  14.730  31.578   4.410
19088W        W91414  32.490  19.270  12.991
19089W        W91415  40.448  28.775  12.074
19090W        W91416  41.948   6.918   3.732
19091W        W91417  32.937  19.671  12.049
19092W        W91418  19.661   2.630   1.779
19093W        W91419  25.416  37.750   5.141
19094W        W91420  43.817  16.797  11.527
19095W        W91421  12.756  30.645  14.924
19096W        W91422   7.623  22.488  10.679
19097W        W91423  17.678  28.025   2.778
19098W        W91424   6.385  44.409   0.851
19099W        W91425  24.760   7.370  14.053
19100W        W91426  22.609  34.413  11.050
19101W        W91427  31.953  27.157  11.418
19102W        W91428  15.245  42.319  14.499
19103W        W91429   4.408   6.323   4.543
19104W        W91430  22.983  23.664   4.547
19105W        W91431  22.094  33.415   4.634
19106W        W91432   4.336  39.020   3.144
19107W        W91433   3.293  44.907   4.134
19108W        W91434  12.201  19.771   1.814
19109W        W91435  12.590  16.215   2.383
19110W        W91436  23.199  43.410   4.730
19111W        W91437  18.074  22.677  12.420
19112W        W91438  14.330  38.798  10.632
19113W        W91439  25.816  17.312  12.592
19114W        W91440  43.992  21.087   2.626
19115W        W91441   7.215  42.045   2.388
19116W        W91442  14.075  23.050   3.081
19117W        W91443  27.820   4.977  13.534
19118W        W91444   4.976  42.056  12.938
19119W        W91445   6.365  42.548   1.350
19120W        W91446   9.098  37.739   2.659
19121W        W91447  35.700  29.601  10.710
19122W        W91448  22.599  36.807   1.369
19123W        W91449  10.838  25.399   0.294
19124W        W91450  12.445  13.498  10.938
19125W        W91451  12.609  26.567   5.399
19126W        W91452  11.228  27.067  10.094
19127W        W91453  21.534  43.738   2.808
19128W        W91454  36.652  44.090   1.295
19129W        W91455  29.634  22.667  10.303
19130W        W91456  30.653  34.399   4.218
19131W        W91457  16.365  25.204  10.631
19132W        W91458   3.347  41.822   2.758
19133W        W91459  13.418  36.272   4.186
19134W        W91460   8.754   7.745  12.389
19135W        W91461  43.905   6.434  10.708
19136W        W91462   5.466  35.394   1.014
19137W        W91463  21.072  15.671  13.046
19138W        W91464  27.156  21.042  14.830
19139W        W91465   6.161   2.918  12.097
19140W        W91466  23.974  40.259   2.225
19141W        W91467   3.927  26.462  12.100
19142W        W91468  20.646  44.304  14.824
19143W        W91469   9.872  23.485   4.924
19144W        W91470  34.000  31.846  13.337
19145W        W91471   3.737  18.144   3.701
19146W        W91472  32.488   9.824  12.238
19147W        W91473   9.651  11.430   3.892
19148W        W91474  32.499   9.330   0.272
19149W        W91475  18.137  29.650  11.800
19150W        W91476  27.482   2.764  12.932
19151W        W91477   1.252  34.405   0.765
19152W        W91478  26.256   7.419  12.988
19153W        W91479   6.466  43.403   2.281
19154W        W91480  35.724  16.125   1.360
19155W        W91481  33.843  42.720   0.221
19156W        W91482   4.731  42.034  11.659
19157W        W91483  14.066  33.284   3.778
19158W        W91484  17.549   3.950  13.710
19159W        W91485  17.771  14.758  14.858
19160W        W91486   9.702  22.550   4.524
19161W        W91487  16.229  41.622  11.085
19162W        W91488  31.971  33.657  11.467
19163W        W91489  18.604  25.971   3.187
19164W        W91490  12.829  15.707  12.108
19165W        W91491  21.283  33.453   4.238
19166W        W91492   7.235  35.004   0.980
19167W        W91493   4.332  18.722   2.131
19168W        W91494  37.261  20.033   0.868
19169W        W91495  26.484  44.973  10.440
19170W        W91496  27.236  13.543  12.794
19171W        W91497  35.660  27.057  13.872
19172W        W91498   4.096  14.799  11.126
19173W        W91499  40.858  43.946   1.892
19174W        W91500   0.398  40.913  11.466
19175W        W91501  44.967   2.489   1.945
19176W        W91502  43.066  36.001  14.526
19177W        W91503  33.482   5.772   1.252
19178W        W91504  20.059  17.151   1.760
19179W        W91505  26.265   6.433  11.340
19180W        W91506  33.581  14.358  10.732
19181W        W91507   4.821   4.751   1.394
19182W        W91508  13.902  23.407  10.725
19183W        W91509  19.613  42.139  12.049
19184W        W91510  16.119  24.992   2.135
19185W        W91511  32.861   6.280   2.677
19186W        W91512  12.355   2.924  12.053
19187W        W91513   0.537  25.059   5.061
19188W        W91514  35.875  25.290  12.547
19189W        W91515   3.797  31.706   2.982
19190W        W91516  11.846  22.552  13.610
19191W        W91517   7.531  39.876   0.725
19192W        W91518  23.152  30.090  12.078
19193W        W91519  12.273  26.629   0.724
19194W        W91520  31.987   6.439   5.020
19195W        W91521  19.826  36.476   3.179
19196W        W91522  39.157  16.762  13.126
19197W        W91523   1.782   7.011  13.866
19198W        W91524   9.868  13.443  14.852
19199W        W91525   4.470  12.018  14.760
19200W        W91526  11.137  25.982  12.653
19201W        W91527  31.180  18.130  11.026
19202W        W91528  18.696  21.773  13.437
19203W        W91529  37.203  12.469   4.493
19204W        W91530  41.983  30.140  13.911
19205W        W91531  32.709  16.182   0.336
19206W        W91532  14.351  10.856  14.413
19207W        W91533  23.210   2.376  11.116
19208W        W91534   7.257  36.032   4.609
19209W        W91535  35.278   0.295   2.638
19210W        W91536   9.689  39.087  11.218
19211W        W91537  36.442  24.764   5.027
19212W        W91538  36.062  33.398  11.412
19213W        W91539  16.010  32.999   3.007
19214W        W91540  16.505  13.579  12.045
19215W        W91541  21.121   4.423  11.103
19216W        W91542  41.935  17.109   9.983
19217W        W91543  30.203  33.341   0.854
19218W        W91544  41.509  29.674   3.933
19219W        W91545   8.245   4.028   0.351
19220W        W91546  34.784   4.902  12.081
19221W        W91547  41.525  20.214  14.387
19222W        W91548  13.639  10.734  12.354
19223W        W91549  16.326  12.103   3.180
19224W        W91550  27.649  29.885  14.940
19225W        W91551   7.437  26.578   3.665
19226W        W91552  23.554   3.064   3.112
19227W        W91553  12.893  25.618   1.859
19228W        W91554  34.570  18.052  10.413
19229W        W91555  18.802  19.057   2.783
19230W        W91556  13.096  25.423  13.997
19231W        W91557   5.649  25.887  12.073
19232W        W91558  25.667  27.595  10.545
19233W        W91559  13.273   8.116  10.583
19234W        W91560  24.205  30.303   3.635
19235W        W91561  39.927  39.089   2.119
19236W        W91562  17.831  36.960  11.599
19237W        W91563  36.102  35.963  11.442
19238W        W91564  13.038   9.107  11.731
19239W        W91565  42.654  23.000   2.790
19240W        W91566  31.873  12.355  13.722
19241W        W91567  25.458   4.212  11.159
19242W        W91568  12.211  20.187   2.159
19243W        W91569  20.069  41.931   1.436
19244W        W91570  38.894  26.303   1.983
19245W        W91571  14.817  35.324  12.583
19246W        W91572   5.487  29.944  11.025
19247W        W91573  11.347  21.807   0.465
19248W        W91574  33.030   8.155  13.968
19249W        W91575  23.098  39.539   9.772
19250W        W91576  13.120   1.482  12.926
19251W        W91577  27.940   8.848   1.392
19252W        W91578  16.713  15.054  11.414
19253W        W91579  34.876  29.593  13.931
19254W        W91580   8.512  39.030   0.470
19255W        W91581  24.537  14.238  14.801
19256W        W91582  16.896  41.020  12.932
19257W        W91583   5.721  40.404   4.053
19258W        W91584  13.643  42.762  11.890
19259W        W91585  28.165   8.735  12.474
19260W        W91586  28.536  11.363  10.641
19261W        W91587  40.542  17.178  13.366
19262W        W91588  25.410  27.041   1.408
19263W        W91589   3.422   7.285   2.140
19264W        W91590  14.175  12.648   1.916
19265W        W91591  35.685  24.796   4.196
19266W        W91592   8.855  18.287   1.115
19267W        W91593  19.167  28.217   2.834
19268W        W91594   6.921  39.898  14.795
19269W        W91595  31.971  35.879  12.838
19270W        W91596  14.332   9.718  14.681
19271W        W91597  11.208  39.479  14.454
19272W        W91598   7.240  27.658  12.946
19273W        W91599  10.147  15.457   0.295
19274W        W91600  38.598  42.871   0.793
19275W        W91601  22.549  44.904  14.408
19276W        W91602  39.400  18.307  11.201
19277W        W91603  42.257  18.820   3.754
19278W        W91604  33.721  13.864  10.211
19279W        W91605  30.567  44.227  10.495
19280W        W91606  27.496  12.725   4.724
19281W        W91607  32.535  27.948  13.820
19282W        W91608  22.016  20.056   3.747
19283W        W91609  25.181  37.425  14.042
19284W        W91610  22.388  20.158  12.135
19285W        W91611   0.776  41.968   2.815
19286W        W91612   2.359  29.560   0.727
19287W        W91613  40.318   9.512  14.747
19288W        W91614  42.992  43.863  10.653
19289W        W91615   2.493  38.656  10.173
19290W        W91616  28.858  43.899  12.251
19291W        W91617  33.072  16.023   4.606
19292W        W91618  40.463  12.236   2.919
19293W        W91619   0.605  20.034   1.861
19294W        W91620   2.649  41.473  11.020
19295W        W91621  30.199   1.070   0.446
19296W        W91622  30.661  18.803   3.121
19297W        W91623  14.266  19.606   0.890
19298W        W91624  27.931   5.844  14.820
19299W        W91625   2.540  21.520   4.611
19300W        W91626  39.103  42.937   3.620
19301W        W91627  31.497  19.719   0.694
19302W        W91628   9.644   6.464  13.839
19303W        W91629  13.263  13.137   1.969
19304W        W91630  38.449   4.870   3.769
19305W        W91631   2.339  30.568   2.073
19306W        W91632  39.134  36.489  14.127
19307W        W91633  17.554  21.511   1.427
19308W        W91634  41.102  27.948   4.676
19309W        W91635  27.633   5.888   1.241
19310W        W91636  36.898   2.927   1.439
19311W        W91637  18.264  17.779   1.943
19312W        W91638  12.867  19.164  12.473
19313W        W91639  44.284  30.925   2.279
19314W        W91640   7.876  42.953  14.492
19315W        W91641  22.210   1.018   4.660
19316W        W91642  43.629   7.475  12.567
19317W        W91643   2.882   8.226  13.454
19318W        W91644   1.440  10.629   4.235
19319W        W91645  13.548  30.265   2.203
19320W        W91646  18.202   9.193  12.875
19321W        W91647  21.805  37.640   4.136
19322W        W91648  32.765  40.170  10.161
19323W        W91649   1.137  27.011   2.827
19324W        W91650   6.262  42.045   1.261
19325W        W91651  13.835   0.616  13.547
19326W        W91652   8.278   8.632   2.659
19327W        W91653   2.919  12.705   1.299
19328W        W91654  32.612  32.603   3.613
19329W        W91655   7.318   5.633   0.731
19330W        W91656  32.454   9.131   0.757
19331W        W91657   6.874  30.185   1.786
19332W        W91658   1.920  17.124  12.532
19333W        W91659   0.727   1.152  13.787
19334W        W91660  16.151  14.049  12.891
19335W        W91661  31.112  38.993  12.598
19336W        W91662  26.385  22.566   2.539
19337W        W91663  30.360  12.236   3.744
19338W        W91664  26.500  21.900  13.029
19339W        W91665  12.847  21.819   3.264
19340W        W91666  31.054  14.194   5.044
19341W        W91667  29.609  11.607   1.451
19342W        W91668  36.425  35.545  10.254
19343W        W91669   9.735  19.949  13.896
19344W        W91670  14.737  21.125  14.688
19345W        W91671  38.083  39.885   0.582
19346W        W91672  34.671  38.403   1.633
19347W        W91673  36.559   5.084   1.865
19348W        W91674  14.659  16.574   2.922
19349W        W91675  24.114  14.447  14.611
19350W        W91676   9.298  34.079   4.660
19351W        W91677  36.377   6.483   4.150
19352W        W91678   9.179  20.150  12.668
19353W        W91679  41.752  38.296   1.609
19354W        W91680  26.259  42.247  12.891
19355W        W91681  12.244  23.974   1.653
19356W        W91682   2.864  35.617   1.851
19357W        W91683   2.791  30.107  12.979
19358W        W91684  22.672  42.389  12.566
19359W        W91685  33.843  15.421   3.110
19360W        W91686  30.164  39.002   0.736
19361W        W91687  24.457  28.960  10.712
19362W        W91688  34.587  21.432   3.062
19363W        W91689  16.306  26.250   1.817
19364W        W91690  25.204  24.031   4.520
19365W        W91691   3.766  29.464  14.541
19366W        W91692  22.817  13.065  12.109
19367W        W91693  23.364  43.550   3.370
19368W        W91694  34.112  19.084   4.449
19369W        W91695  12.264  15.702  13.513
19370W        W91696   8.933  18.108   0.592
19371W        W91697  44.836  39.565  10.593
19372W        W91698  40.547  44.540   4.692
19373W        W91699   4.820   8.388   4.095
19374W        W91700  31.177   7.461   1.876
19375W        W91701  25.067   7.238  12.487
19376W        W91702   7.852  38.125   1.686
19377W        W91703  29.781  33.463  11.895
19378W        W91704  15.794  12.154  12.534
19379W        W91705  44.922  11.092   3.268
19380W        W91706  17.292  34.639  13.300
19381W        W91707  22.235  29.154  11.559
19382W        W91708   3.920  40.651  14.009
19383W        W91709  21.570  39.583  14.009
19384W        W91710  18.111  22.450  11.959
19385W        W91711  17.834  39.452   3.141
19386W        W91712  20.539   7.647  11.601
19387W        W91713  42.607  10.593   4.121
19388W        W91714  37.805  34.179  12.053
19389W        W91715  24.071  28.458  13.343
19390W        W91716  44.107  25.018   3.998
19391W        W91717  13.288   3.103  11.987
19392W        W91718  17.219  41.111   4.657
19393W        W91719   4.344  21.779   1.574
19394W        W91720   8.832  41.048  12.987
19395W        W91721  20.584  11.084   3.006
19396W        W91722  38.300   6.528  12.855
19397W        W91723  38.807  25.906   4.032
19398W        W91724  24.573  25.691   4.714
19399W        W91725  14.789  13.026  14.449
19400W        W91726   4.985   0.907   4.203
19401W        W91727  36.122   1.167  14.620
19402W        W91728  44.930  19.564   1.070
19403W        W91729  27.280   4.127   1.057
19404W        W91730  41.931  34.970   1.932
19405W        W91731  32.694  18.586  13.377
19406W        W91732   2.653  18.959  12.096
19407W        W91733  42.346  29.168  10.642
19408W        W91734  31.382  43.419  12.489
19409W        W91735  30.517  11.640  14.240
19410W        W91736  15.344  16.117   3.183
19411W        W91737   4.301  17.314   0.041
19412W        W91738  27.296  44.024   4.654
19413W        W91739  35.153  24.216   0.750
19414W        W91740  30.452  43.814   3.644
19415W        W91741  32.061   0.421   4.440
19416W        W91742   1.824  31.187   4.017
19417W        W91743  12.026  12.665  12.039
19418W        W91744  14.095  40.603   1.919
19419W        W91745  26.542  15.097  13.982
19420W        W91746   2.071  32.435   4.633
19421W        W91747  30.497  30.103   2.197
19422W        W91748  23.004  41.960  10.483
19423W        W91749  39.203  32.903   3.451
19424W        W91750  40.645  22.947   0.563
19425W        W91751   4.700   5.780  14.346
19426W        W91752  38.492  23.265  13.990
19427W        W91753  37.509  38.800   4.640
19428W        W91754  28.074  29.010  14.538
19429W        W91755  36.839   3.418  14.330
19430W        W91756  19.670   3.375   4.803
19431W        W91757  34.780  42.222  11.805
19432W        W91758  36.524  30.478   3.604
19433W        W91759  28.006  33.830   2.776
19434W        W91760  38.907  19.881   4.726
19435W        W91761  14.557  33.327  12.517
19436W        W91762   2.883   0.671   2.764
19437W        W91763  34.218  28.438  10.571
19438W        W91764   5.455  13.691  11.591
19439W        W91765  28.887  41.796  12.472
19440W        W91766   8.356  38.417   0.381
19441W        W91767  35.110  31.623   2.842
19442W        W91768   3.701  40.879  10.972
19443W        W91769  33.044  40.049   2.665
19444W        W91770  13.600   7.664  11.442
19445W        W91771  24.481  14.234   0.777
19446W        W91772  37.895  25.280  14.748
19447W        W91773  36.974   4.256   1.643
19448W        W91774  33.440  12.605   2.654
19449W        W91775  23.106  37.845   0.442
19450W        W91776   9.015  25.785  14.534
19451W        W91777  36.115  36.337   0.356
19452W        W91778  39.878  26.445  11.100
19453W        W91779  23.931  30.366   2.777
19454W        W91780   1.043  28.483  12.068
19455W        W91781  22.713  38.784  14.526
19456W        W91782  37.103   2.449   1.463
19457W        W91783  34.248  12.746  11.138
19458W        W91784   7.841  11.396   0.752
19459W        W91785  31.563  22.117  12.633
19460W        W91786  19.739  34.044  11.737
19461W        W91787  18.137   1.211   0.399
19462W        W91788  13.309  38.171  11.755
19463W        W91789   2.985  38.009  13.294
19464W        W91790  34.327  36.429  12.909
19465W        W91791  22.924   5.357  12.998
19466W        W91792   0.436   6.159  14.899
19467W        W91793  43.936  40.367   3.389
19468W        W91794  25.471  40.973   1.232
19469W        W91795  23.868   8.595   5.045
19470W        W91796   1.515   9.888  10.707
19471W        W91797  21.055  16.927   4.606
19472W        W91798  37.035  16.768   4.781
19473W        W91799  44.021  33.631   0.907
19474W        W91800  31.888  41.777  11.029
19475W        W91801  37.984   3.951   1.322
19476W        W91802  34.337  33.100  13.676
19477W        W91803  34.506   7.063  14.607
19478W        W91804  27.540  28.903   2.414
19479W        W91805  32.126   9.634   2.050
19480W        W91806  22.949  17.185   3.576
19481W        W91807  29.911  23.124   3.248
19482W        W91808  22.599  13.345  11.136
19483W        W91809   9.086  24.436  13.996
19484W        W91810  21.709   6.747   3.596
19485W        W91811  37.515  24.605  14.009
19486W        W91812  37.975  23.959  12.925
19487W        W91813  26.971  42.281  14.104
19488W        W91814  24.764   0.678   4.604
19489W        W91815  36.476   3.570   4.111
19490W        W91816  22.144  30.666   2.318
19491W        W91817   7.427  20.283  12.045
19492W        W91818  31.239  42.961  10.441
19493W        W91819  26.686  22.380  14.942
19494W        W91820   4.436  43.452   2.362
19495W        W91821  20.135  21.753   4.834
19496W        W91822  34.032  31.102   4.696
19497W        W91823  40.732  15.169  12.833
19498W        W91824  12.630  18.204   3.894
19499W        W91825   3.190  18.739  12.976
19500W        W91826   9.768  43.784   0.482
19501W        W91827  24.608  26.373  12.858
19502W        W91828  16.065  15.022  11.988
19503W        W91829  11.630  44.798   1.930
19504W        W91830   0.999   1.299  14.726
19505W        W91831  39.268  12.431  11.704
19506W        W91832  28.404  40.646  14.530
19507W        W91833  29.089  13.840  13.750
19508W        W91834  20.292   9.406  14.768
19509W        W91835   8.007  20.218   1.851
19510W        W91836  17.758  29.390   1.499
19511W        W91837  39.415  32.843   1.289
19512W        W91838  14.658  44.230  11.831
19513W        W91839  40.681  24.946   3.271
19514W        W91840  11.820  15.581  13.793
19515W        W91841   2.820  33.029   3.881
19516W        W91842  25.900  20.172  11.140
19517W        W91843  38.520   3.940   3.766
19518W        W91844  44.442   3.423   0.337
19519W        W91845  41.720  36.395  13.481
19520W        W91846  40.478  15.636   0.419
19521W        W91847   4.357   7.783  14.721
19522W        W91848   1.458  40.344   0.809
19523W        W91849  23.636  31.384   2.913
19524W        W91850  18.033  11.884   2.718
19525W        W91851  39.264   3.486  13.457
19526W        W91852  24.714  26.630   1.229
19527W        W91853  38.605   8.363  12.086
19528W        W91854  40.741  41.831   3.156
19529W        W91855  16.986  14.231  13.008
19530W        W91856  29.906   3.457   1.691
19531W        W91857   2.827  34.091   1.371
19532W        W91858  17.045  10.665  11.921
19533W        W91859   8.303  41.896  12.532
19534W        W91860  37.992  31.438  14.711
19535W        W91861   1.779  40.272  12.828
19536W        W91862   8.266  16.105   3.888
19537W        W91863   0.948  25.455   1.043
19538W        W91864  10.699   1.054   3.731
19539W        W91865  21.974  37.328   3.147
19540W        W91866  27.048  30.827  13.937
19541W        W91867  41.416  12.554   0.314
19542W        W91868  43.633  34.428   1.604
19543W        W91869   1.978  14.934   4.681
19544W        W91870   6.909  18.714  11.603
19545W        W91871  11.137  18.824  13.396
19546W        W91872  25.613   1.785   3.011
19547W        W91873  23.689   9.580  13.073
19548W        W91874   0.797  22.543   9.965
19549W        W91875  31.036  29.961  14.053
19550W        W91876  39.302  18.554  13.421
19551W        W91877  35.248  10.718   4.544
19552W        W91878  20.878  36.321   2.206
19553W        W91879  22.683  41.559   1.986
19554W        W91880   8.215  13.447   3.184
19555W        W91881  27.009  44.005  13.767
19556W        W91882   2.331  15.287  12.160
19557W        W91883  44.692  38.602  12.491
19558W        W91884  28.504  43.460  10.487
19559W        W91885  29.792  18.438   1.159
19560W        W91886  38.016  42.306  12.467
19561W        W91887   8.956  39.691  11.161
19562W        W91888  37.300  35.542  11.203
19563W        W91889   0.413  24.017   3.903
19564W        W91890  43.276  18.833   3.755
19565W        W91891  38.079   5.490   1.418
19566W        W91892  21.622   9.784   0.815
19567W        W91893  39.073  37.016  11.731
19568W        W91894   2.816  28.161   0.782
19569W        W91895  41.043  20.506  11.455
19570W        W91896  29.286  44.398  10.447
19571W        W91897  26.038  19.963   1.713
19572W        W91898  32.482   1.705  12.081
19573W        W91899  39.671  11.261  14.832
19574W        W91900   0.932  36.914  14.797
19575W        W91901  15.875   5.681   3.778
19576W        W91902  38.392  31.989  10.862
19577W        W91903  43.373   9.338  12.940
19578W        W91904  16.257  26.979  14.348
19579W        W91905   8.822  20.320   3.797
19580W        W91906  28.136  22.533  12.966
19581W        W91907  27.472  41.739   1.758
19582W        W91908  28.917   5.362  11.509
19583W        W91909   2.309   6.081   4.173
19584W        W91910  43.094  33.048   4.720
19585W        W91911   6.731  12.519  13.968
19586W        W91912  17.137  31.402  13.139
19587W        W91913  43.530   1.184  10.791
19588W        W91914  24.944   8.692  13.812
19589W        W91915  39.006  42.260  12.321
19590W        W91916  24.029  18.264  14.397
19591W        W91917  42.355  16.193   1.391
19592W        W91918  12.753  28.184   3.878
19593W        W91919   7.285   8.654   2.620
19594W        W91920  17.369  18.451   2.208
19595W        W91921  42.709   0.354   0.863
19596W        W91922  28.087  25.255   4.050
19597W        W91923   9.860  20.537  13.074
19598W        W91924  11.258  33.491  12.036
19599W        W91925   1.307  20.691  14.883
19600W        W91926  18.245   9.501  11.055
19601W        W91927  37.866  25.731  10.627
19602W        W91928  29.123   0.792  10.904
19603W        W91929   7.318   2.130  12.070
19604W        W91930  33.964  10.240  13.943
19605W        W91931  42.243   8.265  10.644
19606W        W91932  23.326  34.416  14.815
19607W        W91933  27.064  16.252  11.516
19608W        W91934   5.564   1.366   2.713
19609W        W91935   8.761  39.082   2.915
19610W        W91936  15.839  19.408   4.895
19611W        W91937  36.346  25.976  13.952
19612W        W91938  30.871   1.586   4.055
19613W        W91939   8.937  35.018  12.390
19614W        W91940  21.003   1.972  13.964
19615W        W91941  16.727   0.039  14.034
19616W        W91942  41.085  31.236   3.379
19617W        W91943  41.279  13.198  12.004
19618W        W91944   3.333  25.804   1.301
19619W        W91945  26.511  10.078   1.508
19620W        W91946   7.855   3.208  13.589
19621W        W91947  14.856   2.412   2.855
19622W        W91948  39.155  27.134  14.697
19623W        W91949  40.802  15.989   2.717
19624W        W91950  20.986  33.833  10.595
19625W        W91951   3.795  29.892   3.676
19626W        W91952  37.097  38.363   4.113
19627W        W91953   7.895   5.982   1.275
19628W        W91954  19.217  31.499   1.201
19629W        W91955  23.045  39.784  14.639
19630W        W91956  44.948  25.262  11.244
19631W        W91957  36.372  28.675  13.916
19632W        W91958   5.951   3.281  10.757
19633W        W91959  20.288   2.218  11.157
19634W        W91960  41.273  35.035   0.033
19635W        W91961  39.494  20.571   0.758
19636W        W91962  33.617   4.855   4.815
19637W        W91963   8.901  41.322   3.664
19638W        W91964  13.585  37.559   0.957
19639W        W91965  37.298  27.675   3.578
19640W        W91966  13.672   8.652   3.562
19641W        W91967  29.264   4.242   1.320
19642W        W91968  29.494   0.286  14.391
19643W        W91969  37.325  26.705  12.839
19644W        W91970   4.396  41.237  11.869
19645W        W91971  16.317   7.814   1.777
19646W        W91972  26.928  10.645   1.833
19647W        W91973  17.210  36.172   4.553
19648W        W91974  27.348  35.623  10.784
19649W        W91975   9.391  37.845   4.693
19650W        W91976  15.564   5.665  11.565
19651W        W91977  39.008  36.425   0.390
19652W        W91978  15.990  43.978   3.308
19653W        W91979   7.584  14.716   3.248
19654W        W91980  17.775   5.216   0.004
19655W        W91981  44.864  39.484   2.299
19656W        W91982  11.072   0.010   0.233
19657W        W91983   4.224   5.424   2.358
19658W        W91984   5.742  25.386  14.785
19659W        W91985   5.719   8.207  10.792
19660W        W91986  17.228  35.104   0.520
19661W        W91987  42.249  31.871   0.286
19662W        W91988  18.146  34.972   0.092
19663W        W91989   0.914   3.332  10.569
19664W        W91990  17.261  39.420   2.451
19665W        W91991  36.661  21.481  14.947
19666W        W91992  19.133  37.996  13.517
19667W        W91993  26.872  15.869   5.051
19668W        W91994   1.960  43.759  13.485
19669W        W91995  13.683  39.845  14.026
19670W        W91996  32.057  31.005   3.257
19671W        W91997  42.262   3.914   2.856
19672W        W91998  13.287  32.472   3.049
19673W        W91999  19.086  22.599   5.084
19674W        W92000  19.017  10.332  13.125
19675W        W92001  33.972  14.864   0.548
19676W        W92002  34.830  12.046   4.580
19677W        W92003  15.255  10.614   4.728
19678W        W92004   7.468  30.965   2.282
19679W        W92005  37.827  38.404   2.730
19680W        W92006  32.688  38.273   3.657
19681W        W92007  38.637   0.036   3.775
19682W        W92008  33.747  20.500   4.879
19683W        W92009  31.769  33.102  13.496
19684W        W92010   9.852  24.177  11.958
19685W        W92011  35.965  25.003  13.000
19686W        W92012  44.547   1.894   1.270
19687W        W92013   8.896  42.465  14.400
19688W        W92014  36.448  21.645   3.077
19689W        W92015  36.498   8.694   4.591
19690W        W92016   2.248  21.183  14.820
19691W        W92017  41.317   0.960  11.070
19692W        W92018  24.877  31.642   3.379
19693W        W92019   5.206  31.345   2.850
19694W        W92020  33.980  35.144  13.164
19695W        W92021  18.477  44.993  11.122
19696W        W92022  18.200  38.172   3.591
19697W        W92023  13.950  16.051  14.357
19698W        W92024  25.981  42.813  12.206
19699W        W92025   1.845   5.792   3.231
19700W        W92026   5.213  34.879   0.606
19701W        W92027   0.166  18.818  13.979
19702W        W92028  16.397   7.271  11.635
19703W        W92029   7.383  18.058   0.652
19704W        W92030  37.354   9.850  13.991
19705W        W92031  22.549  38.465   0.324
19706W        W92032   1.647  18.725  14.153
19707W        W92033  27.067  40.245  12.035
19708W        W92034  36.887  18.662  12.646
19709W        W92035  35.239   7.421  11.709
19710W        W92036   0.882  38.800  12.478
19711W        W92037  22.705  14.461   4.583
19712W        W92038  40.828  22.655   2.556
19713W        W92039  29.602  34.664  10.577
19714W        W92040  44.458   6.409  14.475
19715W        W92041  29.138  25.644   4.793
19716W        W92042  18.222  25.581  11.937
19717W        W92043  18.073   9.642   0.020
19718W        W92044  40.130  22.691  10.578
19719W        W92045  10.808  24.940   1.051
19720W        W92046  40.826  19.059  13.442
19721W        W92047  36.837  39.295  12.253
19722W        W92048  29.911  27.089  14.619
19723W        W92049  33.812   4.360   2.685
19724W        W92050  20.710  42.102   0.782
19725W        W92051   9.162   4.750   2.777
19726W        W92052  16.529  15.852   1.285
19727W        W92053  39.988   6.048  14.171
19728W        W92054  10.731   3.142   3.126
19729W        W92055  38.909  36.967  11.244
19730W        W92056  38.830  26.268  14.684
19731W        W92057  35.402  30.601   0.534
19732W        W92058  11.730  35.351  11.203
19733W        W92059  14.156  17.051   1.719
19734W        W92060  30.739   0.888   4.711
19735W        W92061   3.752  43.012  10.609
19736W        W92062  35.905  21.618  13.895
19737W        W92063  14.725  17.030   2.690
19738W        W92064  25.922  29.249   2.302
19739W        W92065  13.762  22.199  14.671
19740W        W92066  22.650  12.047   4.147
19741W        W92067   7.262   8.840  14.685
19742W        W92068  17.262  40.618  13.935
19743W        W92069  17.332  44.908   2.696
19744W        W92070   2.012  16.239   4.658
19745W        W92071  22.625   6.463  14.971
19746W        W92072  28.062  42.071   0.501
19747W        W92073  16.142  29.568   2.181
19748W        W92074  24.002  31.584   1.803
19749W        W92075  43.094  32.106   0.723
19750W        W92076  16.025  21.662  14.433
19751W        W92077  44.976  20.644  13.867
19752W        W92078  37.851   5.462   1.910
19753W        W92079  35.491  33.873  13.325
19754W        W92080  13.911  13.597  14.433
19755W        W92081  41.210  20.356   2.763
19756W        W92082  26.487  18.532   4.629
19757W        W92083  42.982  27.265   0.440
19758W        W92084   1.469  29.376  13.911
19759W        W92085   8.949  32.581  12.499
19760W        W92086  24.202  39.760  14.775
19761W        W92087   8.376  40.366   1.500
19762W        W92088   8.861  29.901  13.330
19763W        W92089   8.491   0.890  14.427
19764W        W92090   4.704  22.879   4.256
19765W        W92091  42.056  21.479  13.341
19766W        W92092   2.011  37.600  11.085
19767W        W92093  43.589   3.518  13.036
19768W        W92094  23.534   5.804   4.609
19769W        W92095  26.779  31.437  11.049
19770W        W92096  22.973  39.509   4.198
19771W        W92097  16.210  33.805  13.057
19772W        W92098  14.556  27.678  13.353
19773W        W92099   0.396  18.229   3.424
19774W        W92100  16.367  17.258  13.426
19775W        W92101  32.895  22.579   2.769
19776W        W92102   4.885  16.638   2.106
19777W        W92103  15.634  14.464   2.661
19778W        W92104  15.539   2.279  14.360
19779W        W92105  17.544  13.244   0.828
19780W        W92106  28.976   9.431   1.236
19781W        W92107  20.048  31.335  10.780
19782W        W92108  25.514  21.474   3.102
19783W        W92109  28.213  11.678  11.000
19784W        W92110  25.762   3.318   3.852
19785W        W92111  18.326  25.151  14.031
19786W        W92112  38.574   1.207   2.340
19787W        W92113  43.703  35.124   4.099
19788W        W92114   6.730  35.932   2.842
19789W        W92115   5.430   6.776  10.500
19790W        W92116  26.260   0.802  14.427
19791W        W92117  13.510  28.998  11.141
19792W        W92118  22.244  40.856  11.918
19793W        W92119   6.871  29.671   1.738
19794W        W92120  26.870  35.877   2.648
19795W        W92121  12.643  29.694   1.435
19796W        W92122  28.620  25.616   0.033
19797W        W92123   4.903   0.739  14.889
19798W        W92124  20.251   5.912   4.625
19799W        W92125  33.023   3.150   4.547
19800W        W92126   2.104  17.263   3.454
19801W        W92127  19.991   0.502  10.697
19802W        W92128  39.795  39.443   4.194
19803W        W92129  20.670  40.755  10.932
19804W        W92130  26.100  26.256   3.176
19805W        W92131   9.929   3.977  13.943
19806W        W92132   2.772   8.671  10.117
19807W        W92133  40.423  18.144   0.241
19808W        W92134  16.549  35.597  12.344
19809W        W92135  23.152  16.910  12.397
19810W        W92136  22.306  30.844   3.747
19811W        W92137  23.102  40.585  12.895
19812W        W92138  28.933  29.117  13.067
19813W        W92139  19.938  22.669  14.445
19814W        W92140  13.685  28.991   4.135
19815W        W92141  44.276   5.869   1.337
19816W        W92142  43.328  29.011   2.431
19817W        W92143   8.423  27.617  12.481
19818W        W92144  34.729  42.408   3.126
19819W        W92145  38.398   5.854  14.744
19820W        W92146   2.119  26.471   0.364
19821W        W92147  11.066  10.276   1.869
19822W        W92148  16.321  11.833   0.796
19823W        W92149  37.009  11.496  12.469
19824W        W92150  44.001  36.482  13.735
19825W        W92151  18.549  25.229  12.092
19826W        W92152  21.176   6.110  14.744
19827W        W92153  10.614  10.254   3.222
19828W        W92154   8.179  13.946   3.103
19829W        W92155  42.756  27.825  12.060
19830W        W92156   7.937  21.208   0.840
19831W        W92157  21.198   8.732  14.999
19832W        W92158  34.120  28.105   1.268
19833W        W92159  15.843  22.657  14.831
19834W        W92160  38.895  42.187   3.131
19835W        W92161  23.011  42.817   4.126
19836W        W92162  37.075  44.394   4.153
19837W        W92163  31.470   2.686  13.633
19838W        W92164  29.950  11.275  12.885
19839W        W92165  29.003  24.763   4.127
19840W        W92166  11.733  17.320  11.480
19841W        W92167  17.029  33.090  11.629
19842W        W92168  27.667  12.164   0.935
19843W        W92169  22.427  11.397  12.387
19844W        W92170  41.805  22.617  14.561
19845W        W92171  36.373  37.859   2.929
19846W        W92172   0.351  12.651   0.429
19847W        W92173  37.060  21.693   0.566
19848W        W92174  44.648  37.852   0.737
19849W        W92175  32.454  40.401   4.773
19850W        W92176  40.542  16.951  10.502
19851W        W92177  17.265  16.640  12.537
19852W        W92178  27.203  44.852  14.763
19853W        W92179  44.495   5.955  12.352
19854W        W92180   6.282  16.198   1.480
19855W        W92181  12.342  24.684   4.712
19856W        W92182   9.212   6.827   0.874
19857W        W92183  35.049  18.587   2.608
19858W        W92184   7.304  16.989  13.145
19859W        W92185   0.935  27.585   1.275
19860W        W92186  41.981  11.599  14.195
19861W        W92187  26.739   1.934  11.553
19862W        W92188  29.019  11.128  12.889
19863W        W92189  18.752  28.208   4.178
19864W        W92190  16.330  16.177  14.905
19865W        W92191  39.993  10.262   4.123
19866W        W92192  40.277  44.279   3.676
19867W        W92193   5.691   3.067   2.659
19868W        W92194  18.859  34.626   1.268
19869W        W92195  29.057  44.953   3.356
19870W        W92196  29.401  24.759   2.316
19871W        W92197   6.275  20.607  14.825
19872W        W92198  14.082  20.457  14.888
19873W        W92199  14.778  41.180   2.825
19874W        W92200  10.220  24.145   1.825
19875W        W92201  28.525  23.702  11.889
19876W        W92202   1.145  26.411  10.349
19877W        W92203  31.069   0.362   2.859
19878W        W92204  44.522  26.895  14.994
19879W        W92205  44.555  16.874  12.052
19880W        W92206  14.996  33.961  13.265
19881W        W92207  15.838  11.373  14.046
19882W        W92208  43.173  23.999  11.952
19883W        W92209  15.837   9.274   0.898
19884W        W92210  16.186   2.083   3.614
19885W        W92211  21.729   1.368  11.350
19886W        W92212  13.889  13.081   0.783
19887W        W92213  28.118  26.372   4.593
19888W        W92214   0.881  19.701   2.401
19889W        W92215  12.717  31.106   1.618
19890W        W92216  29.340  34.230  12.541
19891W        W92217   3.743   7.632   1.909
19892W        W92218  34.449  34.888  14.802
19893W        W92219  16.405  20.330   1.212
19894W        W92220  39.183  27.562  13.967
19895W        W92221  23.205  30.878  13.719
19896W        W92222  23.416   2.369   0.808
19897W        W92223  20.154  16.774  14.484
19898W        W92224  19.278  41.969   4.161
19899W        W92225  18.677  40.274  11.206
19900W        W92226  41.860  36.945  12.029
19901W        W92227  14.101  38.904   2.804
19902W        W92228  17.304   5.924   0.377
19903W        W92229  26.649  38.675  10.582
19904W        W92230  20.824  43.836  13.797
19905W        W92231   2.942  44.986  11.083
19906W        W92232  11.094  23.167   3.794
19907W        W92233  29.723  27.416   3.397
19908W        W92234  19.877  26.081   3.613
19909W        W92235  11.825  13.130  13.147
19910W        W92236  11.953  15.172   4.631
19911W        W92237  33.590  19.072  14.938
19912W        W92238  38.331   5.259   2.768
19913W        W92239  13.890   8.483  14.409
19914W        W92240   0.333  17.114   0.372
19915W        W92241  44.748  28.464   3.140
19916W        W92242  25.158  38.157  10.870
19917W        W92243  37.517  26.070  14.510
19918W        W92244  40.888  35.367   0.044
19919W        W92245  30.911   3.169  11.190
19920W        W92246   6.684  34.343  10.453
19921W        W92247  33.998  42.986   2.364
19922W        W92248   5.047  44.163  10.334
19923W        W92249   4.475   2.493  11.438
19924W        W92250  37.927   0.393  13.133
19925W        W92251  36.424   9.784   2.913
19926W        W92252  18.659   7.379  12.040
19927W        W92253  33.336  29.693   5.006
19928W        W92254  42.945   9.277   3.335
19929W        W92255   0.828  38.953   0.263
19930W        W92256  42.317  35.025   1.207
19931W        W92257  10.706   1.963  11.654
19932W        W92258  29.000  40.426  11.530
19933W        W92259  24.419  38.909   0.010
19934W        W92260   4.396  14.645   0.817
19935W        W92261  25.414  26.488   2.649
19936W        W92262  43.012  38.511   1.354
19937W        W92263  30.541  25.820   5.109
19938W        W92264  22.113  40.163  13.639
19939W        W92265  11.767  12.578  10.680
19940W        W92266   6.795   4.868  13.051
19941W        W92267  31.222   7.376  11.051
19942W        W92268  24.979   8.839   4.291
19943W        W92269  23.952   9.974  13.289
19944W        W92270  20.105  38.629  14.966
19945W        W92271   9.420  25.384  10.424
19946W        W92272   6.446  16.892  11.232
19947W        W92273  20.604  20.589  12.309
19948W        W92274  34.954  31.928  12.979
19949W        W92275   0.367  22.686  11.844
19950W        W92276  10.586  14.709   4.625
19951W        W92277  41.729   6.235  10.740
19952W        W92278  29.410  28.065  14.017
19953W        W92279  11.294   8.610  11.427
19954W        W92280  34.957  20.312  12.398
19955W        W92281  43.884  10.115   0.874
19956W        W92282   6.717  17.560   4.470
19957W        W92283  12.072  22.087  14.213
19958W        W92284  30.835   2.457   4.976
19959W        W92285  22.570  12.077   0.333
19960W        W92286   6.143  27.147   0.411
19961W        W92287  25.163  23.435   0.790
19962W        W92288  18.755  13.773  13.117
19963W        W92289  43.340  28.404  10.970
19964W        W92290  10.791   2.233   4.550
19965W        W92291  26.604  34.889   0.988
19966W        W92292   5.417  27.704  14.948
19967W        W92293  18.521  28.030  14.450
19968W        W92294  39.986  38.149  12.850
19969W        W92295  24.547   5.402  14.873
19970W        W92296  30.187   5.197  11.030
19971W        W92297   6.691   4.806   0.786
19972W        W92298  24.233  11.137   4.339
19973W        W92299  33.543   1.153  10.372
19974W        W92300   2.743   7.686   0.703
19975W        W92301   9.304  28.039   4.040
19976W        W92302  42.222  19.241  14.439
19977W        W92303  41.392  32.728   4.000
19978W        W92304  26.690  27.605  12.812
19979W        W92305  25.362  35.123  10.997
19980W        W92306  12.818   8.210   4.688
19981W        W92307  44.486  42.389   1.741
19982W        W92308  29.978   3.310  11.120
19983W        W92309  27.149  27.674   0.400
19984W        W92310  11.778  28.373   1.041
19985W        W92311  22.198  36.894  12.080
19986W        W92312   7.064  19.144   1.995
19987W        W92313  40.532  24.014   2.447
19988W        W92314  42.581   4.877   1.502
19989W        W92315  22.275  37.195   3.653
19990W        W92316   5.077  35.041   1.080
19991W        W92317  13.271  30.087   1.345
19992W        W92318  24.239  39.468  13.361
19993W        W92319  31.136   3.859   1.257
19994W        W92320  33.409   0.804  12.569
19995W        W92321  32.439   4.341  11.589
19996W        W92322  22.995  38.323  14.414
19997W        W92323  29.887   2.807   2.287
19998W        W92324   9.730  19.725  10.747
19999W        W92325  31.719   7.793   2.321
20000W        W92326  21.083  38.135  14.158
20001W        W92327  32.521  13.056  12.622
20002W        W92328  24.589   2.349   3.781
20003W        W92329   0.283   6.990   4.655
20004W        W92330  30.578  15.123  13.136
20005W        W92331  43.029  31.691   3.760
20006W        W92332  14.589   3.855  12.486
20007W        W92333  38.343  12.776   3.752
20008W        W92334  30.037  41.191  14.007
20009W        W92335  15.638   8.497   2.511
20010W        W92336  38.134  35.557  10.782
20011W        W92337  21.552   6.516   4.031
20012W        W92338  35.780  18.462   1.459
20013W        W92339  25.477   4.776  14.636
20014W        W92340  11.860  43.920   2.422
20015W        W92341  23.630  26.311  14.308
20016W        W92342  17.619  32.621  14.905
20017W        W92343   2.717  12.288   9.553
20018W        W92344  41.791  28.414  10.726
20019W        W92345   5.908  37.088  11.749
20020W        W92346  20.403  14.836   1.709
20021W        W92347  32.866  29.386  11.417
20022W        W92348   9.065  24.075  14.946
20023W        W92349  25.654  16.696   4.128
20024W        W92350  19.008  14.393  14.470
20025W        W92351  36.367   7.309   0.236
20026W        W92352  29.030  12.869   3.352
20027W        W92353   0.480   5.507   1.122
20028W        W92354  22.157  27.335   3.343
20029W        W92355   0.429   3.484  12.439
20030W        W92356  13.753  15.795  14.779
20031W        W92357  20.278  14.214   2.875
20032W        W92358  15.126  22.298  14.007
20033W        W92359   7.316  19.999   0.837
20034W        W92360   7.887   9.862   4.619
20035W        W92361   1.230  14.142  13.348
20036W        W92362   3.510  26.217  13.502
20037W        W92363  17.190  31.947   0.864
20038W        W92364  24.062   5.136   4.202
20039W        W92365  11.209  31.911  10.972
20040W        W92366  25.176   3.840   1.252
20041W        W92367  15.025  23.968   3.197
20042W        W92368  37.482  23.695  14.806
20043W        W92369  44.764   6.862   3.532
20044W        W92370  39.770  31.373  12.731
20045W        W92371  26.559  36.615   1.215
20046W        W92372  30.522  37.993  10.889
20047W        W92373  29.531  14.279   5.407
20048W        W92374   4.438  31.953  11.909
20049W        W92375  36.323  18.282   2.808
20050W        W92376  23.912   6.174  10.344
20051W        W92377  25.011  37.547   2.410
20052W        W92378  39.010  38.035  11.664
20053W        W92379   5.334   7.839   4.570
20054W        W92380  42.995  20.060  10.440
20055W        W92381  12.659  34.436   0.187
20056W        W92382  34.862  41.550   3.396
20057W        W92383  41.409  44.244   3.321
20058W        W92384  39.260   0.418   4.204
20059W        W92385  19.230  17.398  12.453
20060W        W92386   2.031   5.797   3.733
20061W        W92387  19.759  43.080  13.021
20062W        W92388   1.453   8.766  12.329
20063W        W92389   7.161  24.200   1.420
20064W        W92390   4.696  16.103  14.309
20065W        W92391   9.330  44.707  10.229
20066W        W92392  20.598  41.894   4.764
20067W        W92393   7.088  20.166  11.192
20068W        W92394  20.742  30.466   2.304
20069W        W92395  42.290  12.353  11.964
20070W        W92396  29.697  44.169  10.714
20071W        W92397  21.183  13.336  11.189
20072W        W92398  31.499  22.028  14.578
20073W        W92399  26.752  43.815   0.314
20074W        W92400  43.538  13.560   4.953
20075W        W92401   1.770  29.455  14.420
20076W        W92402  41.305   1.591   2.365
20077W        W92403  30.551  43.452   1.018
20078W        W92404  21.051  19.798   1.531
20079W        W92405  14.670   4.713   3.122
20080W        W92406  20.018  33.390  11.638
20081W        W92407   3.219   7.367  10.678
20082W        W92408  35.843  26.394   3.685
20083W        W92409  27.357   6.196  14.430
20084W        W92410  11.751   2.258  10.499
20085W        W92411  22.100  29.180   2.388
20086W        W92412  35.245  11.652  12.064
20087W        W92413   7.725  28.737  11.685
20088W        W92414  20.000  34.994  13.900
20089W        W92415  22.621  23.742  12.862
20090W        W92416   1.287  34.921   5.006
20091W        W92417  26.979  44.053  10.636
20092W        W92418  18.822  35.812  10.734
20093W        W92419   2.799  33.364  12.459
20094W        W92420  17.006  30.293  14.539
20095W        W92421  27.227  11.135  13.818
20096W        W92422  31.899  18.139  12.077
20097W        W92423  19.304  15.293  12.812
20098W        W92424  43.945  19.300   2.269
20099W        W92425  44.507  44.378  14.720
20100W        W92426  34.523   0.824  14.841
20101W        W92427  30.237  35.057  13.263
20102W        W92428   8.594   1.654   2.841
20103W        W92429   4.861  30.102   0.851
20104W        W92430  12.152  21.754   1.065
20105W        W92431   3.307  35.062   0.051
20106W        W92432  31.221  42.075   4.838
20107W        W92433  41.249  29.526  13.640
20108W        W92434  19.785   2.981  12.553
20109W        W92435  33.026  14.908   2.858
20110W        W92436   6.936  34.976   4.284
20111W        W92437   5.451  37.098   1.884
20112W        W92438  27.249  39.488   4.767
20113W        W92439  43.778  43.088  12.495
20114W        W92440  31.501  44.772   2.884
20115W        W92441  27.055   7.635   4.117
20116W        W92442  17.823  38.365  11.543
20117W        W92443  40.273   3.197  10.318
20118W        W92444   1.469   6.262   4.345
20119W        W92445  36.554  30.939  12.940
20120W        W92446   9.882  22.548  11.111
20121W        W92447  14.649  11.891   2.411
20122W        W92448  11.128  15.467   3.778
20123W        W92449  44.212  32.380  11.479
20124W        W92450  38.797  28.179   2.353
20125W        W92451   5.981  14.141  12.883
20126W        W92452   1.325   3.141   1.213
20127W        W92453  13.636  13.347  11.143
20128W        W92454  27.554  27.404   0.185
20129W        W92455  29.494  16.544   4.550
20130W        W92456  11.868  32.122   0.414
20131W        W92457  40.175  27.180   2.812
20132W        W92458   7.175  28.664   0.024
20133W        W92459  16.364   4.411   0.719
20134W        W92460  44.995  20.011   4.069
20135W        W92461   7.114  15.296  14.766
20136W        W92462  28.618  16.030  10.622
20137W        W92463   5.409   0.272  13.135
20138W        W92464  38.726  19.408  11.750
20139W        W92465  19.172  42.735   0.758
20140W        W92466   8.269  12.791  14.262
20141W        W92467  20.826  13.725  13.385
20142W        W92468   9.447  32.944  14.101
20143W        W92469  35.854   3.794  12.975
20144W        W92470  21.621   8.493  13.492
20145W        W92471  20.017   4.332  13.021
20146W        W92472  35.564  32.996  12.393
20147W        W92473   6.434  40.334  12.440
20148W        W92474  44.414  44.349   4.512
20149W        W92475   1.297   4.642   3.258
20150W        W92476  16.600  27.496  11.534
20151W        W92477   8.205  16.441   4.966
20152W        W92478  14.228  35.103   0.814
20153W        W92479  33.127  11.181  13.753
20154W        W92480  18.763  18.522   5.221
20155W        W92481  42.905  17.288  10.391
20156W        W92482  40.009  31.176   2.666
20157W        W92483  34.813  39.945  14.813
20158W        W92484  23.693  17.556   5.582
20159W        W92485  24.289  22.267  14.503
20160W        W92486  14.751  24.523   4.868
20161W        W92487  28.466   0.372  10.390
20162W        W92488  14.134  15.286   3.838
20163W        W92489  32.963  25.621  13.683
20164W        W92490  21.113   3.049   0.730
20165W        W92491   5.210  22.992   4.282
20166W        W92492   7.389  25.701   3.717
20167W        W92493  23.560  19.313   0.782
20168W        W92494  19.147  42.762   2.786
20169W        W92495   4.983  13.309   4.285
20170W        W92496   6.978  38.673   2.755
20171W        W92497  42.843  40.644  11.146
20172W        W92498  16.750  12.232  12.873
20173W        W92499  33.547   4.270   3.186
20174W        W92500   8.285  29.040   1.614
20175W        W92501  45.000   6.412   1.272
20176W        W92502  26.604  13.743   1.226
20177W        W92503  29.593  34.887  12.143
20178W        W92504   5.280   4.997   1.476
20179W        W92505  40.316  16.101   2.801
20180W        W92506   2.154   1.296  11.525
20181W        W92507   3.154  42.925  14.983
20182W        W92508  15.545  11.140   3.911
20183W        W92509  36.868  17.708  11.523
20184W        W92510   8.654  12.664  12.574
20185W        W92511   5.403  33.451  13.983
20186W        W92512  27.703  10.902   4.429
20187W        W92513  39.963  24.458   4.690
20188W        W92514  19.581  19.764   1.458
20189W        W92515  21.675   2.409  11.097
20190W        W92516  24.585  12.286  13.732
20191W        W92517  16.601  21.706   2.678
20192W        W92518  19.183   6.719   4.870
20193W        W92519  24.003  28.936   2.832
20194W        W92520  25.503   7.435  14.316
20195W        W92521  11.237   4.232   0.070
20196W        W92522  21.168  11.315   0.237
20197W        W92523  13.978  34.450  11.990
20198W        W92524  35.663   7.859  12.554
20199W        W92525  16.748   3.530  10.529
20200W        W92526  20.071  16.609  10.826
20201W        W92527  25.631  27.977  12.194
20202W        W92528  38.841   0.719   2.646
20203W        W92529  12.816  24.067  10.344
20204W        W92530  38.819  42.848  14.702
20205W        W92531  36.293  43.196   1.004
20206W        W92532   6.047  35.155  11.506
20207W        W92533  33.594  34.548   4.876
20208W        W92534  22.210   6.446   3.640
20209W        W92535  24.050   1.859  10.053
20210W        W92536   3.529  24.088   2.807
20211W        W92537  34.802  34.615  11.091
20212W        W92538  25.410   1.044  12.854
20213W        W92539  13.255   0.039   1.495
20214W        W92540   1.301  22.523  12.115
20215W        W92541  40.311   6.502  13.284
20216W        W92542  20.890  20.191  12.422
20217W        W92543   3.679   7.337  10.445
20218W        W92544   1.194  41.383  11.138
20219W        W92545   1.367  18.864  10.663
20220W        W92546  39.044  14.536   4.413
20221W        W92547  38.914   8.988  10.972
20222W        W92548  30.976   7.153  13.769
20223W        W92549   3.340   8.982  10.255
20224W        W92550   8.927   1.282  14.277
20225W        W92551   2.253  18.598  13.387
20226W        W92552  13.477  17.732   2.857
20227W        W92553  38.713  13.540  14.825
20228W        W92554  44.794  35.396  12.363
20229W        W92555  39.572  44.988  14.482
20230W        W92556  32.045  11.547  10.672
20231W        W92557  25.455  27.642   3.893
20232W        W92558  27.213  12.790   0.471
20233W        W92559  32.384  16.877  11.624
20234W        W92560  32.219  33.556   1.726
20235W        W92561  39.798  30.939  11.115
20236W        W92562  37.556  26.825   4.182
20237W        W92563  40.623   1.770   2.590
20238W        W92564  36.422  33.832  11.784
20239W        W92565  13.774   5.703   2.270
20240W        W92566  40.068  34.502  12.947
20241W        W92567   5.036  10.247   3.245
20242W        W92568  37.079  44.435  14.877
20243W        W92569  10.715  41.773  12.336
20244W        W92570  32.723  26.982   4.560
20245W        W92571  17.166  14.327   2.146
20246W        W92572  44.251  44.951   3.874
20247W        W92573  30.563  16.044  13.383
20248W        W92574   6.506  23.404  11.928
20249W        W92575   0.284  33.043   4.053
20250W        W92576  28.812  17.320  12.974
20251W        W92577   2.927  34.167  10.602
20252W        W92578  18.262   3.515  10.757
20253W        W92579  10.686  16.210   4.107
20254W        W92580   8.730   2.941   2.948
20255W        W92581  13.388  26.628   1.325
20256W        W92582  10.342  33.266  11.532
20257W        W92583  31.869  43.245  12.535
20258W        W92584  38.767  36.856   3.940
20259W        W92585  36.421  30.348  12.050
20260W        W92586  17.157  20.164  13.923
20261W        W92587   9.597  16.549  10.555
20262W        W92588  18.361  27.877  11.542
20263W        W92589  44.754  36.896   1.708
20264W        W92590  42.488  21.743  12.596
20265W        W92591   0.045  19.582   2.861
20266W        W92592  30.934   5.651  14.175
20267W        W92593  16.983  33.874  12.470
20268W        W92594  30.399  33.409   2.258
20269W        W92595  43.824  34.735  11.966
20270W        W92596  17.194   4.003   4.225
20271W        W92597  22.148  17.724  12.513
20272W        W92598   6.146  23.703   3.590
20273W        W92599  29.062  19.602   0.211
20274W        W92600   6.781  36.337  12.180
20275W        W92601  35.375  33.388   0.166
20276W        W92602  35.349  43.421  12.372
20277W        W92603   6.218  24.190  12.443
20278W        W92604  34.129  20.261  12.172
20279W        W92605  38.103  17.428  11.050
20280W        W92606  40.207  19.760  10.974
20281W        W92607  37.636  39.847  11.942
20282W        W92608  31.529   5.406   1.687
20283W        W92609  33.823  39.088  12.437
20284W        W92610  23.105   4.152  11.059
20285W        W92611  28.198  27.461  12.976
20286W        W92612   2.341   9.380  10.890
20287W        W92613  18.795  22.402  11.549
20288W        W92614  13.194  19.388   3.197
20289W        W92615  26.951  31.075   3.257
20290W        W92616  39.330   8.368   3.363
20291W        W92617   0.755  28.030   3.245
20292W        W92618   8.879  17.331   5.066
20293W        W92619  17.402   9.426   4.547
20294W        W92620  14.917  17.548   2.766
20295W        W92621  23.264  18.723   3.771
20296W        W92622  28.265  19.702  14.398
20297W        W92623  14.213  38.829  13.021
20298W        W92624  20.215  29.052  14.476
20299W        W92625  25.603  21.246   1.964
20300W        W92626   5.601  26.606   1.361
20301W        W92627   4.845  33.017  10.580
20302W        W92628  38.840  22.292   4.298
20303W        W92629  24.574  28.962   2.665
20304W        W92630  11.416  21.124  11.965
20305W        W92631  10.632   1.264  14.754
20306W        W92632   2.066  20.178  13.308
20307W        W92633   4.938  12.266  12.110
20308W        W92634  13.360  43.382  11.243
20309W        W92635  13.159  15.715  10.609
20310W        W92636  27.672  33.093  13.859
20311W        W92637   6.670  17.210  11.610
20312W        W92638  29.062  34.175  12.970
20313W        W92639  20.740  15.535   0.396
20314W        W92640  11.796   1.364  12.447
20315W        W92641   2.838   1.082   0.959
20316W        W92642  35.493  33.894   0.262
20317W        W92643  13.776  37.280   2.694
20318W        W92644  22.719   3.987  11.727
20319W        W92645  11.475  26.154  10.703
20320W        W92646  14.240  13.752  10.685
20321W        W92647  30.102   8.386  11.598
20322W        W92648  15.151  41.004   3.735
20323W        W92649  25.461  31.049   3.103
20324W        W92650   3.370   7.194  13.421
20325W        W92651  35.400   4.790   2.146
20326W        W92652  23.287   0.867  11.579
20327W        W92653  10.220  40.386   1.343
20328W        W92654  17.662  25.281   2.920
20329W        W92655   9.245  10.844   1.815
20330W        W92656  13.431  13.610   3.150
20331W        W92657  31.947   8.238   2.177
20332W        W92658  10.342  22.186  14.007
20333W        W92659  37.259   9.565  10.128
20334W        W92660   2.467  39.852  11.142
20335W        W92661  22.088   6.360  13.754
20336W        W92662   6.673  26.486  13.967
20337W        W92663  24.692  30.635  11.961
20338W        W92664   3.402  19.435   1.617
20339W        W92665  38.134  27.470  12.512
20340W        W92666  17.221  37.498  10.131
20341W        W92667  42.711   5.576   4.488
20342W        W92668  10.242  25.555  13.798
20343W        W92669  25.121  11.642   4.167
20344W        W92670  14.819  28.135  14.668
20345W        W92671   2.702  25.958  10.799
20346W        W92672  11.813   5.201   2.619
20347W        W92673  18.148  22.976   4.420
20348W        W92674  31.438   9.197   2.306
20349W        W92675  35.867   2.398   3.811
20350W        W92676  26.918  42.967   0.981
20351W        W92677  38.935  21.987  10.699
20352W        W92678   6.307   2.230  13.838
20353W        W92679  26.624  21.223   0.692
20354W        W92680   1.530  28.764   0.710
20355W        W92681  21.660  10.952  14.840
20356W        W92682  34.507  19.992  12.989
20357W        W92683   9.824  33.316   0.282
20358W        W92684   2.202  27.711  11.102
20359W        W92685  23.054   8.359  11.860
20360W        W92686  20.013  16.088   2.332
20361W        W92687  33.980  16.630   4.142
20362W        W92688  28.011   2.841   4.455
20363W        W92689  39.589  11.305   3.430
20364W        W92690  40.370  18.797  13.429
20365W        W92691  21.842  21.252   5.104
20366W        W92692  26.165  14.296   0.054
20367W        W92693   7.719  33.332   1.298
20368W        W92694   8.179   2.981  13.936
20369W        W92695  23.339  39.106  10.561
20370W        W92696  14.756   9.602   4.289
20371W        W92697  34.547   5.424   0.395
20372W        W92698  11.368  32.486   0.330
20373W        W92699   6.514  22.224   3.795
20374W        W92700  17.695  38.875   1.898
20375W        W92701  43.332  21.858  12.002
20376W        W92702  32.482   0.660  10.356
20377W        W92703   7.645  38.529   1.410
20378W        W92704  32.944   5.987  12.818
20379W        W92705   1.932  39.336   3.618
20380W        W92706  18.274  41.822   0.324
20381W        W92707  17.281   8.980  13.146
20382W        W92708  34.022  41.047   1.174
20383W        W92709  21.731  33.188   0.494
20384W        W92710   0.359   1.819   4.477
20385W        W92711  11.581  27.354  11.969
20386W        W92712  38.416  24.503   0.785
20387W        W92713  19.733  24.916   4.132
20388W        W92714  42.961  29.146   0.445
20389W        W92715  26.679   7.455  11.110
20390W        W92716  38.910   2.415  10.203
20391W        W92717  11.584  37.320   0.975
20392W        W92718  40.700  44.440  12.407
20393W        W92719  16.188  39.420  10.626
20394W        W92720  15.091  38.496   1.832
20395W        W92721  12.817  30.614   4.846
20396W        W92722   5.063  15.046  11.506
20397W        W92723  12.207   2.969  10.615
20398W        W92724   6.869  15.833  12.871
20399W        W92725  20.463  31.466  12.478
20400W        W92726  23.496  16.567   5.043
20401W        W92727   7.578   4.900  11.884
20402W        W92728  34.037  18.085  11.648
20403W        W92729  21.174   5.368   0.431
20404W        W92730  31.627  30.616   0.935
20405W        W92731   7.422  23.908  11.935
20406W        W92732  39.211   0.387  10.415
20407W        W92733  29.129  34.699  12.090
20408W        W92734  27.916   3.907  14.182
20409W        W92735  32.057  22.797   1.314
20410W        W92736   0.728  33.535   0.076
20411W        W92737  32.335  42.109   4.184
20412W        W92738  23.713   6.393   0.326
20413W        W92739  15.705   9.422   0.408
20414W        W92740  28.641  31.184  12.319
20415W        W92741  38.034   1.793   2.810
20416W        W92742  21.077  31.924  12.945
20417W        W92743  33.043   5.021  14.907
20418W        W92744   1.716  33.527   3.716
20419W        W92745  27.445   3.949  12.435
20420W        W92746  10.927  12.363  11.673
20421W        W92747  28.723  13.436  13.744
20422W        W92748  32.847  22.687  12.067
20423W        W92749  11.805  26.028  11.349
20424W        W92750   9.911  37.019  14.869
20425W        W92751  14.124  35.533  13.319
20426W        W92752  18.080   6.186  10.720
20427W        W92753  43.294  14.916  13.132
20428W        W92754  10.607  15.197   4.426
20429W        W92755  32.199  22.639   4.519
20430W        W92756  23.663  23.234   3.405
20431W        W92757  44.307  15.215   3.407
20432W        W92758  26.022  26.020   2.263
20433W        W92759  27.969   1.890  14.275
20434W        W92760  17.031  38.214   3.002
20435W        W92761  21.513  39.990   0.442
20436W        W92762  38.948  18.274   4.581
20437W        W92763   9.142  25.911   4.947
20438W        W92764  38.782   7.203   0.021
20439W        W92765   6.727   5.768  14.986
20440W        W92766   1.874  19.967   1.259
20441W        W92767  25.651  18.243  11.515
20442W        W92768  14.881  16.169  12.611
20443W        W92769   2.413   4.501  14.855
20444W        W92770   7.089  17.237  14.344
20445W        W92771   0.597  42.346  13.814
20446W        W92772  35.895  40.614   0.456
20447W        W92773  27.631  14.783   4.665
20448W        W92774  40.352  15.838  12.373
20449W        W92775  27.608  31.920  12.715
20450W        W92776  39.965  16.330  13.540
20451W        W92777  20.260  39.504  14.404
20452W        W92778  21.365  12.543   4.992
20453W        W92779  27.653   3.927   0.720
20454W        W92780  24.519   7.248   0.378
20455W        W92781  28.067  32.632  13.063
20456W        W92782  18.188   9.383  13.368
20457W        W92783  33.907  13.086   2.295
20458W        W92784  40.753   7.762  12.985
20459W        W92785  16.221  32.839  14.076
20460W        W92786  28.984   4.679  14.385
20461W        W92787  31.035  23.458   4.124
20462W        W92788  28.403  21.124  13.425
20463W        W92789   3.150  36.896   2.674
20464W        W92790  32.078  39.343   3.660
20465W        W92791  21.329  22.918   5.073
20466W        W92792  20.464  12.759   4.702
20467W        W92793  19.656  32.365   1.908
20468W        W92794   9.877   5.994   1.730
20469W        W92795  11.315  19.502   1.432
20470W        W92796  12.710  26.948   1.422
20471W        W92797  13.102  42.465  13.024
20472W        W92798  22.652  12.287  13.934
20473W        W92799  26.144  31.988  14.868
20474W        W92800  29.566  12.360  13.937
20475W        W92801  19.279  31.679  11.563
20476W        W92802  19.955  24.442  12.043
20477W        W92803   5.671   3.123  13.485
20478W        W92804  28.054  27.915   1.237
20479W        W92805   2.717  15.607  12.939
20480W        W92806   4.377  10.614   1.224
20481W        W92807  16.602   4.861   0.802
20482W        W92808  38.953   7.861   4.935
20483W        W92809  24.069  27.526   2.775
20484W        W92810  32.071   4.256  12.581
20485W        W92811  41.153  44.064   3.738
20486W        W92812  43.814  38.311  13.983
20487W        W92813  36.396  43.412   4.097
20488W        W92814   7.584  37.605   4.475
20489W        W92815  14.876  28.619  11.163
20490W        W92816  14.832   2.769   3.250
20491W        W92817   5.786  40.086   0.870
20492W        W92818   6.365  18.198  13.866
20493W        W92819  19.198   1.853  12.978
20494W        W92820  17.583  19.049   3.573
20495W        W92821  21.464  12.846   4.546
20496W        W92822  41.068  44.960   2.946
20497W        W92823  43.820  42.016  14.500
20498W        W92824  16.536  24.238  14.896
20499W        W92825  28.446  42.753   2.246
20500W        W92826  40.914  25.167   2.837
20501W        W92827  36.937  13.187  11.055
20502W        W92828  34.091  43.138   0.952
20503W        W92829  20.415   8.176  12.477
20504W        W92830  16.785   5.994   4.504
20505W        W92831  37.585  36.313   0.030
20506W        W92832  31.788  11.693   4.612
20507W        W92833  26.898  14.181  11.568
20508W        W92834  41.382   1.054   2.238
20509W        W92835  32.691   8.247  14.384
20510W        W92836  20.220  32.910   0.298
20511W        W92837   5.792   2.764  12.496
20512W        W92838  37.336   7.710   2.440
20513W        W92839  12.236  40.762  11.025
20514W        W92840  14.847  20.180  11.512
20515W        W92841  26.014  19.468   1.865
20516W        W92842  17.399  14.821  11.026
20517W        W92843  26.971   6.991  13.298
20518W        W92844  40.913   7.271   0.044
20519W        W92845  17.052  24.397   5.188
20520W        W92846  35.457  38.138   2.729
20521W        W92847  14.237  31.904  13.929
20522W        W92848  30.066  10.802  13.318
20523W        W92849  16.231  39.081   0.402
20524W        W92850  42.794  32.600   3.672
20525W        W92851  11.345  10.780  13.032
20526W        W92852  33.116  41.334   3.307
20527W        W92853   0.329  24.252  11.968
20528W        W92854  11.272   6.653  11.124
20529W        W92855  18.282   1.835  13.618
20530W        W92856  40.979  38.031  13.969
20531W        W92857  23.456  32.958  14.847
20532W        W92858   4.721   4.935   4.213
20533W        W92859  40.962  41.479   0.832
20534W        W92860   2.952  43.444  13.339
20535W        W92861  31.960   1.505   1.208
20536W        W92862  16.518   7.154  10.488
20537W        W92863  32.541  38.881  14.299
20538W        W92864  44.010  35.914   2.677
20539W        W92865  21.675  35.040  14.756
20540W        W92866  12.784  42.779  14.450
20541W        W92867  23.115   2.824   3.420
20542W        W92868  24.989  40.806   0.342
20543W        W92869  36.057  16.614  10.886
20544W        W92870  34.892  21.151  13.394
20545W        W92871   2.812  21.706   2.487
20546W        W92872  26.634   4.853   4.400
20547W        W92873  13.356   9.879   0.512
20548W        W92874  29.569  31.543  13.421
20549W        W92875  16.066  21.079   0.724
20550W        W92876   7.935   7.883   1.400
20551W        W92877  18.712  31.386  11.890
20552W        W92878   0.306  35.764   0.878
20553W        W92879   5.482   2.808   0.233
20554W        W92880  17.144  15.238  12.644
20555W        W92881  24.319  17.153   9.749
20556W        W92882  11.125  33.964  14.816
20557W        W92883   5.367  39.409   0.688
20558W        W92884  21.066   3.522   1.745
20559W        W92885  28.474   1.416  11.628
20560W        W92886  11.394  32.829   4.869
20561W        W92887  24.151   2.396   2.388
20562W        W92888   5.954  42.315  14.065
20563W        W92889  21.245  15.314   4.557
20564W        W92890  43.350  20.033  14.571
20565W        W92891  16.840  42.340   3.729
20566W        W92892  23.504  35.141  14.402
20567W        W92893  26.194  18.778   3.696
20568W        W92894  14.608   2.833   3.729
20569W        W92895   5.809  18.725   3.619
20570W        W92896  41.023  35.193  14.566
20571W        W92897   1.868  15.655   2.824
20572W        W92898  16.113   5.017  12.503
20573W        W92899  17.798  11.765  11.505
20574W        W92900   4.241  35.313  14.242
20575W        W92901   7.415  26.582  11.346
20576W        W92902  14.395   2.640  11.114
20577W        W92903  17.857  22.528  14.007
20578W        W92904   1.857  21.504   1.255
20579W        W92905  18.106  12.675  14.304
20580W        W92906  17.329  28.965  14.451
20581W        W92907   6.399   3.475  13.816
20582W        W92908  27.996  40.951  12.412
20583W        W92909  41.997  24.164   1.270
20584W        W92910  38.862  20.692   0.115
20585W        W92911  13.224  17.083  14.192
20586W        W92912  20.678  40.239  10.958
20587W        W92913   5.337  10.296  10.718
20588W        W92914  24.775  22.730  11.837
20589W        W92915   8.283  29.523  12.588
20590W        W92916  13.708   3.694   0.729
20591W        W92917  39.780  27.651  11.537
20592W        W92918  43.791  40.128  13.543
20593W        W92919   6.371  12.913   1.241
20594W        W92920   4.886  29.195   0.928
20595W        W92921  38.791  28.061  11.989
20596W        W92922  22.627  21.262   3.206
20597W        W92923  17.618   4.732   1.646
20598W        W92924   8.612   6.432  13.744
20599W        W92925  15.763   2.012   3.242
20600W        W92926  14.216  44.202   4.180
20601W        W92927  40.088  24.399  13.495
20602W        W92928   5.962   9.793  13.023
20603W        W92929  12.367  25.492   1.853
20604W        W92930   3.270   7.071  11.109
20605W        W92931   9.894  13.057  11.629
20606W        W92932  21.271  17.950   3.823
20607W        W92933   7.853  20.861   4.760
20608W        W92934  33.509   2.473  11.532
20609W        W92935  15.756   6.176   1.247
20610W        W92936  37.528  34.159  10.793
20611W        W92937  33.182  19.196   4.394
20612W        W92938  30.979  13.907   1.405
20613W        W92939   2.709  15.392   3.312
20614W        W92940   2.970   5.241   1.783
20615W        W92941   2.737  29.138  12.104
20616W        W92942  22.653  33.115  14.915
20617W        W92943  24.794  14.857   9.918
20618W        W92944  14.090   8.659   0.666
20619W        W92945   8.750  16.313  14.017
20620W        W92946  12.254  29.978   2.766
20621W        W92947  12.216   4.222   1.214
20622W        W92948   4.852  40.561   0.808
20623W        W92949  31.062  15.549  11.021
20624W        W92950  26.394  18.801   0.472
20625W        W92951  41.559  36.920  11.586
20626W        W92952   5.454  15.764  14.513
20627W        W92953  10.106  23.490  11.504
20628W        W92954  38.397  42.396  11.637
20629W        W92955   6.994  25.664  11.413
20630W        W92956   9.894  26.931   2.666
20631W        W92957  21.543  13.602   0.860
20632W        W92958   1.850   1.497  10.278
20633W        W92959  34.888  22.605  11.223
20634W        W92960   2.931  17.677  12.821
20635W        W92961  34.194  44.496   3.388
20636W        W92962   9.851   3.312  12.063
20637W        W92963  34.530  39.813  11.581
20638W        W92964  27.983  39.495  12.350
20639W        W92965  21.260  25.390   5.008
20640W        W92966  24.197  29.354   0.908
20641W        W92967  26.095  27.042   9.715
20642W        W92968  25.257  14.739   2.852
20643W        W92969  44.719  37.541  13.377
20644W        W92970  33.627  37.920   2.443
20645W        W92971   8.321  15.370   1.696
20646W        W92972  35.055  24.423  12.563
20647W        W92973  10.190  23.078  13.531
20648W        W92974  42.573   4.325   2.749
20649W        W92975  37.551  44.067   1.113
20650W        W92976   7.443  27.138   2.819
20651W        W92977  18.122  37.012   4.096
20652W        W92978  42.560  42.290  12.554
20653W        W92979  19.481   4.364  12.015
20654W        W92980  18.604  30.042   2.466
20655W        W92981   2.903   2.989   4.198
20656W        W92982   8.384  11.689   4.751
20657W        W92983   2.271  43.605  12.095
20658W        W92984  12.193  34.861  10.618
20659W        W92985  24.414  44.365  14.933
20660W        W92986   3.456  34.622  14.752
20661W        W92987  32.488  26.468  14.976
20662W        W92988  12.727   8.543  13.468
20663W        W92989  38.270  21.245   0.224
20664W        W92990   1.944  39.503  14.026
20665W        W92991  22.732  34.695   3.832
20666W        W92992  42.819  12.692   2.246
20667W        W92993  38.860  28.759  11.206
20668W        W92994  14.265  21.970  12.125
20669W        W92995  18.722   4.078  13.396
20670W        W92996  13.327  44.794   1.030
20671W        W92997  11.731  28.908   0.439
20672W        W92998  41.513  27.131   2.123
20673W        W92999  36.053   9.238  14.332
20674W        W93000  19.003   4.510  14.598
20675W        W93001   6.455  35.898  12.086
20676W        W93002  32.647  10.238  13.078
20677W        W93003  30.054   6.890   2.390
20678W        W93004  40.416   7.213   0.248
20679W        W93005  25.104  37.718   1.107
20680W        W93006  15.711  26.124   5.159
20681W        W93007  32.680  19.275   4.528
20682W        W93008  20.245   6.274  10.760
20683W        W93009  43.497  13.196   3.661
20684W        W93010  18.313  12.755   4.900
20685W        W93011  39.053   4.430  14.522
20686W        W93012  11.755  28.849   4.723
20687W        W93013  10.126  19.204  13.516
20688W        W93014   7.396  41.206  14.473
20689W        W93015   7.212   1.745   3.245
20690W        W93016  20.519  33.125   2.727
20691W        W93017  24.037  16.846  13.982
20692W        W93018  15.428  40.939   3.331
20693W        W93019  22.625  41.943  13.483
20694W        W93020  13.003   1.277   0.579
20695W        W93021  34.123  11.044   3.580
20696W        W93022   7.844  23.720   1.737
20697W        W93023   9.470  21.012  12.062
20698W        W93024  39.507  30.967   4.120
20699W        W93025  35.046  25.275  12.982
20700W        W93026  16.903  39.786  14.164
20701W        W93027  12.317  33.885   9.812
20702W        W93028   1.998  14.190  12.883
20703W        W93029   3.426  36.401  10.646
20704W        W93030   0.861  42.612   3.694
20705W        W93031  24.610   6.846   1.148
20706W        W93032  43.953  43.330   3.596
20707W        W93033  12.296  28.195   3.614
20708W        W93034  17.514  23.262  12.667
20709W        W93035  40.702  37.450   1.389
20710W        W93036   4.261  13.692  14.388
20711W        W93037  24.201  16.177   3.290
20712W        W93038  11.567  26.520   2.367
20713W        W93039  21.400  29.089   1.247
20714W        W93040   5.822  31.001  14.526
20715W        W93041  28.980  24.116  11.480
20716W        W93042  23.527  22.571   4.021
20717W        W93043  11.359  33.749   2.916
20718W        W93044  28.141  12.662   1.695
20719W        W93045  18.256  39.827   0.970
20720W        W93046  12.192  42.069  14.555
20721W        W93047   1.085  38.667  12.936
20722W        W93048   8.233  11.214  14.428
20723W        W93049  13.700   1.931  10.759
20724W        W93050   1.539  42.353   2.848
20725W        W93051  33.559  28.301   5.031
20726W        W93052  29.125  37.688   0.346
20727W        W93053  24.133  41.080  12.613
20728W        W93054  13.658  40.052   4.797
20729W        W93055  18.128  16.839  12.907
20730W        W93056  18.092  42.527   0.310
20731W        W93057  38.528  38.853   2.463
20732W        W93058   7.706   7.421  14.751
20733W        W93059   4.669  42.934  11.505
20734W        W93060  24.163  38.785   1.501
20735W        W93061  21.573   4.791   4.050
20736W        W93062   5.044  26.529  14.303
20737W        W93063  33.595  13.255   0.461
20738W        W93064  10.167  41.507   4.092
20739W        W93065   0.790  38.342   3.676
20740W        W93066  42.973  32.607  13.274
20741W        W93067  17.807  30.491  14.075
20742W        W93068  37.439  25.940   1.919
20743W        W93069   4.161  35.877  12.006
20744W        W93070  27.885  17.122  11.027
20745W        W93071   8.475  33.079  13.561
20746W        W93072  25.965  22.520   2.828
20747W        W93073  32.220  26.824  12.150
20748W        W93074  17.613  44.071  10.581
20749W        W93075  16.116   1.809  12.375
20750W        W93076  41.006  34.850   4.086
20751W        W93077  35.055  26.370   5.113
20752W        W93078  18.636  16.142   4.558
20753W        W93079   1.482  40.507  11.433
20754W        W93080  36.095   4.808   0.311
20755W        W93081   9.629  36.305  11.489
20756W        W93082  34.256  35.399  11.147
20757W        W93083  38.822  38.471  13.890
20758W        W93084  43.689   9.759  12.414
20759W        W93085   7.723  27.564  12.042
20760W        W93086  12.365  14.654   1.483
20761W        W93087   2.433   1.062   3.075
20762W        W93088  15.734  41.561  11.017
20763W        W93089  14.733  29.844  12.003
20764W        W93090  16.905  31.584   1.894
20765W        W93091  18.864  35.638  12.406
20766W        W93092  28.075  14.001  14.975
20767W        W93093  24.740   7.691   0.186
20768W        W93094  18.621  20.706  13.718
20769W        W93095   4.262   8.868   1.570
20770W        W93096  24.058  41.140   4.720
20771W        W93097  20.222  29.365  10.475
20772W        W93098  35.900  22.982   4.076
20773W        W93099  39.451  38.274  13.623
20774W        W93100  26.949   7.747  14.403
20775W        W93101  23.093  18.044   4.360
20776W        W93102  29.310  24.056   2.906
20777W        W93103  41.784  13.625   0.339
20778W        W93104  21.471   9.769  10.684
20779W        W93105  15.622  31.425   3.728
20780W        W93106  20.780   4.841   0.996
20781W        W93107   6.351  42.046  12.922
20782W        W93108  38.511  16.353   2.186
20783W        W93109  13.382  40.922  13.801
20784W        W93110   0.818  29.876  11.557
20785W        W93111  17.227  20.656   0.227
20786W        W93112   5.286  24.989  14.039
20787W        W93113  26.857  13.105  14.789
20788W        W93114  23.860  36.398  13.174
20789W        W93115  40.295   0.960  13.405
20790W        W93116  36.895  23.664   1.756
20791W        W93117   8.162  25.638  14.832
20792W        W93118  40.433  36.660  14.247
20793W        W93119  34.491   0.256  14.814
20794W        W93120   3.863   7.745   0.513
20795W        W93121   1.795  43.213  14.820
20796W        W93122  23.419   0.835   3.368
20797W        W93123  27.575   1.578   3.807
20798W        W93124   3.994  40.473  11.032
20799W        W93125  23.593  25.562  14.789
20800W        W93126   9.268  17.006   2.874
20801W        W93127  35.624  39.401   0.514
20802W        W93128  43.416  30.909   2.654
20803W        W93129  42.648  41.977   5.075
20804W        W93130  16.639  44.335   4.713
20805W        W93131   4.565  40.226  12.940
20806W        W93132  19.232  40.501  10.633
20807W        W93133  11.373   0.477  10.928
20808W        W93134  10.191   6.424   0.338
20809W        W93135  22.636  15.789  10.498
20810W        W93136  15.046  37.105   0.898
20811W        W93137  33.385  17.212   4.145
20812W        W93138   7.492   0.864   3.613
20813W        W93139  10.392  21.188   9.803
20814W        W93140  20.073  12.415   4.160
20815W        W93141  15.804  23.179   3.908
20816W        W93142  23.680  31.361  10.747
20817W        W93143   7.439   1.301   1.616
20818W        W93144  33.112  21.300  12.681
20819W        W93145  34.205  22.884  13.120
20820W        W93146  32.036  17.775   3.252
20821W        W93147  36.328  13.815   1.687
20822W        W93148  26.330  34.300  14.395
20823W        W93149  28.195  33.879   4.225
20824W        W93150   3.889  34.966   2.784
20825W        W93151  41.213   3.855   0.056
20826W        W93152   9.631  26.617  10.860
20827W        W93153  16.086   9.831   1.732
20828W        W93154  32.911  10.942   1.833
20829W        W93155  10.787   2.489  11.709
20830W        W93156  16.846   7.249   1.042
20831W        W93157   4.206   8.931  12.346
20832W        W93158  43.971  36.884  11.421
20833W        W93159  36.026  38.888   1.223
20834W        W93160  28.499  19.700  10.975
20835W        W93161  14.253  37.049  14.429
20836W        W93162  25.868  13.344  11.067
20837W        W93163  19.629  18.518   4.283
20838W        W93164  32.729  28.050   0.349
20839W        W93165  22.600   7.963  11.312
20840W        W93166  26.956  40.464  12.481
20841W        W93167  35.387  28.275   0.151
20842W        W93168  28.440  12.788   4.145
20843W        W93169  10.380  11.796   0.271
20844W        W93170   7.709   0.479  12.645
20845W        W93171   3.177   0.954   3.760
20846W        W93172  20.027  17.029  11.139
20847W        W93173   5.608   2.885   1.919
20848W        W93174  11.108  23.686  11.867
20849W        W93175   0.167  21.946  14.775
20850W        W93176  33.355  41.550   1.416
20851W        W93177  39.948   8.401  11.884
20852W        W93178  28.492   0.704   2.452
20853W        W93179  27.783  39.485  12.813
20854W        W93180  39.853  17.978  10.985
20855W        W93181  10.809  31.374   3.774
20856W        W93182  17.224  40.912   3.757
20857W        W93183  21.590  12.882  10.574
20858W        W93184  34.139  23.727   2.728
20859W        W93185  17.629  23.250   1.846
20860W        W93186  14.063  12.467   4.156
20861W        W93187  32.175  35.824  13.305
20862W        W93188  17.495  27.143  10.512
20863W        W93189  36.947   0.292   4.593
20864W        W93190  36.818  29.420   2.243
20865W        W93191  39.729   0.844   3.250
20866W        W93192  10.674  29.077   3.422
20867W        W93193  31.563  27.522  11.510
20868W        W93194  13.306  13.211   3.888
20869W        W93195   2.001  41.781  14.195
20870W        W93196  44.913  10.861  12.605
20871W        W93197   7.990  40.693  12.121
20872W        W93198  25.496  31.157  10.797
20873W        W93199  20.508  10.172   1.421
20874W        W93200  25.763  14.448  12.415
20875W        W93201  16.179  30.596   3.890
20876W        W93202  34.952   3.954   1.275
20877W        W93203   1.895  15.539   4.166
20878W        W93204  11.567  33.955   1.743
20879W        W93205  15.120   9.753  11.872
20880W        W93206   0.907  28.947  11.742
20881W        W93207  39.415  12.277  10.732
20882W        W93208  11.708  19.594   1.103
20883W        W93209  22.509  15.662   1.617
20884W        W93210   2.288   8.775   3.397
20885W        W93211  17.791  42.836  14.048
20886W        W93212  38.649  25.210   2.174
20887W        W93213  41.992  20.133   3.255
20888W        W93214  22.040  30.454  12.863
20889W        W93215   3.977  20.729  11.452
20890W        W93216  40.417  40.287   1.855
20891W        W93217  11.242   6.926   0.261
20892W        W93218  24.606  34.618   0.835
20893W        W93219  24.750  30.924  12.851
20894W        W93220  21.696  38.947   4.501
20895W        W93221  24.480  23.721   3.030
20896W        W93222  17.136  42.119  12.430
20897W        W93223  10.630  15.344   2.197
20898W        W93224  35.026  13.143   0.257
20899W        W93225   3.421  35.630   3.411
20900W        W93226  16.663  15.132  12.445
20901W        W93227  40.703  15.681  12.946
20902W        W93228  10.568  11.321   1.171
20903W        W93229   8.118  22.583  10.601
20904W        W93230  17.957  26.892  11.601
20905W        W93231  31.190   9.392   1.844
20906W        W93232   7.663   0.185  13.068
20907W        W93233  42.510  39.815   1.044
20908W        W93234  27.661  19.823  13.277
20909W        W93235  14.656  15.852   0.221
20910W        W93236  10.646  39.499   3.970
20911W        W93237  12.219  16.300  11.484
20912W        W93238  26.983  35.930   4.228
20913W        W93239   6.875   2.668   0.910
20914W        W93240  33.097  28.146  13.901
20915W        W93241  41.419  24.444   1.716
20916W        W93242  19.110  36.470   0.048
20917W        W93243  26.247   1.263  12.471
20918W        W93244  21.758  38.555  12.977
20919W        W93245  21.845   1.845   2.362
20920W        W93246  28.442  32.356   2.715
20921W        W93247  41.449  16.752  13.631
20922W        W93248   0.868   8.251  14.292
20923W        W93249  26.963  38.709   3.726
20924W        W93250  35.949   5.278   0.161
20925W        W93251   4.943   1.513  10.739
20926W        W93252  43.801  15.809   3.320
20927W        W93253   5.280   7.080   4.022
20928W        W93254  25.737  12.897   4.685
20929W        W93255  20.260  27.034   1.453
20930W        W93256   6.863   8.317  13.789
20931W        W93257  15.471  36.786   2.664
20932W        W93258  19.620  27.427  13.936
20933W        W93259  26.150  11.251  13.714
20934W        W93260  31.994  32.035  12.500
20935W        W93261  29.448  42.257   3.099
20936W        W93262   5.165   6.981  13.907
20937W        W93263  14.245  37.948  11.885
20938W        W93264  37.801  42.956   4.623
20939W        W93265  18.113  21.595  11.607
20940W        W93266  31.425  25.661   3.115
20941W        W93267  11.802  30.389  11.678
20942W        W93268  25.364  15.596  10.659
20943W        W93269   6.813   2.901   1.364
20944W        W93270  11.718  37.834  10.702
20945W        W93271  20.986  35.626   1.771
20946W        W93272  19.058   4.301  11.097
20947W        W93273  32.531  13.815   0.468
20948W        W93274  42.662  44.753  13.861
20949W        W93275  30.883  42.825  12.214
20950W        W93276  20.378  28.980   3.187
20951W        W93277   4.477  36.400  14.048
20952W        W93278  34.590  10.843  14.319
20953W        W93279   5.523  41.515  13.823
20954W        W93280  16.273  12.803   2.443
20955W        W93281  36.205   7.736   5.020
20956W        W93282  44.494  25.040  11.118
20957W        W93283  26.601  26.435   3.256
20958W        W93284  23.538  10.160  10.993
20959W        W93285  25.221   8.253  13.862
20960W        W93286  17.327   7.580  11.081
20961W        W93287  36.323  13.320   5.221
20962W        W93288  13.171  41.404   2.344
20963W        W93289  38.803  22.733   4.049
20964W        W93290  11.637  31.416  12.896
20965W        W93291  30.203   2.258  11.192
20966W        W93292  28.027  16.565   4.455
20967W        W93293  19.537  36.998   1.814
20968W        W93294   0.878  19.795   3.372
20969W        W93295   0.327  43.224   4.159
20970W        W93296  26.611   5.765  11.593
20971W        W93297  24.612  35.519  10.351
20972W        W93298  14.518  18.443   0.991
20973W        W93299  11.654  42.329   2.912
20974W        W93300  26.238  34.420  13.890
20975W        W93301  41.030  43.069   3.807
20976W        W93302   3.840  28.476  11.056
20977W        W93303  40.784  29.971   3.740
20978W        W93304  19.312  40.819   1.789
20979W        W93305  23.264  17.195  13.794
20980W        W93306   5.883  40.311  12.971
20981W        W93307  12.178  41.077  14.307
20982W        W93308  32.985  17.925  14.120
20983W        W93309  10.308  24.691   3.599
20984W        W93310  19.295  19.649   4.760
20985W        W93311  32.893  28.540  12.399
20986W        W93312   0.246  23.191   3.709
20987W        W93313  10.581  20.080  12.893
20988W        W93314  28.010  33.113  10.931
20989W        W93315  32.376  17.789   2.789
20990W        W93316  35.588   8.137   2.161
20991W        W93317  33.140  24.711   1.806
20992W        W93318  33.148  13.264   2.727
20993W        W93319  37.852  28.596   1.968
20994W        W93320   8.984  42.382  12.394
20995W        W93321  22.771  22.330   2.488
20996W        W93322  38.856  43.691  12.529
20997W        W93323   6.741   4.793   5.252
20998W        W93324  20.605  29.706  11.342
20999W        W93325  22.182  33.304   1.355
21000W        W93326  42.590  33.907  10.692
21001W        W93327   1.955  32.796   2.315
21002W        W93328  39.417  31.344   4.917
21003W        W93329  31.000  19.703   0.793
21004W        W93330   3.917  41.424   4.792
21005W        W93331  41.845  30.210   1.902
21006W        W93332   6.278   0.826  11.121
21007W        W93333  11.728  25.462   2.647
21008W        W93334  17.086  39.856  10.533
21009W        W93335  17.287  29.441  11.955
21010W        W93336   5.577   9.874  14.895
21011W        W93337  43.943   6.522  14.419
21012W        W93338  35.593  12.751  12.930
21013W        W93339   1.775   0.160  10.649
21014W        W93340   8.281  41.012  11.082
21015W        W93341  20.964   1.777   1.365
21016W        W93342  20.018  14.662  11.264
21017W        W93343  17.698  38.994   1.399
21018W        W93344  26.722  30.612   0.639
21019W        W93345  23.478  44.750   2.519
21020W        W93346  34.928  39.260  11.036
21021W        W93347  30.723   6.405  11.991
21022W        W93348  29.898  29.688  12.411
21023W        W93349  34.591  34.046  13.296
21024W        W93350  13.704  10.294   3.661
21025W        W93351  26.853   6.790   3.398
21026W        W93352  13.233  18.209   2.695
21027W        W93353  43.555   9.093   2.708
21028W        W93354   0.718  43.300   0.768
21029W        W93355  24.134  25.609  14.784
21030W        W93356  22.704  17.564  10.738
21031W        W93357   8.178  29.987   1.666
21032W        W93358  34.334   9.205   3.764
21033W        W93359  34.505  17.752   4.602
21034W        W93360   8.998   7.091  13.255
21035W        W93361  16.142  27.242  11.477
21036W        W93362  14.238  28.809   2.144
21037W        W93363   0.471  22.516   4.218
21038W        W93364  24.541  41.045   0.191
21039W        W93365   0.436  31.603  11.640
21040W        W93366  27.742  38.621   3.243
21041W        W93367  31.754  41.070  13.443
21042W        W93368  32.945  41.001  14.400
21043W        W93369  14.195  10.920  12.072
21044W        W93370  26.593  19.818  11.523
21045W        W93371  24.012  40.445   0.353
21046W        W93372  15.070  34.925  14.383
21047W        W93373  19.318  13.802   2.584
21048W        W93374   0.030  18.580   2.163
21049W        W93375  20.557  35.836   0.673
21050W        W93376  18.658  44.696   3.120
21051W        W93377   9.964  37.095  12.040
21052W        W93378   6.911  19.709   4.640
21053W        W93379   0.163  32.695   0.268
21054W        W93380  37.557  43.168   5.011
21055W        W93381  22.589   8.846   4.438
21056W        W93382  26.226   8.519   4.944
21057W        W93383   9.261  16.642   1.944
21058W        W93384  34.214  14.241   1.758
21059W        W93385  41.976  41.793   3.105
21060W        W93386  38.876  24.266  14.964
21061W        W93387  10.926   8.183   3.280
21062W        W93388  28.744   5.141  14.287
21063W        W93389  28.794  10.802  12.136
21064W        W93390  20.029  18.422  11.047
21065W        W93391  25.620  33.615   4.599
21066W        W93392  33.462  25.095   3.745
21067W        W93393   0.730  24.780  13.485
21068W        W93394  21.870   2.793  12.130
21069W        W93395   4.885   1.325  11.223
21070W        W93396  32.386  36.565  10.905
21071W        W93397   9.440  27.165   2.637
21072W        W93398  17.752   6.285   2.166
21073W        W93399  31.657  38.367   3.820
21074W        W93400   2.580   4.985  12.326
21075W        W93401  20.534  28.018   0.560
21076W        W93402  13.137  37.017   0.294
21077W        W93403  35.319  43.783   0.114
21078W        W93404   6.896  42.330  12.173
21079W        W93405  10.605   8.174  13.337
21080W        W93406  21.171  25.062   2.924
21081W        W93407  42.714  14.239  11.211
21082W        W93408  43.330  15.031  14.970
21083W        W93409  34.843  24.312   3.385
21084W        W93410  30.972   5.593   1.824
21085W        W93411   0.737  21.126  12.834
21086W        W93412  35.512  13.702  11.239
21087W        W93413   7.169  12.084   1.856
21088W        W93414  10.334  11.758  10.781
21089W        W93415   4.385  21.391  14.000
21090W        W93416   2.840   8.881  12.851
21091W        W93417  24.110  20.019   4.654
21092W        W93418  43.060   3.293  14.901
21093W        W93419  30.909  23.573   1.455
21094W        W93420  12.566  40.440   3.447
21095W        W93421  43.567  42.600  12.506
21096W        W93422  28.517  11.878  10.626
21097W        W93423   5.815  13.920   0.036
21098W        W93424  26.211  25.591   3.807
21099W        W93425  32.579  32.655  13.460
21100W        W93426  32.046  43.157  13.465
21101W        W93427  42.055  26.406   4.686
21102W        W93428   2.722   2.756   0.814
21103W        W93429   8.940  27.087  14.672
21104W        W93430  35.143   5.429   0.933
21105W        W93431  19.038  23.289   3.196
21106W        W93432  41.408  29.339  11.543
21107W        W93433   4.903  31.757   2.859
21108W        W93434   9.767  44.937   0.784
21109W        W93435  36.901  43.588   0.898
21110W        W93436  39.528  20.173  14.856
21111W        W93437  22.522   0.202   4.880
21112W        W93438  41.431  42.697  14.832
21113W        W93439  21.575   3.243   0.889
21114W        W93440  38.543  44.354  13.029
21115W        W93441   3.886  26.077  11.107
21116W        W93442  17.583  22.116  12.551
21117W        W93443   8.735   6.784   1.706
21118W        W93444  13.340  29.699  11.608
21119W        W93445  34.892  25.283  10.946
21120W        W93446  33.450  11.260  14.878
21121W        W93447  44.469   1.499  11.961
21122W        W93448  31.123  41.989  11.824
21123W        W93449   9.405  15.120  11.055
21124W        W93450   4.022  42.841   4.292
21125W        W93451   0.511  42.972   4.592
21126W        W93452  21.978  44.718  10.725
21127W        W93453  27.212  30.211  12.869
21128W        W93454   4.040   3.271   3.392
21129W        W93455  35.370  43.065   0.731
21130W        W93456  36.499  19.933   3.322
21131W        W93457   7.296  14.292   0.320
21132W        W93458  17.360  22.089   3.700
21133W        W93459  43.965   2.362   3.238
21134W        W93460  18.194  24.626  12.318
21135W        W93461  33.308  35.609  11.978
21136W        W93462  21.987   3.702  12.560
21137W        W93463   2.232   2.983   3.739
21138W        W93464   2.966  14.866  12.404
21139W        W93465  17.124   3.969  13.370
21140W        W93466  41.080  35.444  10.459
21141W        W93467  34.003  22.782   3.617
21142W        W93468  30.032  15.230   2.690
21143W        W93469  36.582   8.990  11.052
21144W        W93470  19.248  21.234   3.930
21145W        W93471  39.152  25.812   0.373
21146W        W93472  11.839  40.808   2.892
21147W        W93473  22.505  29.678  13.862
21148W        W93474  22.897  41.346  11.639
21149W        W93475  13.258  40.994   3.942
21150W        W93476   6.554  31.322  14.348
21151W        W93477  41.846  38.369  14.280
21152W        W93478   5.808   9.360   2.308
21153W        W93479  29.984  42.740   2.779
21154W        W93480  30.337  25.218  12.818
21155W        W93481  10.255  28.218   3.012
21156W        W93482  28.151  33.475   0.773
21157W        W93483  38.588   3.210  14.820
21158W        W93484   1.427  41.528  11.600
21159W        W93485  39.304  27.946  11.999
21160W        W93486  30.200   4.334  14.036
21161W        W93487  26.504  20.746   1.851
21162W        W93488  36.122  41.321   0.702
21163W        W93489  12.116  34.518  11.514
21164W        W93490   3.459  37.018  11.582
21165W        W93491  44.211  42.900  11.683
21166W        W93492  11.285  43.498  12.713
21167W        W93493  27.043  22.555  11.976
21168W        W93494  18.489  22.245  13.579
21169W        W93495  42.375  14.084  12.154
21170W        W93496  27.921  26.715   2.347
21171W        W93497  14.661  21.695  11.197
21172W        W93498  25.285   8.969   1.963
21173W        W93499  28.477   9.589   1.168
21174W        W93500  12.120  12.142   1.749
21175W        W93501  19.675  20.222   4.052
21176W        W93502  11.451  42.974   3.730
21177W        W93503   2.473  31.001  10.602
21178W        W93504  12.041   2.349  10.080
21179W        W93505   3.193  34.367   2.072
21180W        W93506   2.208  23.121   1.226
21181W        W93507  23.780  12.547  12.707
21182W        W93508   3.215  33.856   2.101
21183W        W93509  40.572  22.452  10.341
21184W        W93510  17.100  41.464  12.304
21185W        W93511  44.391  23.713  14.455
21186W        W93512   5.052  43.235  11.069
21187W        W93513  14.997   4.337  14.007
21188W        W93514  30.306  33.820  12.478
21189W        W93515  10.356  26.882  11.583
21190W        W93516  22.718  18.347  13.333
21191W        W93517  28.602  31.942   1.456
21192W        W93518  37.265  34.835   4.929
21193W        W93519  40.958  39.423  12.095
21194W        W93520  26.166  16.017  10.447
21195W        W93521   3.887  32.841  14.266
21196W        W93522   5.378  44.670   4.517
21197W        W93523  36.854   1.941  14.014
21198W        W93524   5.132  33.585  14.414
21199W        W93525  10.844  10.916  14.251
21200W        W93526  38.566  21.445   0.942
21201W        W93527  42.299  29.169  12.422
21202W        W93528  37.856  11.041   1.783
21203W        W93529  22.047  14.850   5.575
21204W        W93530  41.159  41.998   0.205
21205W        W93531  10.674   0.895  13.554
21206W        W93532   6.751   4.863  13.555
21207W        W93533  23.921  14.681   4.687
21208W        W93534  41.673  23.524  10.677
21209W        W93535  41.981  37.251  12.444
21210W        W93536  17.609  42.233  12.647
21211W        W93537   8.704  30.974  11.891
21212W        W93538  29.676  37.650  11.243
21213W        W93539  41.918  31.031  12.990
21214W        W93540   1.795   1.349  14.634
21215W        W93541  42.748  16.798   1.756
21216W        W93542  14.690   7.489  12.105
21217W        W93543  26.565  13.189   5.156
21218W        W93544  33.096  33.911   0.940
21219W        W93545   7.159  29.933   1.350
21220W        W93546  29.122  19.041  11.084
21221W        W93547  32.630  30.740   3.801
21222W        W93548   5.287   9.606   4.451
21223W        W93549  36.831  43.018  11.880
21224W        W93550  34.228  34.088   4.620
21225W        W93551  33.391  33.855   9.732
21226W        W93552   7.635   3.445  13.002
21227W        W93553  34.822  37.164   1.951
21228W        W93554   5.302  35.005  12.181
21229W        W93555  29.597  34.367  12.109
21230W        W93556  25.176  36.386  12.621
21231W        W93557  21.386   0.333  14.265
21232W        W93558  44.538  16.654  13.360
21233W        W93559  27.993  26.274  14.171
21234W        W93560  23.720  16.537  11.603
21235W        W93561  35.496   9.533   2.360
21236W        W93562  12.585  25.215   1.105
21237W        W93563  42.878  42.341   4.562
21238W        W93564  28.471  22.770   1.843
21239W        W93565  37.841  38.220  13.098
21240W        W93566   6.033   1.220   3.409
21241W        W93567  26.514  12.033   0.460
21242W        W93568   1.268   8.371   1.116
21243W        W93569  11.428   8.864   4.248
21244W        W93570   9.931   8.333  14.028
21245W        W93571  11.262  21.230   3.125
21246W        W93572  39.504  10.028  14.030
21247W        W93573  28.260  22.921   0.390
21248W        W93574  33.851   3.383   2.138
21249W        W93575  35.227  30.057   4.983
21250W        W93576   3.991   9.499   0.454
21251W        W93577  39.936  30.883  14.395
21252W        W93578  25.555  18.442  11.030
21253W        W93579   6.082   3.275  11.284
21254W        W93580  36.130  41.299   4.590
21255W        W93581  14.078  11.152   3.693
21256W        W93582   2.270  39.358  11.041
21257W        W93583  21.458  41.284  12.940
21258W        W93584   6.957  23.196  11.582
21259W        W93585  12.378  27.522   4.184
21260W        W93586  22.291   5.299   4.170
21261W        W93587   0.934  37.392  10.663
21262W        W93588  12.927  40.568   4.168
21263W        W93589  33.184  43.317   2.295
21264W        W93590  27.445  22.532   1.907
21265W        W93591   7.299  24.812  12.854
21266W        W93592   4.215   2.575  10.743
21267W        W93593  30.043  14.026   0.020
21268W        W93594  35.930  15.971   0.008
21269W        W93595   0.449  41.273  10.689
21270W        W93596   1.445  37.923   4.267
21271W        W93597  31.186  10.857   0.039
21272W        W93598  13.162   6.688  14.465
21273W        W93599   4.092  33.457  14.022
21274W        W93600  24.209  30.596  11.102
21275W        W93601   6.395  42.779   4.064
21276W        W93602  14.450  42.742   4.649
21277W        W93603  14.798  13.709  13.725
21278W        W93604  20.499  17.097   0.296
21279W        W93605  30.933  10.879  12.977
21280W        W93606   4.726   7.134  13.015
21281W        W93607  34.987  26.697   2.183
21282W        W93608  26.268  18.330  13.523
21283W        W93609  38.390  10.634   4.667
21284W        W93610  42.011  22.712  11.021
21285W        W93611  31.915   1.175   1.825
21286W        W93612  22.814  19.257   0.431
21287W        W93613  14.039  28.824  14.928
21288W        W93614   1.927  16.752   4.614
21289W        W93615  20.630  25.446   3.302
21290W        W93616  42.902  26.191   2.015
21291W        W93617  35.815  13.251  10.574
21292W        W93618  38.303  37.546   3.712
21293W        W93619   0.655  10.547   0.463
21294W        W93620  10.858  43.223  12.011
21295W        W93621  35.499  21.505  12.605
21296W        W93622  21.587  34.038  13.367
21297W        W93623  12.437  31.030  13.387
21298W        W93624  41.308  40.087   3.278
21299W        W93625  26.970   6.559  13.563
21300W        W93626   3.713  18.509  11.296
21301W        W93627   6.905   9.386  12.497
21302W        W93628  27.885   5.654   1.756
21303W        W93629   5.679  35.031  13.286
21304W        W93630  18.614  28.036   0.890
21305W        W93631  40.825  25.956   4.348
21306W        W93632  25.936  37.250  11.990
21307W        W93633  12.870  23.805  12.910
21308W        W93634  33.853   2.862  11.541
21309W        W93635  44.480   9.295  14.975
21310W        W93636  13.846  15.788   2.073
21311W        W93637  39.996   4.236  12.938
21312W        W93638  30.871  36.986   3.246
21313W        W93639  26.696  43.368   2.300
21314W        W93640   1.530  44.021   3.241
21315W        W93641  41.382  23.669   0.463
21316W        W93642   6.504  30.075  11.036
21317W        W93643  44.468  12.809   3.417
21318W        W93644  28.129  21.096   0.834
21319W        W93645  12.710  14.207   0.858
21320W        W93646  24.690  24.249  13.608
21321W        W93647  37.535  32.873   1.625
21322W        W93648  26.579  37.333   1.720
21323W        W93649  33.356   2.397  10.626
21324W        W93650  19.177  17.595   0.448
21325W        W93651   2.854  25.524  12.162
21326W        W93652  20.736  27.366   2.293
21327W        W93653  37.950  39.237   1.229
21328W        W93654   5.304  36.606   3.095
21329W        W93655  44.787  44.024  12.078
21330W        W93656  38.869   9.417   2.655
21331W        W93657  19.776  44.999   4.824
21332W        W93658  27.004  25.148   5.030
21333W        W93659  15.369  18.135   1.055
21334W        W93660  12.845   6.710  13.448
21335W        W93661  25.160  22.330  14.773
21336W        W93662  42.373  30.675   4.829
21337W        W93663  41.987  28.800  10.431
21338W        W93664  24.300  18.975   2.357
21339W        W93665  39.774  23.791   3.627
21340W        W93666  39.992  20.806  11.978
21341W        W93667  10.328  38.392   2.377
21342W        W93668   2.783  28.332   0.280
21343W        W93669  25.155  32.867   2.476
21344W        W93670  29.167   7.690   3.280
21345W        W93671  13.275  32.827  13.478
21346W        W93672  23.725  13.591   4.769
21347W        W93673  38.255  40.970  10.748
21348W        W93674  37.603  43.882   0.310
21349W        W93675  32.704  25.529  11.963
21350W        W93676  28.409  37.905   3.268
21351W        W93677   2.318  35.260   4.295
21352W        W93678  38.408  28.631   4.620
21353W        W93679  32.577   1.805  14.361
21354W        W93680   9.755  33.382   1.897
21355W        W93681  20.958  40.292  13.655
21356W        W93682  33.856  15.632  14.482
21357W        W93683  42.834  19.069  11.443
21358W        W93684  34.173  38.370   3.669
21359W        W93685  27.063  28.177   0.436
21360W        W93686  31.365  34.615   1.347
21361W        W93687   3.546  16.765   4.537
21362W        W93688   0.331   5.770   4.077
21363W        W93689  29.494  43.442   0.896
21364W        W93690  23.889  30.978   1.243
21365W        W93691  25.329  11.885   2.693
21366W        W93692  40.427   3.904  14.389
21367W        W93693   5.388  42.920   4.360
21368W        W93694  43.276   9.043   4.931
21369W        W93695  26.853  11.215   4.142
21370W        W93696  12.795  20.143  14.560
21371W        W93697  37.309  42.789   1.019
21372W        W93698  43.435  12.756   5.054
21373W        W93699  25.414  21.607  13.745
21374W        W93700  38.914  23.428  13.756
21375W        W93701  34.459  36.123  11.554
21376W        W93702  18.136  10.434   4.540
21377W        W93703   2.908  16.706   3.746
21378W        W93704  43.808  16.877  14.731
21379W        W93705  30.428  30.232  14.840
21380W        W93706  18.825  13.352  11.505
21381W        W93707  12.778   7.019   2.830
21382W        W93708   4.311  16.568   0.483
21383W        W93709  34.541  30.693   0.775
21384W        W93710   2.210  31.087  13.468
21385W        W93711  33.323   5.716  12.580
21386W        W93712  15.839  18.753  14.813
21387W        W93713  39.859   9.564   2.401
21388W        W93714  16.253  16.774  10.705
21389W        W93715   2.233  34.933  13.581
21390W        W93716  41.455  26.813   1.460
21391W        W93717  44.992  44.990  11.082
21392W        W93718   8.285  10.172   0.678
21393W        W93719   8.827   8.185   4.672
21394W        W93720  33.128  33.540   1.826
21395W        W93721  37.139  37.529   4.141
21396W        W93722  36.223  30.228   4.873
21397W        W93723  34.817   3.899   1.772
21398W        W93724   5.769  40.192   4.550
21399W        W93725  12.176  16.613   1.716
21400W        W93726  43.676  38.498  11.538
21401W        W93727  13.442  11.370  14.257
21402W        W93728  27.690  42.801  13.843
21403W        W93729  40.752   0.847  14.718
21404W        W93730   0.407  28.495  13.125
21405W        W93731  14.135  26.375  11.855
21406W        W93732   9.891  42.904  13.565
21407W        W93733   4.874  12.112  11.218
21408W        W93734  20.729  25.216  11.371
21409W        W93735  43.914   7.458   0.887
21410W        W93736  43.481  43.957   4.587
21411W        W93737  35.076   4.441  11.522
21412W        W93738  13.382   8.610  14.271
21413W        W93739   3.212  34.858   1.946
21414W        W93740   2.127  36.548  11.195
21415W        W93741  40.420   3.158   2.730
21416W        W93742  11.964  29.404  13.497
21417W        W93743  43.768   8.292  13.552
21418W        W93744  20.044  42.438  10.952
21419W        W93745  26.721   9.209   0.778
21420W        W93746   1.340  20.634   2.394
21421W        W93747   5.157   7.099  11.057
21422W        W93748  31.985  23.679   0.955
21423W        W93749  37.582  26.620   2.890
21424W        W93750  13.322   4.050   1.012
21425W        W93751  21.574  22.570  13.261
21426W        W93752  40.817  13.180  12.188
21427W        W93753   8.905  16.257   2.707
21428W        W93754  25.128  12.042  14.887
21429W        W93755  36.272  34.419  13.766
21430W        W93756   9.200  18.635   0.922
21431W        W93757  44.846   0.828  11.376
21432W        W93758  30.579  16.982  11.404
21433W        W93759  34.872  17.218  10.713
21434W        W93760  36.182  11.281  13.534
21435W        W93761  22.728  44.736  11.752
21436W        W93762  35.593   3.417  13.742
21437W        W93763  16.303  15.136  11.107
21438W        W93764  44.058  31.017  14.503
21439W        W93765  15.721   4.390  10.751
21440W        W93766  40.243  41.381   3.685
21441W        W93767  22.534   4.169  13.454
21442W        W93768  35.550  11.644  10.235
21443W        W93769  32.046  15.215  14.315
21444W        W93770  19.137  29.667  10.636
21445W        W93771   4.753  17.549   0.157
21446W        W93772  27.643   1.925  10.629
21447W        W93773  17.165  29.494  11.441
21448W        W93774  14.610  24.685  10.702
21449W        W93775   9.445   6.198  10.825
21450W        W93776  36.054   6.917   4.805
21451W        W93777  33.625   1.932   1.189
21452W        W93778  30.486  39.095  14.272
21453W        W93779  17.477  23.297  14.041
21454W        W93780  20.571  38.477  14.837
21455W        W93781   1.222  42.516  11.540
21456W        W93782  42.005  31.956  12.011
21457W        W93783  33.328  35.955   0.898
21458W        W93784  29.545  39.512   2.802
21459W        W93785   8.149   9.169   1.985
21460W        W93786  42.265  26.981   1.107
21461W        W93787  11.556  27.860  12.745
21462W        W93788  41.522   2.966  13.063
21463W        W93789   3.708  10.165  10.581
21464W        W93790  19.340  31.178  13.744
21465W        W93791  31.290   5.688   0.861
21466W        W93792  40.313   3.185   0.763
21467W        W93793  30.889  43.331   4.368
21468W        W93794  32.090  16.783  13.586
21469W        W93795  31.902   0.731  11.043
21470W        W93796  24.015  38.683   0.248
21471W        W93797  39.246  33.120   0.448
21472W        W93798   1.519   9.900  12.918
21473W        W93799   3.843  37.222  10.413
21474W        W93800  16.735   8.856   4.099
21475W        W93801  37.589  33.957   4.166
21476W        W93802  20.060  13.923  11.895
21477W        W93803  18.252  40.085   0.502
21478W        W93804  42.455  28.722   4.605
21479W        W93805  39.813  42.766  12.615
21480W        W93806  11.942  15.272  10.667
21481W        W93807  12.845  41.963   3.285
21482W        W93808   4.005  43.281  14.977
21483W        W93809   4.912  29.996   4.099
21484W        W93810  14.232  42.691  10.596
21485W        W93811  23.095  18.707   0.015
21486W        W93812   9.681  12.003  11.267
21487W        W93813   9.766  11.943   2.236
21488W        W93814   1.001  29.108   4.727
21489W        W93815  33.948  21.981   1.347
21490W        W93816  34.772  22.109  12.587
21491W        W93817  22.660  26.718  11.806
21492W        W93818  40.488  23.203   0.128
21493W        W93819  16.772  18.542   4.629
21494W        W93820   0.685  30.240   3.311
21495W        W93821  19.577  28.991   0.740
21496W        W93822  15.602  14.578  14.323
21497W        W93823  13.690  27.166   2.831
21498W        W93824  16.421  11.606  11.078
21499W        W93825  33.517  42.255  13.430
21500W        W93826  44.564  26.128   3.867
21501W        W93827   1.002  22.283   3.578
21502W        W93828  35.552  34.093  14.330
21503W        W93829  27.022  27.768   4.538
21504W        W93830  30.130   0.785  14.803
21505W        W93831  39.929  39.291  10.964
21506W        W93832  36.646  13.388   3.723
21507W        W93833  22.331  40.010   0.745
21508W        W93834  28.968  26.211   4.456
21509W        W93835  36.925  23.283  14.282
21510W        W93836   3.893   2.867  12.538
21511W        W93837  17.247  39.542   3.867
21512W        W93838   0.373  37.439  11.453
21513W        W93839  28.600  29.618  10.676
21514W        W93840  10.924   6.214   0.846
21515W        W93841  11.329  31.656   3.866
21516W        W93842  43.259  26.455   3.701
21517W        W93843  27.673   9.965   3.690
21518W        W93844  38.627  35.312  11.976
21519W        W93845   2.649  17.536   1.763
21520W        W93846  26.020   4.062   2.918
21521W        W93847  16.967  14.713  13.851
21522W        W93848  25.996   8.743  11.327
21523W        W93849   8.615  25.432   1.703
21524W        W93850   1.410  21.077  14.409
21525W        W93851  25.759  33.126  12.660
21526W        W93852  38.429  33.319  14.943
21527W        W93853  17.819  42.649  12.927
21528W        W93854  23.105  16.889  10.055
21529W        W93855  16.956  38.413   3.806
21530W        W93856  29.946   9.914   0.985
21531W        W93857  21.619  31.883   3.089
21532W        W93858   5.261  40.540   0.417
21533W        W93859  28.069  10.357   0.490
21534W        W93860  27.287  10.375   0.834
21535W        W93861   1.055  43.827   0.930
21536W        W93862   2.895  10.947  11.868
21537W        W93863  26.636  13.035   3.702
21538W        W93864  18.585  12.682  11.024
21539W        W93865   3.809   8.965   1.304
21540W        W93866  42.982  44.785  11.491
21541W        W93867  37.951  35.840   1.302
21542W        W93868  14.813  13.148   2.665
21543W        W93869  32.689  28.016  11.229
21544W        W93870  32.119  25.874   3.699
21545W        W93871   8.232  15.722  12.082
21546W        W93872  41.239  28.587  14.390
21547W        W93873  27.874  34.002  11.926
21548W        W93874  43.029  30.498  14.788
21549W        W93875  18.343  17.467  10.767
21550W        W93876  11.083  30.883  13.158
21551W        W93877  40.433  21.110  11.138
21552W        W93878  37.464  29.914   1.566
21553W        W93879  40.340  26.580   1.768
21554W        W93880   7.953  40.104   4.161
21555W        W93881  40.447  33.773   3.950
21556W        W93882  13.160   8.114   1.908
21557W        W93883   7.948   9.340  13.152
21558W        W93884  41.583   8.530  11.904
21559W        W93885  29.367  22.061   1.248
21560W        W93886   1.757   7.699   2.733
21561W        W93887   9.712   2.231   1.232
21562W        W93888  23.131  37.550  13.802
21563W        W93889  12.086   9.191   0.428
21564W        W93890  22.757  30.567  13.055
21565W        W93891   0.002  43.356   0.170
21566W        W93892  30.920  15.802   0.039
21567W        W93893  40.336   7.850   2.689
21568W        W93894  30.931  19.294   3.756
21569W        W93895  22.773  30.919  13.424
21570W        W93896  19.526  20.259   2.200
21571W        W93897  29.058  16.501  12.064
21572W        W93898  33.023  19.107  14.810
21573W        W93899  14.606  20.769   1.502
21574W        W93900   2.387  27.721   3.669
21575W        W93901  26.093  39.471  11.480
21576W        W93902  11.863  18.518  12.347
21577W        W93903  39.956  16.645  12.581
21578W        W93904  29.742  13.299   3.218
21579W        W93905  29.344  38.963  11.500
21580W        W93906  15.829  41.507   0.663
21581W        W93907  11.162  42.507   2.809
21582W        W93908  17.172   2.303   2.747
21583W        W93909   8.734  13.918   0.904
21584W        W93910  24.672   8.417  11.216
21585W        W93911  17.796   9.951  11.068
21586W        W93912  19.005  18.394  14.864
21587W        W93913  34.815  28.590  11.993
21588W        W93914  40.564  35.416  10.547
21589W        W93915  25.248  22.836  14.797
21590W        W93916  41.525   4.706   4.711
21591W        W93917  23.374  32.570   0.551
21592W        W93918  11.837   5.252  10.500
21593W        W93919  43.903  11.106  11.349
21594W        W93920   8.406  13.706  14.718
21595W        W93921   9.323  12.103   4.577
21596W        W93922  25.061   2.270   1.941
21597W        W93923  30.104  39.982   3.628
21598W        W93924  19.584   9.265  10.722
21599W        W93925  38.044  25.971  13.724
21600W        W93926  19.454  37.517   3.780
21601W        W93927  22.817   8.194   4.304
21602W        W93928  36.583  26.259   0.294
21603W        W93929  17.611  24.460  10.579
21604W        W93930  14.838  29.456   1.865
21605W        W93931   1.900  16.511  14.583
21606W        W93932  22.068  10.783  14.561
21607W        W93933   5.711  40.869  12.135
21608W        W93934   2.718  43.858  13.938
21609W        W93935  40.361  32.572  11.933
21610W        W93936   9.135  21.625   1.450
21611W        W93937  14.191  32.115  11.690
21612W        W93938  21.169  23.503   0.205
21613W        W93939  13.084  31.501  13.010
21614W        W93940  21.633  33.112   1.385
21615W        W93941  29.911   1.236   1.856
21616W        W93942  39.521   8.354   1.389
21617W        W93943  43.347  34.624  10.820
21618W        W93944   4.948   3.302  13.904
21619W        W93945  36.495  20.713  13.321
21620W        W93946   8.722  33.829   2.612
21621W        W93947  24.472  21.568   3.285
21622W        W93948   1.276  35.062   3.292
21623W        W93949  10.268  39.005   4.004
21624W        W93950  40.225   4.204  11.158
21625W        W93951  43.306  38.975  14.706
21626W        W93952  18.347  17.688   3.442
21627W        W93953   7.244  44.261   4.309
21628W        W93954  20.735  21.544  11.074
21629W        W93955  28.434  43.451   0.418
21630W        W93956  38.458  42.248   4.719
21631W        W93957  36.134  14.263   4.591
21632W        W93958  28.795  29.344   2.354
21633W        W93959  20.182  22.311   3.784
21634W        W93960   3.219  31.670  11.710
21635W        W93961  19.127  41.999  10.888
21636W        W93962   7.138  15.663  10.566
21637W        W93963  19.108  43.418   4.681
21638W        W93964  30.160  36.374   1.442
21639W        W93965   0.944   1.681   5.150
21640W        W93966  27.022   2.704  11.400
21641W        W93967  14.984  11.651   2.754
21642W        W93968  29.058  11.464  14.301
21643W        W93969  42.487   0.188   4.023
21644W        W93970  31.507   4.200  14.045
21645W        W93971  20.137  27.769   0.893
21646W        W93972   6.670  23.283  11.000
21647W        W93973   8.451  36.421   3.365
21648W        W93974  31.400   2.327  13.249
21649W        W93975  10.027  15.777   4.774
21650W        W93976   4.624   5.201   9.762
21651W        W93977  44.307  12.136  12.762
21652W        W93978  35.899  38.399  12.416
21653W        W93979  43.959  23.566   1.678
21654W        W93980  35.778  40.579   1.327
21655W        W93981  41.836  18.165  10.599
21656W        W93982  13.558  24.576   4.048
21657W        W93983  10.205  25.262   0.807
21658W        W93984   5.593  33.641   4.732
21659W        W93985  33.532   8.835  13.130
21660W        W93986   1.021  21.768  13.952
21661W        W93987  37.840  28.649  14.560
21662W        W93988  25.094   3.802   0.252
21663W        W93989  33.418   6.141   5.060
21664W        W93990   3.062   2.342   0.793
21665W        W93991  32.486  17.722  12.346
21666W        W93992  43.190  39.456  12.989
21667W        W93993  26.017  37.045  14.402
21668W        W93994  11.672  33.425   1.822
21669W        W93995   3.915   2.556  10.194
21670W        W93996   9.251  13.571   2.667
21671W        W93997  13.558   5.385  10.589
21672W        W93998   9.450  13.116  14.944
21673W        W93999  36.868  15.151  11.138
21674W        W94000   0.345  41.938   4.594
21675W        W94001  13.093  15.674   1.015
21676W        W94002   8.304  21.263   1.645
21677W        W94003  12.027   6.865  12.994
21678W        W94004  37.997   6.544  13.782
21679W        W94005  37.999  40.801   3.203
21680W        W94006  28.677  38.264  12.986
21681W        W94007  36.759  39.304   2.170
21682W        W94008  32.067   2.644  12.477
21683W        W94009  15.028  24.563   0.803
21684W        W94010   5.874  35.147   3.637
21685W        W94011  32.371  36.604   2.638
21686W        W94012  35.568  18.044  13.481
21687W        W94013  24.099  12.830   1.400
21688W        W94014  36.565  43.565  12.933
21689W        W94015  32.959   8.695  14.458
21690W        W94016   3.114   6.342  12.466
21691W        W94017  24.006  43.792  12.650
21692W        W94018  29.632  41.632  10.394
21693W        W94019  19.058   5.211   2.857
21694W        W94020  32.185   9.137  12.012
21695W        W94021  12.809  44.433  13.310
21696W        W94022  16.574  36.059  12.564
21697W        W94023  38.604  15.813   0.361
21698W        W94024  10.219  26.474   4.054
21699W        W94025  21.474  36.359  12.296
21700W        W94026  15.888  39.500  11.039
21701W        W94027   8.632  37.175  11.068
21702W        W94028  38.240  12.841   0.437
21703W        W94029   0.268  30.546  13.323
21704W        W94030  15.158  23.151  12.302
21705W        W94031  16.105  19.569  13.724
21706W        W94032   4.479   8.770   3.678
21707W        W94033  35.923  19.820  12.553
21708W        W94034   3.399  42.185  10.776
21709W        W94035   0.360  34.001   3.996
21710W        W94036   9.735   4.656  12.669
21711W        W94037  14.240  34.837  13.959
21712W        W94038  14.754   0.967   3.354
21713W        W94039  41.689   2.736   4.114
21714W        W94040   1.824  31.678   3.904
21715W        W94041  20.167   0.555   4.322
21716W        W94042  41.010  36.247   3.618
21717W        W94043  31.042  26.511   0.274
21718W        W94044  44.052  19.561   0.721
21719W        W94045  37.773   2.291  14.939
21720W        W94046  20.051  23.424   4.172
21721W        W94047   7.099  21.433   2.230
21722W        W94048   9.507   9.128   0.773
21723W        W94049  12.336   0.384  11.875
21724W        W94050  40.372  43.318  13.925
21725W        W94051  16.783  30.915   1.290
21726W        W94052  27.966  31.669  12.996
21727W        W94053  42.085  36.622   2.220
21728W        W94054   8.608   6.686  12.826
21729W        W94055  38.356  11.310  10.487
21730W        W94056  35.970  11.552   2.821
21731W        W94057   0.790   5.291   0.759
21732W        W94058  14.161  36.709  10.064
21733W        W94059   5.880  21.012   4.627
21734W        W94060  13.718  43.427   4.714
21735W        W94061  34.702  43.836   4.060
21736W        W94062  32.312  24.519  11.852
21737W        W94063  38.315   8.715   1.867
21738W        W94064   7.268  31.900  11.242
21739W        W94065  25.195   1.034   2.794
21740W        W94066  34.876  14.139  12.889
21741W        W94067  21.123  42.594   4.312
21742W        W94068  21.087  33.396   2.374
21743W        W94069  27.080  39.145  13.408
21744W        W94070   3.909  38.052   1.917
21745W        W94071   9.076  17.521   2.471
21746W        W94072  21.455  29.564   2.659
21747W        W94073  32.922  10.662   2.264
21748W        W94074  25.347  31.880   3.329
21749W        W94075  33.070  15.654   2.299
21750W        W94076  23.212   6.218   4.490
21751W        W94077  31.031  41.753   2.777
21752W        W94078   1.450  30.922  12.057
21753W        W94079  25.133  32.069  12.818
21754W        W94080  15.613   5.963  11.972
21755W        W94081   4.651  44.727  11.549
21756W        W94082  42.246  32.933   4.161
21757W        W94083  31.228  37.856   1.694
21758W        W94084  33.894  12.082  10.595
21759W        W94085  36.692  19.975   3.812
21760W        W94086   8.137  44.955  12.701
21761W        W94087  40.717  22.662  13.750
21762W        W94088   5.323   7.408   1.395
21763W        W94089  42.922  40.909  14.437
21764W        W94090  43.061  18.142   4.096
21765W        W94091  27.257  22.084   1.693
21766W        W94092  16.193  44.794  13.096
21767W        W94093  31.139   9.623   0.084
21768W        W94094   0.101  16.092   3.214
21769W        W94095  30.252  35.507   0.350
21770W        W94096   9.832  21.148  10.654
21771W        W94097  18.496  34.913  12.970
21772W        W94098  18.732  11.548  13.077
21773W        W94099  32.616  25.874  14.918
21774W        W94100   3.335  32.001   0.288
21775W        W94101  37.581   4.020  10.893
21776W        W94102  12.248  34.661  12.869
21777W        W94103  29.120  19.066  14.820
21778W        W94104  44.491   2.856  13.218
21779W        W94105  19.286   3.766   2.271
21780W        W94106  28.384  22.655  12.527
21781W        W94107  33.373   9.117   4.214
21782W        W94108  36.684  26.195  14.443
21783W        W94109  21.821  16.257  12.997
21784W        W94110  34.789  15.108   3.840
21785W        W94111  22.168  32.393  12.457
21786W        W94112  20.382  28.608   1.864
21787W        W94113  37.397   0.445   4.377
21788W        W94114  11.487  35.288   5.396
21789W        W94115  20.160  13.692   2.980
21790W        W94116  38.685  44.903  13.032
21791W        W94117  10.299  36.803   1.265
21792W        W94118  37.882  44.814   1.406
21793W        W94119   4.624  29.162   0.359
21794W        W94120  42.253  13.677   1.330
21795W        W94121  23.061  13.590  13.988
21796W        W94122   6.906  13.340  14.735
21797W        W94123  26.141   3.448   9.870
21798W        W94124   3.221  43.787  11.658
21799W        W94125  17.004  24.144   4.725
21800W        W94126   9.777  38.439  12.913
21801W        W94127  14.567  20.596  12.574
21802W        W94128  27.601  10.906   4.926
21803W        W94129   3.160  25.305   2.211
21804W        W94130  28.279   2.772  13.394
21805W        W94131  24.758  22.626  13.848
21806W        W94132  31.130   6.092  12.400
21807W        W94133  16.696  42.456   0.056
21808W        W94134  19.008  15.714  12.733
21809W        W94135  22.900   8.393  11.335
21810W        W94136  11.748  34.825   4.494
21811W        W94137  24.360  12.593  10.094
21812W        W94138  34.350  19.620  13.955
21813W        W94139   0.857  32.981  11.529
21814W        W94140   1.367  21.272   3.046
21815W        W94141   8.073  36.271  10.442
21816W        W94142  37.556  10.853  14.792
21817W        W94143  22.545  42.698  13.000
21818W        W94144   4.149  19.701   3.702
21819W        W94145  36.852  22.543   1.832
21820W        W94146  26.467  36.099   4.269
21821W        W94147   4.288  43.427   3.693
21822W        W94148  13.220   4.013  13.954
21823W        W94149   0.817  42.476   2.215
21824W        W94150  18.037  24.181  11.994
21825W        W94151   9.327  43.617   3.659
21826W        W94152  13.195  35.514   3.662
21827W        W94153  33.097  22.819   4.216
21828W        W94154  23.539  21.301   3.162
21829W        W94155  26.075  24.609  12.662
21830W        W94156  28.210  44.208  14.095
21831W        W94157   4.026  39.848  13.831
21832W        W94158   6.194   6.807   0.399
21833W        W94159  34.750  20.430   2.845
21834W        W94160   4.699   2.256   0.272
21835W        W94161  44.317  17.601  14.962
21836W        W94162  40.656  32.471  14.788
21837W        W94163  42.998   0.089   3.910
21838W        W94164  19.503  25.379   0.018
21839W        W94165  33.949   5.768   2.444
21840W        W94166  18.650   8.138  13.445
21841W        W94167  39.071  27.690  12.398
21842W        W94168  14.851  34.397   0.503
21843W        W94169  34.449  34.065  13.784
21844W        W94170  13.642  27.665   3.745
21845W        W94171  41.894   9.947  13.912
21846W        W94172  40.506  38.972   0.308
21847W        W94173  23.506   0.809   4.264
21848W        W94174  20.818  38.095  11.922
21849W        W94175  16.123  44.498  14.521
21850W        W94176  14.702   5.991  11.212
21851W        W94177  40.454  36.496   4.813
21852W        W94178  28.101  22.259   1.519
21853W        W94179  13.736  21.993   2.930
21854W        W94180  12.373   9.669  11.866
21855W        W94181  15.104  32.034  14.230
21856W        W94182  12.337  42.272  12.491
21857W        W94183  32.440  43.801   4.477
21858W        W94184   0.853  15.663   4.172
21859W        W94185  11.306  18.526  14.973
21860W        W94186   7.285  27.314  12.042
21861W        W94187  43.001  22.800   3.397
21862W        W94188  42.165  18.230  12.959
21863W        W94189  23.434  12.229   2.746
21864W        W94190  26.117   8.536  10.875
21865W        W94191   1.687  17.950  13.038
21866W        W94192  37.582  12.822   4.611
21867W        W94193  41.081  28.969   3.733
21868W        W94194  12.248  30.160  14.443
21869W        W94195  34.628  27.236  11.680
21870W        W94196  42.942   4.711   2.404
21871W        W94197   1.828  13.017  11.572
21872W        W94198  35.854  34.122  11.851
21873W        W94199  27.999   0.683  13.877
21874W        W94200   2.202  15.711  13.883
21875W        W94201  24.371  39.801   3.711
21876W        W94202  42.452   6.334  11.332
21877W        W94203   6.377  24.577   0.687
21878W        W94204  44.856  44.463  12.859
21879W        W94205   4.821  16.887  11.620
21880W        W94206  30.598  37.332   1.676
21881W        W94207  20.474  40.915   4.686
21882W        W94208   1.804  29.469   3.176
21883W        W94209  14.302  29.151  14.338
21884W        W94210  38.280  27.353   4.459
21885W        W94211   5.027  43.984   0.566
21886W        W94212  43.881  21.132   1.773
21887W        W94213  14.312  41.429  14.887
21888W        W94214  17.496  24.970   3.325
21889W        W94215  31.166  31.735   0.221
21890W        W94216  37.966   3.728   1.808
21891W        W94217   1.218  13.074  11.606
21892W        W94218  36.794  29.538  10.565
21893W        W94219  24.795  28.563   0.292
21894W        W94220  10.400   0.985  11.492
21895W        W94221  20.191   5.860   3.612
21896W        W94222  17.336   7.387   3.810
21897W        W94223  27.060  37.121  13.479
21898W        W94224  39.162  20.634  11.591
21899W        W94225  34.572  36.519   2.396
21900W        W94226  37.895  33.486  13.476
21901W        W94227   2.977  26.211  11.148
21902W        W94228   6.320  21.216   2.849
21903W        W94229   7.130  22.432   0.669
21904W        W94230  12.886   9.219   3.647
21905W        W94231  44.471  36.623   3.663
21906W        W94232  38.061  31.457  14.207
21907W        W94233  21.238  18.272  13.969
21908W        W94234  16.212   4.225  12.956
21909W        W94235  35.118  24.716   3.254
21910W        W94236  17.054  28.899   1.668
21911W        W94237  22.227  15.083  10.708
21912W        W94238   0.451   8.820   0.013
21913W        W94239  44.356  26.641   2.793
21914W        W94240  22.824  14.643  10.930
21915W        W94241  44.333  12.655  11.941
21916W        W94242  32.023  17.267   1.091
21917W        W94243   8.628   7.269  12.526
21918W        W94244  20.280  13.129  12.512
21919W        W94245   3.581  30.692   4.096
21920W        W94246  40.996  14.545  12.379
21921W        W94247  42.021  30.645  13.927
21922W        W94248  37.408  15.578  13.006
21923W        W94249  39.850   6.502  13.903
21924W        W94250   4.752  15.266  13.933
21925W        W94251   6.620  41.316  11.886
21926W        W94252  37.605  16.557   1.434
21927W        W94253  35.360  16.682  11.589
21928W        W94254   3.864  32.516  13.862
21929W        W94255  38.525  10.685   0.088
21930W        W94256  40.241  34.489  10.145
21931W        W94257  28.985   6.320  10.573
21932W        W94258  17.009  24.721   2.245
21933W        W94259  35.327   8.218  10.755
21934W        W94260  31.766  18.189   1.540
21935W        W94261  29.508  17.985  13.564
21936W        W94262  32.665  36.564   2.214
21937W        W94263  13.254  28.186  14.462
21938W        W94264  15.532  30.385  14.773
21939W        W94265  15.818  19.604   1.791
21940W        W94266  42.012   6.419  11.586
21941W        W94267  37.255  20.486  10.500
21942W        W94268  22.621  18.267   1.043
21943W        W94269  32.778  27.149  13.910
21944W        W94270  42.121  26.729  11.110
21945W        W94271  33.636  11.127   3.779
21946W        W94272  37.257  30.440  13.835
21947W        W94273  21.508  32.909  10.914
21948W        W94274  36.487  18.078   1.874
21949W        W94275  38.486  31.891   2.685
21950W        W94276  19.184   0.864   3.412
21951W        W94277   5.020  11.804   4.595
21952W        W94278  33.149  33.395  10.824
21953W        W94279  10.894  15.061   0.740
21954W        W94280  15.128  43.799   3.242
21955W        W94281  23.572  10.302  13.456
21956W        W94282   4.353  27.682  10.473
21957W        W94283  42.906  15.036   0.266
21958W        W94284   3.680  12.345  13.560
21959W        W94285  38.048  22.101   1.525
21960W        W94286  12.345  21.289   4.147
21961W        W94287  20.068  25.639   3.852
21962W        W94288   1.174   4.235   2.356
21963W        W94289   4.956  29.782  12.582
21964W        W94290   9.866  35.467  13.375
21965W        W94291  28.527  12.249   1.636
21966W        W94292  32.402   2.819  14.024
21967W        W94293  43.670  24.140  11.999
21968W        W94294   0.002  35.020  12.905
21969W        W94295   0.881  31.390   4.133
21970W        W94296  32.125  25.081   3.385
21971W        W94297  42.559  13.567   4.240
21972W        W94298   5.171  22.096  10.658
21973W        W94299  11.385  10.896  11.001
21974W        W94300  17.039  25.676  11.485
21975W        W94301  43.473  18.074  12.418
21976W        W94302  41.852  38.814  11.579
21977W        W94303  19.187  22.447  11.851
21978W        W94304   1.740  21.448  10.153
21979W        W94305   9.768  17.946  13.868
21980W        W94306  14.304   8.349   2.182
21981W        W94307  17.580   8.344  10.511
21982W        W94308  35.125  38.595   1.434
21983W        W94309   4.119  26.252   4.616
21984W        W94310  30.388   7.381  12.039
21985W        W94311   9.278  38.046   1.722
21986W        W94312  37.985  21.496   4.705
21987W        W94313   6.571  19.122   2.145
21988W        W94314  19.898  10.806  14.092
21989W        W94315  38.101  31.056  13.883
21990W        W94316   1.762   4.772  11.655
21991W        W94317  21.527  27.214   1.856
21992W        W94318  18.242  21.064  13.923
21993W        W94319   0.170   5.075  10.631
21994W        W94320  28.163  24.436   4.229
21995W        W94321  13.668  11.333   4.669
21996W        W94322  12.238   1.071  12.437
21997W        W94323   0.514  43.892  11.568
21998W        W94324  29.003   7.989   0.276
21999W        W94325  37.160  18.796  14.540
22000W        W94326  38.916  38.796   4.275
22001W        W94327  22.937  32.093   3.201
22002W        W94328   7.769  36.141  12.871
22003W        W94329  16.888  44.166   0.039
22004W        W94330  26.471  38.299  12.944
22005W        W94331  38.380  37.543  10.622
22006W        W94332  15.138   0.290  14.482
22007W        W94333  12.141  25.606  14.336
22008W        W94334  34.830  13.793  12.485
22009W        W94335  42.319   8.381  12.369
22010W        W94336  24.765  38.532  14.038
22011W        W94337  30.078  37.430  10.995
22012W        W94338  44.862  34.880   1.161
22013W        W94339  28.231   0.200  14.077
22014W        W94340  42.901   5.892   2.776
22015W        W94341   8.470  24.137  13.523
22016W        W94342  32.745  30.902  12.370
22017W        W94343  41.861   6.503   3.372
22018W        W94344  33.054  34.504  14.849
22019W        W94345  20.353   7.313   1.266
22020W        W94346  23.178  17.588   5.446
22021W        W94347  12.364   8.877   4.748
22022W        W94348  42.041  34.479   5.372
22023W        W94349  18.039  44.592   4.472
22024W        W94350   9.190  37.556   4.227
22025W        W94351  18.438   1.748  11.129
22026W        W94352   0.827   6.801  14.342
22027W        W94353  14.406  13.257  10.699
22028W        W94354  37.569   9.432   4.771
22029W        W94355   0.935  21.164   1.394
22030W        W94356  41.465  19.088   4.844
22031W        W94357   1.306  32.150   2.332
22032W        W94358  23.831  13.203   4.054
22033W        W94359  34.849  35.043  11.951
22034W        W94360  33.915   0.580   0.574
22035W        W94361   8.165  43.812  14.989
22036W        W94362  10.694  36.840  12.899
22037W        W94363  18.099   5.388   0.396
22038W        W94364  23.096  43.981  10.473
22039W        W94365  27.735   9.865  12.199
22040W        W94366  34.615  28.379   0.735
22041W        W94367  15.020  10.736   2.919
22042W        W94368  13.081  16.855   2.713
22043W        W94369  31.185  32.922  10.525
22044W        W94370  43.076  35.540  12.079
22045W        W94371   6.944  43.641  13.446
22046W        W94372  32.035  12.599   0.537
22047W        W94373  43.588   1.449  11.549
22048W        W94374  27.382  39.236  13.818
22049W        W94375   8.093  19.183  12.053
22050W        W94376  21.790  41.481   4.091
22051W        W94377   2.627   7.075  12.046
22052W        W94378  10.156  41.452  11.195
22053W        W94379  25.257   5.912   0.923
22054W        W94380  44.371   4.428   3.618
22055W        W94381  38.548  15.174  10.712
22056W        W94382   8.090  16.124   1.443
22057W        W94383  41.858  12.755  14.113
22058W        W94384  41.206  24.248  14.841
22059W        W94385  23.511  27.736   4.555
22060W        W94386   9.768  40.346   0.895
22061W        W94387  16.627   6.525   2.362
22062W        W94388  25.536   0.736  12.047
22063W        W94389  40.806  32.009  14.538
22064W        W94390  19.449  40.520   3.629
22065W        W94391   5.905  40.299  10.830
22066W        W94392   0.868  34.705   3.321
22067W        W94393  16.009   9.464  10.674
22068W        W94394  37.472  29.525   3.491
22069W        W94395  37.047   5.791  14.415
22070W        W94396  36.050  38.945  11.471
22071W        W94397   1.800  15.367  11.137
22072W        W94398  23.177  35.537   4.399
22073W        W94399   2.315   7.592   2.796
22074W        W94400  37.939  37.928  14.887
22075W        W94401   1.046  10.333  10.695
22076W        W94402  18.502  22.057   4.166
22077W        W94403  19.919  40.871   4.282
22078W        W94404  18.683   6.908  11.805
22079W        W94405  12.783  36.082   5.154
22080W        W94406  25.084  19.966   2.801
22081W        W94407  10.464  31.728   2.484
22082W        W94408  29.888  25.571   1.895
22083W        W94409  33.439   3.885  10.703
22084W        W94410  24.327  35.348   3.001
22085W        W94411  22.171  22.093   4.276
22086W        W94412  21.760   0.315   2.278
22087W        W94413  31.416  15.867  14.904
22088W        W94414   7.510  17.664  11.123
22089W        W94415  30.647  35.799  13.366
22090W        W94416   7.275   3.821  12.928
22091W        W94417   4.853  22.749   5.163
22092W        W94418  19.748   0.288   0.275
22093W        W94419  42.395   2.917   0.418
22094W        W94420  43.884  32.621   2.761
22095W        W94421  18.226   8.171  14.771
22096W        W94422  41.848   3.243  12.768
22097W        W94423  12.944  32.765  13.869
22098W        W94424   9.438   2.750  14.467
22099W        W94425  35.573  26.462   0.365
22100W        W94426  41.567  27.988  11.640
22101W        W94427  25.536  12.686   1.840
22102W        W94428  36.218  34.693   4.135
22103W        W94429   6.654  31.593  11.230
22104W        W94430  44.899  23.179  12.852
22105W        W94431  44.535  43.761  11.706
22106W        W94432  26.426   2.403   3.173
22107W        W94433  41.032  25.049  11.402
22108W        W94434  16.080  26.950   2.654
22109W        W94435  43.519  17.532  12.369
22110W        W94436  28.964  13.152   2.694
22111W        W94437  15.206  32.092   0.240
22112W        W94438  13.858  17.269  11.461
22113W        W94439  23.672  33.059  11.719
22114W        W94440  44.091  11.181   2.646
22115W        W94441  33.221  11.323  11.881
22116W        W94442  22.842  18.072   3.114
22117W        W94443  32.891   2.549  10.427
22118W        W94444  44.797  23.748  10.703
22119W        W94445  29.605  24.132  10.616
22120W        W94446  18.648   8.921   1.769
22121W        W94447  15.535  20.493   1.325
22122W        W94448  36.354  25.161   0.349
22123W        W94449   2.250  34.448  13.399
22124W        W94450  17.135  15.739  12.237
22125W        W94451   5.955  17.598   4.561
22126W        W94452  15.895  44.942   4.624
22127W        W94453  21.051  26.640  14.481
22128W        W94454  15.620   6.358  11.116
22129W        W94455  42.515  37.315   0.939
22130W        W94456  11.710   5.432   1.600
22131W        W94457  21.221   8.970  11.192
22132W        W94458  21.649  20.255  10.931
22133W        W94459  25.257  42.800  12.782
22134W        W94460  43.855  16.569  10.713
22135W        W94461  14.641  19.180  12.914
22136W        W94462  16.830  18.247  11.942
22137W        W94463  20.675  16.562   3.606
22138W        W94464   0.937  17.565   3.509
22139W        W94465  29.962  12.296   1.086
22140W        W94466  22.179  37.377   1.936
22141W        W94467   6.757   4.930  12.086
22142W        W94468  37.826  12.128  10.896
22143W        W94469   2.585  11.094   2.675
22144W        W94470   2.008   2.938   3.279
22145W        W94471  13.467  21.128  10.935
22146W        W94472  28.861   7.648   4.166
22147W        W94473  28.601   8.742   2.829
22148W        W94474  37.435  21.943  14.038
22149W        W94475   6.823  18.882  11.132
22150W        W94476  41.126   3.531   2.144
22151W        W94477  42.793  26.075   4.887
22152W        W94478  43.881  25.158  12.128
22153W        W94479   1.988  34.614  14.382
22154W        W94480  24.938  38.989  14.980
22155W        W94481  17.149  11.430   0.425
22156W        W94482  25.635  36.166  13.936
22157W        W94483   7.874  40.411  13.479
22158W        W94484  20.556  24.701   0.451
22159W        W94485   5.996  26.868  11.502
22160W        W94486   2.864  21.777  11.524
22161W        W94487  11.155  34.871   0.054
22162W        W94488  38.995  16.610  11.167
22163W        W94489   4.281  28.575  12.597
22164W        W94490   5.681  23.129  12.111
22165W        W94491  41.441  25.235  14.125
22166W        W94492   7.273  18.509   2.872
22167W        W94493  32.689  38.508   4.113
22168W        W94494  42.007   4.256  11.385
22169W        W94495  36.497  12.615   0.815
22170W        W94496  16.214   9.259   3.554
22171W        W94497  35.631  35.274   2.756
22172W        W94498  36.308  17.635  12.418
22173W        W94499   6.734  10.669  11.152
22174W        W94500  13.839  31.823   0.272
22175W        W94501   5.670  37.109  12.635
22176W        W94502  39.443  15.170   0.451
22177W        W94503  29.391  41.304   3.511
22178W        W94504   5.253  19.789  10.760
22179W        W94505  15.116  20.556   2.804
22180W        W94506   7.879  15.074  13.543
22181W        W94507   0.148  23.113  12.392
22182W        W94508  12.565  34.485   3.713
22183W        W94509   5.662  34.883   3.253
22184W        W94510   8.800  36.964   4.746
22185W        W94511  42.336   3.851   5.023
22186W        W94512  43.310  21.262  14.778
22187W        W94513   6.058  29.163   3.325
22188W        W94514  32.960   6.850   4.752
22189W        W94515   4.833  13.746   4.057
22190W        W94516  36.073  23.761   2.774
22191W        W94517   3.079  11.661  12.829
22192W        W94518   3.327  43.550  11.203
22193W        W94519  30.516  43.306  14.504
22194W        W94520  10.915  19.258   3.715
22195W        W94521  31.161  26.983   0.470
22196W        W94522  40.458   5.665   0.852
22197W        W94523   6.794   6.293  13.003
22198W        W94524  38.020  20.053  11.934
22199W        W94525  14.305  30.023   0.745
22200W        W94526  25.193  12.590  11.767
22201W        W94527  18.223  13.225  12.917
22202W        W94528  22.587  12.411  13.403
22203W        W94529  40.366  16.291   4.532
22204W        W94530   4.354  25.035   4.415
22205W        W94531  33.077  31.040   0.929
22206W        W94532   7.633  30.375   4.238
22207W        W94533  15.583  17.296  13.933
22208W        W94534  39.754   1.356   3.097
22209W        W94535   4.100  39.991  11.833
22210W        W94536  43.571   4.649   3.928
22211W        W94537  40.857  37.376  10.386
22212W        W94538  35.108  18.336  13.492
22213W        W94539  24.953  26.367  12.479
22214W        W94540  26.746   0.108  14.893
22215W        W94541   6.499  13.844  10.733
22216W        W94542   5.207  17.230  13.923
22217W        W94543  38.567  30.080   0.491
22218W        W94544   9.561  14.086   4.876
22219W        W94545  37.818  39.228  13.886
22220W        W94546  43.875   5.064  10.926
22221W        W94547   6.294  27.611  10.796
22222W        W94548  28.093   2.275   0.879
22223W        W94549  24.763  38.498  14.914
22224W        W94550   7.195  17.319   2.205
22225W        W94551  23.967   8.779   4.324
22226W        W94552  19.992  29.542   3.472
22227W        W94553  41.229  41.314  13.017
22228W        W94554   7.357  12.841  11.986
22229W        W94555  43.767  19.793   2.296
22230W        W94556   4.741  31.295   1.394
22231W        W94557  14.069   5.815   2.751
22232W        W94558  40.016  33.542   2.365
22233W        W94559  20.287   6.796   2.194
22234W        W94560  25.182   3.518  14.834
22235W        W94561  23.877  23.693  13.478
22236W        W94562  44.842   1.920  14.725
22237W        W94563  34.714   7.268  11.499
22238W        W94564  40.501  32.943   2.648
22239W        W94565   1.063  11.446  14.274
22240W        W94566  33.721  19.674   2.824
22241W        W94567   0.845  20.547   4.536
22242W        W94568  18.536  24.777   1.285
22243W        W94569  36.305  14.465  11.092
22244W        W94570   3.285  27.384   1.847
22245W        W94571   5.900  19.217  11.774
22246W        W94572  23.136  25.103   4.552
22247W        W94573   8.487  20.678  13.866
22248W        W94574   5.393  40.410  11.612
22249W        W94575   7.596  32.098  13.587
22250W        W94576  18.058  10.883   1.810
22251W        W94577   7.191  44.756  12.520
22252W        W94578   1.956  21.313  12.969
22253W        W94579  26.727   8.267  13.847
22254W        W94580   0.872  14.624  12.282
22255W        W94581  34.375  28.211   1.726
22256W        W94582  44.329  36.228  10.436
22257W        W94583  20.172  22.617  12.334
22258W        W94584   3.741  38.069  11.068
22259W        W94585  39.896   5.588   4.045
22260W        W94586   1.682  25.532   0.302
22261W        W94587   1.461  19.717   3.685
22262W        W94588  20.614   2.670  14.301
22263W        W94589  18.642  27.601   0.404
22264W        W94590   6.410  43.008   4.540
22265W        W94591   2.196  41.273  11.121
22266W        W94592  21.250  28.497   4.881
22267W        W94593  35.764   0.827   1.480
22268W        W94594   0.048  35.089  14.466
22269W        W94595  19.717  27.034   4.671
22270W        W94596  11.330   9.902   3.674
22271W        W94597  13.563  27.799  11.521
22272W        W94598  33.545  24.019  10.512
22273W        W94599   9.103  40.811  14.749
22274W        W94600  37.310  35.471  12.891
22275W        W94601  19.261  42.962  14.742
22276W        W94602  16.293   8.327   3.653
22277W        W94603  15.539  30.832   4.207
22278W        W94604   5.215  12.146  13.432
22279W        W94605  37.354  16.580   1.931
22280W        W94606  39.089  42.524  13.891
22281W        W94607   2.258  35.942  14.464
22282W        W94608   7.457  15.883  11.956
22283W        W94609  26.604  27.940   0.546
22284W        W94610  35.450   0.743   4.696
22285W        W94611  37.079  19.812  14.539
22286W        W94612  31.124  20.789  11.566
22287W        W94613   2.126  38.511  14.404
22288W        W94614  27.545  39.057   1.883
22289W        W94615  17.310  44.929   1.882
22290W        W94616  20.868  26.661   4.017
22291W        W94617  17.059  42.842  13.331
22292W        W94618  27.730  19.022   2.683
22293W        W94619  12.357  29.738  13.394
22294W        W94620  25.541  38.103  10.526
22295W        W94621  36.117  18.104  14.826
22296W        W94622  15.230  41.997   3.592
22297W        W94623  15.232  11.833   1.051
22298W        W94624   2.525  17.068   3.643
22299W        W94625  40.839  39.352   0.376
22300W        W94626  25.542  14.745   1.479
22301W        W94627  23.806  41.800   0.444
22302W        W94628  11.231  11.275  12.967
22303W        W94629  28.864  31.338   0.793
22304W        W94630  17.313  27.617   2.728
22305W        W94631  43.924  12.307   0.038
22306W        W94632  33.714  18.652  13.382
22307W        W94633  14.314  42.016  12.900
22308W        W94634  23.292   6.415   2.148
22309W        W94635  37.970  25.990   1.774
22310W        W94636  36.922   7.206  11.105
22311W        W94637  20.028  10.060   1.264
22312W        W94638  20.979  29.444   2.404
22313W        W94639  29.217   2.429  11.127
22314W        W94640   2.356  35.273  11.569
22315W        W94641   4.781  12.488  14.845
22316W        W94642  33.507  40.179  13.309
22317W        W94643  30.641  34.812  14.359
22318W        W94644   4.265  22.080  11.120
22319W        W94645  33.044  33.427  13.288
22320W        W94646  12.086  24.951  11.563
22321W        W94647  43.773   9.159  13.863
22322W        W94648  11.676  21.205  14.960
22323W        W94649  38.420  27.965  14.322
22324W        W94650  38.158  13.294  13.374
22325W        W94651  30.816  17.436  11.516
22326W        W94652  12.999  12.823   1.042
22327W        W94653  41.002  11.751   0.911
22328W        W94654   0.006  37.852   3.143
22329W        W94655  25.375  17.810  11.549
22330W        W94656  39.992   1.930  10.714
22331W        W94657  19.560  37.904   0.793
22332W        W94658  43.486  13.441  12.655
22333W        W94659  23.548  39.431   1.314
22334W        W94660  11.038   4.751  11.047
22335W        W94661  12.592   9.221   0.388
22336W        W94662   7.419   5.815   1.217
22337W        W94663  35.459   1.141  11.772
22338W        W94664  37.761  29.357   9.849
22339W        W94665  25.611  23.766   2.339
22340W        W94666   2.442  38.849   2.308
22341W        W94667   7.717   8.434   0.869
22342W        W94668  37.014  18.834   4.113
22343W        W94669   3.643  23.610   5.066
22344W        W94670  25.421  21.456  14.502
22345W        W94671   9.427  27.917   1.324
22346W        W94672  21.967  39.359   4.210
22347W        W94673   1.015  33.493  11.642
22348W        W94674  39.543  19.057   3.172
22349W        W94675   2.628  34.811   4.214
22350W        W94676  27.517   2.204  13.819
22351W        W94677  43.918   9.237   3.094
22352W        W94678  31.903  44.206  14.838
22353W        W94679  40.223   2.449  14.409
22354W        W94680   3.975  28.947  11.239
22355W        W94681  29.664   1.462  11.162
22356W        W94682   3.139   5.207   0.005
22357W        W94683  36.343   5.806   3.169
22358W        W94684  30.116  26.403  10.575
22359W        W94685  38.637   2.678   3.324
22360W        W94686  31.836  13.148   2.365
22361W        W94687   1.783  18.190   3.807
22362W        W94688  31.167  28.956   0.400
22363W        W94689  19.989  28.320  12.539
22364W        W94690  33.148   7.324  12.719
22365W        W94691  43.002  30.512  11.514
22366W        W94692  21.690  18.047   1.322
22367W        W94693  17.647  34.430   4.500
22368W        W94694  11.573  17.270   0.421
22369W        W94695  16.155   3.147   0.341
22370W        W94696  16.664  19.662   2.415
22371W        W94697  44.494   3.510   4.076
22372W        W94698  20.260  26.990   3.634
22373W        W94699  41.428  15.745  12.443
22374W        W94700  19.600   8.920   2.780
22375W        W94701  34.039   6.346  12.407
22376W        W94702  34.181  16.044   0.348
22377W        W94703  32.023  32.008   0.455
22378W        W94704  37.128  42.450   2.619
22379W        W94705  15.637   0.976   1.238
22380W        W94706   3.398  25.909   0.778
22381W        W94707  41.316   3.924  10.773
22382W        W94708  37.303  19.744   4.082
22383W        W94709  40.073  35.042  14.382
22384W        W94710   0.296   6.930  14.382
22385W        W94711  10.848  14.615  14.503
22386W        W94712  43.784  11.849   2.675
22387W        W94713  42.735   9.713   1.899
22388W        W94714   2.759   7.109   3.728
22389W        W94715  27.936   7.999  12.083
22390W        W94716  20.346   0.718  11.980
22391W        W94717   7.916  25.251  14.497
22392W        W94718   8.956  36.248  13.398
22393W        W94719  42.089  39.063   4.099
22394W        W94720   4.570  26.547   2.846
22395W        W94721  41.863   7.482   3.288
22396W        W94722  39.914   0.572  11.953
22397W        W94723  40.328   1.845  14.433
22398W        W94724  30.913  29.433  12.458
22399W        W94725  38.846  33.947   4.522
22400W        W94726  38.638  11.258  12.233
22401W        W94727  38.235  38.067   3.726
22402W        W94728  36.036  19.742   2.688
22403W        W94729  27.984  21.326   4.367
22404W        W94730   3.524  36.348   1.384
22405W        W94731  28.017  10.802  11.438
22406W        W94732   9.360  35.778  13.924
22407W        W94733  34.455  40.755   1.181
22408W        W94734  11.325   6.854   1.799
22409W        W94735  43.367  30.110   3.683
22410W        W94736   0.556  19.653   2.943
22411W        W94737  31.991  20.271  13.364
22412W        W94738  27.255  12.154   3.634
22413W        W94739   6.282   2.770   4.029
22414W        W94740  19.606  24.745  14.442
22415W        W94741  31.380  31.595   4.257
22416W        W94742   6.191   8.107  13.829
22417W        W94743  43.484  39.568   3.293
22418W        W94744  14.112  34.288   4.621
22419W        W94745  30.174  13.097  12.920
22420W        W94746  37.856  42.298   3.377
22421W        W94747  15.849  38.858   2.295
22422W        W94748  27.348  18.691   3.533
22423W        W94749   4.823  23.242  12.280
22424W        W94750  39.043  28.965   3.566
22425W        W94751   4.370  38.735  10.170
22426W        W94752  25.177  24.817   4.206
22427W        W94753  25.427  26.148  14.934
22428W        W94754  39.991  33.864  11.567
22429W        W94755  12.324  40.495  10.581
22430W        W94756   3.349  24.839   2.120
22431W        W94757  44.336  29.966  10.544
22432W        W94758  15.269  28.167  14.923
22433W        W94759  43.259  28.249   3.400
22434W        W94760  34.469  25.234   0.358
22435W        W94761  38.008  26.922   2.251
22436W        W94762  34.026  20.669  11.154
22437W        W94763  35.063  40.096  11.451
22438W        W94764  22.220  17.275  12.241
22439W        W94765  21.114  13.072  10.724
22440W        W94766   0.842   0.008   1.387
22441W        W94767  41.077  23.671   4.444
22442W        W94768   8.813  19.577  14.098
22443W        W94769  36.516  36.517   1.285
22444W        W94770  40.490  39.940   4.633
22445W        W94771  35.902  10.681  12.458
22446W        W94772  36.857  31.017  11.747
22447W        W94773  40.497  42.843  12.837
22448W        W94774  33.639  29.720  10.605
22449W        W94775  32.206  10.249   0.968
22450W        W94776  20.028  27.730   1.904
22451W        W94777  12.597   4.568   5.039
22452W        W94778  20.766  10.417  14.214
22453W        W94779  41.765  21.136   3.896
22454W        W94780  30.946  26.568  12.112
22455W        W94781  23.223   2.671   4.301
22456W        W94782  31.824  18.996  11.659
22457W        W94783  13.842  44.442  14.402
22458W        W94784  13.312  37.681  11.990
22459W        W94785  44.206   0.965   3.790
22460W        W94786   9.664  40.477   3.123
22461W        W94787  11.000  10.856  11.909
22462W        W94788  39.348   5.192   2.848
22463W        W94789  20.207  35.072   1.881
22464W        W94790  30.459  27.882  12.114
22465W        W94791  34.854  25.095   0.735
22466W        W94792   9.387  16.602   3.885
22467W        W94793  21.196  32.842   1.462
22468W        W94794   9.662  22.646  11.566
22469W        W94795  26.534  37.981   0.732
22470W        W94796  31.278  43.390  10.784
22471W        W94797  13.592  11.178   1.876
22472W        W94798  27.163  24.109   0.273
22473W        W94799  44.710   6.395  12.468
22474W        W94800  13.443  20.458   2.209
22475W        W94801  28.737  12.971   3.753
22476W        W94802  35.012  23.937  13.315
22477W        W94803  38.737  12.263   2.200
22478W        W94804  14.774  25.951   4.634
22479W        W94805   9.364  24.258  12.073
22480W        W94806  10.216  40.578  12.390
22481W        W94807   7.233   3.378   0.262
22482W        W94808   6.776  10.651   2.532
22483W        W94809  28.013  33.411   4.263
22484W        W94810  41.803  11.380  10.736
22485W        W94811  10.281  11.899   2.647
22486W        W94812  38.517  30.677  13.293
22487W        W94813  25.175  31.617  13.048
22488W        W94814   8.228   3.053   2.857
22489W        W94815  17.717  42.131   1.606
22490W        W94816  22.000  11.095  10.662
22491W        W94817  28.716   6.356  11.023
22492W        W94818  35.873  23.469   1.825
22493W        W94819  21.662  37.480  13.726
22494W        W94820  36.598  10.291  13.509
22495W        W94821   5.335  37.573   3.153
22496W        W94822  37.272  29.527  10.724
22497W        W94823  23.375  14.368  14.147
22498W        W94824  36.037  34.676   4.612
22499W        W94825  32.160  38.329  10.769
22500W        W94826  39.112  11.773  13.318
22501W        W94827  23.807   9.917   2.428
22502W        W94828   6.266  38.266  14.738
22503W        W94829  29.537   4.762   0.798
22504W        W94830  14.379  21.983  12.943
22505W        W94831   4.140  28.697   3.931
22506W        W94832  31.079   0.891  13.259
22507W        W94833  15.126  39.268   4.069
22508W        W94834  28.135   9.756  14.745
22509W        W94835  31.921   6.804   4.607
22510W        W94836  13.442   0.035   4.825
22511W        W94837   9.132  14.632  14.858
22512W        W94838  14.267  16.097  13.928
22513W        W94839  25.732   6.302  10.706
22514W        W94840  16.681   0.500  13.829
22515W        W94841  32.542  43.295  13.422
22516W        W94842  43.287  37.903  12.482
22517W        W94843  17.021   0.716  12.917
22518W        W94844  31.562   7.153   4.433
22519W        W94845  18.661  19.252   2.318
22520W        W94846  33.503  21.756   2.443
22521W        W94847  38.401  14.792  14.531
22522W        W94848   8.344  20.502   1.315
22523W        W94849   0.841   2.002   4.504
22524W        W94850  27.409  25.691  13.591
22525W        W94851  39.445   8.380  11.679
22526W        W94852  44.926  24.123   4.662
22527W        W94853  32.935  20.547   3.842
22528W        W94854  33.449  32.567   4.299
22529W        W94855  16.196  13.584  14.798
22530W        W94856  12.779  12.406  12.021
22531W        W94857  28.138  35.901   5.293
22532W        W94858   1.573  44.905  14.041
22533W        W94859  38.344  17.770   0.132
22534W        W94860   9.423   7.105  11.994
22535W        W94861  37.985  28.364  12.159
22536W        W94862   9.186  15.885   3.036
22537W        W94863  22.144   6.201   0.766
22538W        W94864  11.937  18.228  13.347
22539W        W94865   7.715  44.097   0.838
22540W        W94866  17.111  44.050   4.512
22541W        W94867  36.590  27.418   2.186
22542W        W94868  15.947  42.634   3.197
22543W        W94869  12.636  32.573  10.885
22544W        W94870  15.533   6.036   4.030
22545W        W94871  12.186   7.124  11.691
22546W        W94872  23.103  11.739  14.481
22547W        W94873  11.991  21.730  11.073
22548W        W94874  27.684   3.479  14.363
22549W        W94875  29.815  34.637   4.731
22550W        W94876  26.442  19.192   1.648
22551W        W94877  22.650  21.275  10.955
22552W        W94878  37.541  33.955   1.015
22553W        W94879  33.433  25.431   3.357
22554W        W94880  18.800  15.123   2.588
22555W        W94881  10.823  21.566   1.704
22556W        W94882  25.588  19.174   1.747
22557W        W94883  44.494  22.247  10.627
22558W        W94884  25.257  20.512  12.451
22559W        W94885  29.570  32.893  12.988
22560W        W94886  18.807  34.027  12.412
22561W        W94887   0.205  35.034   4.078
22562W        W94888  36.551   1.494  11.994
22563W        W94889  27.508  33.300  12.814
22564W        W94890  21.996   3.371   1.539
22565W        W94891  36.893  31.167   2.936
22566W        W94892  26.970  40.124   1.779
22567W        W94893  39.301  28.636  11.422
22568W        W94894  26.510  44.734   3.623
22569W        W94895  40.281  30.096   3.341
22570W        W94896  14.716  17.577  11.186
22571W        W94897  37.106  21.078  13.900
22572W        W94898  25.428  25.323  13.041
22573W        W94899  42.917  34.474  11.976
22574W        W94900  18.356  30.873  14.795
22575W        W94901  30.816  27.485  11.011
22576W        W94902  10.300   0.936   2.358
22577W        W94903   2.250  19.203   1.683
22578W        W94904   8.343  13.233   3.752
22579W        W94905   7.131  28.131   4.180
22580W        W94906  20.619  44.217  11.905
22581W        W94907  34.494  32.385   1.893
22582W        W94908  26.042  34.023  13.015
22583W        W94909   0.681  43.105   3.759
22584W        W94910  17.173   9.933  14.535
22585W        W94911  21.589  33.369  10.665
22586W        W94912   4.311  24.952   3.922
22587W        W94913   5.348  37.868   2.711
22588W        W94914  44.448  12.390  11.493
22589W        W94915  22.035  40.634   4.599
22590W        W94916  32.715   6.919  14.979
22591W        W94917  10.654  16.687  10.415
22592W        W94918  34.003  20.170   0.115
22593W        W94919  21.159  22.291  13.904
22594W        W94920  17.758  32.926   4.386
22595W        W94921  25.105  29.330   1.390
22596W        W94922  11.084  22.213   0.238
22597W        W94923   9.348  19.187   4.535
22598W        W94924   8.626  19.336   0.409
22599W        W94925  14.813   9.417  11.174
22600W        W94926  30.074  41.729   2.866
22601W        W94927  18.672   3.716   1.522
22602W        W94928  40.102   9.082  13.076
22603W        W94929  18.724  42.162   3.491
22604W        W94930   5.219  31.455  12.021
22605W        W94931   5.254  30.196  10.648
22606W        W94932  32.115  25.671  12.523
22607W        W94933  20.251  38.550   9.814
22608W        W94934  40.125   7.838   4.111
22609W        W94935  26.662  10.966   3.414
22610W        W94936  10.562  15.040  11.887
22611W        W94937  42.999  30.892   5.024
22612W        W94938   6.445   0.932  13.367
22613W        W94939  33.666  38.223  12.637
22614W        W94940  21.217  25.477   2.577
22615W        W94941  39.517  42.816  13.045
22616W        W94942  28.035   7.561  13.012
22617W        W94943  20.419   4.371  14.885
22618W        W94944   5.223  17.114  12.904
22619W        W94945  25.905  20.759   4.032
22620W        W94946  39.349  36.869  13.077
22621W        W94947   0.490  18.816   2.200
22622W        W94948  12.861  31.930   0.409
22623W        W94949  40.607   5.003  11.151
22624W        W94950   1.550  42.832  11.193
22625W        W94951  22.160  40.475   2.689
22626W        W94952   4.818  21.615   3.137
22627W        W94953  42.510  23.283  13.506
22628W        W94954   8.301  16.230   0.977
22629W        W94955  38.891  13.354  11.941
22630W        W94956  27.374   4.413  11.494
22631W        W94957  25.538   8.478   0.460
22632W        W94958  16.738  36.654   4.432
22633W        W94959  14.693  22.495  12.479
22634W        W94960   3.531   6.030   0.361
22635W        W94961  34.630  43.224   0.223
22636W        W94962  44.367  12.609  11.041
22637W        W94963  36.151  19.726  14.357
22638W        W94964   2.259  17.314   2.133
22639W        W94965  10.165  11.675  14.314
22640W        W94966   0.595  35.086  14.475
22641W        W94967  31.933   9.908  11.655
22642W        W94968  22.166  42.415  10.645
22643W        W94969  15.114  27.130  11.720
22644W        W94970   5.747  40.813  13.919
22645W        W94971  11.702   1.048  13.786
22646W        W94972  25.936  27.815   3.695
22647W        W94973  16.332  41.261  14.989
22648W        W94974  38.452  41.965   3.602
22649W        W94975  34.748  18.259  13.972
22650W        W94976  15.605  15.101  10.141
22651W        W94977  11.402  43.661   1.733
22652W        W94978  26.090  35.891  12.355
22653W        W94979   5.047  18.245   0.498
22654W        W94980  34.518  17.974  11.443
22655W        W94981  23.492  26.425   3.565
22656W        W94982  44.824  28.983   2.923
22657W        W94983  25.261  23.615  10.673
22658W        W94984  15.744  19.186   0.101
22659W        W94985  34.747  16.263   3.698
22660W        W94986  17.109  21.787   1.361
22661W        W94987  40.161  35.829   3.270
22662W        W94988  33.628   8.893  14.071
22663W        W94989  22.330  27.585  10.702
22664W        W94990   1.908   9.727  14.466
22665W        W94991  35.869   7.987  14.848
22666W        W94992  42.800  36.924   1.698
22667W        W94993  22.637  27.702  14.210
22668W        W94994  37.225  35.155   2.839
22669W        W94995  40.775  42.285   3.400
22670W        W94996  21.651  44.440   1.754
22671W        W94997  17.320  18.095  12.948
22672W        W94998  15.079  37.800   1.440
22673W        W94999  15.151  21.557   0.840
22674W        W95000   9.862  17.259   3.735
22675W        W95001  42.004   3.664  12.996
22676W        W95002  40.521  44.897  14.986
22677W        W95003  28.961   7.941   2.823
22678W        W95004  23.984   6.929  11.580
22679W        W95005  40.615  28.466  13.036
22680W        W95006   2.812  24.992   9.659
22681W        W95007  32.446   0.044  12.102
22682W        W95008  14.344  17.289   1.273
22683W        W95009  10.102  14.281  11.054
22684W        W95010  25.947  22.288   0.942
22685W        W95011  16.370  16.177   3.285
22686W        W95012  40.286   1.908   1.285
22687W        W95013  40.421   3.665  12.474
22688W        W95014  31.081   2.244   2.251
22689W        W95015  15.177   5.816   0.517
22690W        W95016   4.332  37.260  14.533
22691W        W95017  37.821   4.424   4.201
22692W        W95018  42.451   5.146   4.416
22693W        W95019  35.426  27.234  14.978
22694W        W95020  42.313  21.106   4.641
22695W        W95021   6.628  39.034   2.796
22696W        W95022   2.333  20.592   5.520
22697W        W95023  12.601  42.417   3.340
22698W        W95024  19.669  17.648  14.192
22699W        W95025  10.581  14.864  14.868
22700W        W95026  24.581  21.846  14.381
22701W        W95027   2.318  24.885   3.205
22702W        W95028   6.498  26.863   9.918
22703W        W95029  16.847   4.793  11.298
22704W        W95030   8.629  43.981   1.243
22705W        W95031  39.994  34.048   3.725
22706W        W95032  23.187  34.474  13.908
22707W        W95033  41.734  43.099   4.765
22708W        W95034   5.290  20.282  12.187
22709W        W95035  27.772  33.931   3.294
22710W        W95036  34.097  40.389   0.548
22711W        W95037   8.880   9.285  11.182
22712W        W95038   0.582  32.497   1.888
22713W        W95039  28.634  21.899   4.883
22714W        W95040  35.299   8.353   2.804
22715W        W95041   5.429  42.520  10.751
22716W        W95042  38.741  33.837   2.202
22717W        W95043  13.662  32.774  14.880
22718W        W95044  44.040  14.243   1.297
22719W        W95045  30.789   7.420   4.331
22720W        W95046  12.143  12.258  11.024
22721W        W95047  35.664  10.482  11.086
22722W        W95048  10.601  16.634  11.603
22723W        W95049  16.369  41.408  14.497
22724W        W95050  27.615  42.469  11.990
22725W        W95051  13.400  30.409   0.885
22726W        W95052  31.879  34.940   2.799
22727W        W95053  18.325   7.391  12.481
22728W        W95054   5.095  33.579  13.578
22729W        W95055  18.103   0.369  11.940
22730W        W95056  25.632  13.908   1.369
22731W        W95057  11.360  13.852   2.821
22732W        W95058  44.874  20.047   0.918
22733W        W95059  26.685  44.980  13.958
22734W        W95060   1.621  10.604   0.424
22735W        W95061   7.761  30.092  14.057
22736W        W95062  44.276  40.370   0.305
22737W        W95063  42.375  24.545   4.880
22738W        W95064   5.291  44.359  14.278
22739W        W95065  15.878   4.297   0.682
22740W        W95066  41.538   6.226   1.257
22741W        W95067  37.298  44.926  14.803
22742W        W95068  18.524  23.463   0.562
22743W        W95069  16.379  32.506   0.830
22744W        W95070  40.238  15.840   3.766
22745W        W95071  11.756  35.027   2.192
22746W        W95072  29.667  15.870  12.393
22747W        W95073  17.867  20.719  14.142
22748W        W95074   4.499   1.127   2.524
22749W        W95075  11.340  15.565  11.968
22750W        W95076  24.571   7.588  10.643
22751W        W95077  24.701  12.169   2.278
22752W        W95078   4.382  27.170   2.435
22753W        W95079   4.057  26.556   2.917
22754W        W95080  12.173  23.198  13.385
22755W        W95081  18.385   1.843  11.646
22756W        W95082   4.853  25.565  11.676
22757W        W95083   2.754  24.195  10.538
22758W        W95084  20.086  24.638   3.475
22759W        W95085  40.053  16.206   4.102
22760W        W95086  11.688   4.794   0.867
22761W        W95087  25.015   0.884   0.402
22762W        W95088   5.293  36.705   4.732
22763W        W95089   6.757  39.885   2.669
22764W        W95090   3.881  18.637   1.783
22765W        W95091  21.161  33.728   2.866
22766W        W95092  39.583  38.600   3.788
22767W        W95093  39.324  19.122   0.437
22768W        W95094  13.275   7.117   1.703
22769W        W95095  14.702  16.216  10.951
22770W        W95096   4.184   0.649   4.522
22771W        W95097  33.997   2.472  13.356
22772W        W95098  34.992  23.273   3.600
22773W        W95099  18.158  40.535  11.869
22774W        W95100  36.471   8.466   1.278
22775W        W95101  32.370  26.583   4.658
22776W        W95102   5.573  12.670  11.313
22777W        W95103  44.563   0.330   3.123
22778W        W95104  23.605  43.327  10.893
22779W        W95105  26.722  36.962   0.867
22780W        W95106  25.675  20.888  12.461
22781W        W95107  15.665  26.461   0.184
22782W        W95108  19.009  43.495  14.061
22783W        W95109  11.902  23.976   0.448
22784W        W95110  30.191   6.666  14.104
22785W        W95111  37.908  22.321   4.192
22786W        W95112  26.489  41.332   0.222
22787W        W95113  32.429  42.838   9.959
22788W        W95114  40.630  43.416  11.666
22789W        W95115  33.067  17.008  11.018
22790W        W95116  20.163   2.775   1.035
22791W        W95117  19.664   2.358   2.298
22792W        W95118  26.157  23.858   2.135
22793W        W95119  14.882  24.684   0.314
22794W        W95120  33.458   9.831   2.442
22795W        W95121  26.943  19.049  12.023
22796W        W95122   4.879  36.005  11.513
22797W        W95123  28.466  31.820  14.409
22798W        W95124  33.520  18.294   1.410
22799W        W95125  14.906  14.599   2.229
22800W        W95126  26.806  13.150   1.253
22801W        W95127   0.173   7.749   4.057
22802W        W95128  34.749  10.398   4.067
22803W        W95129  12.800  40.887   1.656
22804W        W95130  14.346  44.880  13.786
22805W        W95131   6.786   6.863  11.694
22806W        W95132  39.547   1.222   3.585
22807W        W95133  32.891  43.075   0.350
22808W        W95134  11.663  14.574  11.993
22809W        W95135  24.600  16.953   0.536
22810W        W95136  18.872   6.161   2.850
22811W        W95137  32.123   3.351  11.556
22812W        W95138  42.199  17.056   0.797
22813W        W95139  13.633  32.970   2.610
22814W        W95140   4.360  38.884   4.711
22815W        W95141  20.576  42.999   4.195
22816W        W95142  40.342   3.422   0.298
22817W        W95143  37.697  13.814   5.558
22818W        W95144  25.351  16.061   3.666
22819W        W95145   3.075  20.169   1.445
22820W        W95146  40.410  21.549   0.989
22821W        W95147  39.599  44.934   2.455
22822W        W95148  17.597  37.805   3.843
22823W        W95149  16.600  23.939  11.169
22824W        W95150  13.607  10.417  13.214
22825W        W95151  43.692  23.144   3.792
22826W        W95152  17.862  25.064  11.643
22827W        W95153  32.885   1.435   2.729
22828W        W95154  28.102  34.602   1.988
22829W        W95155  28.822   1.746   3.349
22830W        W95156  43.266  23.971  12.920
22831W        W95157   0.759  10.294  11.126
22832W        W95158  16.132  29.074   2.050
22833W        W95159   6.888   9.363   1.390
22834W        W95160   1.436   4.026   4.232
22835W        W95161  27.482  28.898   0.186
22836W        W95162  44.443  11.402  13.885
22837W        W95163  27.044   3.915   0.028
22838W        W95164   8.333  39.131   2.181
22839W        W95165   3.390  16.204   3.206
22840W        W95166  41.664  44.108   3.769
22841W        W95167  20.172  30.447   3.820
22842W        W95168  27.651  36.961  11.877
22843W        W95169  10.179  10.872   2.905
22844W        W95170   1.499  19.076  12.351
22845W        W95171   4.652  15.316   2.584
22846W        W95172   5.446  36.250   1.228
22847W        W95173   4.891  43.401  11.535
22848W        W95174  14.131  34.949  13.000
22849W        W95175  34.456  30.528  12.209
22850W        W95176  34.152  33.643   2.295
22851W        W95177  17.641   1.466   1.928
22852W        W95178   0.825   3.805   1.174
22853W        W95179  21.122  33.600  12.302
22854W        W95180  22.741  24.950   3.246
22855W        W95181  35.972  24.158   4.578
22856W        W95182  14.709  32.487   2.869
22857W        W95183   4.932  31.218  11.454
22858W        W95184  21.733  12.663  13.917
22859W        W95185  39.486  27.898  14.308
22860W        W95186  29.215  27.228   3.498
22861W        W95187  16.756  40.227   2.297
22862W        W95188  14.587  17.171   0.611
22863W        W95189  43.846  37.392  11.606
22864W        W95190  37.914  29.638  14.789
22865W        W95191  25.708  28.670  11.568
22866W        W95192  41.124  27.845   3.728
22867W        W95193  27.514  36.527   2.746
22868W        W95194   9.114  33.503   2.477
22869W        W95195  27.270  29.868  11.018
22870W        W95196  42.759  36.353   3.309
22871W        W95197  23.982  36.617   0.377
22872W        W95198  39.101  42.614   2.940
22873W        W95199  15.836  13.262   2.867
22874W        W95200   0.424  18.762  13.521
22875W        W95201  14.301  30.899   3.831
22876W        W95202  18.078  29.380   2.870
22877W        W95203  33.626  23.104   3.729
22878W        W95204  31.881  43.770   1.749
22879W        W95205  28.692  33.805  11.271
22880W        W95206  18.145   3.456   4.557
22881W        W95207   0.266  34.004  12.405
22882W        W95208   9.251  19.791  11.609
22883W        W95209  30.029   2.109   0.127
22884W        W95210   3.998  11.735   2.508
22885W        W95211   5.317  39.867  14.931
22886W        W95212  22.636  42.394  14.373
22887W        W95213  22.495  42.669  10.067
22888W        W95214  27.606  24.784  14.023
22889W        W95215  36.432  36.435   3.305
22890W        W95216   0.421  13.327  12.671
22891W        W95217  18.815  14.452  13.979
22892W        W95218  13.152   1.408   4.638
22893W        W95219  37.936   1.029   2.259
22894W        W95220  28.714  10.327   1.931
22895W        W95221  43.887   8.509  12.203
22896W        W95222  40.529   4.889   3.187
22897W        W95223  32.591   4.163  11.136
22898W        W95224  21.729   9.652   2.657
22899W        W95225  24.349  43.372   3.170
22900W        W95226  26.132  31.836   4.083
22901W        W95227  16.028  23.535  14.780
22902W        W95228  33.764   4.613  11.132
22903W        W95229   4.196   3.678  14.024
22904W        W95230  38.817   0.887  12.046
22905W        W95231  37.255  38.866  13.243
22906W        W95232  42.047  32.961  11.124
22907W        W95233   5.834  40.340  10.305
22908W        W95234  44.849  16.785  12.948
22909W        W95235  35.432  36.136   5.419
22910W        W95236  30.033  32.230  12.673
22911W        W95237   3.409   7.446   3.312
22912W        W95238  19.715  17.082   2.340
22913W        W95239  17.101  36.160  11.631
22914W        W95240  13.919  31.397  12.540
22915W        W95241  24.932   1.531  14.048
22916W        W95242  16.582   2.985   3.730
22917W        W95243   6.147  25.575  13.535
22918W        W95244  30.693  37.071   1.227
22919W        W95245  43.250   4.354   2.155
22920W        W95246  19.160  20.563  14.486
22921W        W95247  24.446  42.526   4.853
22922W        W95248  16.215  34.606   4.642
22923W        W95249  12.267  13.183   3.732
22924W        W95250  10.741  27.376  11.571
22925W        W95251  43.707  24.702   2.444
22926W        W95252   9.200  30.598   3.906
22927W        W95253   1.346  20.910  13.663
22928W        W95254   9.450  17.849   2.230
22929W        W95255  22.330  16.346  11.155
22930W        W95256  26.675  18.333   9.964
22931W        W95257  34.460   9.857  11.802
22932W        W95258  13.278  38.342   3.177
22933W        W95259   2.333  32.968  10.431
22934W        W95260  14.352  37.287  13.586
22935W        W95261  16.634  27.793  10.545
22936W        W95262  23.498   1.935  11.841
22937W        W95263  37.946   1.724  14.266
22938W        W95264  35.969   8.626   4.056
22939W        W95265  12.013  38.906   4.724
22940W        W95266  36.360  12.319  11.978
22941W        W95267  42.345  34.938  10.737
22942W        W95268  36.372   7.337   3.340
22943W        W95269  42.748   2.914   4.713
22944W        W95270  24.450   0.562   3.591
22945W        W95271  20.188  21.650   0.076
22946W        W95272  14.689  19.295   3.664
22947W        W95273  34.961   0.495  14.844
22948W        W95274  39.032  34.650  11.105
22949W        W95275  32.897   1.860   1.972
22950W        W95276  23.563  10.267   1.411
22951W        W95277  40.548  14.049  12.023
22952W        W95278  17.688  30.595   3.216
22953W        W95279  20.729  33.665  13.145
22954W        W95280  38.634   4.846  12.495
22955W        W95281  15.305  26.951   2.054
22956W        W95282  28.421  21.750  12.643
22957W        W95283  34.522  15.493   4.125
22958W        W95284  21.641  27.129  12.988
22959W        W95285   1.708  41.457  11.166
22960W        W95286  15.280  24.165  12.001
22961W        W95287  37.046   6.273   1.047
22962W        W95288  26.693  10.856   0.354
22963W        W95289   9.365   2.491   0.337
22964W        W95290  14.244  14.321   0.512
22965W        W95291  40.833   3.937   4.233
22966W        W95292   4.655  10.213  10.412
22967W        W95293  19.503  17.879   1.944
22968W        W95294  30.105   1.495   2.275
22969W        W95295   2.753  34.986   1.311
22970W        W95296   4.585   0.833  12.084
22971W        W95297  20.655   3.878  14.730
22972W        W95298  10.655  16.625  12.862
22973W        W95299  14.286  44.852  11.748
22974W        W95300  18.005   0.285   3.838
22975W        W95301  39.055  21.695  14.308
22976W        W95302  24.553  11.385   2.705
22977W        W95303  12.147   4.803   4.509
22978W        W95304   9.795  22.303   0.959
22979W        W95305   7.281  28.853  11.369
22980W        W95306  27.804  23.060  12.078
22981W        W95307  15.591  38.586  12.879
22982W        W95308  27.527  28.411   3.748
22983W        W95309  32.366  38.307  11.222
22984W        W95310   8.185  38.439   1.418
22985W        W95311  24.483  39.294  10.845
22986W        W95312  44.736  38.401  11.436
22987W        W95313  10.522  35.985   3.028
22988W        W95314  31.626  31.405  14.310
22989W        W95315  35.561   7.106   4.780
22990W        W95316  19.037  25.566   2.156
22991W        W95317   8.190  38.398   4.706
22992W        W95318   3.685  42.023  12.499
22993W        W95319  39.303  41.181  11.636
22994W        W95320  41.480  40.952   3.621
22995W        W95321  12.641   0.419  10.776
22996W        W95322  43.469  31.399   2.797
22997W        W95323   9.976  30.425   5.096
22998W        W95324  40.053   8.117   2.281
22999W        W95325  18.886  26.033  14.803
23000W        W95326  12.553   4.234   2.471
23001W        W95327  26.051   0.739   2.155
23002W        W95328  11.354  13.912  13.279
23003W        W95329  29.455  35.940   4.270
23004W        W95330  37.357  33.727   1.911
23005W        W95331  22.049  17.037  10.655
23006W        W95332  44.911  28.442  13.902
23007W        W95333  43.424  39.947  11.802
23008W        W95334   0.033   1.812   0.200
23009W        W95335  15.297  30.095   3.727
23010W        W95336  17.372  26.560  10.265
23011W        W95337  36.757   6.216   5.107
23012W        W95338  22.629  27.833  10.339
23013W        W95339  29.708  17.633  13.278
23014W        W95340  21.380  44.554  11.193
23015W        W95341  22.514  35.464   0.879
23016W        W95342  37.058   1.493  12.007
23017W        W95343  15.869  13.266   1.304
23018W        W95344  38.494  44.933   1.977
23019W        W95345  28.561  23.681  12.435
23020W        W95346  25.528   9.775  14.388
23021W        W95347  32.659  23.035   4.490
23022W        W95348   4.439  22.797   1.193
23023W        W95349  38.499  15.044  11.912
23024W        W95350  33.953  42.255   0.994
23025W        W95351  15.787  25.487   3.818
23026W        W95352  32.449   5.907   3.697
23027W        W95353  12.620  33.041  12.423
23028W        W95354  16.511   8.163   1.400
23029W        W95355  27.927   1.567   4.178
23030W        W95356   1.765  15.282   3.195
23031W        W95357  25.733  16.460  14.341
23032W        W95358  25.456  43.041   2.353
23033W        W95359  35.955  39.560   3.766
23034W        W95360   4.645  29.363  13.940
23035W        W95361  23.076  27.217   3.278
23036W        W95362  24.930  28.425   1.154
23037W        W95363  41.399   4.453  14.014
23038W        W95364  36.525  31.925  14.638
23039W        W95365  18.687  36.611  11.060
23040W        W95366  42.809  43.405  12.605
23041W        W95367  38.355  32.856   3.266
23042W        W95368  13.937   3.013   2.379
23043W        W95369  20.868  39.314  10.199
23044W        W95370   6.184  33.103   4.111
23045W        W95371   6.997  23.655   4.537
23046W        W95372   6.609  15.145  13.311
23047W        W95373  10.292  23.761   4.781
23048W        W95374  35.079  40.505   4.599
23049W        W95375   8.651  22.035  14.799
23050W        W95376   4.325   5.144  12.183
23051W        W95377   5.251  31.114  12.415
23052W        W95378  22.518  15.617  13.298
23053W        W95379  24.944  22.774  11.051
23054W        W95380   7.847  42.512  13.217
23055W        W95381   2.149   4.335   0.284
23056W        W95382  33.805   6.811  12.500
23057W        W95383  19.623  24.592  12.490
23058W        W95384  10.830  16.252  10.636
23059W        W95385   9.404  11.180  12.531
23060W        W95386  41.977  20.090  12.829
23061W        W95387   7.214  25.379  13.526
23062W        W95388  29.130  28.691   1.766
23063W        W95389  11.820  12.900   1.345
23064W        W95390  35.126   1.793  10.653
23065W        W95391  39.995  24.959  11.153
23066W        W95392   8.851  25.742   2.603
23067W        W95393   3.762  42.822   2.500
23068W        W95394   5.598  10.038   0.913
23069W        W95395  23.024  11.028   0.926
23070W        W95396   4.691   3.763  13.876
23071W        W95397  29.369  32.682  14.192
23072W        W95398  38.558  40.141   0.209
23073W        W95399   5.956  30.481  13.376
23074W        W95400  35.506  34.610  14.428
23075W        W95401  41.001  31.107   4.559
23076W        W95402  14.140  29.449  11.060
23077W        W95403  28.580  20.796   2.541
23078W        W95404  14.080   7.622  13.955
23079W        W95405  28.084  40.527   4.866
23080W        W95406  12.286   2.910  13.752
23081W        W95407  40.348  35.597  11.541
23082W        W95408  23.483   6.389   0.799
23083W        W95409  11.654  35.394  13.636
23084W        W95410  43.312  30.249   1.611
23085W        W95411  18.789  28.621  11.610
23086W        W95412  43.061  19.612   0.470
23087W        W95413   0.340  14.180   3.521
23088W        W95414  32.029  24.654   0.983
23089W        W95415   7.123  25.673   1.440
23090W        W95416  38.931  11.514  11.874
23091W        W95417  15.310  32.019   5.166
23092W        W95418  31.098  41.813   3.818
23093W        W95419   5.461   7.118   0.983
23094W        W95420   2.861  42.788   4.601
23095W        W95421  13.786  30.403  12.620
23096W        W95422   5.671  27.733   4.142
23097W        W95423   2.972  28.994   1.086
23098W        W95424  40.248  25.680  13.925
23099W        W95425  35.861  15.243  11.158
23100W        W95426  18.474   8.721   2.643
23101W        W95427  38.392  40.738  13.076
23102W        W95428  31.863  19.485  12.849
23103W        W95429  12.836  37.835   2.829
23104W        W95430  44.943  31.953   2.669
23105W        W95431   6.698  10.195  10.933
23106W        W95432  15.228   3.057  12.143
23107W        W95433  33.487  27.170  12.549
23108W        W95434  21.240   8.728  13.240
23109W        W95435  38.664   7.138   1.701
23110W        W95436  17.292   8.922   5.169
23111W        W95437  21.276  28.425   3.938
23112W        W95438  42.362  26.920   2.139
23113W        W95439   8.664  26.229   3.741
23114W        W95440  16.659  24.307  13.587
23115W        W95441  18.811  29.930  12.012
23116W        W95442  39.723   7.525   2.961
23117W        W95443  19.842   1.977   3.537
23118W        W95444  29.135  10.381   1.612
23119W        W95445   6.439   7.596   2.218
23120W        W95446   9.764  25.222  14.433
23121W        W95447   9.785   9.039  13.383
23122W        W95448  32.054   2.414  14.007
23123W        W95449  10.685  20.936  13.798
23124W        W95450  17.948  20.183  14.288
23125W        W95451   1.324  23.228   5.207
23126W        W95452  17.422  18.030   1.812
23127W        W95453  35.254  15.949   2.849
23128W        W95454  43.385  31.519   4.156
23129W        W95455  32.431  30.538   4.235
23130W        W95456  11.091  15.742  10.621
23131W        W95457  44.143  18.150  10.425
23132W        W95458  24.551  39.298   5.465
23133W        W95459  44.958  19.754  10.656
23134W        W95460  23.704  26.455  12.918
23135W        W95461   3.681   5.735   1.957
23136W        W95462  42.825  20.624   0.674
23137W        W95463  35.769  21.373   9.558
23138W        W95464  25.131   7.264   2.728
23139W        W95465  18.692  13.100  13.126
23140W        W95466  19.727   5.520  14.418
23141W        W95467  15.510  36.492  11.866
23142W        W95468  18.193  35.604  13.437
23143W        W95469  20.797  23.054  11.041
23144W        W95470  32.067  28.233  13.792
23145W        W95471   9.808  10.884  13.788
23146W        W95472  41.918  31.342  13.404
23147W        W95473  33.484  31.824   1.830
23148W        W95474   0.985  43.031   0.427
23149W        W95475  27.520   2.999   0.863
23150W        W95476  28.243  30.937   3.723
23151W        W95477   7.296  37.550  10.964
23152W        W95478  34.120  44.014  11.573
23153W        W95479  29.280  11.626   4.654
23154W        W95480   9.063   3.645   4.133
23155W        W95481  12.363  21.674   3.351
23156W        W95482  10.725  15.811   3.710
23157W        W95483   8.447  32.877  11.118
23158W        W95484  29.998  24.148   4.534
23159W        W95485  30.008   8.871  14.986
23160W        W95486  39.540  27.523   4.339
23161W        W95487  11.715  12.092  13.072
23162W        W95488  44.059   9.803   4.068
23163W        W95489  19.678   4.467  10.180
23164W        W95490  30.752  27.991   0.801
23165W        W95491  12.786  21.013   1.934
23166W        W95492  18.312  28.042   2.363
23167W        W95493   9.775  31.955  11.946
23168W        W95494  28.632  32.731  11.458
23169W        W95495  37.975  16.973   0.521
23170W        W95496  12.517   8.424  14.821
23171W        W95497  38.378  39.917   3.244
23172W        W95498  31.041  26.732  11.642
23173W        W95499  16.263  14.562   0.750
23174W        W95500   2.665   7.367  13.967
23175W        W95501  23.629  39.494  10.420
23176W        W95502  25.887  15.698  11.346
23177W        W95503  33.014  31.903  13.377
23178W        W95504  44.946  11.369  14.013
23179W        W95505  40.469  26.915   2.184
23180W        W95506  37.023  17.630  12.007
23181W        W95507  27.478  20.898  11.147
23182W        W95508  15.836   3.556   2.676
23183W        W95509  34.589   8.702   4.535
23184W        W95510   4.750  29.865   3.628
23185W        W95511  32.617  30.284  11.156
23186W        W95512  18.194  32.142  11.701
23187W        W95513  19.936  14.177  11.102
23188W        W95514  44.807  28.093   4.675
23189W        W95515   5.273  43.054   2.674
23190W        W95516  32.182   3.826  13.919
23191W        W95517  35.583  15.891   2.448
23192W        W95518  35.103  32.439  13.091
23193W        W95519  39.988  14.893  10.957
23194W        W95520  23.439  30.241   1.111
23195W        W95521  35.357  17.594  14.989
23196W        W95522  29.200  30.324   4.479
23197W        W95523  38.933  31.436   4.577
23198W        W95524  41.749   3.253  11.852
23199W        W95525  15.732   4.441   1.155
23200W        W95526  11.322  13.082   1.484
23201W        W95527  29.104   1.216   1.956
23202W        W95528  11.835  15.398  13.301
23203W        W95529  21.642  41.321   1.797
23204W        W95530  32.912  27.934  11.705
23205W        W95531  13.553  33.530   3.755
23206W        W95532  38.012  16.343   4.367
23207W        W95533  15.607  33.625  14.513
23208W        W95534  23.795  43.886  13.660
23209W        W95535  32.851  17.697  10.669
23210W        W95536  25.987  11.970   1.228
23211W        W95537  38.951  12.668  13.783
23212W        W95538  18.326  42.982   0.260
23213W        W95539   5.741  17.298   3.361
23214W        W95540  23.051  39.262   1.822
23215W        W95541  37.609  30.394   0.806
23216W        W95542   4.324  15.010   1.199
23217W        W95543  15.895  12.320   1.385
23218W        W95544  23.783  41.758   4.120
23219W        W95545  12.668   0.713  14.223
23220W        W95546   3.446  14.033  13.480
23221W        W95547  25.514  25.101  14.789
23222W        W95548  33.503  44.766  10.573
23223W        W95549  17.749   9.126  12.626
23224W        W95550  19.094  44.477   3.677
23225W        W95551  30.098  34.147   0.292
23226W        W95552  40.018  11.532  10.608
23227W        W95553  23.018  32.357  12.075
23228W        W95554  28.972  28.635  11.030
23229W        W95555  11.106  13.711  13.702
23230W        W95556  39.583  18.631  12.934
23231W        W95557  34.007   2.978  13.346
23232W        W95558   7.246   0.839  11.561
23233W        W95559  29.883  24.197  11.994
23234W        W95560  11.251   3.220  12.489
23235W        W95561  40.047   2.293  12.874
23236W        W95562   2.837  28.097   4.648
23237W        W95563   2.802  11.334   4.149
23238W        W95564  39.691  32.964  11.480
23239W        W95565  12.807  30.572   2.888
23240W        W95566  20.726  24.706  12.474
23241W        W95567  44.497  26.668   1.361
23242W        W95568  13.812   6.370  13.806
23243W        W95569  35.992  14.768   4.571
23244W        W95570  25.267  14.269  13.836
23245W        W95571  27.919  43.613  11.158
23246W        W95572  15.288   3.219   0.307
23247W        W95573  20.120  30.381   4.658
23248W        W95574   2.715  41.301  13.104
23249W        W95575  12.415  44.448   1.341
23250W        W95576   8.721  28.744  11.317
23251W        W95577   4.390  28.072  13.484
23252W        W95578  32.351  14.148  11.907
23253W        W95579  25.271  18.151  13.422
23254W        W95580   7.195  21.312  12.920
23255W        W95581   9.536   8.145  12.028
23256W        W95582  35.019  24.655   1.016
23257W        W95583  43.920   3.275   1.886
23258W        W95584  29.079  43.498  13.382
23259W        W95585   1.000   4.393  12.158
23260W        W95586   1.364   7.145  14.939
23261W        W95587  35.487  16.239   4.131
23262W        W95588  13.853  40.902  12.784
23263W        W95589  37.865  17.364  11.513
23264W        W95590   6.692  20.244  12.617
23265W        W95591  12.530   9.461   3.325
23266W        W95592  32.117  17.022   3.793
23267W        W95593   5.177  19.487  11.178
23268W        W95594  27.696  28.742  14.289
23269W        W95595  20.548  10.709   2.179
23270W        W95596   8.697  23.294   4.203
23271W        W95597  13.221  13.727  14.958
23272W        W95598   7.217  16.840  12.135
23273W        W95599  17.186  12.321   4.370
23274W        W95600  18.704  43.038  14.918
23275W        W95601  35.119  26.012   0.046
23276W        W95602  29.385  17.912  11.385
23277W        W95603  31.460  20.022   4.208
23278W        W95604  43.591  18.070   4.222
23279W        W95605  37.629   4.847  12.468
23280W        W95606  15.625  23.141   3.365
23281W        W95607  28.171  15.035  13.362
23282W        W95608  18.264  33.000   3.631
23283W        W95609  14.012  44.046  14.717
23284W        W95610  31.621  24.511  13.200
23285W        W95611  28.027   5.337  14.877
23286W        W95612  39.618   4.882  12.358
23287W        W95613  40.379   0.981  13.938
23288W        W95614   7.295   8.335  11.608
23289W        W95615  24.009  21.610  14.770
23290W        W95616   7.965  14.266  11.959
23291W        W95617  34.056   5.941   2.910
23292W        W95618   6.680  17.959  10.985
23293W        W95619  11.764  38.118   2.652
23294W        W95620   0.242   3.346  11.952
23295W        W95621  13.358  25.988   3.400
23296W        W95622  41.387  21.046  14.014
23297W        W95623  36.001  33.970  13.792
23298W        W95624  20.708  22.709   3.214
23299W        W95625  20.250  26.548   0.547
23300W        W95626  26.078   4.319   3.849
23301W        W95627  15.589   9.489   2.802
23302W        W95628  32.921   0.450   0.687
23303W        W95629  19.947  34.563   3.203
23304W        W95630  37.495   9.587  13.545
23305W        W95631  13.879  40.537  12.392
23306W        W95632  33.059  11.250  13.235
23307W        W95633  25.836   4.893   3.308
23308W        W95634  17.097  12.392   9.946
23309W        W95635  25.154   4.733  10.577
23310W        W95636  12.656  22.466   4.881
23311W        W95637  12.232   7.402   3.614
23312W        W95638  26.667   4.764   1.448
23313W        W95639  29.132  28.588  11.595
23314W        W95640  37.566   2.269   1.313
23315W        W95641  24.744  29.934   1.753
23316W        W95642  42.744  16.619   0.852
23317W        W95643  22.073  41.358  13.783
23318W        W95644   0.737  24.572   3.216
23319W        W95645  40.491  24.027   5.306
23320W        W95646   9.698  24.646   1.329
23321W        W95647  21.099  10.511   3.611
23322W        W95648  36.485  29.147  10.457
23323W        W95649  20.185  24.954   3.860
23324W        W95650  41.180   6.656   4.151
23325W        W95651  24.671  32.637  10.743
23326W        W95652  42.983   5.726   0.091
23327W        W95653   6.260  43.991  14.889
23328W        W95654   3.961   7.613   3.346
23329W        W95655  33.877  43.707   1.807
23330W        W95656  31.841  28.988   4.121
23331W        W95657  42.840  23.778  10.588
23332W        W95658  30.447  44.402  11.397
23333W        W95659  22.720  25.101  12.690
23334W        W95660  26.076   0.554  14.854
23335W        W95661  37.415  22.644   4.966
23336W        W95662  10.136  39.019   0.747
23337W        W95663  43.279  31.433  13.383
23338W        W95664  34.340   6.309  11.944
23339W        W95665  42.511   7.821   3.293
23340W        W95666   2.442  33.966  10.364
23341W        W95667  16.660  40.016   0.427
23342W        W95668   2.413   4.308   2.652
23343W        W95669  23.136   4.876   1.267
23344W        W95670  31.512  10.375   4.912
23345W        W95671  26.762   2.806   2.415
23346W        W95672  13.381  12.127  13.184
23347W        W95673  14.857  13.892   0.486
23348W        W95674  19.050  20.566  11.387
23349W        W95675  24.814  40.864   2.119
23350W        W95676  27.459  19.973   3.985
23351W        W95677  37.197  25.880   1.472
23352W        W95678   1.875   5.336   2.416
23353W        W95679  33.992   8.110  13.964
23354W        W95680   5.231  40.866  14.950
23355W        W95681   5.711  31.428  12.996
23356W        W95682  26.525  37.585  13.952
23357W        W95683  24.043  27.420  13.403
23358W        W95684  27.605  36.286  14.382
23359W        W95685  17.816   4.802  10.916
23360W        W95686   4.181  23.166   4.886
23361W        W95687  15.710  11.703  13.647
23362W        W95688  33.460   7.717  11.509
23363W        W95689  15.795  34.967  13.907
23364W        W95690  32.583  16.305   1.788
23365W        W95691  24.509  25.167   4.726
23366W        W95692  23.273  29.027   0.996
23367W        W95693  36.004  23.366  13.388
23368W        W95694  16.513   1.252   3.100
23369W        W95695  35.477  36.884   1.254
23370W        W95696  32.059   9.685   0.226
23371W        W95697  16.876  18.747  13.376
23372W        W95698  40.560  23.392  11.965
23373W        W95699  28.463  37.484   3.715
23374W        W95700   1.027  42.271  10.960
23375W        W95701  17.295  12.255  12.613
23376W        W95702  41.294  41.114   0.162
23377W        W95703  10.510  26.144  11.935
23378W        W95704   9.824  29.509  10.760
23379W        W95705  35.831  44.842  13.457
23380W        W95706   3.639  21.562   1.386
23381W        W95707  24.137  31.099  10.977
23382W        W95708   9.585  21.942   3.320
23383W        W95709  26.643  35.265  11.603
23384W        W95710  20.129  22.367   1.411
23385W        W95711  31.769  40.595  14.201
23386W        W95712  44.717  13.720  13.041
23387W        W95713   4.829  28.555   3.250
23388W        W95714  10.666   5.407   3.639
23389W        W95715  11.993  15.885  13.120
23390W        W95716  10.135  20.178  11.623
23391W        W95717  11.379  25.604  11.543
23392W        W95718  27.670   2.279   1.813
23393W        W95719  14.281  21.650  14.715
23394W        W95720  32.914  21.892   4.112
23395W        W95721  38.376  22.099   2.321
23396W        W95722  36.067  35.130  11.881
23397W        W95723   6.708  10.381  14.366
23398W        W95724  33.418  26.140  12.470
23399W        W95725  23.560  40.179  11.561
23400W        W95726  28.342  38.832  11.379
23401W        W95727  39.691  32.940   3.267
23402W        W95728  30.199  39.309  10.551
23403W        W95729  16.329  30.116  12.921
23404W        W95730  10.627  21.661  11.584
23405W        W95731  23.888  34.300   3.883
23406W        W95732  28.614  29.977   0.962
23407W        W95733  40.950  10.564  13.034
23408W        W95734  24.532  30.412  14.031
23409W        W95735   4.793   9.165   0.006
23410W        W95736   4.221  34.846  14.514
23411W        W95737  34.354  28.586   3.615
23412W        W95738   3.807  18.220  12.226
23413W        W95739   2.721  15.754   3.695
23414W        W95740   4.953  44.423   1.696
23415W        W95741  44.821  30.912   1.714
23416W        W95742  14.295   0.255  12.522
23417W        W95743  41.016  13.432  13.029
23418W        W95744   3.652  28.988   4.060
23419W        W95745  42.769   3.826   3.328
23420W        W95746  22.605  15.889   0.520
23421W        W95747   5.681  21.050  13.004
23422W        W95748  20.203  35.944   1.633
23423W        W95749  14.118  38.352   2.724
23424W        W95750  12.170  24.940   0.356
23425W        W95751  40.039   3.438   4.053
23426W        W95752  28.089  16.544  12.940
23427W        W95753  36.663  21.669   0.962
23428W        W95754  34.538   1.253   0.882
23429W        W95755  23.553  10.920  11.376
23430W        W95756  28.953  29.633   0.360
23431W        W95757  37.641  23.945   3.530
23432W        W95758  13.344  33.174  11.555
23433W        W95759  34.141  18.648   2.578
23434W        W95760  25.578   4.437   1.307
23435W        W95761  24.417  15.203  10.188
23436W        W95762  31.410  33.071  13.114
23437W        W95763  28.711  33.884   0.368
23438W        W95764  25.894  21.239  13.399
23439W        W95765  13.717  16.143   2.597
23440W        W95766  38.722  13.407   1.879
23441W        W95767  22.796   0.840   2.078
23442W        W95768  23.995  24.818  11.045
23443W        W95769  16.164  36.571   3.270
23444W        W95770  36.345  32.531  12.386
23445W        W95771  17.286  14.332  11.177
23446W        W95772  28.904  17.222  11.529
23447W        W95773   1.964  22.122  13.988
23448W        W95774  41.904  22.504   4.144
23449W        W95775  36.400  31.163   2.746
23450W        W95776  35.076   6.044   5.001
23451W        W95777   8.186  29.354  13.862
23452W        W95778  36.543  12.761   1.831
23453W        W95779   8.860  35.480   2.135
23454W        W95780  12.068  18.886   1.160
23455W        W95781  18.711  28.151  13.949
23456W        W95782  43.361   9.037   3.616
23457W        W95783  14.264  24.071   3.224
23458W        W95784  20.458   5.375  11.604
23459W        W95785  44.390  33.846   3.621
23460W        W95786  36.347  44.406   1.589
23461W        W95787  43.331  33.093  14.808
23462W        W95788   3.754   8.481   2.208
23463W        W95789  30.164  26.585   1.752
23464W        W95790  27.666  39.579  14.066
23465W        W95791  25.404  16.827   4.536
23466W        W95792  20.810  35.454  13.975
23467W        W95793  25.710  15.351   1.255
23468W        W95794  23.860  32.020   4.025
23469W        W95795  31.529  30.635   2.022
23470W        W95796  40.885   4.187   0.928
23471W        W95797  24.577  36.114   1.422
23472W        W95798  17.919  44.171  14.896
23473W        W95799   1.527   3.305  10.647
23474W        W95800  43.525  41.935   3.101
23475W        W95801  36.010   5.930  11.697
23476W        W95802  16.369   5.309   4.205
23477W        W95803  28.988  22.228  14.090
23478W        W95804  30.134  13.416  14.288
23479W        W95805  31.412  33.375  10.628
23480W        W95806  44.838   0.748   3.174
23481W        W95807   0.177   8.871   2.892
23482W        W95808   8.661  41.894   2.246
23483W        W95809  35.772  17.817  13.932
23484W        W95810  28.592   7.132   3.899
23485W        W95811  31.119  35.836   2.781
23486W        W95812  22.677  36.905  14.974
23487W        W95813   1.795  12.220   2.845
23488W        W95814   0.867  41.788  12.463
23489W        W95815  27.229   2.631   3.856
23490W        W95816  10.640  43.413   0.562
23491W        W95817  14.955  29.141   3.394
23492W        W95818  38.719  17.781   0.629
23493W        W95819  19.716  28.382   2.788
23494W        W95820  18.610  16.899  14.829
23495W        W95821  22.783  30.497  12.146
23496W        W95822   2.754   9.465  13.800
23497W        W95823  22.268  35.282  10.458
23498W        W95824  31.344  20.591   2.675
23499W        W95825   8.325  34.494   4.578
23500W        W95826  16.596  19.543   4.349
23501W        W95827   7.807  21.727   0.187
23502W        W95828   2.371  22.515   3.663
23503W        W95829  18.751  31.542  11.399
23504W        W95830  13.409  44.858  14.918
23505W        W95831  22.762  40.870  11.868
23506W        W95832  22.547  28.052   2.301
23507W        W95833  39.748   9.799   0.281
23508W        W95834  13.118   5.165  11.424
23509W        W95835  27.114   6.453  14.791
23510W        W95836  40.495  24.529   3.029
23511W        W95837  22.551  39.100   1.722
23512W        W95838  12.863  28.184  11.934
23513W        W95839  43.287  28.971  13.787
23514W        W95840  35.043  10.939   2.309
23515W        W95841   9.355  24.060  10.714
23516W        W95842  44.390  23.082   4.557
23517W        W95843  41.236  12.699  12.467
23518W        W95844  22.211   1.739  14.471
23519W        W95845  13.243  14.693  10.467
23520W        W95846  14.255  25.283   2.933
23521W        W95847  25.595  43.019   1.372
23522W        W95848   7.638  44.645  14.913
23523W        W95849   8.281  42.528  13.874
23524W        W95850  39.061  38.420   3.940
23525W        W95851  16.059  38.339  12.906
23526W        W95852  12.812  26.319  12.958
23527W        W95853  23.098  23.625  13.894
23528W        W95854  42.553  29.240   4.580
23529W        W95855   0.190  37.359   0.413
23530W        W95856  43.412  29.362   0.068
23531W        W95857  23.009  17.704   2.779
23532W        W95858  29.927  20.612  14.008
23533W        W95859  33.557  28.440  12.023
23534W        W95860  31.390   0.397  12.533
23535W        W95861  16.044  14.331  14.906
23536W        W95862  42.266  36.636  14.573
23537W        W95863  33.454  27.112   0.727
23538W        W95864  36.605   6.034  14.555
23539W        W95865  40.782  26.484  13.328
23540W        W95866  42.155  39.736  14.398
23541W        W95867  14.813  36.125  13.801
23542W        W95868   4.129  20.222  11.486
23543W        W95869  35.051  43.310  10.648
23544W        W95870  12.785  33.702  13.493
23545W        W95871  15.727   7.258   0.366
23546W        W95872  14.166  15.333   1.878
23547W        W95873   7.173  31.112  13.082
23548W        W95874  21.106   3.391  12.022
23549W        W95875  44.892  40.829  11.164
23550W        W95876  27.863  41.988  10.093
23551W        W95877  29.941  16.416   0.900
23552W        W95878  18.216  29.457  14.017
23553W        W95879   5.426   9.165  12.676
23554W        W95880   1.157  27.101   1.350
23555W        W95881   9.187   0.014  12.783
23556W        W95882  30.126  14.267  14.533
23557W        W95883  11.620  19.620   0.584
23558W        W95884  39.439  26.174   1.943
23559W        W95885  40.516   1.884  11.703
23560W        W95886  22.997  34.284  14.364
23561W        W95887  42.811  12.113   2.725
23562W        W95888  38.944   8.266   1.386
23563W        W95889   7.476  16.537   0.993
23564W        W95890  14.975  36.790   4.962
23565W        W95891  19.809  20.094   1.091
23566W        W95892  16.680  28.148  10.918
23567W        W95893  10.320  17.550   3.741
23568W        W95894  31.453  39.566  11.061
23569W        W95895  44.678  35.500   4.321
23570W        W95896  31.457  11.784  10.735
23571W        W95897  15.179  23.752  13.929
23572W        W95898  44.716   0.999   3.598
23573W        W95899   5.531   2.110  11.105
23574W        W95900   8.827  36.078   3.223
23575W        W95901  44.880  34.122   4.320
23576W        W95902   3.480  19.729  11.035
23577W        W95903  36.025  44.799   2.174
23578W        W95904   5.230  32.104   4.661
23579W        W95905  22.858  25.708   0.277
23580W        W95906  38.656  20.704   2.991
23581W        W95907  10.149  18.623  12.546
23582W        W95908  23.416  16.080   1.219
23583W        W95909   9.268  30.999   0.410
23584W        W95910  44.462  25.642   9.917
23585W        W95911  26.371  15.738  10.926
23586W        W95912  28.712   0.363   1.617
23587W        W95913  38.798   8.437  13.822
23588W        W95914  11.808   0.012  13.943
23589W        W95915  21.998  30.978  12.914
23590W        W95916  43.545  17.727   3.667
23591W        W95917  29.878   5.776   4.709
23592W        W95918  30.960   3.269  13.337
23593W        W95919  38.919  40.300  14.848
23594W        W95920  18.549   8.206   1.284
23595W        W95921  18.613  32.470   0.865
23596W        W95922  21.028  33.083   4.851
23597W        W95923  15.813  27.265  12.894
23598W        W95924  38.034  44.340  11.482
23599W        W95925  15.202  43.409   4.953
23600W        W95926  23.233  20.690  14.347
23601W        W95927  38.381   5.312   4.071
23602W        W95928  15.125  44.115   0.253
23603W        W95929   5.797  43.073   4.033
23604W        W95930  13.332  29.022  13.976
23605W        W95931  15.225  37.291  14.855
23606W        W95932  36.674   5.811   0.421
23607W        W95933  36.048  36.087   4.191
23608W        W95934  39.417   7.910   1.766
23609W        W95935  21.790   3.810  13.891
23610W        W95936  29.054  18.672   2.700
23611W        W95937  22.973  10.781   2.299
23612W        W95938   3.421  14.604   3.328
23613W        W95939  21.640  12.528   2.756
23614W        W95940  22.066  42.184   0.286
23615W        W95941  19.950  38.591   2.794
23616W        W95942  43.920  32.966   4.620
23617W        W95943  20.825  31.341   1.645
23618W        W95944  29.687   7.768   3.749
23619W        W95945  27.936  21.236   3.680
23620W        W95946  44.630   8.903  12.526
23621W        W95947   1.620  44.226  10.344
23622W        W95948  13.542  42.950   4.806
23623W        W95949   4.516  25.710   3.278
23624W        W95950  30.254  25.011   4.224
23625W        W95951  14.047  29.393  13.920
23626W        W95952  38.562  24.925  10.569
23627W        W95953   5.316  14.117  13.341
23628W        W95954   5.375  22.725   3.662
23629W        W95955   8.616  21.184   3.572
23630W        W95956  21.950  10.330  13.784
23631W        W95957   5.714  28.512   0.529
23632W        W95958  36.465  24.188   4.380
23633W        W95959  33.085  29.573  12.967
23634W        W95960  31.783   2.415   0.084
23635W        W95961  34.978  24.838   1.957
23636W        W95962   0.410  29.604   1.857
23637W        W95963  10.125  35.343   1.060
23638W        W95964  22.523   2.016  11.551
23639W        W95965  25.962  39.104   3.690
23640W        W95966   4.265  39.051  13.848
23641W        W95967  22.296  43.305   3.146
23642W        W95968   3.312  27.783   3.575
23643W        W95969  37.862  37.382  12.226
23644W        W95970  34.357  28.472  12.193
23645W        W95971  27.097  32.306  11.959
23646W        W95972   8.064  18.821   1.982
23647W        W95973  25.447  29.656   1.132
23648W        W95974  25.217  29.595  12.582
23649W        W95975  27.264  25.719   1.715
23650W        W95976   5.216  11.247   3.733
23651W        W95977   8.190  40.812  13.404
23652W        W95978  28.525  25.222  14.694
23653W        W95979  15.257  10.996  11.546
23654W        W95980  23.159  39.368   3.702
23655W        W95981   2.658  16.689   3.285
23656W        W95982  28.135  25.678   3.727
23657W        W95983  39.483   5.954  11.154
23658W        W95984  14.304  39.450   2.112
23659W        W95985  42.361  16.487   1.906
23660W        W95986  31.166  30.541  10.643
23661W        W95987   0.333  12.598   1.785
23662W        W95988  31.014  35.974   1.741
23663W        W95989  11.795  25.434   3.556
23664W        W95990  24.424  33.817  14.426
23665W        W95991  25.531  40.397  12.961
23666W        W95992  23.052  10.914  12.846
23667W        W95993   9.425  19.743  12.474
23668W        W95994  29.140  43.905  11.823
23669W        W95995   9.597  20.923   5.064
23670W        W95996   7.961  23.554   3.195
23671W        W95997  16.312  38.802  14.848
23672W        W95998  33.131  38.032  11.642
23673W        W95999  13.861  19.113  13.381
23674W        W96000  23.735   3.220   4.101
23675W        W96001  25.743   9.668   1.786
23676W        W96002  31.642  15.982   0.367
23677W        W96003  21.592  27.507   2.307
23678W        W96004   0.335  24.959   3.965
23679W        W96005  17.590   2.670   3.784
23680W        W96006   7.676   2.542  11.710
23681W        W96007  32.130   6.672   0.434
23682W        W96008  40.124  27.010  14.904
23683W        W96009  15.092   5.719   4.099
23684W        W96010  21.784  26.657  10.802
23685W        W96011  39.966  12.476   4.090
23686W        W96012  40.375  40.934   4.641
23687W        W96013  18.633  27.527  12.520
23688W        W96014   3.743  40.937   4.656
23689W        W96015  32.692  15.601   3.343
23690W        W96016   0.736  28.430  11.654
23691W        W96017  44.504  22.734  11.696
23692W        W96018  20.191  11.080   2.190
23693W        W96019  34.108  30.949  13.679
23694W        W96020  13.855   5.896  13.987
23695W        W96021   2.815  23.491   4.553
23696W        W96022  22.442   9.635   0.412
23697W        W96023  29.576  18.522   0.696
23698W        W96024  43.205  34.538   3.815
23699W        W96025   1.453   1.460  13.145
23700W        W96026  26.113  18.572   2.232
23701W        W96027  18.112   6.115  12.977
23702W        W96028  18.646   9.199  12.554
23703W        W96029   0.430   9.736   5.089
23704W        W96030  12.770  32.665  14.343
23705W        W96031  17.094  42.503  13.912
23706W        W96032   0.843  21.942   0.368
23707W        W96033   0.414  40.551   3.010
23708W        W96034   8.823  43.015  14.464
23709W        W96035  30.396  26.790  14.758
23710W        W96036   6.846  34.612  14.495
23711W        W96037  21.403  36.809  14.921
23712W        W96038  33.947  29.241   3.730
23713W        W96039  37.099  14.338   1.772
23714W        W96040  41.279  38.311  14.827
23715W        W96041  32.128  13.801  12.495
23716W        W96042  12.333   9.689   4.489
23717W        W96043   5.765  43.407   0.686
23718W        W96044  22.169   1.619   4.516
23719W        W96045  13.844   5.488  14.311
23720W        W96046   8.802  22.950   1.878
23721W        W96047  43.388  20.781  10.614
23722W        W96048  38.640  12.734  11.891
23723W        W96049  18.515  29.971   0.965
23724W        W96050  24.528  28.445  14.823
23725W        W96051  32.142   5.991  12.574
23726W        W96052  13.559  28.683  14.710
23727W        W96053  17.694  24.860  12.431
23728W        W96054  18.224   8.696  10.600
23729W        W96055  13.717  26.648   2.847
23730W        W96056  27.416  12.639  14.495
23731W        W96057  21.470  37.754  12.822
23732W        W96058  33.183  13.627   2.373
23733W        W96059  32.132  39.797   0.256
23734W        W96060  18.262  27.134   3.504
23735W        W96061  32.444   1.781  13.874
23736W        W96062  10.406  31.700   3.834
23737W        W96063  12.335   7.742  12.500
23738W        W96064  12.336  39.979   4.069
23739W        W96065  14.478  29.368  12.061
23740W        W96066  33.916  32.010   0.265
23741W        W96067   2.011  11.699  12.837
23742W        W96068   4.228  22.706   0.703
23743W        W96069  23.507   8.693   4.547
23744W        W96070  44.920   3.776  12.710
23745W        W96071  29.216  39.759  12.962
23746W        W96072  10.875  29.469   0.744
23747W        W96073  31.123   7.772   3.559
23748W        W96074  14.146  22.460   0.558
23749W        W96075  16.088   4.871   4.354
23750W        W96076   7.488  23.794   2.698
23751W        W96077  34.629   8.445   1.436
23752W        W96078  30.047  17.805   1.905
23753W        W96079  28.064   5.852  13.504
23754W        W96080   0.855  17.118   0.503
23755W        W96081   6.464  23.038  14.763
23756W        W96082  25.504  12.276  14.538
23757W        W96083   2.767   8.768   4.140
23758W        W96084   5.248  43.571   2.767
23759W        W96085  27.258  34.002   3.323
23760W        W96086  10.550  32.453   0.933
23761W        W96087   9.112  33.467   1.243
23762W        W96088  29.599  28.221   3.641
23763W        W96089   6.360  24.390  11.985
23764W        W96090  38.964  28.655   4.999
23765W        W96091  29.434  41.471   1.460
23766W        W96092   1.253  17.788   1.662
23767W        W96093   5.152  32.016  13.823
23768W        W96094   7.795  34.968  10.612
23769W        W96095  16.189  28.007  10.137
23770W        W96096  20.797  24.036   3.283
23771W        W96097  27.090   4.835  14.872
23772W        W96098  33.325  31.008  13.049
23773W        W96099   3.528  33.131   0.951
23774W        W96100  24.293  13.218  11.920
23775W        W96101  32.302  39.347   1.988
23776W        W96102  21.569  40.710  14.700
23777W        W96103  37.012  18.159   1.736
23778W        W96104  31.628  36.015   3.581
23779W        W96105  41.452  29.763  12.634
23780W        W96106  16.089   2.120  13.822
23781W        W96107  21.581  29.914  14.996
23782W        W96108   0.181  42.958   0.962
23783W        W96109  41.238  27.737   1.443
23784W        W96110  27.677  26.074   4.590
23785W        W96111  27.567  25.141  12.308
23786W        W96112  25.490  31.664  10.709
23787W        W96113  22.678  38.455   3.740
23788W        W96114  34.300  20.755   3.704
23789W        W96115  17.002  27.221  10.752
23790W        W96116  17.356  18.843  11.845
23791W        W96117   2.877  15.548   2.238
23792W        W96118  38.069  32.930  13.336
23793W        W96119  24.049   7.297   1.707
23794W        W96120  16.087   4.858   0.891
23795W        W96121  22.235  25.693  12.496
23796W        W96122   1.942  25.569  11.639
23797W        W96123  38.344  30.098  12.483
23798W        W96124  19.082  14.831  12.401
23799W        W96125  27.177   5.233  11.970
23800W        W96126  33.140  15.648   3.611
23801W        W96127  21.087  29.196  13.420
23802W        W96128  39.624   2.796  12.797
23803W        W96129  35.150  30.870  12.885
23804W        W96130  39.062  25.941  14.350
23805W        W96131   2.046  37.126  11.902
23806W        W96132  40.908  36.219   4.719
23807W        W96133  11.821  44.085  10.472
23808W        W96134  30.494  42.567   0.443
23809W        W96135  39.327  16.568  14.396
23810W        W96136   7.825   2.242  12.108
23811W        W96137  10.861   9.970   0.291
23812W        W96138  20.854  27.480  13.257
23813W        W96139  40.881  18.474   1.446
23814W        W96140  18.595   3.671   0.297
23815W        W96141   9.648   5.707   3.637
23816W        W96142  20.140  10.550   1.359
23817W        W96143   8.970  42.523  11.864
23818W        W96144   8.669   7.657   3.706
23819W        W96145  17.949  23.061  13.992
23820W        W96146  41.959  25.131   3.694
23821W        W96147  28.676  28.581   4.620
23822W        W96148  41.485  22.100   2.141
23823W        W96149  24.008  44.382  12.541
23824W        W96150   9.779   3.972   1.942
23825W        W96151   4.914   6.298   1.991
23826W        W96152  35.262  18.363   3.517
23827W        W96153  11.609  36.803   2.424
23828W        W96154   0.267  26.073  12.436
23829W        W96155  31.102  25.425  10.407
23830W        W96156  13.865  13.742   1.341
23831W        W96157  25.708  40.654  14.845
23832W        W96158  17.645   1.464   0.433
23833W        W96159  19.070  11.122  11.600
23834W        W96160  41.764   6.687   4.184
23835W        W96161  13.818  19.618   4.102
23836W        W96162   6.434  10.859   4.114
23837W        W96163  35.566  13.823   4.158
23838W        W96164  35.490   4.985  13.003
23839W        W96165  43.553  30.449  14.785
23840W        W96166  25.031  24.589   3.243
23841W        W96167  29.621  37.476  13.581
23842W        W96168  44.892  11.208   1.685
23843W        W96169   6.177  35.880  13.454
23844W        W96170  44.979  25.622   3.254
23845W        W96171   2.276  21.214  11.310
23846W        W96172  15.565  17.040   3.652
23847W        W96173   4.417  31.622  10.953
23848W        W96174  23.531  12.887  13.018
23849W        W96175  43.486  39.122   1.618
23850W        W96176  37.032  27.979   2.797
23851W        W96177  17.905  15.178  11.877
23852W        W96178  33.215   5.523  11.573
23853W        W96179  16.179  10.162   1.326
23854W        W96180  43.760  15.793   1.882
23855W        W96181  13.381   5.335   4.376
23856W        W96182  29.635   9.701  10.415
23857W        W96183  23.222  10.224   2.473
23858W        W96184  14.803  26.964  11.008
23859W        W96185  27.454  39.502   0.568
23860W        W96186  34.568  34.604  11.546
23861W        W96187  33.042  43.772  12.932
23862W        W96188  27.069  15.372   3.615
23863W        W96189  37.488  14.741  14.076
23864W        W96190  21.014  40.799  14.436
23865W        W96191  28.017   7.734   4.102
23866W        W96192   4.292  10.906   3.729
23867W        W96193   0.145  30.496   5.031
23868W        W96194  36.866  10.401   9.593
23869W        W96195  44.442  15.707   2.666
23870W        W96196  30.837  19.741  12.878
23871W        W96197  40.910  39.073   0.815
23872W        W96198   3.753   9.287  10.006
23873W        W96199  17.318  30.546   2.303
23874W        W96200  32.270  35.934   4.172
23875W        W96201  17.225   0.739   3.193
23876W        W96202   8.076  27.578  10.726
23877W        W96203  24.146  35.355  13.432
23878W        W96204  26.757  16.258   3.229
23879W        W96205   1.489   4.805   5.041
23880W        W96206  29.069  16.067   0.944
23881W        W96207  37.565   4.312   4.651
23882W        W96208   2.292  39.905   9.773
23883W        W96209  24.442  16.766   4.657
23884W        W96210  42.506  30.627  11.365
23885W        W96211  44.514  37.422   3.346
23886W        W96212  29.429   2.986   1.810
23887W        W96213  38.937   9.658   4.586
23888W        W96214  22.509  38.662  12.423
23889W        W96215  41.277  25.149  14.634
23890W        W96216  43.744  27.453  11.001
23891W        W96217  37.368  27.626  12.881
23892W        W96218  27.582  32.399   3.621
23893W        W96219  43.519  27.930   1.766
23894W        W96220  24.002  35.828   1.670
23895W        W96221  24.435  33.720  11.432
23896W        W96222   6.967   9.590  12.011
23897W        W96223   5.415  29.690  11.945
23898W        W96224  13.792  33.057   9.840
23899W        W96225  43.708   2.002   0.902
23900W        W96226  14.191  40.485  10.662
23901W        W96227  23.485  43.274   0.744
23902W        W96228   2.494  25.008   4.543
23903W        W96229  10.871  25.609   5.501
23904W        W96230  41.860  11.559  14.703
23905W        W96231  16.761  17.599   0.028
23906W        W96232  33.750   7.819  14.819
23907W        W96233  41.904  32.092   1.102
23908W        W96234  15.067  31.712   3.149
23909W        W96235  31.481  43.482   3.788
23910W        W96236  20.317  18.177   4.725
23911W        W96237  39.188  29.161  11.142
23912W        W96238  21.647  44.317  13.391
23913W        W96239  13.137  13.997  14.534
23914W        W96240  38.528   8.367  11.581
23915W        W96241  21.829  25.390   5.073
23916W        W96242  37.294  42.884   2.893
23917W        W96243  43.191   5.896  14.224
23918W        W96244   6.275  28.770  11.588
23919W        W96245  40.059  19.685   3.572
23920W        W96246  19.132  28.584   3.302
23921W        W96247   6.121  25.689   2.878
23922W        W96248  22.521   2.283   3.275
23923W        W96249  32.395  10.320  12.483
23924W        W96250   3.872  35.869   3.574
23925W        W96251  42.814  34.798  11.595
23926W        W96252  33.505  41.772   2.748
23927W        W96253  22.611  38.886   4.541
23928W        W96254  15.385  41.505  13.524
23929W        W96255  38.910  37.908  12.171
23930W        W96256  31.517  33.332  11.550
23931W        W96257  29.184  23.086   0.269
23932W        W96258  17.537  34.952   1.306
23933W        W96259  21.106  31.826   1.458
23934W        W96260  24.471  15.297  11.614
23935W        W96261   0.057  15.913   4.878
23936W        W96262  23.589  34.277  12.914
23937W        W96263  30.601  35.799  14.266
23938W        W96264  16.228  40.397   2.350
23939W        W96265  23.298  41.381  12.588
23940W        W96266  42.998   3.195  11.534
23941W        W96267  15.366  37.118  13.770
23942W        W96268   7.453  37.355  13.458
23943W        W96269  12.972  32.668   5.051
23944W        W96270  27.573  42.315   2.340
23945W        W96271  31.994  35.415   2.340
23946W        W96272  11.292   2.294  12.983
23947W        W96273  28.267  16.188  14.067
23948W        W96274   8.917  22.950  13.212
23949W        W96275  42.091   0.484   3.763
23950W        W96276  30.194   5.431   0.081
23951W        W96277  24.781  18.305  14.920
23952W        W96278  25.519  10.810  14.261
23953W        W96279   4.663  42.472  14.023
23954W        W96280  19.409  10.649   0.812
23955W        W96281  30.096  30.037   3.465
23956W        W96282   6.151   4.716  14.398
23957W        W96283  38.434  38.508   1.113
23958W        W96284  40.161  36.472  13.840
23959W        W96285  11.323  12.907  12.477
23960W        W96286  13.028  32.948  11.183
23961W        W96287   4.911  35.951   3.615
23962W        W96288  36.847  18.695  13.153
23963W        W96289  34.935   9.628  11.656
23964W        W96290  27.955  18.232   1.007
23965W        W96291  32.064  25.566   4.633
23966W        W96292   0.676  13.702   1.411
23967W        W96293  17.478  12.130  11.691
23968W        W96294  36.416   0.137  12.878
23969W        W96295  24.131   2.687  13.890
23970W        W96296  38.436  33.617   4.384
23971W        W96297  17.730  33.923   4.202
23972W        W96298  20.687  26.457  14.997
23973W        W96299  39.457  29.516  11.412
23974W        W96300  39.744  33.446   0.001
23975W        W96301  33.890   5.108  11.173
23976W        W96302  40.956  28.041   0.425
23977W        W96303  44.870  36.453   3.391
23978W        W96304  44.554  44.299   3.133
23979W        W96305  32.484  32.593  11.005
23980W        W96306   7.305  39.944  11.877
23981W        W96307  40.298  44.764  12.373
23982W        W96308   0.007   1.475  14.490
23983W        W96309  33.180  24.841   4.534
23984W        W96310  13.177  25.531  13.055
23985W        W96311   3.147  30.387  10.886
23986W        W96312  11.679   5.517   3.018
23987W        W96313  27.633  14.349   3.328
23988W        W96314  40.887  15.777   4.048
23989W        W96315  12.817  27.729   2.549
23990W        W96316  35.448  39.598  13.302
23991W        W96317   3.713  31.022  12.432
23992W        W96318  32.505   7.961   3.842
23993W        W96319  43.228  32.590  11.398
23994W        W96320  40.359  41.330  12.401
23995W        W96321  24.321  26.448   3.393
23996W        W96322  35.171  29.584  13.474
23997W        W96323   2.492   6.328  13.033
23998W        W96324  31.437  21.999  10.733
23999W        W96325  42.542  12.173   1.382
24000W        W96326  39.929  42.254  14.814
24001W        W96327  37.440  42.353   0.744
24002W        W96328  36.872  21.467  13.669
24003W        W96329   3.396  39.832  14.409
24004W        W96330  25.600  34.093   4.322
24005W        W96331   2.648  39.898   2.740
24006W        W96332  13.792  39.055   4.104
24007W        W96333  28.941  21.418  12.832
24008W        W96334   7.440  12.617   2.755
24009W        W96335  37.630   6.218  10.632
24010W        W96336  26.765   3.525   3.631
24011W        W96337  28.695  20.623  13.366
24012W        W96338   4.895   3.468  13.010
24013W        W96339   4.854   5.676   2.470
24014W        W96340  12.141  26.156   0.924
24015W        W96341  42.837  27.022   2.868
24016W        W96342  33.926   9.180   2.420
24017W        W96343  38.643   2.019   2.673
24018W        W96344  24.994  20.781  12.906
24019W        W96345   7.292   2.391  13.499
24020W        W96346  10.350  28.275   4.940
24021W        W96347   7.176  22.154  13.461
24022W        W96348  32.893  32.405   2.597
24023W        W96349  24.586  10.306   1.363
24024W        W96350  21.828  21.717  13.480
24025W        W96351   1.821  14.044   3.772
24026W        W96352   9.927  32.245  13.443
24027W        W96353  37.992  22.240  11.580
24028W        W96354   9.258  12.763   1.306
24029W        W96355  18.815   3.847  12.916
24030W        W96356  28.564   9.867  12.965
24031W        W96357   4.400   6.449   0.838
24032W        W96358  22.623  26.188  10.096
24033W        W96359  10.549   7.723   4.652
24034W        W96360  44.364  41.837  10.689
24035W        W96361  34.868  37.376  14.643
24036W        W96362  22.206  19.051  13.904
24037W        W96363   1.922  26.911   3.621
24038W        W96364  43.052  44.947  12.853
24039W        W96365  41.496  10.169  14.523
24040W        W96366  33.931  20.843   4.075
24041W        W96367  33.917  21.202  13.397
24042W        W96368  21.636   4.345  11.366
24043W        W96369   5.020   2.178  10.927
24044W        W96370  37.131  43.410  10.728
24045W        W96371  31.843   5.446   4.090
24046W        W96372   1.221   1.751  14.491
24047W        W96373   5.707  31.459   4.611
24048W        W96374  43.296  41.749   3.916
24049W        W96375  16.030  21.146  14.432
24050W        W96376  22.033  40.366   4.159
24051W        W96377  35.134   3.316  13.449
24052W        W96378  22.038  25.935  13.788
24053W        W96379  11.708  14.247  14.561
24054W        W96380  30.048  42.529   3.731
24055W        W96381  19.774  33.534  11.087
24056W        W96382  13.618  12.691   1.162
24057W        W96383  38.023   6.935   0.334
24058W        W96384  21.704  10.473   0.034
24059W        W96385   1.312   6.059  11.624
24060W        W96386  32.989  44.028   3.603
24061W        W96387  38.345   5.356   1.870
24062W        W96388  41.526  41.104  12.382
24063W        W96389  27.626  33.657   1.450
24064W        W96390   4.449   1.713  14.339
24065W        W96391  28.030  19.483   9.991
24066W        W96392  30.051  32.583  10.556
24067W        W96393  15.706  19.269  11.130
24068W        W96394  22.809  14.158  11.570
24069W        W96395   8.709  31.729   2.453
24070W        W96396   5.221   3.266  11.919
24071W        W96397  15.406   5.476  14.760
24072W        W96398  16.567   5.258  13.425
24073W        W96399  14.898   2.330  10.559
24074W        W96400  20.520  34.065   2.494
24075W        W96401  21.280  38.528  13.887
24076W        W96402  40.526  26.980   1.219
24077W        W96403  29.793  23.514  11.599
24078W        W96404  24.451  16.973   4.148
24079W        W96405   1.503   0.519   3.603
24080W        W96406  15.154  14.831  13.469
24081W        W96407  13.271  43.372   4.459
24082W        W96408  14.551  35.304   0.186
24083W        W96409  31.958  37.390  14.460
24084W        W96410   8.019   1.826   2.831
24085W        W96411   4.735  24.466  12.918
24086W        W96412  20.973  28.326  11.017
24087W        W96413   7.233  42.383  10.691
24088W        W96414   4.859  11.791   2.825
24089W        W96415  37.098  13.791  14.006
24090W        W96416  20.222  34.804  10.297
24091W        W96417  36.335  28.959  11.780
24092W        W96418  38.018  25.425   1.731
24093W        W96419   1.180  36.907  11.828
24094W        W96420  33.720  36.385   5.035
24095W        W96421   4.257  17.264   1.829
24096W        W96422   7.681   3.590   2.209
24097W        W96423  20.138   9.832   1.711
24098W        W96424  14.935  10.248  11.209
24099W        W96425  12.364  43.284  13.518
24100W        W96426  39.927  37.717  10.694
24101W        W96427  27.189  17.181  14.027
24102W        W96428   1.204  31.954  11.381
24103W        W96429  27.124  26.740  12.119
24104W        W96430  36.796  22.355  14.391
24105W        W96431  39.262  10.478   5.295
24106W        W96432  38.111   6.428   2.840
24107W        W96433  32.165  33.443  14.920
24108W        W96434  15.903   7.430  11.604
24109W        W96435  28.689  10.161  11.170
24110W        W96436   0.498   9.583   4.213
24111W        W96437  19.196  40.582   1.337
24112W        W96438  17.045  23.282   3.305
24113W        W96439   6.660  14.548  12.451
24114W        W96440  25.415  40.549   4.469
24115W        W96441  20.570   8.945   1.689
24116W        W96442  15.256   1.961   3.708
24117W        W96443  42.849  11.312   0.239
24118W        W96444  34.625  13.696  12.962
24119W        W96445   2.647   1.311  11.604
24120W        W96446  21.027   7.173  11.606
24121W        W96447  34.161  16.490   3.228
24122W        W96448  42.659  21.284   3.247
24123W        W96449  38.390  23.762  14.058
24124W        W96450  16.230  31.055   3.618
24125W        W96451  10.670   7.682   2.805
24126W        W96452   0.753  15.882   1.354
24127W        W96453  19.112  23.897   1.104
24128W        W96454  33.933  22.092   4.588
24129W        W96455  39.586  41.872  13.061
24130W        W96456   1.995  27.406  12.452
24131W        W96457   1.962  39.335   3.084
24132W        W96458  25.409  36.978   2.171
24133W        W96459  23.703  37.461   9.871
24134W        W96460  24.526  39.261  10.334
24135W        W96461  33.826   2.469  11.953
24136W        W96462  30.797  12.337  10.971
24137W        W96463  21.149  39.374  14.248
24138W        W96464  31.238  30.411   9.901
24139W        W96465  27.025   0.952  13.884
24140W        W96466   7.622   9.093   0.388
24141W        W96467   7.774   8.278  14.204
24142W        W96468  36.488  28.446   2.298
24143W        W96469  27.081   5.157   1.290
24144W        W96470  20.670  33.639   2.744
24145W        W96471  25.693   7.848  13.449
24146W        W96472  14.607  10.643   2.630
24147W        W96473  38.977  40.384   2.668
24148W        W96474  43.802   5.092   4.118
24149W        W96475  13.172  30.718   0.256
24150W        W96476  10.653  34.371  12.617
24151W        W96477   0.235  32.731  13.112
24152W        W96478  19.576   1.468  13.135
24153W        W96479   6.908   7.859   2.226
24154W        W96480  11.175  28.199   4.169
24155W        W96481  13.292  30.616  10.657
24156W        W96482  26.128  31.447   3.344
24157W        W96483  18.225  15.270  14.258
24158W        W96484   7.317  30.512   2.006
24159W        W96485  36.587  44.354  13.323
24160W        W96486  28.998  10.819  13.607
24161W        W96487   9.150  24.028  12.529
24162W        W96488  19.218  14.835  11.151
24163W        W96489   4.645  17.614   1.794
24164W        W96490  17.553  13.785   1.672
24165W        W96491   8.938  22.563  13.570
24166W        W96492  23.147  24.251   1.182
24167W        W96493  25.606  28.385  13.490
24168W        W96494  15.594  21.669  14.062
24169W        W96495  21.987  31.727  14.413
24170W        W96496  32.092  16.545   3.626
24171W        W96497  22.151  13.043   2.130
24172W        W96498   1.716  13.548   1.362
24173W        W96499  28.165   6.700   2.672
24174W        W96500  13.382  13.413   0.819
24175W        W96501  10.186   4.642   0.072
24176W        W96502  40.985  31.528   1.330
24177W        W96503  34.296   9.111   0.825
24178W        W96504  31.525  24.666   0.870
24179W        W96505   2.840  22.418  14.277
24180W        W96506  16.058  17.179  12.079
24181W        W96507  17.682   1.294  14.532
24182W        W96508  42.412  22.700   4.052
24183W        W96509  16.624  41.242   2.197
24184W        W96510  22.058  37.250   1.003
24185W        W96511  21.014   6.291  12.423
24186W        W96512   9.036  40.265   4.207
24187W        W96513  37.812  24.124  14.843
24188W        W96514  29.434   9.261  10.670
24189W        W96515  12.911  13.842   4.988
24190W        W96516   1.274   5.490   0.682
24191W        W96517  38.507   6.157  14.304
24192W        W96518  15.128   7.677   0.427
24193W        W96519   9.093  17.167  10.408
24194W        W96520  37.403  38.210   0.492
24195W        W96521   8.594  41.528  14.803
24196W        W96522  13.747   1.778   2.849
24197W        W96523   3.714  13.328   2.461
24198W        W96524  35.874  23.244   3.614
24199W        W96525  25.796  23.770  11.606
24200W        W96526  17.486   9.275  13.531
24201W        W96527  35.053  43.532  13.325
24202W        W96528  29.506  39.414  10.693
24203W        W96529  26.446  40.008  11.040
24204W        W96530   3.162  44.732   2.365
24205W        W96531  19.504   4.877   2.408
24206W        W96532   9.165  42.442   0.682
24207W        W96533  15.924  38.868   1.781
24208W        W96534  34.914   2.420  12.921
24209W        W96535  23.201  42.410   4.378
24210W        W96536  37.468  11.115   3.873
24211W        W96537  18.749  38.520  11.503
24212W        W96538  42.813  36.214   4.119
24213W        W96539  26.018  26.707   4.573
24214W        W96540  12.843  41.897  13.935
24215W        W96541  19.614  26.052  12.756
24216W        W96542   2.316  38.312   1.221
24217W        W96543  24.260  19.198  13.446
24218W        W96544  43.223   8.650   2.555
24219W        W96545  41.948   9.635  11.439
24220W        W96546  28.057  13.438  12.104
24221W        W96547  24.308  22.719  13.132
24222W        W96548  44.813  24.782  10.787
24223W        W96549  37.852  10.655  11.983
24224W        W96550  28.609  25.924   1.396
24225W        W96551  32.415   2.646   2.280
24226W        W96552  43.335   3.291   1.666
24227W        W96553   6.022   8.515   4.447
24228W        W96554  23.178  36.747  10.891
24229W        W96555  13.962  16.111   1.179
24230W        W96556  13.870  26.212   0.327
24231W        W96557  38.596  27.987   2.822
24232W        W96558  41.878  44.566   0.787
24233W        W96559  35.551  30.903   1.329
24234W        W96560  34.137  18.609   1.163
24235W        W96561  10.341   0.411  14.795
24236W        W96562   9.680  40.371   2.227
24237W        W96563   4.187  13.158  14.975
24238W        W96564  25.719   0.428   2.395
24239W        W96565  26.516   3.674  14.764
24240W        W96566  37.757  33.950   2.289
24241W        W96567  32.882  34.818  11.484
24242W        W96568  24.634  10.259  14.917
24243W        W96569  35.304  21.623   4.172
24244W        W96570  24.418  27.050   1.393
24245W        W96571  15.913  26.044  14.402
24246W        W96572  27.808  12.243  14.526
24247W        W96573  16.143  12.382  13.950
24248W        W96574  16.814  42.508   1.010
24249W        W96575  26.395   5.961  11.157
24250W        W96576  33.469  44.044   1.905
24251W        W96577  19.742  36.583   2.678
24252W        W96578  29.023  29.837  12.387
24253W        W96579  27.191  33.460   1.668
24254W        W96580   3.239   4.153   0.731
24255W        W96581  21.803  36.656   3.944
24256W        W96582  30.712  15.336  10.717
24257W        W96583  32.131  22.527  11.528
24258W        W96584  40.092  20.434   4.200
24259W        W96585  38.335  28.107   3.274
24260W        W96586   9.948  16.415  13.562
24261W        W96587  30.679  28.461  13.821
24262W        W96588  37.339  39.490   2.841
24263W        W96589  31.023  11.609   0.421
24264W        W96590  31.324  13.220   2.478
24265W        W96591  35.140  38.006  12.313
24266W        W96592  28.985  42.309  10.745
24267W        W96593   1.495  14.648  14.437
24268W        W96594  29.023  19.539   1.126
24269W        W96595  44.291  38.085   3.808
24270W        W96596  19.218  33.893  13.553
24271W        W96597  18.781  11.660  12.557
24272W        W96598  12.693  35.887   2.345
24273W        W96599  23.518  40.273   0.600
24274W        W96600  29.515  24.935  11.245
24275W        W96601  32.424  44.247  11.610
24276W        W96602  35.874   0.589   3.118
24277W        W96603  17.115  40.340   0.409
24278W        W96604  44.263   5.478  11.562
24279W        W96605   4.476  30.847  14.900
24280W        W96606  16.810  24.912   1.333
24281W        W96607  25.782   4.840  12.291
24282W        W96608  34.686  16.100  13.370
24283W        W96609  40.158  41.866   2.311
24284W        W96610  38.388  15.610  10.475
24285W        W96611   1.170  30.822   1.851
24286W        W96612  40.101  42.881  11.627
24287W        W96613  12.783  33.324  11.475
24288W        W96614  30.445  27.202   4.578
24289W        W96615  30.178   4.393  10.826
24290W        W96616  12.081  39.532   0.456
24291W        W96617  33.033  26.581   2.209
24292W        W96618  36.046   8.089   0.409
24293W        W96619  29.442   0.773   0.338
24294W        W96620  31.435   0.184   4.200
24295W        W96621  10.896  12.711   1.332
24296W        W96622  20.574  32.613   0.021
24297W        W96623  34.483  14.887  10.759
24298W        W96624  30.495   7.234   4.704
24299W        W96625  33.095  38.362  14.826
24300W        W96626  33.323  24.676  12.937
24301W        W96627  10.452  18.322  13.390
24302W        W96628   3.316  43.856  10.769
24303W        W96629  21.333  14.836  14.320
24304W        W96630  36.032  35.602   3.274
24305W        W96631  12.216   1.883   1.780
24306W        W96632  40.269   7.987  12.976
24307W        W96633   4.261   8.384   4.756
24308W        W96634  26.907   7.314   3.721
24309W        W96635  40.912   4.169  12.503
24310W        W96636   4.546  35.248   1.424
24311W        W96637   3.109  11.185   2.863
24312W        W96638   4.263  17.232   4.634
24313W        W96639  21.004   9.527   5.039
24314W        W96640  16.086   2.480   4.000
24315W        W96641   5.087  19.817  14.891
24316W        W96642  43.923  26.909   4.582
24317W        W96643  25.239  34.486   1.408
24318W        W96644  22.107   8.354  13.383
24319W        W96645   7.774  34.358  11.456
24320W        W96646   5.491  36.377  14.218
24321W        W96647  32.652  35.100  14.263
24322W        W96648  32.866  18.763   0.184
24323W        W96649   1.316  31.310  14.303
24324W        W96650  32.404  26.004  12.182
24325W        W96651   6.201  21.086  13.106
24326W        W96652  15.075  14.554   4.388
24327W        W96653  28.628  27.703   2.731
24328W        W96654  38.418  28.937   0.286
24329W        W96655   3.027  36.400  13.990
24330W        W96656   8.882  11.747   4.983
24331W        W96657  27.133  39.515  10.722
24332W        W96658  27.911  37.350  11.583
24333W        W96659  36.508  38.623   1.329
24334W        W96660  31.853  19.623   3.252
24335W        W96661  41.035  21.201   0.547
24336W        W96662  24.234  21.534  10.208
24337W        W96663  18.918  13.880  10.876
24338W        W96664  39.082  34.541   2.728
24339W        W96665  37.960  19.619   4.551
24340W        W96666   2.583  23.470  12.060
24341W        W96667   1.218  19.210   1.260
24342W        W96668  26.214  25.512  11.616
24343W        W96669  21.542  15.409  11.740
24344W        W96670  23.235   8.752  11.071
24345W        W96671  25.070  14.086  11.075
24346W        W96672   8.915  13.166  14.904
24347W        W96673   6.259  24.518  12.861
24348W        W96674  10.449  17.545   0.537
24349W        W96675  20.637  24.133   3.758
24350W        W96676   2.980  43.404  11.923
24351W        W96677  34.445  22.041   3.857
24352W        W96678  43.731  14.828   0.281
24353W        W96679   1.390  44.922  12.389
24354W        W96680   9.178  16.783   4.711
24355W        W96681  17.343  41.267  11.025
24356W        W96682  42.126  28.192  14.926
24357W        W96683  22.226  42.628  12.395
24358W        W96684  35.751  27.247  12.479
24359W        W96685  30.562  11.469   0.230
24360W        W96686  37.131  42.880  12.321
24361W        W96687  11.473  31.875   2.216
24362W        W96688  14.204  20.349  10.511
24363W        W96689  42.959  22.677   2.027
24364W        W96690  18.758  13.462  10.618
24365W        W96691  25.268  20.082   3.640
24366W        W96692  36.319  17.375   2.912
24367W        W96693  12.791  29.986  14.203
24368W        W96694  41.089  28.270   4.263
24369W        W96695  26.021   5.591  11.150
24370W        W96696  36.222  26.333  11.505
24371W        W96697  36.024  11.408  10.224
24372W        W96698  23.884  27.011   0.134
24373W        W96699   8.774  20.148   4.695
24374W        W96700  21.005  29.893  13.019
24375W        W96701  43.219  29.602  12.623
24376W        W96702  12.076   0.507   2.227
24377W        W96703  20.926  42.306  14.439
24378W        W96704  36.310  21.123  14.764
24379W        W96705  20.228  17.733  11.949
24380W        W96706  38.760  41.915  14.450
24381W        W96707   9.752  17.459  13.993
24382W        W96708  25.523  38.180   4.844
24383W        W96709  33.099   4.199   4.319
24384W        W96710  10.623   2.233   1.268
24385W        W96711  24.696  35.460  13.424
24386W        W96712  24.177  34.870   1.769
24387W        W96713   2.413  13.628  13.903
24388W        W96714   6.022  43.413  10.672
24389W        W96715   4.949  40.330   2.925
24390W        W96716  22.084  13.121  14.817
24391W        W96717   9.715  16.797   3.064
24392W        W96718   2.773   3.752  14.475
24393W        W96719  13.654  33.151  13.435
24394W        W96720  31.540  17.625   2.274
24395W        W96721   8.900  23.627   3.056
24396W        W96722  20.550  22.735  11.671
24397W        W96723   8.379  36.728  10.634
24398W        W96724  19.272  23.651  11.636
24399W        W96725   0.236  42.809  10.582
24400W        W96726  26.173  29.389  12.704
24401W        W96727   3.912  32.479   4.072
24402W        W96728  32.418  22.475  13.385
24403W        W96729  14.011  41.798  14.390
24404W        W96730   8.108  38.593  13.896
24405W        W96731  11.167  42.345  13.919
24406W        W96732  42.895   0.483   4.253
24407W        W96733  11.125  26.498  10.925
24408W        W96734  12.822  37.598  11.846
24409W        W96735  13.808  19.666  11.056
24410W        W96736  30.696  41.270  10.400
24411W        W96737   9.716  20.191  13.426
24412W        W96738  21.505   0.068  11.185
24413W        W96739   0.929   5.798   0.480
24414W        W96740   6.710  39.430   4.572
24415W        W96741  33.437  33.854   4.933
24416W        W96742   8.850   5.141   1.402
24417W        W96743   4.695   9.672  14.864
24418W        W96744  26.593   6.864   1.085
24419W        W96745  37.073  11.845  14.442
24420W        W96746  16.781  32.202   9.983
24421W        W96747  37.792   2.840   2.337
24422W        W96748   9.367  26.035  13.284
24423W        W96749  10.705  10.447  13.338
24424W        W96750  12.190   1.360   4.580
24425W        W96751  24.889   7.547  14.532
24426W        W96752  41.526  10.384  11.472
24427W        W96753  44.782  42.503  10.572
24428W        W96754  37.664  35.062  11.169
24429W        W96755  15.615  41.546   2.233
24430W        W96756  12.333  38.070   4.610
24431W        W96757  11.683  42.335  13.856
24432W        W96758  38.969  42.278   4.753
24433W        W96759  29.841  40.396   9.812
24434W        W96760  32.470  20.646   3.645
24435W        W96761  24.226  19.527   4.768
24436W        W96762  35.103   9.509  12.112
24437W        W96763  20.058   2.405   2.653
24438W        W96764  20.549  37.695  10.195
24439W        W96765  15.624  33.633   4.272
24440W        W96766  23.779  21.264  12.831
24441W        W96767  20.806  41.457   4.956
24442W        W96768   9.822  15.671   3.738
24443W        W96769  44.327  23.882   4.055
24444W        W96770  36.747  20.570   3.815
24445W        W96771  37.836  14.242   1.245
24446W        W96772  25.608  44.020   1.110
24447W        W96773  44.550   8.319   1.772
24448W        W96774   7.576  21.246   0.296
24449W        W96775  24.626  37.940  10.212
24450W        W96776  33.134  17.121  12.046
24451W        W96777  32.793  27.501   4.538
24452W        W96778  14.602  15.534   1.653
24453W        W96779  30.559  18.654   4.481
24454W        W96780  36.892  31.601   3.222
24455W        W96781   2.690  32.004  13.857
24456W        W96782  10.333  25.442  11.464
24457W        W96783   3.744  22.510   0.800
24458W        W96784  41.035  37.553  13.810
24459W        W96785  31.173  29.871   4.435
24460W        W96786  34.393  21.155  13.564
24461W        W96787  41.521  27.984   3.430
24462W        W96788  18.371  19.641   4.431
24463W        W96789  27.523  38.940   4.602
24464W        W96790   6.007  23.053   1.450
24465W        W96791  12.983  13.550  10.959
24466W        W96792  13.441   8.170  14.526
24467W        W96793  29.569  34.487   2.273
24468W        W96794  23.209   7.218  11.171
24469W        W96795  25.964  20.583   4.528
24470W        W96796   7.234  25.160   1.323
24471W        W96797  35.566  13.080   1.908
24472W        W96798   6.829  42.611   0.229
24473W        W96799  43.703  37.465   0.123
24474W        W96800  20.746  18.063   3.883
24475W        W96801  33.892  10.294  13.037
24476W        W96802  28.562  15.260   4.373
24477W        W96803  29.519  27.452   4.377
24478W        W96804  19.983   3.310  12.210
24479W        W96805   0.650  15.165  13.563
24480W        W96806  32.613  32.155  14.235
24481W        W96807   7.411   7.224  13.908
24482W        W96808  36.996  31.616   1.842
24483W        W96809  28.103  41.819  10.737
24484W        W96810  17.177  12.444   1.334
24485W        W96811  44.403  23.355   4.104
24486W        W96812  19.512  18.597   2.424
24487W        W96813   2.950  24.178  10.070
24488W        W96814  22.710   2.011   2.135
24489W        W96815  38.140  11.292   1.366
24490W        W96816  42.369   0.860   2.640
24491W        W96817  40.284   0.887   4.341
24492W        W96818   5.604  20.810   1.770
24493W        W96819  33.875  28.473  12.432
24494W        W96820  25.982  11.238   3.855
24495W        W96821  19.125  38.875  14.124
24496W        W96822  20.248   8.309   4.301
24497W        W96823  34.460   8.301  14.906
24498W        W96824  11.721  21.181  14.424
24499W        W96825   9.016  11.852   1.713
24500W        W96826   6.451   4.436  12.547
24501W        W96827  41.016  19.259  11.994
24502W        W96828  16.109  16.641   2.591
24503W        W96829   0.789  12.823   0.199
24504W        W96830  38.529  24.736   1.361
24505W        W96831  29.007  22.809  14.345
24506W        W96832   6.380  22.738   2.234
24507W        W96833  24.877  34.453   4.130
24508W        W96834  13.382  41.584   1.844
24509W        W96835  28.162   6.556   1.818
24510W        W96836   7.738  23.107   0.872
24511W        W96837  33.250   3.254   4.066
24512W        W96838  22.123  11.693   4.654
24513W        W96839  35.899  38.564   2.481
24514W        W96840  41.296   6.612  12.475
24515W        W96841  13.702  17.782   0.882
24516W        W96842   5.984  34.529   0.560
24517W        W96843   9.902   8.436  12.609
24518W        W96844  37.813  43.965  11.856
24519W        W96845   3.916  11.344  14.279
24520W        W96846   9.863  20.655   4.618
24521W        W96847  21.021  23.191  12.425
24522W        W96848   5.093  35.999   2.185
24523W        W96849   9.299  44.815  11.250
24524W        W96850  30.432   2.160   1.671
24525W        W96851  43.321  28.209   4.690
24526W        W96852  13.312   6.731   0.448
24527W        W96853  17.055  22.591  11.508
24528W        W96854  44.300  25.595  13.118
24529W        W96855  20.764   1.093   1.766
24530W        W96856   2.381  38.014   4.544
24531W        W96857  20.435  38.426  11.981
24532W        W96858  22.064  43.730  13.842
24533W        W96859  27.871  15.690  11.179
24534W        W96860  28.517  22.107   3.334
24535W        W96861   8.290   7.165  10.853
24536W        W96862   0.581   2.805  13.946
24537W        W96863   7.735   8.256  14.981
24538W        W96864  42.705  42.535  12.127
24539W        W96865  28.130  11.860  14.252
24540W        W96866  29.529  25.791  12.797
24541W        W96867  20.557   1.021  14.894
24542W        W96868  25.020  38.768   1.239
24543W        W96869   9.701  36.897  14.013
24544W        W96870   4.003  23.435   2.251
24545W        W96871  27.966  12.296   2.619
24546W        W96872  19.630  31.915   1.658
24547W        W96873  42.520   5.277  12.964
24548W        W96874  41.079   9.046   1.368
24549W        W96875  30.641  28.999  11.023
24550W        W96876  35.815  12.767   3.626
24551W        W96877  17.571   9.870   2.961
24552W        W96878  22.453  41.953   1.710
24553W        W96879  12.139  27.148  12.324
24554W        W96880  38.489  40.322   2.943
24555W        W96881  17.489  42.028  13.110
24556W        W96882  31.976  23.616  11.486
24557W        W96883  18.752  40.289  13.006
24558W        W96884  15.977   9.181  13.349
24559W        W96885  33.539  15.157  13.818
24560W        W96886  41.369  34.559   0.260
24561W        W96887   0.949  13.236  12.976
24562W        W96888  28.649  27.316   4.908
24563W        W96889  12.638  44.922  14.698
24564W        W96890  34.280   9.238   2.814
24565W        W96891  16.754   3.228   3.285
24566W        W96892  27.037   0.499  10.461
24567W        W96893  34.034   5.113   4.674
24568W        W96894  14.818  34.625   1.424
24569W        W96895  10.304  15.216  10.587
24570W        W96896  25.780  29.013   4.662
24571W        W96897  21.691  10.244   3.747
24572W        W96898  23.987  38.933  12.523
24573W        W96899  22.033   5.407   3.194
24574W        W96900  24.519   2.666   0.217
24575W        W96901  19.228  11.438   2.402
24576W        W96902  29.998  19.663   0.781
24577W        W96903  26.168  41.436  11.848
24578W        W96904  22.515  12.553  14.399
24579W        W96905  32.335  14.667  11.185
24580W        W96906   7.404  19.175  10.661
24581W        W96907  32.943  13.281  12.854
24582W        W96908   0.776   1.525   4.667
24583W        W96909  21.068  32.101   1.941
24584W        W96910  37.168  11.782  11.549
24585W        W96911  11.178  44.962   2.175
24586W        W96912  24.920  22.200  11.060
24587W        W96913   3.798  26.060   0.413
24588W        W96914  13.349  44.913  12.905
24589W        W96915  40.957  43.310   0.344
24590W        W96916   2.558  35.911   0.442
24591W        W96917  43.373  34.828   1.195
24592W        W96918   2.249  18.765   3.214
24593W        W96919   8.973  44.345  13.544
24594W        W96920  11.660   8.037  10.995
24595W        W96921   7.251  10.895  11.064
24596W        W96922  34.192  39.845   1.684
24597W        W96923  27.705  37.153  10.952
24598W        W96924  42.388  41.437  14.530
24599W        W96925  16.101  15.199   4.707
24600W        W96926  34.012  40.943  13.379
24601W        W96927  24.766  39.830  13.977
24602W        W96928  34.078  34.428  11.446
24603W        W96929  35.840  12.896  12.027
24604W        W96930  35.008  20.086  12.843
24605W        W96931  16.187   0.405   4.527
24606W        W96932  23.962  42.252  11.987
24607W        W96933  22.058  34.879   1.438
24608W        W96934  41.117   4.905  12.178
24609W        W96935  36.928  17.686  13.426
24610W        W96936  24.435  23.749   0.773
24611W        W96937  11.943  40.004   1.928
24612W        W96938  28.683  43.477  13.055
24613W        W96939  34.570  17.881  14.374
24614W        W96940  32.947  37.849   3.320
24615W        W96941  35.955  42.598   4.170
24616W        W96942   3.520   3.794  13.074
24617W        W96943  31.939  35.962   2.259
24618W        W96944  17.015  17.004  13.967
24619W        W96945  14.212  19.171   3.131
24620W        W96946  42.189  29.717   3.291
24621W        W96947  23.880  16.038   2.910
24622W        W96948  26.479  29.487   1.464
24623W        W96949   1.144   0.695  11.020
24624W        W96950  13.180  21.297   3.105
24625W        W96951  38.511  14.096   1.670
24626W        W96952  37.562  15.940   3.273
24627W        W96953   0.821   8.845  13.491
24628W        W96954  26.542  39.328   1.688
24629W        W96955   0.284  14.856  13.806
24630W        W96956   6.815   6.341  10.924
24631W        W96957  14.373  15.784   2.035
24632W        W96958  35.296   0.728  13.516
24633W        W96959  44.265  43.726  12.124
24634W        W96960   7.182  36.307   1.677
24635W        W96961  31.726  44.970  11.464
24636W        W96962  38.547  32.355   3.279
24637W        W96963  14.667  27.024   4.738
24638W        W96964  21.916  20.691  10.550
24639W        W96965  27.582  13.064  14.072
24640W        W96966  12.061  43.385  11.166
24641W        W96967   2.756  26.614   3.280
24642W        W96968  35.461   5.925   0.582
24643W        W96969   4.432  14.442  10.994
24644W        W96970  23.218  12.200   1.716
24645W        W96971  16.196  11.581  12.395
24646W        W96972  10.089  16.288   4.993
24647W        W96973  10.257  22.126  12.554
24648W        W96974  27.951  17.537   4.077
24649W        W96975  19.349   5.363   0.426
24650W        W96976   5.496  39.033  11.665
24651W        W96977   9.176   0.956   3.947
24652W        W96978  36.667  36.115  14.935
24653W        W96979  19.436  34.569   3.181
24654W        W96980   0.814  24.114  12.121
24655W        W96981  27.656  27.486   2.693
24656W        W96982   1.523  21.682  13.860
24657W        W96983  24.606  29.182  13.381
24658W        W96984  24.665  22.127   1.314
24659W        W96985  16.529  28.021   4.429
24660W        W96986   3.980  13.322  13.138
24661W        W96987  21.706  18.960  12.761
24662W        W96988  11.400  15.264  12.447
24663W        W96989  31.123   4.052   0.236
24664W        W96990  40.675  36.632   3.822
24665W        W96991  42.265  23.529   2.064
24666W        W96992  41.276   5.342   0.268
24667W        W96993  17.678  43.461  14.870
24668W        W96994  14.806   0.907   4.369
24669W        W96995   5.230  29.444   1.788
24670W        W96996  23.280  29.187   2.391
24671W        W96997  25.197  15.807   0.286
24672W        W96998  26.470   8.951   4.264
24673W        W96999  16.805  30.492   3.618
24674W        W97000  38.928   7.693  11.666
24675W        W97001  12.761  31.574   4.520
24676W        W97002  14.608   8.927   2.022
24677W        W97003  17.800   3.887  14.190
24678W        W97004  18.885  20.673  11.848
24679W        W97005  20.045  13.719  13.778
24680W        W97006  28.764  36.344  12.484
24681W        W97007  20.315  32.321   1.384
24682W        W97008  36.544  40.858   2.715
24683W        W97009  43.463  25.776  12.360
24684W        W97010  41.820  13.328   4.318
24685W        W97011  12.600  12.215  13.336
24686W        W97012  22.599  39.189   0.830
24687W        W97013  37.035   3.235   1.856
24688W        W97014  35.663  11.045  11.059
24689W        W97015   6.414  36.397  13.450
24690W        W97016  40.907  26.969   0.277
24691W        W97017  18.337  34.024   2.786
24692W        W97018  17.675  26.181   2.422
24693W        W97019  20.313  14.267  12.187
24694W        W97020  41.562  31.480   2.657
24695W        W97021  20.793   4.056   4.830
24696W        W97022  32.038  26.927   0.855
24697W        W97023  11.783   2.919  13.497
24698W        W97024  29.764  18.904  14.317
24699W        W97025  38.487  44.160   2.408
24700W        W97026   5.342  26.270  13.963
24701W        W97027   7.242  30.051   4.106
24702W        W97028  14.666  25.615   0.719
24703W        W97029   2.034  38.459  12.056
24704W        W97030   8.218  39.384   4.568
24705W        W97031  12.551  15.629  10.040
24706W        W97032  35.074  11.549  14.724
24707W        W97033  35.137   7.266  14.047
24708W        W97034  19.580   8.656  13.521
24709W        W97035  19.031  37.490   4.578
24710W        W97036  14.813  21.234   1.629
24711W        W97037  28.561   1.835   2.860
24712W        W97038  40.447  21.565  14.960
24713W        W97039   4.836  11.521  13.906
24714W        W97040   8.890   1.245   3.602
24715W        W97041  38.602  18.157  13.820
24716W        W97042   9.915   2.605  12.605
24717W        W97043   1.744  34.489  12.462
24718W        W97044  11.947   4.366  13.422
24719W        W97045  33.066  37.764  12.616
24720W        W97046  44.431   9.358   0.869
24721W        W97047   9.146  16.991  14.453
24722W        W97048  30.721   9.270   4.511
24723W        W97049  39.614  28.041   2.670
24724W        W97050  10.295  10.754   0.620
24725W        W97051  35.523  24.577  11.413
24726W        W97052  12.830   1.852  14.374
24727W        W97053  41.435   9.829   4.701
24728W        W97054   4.239  31.010  12.472
24729W        W97055  11.812  31.009  12.413
24730W        W97056  24.091  23.725  12.998
24731W        W97057  34.393   8.924   2.380
24732W        W97058   2.066  42.513  13.900
24733W        W97059  24.475  36.043  13.858
24734W        W97060  21.028  33.593   0.904
24735W        W97061  16.070  32.385  14.854
24736W        W97062   6.857   2.158   0.876
24737W        W97063   5.169  44.694   4.045
24738W        W97064  36.534  31.873   1.722
24739W        W97065   4.477   4.198   3.225
24740W        W97066   9.870  15.835   0.035
24741W        W97067   2.992  25.611  13.112
24742W        W97068   0.971  32.510  11.335
24743W        W97069  20.807   8.370   2.998
24744W        W97070  12.721  40.819   4.612
24745W        W97071   4.337  25.593  12.381
24746W        W97072  32.816  30.438   4.686
24747W        W97073   4.396  18.497  13.566
24748W        W97074  31.262  12.683  10.242
24749W        W97075  30.094   5.892   1.408
24750W        W97076  12.223  38.812   2.187
24751W        W97077  19.692   4.731  13.066
24752W        W97078  36.901  22.530   2.349
24753W        W97079  32.557  33.091  11.098
24754W        W97080   4.893  12.962   2.188
24755W        W97081  29.873  30.689  13.409
24756W        W97082  12.667  27.748  13.268
24757W        W97083  42.824  13.637  13.956
24758W        W97084   8.742   6.197  11.616
24759W        W97085  27.468  36.510   1.706
24760W        W97086  28.935  13.750   3.255
24761W        W97087  17.009  29.669   4.029
24762W        W97088  21.618  44.407  12.856
24763W        W97089  41.909  27.006   2.410
24764W        W97090  30.065  23.850  14.863
24765W        W97091  27.092  29.529   2.809
24766W        W97092  36.281  28.037   3.311
24767W        W97093  15.261   0.168   0.360
24768W        W97094   5.258   9.713   1.666
24769W        W97095  17.193  13.635   4.579
24770W        W97096  36.511  19.232   0.705
24771W        W97097   8.190   7.332   2.236
24772W        W97098  24.642  43.476   3.623
24773W        W97099  13.325  33.489  10.094
24774W        W97100  18.935   1.469  14.873
24775W        W97101   7.612  21.237   1.260
24776W        W97102   2.835  36.862  14.922
24777W        W97103  34.846  35.065  10.116
24778W        W97104  27.154  38.551   0.222
24779W        W97105  26.737  14.629   2.931
24780W        W97106   9.173  28.192   1.743
24781W        W97107  20.496  25.977  12.986
24782W        W97108  26.211   8.682  14.341
24783W        W97109  30.447  12.262  13.433
24784W        W97110  28.033  24.898   4.396
24785W        W97111  32.123  27.471  10.629
24786W        W97112   7.342  33.915  11.445
24787W        W97113  33.329  13.777  13.401
24788W        W97114   9.125  25.162   4.822
24789W        W97115   1.877  26.265  12.953
24790W        W97116  11.378  32.039  11.907
24791W        W97117  23.420  16.032   3.732
24792W        W97118  18.338  32.921   2.302
24793W        W97119  44.832  17.103   3.610
24794W        W97120  29.961   3.308   5.018
24795W        W97121  25.977  18.160   2.524
24796W        W97122  26.662  28.701   4.667
24797W        W97123  15.196  31.224  10.543
24798W        W97124  36.917  10.208  12.837
24799W        W97125  22.762   9.559   4.115
24800W        W97126  28.575  20.613   3.569
24801W        W97127  14.192  40.818   4.558
24802W        W97128  23.277  41.214   5.075
24803W        W97129  40.588  37.385  11.675
24804W        W97130  21.583   5.808  13.408
24805W        W97131  32.923  25.671   2.168
24806W        W97132  24.660  40.788  13.768
24807W        W97133  24.149   4.660   0.305
24808W        W97134  38.905  40.539   3.166
24809W        W97135  32.840  27.371   1.520
24810W        W97136  34.418  33.075  14.173
24811W        W97137  43.959   9.447   2.617
24812W        W97138  31.388  26.467  12.460
24813W        W97139  10.764  36.061   3.507
24814W        W97140  27.193  34.486  12.836
24815W        W97141   1.056  25.080  14.978
24816W        W97142   6.229  31.549  13.432
24817W        W97143  13.251  29.167  11.602
24818W        W97144   9.845  41.035  14.014
24819W        W97145  12.679  31.014   4.516
24820W        W97146  17.533  12.390   0.481
24821W        W97147  32.706  18.064   0.908
24822W        W97148  26.237   1.805  12.460
24823W        W97149  32.136  41.240  13.809
24824W        W97150   7.619   1.857   2.093
24825W        W97151  14.992  41.074  10.901
24826W        W97152  44.716  44.731   4.059
24827W        W97153  17.327  35.451   4.238
24828W        W97154  38.982   0.898   0.703
24829W        W97155   8.932  15.393   2.777
24830W        W97156  24.989  17.652  10.239
24831W        W97157   3.553  19.523   0.161
24832W        W97158   3.332   1.892  14.939
24833W        W97159  35.873  43.960   4.479
24834W        W97160  21.437  21.834  12.474
24835W        W97161   5.196  33.585   1.897
24836W        W97162  13.393  28.944   1.901
24837W        W97163   7.399   0.890  12.520
24838W        W97164  19.995  11.165  11.728
24839W        W97165  36.000  16.247  12.174
24840W        W97166  41.926  13.221  13.238
24841W        W97167  36.044  23.966   0.683
24842W        W97168   2.966   3.711   0.804
24843W        W97169  33.104  34.550  10.231
24844W        W97170   1.867  34.099   4.070
24845W        W97171  21.970  33.313  12.305
24846W        W97172  19.045  24.660   0.095
24847W        W97173  38.050  20.965   4.614
24848W        W97174  15.776  18.244  13.904
24849W        W97175  21.515  33.416  11.364
24850W        W97176  10.113  38.829  12.598
24851W        W97177   3.755  15.560   1.753
24852W        W97178  35.214   4.225   0.913
24853W        W97179  25.156  24.489   1.772
24854W        W97180  31.539  15.784   4.020
24855W        W97181  43.660  36.658  13.379
24856W        W97182  36.998   5.361  10.807
24857W        W97183  18.728  39.404   1.748
24858W        W97184   7.267   6.423   2.199
24859W        W97185  20.101  42.349  13.846
24860W        W97186   8.146   2.455  13.131
24861W        W97187  33.924   2.289   0.321
24862W        W97188  43.435   5.592  10.651
24863W        W97189  37.500  21.951   2.183
24864W        W97190   4.280  31.116  10.657
24865W        W97191  43.585  40.045   1.867
24866W        W97192  34.548  33.907   3.304
24867W        W97193   5.495  11.285   2.363
24868W        W97194  22.620  17.875  11.713
24869W        W97195  34.743  11.912  14.919
24870W        W97196   5.276  44.209   4.224
24871W        W97197  44.945   3.497   0.488
24872W        W97198  35.015  11.754   0.327
24873W        W97199  43.036  42.861  13.327
24874W        W97200  26.016  17.808   0.452
24875W        W97201   1.514   5.665   1.911
24876W        W97202   0.477   2.842   3.261
24877W        W97203  23.144  40.522   0.311
24878W        W97204  38.019  38.798  11.900
24879W        W97205  25.450  35.051   4.655
24880W        W97206   4.623   3.970  12.157
24881W        W97207  28.751   8.746   0.436
24882W        W97208  44.544   1.779  11.510
24883W        W97209  32.668  16.812   4.643
24884W        W97210   0.805  19.052   1.597
24885W        W97211   6.459  24.681   3.658
24886W        W97212  20.103  24.911  14.423
24887W        W97213  26.651  18.878   2.441
24888W        W97214  25.148  11.188   3.326
24889W        W97215   8.733  33.320  14.820
24890W        W97216  40.829  14.277  14.314
24891W        W97217  16.570   6.233  12.549
24892W        W97218  40.824   5.930   2.786
24893W        W97219  34.003  16.824  14.726
24894W        W97220  13.949  14.762  11.652
24895W        W97221   9.265  12.246  14.045
24896W        W97222  37.508  17.069  13.799
24897W        W97223  17.648   0.669  14.777
24898W        W97224  42.493  31.147  14.258
24899W        W97225  20.691  19.390   4.168
24900W        W97226  12.950  30.902  12.342
24901W        W97227   4.284   3.931   1.768
24902W        W97228  25.636  34.769   1.816
24903W        W97229   7.323  29.961   1.831
24904W        W97230  21.730  17.636  12.171
24905W        W97231  30.417  29.129   2.089
24906W        W97232   4.502  10.117  12.090
24907W        W97233  17.084  15.183  12.150
24908W        W97234  17.202  19.018  12.647
24909W        W97235   6.205  33.599   3.371
24910W        W97236  18.762  32.725   2.894
24911W        W97237  38.475  25.202  13.032
24912W        W97238   4.349   0.526  14.829
24913W        W97239   0.516   9.636   0.159
24914W        W97240   4.555  29.941  12.075
24915W        W97241  12.530  43.053   4.601
24916W        W97242   8.159   8.227   3.866
24917W        W97243   9.735  35.624   0.806
24918W        W97244  41.633  14.743   3.358
24919W        W97245  23.072  36.092  13.944
24920W        W97246  21.262   0.331   3.426
24921W        W97247  17.800  13.557  12.459
24922W        W97248  10.349  43.275   3.680
24923W        W97249  25.222  21.211  14.097
24924W        W97250  32.591  40.074   0.362
24925W        W97251  31.397  11.151   2.524
24926W        W97252  20.079  26.248   2.129
24927W        W97253   1.315  13.427   3.426
24928W        W97254  14.592  10.410  12.397
24929W        W97255  22.230  11.580  13.549
24930W        W97256  23.041   6.959   2.850
24931W        W97257  42.664  24.442   0.016
24932W        W97258  13.771   8.803   4.627
24933W        W97259  11.236  43.910  14.048
24934W        W97260   6.233   0.663  11.627
24935W        W97261   9.852  39.518  10.900
24936W        W97262  16.995  12.375   0.487
24937W        W97263  35.915   7.584   4.159
24938W        W97264   8.078  17.164   0.948
24939W        W97265  19.544  18.463  11.214
24940W        W97266  21.534   5.365  11.736
24941W        W97267   9.506  25.673  11.259
24942W        W97268  20.359   8.552   3.134
24943W        W97269  43.754   9.158  11.047
24944W        W97270  12.309  43.974  10.620
24945W        W97271  30.238  35.424  12.464
24946W        W97272  43.715  19.595   4.188
24947W        W97273  11.166  15.148   1.283
24948W        W97274  24.471  40.268  13.925
24949W        W97275  42.117   4.801  14.393
24950W        W97276  14.102  11.263  11.676
24951W        W97277  13.946  32.445   1.360
24952W        W97278  34.965  33.357  10.180
24953W        W97279   0.328   3.813   4.642
24954W        W97280   7.781   3.949  13.100
24955W        W97281  22.014  29.976  14.372
24956W        W97282  37.376  38.067   1.450
24957W        W97283  43.018   9.281   1.962
24958W        W97284  22.929   2.464   0.943
24959W        W97285   2.804  32.613   3.151
24960W        W97286  12.201   3.220   1.642
24961W        W97287  22.364  32.050   5.092
24962W        W97288  17.221  26.050   4.729
24963W        W97289  16.228  38.306   0.620
24964W        W97290  43.513  44.052  11.652
24965W        W97291  15.829   7.604   1.498
24966W        W97292  14.686  12.605  11.510
24967W        W97293  16.463   1.492   2.649
24968W        W97294  29.560   3.283   1.355
24969W        W97295  16.987  11.242  14.977
24970W        W97296   1.303  14.061   2.177
24971W        W97297   1.819  19.455  11.872
24972W        W97298   3.463  31.968  12.947
24973W        W97299   9.809  43.512   4.536
24974W        W97300  29.242  37.398  12.637
24975W        W97301   1.894  24.623   5.043
24976W        W97302  36.943  28.081   1.890
24977W        W97303  30.477  44.225  11.880
24978W        W97304  42.021  25.552   1.324
24979W        W97305  21.733  27.554   0.347
24980W        W97306  40.045   9.472  14.307
24981W        W97307  38.256  30.482   2.293
24982W        W97308  14.125   6.150   2.327
24983W        W97309  35.568  15.348  11.863
24984W        W97310  10.961  31.036  10.562
24985W        W97311  28.718  28.211   1.884
24986W        W97312  10.101  30.459   4.575
24987W        W97313  15.423   0.829  14.655
24988W        W97314  39.137  23.049   0.247
24989W        W97315  25.162  35.506  14.715
24990W        W97316  37.165  20.994   3.151
24991W        W97317   1.766   6.325  10.727
24992W        W97318  29.115  40.636  11.086
24993W        W97319  28.933  12.592   1.924
24994W        W97320  41.448  27.644  12.443
24995W        W97321  21.734  39.262   1.886
24996W        W97322  27.126  29.977  14.785
24997W        W97323  28.911  13.681   0.579
24998W        W97324  14.952  30.861   2.616
24999W        W97325   4.483  16.748  13.277
25000W        W97326  40.784  32.499  12.825
25001W        W97327  12.119   7.237  12.498
25002W        W97328  37.119  11.272  13.763
25003W        W97329  11.092   4.753   2.771
25004W        W97330  35.492  23.241   2.946
25005W        W97331  17.204   9.260  13.973
25006W        W97332  12.341  25.421   0.456
25007W        W97333  33.863   5.983  11.176
25008W        W97334  23.173   6.862   2.360
25009W        W97335  20.262  30.094   2.259
25010W        W97336  28.024  37.136   0.292
25011W        W97337  35.598  19.391  13.918
25012W        W97338   3.881  34.059  10.729
25013W        W97339   9.388  40.735   1.329
25014W        W97340  15.032  15.771   1.425
25015W        W97341  23.680  16.699   2.314
25016W        W97342   5.922  14.124   3.655
25017W        W97343  13.743   9.335  11.909
25018W        W97344  27.389  40.722   0.366
25019W        W97345  16.029   6.730   4.050
25020W        W97346   6.862   9.465  14.477
25021W        W97347  41.210  44.397  12.466
25022W        W97348  43.733  11.279   2.307
25023W        W97349  38.064   4.356   0.982
25024W        W97350  28.433  28.428   4.181
25025W        W97351  15.654  32.891  12.581
25026W        W97352  42.301  23.150  11.127
25027W        W97353  22.652  26.889   0.889
25028W        W97354  44.499   7.804  13.693
25029W        W97355  33.755  37.360   3.260
25030W        W97356  30.446   5.792   3.580
25031W        W97357  26.319  35.508   1.959
25032W        W97358  40.863  32.435  14.234
25033W        W97359  21.315  38.979   3.429
25034W        W97360   8.559  24.854  10.594
25035W        W97361   2.833  37.594  10.678
25036W        W97362  42.682  37.930  11.205
25037W        W97363  31.415  30.136   2.258
25038W        W97364  35.954  15.359  12.641
25039W        W97365  12.849  11.345  14.823
25040W        W97366  10.179  20.492   1.130
25041W        W97367  11.317  21.501  14.402
25042W        W97368  20.192  16.592   3.227
25043W        W97369   1.147  42.806  10.865
25044W        W97370  25.109  41.530  10.279
25045W        W97371  20.305  25.109   1.312
25046W        W97372  26.650  21.432   4.471
25047W        W97373   2.479  23.957   1.366
25048W        W97374   5.109  24.201   3.826
25049W        W97375  38.132  15.857  12.059
25050W        W97376  18.798  12.000  11.567
25051W        W97377  16.119   8.696  12.482
25052W        W97378  44.790  38.715  12.998
25053W        W97379   1.827   1.599   0.588
25054W        W97380   2.912  18.745  10.771
25055W        W97381  14.659  27.079   0.456
25056W        W97382  24.086  13.824   0.448
25057W        W97383  29.039   4.842  10.370
25058W        W97384  37.826  18.567  14.981
25059W        W97385   4.840  34.793  10.088
25060W        W97386  13.278  39.408  12.119
25061W        W97387   6.660  35.390  10.451
25062W        W97388  19.665  30.421   0.996
25063W        W97389  27.610  20.603   2.247
25064W        W97390  44.821  37.085  12.448
25065W        W97391  24.996   5.348   3.800
25066W        W97392  18.530  35.143  11.428
25067W        W97393  21.544  33.065   4.921
25068W        W97394  14.873  28.558  14.960
25069W        W97395   3.365   6.590  10.909
25070W        W97396  43.320   5.674   1.737
25071W        W97397   4.467   7.239   4.099
25072W        W97398  43.916  37.271  11.065
25073W        W97399  27.212  43.288   2.477
25074W        W97400  33.536  24.658   0.853
25075W        W97401   5.397  22.915  10.539
25076W        W97402  30.575  37.073   2.599
25077W        W97403   3.337  43.130   3.785
25078W        W97404  41.045   9.399  14.287
25079W        W97405  20.295  21.039   1.864
25080W        W97406   0.988  34.020  10.750
25081W        W97407  30.453  31.953  10.713
25082W        W97408  35.852  36.445  12.501
25083W        W97409  39.925  29.196   1.373
25084W        W97410  36.361  21.788  13.466
25085W        W97411  40.914  44.195   2.506
25086W        W97412   6.094  36.805  11.158
25087W        W97413  33.675  10.661  14.128
25088W        W97414   7.127  40.817   2.671
25089W        W97415  29.101  26.626  13.830
25090W        W97416  43.428  23.118   3.306
25091W        W97417  34.527  20.058  12.466
25092W        W97418  29.057   6.781  12.601
25093W        W97419  30.723  28.621   3.728
25094W        W97420  18.752  27.548  10.613
25095W        W97421  13.669  38.671  10.782
25096W        W97422  43.974  42.317   1.716
25097W        W97423  38.516  30.823   1.991
25098W        W97424  41.715  23.164  13.346
25099W        W97425   6.987  44.509   9.811
25100W        W97426  10.650  26.066   4.679
25101W        W97427  33.103   9.186  11.496
25102W        W97428  44.203  41.536   4.211
25103W        W97429  19.111  22.751  13.808
25104W        W97430  34.545  13.244  11.919
25105W        W97431  42.540  40.867   4.210
25106W        W97432  20.999  40.517  11.242
25107W        W97433  26.878   3.978   3.997
25108W        W97434  38.582   3.931   2.782
25109W        W97435  22.256  31.419  13.001
25110W        W97436  35.030  26.510   1.298
25111W        W97437  15.070  14.135   0.038
25112W        W97438  36.878   0.451   0.933
25113W        W97439  18.117  12.557   1.340
25114W        W97440   3.271  21.533  13.331
25115W        W97441  31.589   9.269   3.955
25116W        W97442  33.816  25.180  14.190
25117W        W97443  37.239  22.946   4.152
25118W        W97444  24.638  18.791   1.897
25119W        W97445   0.025  22.949  11.071
25120W        W97446  19.796   0.197   4.343
25121W        W97447  15.340  24.212  14.218
25122W        W97448  15.195   8.678   2.691
25123W        W97449   6.862  17.686   0.509
25124W        W97450  31.042  13.125  14.182
25125W        W97451  40.495  41.716   0.862
25126W        W97452   4.729  11.008  14.856
25127W        W97453  17.195   6.949   0.261
25128W        W97454   6.790   6.430  10.423
25129W        W97455  29.493   1.973  13.839
25130W        W97456  24.233  40.562  13.550
25131W        W97457  20.428  24.561  11.184
25132W        W97458   8.331  24.964  11.881
25133W        W97459  35.784  26.967   3.714
25134W        W97460   4.421   3.028  12.524
25135W        W97461   4.783  10.135  14.030
25136W        W97462   4.765  30.221  11.497
25137W        W97463  31.036   4.314   0.958
25138W        W97464  39.424  43.400   4.163
25139W        W97465  34.153  20.597  14.888
25140W        W97466  25.254  40.387  11.543
25141W        W97467   1.725  22.585  14.029
25142W        W97468  15.595   3.275  14.538
25143W        W97469  23.471  37.178   4.914
25144W        W97470  17.748  27.673  13.741
25145W        W97471  19.987  28.267  14.550
25146W        W97472  24.477  14.653   1.351
25147W        W97473  21.226  22.697  13.606
25148W        W97474  12.804  26.758  11.525
25149W        W97475  18.322   9.958   0.392
25150W        W97476  36.532  39.114  11.511
25151W        W97477  41.728  29.931   3.220
25152W        W97478  34.191  43.865   4.130
25153W        W97479  13.786  24.236   1.758
25154W        W97480   6.542   5.922   9.953
25155W        W97481  22.993  16.582   0.915
25156W        W97482  26.193  39.156  12.494
25157W        W97483  35.606  34.410  10.247
25158W        W97484   6.743  28.557  14.769
25159W        W97485  12.561  38.602   1.822
25160W        W97486   1.177   1.264   4.870
25161W        W97487  33.064   9.615   1.220
25162W        W97488  10.934  19.120  12.993
25163W        W97489  39.432  26.895  11.972
25164W        W97490  42.306  21.005  12.952
25165W        W97491  13.362  17.363  13.450
25166W        W97492   9.877  38.243  13.382
25167W        W97493  32.800  28.210   4.002
25168W        W97494  40.585   7.768   3.828
25169W        W97495  37.738  28.983   2.290
25170W        W97496   0.414  42.907  13.658
25171W        W97497   4.329  35.593   1.754
25172W        W97498  11.505  30.151   0.859
25173W        W97499  32.102   4.468   3.351
25174W        W97500   4.452  14.173  13.014
25175W        W97501   9.746   5.662  12.544
25176W        W97502  42.611  31.021   1.201
25177W        W97503  42.531   4.826   2.078
25178W        W97504  35.517  28.581   3.296
25179W        W97505   0.302  36.315   3.691
25180W        W97506   4.734  14.803   4.030
25181W        W97507   6.912  44.957  11.227
25182W        W97508  23.046  19.606   1.563
25183W        W97509   1.227  23.118  11.819
25184W        W97510  31.219  33.473   0.399
25185W        W97511  13.640  29.409  10.829
25186W        W97512  18.525  18.329  12.408
25187W        W97513  31.798  38.201   4.283
25188W        W97514  34.889  39.085   3.695
25189W        W97515  30.868  26.505   1.171
25190W        W97516  33.480   9.927   1.392
25191W        W97517  31.062  10.747   2.477
25192W        W97518   6.709  22.018   2.753
25193W        W97519  14.174  31.605   3.108
25194W        W97520  15.331   0.959   2.753
25195W        W97521  15.698  38.022   3.166
25196W        W97522   9.787  25.315  13.011
25197W        W97523  38.455  41.914   3.079
25198W        W97524  14.356  42.426  14.946
25199W        W97525  40.898  28.180   2.211
25200W        W97526  26.561  10.631  14.019
25201W        W97527   7.860   2.501   0.269
25202W        W97528  40.547  22.921   1.196
25203W        W97529  39.782   6.155   1.020
25204W        W97530   7.678  42.053  13.107
25205W        W97531  39.440  40.584   4.275
25206W        W97532  19.828  32.386  13.706
25207W        W97533   6.928   4.321   0.863
25208W        W97534  26.239   2.872  12.528
25209W        W97535  39.910  35.369  12.604
25210W        W97536  40.225  17.604  10.994
25211W        W97537  18.238  13.731  13.118
25212W        W97538  12.855  21.551   4.784
25213W        W97539  14.183  17.504   0.823
25214W        W97540  28.489  31.518   2.867
25215W        W97541   6.380  20.065   4.022
25216W        W97542  36.267   0.280   2.282
25217W        W97543  36.886  29.743   2.739
25218W        W97544  12.814  27.480   1.614
25219W        W97545  29.800  21.218   5.055
25220W        W97546   8.806  33.477  12.658
25221W        W97547  14.567   1.389  11.083
25222W        W97548  28.469  11.551   3.587
25223W        W97549  10.368   6.061  14.983
25224W        W97550  35.021   9.292   0.326
25225W        W97551  32.910   4.444   2.871
25226W        W97552  32.002  13.005   0.857
25227W        W97553  36.836   6.715  12.019
25228W        W97554   3.870  23.803  12.551
25229W        W97555   1.751  41.355   0.238
25230W        W97556  11.325  14.042   3.320
25231W        W97557  23.261  24.544   2.458
25232W        W97558  28.089  11.690   4.003
25233W        W97559  28.029  19.169  10.471
25234W        W97560   3.645   6.829   0.477
25235W        W97561  17.241  40.356  10.641
25236W        W97562  34.576  12.247   0.268
25237W        W97563   0.109  17.792   0.074
25238W        W97564  20.064  27.518   4.379
25239W        W97565  13.359  40.948  12.889
25240W        W97566  26.935  17.703   0.233
25241W        W97567  31.961  21.692  13.828
25242W        W97568  19.228  31.482  14.666
25243W        W97569  26.429   3.933   3.727
25244W        W97570   9.398   7.598  13.781
25245W        W97571  11.075  11.867  11.108
25246W        W97572  11.617  41.909  13.543
25247W        W97573  32.023  37.590   0.885
25248W        W97574  24.943  24.508   4.549
25249W        W97575   6.472  13.329   1.793
25250W        W97576   6.665   5.358   2.350
25251W        W97577  20.389  29.561  12.313
25252W        W97578  19.549  18.014   4.230
25253W        W97579  24.497  43.940   2.721
25254W        W97580  25.437  17.936  11.036
25255W        W97581  36.354  39.333  12.533
25256W        W97582  32.304  32.438   4.616
25257W        W97583  11.200  35.102  12.097
25258W        W97584  10.754  40.237  10.654
25259W        W97585  13.128  32.320   0.889
25260W        W97586  35.947  28.420   4.607
25261W        W97587   3.956   8.858  13.736
25262W        W97588  20.296  16.191   1.388
25263W        W97589  37.028  19.044   4.621
25264W        W97590   7.124   2.666  11.213
25265W        W97591  16.667  21.098  13.003
25266W        W97592  10.730  26.669   5.042
25267W        W97593   0.004  33.424  13.815
25268W        W97594  21.144  12.929  12.258
25269W        W97595  19.307   4.333   2.889
25270W        W97596  12.066  29.506  11.284
25271W        W97597   4.754  33.372  11.984
25272W        W97598  21.094  25.212  13.155
25273W        W97599  30.305  25.517   3.236
25274W        W97600  30.006   5.775  14.116
25275W        W97601  36.984  10.353  10.096
25276W        W97602   8.882  36.570   3.125
25277W        W97603  24.195  16.113   0.889
25278W        W97604  44.788  42.396  13.992
25279W        W97605  11.562  22.074   0.043
25280W        W97606   2.404   9.154   4.110
25281W        W97607   3.948  16.285   1.668
25282W        W97608  37.291  12.121   2.783
25283W        W97609  28.887  13.091  11.682
25284W        W97610  12.109   1.968  10.707
25285W        W97611  10.347  35.896   0.391
25286W        W97612  42.943  31.066   0.362
25287W        W97613  21.826   4.676  10.741
25288W        W97614  37.699  14.920   4.835
25289W        W97615   7.728  22.196   2.421
25290W        W97616  25.554  44.156   3.631
25291W        W97617  36.297  18.483   1.593
25292W        W97618  20.400  30.362  14.442
25293W        W97619  43.716  40.891   1.812
25294W        W97620  11.687  36.882  12.914
25295W        W97621  24.438  12.452  11.009
25296W        W97622  23.789   4.728  10.586
25297W        W97623   9.831  18.206  14.330
25298W        W97624  37.428  17.163  11.260
25299W        W97625  15.672  23.594   3.621
25300W        W97626   0.828  24.429  13.001
25301W        W97627  29.521  31.886  12.839
25302W        W97628   2.703  28.285   4.128
25303W        W97629  26.461  44.747  13.472
25304W        W97630   5.309  37.484  13.825
25305W        W97631  21.380  26.880  11.034
25306W        W97632  13.880  36.643  11.090
25307W        W97633  44.638  15.681  14.996
25308W        W97634  13.116  11.551   3.640
25309W        W97635   7.267  38.149   0.316
25310W        W97636  21.667  20.847   2.605
25311W        W97637  35.439  31.044  14.106
25312W        W97638  28.487  39.507  12.389
25313W        W97639   7.527   7.282   0.208
25314W        W97640  21.568  13.847  14.868
25315W        W97641  12.779  38.557   2.304
25316W        W97642   3.360  27.361  12.856
25317W        W97643  31.538  10.726  13.687
25318W        W97644  23.559  32.765  13.155
25319W        W97645  42.601  12.075  10.705
25320W        W97646  34.557   0.233  12.526
25321W        W97647   5.244  40.776   2.873
25322W        W97648  11.359   2.256   1.773
25323W        W97649  29.449  42.585   0.735
25324W        W97650  24.615  43.331   2.691
25325W        W97651   2.549  23.726  10.639
25326W        W97652   7.658  15.362   2.129
25327W        W97653  41.729  18.707   3.696
25328W        W97654   9.083  43.304   4.055
25329W        W97655  33.990  43.745  12.971
25330W        W97656   8.744  34.584   0.409
25331W        W97657  36.484  44.781   1.917
25332W        W97658  21.236  19.792   0.645
25333W        W97659  23.164   3.491  13.889
25334W        W97660  24.567   7.017  11.570
25335W        W97661  43.731   3.946  13.634
25336W        W97662  39.450   1.848   4.706
25337W        W97663  42.375   0.918  12.017
25338W        W97664  31.926  17.103   1.582
25339W        W97665  44.328   3.385   2.692
25340W        W97666  23.525  27.352  10.769
25341W        W97667  19.938   5.572   4.870
25342W        W97668  25.211  26.538   0.717
25343W        W97669   9.608  18.729  14.292
25344W        W97670  10.846  28.400  13.885
25345W        W97671  38.839   2.754  12.582
25346W        W97672  16.764  19.159   2.194
25347W        W97673  34.575  25.560  10.642
25348W        W97674  28.979  26.753   1.379
25349W        W97675  27.280  28.629   5.487
25350W        W97676  26.972  14.554  14.788
25351W        W97677  22.203  18.543  13.959
25352W        W97678  11.733   4.265  12.874
25353W        W97679  40.820  37.340   0.840
25354W        W97680   1.276  28.387  13.104
25355W        W97681  43.295  43.223   4.114
25356W        W97682   9.616  39.512  13.944
25357W        W97683   5.676  14.395   2.219
25358W        W97684  42.421  23.249   4.147
25359W        W97685  43.940  29.124  11.651
25360W        W97686  35.009  14.640  12.857
25361W        W97687   8.284  11.783  12.708
25362W        W97688   3.926  25.920  10.612
25363W        W97689  16.087   1.376   1.785
25364W        W97690   5.111   4.981  12.471
25365W        W97691  35.486   4.699  12.569
25366W        W97692  35.844  11.636  11.528
25367W        W97693  23.172  14.740   3.545
25368W        W97694   3.157  18.550   3.291
25369W        W97695  31.094  31.980   0.733
25370W        W97696  35.061  14.466   0.179
25371W        W97697  31.898   0.781   0.004
25372W        W97698  10.896  30.650   0.357
25373W        W97699  19.118  42.114  12.795
25374W        W97700  29.612  12.343   4.024
25375W        W97701  42.104  16.173  13.397
25376W        W97702   8.162   9.433  11.580
25377W        W97703  36.962  20.795   0.497
25378W        W97704  17.118  32.746  14.786
25379W        W97705  28.511  23.655   3.275
25380W        W97706   8.226  31.618   2.696
25381W        W97707  37.540  38.145  10.651
25382W        W97708  28.549  24.635   2.987
25383W        W97709   4.843  27.936   0.713
25384W        W97710   6.272  12.071   0.355
25385W        W97711  29.904   8.821   3.324
25386W        W97712  15.012  31.057   1.671
25387W        W97713  44.690  43.305  11.470
25388W        W97714  32.154  10.178  12.039
25389W        W97715  26.534  33.825  14.411
25390W        W97716   9.725  22.525  12.980
25391W        W97717  27.854  36.979  13.734
25392W        W97718  10.575   0.009   3.159
25393W        W97719  25.988  10.766   4.108
25394W        W97720  38.044   2.524   1.327
25395W        W97721  10.419  44.725   2.751
25396W        W97722  28.457  27.470   0.330
25397W        W97723  24.684  22.156  14.833
25398W        W97724   8.917   4.803  12.998
25399W        W97725  15.717  22.342   2.087
25400W        W97726  18.707  24.639   3.049
25401W        W97727  37.675  12.180  12.820
25402W        W97728  23.130  23.151  11.072
25403W        W97729  27.654  17.774  14.048
25404W        W97730   0.540  20.691   3.261
25405W        W97731   1.560  11.382  14.023
25406W        W97732  29.643  28.009   0.978
25407W        W97733   2.268   3.427  11.994
25408W        W97734   4.665   6.534  13.822
25409W        W97735  10.772   1.334  10.477
25410W        W97736  43.749  26.695  13.507
25411W        W97737  25.420  15.388   4.267
25412W        W97738  39.905  16.064  11.539
25413W        W97739  41.807  37.656   4.512
25414W        W97740  11.254  20.493   1.349
25415W        W97741  32.286  29.442   3.425
25416W        W97742  17.446   1.773  11.123
25417W        W97743   7.478   8.183   1.277
25418W        W97744   8.353  34.178   2.800
25419W        W97745  10.802  15.695  10.034
25420W        W97746  11.145  10.325   4.306
25421W        W97747  11.483  29.250  14.759
25422W        W97748  11.925  18.661  14.308
25423W        W97749  10.058   7.736   4.814
25424W        W97750  31.414  14.142  12.038
25425W        W97751  24.925   4.590   3.256
25426W        W97752  28.480  30.090   1.826
25427W        W97753  36.303   1.282  11.024
25428W        W97754   9.656  37.769   4.249
25429W        W97755   7.710   1.204  14.750
25430W        W97756  31.615  15.325   4.841
25431W        W97757  35.319  16.635   0.028
25432W        W97758  20.583  40.982  11.941
25433W        W97759   5.365  11.778  10.722
25434W        W97760   4.696  13.857  11.185
25435W        W97761   0.998  14.111  12.908
25436W        W97762  32.854  22.138   3.055
25437W        W97763  22.590  27.357  13.248
25438W        W97764  38.526  35.137   2.286
25439W        W97765   7.435  17.282  11.930
25440W        W97766  43.342  22.580  12.581
25441W        W97767  38.802   4.388   2.873
25442W        W97768  41.431  36.748  14.007
25443W        W97769  43.605   6.721  14.842
25444W        W97770  28.207  43.196   2.164
25445W        W97771  12.658  34.372  11.478
25446W        W97772  28.417  40.389   0.911
25447W        W97773   3.266  34.074   1.645
25448W        W97774  44.450  27.095   4.598
25449W        W97775  37.269  16.658  12.397
25450W        W97776  17.831  35.429  11.654
25451W        W97777  13.816  27.761   4.539
25452W        W97778  29.214  41.060  14.282
25453W        W97779  31.532   3.233   4.924
25454W        W97780  41.251   7.886   1.770
25455W        W97781  38.544  17.224  11.192
25456W        W97782  39.764   2.726   2.253
25457W        W97783  25.591  17.961   5.011
25458W        W97784  40.968  34.798   1.682
25459W        W97785  26.018  39.298  14.182
25460W        W97786  23.015   6.917  12.952
25461W        W97787  32.608  33.370  12.369
25462W        W97788   6.764  27.069  10.916
25463W        W97789  36.311   0.896  11.629
25464W        W97790  38.938  34.802   2.283
25465W        W97791  42.899   5.427   0.935
25466W        W97792   4.299  31.651   3.679
25467W        W97793  38.993   1.823  12.622
25468W        W97794  27.417  35.202   1.530
25469W        W97795  31.641  37.534  13.153
25470W        W97796  25.798  10.855   0.629
25471W        W97797  35.111  14.934   0.388
25472W        W97798  18.177   4.851   0.949
25473W        W97799  16.053  31.136  12.119
25474W        W97800  25.896  44.026  14.550
25475W        W97801  18.749  36.973  14.660
25476W        W97802  42.147  15.513   1.637
25477W        W97803   1.481  33.390   0.802
25478W        W97804  27.047   3.616   2.456
25479W        W97805   9.130  44.603  13.099
25480W        W97806   2.903  44.880   4.865
25481W        W97807   5.776  40.832  13.042
25482W        W97808  22.252  36.199  13.483
25483W        W97809   3.194  32.555  10.535
25484W        W97810  44.369  18.657   1.405
25485W        W97811  39.955   1.389  12.429
25486W        W97812   1.072  25.784   2.320
25487W        W97813  31.507  40.031  11.252
25488W        W97814  15.584  32.628   0.297
25489W        W97815  43.517  14.058   5.097
25490W        W97816  15.614  25.509  11.085
25491W        W97817  16.353  20.138  11.157
25492W        W97818  15.342  13.798  12.351
25493W        W97819  38.531  40.252   2.430
25494W        W97820   1.749  23.730   3.590
25495W        W97821  33.076  34.957  14.557
25496W        W97822  43.940  12.334  13.070
25497W        W97823  23.615  21.947  13.374
25498W        W97824  39.034  28.531  13.870
25499W        W97825  41.569  20.093  10.503
25500W        W97826  18.739  36.552  12.483
25501W        W97827   5.166   0.006  14.088
25502W        W97828  35.340  14.287   4.164
25503W        W97829  21.687   8.143  13.096
25504W        W97830  35.614  18.120   2.175
25505W        W97831  13.579  20.627  12.486
25506W        W97832  11.144  37.284   1.864
25507W        W97833   1.012  30.586   3.035
25508W        W97834  43.179  12.458  12.537
25509W        W97835  15.265  32.181  13.783
25510W        W97836  27.740   2.943  12.528
25511W        W97837  26.625  33.473  11.176
25512W        W97838  38.882   9.609   1.299
25513W        W97839   0.211  39.922  10.586
25514W        W97840  42.305  25.173   0.347
25515W        W97841  18.153  36.606   1.834
25516W        W97842  19.765  14.278   1.821
25517W        W97843  35.340  15.229   0.021
25518W        W97844  15.390  31.477  13.465
25519W        W97845  13.564  18.709   0.926
25520W        W97846  18.515  27.534   0.921
25521W        W97847  25.641  30.249  10.387
25522W        W97848  15.635  11.493  14.514
25523W        W97849  41.856  13.763   0.899
25524W        W97850   5.672  36.374  12.935
25525W        W97851  35.111  18.475  12.067
25526W        W97852  36.129  30.368   1.837
25527W        W97853   8.837  42.996   3.609
25528W        W97854  25.121  20.359   1.870
25529W        W97855  31.644  32.993  12.057
25530W        W97856  17.480  13.879   3.292
25531W        W97857  33.204  19.643   2.807
25532W        W97858  24.417   6.912   1.621
25533W        W97859  27.024  12.039  11.419
25534W        W97860  21.167  44.368  14.950
25535W        W97861  21.485  25.425   4.377
25536W        W97862   8.598  30.414   4.092
25537W        W97863  32.117  11.681  12.492
25538W        W97864  26.614  44.111   2.788
25539W        W97865  43.515  21.395  10.034
25540W        W97866  33.085  20.841   4.304
25541W        W97867  25.486  31.529  14.746
25542W        W97868  14.759  39.875   0.537
25543W        W97869   3.942   9.151   1.870
25544W        W97870   7.429   5.445  13.405
25545W        W97871   7.841  15.990   3.099
25546W        W97872  35.523   6.698  11.815
25547W        W97873  28.152   9.547   0.188
25548W        W97874  26.180  28.448  13.855
25549W        W97875  33.132   1.887   0.249
25550W        W97876  20.537  13.155  12.979
25551W        W97877  19.089   6.750  14.966
25552W        W97878  25.693   9.129  13.870
25553W        W97879  35.646  33.007  13.330
25554W        W97880  14.136   4.233   3.544
25555W        W97881  20.425  19.061  12.584
25556W        W97882  31.824  42.769  14.749
25557W        W97883  24.940  28.807  14.169
25558W        W97884  19.183   1.506   0.344
25559W        W97885   5.783  10.237  10.992
25560W        W97886  30.504   3.790   4.639
25561W        W97887  36.763   9.171   4.367
25562W        W97888  29.770  35.234  12.476
25563W        W97889  27.009  26.469  13.500
25564W        W97890  23.279  19.773  14.131
25565W        W97891   0.408   7.804  12.138
25566W        W97892   0.288  13.848   1.046
25567W        W97893  31.973  22.787  13.371
25568W        W97894  44.315   8.307   0.012
25569W        W97895  20.611  35.078   4.219
25570W        W97896  20.747   4.626   4.159
25571W        W97897  11.034  32.685  12.982
25572W        W97898  20.467   8.703  11.510
25573W        W97899  14.310  20.666  12.135
25574W        W97900  20.164  17.734  12.440
25575W        W97901  18.778  10.678   1.459
25576W        W97902   5.487  19.682  12.822
25577W        W97903   1.802  29.557   4.794
25578W        W97904  33.427   1.465   4.372
25579W        W97905   2.821  42.955  10.554
25580W        W97906  23.448  28.566   3.706
25581W        W97907  33.989  39.849   2.685
25582W        W97908  16.910   4.018  10.362
25583W        W97909  13.710  39.555   4.348
25584W        W97910   9.297  23.129  13.530
25585W        W97911  39.044  43.360   4.887
25586W        W97912  25.471   4.150  13.560
25587W        W97913   7.403  36.530   3.795
25588W        W97914  44.884  41.960   0.975
25589W        W97915  21.963  29.552   2.774
25590W        W97916  16.542  12.119  11.093
25591W        W97917  30.557   7.136   0.313
25592W        W97918  21.463   9.795  11.521
25593W        W97919  34.824   9.727  11.176
25594W        W97920  14.228   8.308  11.435
25595W        W97921   1.930   8.177   4.834
25596W        W97922  38.743  28.092  13.843
25597W        W97923   5.392  25.086  11.208
25598W        W97924   8.758   2.466   2.634
25599W        W97925   6.927   1.742   3.662
25600W        W97926  22.230  26.136  13.290
25601W        W97927  33.796  26.159  10.452
25602W        W97928   5.685  15.347   3.228
25603W        W97929  17.054  17.046  11.082
25604W        W97930  13.410   1.889  11.266
25605W        W97931  39.461   1.707   3.378
25606W        W97932  28.468  27.996  13.830
25607W        W97933  26.012  21.317  12.538
25608W        W97934   3.452   5.521   0.314
25609W        W97935  19.788  14.059   2.826
25610W        W97936  38.797  41.062  11.611
25611W        W97937  38.253   8.707  14.387
25612W        W97938  23.269  27.781  12.963
25613W        W97939  31.018  10.818  13.514
25614W        W97940  35.345  22.771  10.459
25615W        W97941  36.796  25.770  12.555
25616W        W97942   5.705  30.365   3.693
25617W        W97943  35.015  36.917  11.663
25618W        W97944  16.658  23.495   0.356
25619W        W97945  22.788  13.814  11.042
25620W        W97946  16.206  27.436  12.347
25621W        W97947  22.292   4.152  14.953
25622W        W97948  29.587  43.228  14.910
25623W        W97949  12.348   7.637   4.071
25624W        W97950  37.362   0.296   0.194
25625W        W97951  18.973   5.305  13.849
25626W        W97952  14.125  38.135   2.241
25627W        W97953  37.074   4.941  11.604
25628W        W97954  42.216  34.004  14.240
25629W        W97955   1.341  27.461   4.037
25630W        W97956  20.717   4.563  10.729
25631W        W97957  39.404   3.083  14.449
25632W        W97958  32.352  12.410  10.828
25633W        W97959  17.256   2.962   1.761
25634W        W97960  31.425   2.051   0.032
25635W        W97961  37.518   9.334   4.272
25636W        W97962  35.568  18.695  12.926
25637W        W97963   3.983   1.958  12.144
25638W        W97964  31.000  11.112   1.732
25639W        W97965  16.051  42.120   3.197
25640W        W97966  14.673  40.495  12.873
25641W        W97967  34.619  25.152   2.918
25642W        W97968  36.524  43.346   2.644
25643W        W97969  19.732  26.059  11.369
25644W        W97970  33.086  13.715   4.758
25645W        W97971  12.237  42.795  13.350
25646W        W97972  29.918   7.880  11.173
25647W        W97973  32.968  22.673  13.964
25648W        W97974  17.625  12.210   1.437
25649W        W97975  19.205  19.712  12.880
25650W        W97976  42.509  37.197   3.325
25651W        W97977  11.244   5.280   3.752
25652W        W97978   9.886  12.289  10.610
25653W        W97979  33.531  44.330   2.366
25654W        W97980  40.552  29.511   3.744
25655W        W97981  30.027  43.236   1.771
25656W        W97982  17.050  13.316   0.727
25657W        W97983  24.421  19.656   1.619
25658W        W97984  13.690   8.507   5.059
25659W        W97985  12.605  20.942   0.897
25660W        W97986   8.293   9.733   0.307
25661W        W97987  13.320  39.770  11.177
25662W        W97988  16.521  43.308  10.669
25663W        W97989  18.647  24.703  13.292
25664W        W97990  37.034  39.744  12.398
25665W        W97991  11.687  43.702   4.542
25666W        W97992  16.540  33.273  11.161
25667W        W97993  29.552  10.340   2.165
25668W        W97994  43.902  31.471   1.304
25669W        W97995  20.495  12.782  13.358
25670W        W97996  38.141  34.658   2.661
25671W        W97997  24.182  18.258   3.904
25672W        W97998  29.904   6.372  14.845
25673W        W97999  37.391  41.805  11.638
25674W        W98000  29.444   5.361  13.795
25675W        W98001  16.896  37.638  10.885
25676W        W98002  13.312  18.154  13.838
25677W        W98003  33.856  12.318  12.064
25678W        W98004  18.854  44.378  12.049
25679W        W98005  32.476  41.198  12.763
25680W        W98006  26.000  34.602   2.140
25681W        W98007  42.984  40.496  10.671
25682W        W98008  15.313   7.797  11.091
25683W        W98009  20.084  30.927   3.592
25684W        W98010  14.064  28.059  11.101
25685W        W98011  34.326  15.162   0.326
25686W        W98012   8.074   3.929   4.815
25687W        W98013  32.045   4.856   1.255
25688W        W98014  17.261  10.957   4.648
25689W        W98015  21.478  23.180  14.915
25690W        W98016  22.741  22.156   3.871
25691W        W98017  27.325  18.825  10.739
25692W        W98018  15.027  29.447  11.266
25693W        W98019  42.756   7.486  11.946
25694W        W98020  30.049  16.238   4.592
25695W        W98021  30.582  11.149  10.549
25696W        W98022  44.817   6.164   4.880
25697W        W98023  26.339  33.572   5.013
25698W        W98024   9.631  13.625  14.438
25699W        W98025  39.479  20.575  12.862
25700W        W98026   7.709   2.783  14.819
25701W        W98027   0.326  27.208  14.765
25702W        W98028   3.749  10.672  12.939
25703W        W98029  12.806  35.987  12.929
25704W        W98030  39.575  32.009   1.456
25705W        W98031   4.861  10.580  13.805
25706W        W98032  15.380  17.233   0.796
25707W        W98033  14.193  30.644   1.672
25708W        W98034  37.320  21.522   1.505
25709W        W98035   2.162  43.218   4.042
25710W        W98036   5.615  16.095  11.019
25711W        W98037  42.990  20.167   2.298
25712W        W98038  15.373  40.558   3.778
25713W        W98039  40.194  15.141   2.729
25714W        W98040  13.342   1.271  13.365
25715W        W98041  44.341  11.612  12.837
25716W        W98042   1.975  39.409  12.214
25717W        W98043   5.659  12.794  14.748
25718W        W98044  44.054  40.481  11.542
25719W        W98045  13.830  18.631  12.355
25720W        W98046  40.190  43.355  11.393
25721W        W98047  40.902  15.384  11.082
25722W        W98048   1.448   1.038   3.127
25723W        W98049  33.057  36.925   1.503
25724W        W98050  42.640  14.034   0.324
25725W        W98051   1.828   8.184  14.221
25726W        W98052   4.465  22.625   5.672
25727W        W98053   6.329  12.715   2.186
25728W        W98054  35.599  11.108   2.256
25729W        W98055  42.009   0.518  10.717
25730W        W98056  29.642  25.629   0.761
25731W        W98057   4.888   3.387   2.126
25732W        W98058  40.922  30.984   2.516
25733W        W98059  11.794  11.125   2.543
25734W        W98060  14.237   3.374  13.358
25735W        W98061  33.692  17.178   0.642
25736W        W98062   5.999   7.404   2.945
25737W        W98063   1.947  33.713  12.150
25738W        W98064  30.871  20.645  12.021
25739W        W98065   8.775  28.085  13.885
25740W        W98066  44.540   2.684   1.711
25741W        W98067  43.240  13.580  13.078
25742W        W98068  40.455  34.939  10.322
25743W        W98069  38.749  36.508  11.415
25744W        W98070   7.026  33.331  14.990
25745W        W98071   6.866  31.105  12.106
25746W        W98072  26.536  39.835  13.674
25747W        W98073  24.441  41.454   0.879
25748W        W98074  24.198   3.736  13.847
25749W        W98075   8.311  10.626   3.675
25750W        W98076  36.046   3.223   0.986
25751W        W98077  26.833  14.603  12.083
25752W        W98078  19.512   8.278   3.200
25753W        W98079  39.429  22.067   4.118
25754W        W98080  44.248  39.868  13.645
25755W        W98081  39.107  27.787   4.572
25756W        W98082   8.326   1.508   1.846
25757W        W98083  23.058  11.444  12.926
25758W        W98084   7.273  39.852   2.856
25759W        W98085  16.310  36.293   0.853
25760W        W98086   3.874  15.158   1.464
25761W        W98087  18.407  40.118  12.662
25762W        W98088  43.936   0.421   2.650
25763W        W98089  44.458  31.660   0.775
25764W        W98090   9.849  36.600  11.861
25765W        W98091   3.329  10.131   4.165
25766W        W98092  27.464  17.378   3.351
25767W        W98093  14.317   5.679   2.311
25768W        W98094  31.602  40.376  12.358
25769W        W98095  26.455  29.731  11.251
25770W        W98096  19.114  19.452  14.020
25771W        W98097  19.696   3.344  12.980
25772W        W98098  31.038  44.847   2.650
25773W        W98099  23.963  31.390   3.672
25774W        W98100  23.029  19.615  11.999
25775W        W98101  29.593  42.147   4.557
25776W        W98102  44.851   6.295   4.388
25777W        W98103  11.326  14.568   3.378
25778W        W98104  10.304  26.923  13.392
25779W        W98105  15.618   7.288  12.022
25780W        W98106   8.321  41.809   3.135
25781W        W98107  43.977  16.819   4.182
25782W        W98108  26.917  24.144   3.736
25783W        W98109   7.396  43.396   1.160
25784W        W98110  29.815  17.690   0.568
25785W        W98111   8.414  14.667  12.292
25786W        W98112  19.151  42.635  12.812
25787W        W98113  43.722  41.561   4.438
25788W        W98114  25.611  19.174  12.758
25789W        W98115  26.475  19.622  14.981
25790W        W98116  20.559  16.355  10.460
25791W        W98117   8.268  26.461   2.736
25792W        W98118  19.070  20.748   4.140
25793W        W98119  27.015  40.765   0.729
25794W        W98120  15.787  44.726  13.925
25795W        W98121  24.527  36.366   0.468
25796W        W98122   1.987  34.034   0.883
25797W        W98123  17.560  43.805  13.326
25798W        W98124  44.094  12.956   1.857
25799W        W98125  30.176  33.871   0.917
25800W        W98126   3.155  31.834  13.933
25801W        W98127  18.203   6.879   4.708
25802W        W98128  11.295  42.839  13.322
25803W        W98129  10.205  30.121   0.867
25804W        W98130  14.881  29.488   4.320
25805W        W98131   6.404  38.593   1.836
25806W        W98132   3.178  37.911  10.422
25807W        W98133   2.401  20.695  14.807
25808W        W98134  18.499   4.956   0.442
25809W        W98135  13.905  26.189   2.998
25810W        W98136  21.024  29.076   1.600
25811W        W98137  14.854   3.671   3.183
25812W        W98138  24.636  44.177   2.165
25813W        W98139  24.786   5.319  13.547
25814W        W98140  25.596   9.640   1.268
25815W        W98141  33.125  28.192  12.095
25816W        W98142  15.256  41.918  14.840
25817W        W98143  13.355  42.885  11.153
25818W        W98144   0.782  24.570   0.559
25819W        W98145  25.483  41.610  14.315
25820W        W98146  23.304  29.589  12.190
25821W        W98147  24.946  31.085  11.957
25822W        W98148   9.142  12.183   3.257
25823W        W98149  40.521  36.591  12.014
25824W        W98150  33.828   6.187  11.937
25825W        W98151   3.867  26.269  11.592
25826W        W98152  14.168  32.637  10.940
25827W        W98153  36.988   3.033   5.046
25828W        W98154  19.040  18.629   2.631
25829W        W98155  25.693  40.501   2.932
25830W        W98156  40.325  34.555  10.653
25831W        W98157   2.362  16.446   0.961
25832W        W98158  23.775  26.281   4.836
25833W        W98159  29.167  16.105   4.514
25834W        W98160   7.643  39.874   1.249
25835W        W98161   3.411  30.671   3.607
25836W        W98162   6.957  24.849   3.615
25837W        W98163  32.409  18.271  12.033
25838W        W98164  40.324  19.258  14.390
25839W        W98165   4.308  44.620  11.165
25840W        W98166  18.566   4.561   4.980
25841W        W98167  16.209   2.386   1.696
25842W        W98168   3.829   2.383   2.209
25843W        W98169  19.079  33.538  11.353
25844W        W98170   7.714  38.940  12.100
25845W        W98171  30.509   9.862   4.578
25846W        W98172  12.443   5.443  14.843
25847W        W98173   2.437  19.788   3.277
25848W        W98174  28.990  16.660  14.036
25849W        W98175   4.871   0.162  12.413
25850W        W98176  42.334  24.635   4.354
25851W        W98177  40.436  20.635  14.890
25852W        W98178  29.908   6.958  11.185
25853W        W98179  16.247  15.853  14.478
25854W        W98180  43.904  30.428   0.697
25855W        W98181  29.860  41.180   4.280
25856W        W98182  42.909   5.805   4.909
25857W        W98183  17.119   4.484  13.362
25858W        W98184  33.885  19.642  11.406
25859W        W98185  27.268  13.616  11.135
25860W        W98186  31.863  12.399  14.239
25861W        W98187  24.275  25.605  11.216
25862W        W98188   5.116  20.086  11.724
25863W        W98189  14.333  33.934  10.114
25864W        W98190  42.433  29.190  11.526
25865W        W98191  31.460  40.871  12.499
25866W        W98192  28.072  17.576  14.342
25867W        W98193  35.093  41.858   0.319
25868W        W98194   9.498  10.670  13.403
25869W        W98195  29.029   3.230   0.133
25870W        W98196  15.340  20.097  11.376
25871W        W98197  35.167  44.160  14.345
25872W        W98198   0.589  17.651  14.872
25873W        W98199  26.000  33.357  14.808
25874W        W98200  24.043  29.506   4.123
25875W        W98201   7.237  41.955  11.971
25876W        W98202  24.206  20.691   0.260
25877W        W98203  13.718   0.783   2.868
25878W        W98204  17.323  29.070  10.175
25879W        W98205  15.546  17.746  12.805
25880W        W98206   2.167  17.294   4.034
25881W        W98207   3.730   1.028   2.344
25882W        W98208  42.986   1.885  12.077
25883W        W98209   0.935  37.901  13.327
25884W        W98210  28.036  39.819   3.819
25885W        W98211  26.921  25.630  12.994
25886W        W98212  29.044  12.563  12.529
25887W        W98213  27.834  22.538  12.528
25888W        W98214  20.083  19.860  13.419
25889W        W98215  10.847   6.870  12.007
25890W        W98216   5.824  14.806  12.043
25891W        W98217   0.748  23.076   3.830
25892W        W98218   9.715  41.596  10.978
25893W        W98219   9.411  10.593   4.720
25894W        W98220  28.044  39.474   0.446
25895W        W98221   4.943  32.524  13.914
25896W        W98222   1.001  37.956  14.264
25897W        W98223  31.977  43.139   0.707
25898W        W98224  17.543   5.184   4.526
25899W        W98225  44.744  29.974  12.619
25900W        W98226  36.457  11.862  10.784
25901W        W98227   1.949  31.040  10.630
25902W        W98228  35.002   0.752   2.617
25903W        W98229  22.161  16.778   5.175
25904W        W98230  30.243  13.975   2.235
25905W        W98231  36.832   4.847  12.043
25906W        W98232  31.341  16.674   4.038
25907W        W98233  28.445  33.072   1.009
25908W        W98234   1.918   1.006   1.431
25909W        W98235  16.255  17.442  11.669
25910W        W98236   3.105   9.706  11.116
25911W        W98237  27.437  21.703  14.572
25912W        W98238  42.818  29.082   2.330
25913W        W98239   0.707   3.042  11.486
25914W        W98240  41.803  18.258   2.498
25915W        W98241   5.435  16.259   3.158
25916W        W98242  36.162  18.296   3.644
25917W        W98243  15.207  12.773   3.872
25918W        W98244  14.640  25.396  12.524
25919W        W98245  17.842  41.239  11.197
25920W        W98246  44.285  18.358  13.499
25921W        W98247  35.943  33.475   2.918
25922W        W98248  26.128  37.417   3.306
25923W        W98249  27.662  28.610   4.631
25924W        W98250  29.908  40.881  14.841
25925W        W98251  20.372  37.288   3.499
25926W        W98252  43.377   1.606  14.889
25927W        W98253  24.982  13.337   1.429
25928W        W98254  41.878  14.057  14.959
25929W        W98255   7.453  24.506   0.014
25930W        W98256  29.690  11.393   1.911
25931W        W98257   4.901  43.363   1.312
25932W        W98258  24.720   7.363  11.198
25933W        W98259  30.916  14.511   1.917
25934W        W98260  12.235  34.699   0.004
25935W        W98261   2.670  12.061   2.746
25936W        W98262  31.123  43.730   4.125
25937W        W98263  39.587  23.951  13.507
25938W        W98264  18.537  31.036   1.485
25939W        W98265  40.413  43.252   0.274
25940W        W98266  23.629  27.069  11.196
25941W        W98267  28.967  34.554  11.602
25942W        W98268  17.354  39.430  14.985
25943W        W98269  34.302  29.559  11.517
25944W        W98270  25.060  11.182  13.332
25945W        W98271  23.454   4.426   2.637
25946W        W98272  43.832  17.074  10.568
25947W        W98273  34.310  17.530  11.565
25948W        W98274  29.870  39.890   4.113
25949W        W98275  24.664  18.987  11.054
25950W        W98276  11.834   9.748   3.289
25951W        W98277   0.744  20.615  13.369
25952W        W98278   2.904  30.131   3.621
25953W        W98279  43.420  25.685   0.944
25954W        W98280  30.363   4.503   0.232
25955W        W98281  34.443  23.694  11.537
25956W        W98282  19.692  40.611   1.510
25957W        W98283  27.354  26.471  11.529
25958W        W98284  32.077   3.883  12.937
25959W        W98285  20.251  34.338   0.489
25960W        W98286  36.553  36.144   4.253
25961W        W98287  18.019  13.834   4.203
25962W        W98288  11.909  11.567   4.178
25963W        W98289  32.610  27.491  13.543
25964W        W98290  29.645   8.202   2.798
25965W        W98291  41.808   0.551   2.785
25966W        W98292  28.542  41.327  10.743
25967W        W98293  39.301  19.063  12.852
25968W        W98294  42.926  38.925   3.219
25969W        W98295  11.600   6.808   4.429
25970W        W98296  19.060   8.886  11.173
25971W        W98297  39.387  39.073   2.337
25972W        W98298  27.744  36.005   3.176
25973W        W98299  30.007  40.378  14.700
25974W        W98300  41.339   5.304  13.381
25975W        W98301  20.776  44.771   4.017
25976W        W98302  41.844  38.341  13.346
25977W        W98303  35.822  37.317   2.390
25978W        W98304   5.197  12.401  12.557
25979W        W98305  34.104  13.195   1.392
25980W        W98306  26.071  40.145   2.728
25981W        W98307  32.046  32.692   1.187
25982W        W98308  25.903  32.590  13.238
25983W        W98309  10.701  25.723  13.579
25984W        W98310  38.872   4.311   3.757
25985W        W98311  20.096  15.483   4.553
25986W        W98312   0.816  13.887   2.261
25987W        W98313  37.162  33.459  13.830
25988W        W98314  35.433   9.633   0.410
25989W        W98315  36.121  32.423   4.163
25990W        W98316  27.641  31.129   4.749
25991W        W98317  13.149   8.884   2.376
25992W        W98318  20.195  14.826   3.764
25993W        W98319   3.019   3.765   2.260
25994W        W98320  29.172  10.831  12.488
25995W        W98321  15.396  23.656   2.355
25996W        W98322  36.531  42.507  14.529
25997W        W98323  43.456  38.114   3.237
25998W        W98324  12.622  37.542   1.637
25999W        W98325  30.139   5.952   2.723
26000W        W98326  43.316  32.655   3.695
26001W        W98327  39.697  36.242   1.162
26002W        W98328   5.963  18.149   2.856
26003W        W98329  39.498   0.875  10.706
26004W        W98330   8.964  37.446   3.398
26005W        W98331   6.322  25.738   0.432
26006W        W98332  18.793  36.027  14.942
26007W        W98333   4.610  18.431   1.379
26008W        W98334  40.367  35.116  11.360
26009W        W98335  39.050   4.716  13.371
26010W        W98336  18.533  29.037  14.011
26011W        W98337  10.419   2.839   0.908
26012W        W98338  17.108   8.279   2.254
26013W        W98339  33.646   4.207   4.149
26014W        W98340  34.954  33.337  12.862
26015W        W98341  29.364   1.769   1.206
26016W        W98342   9.333   9.088  14.962
26017W        W98343  28.511   8.753  11.166
26018W        W98344  18.682  38.153  12.478
26019W        W98345  18.805  44.038  10.970
26020W        W98346  41.255  18.174   0.705
26021W        W98347  14.861  36.310   4.191
26022W        W98348  10.656  25.541   3.458
26023W        W98349   6.799  33.904  13.602
26024W        W98350  42.592  16.199  13.534
26025W        W98351  41.787  20.669  12.594
26026W        W98352  33.491  25.660   2.172
26027W        W98353  43.456  27.408  12.113
26028W        W98354  29.012  33.942  14.757
26029W        W98355  39.613  18.700  12.396
26030W        W98356   3.301  40.321   0.167
26031W        W98357  42.875  33.482  14.379
26032W        W98358  40.287  39.974  14.105
26033W        W98359  25.032  39.939  13.536
26034W        W98360  40.080  14.542  14.769
26035W        W98361  31.965  36.145   1.747
26036W        W98362  30.684  14.771   2.331
26037W        W98363  31.127  24.014   1.996
26038W        W98364  44.680   3.069  11.557
26039W        W98365  39.233   9.903  11.713
26040W        W98366  13.833  40.534   0.911
26041W        W98367   7.069  11.265   0.376
26042W        W98368  42.511  40.228  14.965
26043W        W98369  35.050  25.964   1.474
26044W        W98370   3.638  39.894   1.584
26045W        W98371  44.034   1.469   1.315
26046W        W98372  43.217   1.002  14.287
26047W        W98373  40.551  38.945   2.337
26048W        W98374  26.144  26.832  11.013
26049W        W98375  16.254  27.000  12.882
26050W        W98376  22.886  34.439   1.403
26051W        W98377  36.330  20.652  11.458
26052W        W98378  30.926  29.540   0.259
26053W        W98379  24.934  25.419  11.940
26054W        W98380  19.544  44.785   2.502
26055W        W98381   3.308  23.488   3.665
26056W        W98382  29.605   8.861  12.150
26057W        W98383  23.646  22.023   2.927
26058W        W98384   8.556  35.817   2.870
26059W        W98385  13.343  24.985  12.927
26060W        W98386  28.215  36.067   9.863
26061W        W98387  31.216  33.757   2.998
26062W        W98388  27.722   3.117   4.803
26063W        W98389  20.709  25.199   0.390
26064W        W98390   3.272  12.796   4.594
26065W        W98391  12.532  39.300   0.434
26066W        W98392   6.224  15.694  12.362
26067W        W98393  16.997  41.604  11.290
26068W        W98394  31.102  25.984   2.416
26069W        W98395  25.508  18.048   2.749
26070W        W98396  14.303   5.522   1.008
26071W        W98397  13.435  33.396   5.596
26072W        W98398  42.940  10.199  10.600
26073W        W98399  16.698  33.024  14.716
26074W        W98400   1.384  29.632   2.372
26075W        W98401  24.959   7.936  12.918
26076W        W98402   8.588  40.155  14.756
26077W        W98403  42.523  13.636   3.642
26078W        W98404  24.255  21.108  14.943
26079W        W98405  17.029  14.683   0.362
26080W        W98406  24.665  33.913  11.997
26081W        W98407  10.464  26.434   1.287
26082W        W98408  25.675  39.443  14.959
26083W        W98409  25.972  34.871   3.771
26084W        W98410  37.080   3.887   1.278
26085W        W98411  16.557  39.274  12.106
26086W        W98412   2.566  11.029  10.765
26087W        W98413  25.470  16.433   2.153
26088W        W98414  40.174  32.529  14.933
26089W        W98415   4.675  19.516  11.877
26090W        W98416   5.793  17.178  12.931
26091W        W98417   2.171  23.061  13.303
26092W        W98418  32.503   5.826   9.664
26093W        W98419   3.518  42.986   4.276
26094W        W98420  30.954   9.249  13.866
26095W        W98421  37.448  12.718  13.480
26096W        W98422  27.521  10.286  12.514
26097W        W98423   9.699  23.096   3.552
26098W        W98424   4.811   8.191   2.360
26099W        W98425   9.928   1.477  14.273
26100W        W98426   2.481  39.369   0.850
26101W        W98427   4.358  37.401   1.366
26102W        W98428  23.283  43.281   4.231
26103W        W98429  25.466  21.414   2.579
26104W        W98430  31.481  34.042   2.171
26105W        W98431  29.467  12.263  12.386
26106W        W98432  26.820  10.440   3.601
26107W        W98433  23.596  19.767   3.159
26108W        W98434   5.973   9.819  14.015
26109W        W98435  27.504  23.881  12.425
26110W        W98436   6.427  44.790  12.103
26111W        W98437  11.217  42.335   2.298
26112W        W98438  42.943  30.806   4.518
26113W        W98439  31.719  43.974   2.202
26114W        W98440  26.645  31.932  14.631
26115W        W98441  21.500  37.550  14.727
26116W        W98442  19.472  41.915  13.385
26117W        W98443  27.614  10.658   3.430
26118W        W98444   2.805  18.221  12.968
26119W        W98445  35.443  29.056  11.371
26120W        W98446   9.814   7.358  14.294
26121W        W98447   2.173  32.455  10.480
26122W        W98448  20.795  37.048  12.080
26123W        W98449  15.421   6.799  11.945
26124W        W98450  27.937  44.238   2.144
26125W        W98451  20.022  44.439  13.037
26126W        W98452  29.655  36.546  12.473
26127W        W98453  33.497   6.300   1.340
26128W        W98454  10.798   0.247   1.955
26129W        W98455  34.079  17.687   1.843
26130W        W98456  42.400  38.659   4.254
26131W        W98457  40.584   8.273  13.765
26132W        W98458  17.270  21.516   0.952
26133W        W98459  20.452  37.854   1.010
26134W        W98460  42.208  23.941   0.799
26135W        W98461  21.147  15.519   2.095
26136W        W98462   4.507  23.590  11.957
26137W        W98463  30.331  14.180  11.621
26138W        W98464  17.554   6.696  14.962
26139W        W98465   1.269   7.822   2.738
26140W        W98466  28.232  34.311  12.115
26141W        W98467  17.252  32.097   4.240
26142W        W98468   8.800   4.698  12.495
26143W        W98469   0.546  23.463  12.375
26144W        W98470  28.684  35.123   0.284
26145W        W98471   5.401  44.097   0.224
26146W        W98472  30.899  10.225   9.930
26147W        W98473  11.165  17.344   1.849
26148W        W98474   9.414  36.058   0.765
26149W        W98475  42.084   1.259   0.431
26150W        W98476  24.034  43.815  11.673
26151W        W98477   5.269  18.124   3.424
26152W        W98478  36.654   9.511   1.187
26153W        W98479  30.683  22.094   4.746
26154W        W98480  33.460  31.679   2.691
26155W        W98481  32.200   6.883  14.958
26156W        W98482   0.281  42.396   2.207
26157W        W98483  10.769  32.689   0.341
26158W        W98484  18.622  10.660   3.581
26159W        W98485  19.626   7.940   0.947
26160W        W98486  35.107  37.208   3.304
26161W        W98487  37.086  18.025  14.831
26162W        W98488  20.750   5.079  10.680
26163W        W98489  43.179  24.216  14.947
26164W        W98490  44.914   1.416   0.487
26165W        W98491   0.417  10.643   2.888
26166W        W98492  20.090   3.861  12.363
26167W        W98493  11.855   6.741  14.993
26168W        W98494  42.619   5.830   0.469
26169W        W98495  20.238  11.606   0.280
26170W        W98496   1.917  24.144   9.794
26171W        W98497  35.984  41.399  11.952
26172W        W98498  18.753  23.499  14.363
26173W        W98499  17.538   3.157   2.879
26174W        W98500   1.804  31.684  13.070
26175W        W98501  15.038  11.178  13.397
26176W        W98502  31.667  21.319   2.199
26177W        W98503  42.068   8.130   0.301
26178W        W98504   3.523  19.093  14.345
26179W        W98505  16.040   0.015  14.456
26180W        W98506  35.793   5.233   3.653
26181W        W98507  13.839  24.752  14.494
26182W        W98508  36.242  44.633  12.944
26183W        W98509  29.143  27.932   5.580
26184W        W98510  23.568  18.126  12.419
26185W        W98511  39.574  17.285  10.457
26186W        W98512   4.884  32.905   4.667
26187W        W98513  23.749  36.808  14.923
26188W        W98514  16.665  43.000   1.929
26189W        W98515   7.740  19.704   2.786
26190W        W98516  19.524  26.589   3.243
26191W        W98517   5.623  28.033  10.794
26192W        W98518  23.515  11.709  10.483
26193W        W98519   5.308  22.179  11.648
26194W        W98520  11.868  34.405  14.753
26195W        W98521  30.842  33.453   2.746
26196W        W98522  32.136  33.866  13.099
26197W        W98523  25.759   5.280  10.531
26198W        W98524  41.629  41.257  13.343
26199W        W98525  17.979  42.178  13.078
26200W        W98526  11.911  15.783   0.327
26201W        W98527   5.799   4.446   0.051
26202W        W98528  29.447  26.931  11.996
26203W        W98529  28.635  26.594   0.039
26204W        W98530  18.033  35.029   1.503
26205W        W98531  26.487   6.783  13.655
26206W        W98532  14.622  39.473   0.267
26207W        W98533  38.397  40.594  12.573
26208W        W98534  28.361  43.301   3.847
26209W        W98535  33.844  19.612  14.028
26210W        W98536  21.346  43.690  13.927
26211W        W98537  21.165  43.939   4.182
26212W        W98538  14.683  22.942   3.686
26213W        W98539  44.128  34.830   4.197
26214W        W98540  19.461  11.675   1.683
26215W        W98541  13.055  23.261   4.070
26216W        W98542  35.662   1.901   1.921
26217W        W98543  40.927  37.299  14.259
26218W        W98544  41.939   6.221  12.064
26219W        W98545   2.691  20.554   2.268
26220W        W98546  28.745  30.933   2.062
26221W        W98547  23.817  12.227   4.114
26222W        W98548  36.068   2.766  12.100
26223W        W98549   3.647  26.251   2.889
26224W        W98550   9.141  41.490  13.609
26225W        W98551  19.109  23.042   0.279
26226W        W98552   2.140  20.717   9.726
26227W        W98553  18.943  36.410  14.453
26228W        W98554   2.737  20.563  12.053
26229W        W98555   6.940  29.603  12.074
26230W        W98556   8.945  35.884   0.653
26231W        W98557  27.109  12.743  13.478
26232W        W98558  20.595  44.990  12.473
26233W        W98559  10.833   9.194   1.382
26234W        W98560  35.060  34.145   3.318
26235W        W98561   6.299  15.138  10.734
26236W        W98562  10.914  28.450   0.912
26237W        W98563   9.695  32.907  11.053
26238W        W98564   7.608  30.384  12.444
26239W        W98565  39.197   9.210   1.346
26240W        W98566  35.290  10.320  13.184
26241W        W98567  16.219  23.261   0.204
26242W        W98568  28.072  34.671   3.887
26243W        W98569  18.244  12.333  12.976
26244W        W98570   4.327   0.941   1.494
26245W        W98571   3.184  17.716  10.995
26246W        W98572  30.956   2.432   3.586
26247W        W98573   6.247  36.592   0.665
26248W        W98574  23.004  38.928  11.571
26249W        W98575  32.481  42.329   0.509
26250W        W98576   0.185  33.011  12.673
26251W        W98577  39.482  16.069  14.379
26252W        W98578  19.279   4.647  12.750
26253W        W98579  17.791  35.500  12.981
26254W        W98580  35.572  27.644   4.062
26255W        W98581  37.505  18.207   3.475
26256W        W98582   9.293  26.069   4.459
26257W        W98583   5.489  15.850   3.953
26258W        W98584  16.240  24.260   0.324
26259W        W98585  41.253   8.440  11.514
26260W        W98586  41.814  13.233   1.722
26261W        W98587  25.354   6.719   3.169
26262W        W98588  19.737  42.565  12.993
26263W        W98589  34.665  30.432   1.682
26264W        W98590  33.211   2.469   1.916
26265W        W98591   2.206  19.109  11.141
26266W        W98592  43.875  39.275  13.893
26267W        W98593  35.538   8.608  12.027
26268W        W98594  36.082  30.904   3.666
26269W        W98595  14.349  28.142   0.490
26270W        W98596  42.333  35.444   2.369
26271W        W98597  37.383  28.842   1.838
26272W        W98598  17.101   2.521   0.716
26273W        W98599   3.134  36.448   3.854
26274W        W98600  38.590  38.660  11.044
26275W        W98601  16.414  38.432  11.119
26276W        W98602  17.097   4.221  12.908
26277W        W98603  30.543  11.961  11.218
26278W        W98604  33.353   1.654  14.821
26279W        W98605  16.832   4.747  11.822
26280W        W98606  36.370   2.323   4.804
26281W        W98607   3.199  12.755   3.789
26282W        W98608  38.337  44.283   0.606
26283W        W98609  14.625   4.758   0.734
26284W        W98610  18.760  14.793   4.131
26285W        W98611  28.259   5.612  10.736
26286W        W98612  37.667  15.222  14.933
26287W        W98613  27.905  21.706  14.334
26288W        W98614  35.348  37.520  14.472
26289W        W98615  14.591  32.932   2.656
26290W        W98616  34.971  24.786  10.712
26291W        W98617   6.637  15.898  14.320
26292W        W98618  19.572   6.812  14.795
26293W        W98619  25.564  23.230  13.546
26294W        W98620   5.024  26.162  13.527
26295W        W98621  17.130   3.946   3.386
26296W        W98622  35.892  37.072  12.941
26297W        W98623  19.210  29.367  13.553
26298W        W98624   4.341  30.594   3.554
26299W        W98625  26.942   7.205  10.685
26300W        W98626  43.039   0.970   2.470
26301W        W98627   4.983   0.690  12.375
26302W        W98628  34.854   8.293   3.636
26303W        W98629  11.055  43.577   4.144
26304W        W98630  37.368  26.422  12.378
26305W        W98631   5.629  31.428   1.225
26306W        W98632   8.677  37.625   0.152
26307W        W98633   4.907  27.615   0.289
26308W        W98634  42.796  33.565  13.343
26309W        W98635  32.450  29.173  13.471
26310W        W98636  36.341   6.906   0.976
26311W        W98637  37.167   5.985   4.823
26312W        W98638   9.315  28.676   2.722
26313W        W98639  16.595  42.115   0.752
26314W        W98640  34.822  31.079   2.796
26315W        W98641  22.222  10.812   3.604
26316W        W98642  37.104   3.944  10.669
26317W        W98643  37.543  18.984  14.804
26318W        W98644  31.123  35.908   0.413
26319W        W98645  22.899  33.533   2.864
26320W        W98646  22.766  42.328   4.097
26321W        W98647  21.236   4.993   1.911
26322W        W98648  40.884  11.456   2.163
26323W        W98649  41.934  19.756   2.933
26324W        W98650  36.379  14.138  11.480
26325W        W98651  38.881  29.175   4.016
26326W        W98652   1.782  29.850  12.372
26327W        W98653  38.864  42.421   1.990
26328W        W98654  11.159  33.551   1.064
26329W        W98655   8.855   3.057  11.600
26330W        W98656  22.185   6.994   1.313
26331W        W98657  37.672  41.762   5.184
26332W        W98658  37.236  33.081   4.531
26333W        W98659  30.948   1.868  14.933
26334W        W98660   6.843  35.043   0.315
26335W        W98661  39.468   9.696   3.556
26336W        W98662  20.205  33.315  12.620
26337W        W98663   6.400  30.929  11.912
26338W        W98664   9.872   0.412  12.491
26339W        W98665  40.956   3.356   2.618
26340W        W98666  26.611   5.857  12.581
26341W        W98667  32.000  39.576  12.488
26342W        W98668  34.086  44.378   4.370
26343W        W98669  28.072  20.967   4.744
26344W        W98670  21.034   2.728  11.110
26345W        W98671   5.655  19.622  11.030
26346W        W98672  10.595   2.138  14.863
26347W        W98673   9.391  31.439   0.810
26348W        W98674  35.754  42.649   2.823
26349W        W98675  15.644  21.895   2.873
26350W        W98676  17.637  15.099  10.459
26351W        W98677   2.353  30.528  11.115
26352W        W98678  16.182  39.730  14.296
26353W        W98679   6.265  21.068  13.619
26354W        W98680  22.970  32.650  13.374
26355W        W98681   1.743  29.136  12.154
26356W        W98682  36.979  36.742   1.309
26357W        W98683  37.937   8.294   1.200
26358W        W98684  28.516  41.383  11.623
26359W        W98685   8.449  44.233  14.866
26360W        W98686  21.250  11.242  10.228
26361W        W98687  38.958  15.117   0.254
26362W        W98688   6.136   5.642  13.591
26363W        W98689  12.872  10.482   1.227
26364W        W98690  26.189   4.238  12.959
26365W        W98691  18.437  11.389  14.846
26366W        W98692   9.789   6.379  14.368
26367W        W98693  14.902  29.025   1.601
26368W        W98694  13.634  28.668   3.693
26369W        W98695  12.209  29.893  12.923
26370W        W98696   8.747  14.623  13.275
26371W        W98697  41.959  32.128   1.612
26372W        W98698  19.106  22.464  14.418
26373W        W98699  27.259  44.501  13.860
26374W        W98700  39.963  10.083  11.580
26375W        W98701  11.751  27.254  10.069
26376W        W98702  22.510   6.497   1.777
26377W        W98703  28.196   4.329  14.289
26378W        W98704  39.349  18.307   3.827
26379W        W98705   0.416  29.893   0.443
26380W        W98706  28.801  18.192  12.819
26381W        W98707  18.566  16.083   1.634
26382W        W98708  30.184  41.947   1.275
26383W        W98709  10.831  30.587  14.783
26384W        W98710   6.780  23.525   1.425
26385W        W98711  33.868   5.028  13.850
26386W        W98712  31.053   1.763  11.612
26387W        W98713  19.888  31.515   3.513
26388W        W98714   3.099  26.602   0.442
26389W        W98715  21.573  36.444   0.274
26390W        W98716  27.668  17.885  11.179
26391W        W98717  35.458   7.267  14.756
26392W        W98718   1.042   9.444   1.251
26393W        W98719  30.651  12.337   2.816
26394W        W98720   6.099  32.358  12.146
26395W        W98721  15.218   1.413   4.572
26396W        W98722  33.911   5.473   1.361
26397W        W98723  17.444  20.515  11.991
26398W        W98724  17.127  38.809  14.187
26399W        W98725  14.015   7.788   3.371
26400W        W98726  21.104  21.060   1.192
26401W        W98727  43.111  23.268  13.473
26402W        W98728  13.800   4.759   0.997
26403W        W98729   1.285   2.026   9.812
26404W        W98730   5.868   7.088  11.556
26405W        W98731  16.153  11.252  13.038
26406W        W98732   5.660  13.143  13.579
26407W        W98733  11.432  10.788   4.215
26408W        W98734  14.994  30.214   4.142
26409W        W98735  34.882  20.995   0.836
26410W        W98736  10.561  40.467  12.941
26411W        W98737   4.652  22.268  13.871
26412W        W98738  24.670  15.572   4.346
26413W        W98739  18.650   9.428  13.938
26414W        W98740  18.659  42.859  12.048
26415W        W98741   7.324   1.469   2.827
26416W        W98742  30.412  17.156   3.067
26417W        W98743  10.641  41.360  11.396
26418W        W98744  11.782   2.920  14.016
26419W        W98745  21.001  41.629   4.521
26420W        W98746  21.640  19.324  10.770
26421W        W98747  26.584  32.360   3.316
26422W        W98748  42.372  35.734   3.620
26423W        W98749   3.336  39.389   1.711
26424W        W98750   2.439   9.774  10.557
26425W        W98751  40.360  27.610   3.807
26426W        W98752  27.687  10.890  13.010
26427W        W98753  28.087  31.219   5.056
26428W        W98754  31.577  12.769   2.704
26429W        W98755  30.702  42.586   2.372
26430W        W98756  25.981  16.283  12.602
26431W        W98757   3.165  18.158  14.414
26432W        W98758  34.508   4.354   3.284
26433W        W98759  11.687  32.477   3.420
26434W        W98760   1.623  32.263  10.157
26435W        W98761  24.299   4.003  12.951
26436W        W98762  36.066   7.167  14.493
26437W        W98763  19.007  35.427   4.206
26438W        W98764  44.898  10.703   1.836
26439W        W98765  42.422   8.604  14.539
26440W        W98766  14.288  37.392   0.019
26441W        W98767   5.618  20.309  14.458
26442W        W98768  33.011  14.751   4.736
26443W        W98769  16.143  32.175   2.385
26444W        W98770  26.444  24.187   1.858
26445W        W98771  26.037   5.249   3.646
26446W        W98772  43.446   5.294  12.136
26447W        W98773  29.379   7.588   4.132
26448W        W98774  12.963  10.567   0.116
26449W        W98775  13.085  43.327   2.426
26450W        W98776   7.713   5.399  12.040
26451W        W98777  15.235  11.645  13.378
26452W        W98778   6.287  28.950  12.084
26453W        W98779   1.921  44.855   3.289
26454W        W98780  17.327  34.883  10.970
26455W        W98781  39.597  26.639  13.996
26456W        W98782  24.244  21.735  11.548
26457W        W98783  20.933  19.295  13.693
26458W        W98784   0.820  17.766  14.384
26459W        W98785   5.129  37.506   3.737
26460W        W98786  38.361   2.490   3.714
26461W        W98787  38.011   6.184  12.095
26462W        W98788  21.707  13.295  11.300
26463W        W98789   2.484  31.894   2.907
26464W        W98790  43.089   2.906   2.400
26465W        W98791  14.647   4.382  14.450
26466W        W98792  19.616  27.877   3.678
26467W        W98793  23.750   4.977  12.752
26468W        W98794   5.902  37.632   9.880
26469W        W98795  14.317  22.682  13.916
26470W        W98796  10.856  35.512  14.827
26471W        W98797  25.063  35.650  11.124
26472W        W98798  31.420   4.240   3.705
26473W        W98799  24.195   6.674   2.385
26474W        W98800  19.041  10.866   0.487
26475W        W98801  21.672  21.968  11.138
26476W        W98802  41.828  39.703   4.547
26477W        W98803   9.395   5.843   4.065
26478W        W98804  43.431  27.673   4.531
26479W        W98805  11.373  21.850   0.990
26480W        W98806   4.623  29.480   2.666
26481W        W98807   8.472  28.273  11.421
26482W        W98808  28.517  42.761  14.903
26483W        W98809   1.879  27.190  12.934
26484W        W98810  14.251  37.513  12.680
26485W        W98811   7.054  22.928  11.127
26486W        W98812  33.021   1.267   4.679
26487W        W98813  34.051  34.632  10.573
26488W        W98814   3.257  16.741  12.100
26489W        W98815  25.597   9.319   2.164
26490W        W98816  31.938  13.560  13.369
26491W        W98817  22.458  18.359  10.992
26492W        W98818  17.330  19.690   1.859
26493W        W98819   3.874  16.699   3.651
26494W        W98820  34.307  18.163   1.884
26495W        W98821  23.038  35.402  11.982
26496W        W98822  32.811  20.596  13.240
26497W        W98823   3.160  38.579  14.398
26498W        W98824  40.006   2.341   1.428
26499W        W98825  41.873  41.591   0.766
26500W        W98826  34.560   7.854   3.421
26501W        W98827  26.152  10.385  13.544
26502W        W98828  23.382  16.254   2.293
26503W        W98829  40.669  41.764   0.306
26504W        W98830   1.304  28.869  12.935
26505W        W98831  36.338  42.772   1.361
26506W        W98832  43.414  25.587   4.859
26507W        W98833  32.660  14.904   1.313
26508W        W98834  20.975  22.264  12.094
26509W        W98835   9.242  11.602   4.576
26510W        W98836  21.775  39.786   1.854
26511W        W98837  10.229   9.953   1.334
26512W        W98838   6.601   7.138  13.555
26513W        W98839  33.474  33.629   0.693
26514W        W98840   9.826   2.913   2.733
26515W        W98841   3.950   6.526   4.728
26516W        W98842  40.484  28.170   0.030
26517W        W98843  37.903  12.660  11.136
26518W        W98844  22.984   3.442  11.641
26519W        W98845  39.340  41.429  14.197
26520W        W98846  25.266  10.680  11.493
26521W        W98847   9.178  10.645  12.097
26522W        W98848   2.867  28.857   0.221
26523W        W98849  11.328  18.071   2.368
26524W        W98850   7.363  43.208  14.442
26525W        W98851   4.728  26.561  10.720
26526W        W98852  13.363  16.587  12.021
26527W        W98853   8.511  14.629  11.423
26528W        W98854  38.603  39.108   3.358
26529W        W98855  28.121  28.880   5.521
26530W        W98856  21.111  35.834   1.305
26531W        W98857  14.183  44.837   2.427
26532W        W98858  17.068  12.959   2.141
26533W        W98859  14.280   3.313  14.786
26534W        W98860  24.093  25.984  13.603
26535W        W98861   0.073  38.864   3.737
26536W        W98862  16.888   0.914   2.792
26537W        W98863  35.614  33.410  13.963
26538W        W98864  14.534  13.751   3.913
26539W        W98865  24.545   2.744  11.157
26540W        W98866  39.484  21.101   0.805
26541W        W98867  16.607   1.401   1.876
26542W        W98868  37.365  24.148  11.158
26543W        W98869  24.175  25.245   1.292
26544W        W98870  34.908  30.563  13.227
26545W        W98871  24.212   5.858  10.903
26546W        W98872  32.981  44.559   1.701
26547W        W98873  38.793  38.799   1.634
26548W        W98874  37.245  35.596  14.389
26549W        W98875   3.785  43.005  11.473
26550W        W98876  13.808  31.983   1.835
26551W        W98877  26.802  29.356  11.574
26552W        W98878  43.076  41.545   1.329
26553W        W98879  11.799   1.383  11.508
26554W        W98880  27.145   6.316   0.760
26555W        W98881  31.903  11.039   2.301
26556W        W98882  33.363  42.329   0.289
26557W        W98883  39.571  28.054   4.577
26558W        W98884  24.204  35.345   0.107
26559W        W98885  42.484  11.876  12.081
26560W        W98886  44.865  24.739  13.312
26561W        W98887  10.743  44.287  11.211
26562W        W98888  15.467  18.081  14.313
26563W        W98889  33.044  34.012   0.043
26564W        W98890  23.436   3.268  12.487
26565W        W98891  28.006   6.755   0.356
26566W        W98892  39.285  10.123  12.476
26567W        W98893   9.943  25.527   1.848
26568W        W98894  33.363  28.822  14.256
26569W        W98895  31.228  14.265   2.321
26570W        W98896  22.246  36.667   3.585
26571W        W98897  26.601  12.507  13.978
26572W        W98898  31.626  11.006  14.494
26573W        W98899  17.526   8.471   2.980
26574W        W98900  13.608  21.135  10.421
26575W        W98901  10.375  16.090  10.429
26576W        W98902  18.257  39.074  13.505
26577W        W98903   1.447  10.293  10.389
26578W        W98904   6.054  30.504   2.210
26579W        W98905  18.994  32.089   2.416
26580W        W98906  39.163  32.095   4.236
26581W        W98907  37.573   9.064   1.099
26582W        W98908  20.280  44.245   1.535
26583W        W98909  23.056   6.451  10.609
26584W        W98910  44.019  24.952   0.714
26585W        W98911  34.420  36.250   1.745
26586W        W98912   7.214  27.521  14.479
26587W        W98913  25.938  39.466   2.236
26588W        W98914   7.687  42.600   1.764
26589W        W98915  10.643  17.327  12.506
26590W        W98916   6.587  14.427   3.231
26591W        W98917  33.416  11.163  11.453
26592W        W98918  44.867   9.639   0.827
26593W        W98919  33.544  13.325  10.694
26594W        W98920  13.744  12.840  12.016
26595W        W98921  17.664  23.665   0.458
26596W        W98922  33.068   1.621  14.390
26597W        W98923  44.480   7.133   2.800
26598W        W98924   9.921  14.698   2.298
26599W        W98925  30.605  25.532   0.978
26600W        W98926  41.900  27.529  10.657
26601W        W98927  12.621   9.203  10.920
26602W        W98928  24.999  34.842  14.628
26603W        W98929  19.121  12.988   1.335
26604W        W98930   4.412   0.367  13.064
26605W        W98931   4.362   4.514  12.764
26606W        W98932  19.121  35.677  11.155
26607W        W98933   8.144  38.592  11.143
26608W        W98934  16.059  26.002   2.196
26609W        W98935  35.778  41.110   0.402
26610W        W98936  40.422  20.229  13.110
26611W        W98937  25.668  40.696   0.809
26612W        W98938  16.909  32.602  12.152
26613W        W98939   3.763  22.522   1.689
26614W        W98940  39.430  33.603   4.735
26615W        W98941  16.744   0.967   0.501
26616W        W98942  22.858  17.598   0.587
26617W        W98943  15.173   5.258  11.647
26618W        W98944  38.544  37.856   4.086
26619W        W98945  18.825  36.818  10.489
26620W        W98946  43.222  36.494   4.216
26621W        W98947  11.911  20.470  13.938
26622W        W98948  11.536  13.684   3.701
26623W        W98949  11.724  24.709  13.132
26624W        W98950  10.809  31.967  14.808
26625W        W98951  39.959  22.451  14.946
26626W        W98952  16.362   9.184   3.069
26627W        W98953  38.598  39.879  13.908
26628W        W98954  21.551  37.424   0.263
26629W        W98955   0.989  32.836   1.953
26630W        W98956  15.688  44.200   1.208
26631W        W98957  29.059  10.917   3.238
26632W        W98958  11.928   6.186   1.665
26633W        W98959   3.437  43.735  13.427
26634W        W98960  34.074  10.576   0.905
26635W        W98961  20.780  10.778  14.579
26636W        W98962  37.329  25.330   3.313
26637W        W98963   9.381   1.220  11.988
26638W        W98964  22.151  34.233  12.504
26639W        W98965  14.060  41.233   0.339
26640W        W98966  10.787  16.923  11.069
26641W        W98967   2.848  18.573   4.628
26642W        W98968  28.875  27.189   0.420
26643W        W98969  39.252  11.153  12.610
26644W        W98970   5.466  21.248  14.966
26645W        W98971  28.895  28.707   5.117
26646W        W98972   1.320  29.901  12.085
26647W        W98973  30.712  31.347   0.924
26648W        W98974  40.954  22.497  14.202
26649W        W98975  43.551  38.597  10.648
26650W        W98976  14.248  20.736  13.054
26651W        W98977  13.593  15.735  11.493
26652W        W98978  15.726  32.113   1.269
26653W        W98979  34.297  33.541   1.340
26654W        W98980  21.270  26.045  10.637
26655W        W98981  30.402  29.005  13.984
26656W        W98982  40.326  22.033   1.278
26657W        W98983  37.295  20.706   2.728
26658W        W98984  37.083  32.531   3.220
26659W        W98985   1.500  13.169  13.043
26660W        W98986   4.806  16.556   0.603
26661W        W98987  19.300  42.396  12.377
26662W        W98988   1.570  11.660   4.324
26663W        W98989  43.204  44.727  14.980
26664W        W98990  15.110  38.524   4.526
26665W        W98991  12.243  31.051  12.093
26666W        W98992  14.758  41.300   1.971
26667W        W98993  32.087  21.559  11.486
26668W        W98994  20.467  28.076  12.670
26669W        W98995  22.689  30.170  11.768
26670W        W98996  23.449  44.741   1.941
26671W        W98997  21.221  13.876   2.658
26672W        W98998  23.120  13.228   1.303
26673W        W98999  21.659  31.631  13.821
26674W        W99000  21.189  34.387   2.185
26675W        W99001  30.777  40.949  14.482
26676W        W99002  36.849  11.902  12.807
26677W        W99003  36.078  27.508  13.404
26678W        W99004   2.988  22.267  11.432
26679W        W99005   5.395   5.481  14.000
26680W        W99006  40.444   7.171  10.523
26681W        W99007  43.769  17.252   2.488
26682W        W99008  13.312  27.620   5.111
26683W        W99009  11.220   2.016   4.725
26684W        W99010  32.854  24.299  13.075
26685W        W99011  36.293   8.234  14.509
26686W        W99012  18.338  41.372   2.297
26687W        W99013  12.297  32.983   3.886
26688W        W99014   4.491  38.005   4.193
26689W        W99015  25.430  41.220  11.124
26690W        W99016   9.703  26.373  12.971
26691W        W99017  18.246  10.554   1.448
26692W        W99018  21.514  23.231   1.815
26693W        W99019  33.613  15.914  11.497
26694W        W99020  13.828  12.125   3.312
26695W        W99021  20.583  11.617  12.873
26696W        W99022  21.233  35.229  12.365
26697W        W99023  20.127  23.092   2.212
26698W        W99024   8.842  42.067  10.579
26699W        W99025  33.932  34.276  10.208
26700W        W99026  29.544   6.307   3.487
26701W        W99027  10.875  28.969  14.489
26702W        W99028  15.340  36.526   1.777
26703W        W99029  23.036  14.296   1.373
26704W        W99030   1.724  37.310   3.184
26705W        W99031  34.589  20.844   4.561
26706W        W99032   6.760  27.764  14.324
26707W        W99033  21.066   1.985   0.475
26708W        W99034  25.118  39.457  11.415
26709W        W99035  11.251  28.133  13.499
26710W        W99036   8.323  25.522   0.718
26711W        W99037  10.367   0.465   3.254
26712W        W99038  16.192  21.583   1.757
26713W        W99039  10.339  20.716   0.376
26714W        W99040  33.419   3.350   0.366
26715W        W99041  15.700  10.807  10.447
26716W        W99042  34.860  35.377   0.896
26717W        W99043   5.325  24.489   1.923
26718W        W99044   8.168  28.227   3.268
26719W        W99045   0.267  14.676   1.866
26720W        W99046  38.909  31.404   3.222
26721W        W99047  14.854  41.409   4.562
26722W        W99048  43.900  18.723  11.459
26723W        W99049  21.622  37.795   1.779
26724W        W99050  34.157  14.731  12.140
26725W        W99051  17.405   4.765   0.191
26726W        W99052   9.085   9.729  13.414
26727W        W99053  10.762  11.181  13.795
26728W        W99054  11.133  20.735  13.938
26729W        W99055  26.885  24.588  12.346
26730W        W99056  24.428   5.362   0.895
26731W        W99057  41.095  10.327   3.600
26732W        W99058  32.466  24.153   1.648
26733W        W99059  32.047  18.327   4.120
26734W        W99060  11.780  44.748  11.862
26735W        W99061  31.829  26.239  11.631
26736W        W99062  37.850   8.565   3.325
26737W        W99063  22.553  33.975  12.002
26738W        W99064  23.485   6.178  12.023
26739W        W99065  14.081   7.248   2.791
26740W        W99066  15.850  31.839   4.113
26741W        W99067  29.084   6.985   1.844
26742W        W99068  41.134   6.242  11.595
26743W        W99069  12.431  16.115  14.682
26744W        W99070  44.982  37.387   0.932
26745W        W99071  32.039  13.331   3.225
26746W        W99072   5.609   5.921   1.820
26747W        W99073   0.771  25.524  14.946
26748W        W99074  28.492  31.894  11.905
26749W        W99075  20.611   1.307   2.219
26750W        W99076  43.500  29.421  13.634
26751W        W99077  20.311   9.919  14.914
26752W        W99078  16.159  42.261  12.365
26753W        W99079  35.713   5.433  13.335
26754W        W99080  41.441  27.308   1.234
26755W        W99081  12.574  32.492  10.380
26756W        W99082  42.981  31.033   1.911
26757W        W99083   1.286   9.682   1.667
26758W        W99084   7.606  28.553   2.439
26759W        W99085   1.134  43.767  13.009
26760W        W99086  32.339  30.074  10.386
26761W        W99087  27.696  27.971   4.145
26762W        W99088  23.697  17.083   0.582
26763W        W99089  29.619  18.293   3.250
26764W        W99090  35.515  10.924   4.150
26765W        W99091   8.265  23.158   3.078
26766W        W99092  18.795  37.063   2.347
26767W        W99093  36.321   8.187   3.713
26768W        W99094   6.648  31.894   3.717
26769W        W99095  39.950   7.253  14.863
26770W        W99096  25.008  39.087  14.483
26771W        W99097  29.676   7.535   3.284
26772W        W99098  28.098  15.545  13.282
26773W        W99099  41.836  10.353  13.579
26774W        W99100  18.534  35.605   4.234
26775W        W99101  37.082  26.692  14.858
26776W        W99102  13.813   5.926  12.802
26777W        W99103  10.682  42.997   3.269
26778W        W99104  27.108  44.359   2.629
26779W        W99105  38.954  17.940   2.114
26780W        W99106  35.146  16.726  10.754
26781W        W99107  10.180  15.009   3.143
26782W        W99108   8.162  25.427   3.259
26783W        W99109  26.235  26.850  14.881
26784W        W99110  34.110  31.893   0.779
26785W        W99111  15.721  32.008  11.852
26786W        W99112  26.470  11.316  13.299
26787W        W99113  28.501   8.487   4.087
26788W        W99114  31.593  20.480   0.236
26789W        W99115  27.579  13.576  14.226
26790W        W99116  24.605  41.982  10.675
26791W        W99117   3.406  20.860  12.274
26792W        W99118  28.087   5.663   0.288
26793W        W99119  24.011  19.395  13.025
26794W        W99120  18.768  12.227  12.512
26795W        W99121  28.556   6.831   3.488
26796W        W99122  44.276  34.154   2.242
26797W        W99123  10.589  39.929   2.715
26798W        W99124  16.555  30.844  12.205
26799W        W99125  37.305  23.639   2.398
26800W        W99126  40.399  40.958  11.168
26801W        W99127  40.187   7.433   3.808
26802W        W99128   4.042  44.953   3.214
26803W        W99129  10.303  29.375   4.290
26804W        W99130   3.095  36.672  10.949
26805W        W99131   2.885  27.027   4.549
26806W        W99132   0.876  13.190  12.459
26807W        W99133   9.095   8.284  14.160
26808W        W99134  13.321  38.803  14.513
26809W        W99135   1.402   9.218   2.473
26810W        W99136  25.644  26.722  10.211
26811W        W99137  35.822  38.226   0.285
26812W        W99138  15.564   7.257   3.587
26813W        W99139  21.672  35.887   4.567
26814W        W99140   3.881   7.261   0.290
26815W        W99141  44.857  10.200   3.700
26816W        W99142   4.995  28.588   2.762
26817W        W99143   7.677   4.978  13.479
26818W        W99144  38.938  12.591  13.277
26819W        W99145  42.527  14.652  13.448
26820W        W99146  40.309  43.322  12.621
26821W        W99147  32.391  28.598  13.474
26822W        W99148  23.752  22.480   2.689
26823W        W99149  34.584  36.884  10.743
26824W        W99150  21.332  29.588  12.000
26825W        W99151   1.386  12.370   4.686
26826W        W99152  38.961  39.806   0.300
26827W        W99153  40.166  35.195   2.886
26828W        W99154  26.430   4.471  12.334
26829W        W99155   8.189  21.963   2.330
26830W        W99156  40.015  44.791  14.300
26831W        W99157  10.405   8.789  11.083
26832W        W99158  20.560  43.937   2.569
26833W        W99159  27.790  23.668   0.434
26834W        W99160  21.590  37.378  13.229
26835W        W99161  32.885  30.946  11.626
26836W        W99162  33.485  21.521   2.949
26837W        W99163  20.734  23.960  13.434
26838W        W99164  39.645  31.910   4.297
26839W        W99165  33.161  14.869  12.485
26840W        W99166  39.516  13.274  13.826
26841W        W99167   4.312  30.739  12.968
26842W        W99168  28.559  16.627  11.966
26843W        W99169  28.258   8.681   4.606
26844W        W99170  44.462   2.177   1.710
26845W        W99171  40.896  44.325  12.901
26846W        W99172  12.580  38.894   3.749
26847W        W99173  37.813  21.722  13.307
26848W        W99174  27.410   2.420  13.362
26849W        W99175  10.721   7.730   0.371
26850W        W99176  10.186  23.276   4.129
26851W        W99177  22.088  44.768   0.105
26852W        W99178  33.863  16.124  10.591
26853W        W99179  23.334  35.865   3.800
26854W        W99180  10.907  34.117  14.354
26855W        W99181   6.356  15.796  12.835
26856W        W99182  19.324  25.531  11.050
26857W        W99183   7.177  32.990   0.809
26858W        W99184  14.558  40.120  13.585
26859W        W99185   5.831  42.668   4.978
26860W        W99186  27.764  34.457  14.816
26861W        W99187  10.935  24.023   2.276
26862W        W99188  32.618  35.090   0.584
26863W        W99189   8.455  15.881  13.403
26864W        W99190  36.851  21.322   4.014
26865W        W99191   7.227  18.654   1.858
26866W        W99192  39.289  41.799   2.424
26867W        W99193  43.773   8.286  12.642
26868W        W99194   1.460  27.568   4.515
26869W        W99195  35.825  35.033  10.646
26870W        W99196  33.051  40.925   4.545
26871W        W99197  26.757  12.160   0.895
26872W        W99198  23.727   0.725   1.695
26873W        W99199  26.411  42.770  13.087
26874W        W99200   9.150  19.213  11.255
26875W        W99201  28.660   4.155  12.922
26876W        W99202  16.814  23.817   2.216
26877W        W99203  24.259  21.248  12.634
26878W        W99204  12.364   1.421   4.084
26879W        W99205  29.730  22.803  13.068
26880W        W99206  12.756  17.021   1.355
26881W        W99207  25.125  32.915  10.678
26882W        W99208  28.586  24.607  13.843
26883W        W99209  44.862  39.230   1.812
26884W        W99210  17.795  40.852   1.756
26885W        W99211   7.341  42.937  12.902
26886W        W99212  44.253  27.969   4.913
26887W        W99213  36.349  40.984   1.683
26888W        W99214   7.691   5.687  14.471
26889W        W99215   8.648   2.890  12.449
26890W        W99216  12.916  39.110  13.965
26891W        W99217   4.438  41.361  10.871
26892W        W99218  28.664  19.599  13.357
26893W        W99219  18.310  11.821  12.825
26894W        W99220  26.641  25.222  11.760
26895W        W99221  34.498  23.590   0.912
26896W        W99222  33.515  39.335  12.092
26897W        W99223  11.467  40.371  11.053
26898W        W99224  25.881   4.955   0.420
26899W        W99225   7.329  31.855   1.295
26900W        W99226  26.440  31.643   1.325
26901W        W99227  18.678  31.119   4.935
26902W        W99228  28.070  42.609  14.674
26903W        W99229  20.540  21.780   1.252
26904W        W99230  40.231   6.259  14.955
26905W        W99231  27.393  14.654  12.948
26906W        W99232  39.373   0.785  14.852
26907W        W99233  30.503   8.683  11.820
26908W        W99234  42.852  11.661   4.770
26909W        W99235   8.360  32.940   2.408
26910W        W99236  27.976  30.549  12.412
26911W        W99237   1.361  39.556  13.256
26912W        W99238  44.349   7.919  11.490
26913W        W99239  39.624  16.304  13.938
26914W        W99240  18.582  10.226   4.331
26915W        W99241  37.989   9.193  11.306
26916W        W99242  10.136  43.121  10.148
26917W        W99243  41.359  24.560   4.165
26918W        W99244  22.698  16.728  12.735
26919W        W99245  37.836  42.272  10.375
26920W        W99246  23.035  30.568   2.848
26921W        W99247   7.160  23.409  11.133
26922W        W99248   3.587   8.982   2.215
26923W        W99249  13.116  44.551   1.918
26924W        W99250  31.958  24.715   2.448
26925W        W99251   6.375   9.323   1.442
26926W        W99252  21.676  35.342  11.547
26927W        W99253  21.751  19.663  11.612
26928W        W99254  29.898  17.971  10.653
26929W        W99255  20.813  37.786  11.133
26930W        W99256  22.543  44.708  13.463
26931W        W99257   1.673  42.717  14.810
26932W        W99258  19.596   3.555   1.895
26933W        W99259  16.240   2.176   3.112
26934W        W99260  40.617   9.725  11.945
26935W        W99261  15.080  21.584  11.515
26936W        W99262  34.239  39.101  14.075
26937W        W99263  21.725  26.757   0.792
26938W        W99264  38.885  43.981   9.756
26939W        W99265  42.516  23.734  10.982
26940W        W99266   8.602   0.345   4.638
26941W        W99267  17.843   1.949   1.765
26942W        W99268  36.132  20.845   1.806
26943W        W99269  38.060  12.349  13.090
26944W        W99270  11.766   6.451  13.293
26945W        W99271  12.204  39.656  14.955
26946W        W99272  44.387  10.550   1.763
26947W        W99273  38.461   9.271  11.070
26948W        W99274  34.912  43.715   2.268
26949W        W99275  24.155  38.651  10.870
26950W        W99276  22.038  25.427  13.952
26951W        W99277  22.007  29.702  14.801
26952W        W99278  43.708  39.415  13.019
26953W        W99279  32.603   8.422   1.275
26954W        W99280  10.424  31.576   0.714
26955W        W99281   1.024  28.942   0.064
26956W        W99282   0.267   4.433  11.592
26957W        W99283   7.906  39.037   2.723
26958W        W99284  40.015  38.324   0.879
26959W        W99285  42.556  23.543  11.911
26960W        W99286  27.668  27.514  12.875
26961W        W99287   0.997  16.899  14.244
26962W        W99288   8.913  37.449   1.213
26963W        W99289  23.045  13.180  14.763
26964W        W99290  13.818  37.605  14.798
26965W        W99291  28.741   6.149   3.780
26966W        W99292   2.469  21.039   0.297
26967W        W99293  31.869  37.290  13.536
26968W        W99294   2.882  12.793   0.209
26969W        W99295  41.867  14.814   2.497
26970W        W99296  24.962  26.154   1.308
26971W        W99297   2.565   3.243   0.872
26972W        W99298  18.135   1.446  11.857
26973W        W99299   2.404   9.663   4.171
26974W        W99300   7.383  36.597   3.120
26975W        W99301  28.519  36.102  10.695
26976W        W99302  22.912   6.640   4.253
26977W        W99303   4.378  30.177  14.017
26978W        W99304  31.051  37.948   1.212
26979W        W99305  32.843  28.329  13.361
26980W        W99306  16.407  13.218  11.684
26981W        W99307  15.166  35.102   3.248
26982W        W99308  38.074  25.679  12.600
26983W        W99309  35.346  26.208  12.047
26984W        W99310  17.580  30.208   1.783
26985W        W99311  22.306  23.408  14.939
26986W        W99312   6.742   0.827  10.838
26987W        W99313  42.266  37.479  10.759
26988W        W99314  32.697  35.807  13.375
26989W        W99315  16.146  14.555  12.855
26990W        W99316  12.559  31.573   1.760
26991W        W99317  18.506  42.264   4.272
26992W        W99318  37.011  44.057  13.406
26993W        W99319  32.383  35.906  12.017
26994W        W99320  26.441  10.457   1.865
26995W        W99321  34.866  11.572  13.794
26996W        W99322  43.389  20.283   0.016
26997W        W99323  12.414  36.354  12.008
26998W        W99324  35.882  41.042   1.905
26999W        W99325  38.525  21.209  10.290
27000W        W99326   8.229  15.839  11.152
27001W        W99327  34.281  31.187  10.661
27002W        W99328  21.239  36.085   1.751
27003W        W99329  21.509   1.309  14.569
27004W        W99330   3.666  12.333   1.755
27005W        W99331   7.270  20.647  11.072
27006W        W99332  11.895  15.069  13.896
27007W        W99333  26.550  27.075   1.699
27008W        W99334  41.812  17.827  12.837
27009W        W99335   7.864  31.786  14.652
27010W        W99336  27.656   4.768   3.974
27011W        W99337  38.508   0.893  10.766
27012W        W99338  21.607  33.635  12.104
27013W        W99339   9.340  36.088  14.442
27014W        W99340  14.888  43.745   4.685
27015W        W99341  20.823  26.558   4.528
27016W        W99342  14.769  42.092  14.003
27017W        W99343  26.763   5.417  10.743
27018W        W99344  44.823  30.682   0.381
27019W        W99345  21.117  42.376   2.683
27020W        W99346  20.491   8.405   4.786
27021W        W99347  32.835  39.412   1.315
27022W        W99348  25.930  30.537   3.602
27023W        W99349  36.394   0.852  14.290
27024W        W99350  33.211  15.367   0.971
27025W        W99351  18.606  34.424  13.156
27026W        W99352  16.282  36.298  13.857
27027W        W99353   7.693  17.544   1.835
27028W        W99354  39.353  36.861   2.314
27029W        W99355   9.887  32.946   2.146
27030W        W99356  15.806   8.837  13.822
27031W        W99357   3.899  36.155  10.523
27032W        W99358  37.797  16.824   1.888
27033W        W99359  38.740  35.396  13.273
27034W        W99360  14.655  38.294   2.816
27035W        W99361  28.161  24.100  14.265
27036W        W99362  38.270  40.990   3.602
27037W        W99363  21.760  35.103  14.179
27038W        W99364  37.087   9.427  14.321
27039W        W99365   7.653  11.151  10.721
27040W        W99366  33.379  44.289   3.846
27041W        W99367  11.694  33.401  14.881
27042W        W99368   0.706   1.965   3.658
27043W        W99369  12.293  32.418   2.671
27044W        W99370  20.024  35.871  13.807
27045W        W99371  38.022   0.229   2.647
27046W        W99372   6.236  12.617  13.918
27047W        W99373  17.758  11.386  11.131
27048W        W99374   8.735  18.515   4.530
27049W        W99375   9.122  31.391   4.467
27050W        W99376  37.791  17.305   1.362
27051W        W99377  23.158   9.712  14.855
27052W        W99378  25.180   3.430  12.083
27053W        W99379  42.287  36.337   0.919
27054W        W99380  38.826   8.766   0.856
27055W        W99381  39.295  25.517  14.528
27056W        W99382  24.195  29.118  12.014
27057W        W99383  29.225  27.954   2.762
27058W        W99384   7.253  11.950   0.322
27059W        W99385  43.286  18.685  12.019
27060W        W99386  12.941   4.394   0.966
27061W        W99387   0.698   6.664  12.893
27062W        W99388  40.322   4.855   4.121
27063W        W99389  22.763  41.347  11.115
27064W        W99390   2.259  22.914  11.249
27065W        W99391  26.033  22.879   3.200
27066W        W99392   2.289  18.107   3.886
27067W        W99393  10.065  30.957  14.844
27068W        W99394   6.994  20.613   1.431
27069W        W99395  20.689  11.192   1.363
27070W        W99396  13.656  12.111   1.896
27071W        W99397   9.161  19.596  14.473
27072W        W99398  14.634   3.257  13.013
27073W        W99399  12.126  35.553  11.941
27074W        W99400   4.929  41.749   2.146
27075W        W99401  20.678  10.683   4.462
27076W        W99402  32.759  36.112   4.270
27077W        W99403   8.676  29.659  11.417
27078W        W99404  13.312  28.411   1.868
27079W        W99405  40.773  31.595  11.953
27080W        W99406   9.442  44.464  14.853
27081W        W99407  25.324   5.400  11.524
27082W        W99408  19.383  40.001  13.530
27083W        W99409  31.542   3.633   3.591
27084W        W99410  41.106  23.705  12.394
27085W        W99411  12.766   4.310  11.851
27086W        W99412  22.227  28.946  14.330
27087W        W99413  17.160   5.966   2.741
27088W        W99414  22.043  17.276  13.152
27089W        W99415  35.379   0.032  13.033
27090W        W99416   7.785   1.744  14.822
27091W        W99417  28.574  42.966   1.774
27092W        W99418   9.383  32.687   0.396
27093W        W99419   9.293  12.744  10.404
27094W        W99420  31.453  34.774  14.811
27095W        W99421  41.253   9.110   0.889
27096W        W99422   9.779  43.988   3.168
27097W        W99423  17.141  16.628   1.841
27098W        W99424  36.196  18.090  13.983
27099W        W99425  27.535  33.135   1.456
27100W        W99426  32.560  36.153  14.514
27101W        W99427  37.322   3.753   2.414
27102W        W99428   1.765  33.354  13.034
27103W        W99429  20.767   2.266   1.444
27104W        W99430  20.755  27.115  14.284
27105W        W99431   1.415  22.173  13.987
27106W        W99432  21.666   8.733   4.616
27107W        W99433  40.275  22.983  12.048
27108W        W99434  14.546  20.012   4.100
27109W        W99435  35.973  20.640  14.166
27110W        W99436  31.064  36.381  14.539
27111W        W99437  31.722   2.343  12.819
27112W        W99438  27.991  27.683  12.511
27113W        W99439   0.853   6.101   2.450
27114W        W99440  22.585  13.392   4.545
27115W        W99441  35.980  42.263  11.070
27116W        W99442  31.569  42.042   3.750
27117W        W99443  32.588   7.747  11.906
27118W        W99444  20.062  28.122   3.665
27119W        W99445  25.111  11.179  12.405
27120W        W99446  12.281  37.074  13.207
27121W        W99447  16.177  13.831   2.664
27122W        W99448   0.657  41.883   0.506
27123W        W99449  27.162  16.467  12.959
27124W        W99450  15.352   3.995  14.870
27125W        W99451  23.181  22.045  13.633
27126W        W99452  44.238  36.299   0.809
27127W        W99453  25.948  34.397  13.409
27128W        W99454  35.423  10.288  10.665
27129W        W99455  17.809  41.061   0.310
27130W        W99456  34.288  35.594  14.826
27131W        W99457  25.040   1.489  11.146
27132W        W99458  25.011  34.825   3.812
27133W        W99459   3.283  42.777  10.748
27134W        W99460  12.464  34.465  13.788
27135W        W99461   5.436  20.816  10.714
27136W        W99462  13.935  11.180  14.301
27137W        W99463  10.430  30.977  13.909
27138W        W99464  34.659  31.505   0.406
27139W        W99465  32.039  23.533   1.960
27140W        W99466  39.005  10.654   2.253
27141W        W99467  41.755  40.349   0.267
27142W        W99468   3.189  33.947   4.186
27143W        W99469  33.288  31.144   1.789
27144W        W99470  26.528  21.755   2.668
27145W        W99471  10.202  10.284  10.966
27146W        W99472   5.313   5.354  14.995
27147W        W99473  10.817  20.911   0.252
27148W        W99474  41.837  15.334   4.186
27149W        W99475  21.640  43.229  10.695
27150W        W99476  29.586  17.463   2.880
27151W        W99477  11.252  18.582   4.679
27152W        W99478  18.697  29.360  10.635
27153W        W99479  34.999  25.719  14.122
27154W        W99480  27.954  11.655   4.487
27155W        W99481  34.529  23.995  14.716
27156W        W99482  35.057  18.066   1.297
27157W        W99483  29.524   3.899  14.500
27158W        W99484  17.095   5.843  11.636
27159W        W99485  13.524  29.187  12.055
27160W        W99486  44.826  12.236  10.381
27161W        W99487  28.420  14.731  12.937
27162W        W99488   5.377   9.720  14.419
27163W        W99489  26.564  18.865  12.491
27164W        W99490   6.558  21.704  10.727
27165W        W99491   1.044  21.009  13.249
27166W        W99492  34.114  26.225   5.004
27167W        W99493  24.291   4.832  12.509
27168W        W99494  30.411  44.243   4.651
27169W        W99495  41.859  33.891  13.407
27170W        W99496  28.009  41.797  13.491
27171W        W99497  40.090  17.248  10.629
27172W        W99498  37.644   7.983  11.541
27173W        W99499  17.908  19.605   4.230
27174W        W99500  19.768  39.424  14.186
27175W        W99501  38.327  19.020   4.635
27176W        W99502  23.747  30.044  14.777
27177W        W99503   4.647   2.120   2.313
27178W        W99504  38.895  38.618   3.465
27179W        W99505   5.328  28.610  11.158
27180W        W99506  21.084  15.119  10.707
27181W        W99507  37.104  40.055  11.980
27182W        W99508   3.555   5.256  13.645
27183W        W99509  28.037  23.626  14.070
27184W        W99510  17.365  35.558  14.935
27185W        W99511   9.784  39.465   3.845
27186W        W99512  22.173   1.485   3.755
27187W        W99513  39.715  42.722   4.661
27188W        W99514  36.681   9.845  14.468
27189W        W99515  41.343  36.448   4.559
27190W        W99516  28.114  33.982  13.469
27191W        W99517  27.748  11.168  13.767
27192W        W99518   6.276  12.817   3.190
27193W        W99519  23.944  37.054  13.733
27194W        W99520   9.168  41.363  14.586
27195W        W99521  26.215  39.904   2.215
27196W        W99522  30.046  39.057   1.769
27197W        W99523  25.383  40.386   4.979
27198W        W99524  43.899   5.400  10.536
27199W        W99525   5.929  41.805  13.992
27200W        W99526  11.442  27.079   5.479
27201W        W99527  13.580  20.013   1.432
27202W        W99528  36.010  43.764  12.946
27203W        W99529  12.363  40.978   0.735
27204W        W99530  41.124  33.854  14.986
27205W        W99531  42.516  36.004  13.349
27206W        W99532  15.366  28.728   1.712
27207W        W99533   7.864  28.935   1.922
27208W        W99534   8.948  33.941   1.642
27209W        W99535  11.774  33.508   4.196
27210W        W99536  16.864  40.227  11.959
27211W        W99537  16.203  32.295   4.228
27212W        W99538  38.495   7.135   0.452
27213W        W99539  19.716  22.552  12.609
27214W        W99540  25.895  10.397   0.831
27215W        W99541  27.038  29.836   3.817
27216W        W99542  28.570  38.529   0.381
27217W        W99543  41.453  44.794  13.477
27218W        W99544  37.823   5.812  12.990
27219W        W99545  31.899  15.777  13.182
27220W        W99546   5.169  35.797   0.845
27221W        W99547  31.634   4.591  10.686
27222W        W99548  23.657  43.412  14.427
27223W        W99549  20.178  18.789  11.371
27224W        W99550  39.827  12.176  13.666
27225W        W99551  14.125  11.906   2.229
27226W        W99552   3.466  21.681  10.236
27227W        W99553  25.519  24.581   1.047
27228W        W99554  27.155  34.783  11.869
27229W        W99555  26.032  25.941  13.133
27230W        W99556  37.640  34.403  11.602
27231W        W99557  16.219   8.480  11.567
27232W        W99558  26.976  41.525  13.168
27233W        W99559  42.304  35.979   1.697
27234W        W99560   1.382  18.315  14.395
27235W        W99561  10.153  16.857   2.765
27236W        W99562   2.142  25.026  14.221
27237W        W99563  14.156   1.477   3.897
27238W        W99564  40.349  23.476   1.386
27239W        W99565   3.699  34.547   3.624
27240W        W99566  40.941  24.758  10.989
27241W        W99567  33.186   9.397  11.948
27242W        W99568  40.448  16.290  12.810
27243W        W99569  42.829  18.623  14.014
27244W        W99570  25.723   8.344  10.616
27245W        W99571   3.463  44.514  11.502
27246W        W99572  13.593   4.897   4.182
27247W        W99573  27.472  25.303   3.164
27248W        W99574  28.119  24.514   2.287
27249W        W99575  33.001  26.105  13.421
27250W        W99576   8.188   7.814   3.571
27251W        W99577  11.084  35.659   5.637
27252W        W99578  15.789  43.743   4.067
27253W        W99579   3.714  17.126   1.005
27254W        W99580  10.825   2.352   0.311
27255W        W99581   3.283  41.942   0.944
27256W        W99582  32.799   1.511  10.801
27257W        W99583  13.403  17.713  12.217
27258W        W99584  41.519  40.848  11.447
27259W        W99585  29.958  16.714   4.385
27260W        W99586   5.808  22.277  10.565
27261W        W99587   3.795  24.998  14.518
27262W        W99588  38.108   9.412  12.282
27263W        W99589  13.270   1.754  13.597
27264W        W99590  22.411   5.248  13.084
27265W        W99591  23.153  31.395  13.768
27266W        W99592   2.690  23.424   5.039
27267W        W99593   3.807  15.615   3.837
27268W        W99594   4.710   1.224   1.306
27269W        W99595  30.576   4.479  14.398
27270W        W99596  17.293  28.536  11.876
27271W        W99597   5.020   8.855  10.595
27272W        W99598  10.551  16.378   2.348
27273W        W99599  42.035  18.404   3.994
27274W        W99600  24.279  15.169  10.753
27275W        W99601  21.707  40.458  12.545
27276W        W99602  39.373  32.049  11.182
27277W        W99603  11.692  37.552  11.532
27278W        W99604  10.807  34.818  11.924
27279W        W99605  18.580   5.421   0.220
27280W        W99606  17.116  11.158  11.552
27281W        W99607  31.051  17.478  13.656
27282W        W99608   6.874  18.213   0.717
27283W        W99609   1.346  31.954   0.816
27284W        W99610   7.004  11.663   4.679
27285W        W99611   2.862  15.219  11.048
27286W        W99612  42.910  20.464   4.133
27287W        W99613  11.415  30.326   2.375
27288W        W99614  10.919  11.361   4.248
27289W        W99615  36.902  16.982  12.566
27290W        W99616   8.783  42.455  13.274
27291W        W99617  42.060  35.027   0.240
27292W        W99618  22.691  19.208  11.972
27293W        W99619  39.433  33.327  11.139
27294W        W99620  13.906  18.808  11.532
27295W        W99621   4.880  15.746  14.710
27296W        W99622  26.996  27.247  14.439
27297W        W99623  25.802   8.683   5.422
27298W        W99624  17.932  42.300  11.944
27299W        W99625   2.911  26.591  14.940
27300W        W99626  40.757   1.188  12.844
27301W        W99627  12.149  19.454   3.304
27302W        W99628   9.883   2.449   0.790
27303W        W99629  38.008   7.367   2.624
27304W        W99630   8.258   5.660   2.624
27305W        W99631  14.178   8.368   1.093
27306W        W99632   7.967   8.201  11.074
27307W        W99633  42.790  14.876  13.883
27308W        W99634  36.176  36.450  10.709
27309W        W99635  23.948   8.624   2.207
27310W        W99636  23.953   8.639  13.806
27311W        W99637  25.694  43.394   0.320
27312W        W99638   3.200  11.504   3.268
27313W        W99639  30.918  13.839   4.292
27314W        W99640  37.381  32.401   1.778
27315W        W99641  15.138  22.694   3.672
27316W        W99642  43.572  15.162  11.491
27317W        W99643  42.466  26.654   3.121
27318W        W99644  21.053  28.575   2.879
27319W        W99645  37.437  41.364   4.163
27320W        W99646  10.270  25.879  13.373
27321W        W99647  24.668  27.890  12.083
27322W        W99648  16.796  44.798   0.857
27323W        W99649  41.269   0.213   1.679
27324W        W99650  37.379  41.096   4.604
27325W        W99651  24.077  37.596   5.145
27326W        W99652  13.618  40.927  11.432
27327W        W99653  32.999  25.967  11.040
27328W        W99654  13.357  21.994   0.360
27329W        W99655  42.699  29.549  14.788
27330W        W99656   5.519  26.896   2.787
27331W        W99657  41.022  35.290  12.798
27332W        W99658  13.406  12.901   0.735
27333W        W99659  33.871  38.426   3.277
27334W        W99660  29.696  17.280  14.865
27335W        W99661  43.369   0.456  14.395
27336W        W99662   8.366  18.072  14.883
27337W        W99663  37.430  18.829  12.118
27338W        W99664  26.165  22.420  14.931
27339W        W99665  41.815  14.280   4.285
27340W        W99666  12.337  14.868   4.738
27341W        W99667  19.754  28.713  11.310
27342W        W99668  25.659  27.106  12.559
27343W        W99669  36.357  43.203   4.943
27344W        W99670  13.719   5.240   0.785
27345W        W99671  19.426  29.895   2.081
27346W        W99672  37.417   9.580   2.456
27347W        W99673  27.421  24.071   3.723
27348W        W99674   8.744   1.771  13.681
27349W        W99675  20.438  22.584   1.776
27350W        W99676   5.446  19.371  12.350
27351W        W99677  39.439   4.769   2.590
27352W        W99678  21.143  31.873  12.123
27353W        W99679  35.156  32.397  11.606
27354W        W99680   4.370  15.571   3.159
27355W        W99681  18.882  36.365   4.444
27356W        W99682   2.322  19.982   4.629
27357W        W99683  34.161  24.031   2.282
27358W        W99684  43.378  15.380   0.973
27359W        W99685  20.288  31.936  12.540
27360W        W99686  34.485  11.629  11.185
27361W        W99687  19.767   1.357  14.498
27362W        W99688  38.215  10.159   1.460
27363W        W99689   1.343   7.692   0.024
27364W        W99690  20.467  40.426  13.783
27365W        W99691  33.930  39.361   3.939
27366W        W99692  32.636   4.772   1.336
27367W        W99693  17.602  14.740   2.895
27368W        W99694   9.781   7.859  14.454
27369W        W99695  18.455  32.185  10.828
27370W        W99696  36.976  39.197  11.744
27371W        W99697  15.266  29.511  14.836
27372W        W99698  12.738  16.204   4.831
27373W        W99699  31.963  16.055   3.781
27374W        W99700  26.049  31.537  14.068
27375W        W99701  39.314   4.047  12.604
27376W        W99702  11.337  32.669   1.199
27377W        W99703  28.717  27.979   4.090
27378W        W99704  29.436  41.792   3.311
27379W        W99705  20.169  38.828  12.540
27380W        W99706  26.035  31.986   2.877
27381W        W99707  37.429  43.794  13.569
27382W        W99708   5.105  42.324  14.895
27383W        W99709   8.941  20.493  14.019
27384W        W99710   5.972  28.486  11.980
27385W        W99711  14.623  10.903   1.171
27386W        W99712  32.400   7.294  12.070
27387W        W99713  12.623  11.040   4.880
27388W        W99714  25.764  28.721  13.984
27389W        W99715   5.393  15.664   0.451
27390W        W99716   9.998   2.183   4.154
27391W        W99717  44.392  38.526  13.324
27392W        W99718  26.508  21.622  10.702
27393W        W99719   1.818  27.671   4.136
27394W        W99720   9.324  34.598   4.566
27395W        W99721  33.663  19.130   3.089
27396W        W99722  28.207  32.259  12.186
27397W        W99723  33.717   8.125  14.423
27398W        W99724  38.093  33.977   4.112
27399W        W99725   0.325  36.054  10.901
27400W        W99726  23.439  30.048   3.425
27401W        W99727  14.356  41.900   4.172
27402W        W99728  26.573  38.312   2.677
27403W        W99729  33.629  11.059  13.815
27404W        W99730  36.619  20.512   1.794
27405W        W99731  39.239  25.445   0.027
27406W        W99732  11.254  38.176  12.955
27407W        W99733  24.723  26.120   3.255
27408W        W99734   5.907  37.330  14.520
27409W        W99735  35.124  12.272  10.892
27410W        W99736  44.267  11.342  14.776
27411W        W99737  23.240  39.554  11.100
27412W        W99738  14.260   0.382   3.228
27413W        W99739  22.517   1.894   1.679
27414W        W99740  12.247  30.935   4.231
27415W        W99741   2.744   8.288   4.330
27416W        W99742  36.895  35.581   2.714
27417W        W99743  41.588  30.755  12.545
27418W        W99744  11.519  15.193   3.982
27419W        W99745  33.186  20.260   0.685
27420W        W99746  30.776  32.375  14.764
27421W        W99747  37.629   5.977   2.639
27422W        W99748  38.491  25.431   3.268
27423W        W99749  10.377  16.510   3.802
27424W        W99750  23.453  31.308   2.437
27425W        W99751  33.891  30.561  12.891
27426W        W99752  26.469  16.311   1.331
27427W        W99753  21.096  11.414  12.850
27428W        W99754  22.869   8.292   0.395
27429W        W99755  32.059  14.180   2.717
27430W        W99756  36.038  17.196   3.632
27431W        W99757  28.943  38.288   4.159
27432W        W99758   5.429  11.835  11.597
27433W        W99759  43.687  38.414   0.436
27434W        W99760  29.557  25.007  14.923
27435W        W99761  44.242  28.688  14.978
27436W        W99762   1.010  26.081  10.747
27437W        W99763   1.873  18.751  12.010
27438W        W99764  34.628  28.559  13.167
27439W        W99765  12.812  31.986   2.729
27440W        W99766  17.529  15.596  11.118
27441W        W99767  25.192  25.009  12.694
27442W        W99768   4.797   0.244  14.851
27443W        W99769  44.415   1.831  12.362
27444W        W99770  19.497  16.808   3.760
27445W        W99771   8.685  23.150   0.445
27446W        W99772  21.520  21.789   2.758
27447W        W99773  31.090   8.192   1.269
27448W        W99774   7.425  11.849   4.407
27449W        W99775  23.176   0.461   2.208
27450W        W99776  29.072   1.982  10.926
27451W        W99777  16.575  23.186   4.828
27452W        W99778  16.097  24.106  11.217
27453W        W99779  21.782  30.945  14.539
27454W        W99780  35.736  32.450   9.825
27455W        W99781  20.207   8.200  10.295
27456W        W99782  26.306  10.275   4.647
27457W        W99783  15.270  29.736  12.525
27458W        W99784   6.763  25.389  14.869
27459W        W99785   8.339  14.372   4.378
27460W        W99786  39.996   5.714   4.539
27461W        W99787  37.498  22.806  14.869
27462W        W99788  26.771   4.239   1.262
27463W        W99789  41.269  12.707   4.597
27464W        W99790   7.085  26.846  10.071
27465W        W99791  13.266  24.996   3.896
27466W        W99792  31.619  35.546   4.606
27467W        W99793  39.613   8.745  13.919
27468W        W99794   9.626  43.514   3.261
27469W        W99795   3.246   8.852   4.464
27470W        W99796  10.630  29.736  14.365
27471W        W99797   7.116  35.080   3.782
27472W        W99798  41.048   0.399  10.612
27473W        W99799  35.145   7.856  12.442
27474W        W99800  14.071  29.087  13.042
27475W        W99801  39.907  38.857   3.031
27476W        W99802  35.012  24.170  14.729
27477W        W99803  32.077   1.767   0.778
27478W        W99804  25.142  36.044  12.999
27479W        W99805  21.164   7.767   0.891
27480W        W99806  16.377  24.594   1.292
27481W        W99807   3.026   0.262  12.973
27482W        W99808   9.792  24.455  14.935
27483W        W99809  25.076   6.646   1.372
27484W        W99810  15.895  13.145  11.616
27485W        W99811  22.531  18.815   1.702
27486W        W99812  11.125   1.945  10.694
27487W        W99813  42.520  32.189   2.356
27488W        W99814  10.137  35.497   4.262
27489W        W99815  25.090  19.326  10.605
27490W        W99816  40.120  25.013   2.345
27491W        W99817  29.673   4.710   4.188
27492W        W99818   2.173  36.067   3.683
27493W        W99819  23.565  41.523   1.170
27494W        W99820  40.828  13.864   4.262
27495W        W99821  40.721  23.179   1.664
27496W        W99822  15.660  18.126   1.853
27497W        W99823  28.278  19.205  10.935
27498W        W99824  17.243  36.034  13.757
27499W        W99825  10.170  38.456   4.713
27500W        W99826   3.258  30.474  12.162
27501W        W99827  40.098  39.875  14.939
27502W        W99828  42.953   2.346   3.084
27503W        W99829  27.033  36.596   3.596
27504W        W99830  41.929  42.440   1.884
27505W        W99831  15.825  30.186  13.180
27506W        W99832   7.139  36.084   0.451
27507W        W99833  29.964  37.373  11.980
27508W        W99834  21.451  44.552   4.774
27509W        W99835  15.529  43.144  10.116
27510W        W99836  10.715  11.062   4.628
27511W        W99837  14.219   8.870   1.251
27512W        W99838  35.102  22.484   3.253
27513W        W99839   7.208  41.519   3.760
27514W        W99840   2.257   3.024  10.184
27515W        W99841   1.387   5.841  11.128
27516W        W99842   7.809   3.959   2.721
27517W        W99843  18.201  44.806  10.747
27518W        W99844  36.220  40.182  11.596
27519W        W99845  38.552  14.233   3.544
27520W        W99846  32.145   0.120   0.785
27521W        W99847  33.994  16.496   0.231
27522W        W99848   4.811  33.618  11.498
27523W        W99849  15.061  12.107  12.548
27524W        W99850  42.160  12.263   0.317
27525W        W99851   1.414  24.975   2.728
27526W        W99852  17.871  10.191   0.222
27527W        W99853  17.201  11.619   3.108
27528W        W99854  30.448  14.598   4.331
27529W        W99855   0.845  29.925   1.237
27530W        W99856  29.385   2.271   0.325
27531W        W99857  43.003  16.709  11.975
27532W        W99858  13.565  14.839  13.478
27533W        W99859   0.950  25.307  11.482
27534W        W99860  44.826  36.317  12.083
27535W        W99861  33.563  42.531  12.964
27536W        W99862  34.947  25.321   2.099
27537W        W99863   9.342  22.118  10.510
27538W        W99864  25.037  37.132   0.287
27539W        W99865  32.418   1.010  12.685
27540W        W99866  32.698  20.282   0.795
27541W        W99867   5.202  16.017   3.562
27542W        W99868  26.631  42.150  11.102
27543W        W99869  10.257  12.963  10.738
27544W        W99870  15.361  28.446   0.880
27545W        W99871  10.132  40.464   4.075
27546W        W99872  31.999  31.165   1.462
27547W        W99873  25.638   3.298   9.948
27548W        W99874  18.767  15.595  11.736
27549W        W99875   5.350   9.979  11.124
27550W        W99876  19.734  24.407   4.112
27551W        W99877  22.213  39.659  13.557
27552W        W99878   5.958  32.979   4.926
27553W        W99879  11.851  40.734  10.631
27554W        W99880  22.369   9.632   1.252
27555W        W99881   3.500   0.725   4.110
27556W        W99882  22.332  22.959  13.911
27557W        W99883  16.294   9.167   4.059
27558W        W99884  42.781   1.863  10.764
27559W        W99885  16.722  34.492   3.631
27560W        W99886  40.911  29.446   4.145
27561W        W99887  15.624  13.549   2.460
27562W        W99888  18.178  29.703   1.337
27563W        W99889  40.774   1.509   0.982
27564W        W99890  40.319  10.172   1.438
27565W        W99891  14.395  25.675   3.713
27566W        W99892  17.668  11.694   1.290
27567W        W99893  34.355  36.024  14.055
27568W        W99894  17.197  22.935   3.653
27569W        W99895  27.769   7.891   3.127
27570W        W99896  13.986  36.271   9.747
27571W        W99897  18.328  10.469   1.972
27572W        W99898  37.319  27.894   0.499
27573W        W99899  37.348  24.806   3.273
27574W        W99900  11.207   5.266  11.140
27575W        W99901  20.079   3.507  10.874
27576W        W99902  41.956  14.595  14.897
27577W        W99903  37.003  23.761   4.163
27578W        W99904  36.031  17.568  11.994
27579W        W99905  22.206  31.392   0.449
27580W        W99906  18.657   2.504   2.309
27581W        W99907  23.023  34.802  13.480
27582W        W99908  39.292  24.795  13.878
27583W        W99909  41.050  38.619   3.640
27584W        W99910  13.654  43.349  14.309
27585W        W99911  32.391  44.488   4.739
27586W        W99912  36.036   5.304  13.706
27587W        W99913  16.784  32.550   0.466
27588W        W99914  35.909  25.228  13.951
27589W        W99915  25.627  36.456   1.332
27590W        W99916  26.682  11.937  11.047
27591W        W99917  18.142  35.317   3.324
27592W        W99918   1.665  43.952   1.527
27593W        W99919  20.741   8.460   4.344
27594W        W99920  15.094  34.392  13.531
27595W        W99921  39.227  39.565   2.278
27596W        W99922  18.662  40.623  13.934
27597W        W99923  22.424  30.501  10.139
27598W        W99924  20.135  42.473  11.903
27599W        W99925   7.401  31.186   4.629
27600W        W99926   7.282  35.410  14.542
27601W        W99927  14.382  11.745  11.048
27602W        W99928  10.806  35.708  10.625
27603W        W99929   5.302   3.900  10.742
27604W        W99930   0.487  23.532   3.213
27605W        W99931   7.750  44.542   3.636
27606W        W99932   4.300   0.909  10.798
27607W        W99933  10.841  27.123   4.830
27608W        W99934   4.827   3.523  12.101
27609W        W99935  30.967  18.802   3.559
27610W        W99936  23.744   3.490  12.119
27611W        W99937  33.045  21.199   0.038
27612W        W99938  16.709  18.557   3.646
27613W        W99939  38.969  21.556  12.459
27614W        W99940  11.112  44.757  11.143
27615W        W99941  13.964  19.594   3.365
27616W        W99942   5.330   1.948   4.438
27617W        W99943  17.577  29.265  12.908
27618W        W99944   2.940   4.969   5.514
27619W        W99945  12.498  33.612  13.903
27620W        W99946  23.393  16.612  13.364
27621W        W99947  32.387  26.942  11.689
27622W        W99948  23.810  12.932   0.801
27623W        W99949   8.720  30.090  11.097
27624W        W99950  40.590   0.933  11.581
27625W        W99951  34.625  35.917   3.747
27626W        W99952  21.532   2.621   1.524
27627W        W99953  18.597  23.923  14.675
27628W        W99954  12.666  34.714  13.372
27629W        W99955   8.605  36.858  12.366
27630W        W99956  22.723  19.595   4.636
27631W        W99957  13.170  15.260  14.331
27632W        W99958   8.599   5.264  13.813
27633W        W99959  39.831  25.560   4.132
27634W        W99960  14.099  28.178   1.421
27635W        W99961  13.475  38.480  10.334
27636W        W99962   5.844  40.540  13.460
27637W        W99963  14.461  33.622  12.072
27638W        W99964  30.458  31.890   4.249
27639W        W99965  23.216  18.294  12.857
27640W        W99966   1.432   6.941   0.775
27641W        W99967  23.475   8.653  14.016
27642W        W99968   9.487  38.953  10.782
27643W        W99969   2.606   7.808   1.479
27644W        W99970  41.117   9.829   4.135
27645W        W99971   9.818  27.449  11.203
27646W        W99972  39.104  21.049  12.472
27647W        W99973  41.555  27.521   2.569
27648W        W99974  10.795  28.790  11.209
27649W        W99975   9.852  21.659   0.216
27650W        W99976   6.116   7.937  11.181
27651W        W99977  44.944   6.087  12.081
27652W        W99978  43.337  44.513  11.744
27653W        W99979  21.363  13.041   2.315
27654W        W99980  42.415  42.066   3.830
27655W        W99981  22.166  28.143   3.790
27656W        W99982  41.566  28.922   4.541
27657W        W99983  27.457  20.253  13.071
27658W        W99984  30.688  26.689   2.613
27659W        W99985  31.056  13.724   0.390
27660W        W99986   7.718  20.855  14.495
27661W        W99987  33.824  25.459  13.467
27662W        W99988   7.102   9.046   1.775
27663W        W99989  20.715  26.615  12.901
27664W        W99990  26.947  12.266  13.366
27665W        W99991  15.659  25.662   0.818
27666W        W99992   3.002  23.139   3.434
27667W        W99993  32.029  42.813   2.751
27668W        W99994  41.078  38.558  10.525
27669W        W99995  14.317   4.961   0.364
27670W        W99996  26.148  26.211  11.954
27671W        W99997  33.574   7.538   3.754
27672W        W99998  29.614   7.195   1.676
27673W        W99999  24.271  37.472   1.685
27674W        W    0  13.133  21.717   4.095
27675W        W    1  37.909   7.691  11.213
27676W        W    2  21.969  17.149   2.271
27677W        W    3  23.656   3.470   2.746
27678W        W    4  23.176  42.259  13.496
27679W        W    5  44.291   7.674  11.959
27680W        W    6  32.586  39.686   4.813
27681W        W    7  10.752   6.186   4.756
27682W        W    8  34.978   0.554   1.805
27683W        W    9  25.309  20.587  11.539
27684W        W   10  26.177  16.713  11.946
27685W        W   11  34.467  21.140  12.584
27686W        W   12   4.939  44.298  13.893
27687W        W   13  36.571  33.670  12.928
27688W        W   14  14.615  26.141   5.068
27689W        W   15  21.978  33.957   3.922
27690W        W   16  36.942   5.851  13.485
27691W        W   17  40.287   6.650  14.123
27692W        W   18  17.767  18.173   0.468
27693W        W   19  20.220  11.619  11.596
27694W        W   20   5.624  22.326   0.786
27695W        W   21  22.028  18.962   3.182
27696W        W   22  29.440   8.315   2.345
27697W        W   23  42.416   0.696   4.130
27698W        W   24   4.773  18.335  10.666
27699W        W   25   4.969   4.312  11.580
27700W        W   26   3.379  24.100   1.544
27701W        W   27   8.100  23.950   4.124
27702W        W   28   9.039  37.028   0.942
27703W        W   29  18.566   4.692   1.297
27704W        W   30  26.008  21.801   0.792
27705W        W   31  23.733   2.384  11.186
27706W        W   32  41.391  23.120   2.279
27707W        W   33   1.446  15.322   2.755
27708W        W   34  31.632   0.655   4.216
27709W        W   35  40.901  44.913   4.506
27710W        W   36  37.301   8.402  12.397
27711W        W   37  31.439  34.475   2.449
27712W        W   38  44.158   0.868   1.962
27713W        W   39  11.701  43.771  11.940
27714W        W   40  38.336  26.950   0.254
27715W        W   41  37.790  40.621   4.936
27716W        W   42  30.513  30.417   4.252
27717W        W   43  36.593  26.440  14.004
27718W        W   44  38.162  22.295  12.923
27719W        W   45  39.632   5.228   2.416
27720W        W   46  38.175  25.122   2.338
27721W        W   47   4.852   4.455  12.061
27722W        W   48  30.823  42.419   0.832
27723W        W   49  27.454   0.486   1.009
27724W        W   50  34.215  30.958  12.644
27725W        W   51   0.283  41.866   3.730
27726W        W   52  22.699  42.593   2.256
27727W        W   53  12.575  44.368  12.846
27728W        W   54  30.474  23.704  13.413
27729W        W   55   1.838  31.140   4.542
27730W        W   56  21.089  38.323   3.808
27731W        W   57  26.477  42.287   4.021
27732W        W   58  43.055  14.813  10.586
27733W        W   59   8.227  27.001  13.421
27734W        W   60  11.630   7.270   1.867
27735W        W   61  23.820  19.110   2.240
27736W        W   62   1.051  12.317   4.170
27737W        W   63  35.496   8.116  12.131
27738W        W   64  41.801  17.829  12.310
27739W        W   65   9.468  31.624  11.623
27740W        W   66  21.653   2.908   0.034
27741W        W   67  41.056  18.066  14.037
27742W        W   68  25.079   8.822   1.262
27743W        W   69  28.991  26.144   2.622
27744W        W   70  25.675  30.061   3.690
27745W        W   71  40.594  34.274   2.767
27746W        W   72  43.049  19.294   1.321
27747W        W   73  18.243  35.128  10.700
27748W        W   74   2.551  16.091  13.985
27749W        W   75  29.612  39.625   5.215
27750W        W   76  36.811  28.191  12.313
27751W        W   77   0.700  39.983  10.667
27752W        W   78  17.187   8.182  13.315
27753W        W   79  17.321  22.432  13.952
27754W        W   80  23.501  26.526   2.026
27755W        W   81  12.245  20.963  12.933
27756W        W   82  27.033  37.544  14.842
27757W        W   83   6.957  10.078   4.171
27758W        W   84  41.363   7.884   0.186
27759W        W   85  38.604  40.537  13.499
27760W        W   86   2.200  31.673   0.787
27761W        W   87  32.084   1.873   2.512
27762W        W   88  43.861  24.490  11.651
27763W        W   89  36.004  42.558   1.839
27764W        W   90  18.102  34.260   4.142
27765W        W   91  32.476  38.967   1.263
27766W        W   92  12.889  39.538   5.010
27767W        W   93   1.040  35.212   0.754
27768W        W   94  24.953  22.541   3.466
27769W        W   95  43.911  40.528  10.630
27770W        W   96  18.315   3.042   0.845
27771W        W   97  32.207  44.077   0.815
27772W        W   98   7.180  43.248  11.614
27773W        W   99  25.929  20.669   3.484
27774W        W  100  15.732  32.922  13.944
27775W        W  101   1.034  16.394  11.170
27776W        W  102   6.721   0.494  13.472
27777W        W  103  40.546  28.873  10.373
27778W        W  104   8.813  25.369  14.321
27779W        W  105   6.922  37.342  13.520
27780W        W  106   0.212  25.964  11.213
27781W        W  107   3.954   2.539   3.645
27782W        W  108   0.376   0.368   3.814
27783W        W  109  29.838  40.670   4.316
27784W        W  110  40.083  43.996   1.773
27785W        W  111  11.052  17.376   0.397
27786W        W  112  14.823  36.968  10.677
27787W        W  113   1.680  27.841  12.394
27788W        W  114  31.088  10.646   0.519
27789W        W  115   7.286   2.573   3.807
27790W        W  116  25.984  20.456   1.829
27791W        W  117  19.517  21.464   1.014
27792W        W  118  28.917  22.474  11.025
27793W        W  119  34.958  10.362  12.369
27794W        W  120  36.301  15.571   5.167
27795W        W  121  40.784  22.911  14.464
27796W        W  122   4.761  17.354  10.614
27797W        W  123  39.534   2.295  12.838
27798W        W  124  31.014   8.816  11.107
27799W        W  125   2.511   8.779  11.686
27800W        W  126  43.612   0.805   0.801
27801W        W  127  32.932  32.394   0.194
27802W        W  128  19.982  13.683  10.950
27803W        W  129  34.845  32.885   0.769
27804W        W  130  14.832  40.983  12.633
27805W        W  131  31.935  32.984   1.837
27806W        W  132  22.186  32.925  12.044
27807W        W  133  43.704  41.990   4.811
27808W        W  134  34.967  30.054  13.353
27809W        W  135  33.302  23.488  14.536
27810W        W  136  34.133  33.378  12.636
27811W        W  137  35.857  43.291  12.382
27812W        W  138  23.270  14.246   3.711
27813W        W  139  16.499  34.941   3.794
27814W        W  140  17.673  15.070   2.372
27815W        W  141  41.380  38.009   1.389
27816W        W  142  28.956  32.472   2.676
27817W        W  143  17.111  24.951   0.859
27818W        W  144  29.249  18.736  11.504
27819W        W  145  40.031   6.717   2.397
27820W        W  146   5.856   9.367   1.453
27821W        W  147  43.764  19.334  12.085
27822W        W  148  36.556  23.796   3.312
27823W        W  149  44.893  18.567  14.760
27824W        W  150   9.855   0.755  13.120
27825W        W  151  38.107  17.707  13.358
27826W        W  152  33.939  12.589   4.812
27827W        W  153  18.559  27.837  12.032
27828W        W  154  15.616  27.083   0.815
27829W        W  155  22.301  15.141   5.227
27830W        W  156   6.381  16.542  11.609
27831W        W  157  38.416  36.573   2.259
27832W        W  158  36.179  13.178   1.384
27833W        W  159   9.262  15.074   0.894
27834W        W  160   2.240  41.802  11.123
27835W        W  161  13.623   5.413   3.138
27836W        W  162  16.520  44.252   3.737
27837W        W  163   4.169   1.505  12.345
27838W        W  164  36.584  24.027  11.587
27839W        W  165  15.330  44.629  13.391
27840W        W  166   7.149  11.146   2.860
27841W        W  167  31.885  17.184  13.282
27842W        W  168   0.326  27.958   4.575
27843W        W  169  17.687  12.136   2.369
27844W        W  170   2.276  19.068  12.975
27845W        W  171  28.943  21.679   2.156
27846W        W  172  21.596  37.893  13.326
27847W        W  173   3.419  24.658  11.534
27848W        W  174  25.490  20.496   4.221
27849W        W  175  43.312   4.326   0.793
27850W        W  176  18.840  17.660   3.319
27851W        W  177   9.465  34.245  10.880
27852W        W  178   5.457  23.158   0.921
27853W        W  179  23.572  17.610   5.072
27854W        W  180  37.413  36.424   1.436
27855W        W  181   3.622   0.649  13.938
27856W        W  182  24.746  15.734  11.819
27857W        W  183  17.068  44.604   0.310
27858W        W  184  20.622  42.014   2.346
27859W        W  185  15.142  20.052   1.149
27860W        W  186  32.971  10.496  10.446
27861W        W  187  24.071  33.918   1.699
27862W        W  188  26.715   4.229   0.343
27863W        W  189   5.671  17.683  13.479
27864W        W  190  17.333   5.949  13.868
27865W        W  191  44.893   4.764  12.672
27866W        W  192  36.165  43.993   1.191
27867W        W  193   3.795  39.058  14.801
27868W        W  194  27.241  15.436  11.690
27869W        W  195  28.949  36.007   1.697
27870W        W  196  30.486  14.323  14.935
27871W        W  197  21.546  23.856   0.049
27872W        W  198  18.969  33.847  12.876
27873W        W  199  23.255  30.212   2.056
27874W        W  200  14.171  25.161  10.058
27875W        W  201  19.664   2.021   1.876
27876W        W  202  32.677  39.020   4.204
27877W        W  203  22.092  26.341  11.090
27878W        W  204  28.455  22.978   3.635
27879W        W  205  26.885  24.286  14.389
27880W        W  206  39.540   9.897   2.687
27881W        W  207  38.549   6.581  13.808
27882W        W  208  17.191  11.910   1.325
27883W        W  209  16.562   2.851   0.487
27884W        W  210  25.108  34.651   3.175
27885W        W  211  19.439   0.261   1.789
27886W        W  212  36.974  18.169  12.770
27887W        W  213   7.609  43.981  10.967
27888W        W  214  44.593  28.036  11.062
27889W        W  215  36.021  39.592  13.462
27890W        W  216  38.264   1.243  12.531
27891W        W  217   2.892  20.716   2.818
27892W        W  218  23.169  33.996  12.725
27893W        W  219  15.831  17.764   3.860
27894W        W  220  30.642  13.305  11.187
27895W        W  221  24.483  31.378  14.805
27896W        W  222  33.179   9.700   0.426
27897W        W  223   7.733  10.119   1.399
27898W        W  224  25.404  44.780  13.433
27899W        W  225   1.227  38.380   3.377
27900W        W  226  33.564  32.980   4.582
27901W        W  227  35.595  13.223   3.732
27902W        W  228  30.754  42.478  13.955
27903W        W  229  18.636  25.918   2.660
27904W        W  230  42.479   6.996   3.701
27905W        W  231  13.637  34.883   1.337
27906W        W  232  14.591  38.519  14.053
27907W        W  233  12.314  11.423  14.822
27908W        W  234  24.705  13.837  14.523
27909W        W  235   6.849   3.467  11.148
27910W        W  236  43.873   1.700  13.089
27911W        W  237  18.219   2.034   0.829
27912W        W  238  28.726   1.680   0.560
27913W        W  239   1.660  12.732   3.705
27914W        W  240  30.179  21.038   1.854
27915W        W  241  31.142   3.478   0.226
27916W        W  242  24.144  35.481  11.633
27917W        W  243  15.348  29.870  11.171
27918W        W  244   5.724  23.683   4.551
27919W        W  245  21.553  29.398   3.143
27920W        W  246  44.401  43.800  12.607
27921W        W  247  31.349  39.916  12.256
27922W        W  248  37.623  14.273   1.831
27923W        W  249  41.307   5.147   2.680
27924W        W  250  33.545  10.300   2.823
27925W        W  251  10.407   6.443  13.561
27926W        W  252  29.496  43.047   4.229
27927W        W  253   0.864  10.567   3.860
27928W        W  254  27.475  12.697  10.638
27929W        W  255  24.030  44.274  13.959
27930W        W  256   9.621  22.066   3.868
27931W        W  257  10.519  10.314   3.706
27932W        W  258   0.248  16.905  13.920
27933W        W  259   1.352   5.823   4.643
27934W        W  260   9.767   4.178   4.589
27935W        W  261  33.243  29.366  14.158
27936W        W  262  36.193   5.638   0.438
27937W        W  263   4.850  38.921  12.453
27938W        W  264  22.694  11.404  13.365
27939W        W  265  16.692  14.036  14.448
27940W        W  266  35.802  16.832  12.330
27941W        W  267  23.390  36.884   5.326
27942W        W  268  28.018  26.041   4.995
27943W        W  269  32.106   9.769  11.209
27944W        W  270  35.321   1.261   4.631
27945W        W  271  24.550   1.719  13.352
27946W        W  272  43.093  43.720   9.996
27947W        W  273   8.883  15.423   0.856
27948W        W  274  21.204  23.657  14.707
27949W        W  275  39.316   9.234   2.826
27950W        W  276  30.252   7.784  10.789
27951W        W  277  17.138  23.153   1.673
27952W        W  278  29.416   7.365   2.450
27953W        W  279  41.146  42.313   3.036
27954W        W  280  40.058  31.167   3.198
27955W        W  281   0.080  37.745   1.693
27956W        W  282  18.378  39.546   1.389
27957W        W  283  18.696  25.698  12.399
27958W        W  284  21.328  34.135   2.612
27959W        W  285  16.544  18.476  10.687
27960W        W  286   6.411  34.411  13.404
27961W        W  287  34.996  39.580  11.588
27962W        W  288  31.910  18.492   1.939
27963W        W  289  26.578  10.576  12.014
27964W        W  290  39.119  38.740   1.203
27965W        W  291   2.695  40.907   3.570
27966W        W  292  11.185  25.234  11.886
27967W        W  293  23.311  44.533  11.138
27968W        W  294  26.579  19.941   3.575
27969W        W  295  27.713  44.093  11.260
27970W        W  296  21.035  35.958   2.929
27971W        W  297  28.104  39.974   0.965
27972W        W  298   3.454  14.757  13.934
27973W        W  299  41.011  38.353   0.274
27974W        W  300  31.654  24.039  13.882
27975W        W  301  32.541   4.810  13.396
27976W        W  302  17.126  29.965  13.349
27977W        W  303   8.791   6.721  14.195
27978W        W  304   7.810   1.856  13.883
27979W        W  305   7.870  25.133  11.170
27980W        W  306  29.682   8.353  11.171
27981W        W  307  43.439   4.626  14.014
27982W        W  308  26.143  42.679   4.197
27983W        W  309  15.656  14.717  10.879
27984W        W  310  25.687  11.777  12.161
27985W        W  311   9.945  44.098   4.707
27986W        W  312  22.933  24.214   3.714
27987W        W  313  33.960  31.015  11.646
27988W        W  314  29.361  33.280  14.434
27989W        W  315  10.094  11.264  13.562
27990W        W  316   5.242  23.676   4.777
27991W        W  317  41.606  36.426   2.210
27992W        W  318   7.688   8.269   2.296
27993W        W  319  39.564  26.998   0.764
27994W        W  320  35.679  22.001  14.492
27995W        W  321   8.655  27.079   4.198
27996W        W  322  20.098   8.844   1.896
27997W        W  323  28.732  16.261  14.271
27998W        W  324   5.945  42.130  13.558
27999W        W  325  28.144  37.991   4.837
28000W        W  326  33.377  36.424  14.816
28001W        W  327  39.136   5.719   2.626
28002W        W  328  38.977  32.439  11.324
28003W        W  329  44.625   3.471   3.559
28004W        W  330   1.872  29.588  11.030
28005W        W  331  37.259  19.741   2.441
28006W        W  332   4.439   6.168   1.798
28007W        W  333  33.916  34.071  11.076
28008W        W  334   1.659   3.366   2.148
28009W        W  335  19.070  33.614  10.472
28010W        W  336  42.815   1.606  11.661
28011W        W  337  15.719   3.070   3.221
28012W        W  338  28.690   5.827   3.365
28013W        W  339  26.520  18.759  13.457
28014W        W  340   3.464  28.895   0.942
28015W        W  341  27.145  29.671   4.766
28016W        W  342  41.238  28.840  11.492
28017W        W  343  33.832  44.340  10.636
28018W        W  344   8.838  37.519  11.433
28019W        W  345   3.477   6.276   4.587
28020W        W  346  30.110  10.376  14.028
28021W        W  347   9.629  28.635  11.699
28022W        W  348  40.996  11.577  12.930
28023W        W  349   8.501  20.107   0.971
28024W        W  350  39.267  43.044   1.840
28025W        W  351  23.262  44.496   1.529
28026W        W  352  23.142  19.551   1.052
28027W        W  353  19.512  28.885  10.836
28028W        W  354  28.686  37.424   0.368
28029W        W  355  33.407  12.761  10.639
28030W        W  356  38.791  40.518   1.653
28031W        W  357   4.795   7.151   4.595
28032W        W  358  39.597  28.435   4.172
28033W        W  359  18.032  33.880  12.520
28034W        W  360  16.134  12.456  10.870
28035W        W  361   5.352  15.307  12.482
28036W        W  362  17.547  33.859  11.680
28037W        W  363  22.525  31.354   3.276
28038W        W  364  35.442   2.152   3.635
28039W        W  365  14.603  24.745  12.216
28040W        W  366   2.097  23.662  11.992
28041W        W  367  13.174  40.461   4.616
28042W        W  368   9.866  34.493   3.602
28043W        W  369  21.998  44.830   0.599
28044W        W  370  34.326  13.661  12.556
28045W        W  371  24.002  24.531  10.607
28046W        W  372  37.610  37.963   2.905
28047W        W  373   9.859  41.409  10.522
28048W        W  374  14.486  34.462  12.067
28049W        W  375   9.340  33.984   2.396
28050W        W  376  35.893  13.582   2.888
28051W        W  377  13.574  27.152  10.940
28052W        W  378   5.841   4.773   5.024
28053W        W  379  33.758   6.131   2.158
28054W        W  380  37.598  43.813  12.440
28055W        W  381  23.560  32.539   2.795
28056W        W  382  20.495  27.150   4.094
28057W        W  383   9.727  13.301   3.815
28058W        W  384   2.426  39.546  14.259
28059W        W  385   1.355  42.990  13.535
28060W        W  386  17.874  13.667   2.403
28061W        W  387   9.917  15.338   2.828
28062W        W  388  24.223   5.276   3.182
28063W        W  389  43.742  37.771  10.936
28064W        W  390  31.127   3.996   2.340
28065W        W  391  28.049  43.514  14.754
28066W        W  392  37.410   7.440  14.928
28067W        W  393  27.538   6.444   0.365
28068W        W  394  39.353  41.395   3.310
28069W        W  395  31.471  34.511   0.282
28070W        W  396  10.224  32.422   3.267
28071W        W  397  42.068  41.272  10.820
28072W        W  398   1.810  24.790   1.414
28073W        W  399  25.729  16.355   0.251
28074W        W  400  31.856  38.515   1.434
28075W        W  401  12.318  28.974  12.125
28076W        W  402  26.894  34.839   2.322
28077W        W  403  28.575  16.765   0.536
28078W        W  404   7.003  24.508  10.463
28079W        W  405  25.557  41.585   3.679
28080W        W  406  42.786  10.891  11.566
28081W        W  407  21.676  40.446  14.257
28082W        W  408  20.338  42.528  12.367
28083W        W  409  32.065  25.537   0.837
28084W        W  410   7.722   3.568   4.536
28085W        W  411  29.194  31.704   3.134
28086W        W  412   3.303  41.140  12.209
28087W        W  413  24.738  30.928  11.497
28088W        W  414   8.955  25.219   2.682
28089W        W  415  35.253  10.412   4.123
28090W        W  416  22.605  10.395  12.451
28091W        W  417  17.257  33.432  12.472
28092W        W  418  11.842  24.719   9.794
28093W        W  419  25.904  30.142   1.238
28094W        W  420  29.928   1.965  11.539
28095W        W  421  34.278   6.433  12.859
28096W        W  422  28.917  38.989  14.440
28097W        W  423  36.867   3.822  12.567
28098W        W  424  11.364   0.232   3.102
28099W        W  425   4.621  33.926   5.002
28100W        W  426   9.813  38.945   3.725
28101W        W  427  23.531  29.170  11.263
28102W        W  428  19.502   6.061   4.202
28103W        W  429  29.208  38.875   1.273
28104W        W  430  16.205  21.989  13.080
28105W        W  431  24.854   8.310  11.676
28106W        W  432  21.300  33.947  12.947
28107W        W  433  40.620  36.761  12.491
28108W        W  434   8.341  12.241   2.883
28109W        W  435  32.999  11.010  10.586
28110W        W  436  11.040  30.749   0.892
28111W        W  437  28.535  35.106   2.811
28112W        W  438  24.145  21.279  10.662
28113W        W  439  40.250  12.481   1.441
28114W        W  440  41.448  36.832   4.252
28115W        W  441  30.815  44.264   4.969
28116W        W  442   4.183  24.124  14.186
28117W        W  443   8.638  31.615   0.766
28118W        W  444  17.212   5.420  10.298
28119W        W  445   0.492  35.378   3.803
28120W        W  446  39.940  20.358  12.933
28121W        W  447  37.102  31.839   2.320
28122W        W  448  18.572   0.614   2.074
28123W        W  449   8.683  34.272   1.325
28124W        W  450  41.691  17.560   1.370
28125W        W  451  43.255  15.866   1.084
28126W        W  452  42.063   4.939   4.132
28127W        W  453   8.603   9.241   0.571
28128W        W  454  21.561  19.690   4.341
28129W        W  455  42.213   1.033  14.248
28130W        W  456  41.436  42.454  10.617
28131W        W  457  10.219  39.504   0.980
28132W        W  458   0.351  43.211   1.619
28133W        W  459  12.309  28.237   0.845
28134W        W  460  33.083  36.847   2.428
28135W        W  461  40.415  38.489  11.154
28136W        W  462  16.111   1.848  13.382
28137W        W  463  14.814  23.159  14.445
28138W        W  464  21.858  30.593   1.864
28139W        W  465   9.920  37.418   0.487
28140W        W  466  42.492  35.917   0.186
28141W        W  467  33.170  33.890  13.001
28142W        W  468  28.633  24.030   3.595
28143W        W  469  22.746   5.253  13.489
28144W        W  470   2.870  33.047  10.472
28145W        W  471   1.226  19.709  12.479
28146W        W  472   4.736  44.552   4.282
28147W        W  473  40.788  26.502   2.044
28148W        W  474  29.610   2.795   2.722
28149W        W  475   3.857  36.607  14.363
28150W        W  476  22.125   9.297   2.020
28151W        W  477  32.994  34.876  13.084
28152W        W  478  19.348  17.499  14.928
28153W        W  479  33.579  17.895  11.862
28154W        W  480  16.816   5.829  13.778
28155W        W  481   7.485  37.639   3.299
28156W        W  482  11.345   3.364  10.937
28157W        W  483  17.762  43.481   4.084
28158W        W  484  16.309  12.329   2.201
28159W        W  485  26.665  37.794  12.796
28160W        W  486   8.808  31.049  13.288
28161W        W  487  12.916  21.036  11.526
28162W        W  488  33.002  14.443   2.666
28163W        W  489  25.922  44.764  13.449
28164W        W  490  42.343   7.894   2.435
28165W        W  491  21.863  25.884  12.049
28166W        W  492  17.081  13.102  13.436
28167W        W  493   9.947  43.911  11.692
28168W        W  494  24.106   4.390  10.983
28169W        W  495  23.030   5.381   3.439
28170W        W  496  28.594  19.251  11.771
28171W        W  497   6.227  22.687  13.446
28172W        W  498   6.980  29.793   3.609
28173W        W  499  23.671  16.599   0.359
28174W        W  500  37.955  14.191  11.016
28175W        W  501   8.669  31.392   1.482
28176W        W  502  44.926  33.390  10.208
28177W        W  503   3.992  43.793   0.981
28178W        W  504  14.647  22.457   1.834
28179W        W  505   6.130  18.574  10.452
28180W        W  506  23.972   2.227   3.259
28181W        W  507  38.898  13.878   1.927
28182W        W  508  33.398  35.118   2.632
28183W        W  509  13.134  34.931   2.168
28184W        W  510  33.547  18.565  11.099
28185W        W  511  31.954  35.957   4.581
28186W        W  512  30.136  32.954   2.280
28187W        W  513   5.012  41.542  13.076
28188W        W  514  17.313  24.554  12.548
28189W        W  515  23.056  15.654  13.326
28190W        W  516  20.241  12.860   2.797
28191W        W  517  40.357  30.422   4.825
28192W        W  518  28.125  33.676   1.603
28193W        W  519  20.122   6.343   3.455
28194W        W  520  43.017  22.391   1.042
28195W        W  521  40.460  44.774   4.241
28196W        W  522  44.893  17.245   4.228
28197W        W  523   8.151  34.394   3.270
28198W        W  524   7.730  19.698  13.339
28199W        W  525  20.097  41.879  10.971
28200W        W  526  14.260  16.735  12.108
28201W        W  527  13.231   8.141   4.269
28202W        W  528   8.200   7.364   3.328
28203W        W  529  30.860  39.507   3.197
28204W        W  530   0.809  23.733   0.744
28205W        W  531  10.841  12.860   4.184
28206W        W  532   0.494   6.472   0.738
28207W        W  533  19.216   6.892  13.496
28208W        W  534  32.603  31.521   4.153
28209W        W  535  36.037  20.145  14.057
28210W        W  536  16.763  36.206  11.211
28211W        W  537  18.888  13.872   2.235
28212W        W  538  39.380  33.301  13.507
28213W        W  539  21.683  16.217   0.708
28214W        W  540  14.181   1.912   3.127
28215W        W  541  41.463  19.536   0.049
28216W        W  542  35.441  13.703   1.453
28217W        W  543  40.841  12.560  10.665
28218W        W  544  14.633  29.553  11.589
28219W        W  545  20.040  40.209  11.455
28220W        W  546  36.018   0.240   4.587
28221W        W  547  31.346  27.972   2.806
28222W        W  548   0.339  12.675  14.906
28223W        W  549   6.760  38.903   0.508
28224W        W  550   9.314  25.596   2.770
28225W        W  551  36.973  38.102  12.744
28226W        W  552  28.043  25.455  13.495
28227W        W  553  44.751   7.424  12.052
28228W        W  554  37.272  13.130  12.164
28229W        W  555  43.857  23.652  14.445
28230W        W  556  40.437  25.704   0.446
28231W        W  557   5.001  22.320   3.653
28232W        W  558  25.132  43.513   3.450
28233W        W  559  16.848  17.833  14.553
28234W        W  560  13.191   5.383  14.990
28235W        W  561  13.789   8.466   0.274
28236W        W  562   9.418  21.689   1.903
28237W        W  563  25.039  33.589   3.149
28238W        W  564  15.218  43.062   4.578
28239W        W  565  14.185  26.919   2.857
28240W        W  566  39.402   2.466   4.053
28241W        W  567  44.836  30.520  13.884
28242W        W  568   8.146  14.649   0.854
28243W        W  569  19.308  36.406   4.020
28244W        W  570  34.432  35.914   5.229
28245W        W  571  25.664  32.608  14.921
28246W        W  572  36.026  15.182  14.344
28247W        W  573  26.267   1.337   5.069
28248W        W  574  41.373  26.589  11.614
28249W        W  575  24.925  39.121  11.054
28250W        W  576  20.206  23.981  12.046
28251W        W  577  43.562  26.635  12.556
28252W        W  578  33.982  24.211   2.759
28253W        W  579  35.506  32.675  10.249
28254W        W  580   2.813  16.003  12.129
28255W        W  581   2.824   3.392   3.359
28256W        W  582  27.908  22.055  13.273
28257W        W  583   0.707  15.708   9.969
28258W        W  584  23.734   0.685  13.501
28259W        W  585  16.656   8.850   2.375
28260W        W  586   3.178  12.235  11.617
28261W        W  587  22.130  24.000  10.748
28262W        W  588  34.628  22.359   1.234
28263W        W  589  44.955  38.417  12.093
28264W        W  590  18.748   4.471  11.494
28265W        W  591  18.638  23.812  13.934
28266W        W  592  26.845  38.861  14.376
28267W        W  593  32.447  17.702  13.851
28268W        W  594  21.605   2.164  10.651
28269W        W  595  43.293  20.769  13.796
28270W        W  596  33.618  42.744  10.618
28271W        W  597  27.033   0.449   4.595
28272W        W  598  21.893  41.434   4.967
28273W        W  599  23.034   8.155   0.911
28274W        W  600   4.662  30.439   4.961
28275W        W  601  28.020  31.680   4.136
28276W        W  602  29.659   2.262   4.141
28277W        W  603  23.615  23.524  11.152
28278W        W  604  30.982  28.916   4.800
28279W        W  605  43.021  35.427  13.466
28280W        W  606  24.127  35.894  13.450
28281W        W  607  43.668  32.358  11.157
28282W        W  608  12.288  44.557  14.429
28283W        W  609  27.029  34.826  13.281
28284W        W  610  28.982  24.467  11.023
28285W        W  611  37.313   6.794   0.800
28286W        W  612  33.227   6.963  14.871
28287W        W  613  13.557   1.333  12.028
28288W        W  614  19.065  31.851   4.149
28289W        W  615  31.919  27.636   1.326
28290W        W  616  22.228  35.864   0.732
28291W        W  617  23.074   6.391   3.454
28292W        W  618   5.310  12.674   4.123
28293W        W  619  22.824  20.528  13.399
28294W        W  620   9.903  24.960  14.851
28295W        W  621   2.488  38.457  11.209
28296W        W  622  10.697  26.578   2.416
28297W        W  623  10.235  29.898   3.835
28298W        W  624  27.149  40.202   3.735
28299W        W  625  18.738  42.044  11.598
28300W        W  626  34.314  24.706   2.741
28301W        W  627  11.582  31.046   3.511
28302W        W  628  31.050  27.629  11.471
28303W        W  629  15.267  41.053  12.373
28304W        W  630  17.555   0.796  12.890
28305W        W  631  12.579  19.840  13.714
28306W        W  632  39.330  26.094   4.805
28307W        W  633   1.344  28.875  12.014
28308W        W  634  26.634   5.735   1.055
28309W        W  635  16.714  22.205  13.792
28310W        W  636  20.577  12.105   1.773
28311W        W  637  26.220  36.965   0.773
28312W        W  638  29.923  13.080  12.458
28313W        W  639  27.116  44.717  12.556
28314W        W  640  23.057  25.160  13.897
28315W        W  641  39.950  30.351   1.973
28316W        W  642   6.739   1.468   4.089
28317W        W  643  19.272  26.569   1.671
28318W        W  644  31.214  41.623  14.741
28319W        W  645   3.977   8.985  11.572
28320W        W  646  36.358  24.204  14.408
28321W        W  647  36.026  25.512   3.584
28322W        W  648  31.896  38.963  11.546
28323W        W  649  15.813  29.440   4.108
28324W        W  650  32.669  11.848  12.524
28325W        W  651   7.777  19.752   0.774
28326W        W  652  12.327   9.253  14.126
28327W        W  653  31.015   5.117  13.307
28328W        W  654  34.188   4.879   1.355
28329W        W  655  37.411  13.346  10.807
28330W        W  656  35.076  39.367  14.647
28331W        W  657  36.009  31.259   4.875
28332W        W  658  41.029  14.217  11.927
28333W        W  659  15.105  41.553  13.951
28334W        W  660  33.982  44.387   2.928
28335W        W  661   2.652   3.813  12.025
28336W        W  662  17.135  14.266   2.866
28337W        W  663   3.477   4.705  14.935
28338W        W  664  16.592  44.306   1.950
28339W        W  665  33.922  39.792   4.243
28340W        W  666  27.520  26.724  10.241
28341W        W  667   7.282  41.912  10.991
28342W        W  668   2.917   3.508  10.474
28343W        W  669   3.829  30.578   4.983
28344W        W  670  40.461  44.247  11.011
28345W        W  671  39.625  27.671  12.329
28346W        W  672   4.665  41.448  10.417
28347W        W  673  26.185   3.947   2.013
28348W        W  674  34.131  34.904   1.981
28349W        W  675  42.761  39.241   2.834
28350W        W  676  12.463  22.671   1.533
28351W        W  677  32.372  16.824  12.924
28352W        W  678  13.510  27.930   1.826
28353W        W  679  44.755  43.791   0.357
28354W        W  680  15.151  11.693  10.553
28355W        W  681  34.311   6.594   4.247
28356W        W  682  43.552  33.868   1.455
28357W        W  683  38.008  31.559  13.704
28358W        W  684  35.092   5.207  11.090
28359W        W  685  36.055  16.992  12.770
28360W        W  686  14.295   3.567  13.842
28361W        W  687  38.479  43.142  14.977
28362W        W  688  43.509  25.831  13.549
28363W        W  689  31.469  10.951  11.019
28364W        W  690  35.153   3.829   0.281
28365W        W  691  10.623  11.865  14.493
28366W        W  692  23.250  28.960  13.574
28367W        W  693  34.657  33.252   1.611
28368W        W  694   7.640   3.497   2.782
28369W        W  695  35.894  19.487   2.258
28370W        W  696  35.937   4.007   2.188
28371W        W  697   6.856  12.655   0.387
28372W        W  698  16.264  39.416   4.606
28373W        W  699  12.295  41.055  12.958
28374W        W  700  14.841  10.825  10.478
28375W        W  701  15.612  40.108  13.099
28376W        W  702  15.077  26.535   1.058
28377W        W  703  16.255  23.126  10.323
28378W        W  704  34.657  19.583  10.742
28379W        W  705  16.187  12.717   4.627
28380W        W  706  31.183   7.042  12.381
28381W        W  707   7.126  33.891   0.799
28382W        W  708  18.077  18.864   4.908
28383W        W  709   0.228   6.978   0.442
28384W        W  710  10.882  26.434   0.471
28385W        W  711   7.349  11.196  11.476
28386W        W  712  25.079  31.325   4.366
28387W        W  713   0.469  17.624   0.400
28388W        W  714   2.962   0.861  13.651
28389W        W  715  40.321  17.820   3.305
28390W        W  716  26.585  43.394  10.610
28391W        W  717  43.262  37.132  12.012
28392W        W  718   7.550  37.938  10.743
28393W        W  719  38.797  32.564   1.704
28394W        W  720  25.025  15.057   4.139
28395W        W  721   8.537  20.912  13.036
28396W        W  722   4.466  33.563  13.622
28397W        W  723  31.980   5.434  11.973
28398W        W  724  26.204  33.420   2.675
28399W        W  725  40.099  36.508   1.887
28400W        W  726  39.042   5.692  11.138
28401W        W  727  33.311  26.645  14.994
28402W        W  728  29.613  42.785  12.454
28403W        W  729  37.067  21.566  14.154
28404W        W  730  39.943  16.012   3.384
28405W        W  731  19.011  38.880   0.999
28406W        W  732  22.205  23.916   0.706
28407W        W  733  35.962  13.649   2.306
28408W        W  734  31.061  44.051  12.525
28409W        W  735  35.503  20.855   3.166
28410W        W  736  24.527  20.017   1.255
28411W        W  737  25.758  34.335  10.741
28412W        W  738   1.805  17.466   2.452
28413W        W  739  33.196  30.936  14.897
28414W        W  740   9.087   5.758   4.485
28415W        W  741   4.905  44.890   0.993
28416W        W  742  12.369  18.791   2.154
28417W        W  743  43.952  38.012  10.517
28418W        W  744   9.157  22.075   3.618
28419W        W  745  43.021  34.336   2.245
28420W        W  746  23.522  15.097  11.532
28421W        W  747   3.827  40.367   3.813
28422W        W  748  18.336  24.846  11.837
28423W        W  749  33.141  26.580  13.290
28424W        W  750  18.208  35.951  13.063
28425W        W  751  15.651  19.225  12.994
28426W        W  752   5.164  33.380  10.754
28427W        W  753  16.360   1.313  11.442
28428W        W  754  10.400   7.202  12.134
28429W        W  755  33.683  39.734  11.366
28430W        W  756   9.357  20.703   1.323
28431W        W  757   9.633  21.778  12.517
28432W        W  758  42.007  40.784   4.948
28433W        W  759  25.132  15.905   0.817
28434W        W  760   4.929  30.496  10.367
28435W        W  761  16.110  40.243   4.370
28436W        W  762  42.370  32.846  13.810
28437W        W  763  18.088  28.080  13.809
28438W        W  764  31.161  16.755   3.200
28439W        W  765   8.916  43.783  12.943
28440W        W  766   9.378  23.535  11.566
28441W        W  767  35.520  44.848   1.843
28442W        W  768  40.962  21.637   4.621
28443W        W  769   2.735   1.958   4.165
28444W        W  770  10.395  31.305   4.342
28445W        W  771  42.240  41.945  12.799
28446W        W  772  13.224  44.197  13.525
28447W        W  773  40.275   5.164   4.554
28448W        W  774   8.224  33.666  13.890
28449W        W  775  22.547  37.501  13.357
28450W        W  776  40.466  18.221   2.388
28451W        W  777   8.316  28.517   0.522
28452W        W  778  28.061  20.165  14.564
28453W        W  779  23.239   9.195  10.688
28454W        W  780  39.091  28.663   0.801
28455W        W  781  23.868  43.429  10.445
28456W        W  782  39.563  30.399   4.118
28457W        W  783  21.070  41.913   4.978
28458W        W  784  38.428  19.434   3.122
28459W        W  785   0.356  23.543  10.625
28460W        W  786  11.347  14.767  14.468
28461W        W  787   9.373  34.157   1.915
28462W        W  788  27.109  24.754  11.098
28463W        W  789  36.090  32.969  12.345
28464W        W  790   9.350  44.335   1.321
28465W        W  791   9.018  16.480   4.283
28466W        W  792  37.895  19.314   1.249
28467W        W  793  23.690   5.291   2.443
28468W        W  794  15.807  10.271   1.775
28469W        W  795  23.714   6.104   1.207
28470W        W  796  21.556  35.864   2.808
28471W        W  797  33.227  38.469   1.676
28472W        W  798   1.418   1.027   2.251
28473W        W  799   6.946  43.078  12.609
28474W        W  800  41.425   8.626  13.706
28475W        W  801  18.521   2.692  12.392
28476W        W  802  22.621   4.322   2.270
28477W        W  803  32.575  40.748   4.396
28478W        W  804  38.362   5.499  12.950
28479W        W  805  21.511  32.713  13.018
28480W        W  806  16.250  33.606  12.441
28481W        W  807  43.775  36.810  12.871
28482W        W  808  25.597  39.249   1.870
28483W        W  809   4.948  44.694   3.578
28484W        W  810  19.289   9.843   0.219
28485W        W  811  18.651   8.704   3.613
28486W        W  812  38.518  25.555   1.811
28487W        W  813   1.408  33.835  13.967
28488W        W  814  19.046  41.462   1.802
28489W        W  815   7.386  30.390   1.510
28490W        W  816   4.219   9.097   0.189
28491W        W  817  13.598  14.263   4.329
28492W        W  818  35.818  32.377  11.522
28493W        W  819  36.043  33.359   4.404
28494W        W  820  37.784  23.807   4.244
28495W        W  821  21.132  13.747   4.016
28496W        W  822  14.602  10.135   0.916
28497W        W  823  27.547  43.596   2.755
28498W        W  824  40.092   9.819  12.019
28499W        W  825  23.123   4.382  14.426
28500W        W  826   6.215  22.981  10.034
28501W        W  827  40.057  30.561   3.408
28502W        W  828  20.537  17.853   2.308
28503W        W  829  25.860  21.139   3.649
28504W        W  830  17.269  12.673   3.542
28505W        W  831  22.601   7.403   0.536
28506W        W  832  44.020  39.602  10.934
28507W        W  833  11.348  19.039   2.390
28508W        W  834  42.481  11.204  14.306
28509W        W  835  26.550  44.745   0.403
28510W        W  836  10.055  31.529   2.715
28511W        W  837  28.460  10.468   3.692
28512W        W  838  22.967  31.680  13.359
28513W        W  839  20.691  17.236  11.336
28514W        W  840  40.068  19.407  13.960
28515W        W  841  33.772  37.810  12.356
28516W        W  842  37.269  25.516   2.244
28517W        W  843  28.449  41.628  14.811
28518W        W  844   5.501  27.039  12.359
28519W        W  845  14.561  39.912  14.967
28520W        W  846  16.067  11.775  14.490
28521W        W  847  39.598  16.302   1.184
28522W        W  848  14.235  30.191  14.362
28523W        W  849  43.592  42.304  12.042
28524W        W  850  37.447  33.238   1.988
28525W        W  851  40.334  25.728  13.409
28526W        W  852  31.446  40.995   0.246
28527W        W  853  38.372  18.059  11.915
28528W        W  854  37.999  35.454   3.775
28529W        W  855  30.653  17.013   4.495
28530W        W  856  22.855   3.565   0.334
28531W        W  857   3.170  26.948   3.236
28532W        W  858  15.528  32.454   3.654
28533W        W  859  14.693  38.947   0.853
28534W        W  860  24.876  15.712  14.842
28535W        W  861  29.985  15.287  12.378
28536W        W  862  30.839  32.411   2.395
28537W        W  863   9.761   8.636   2.618
28538W        W  864  11.130  31.486  14.402
28539W        W  865  14.527  28.907  14.747
28540W        W  866  33.880  16.617  10.381
28541W        W  867  22.295   3.701  12.152
28542W        W  868   3.827  24.666  11.081
28543W        W  869  35.422  30.655   2.799
28544W        W  870  20.638   5.910   1.899
28545W        W  871  23.420  40.189   5.185
28546W        W  872  23.874  44.726  11.109
28547W        W  873   6.607  14.846   0.799
28548W        W  874   1.911  22.026   0.756
28549W        W  875   7.111   4.926  14.513
28550W        W  876  30.984   2.928   1.500
28551W        W  877  44.850  37.834   1.233
28552W        W  878  21.477   8.758  11.574
28553W        W  879  30.693  18.992  13.254
28554W        W  880  15.202  16.484  14.135
28555W        W  881   8.386  35.049   0.385
28556W        W  882  26.023  27.292  11.922
28557W        W  883  18.575  34.870  10.341
28558W        W  884  38.444  11.335  11.765
28559W        W  885   4.684  19.083   1.991
28560W        W  886  19.791  20.248   0.197
28561W        W  887  25.010  38.016   2.657
28562W        W  888   7.599  16.749   2.894
28563W        W  889  14.713   0.299  12.838
28564W        W  890  42.891  32.456  14.327
28565W        W  891  17.641   9.256   0.378
28566W        W  892  10.895  31.170  14.058
28567W        W  893   2.554  41.434   1.691
28568W        W  894  44.867  30.959   3.072
28569W        W  895  21.313  27.246  12.054
28570W        W  896  19.924   2.210  13.467
28571W        W  897  32.198  44.518   0.119
28572W        W  898   4.257  30.676  13.920
28573W        W  899   0.184  25.298  12.055
28574W        W  900  10.673  14.557  11.113
28575W        W  901  16.634   1.771   4.374
28576W        W  902  43.459  35.130  12.092
28577W        W  903  24.765  32.499   3.690
28578W        W  904  37.242  32.812  10.707
28579W        W  905  35.793  10.119   1.197
28580W        W  906  22.606  37.584  10.722
28581W        W  907  20.611  33.013   4.549
28582W        W  908  13.819   9.588  11.433
28583W        W  909  18.157   2.324  12.343
28584W        W  910  40.083  26.945   3.839
28585W        W  911   3.352   3.755  13.608
28586W        W  912  32.774  31.239   1.892
28587W        W  913   4.000  26.919   2.184
28588W        W  914  40.776  25.663   0.822
28589W        W  915  34.071  34.382   5.038
28590W        W  916   0.172   1.373   1.408
28591W        W  917  37.011  22.638   3.784
28592W        W  918  23.560  13.543   1.282
28593W        W  919  24.306  40.606  12.581
28594W        W  920   2.412  20.795  14.293
28595W        W  921  24.172  10.914   3.293
28596W        W  922  27.182  27.551  10.659
28597W        W  923  29.275  36.882   4.655
28598W        W  924  25.083  16.792  10.613
28599W        W  925  43.020  30.002   2.311
28600W        W  926   9.377  36.585  12.114
28601W        W  927  19.825  25.496   2.701
28602W        W  928  19.230   4.661  11.411
28603W        W  929  39.798   7.909  11.536
28604W        W  930   4.320  34.458  12.349
28605W        W  931   4.680   2.675   2.326
28606W        W  932   4.452  32.331   3.477
28607W        W  933  14.910  13.015  10.710
28608W        W  934  12.845   7.789  12.619
28609W        W  935  22.094  34.162   2.967
28610W        W  936  42.471  26.544   1.294
28611W        W  937  30.659  42.753  12.864
28612W        W  938  28.370  36.011  13.161
28613W        W  939  35.401  24.376   4.267
28614W        W  940  44.118  16.986   0.894
28615W        W  941  40.028   4.370  11.623
28616W        W  942  33.608  13.495   4.688
28617W        W  943  38.485   9.134  12.594
28618W        W  944  40.915  22.943  14.993
28619W        W  945  36.364  23.766   4.700
28620W        W  946  27.981  13.048  11.162
28621W        W  947  29.642  31.392  12.348
28622W        W  948  39.196   0.845  14.348
28623W        W  949  42.553   2.425   1.351
28624W        W  950   9.021  19.747  14.962
28625W        W  951   0.653  15.787   3.704
28626W        W  952   2.522  22.437   0.313
28627W        W  953  11.419   0.793  14.638
28628W        W  954  40.398  25.209  13.487
28629W        W  955  37.569  41.393  11.366
28630W        W  956  27.775  14.352   2.128
28631W        W  957  35.289  15.697   3.311
28632W        W  958   0.252   4.404   3.806
28633W        W  959  30.599   6.006   1.267
28634W        W  960  27.581   7.181  12.077
28635W        W  961  30.579  34.376   2.741
28636W        W  962   2.240   8.674   4.177
28637W        W  963  42.115  21.213  10.160
28638W        W  964  40.428  26.932  10.719
28639W        W  965  41.796  27.224  11.991
28640W        W  966  36.604  42.814   1.814
28641W        W  967  25.033  17.326  10.713
28642W        W  968  10.916  28.666  10.737
28643W        W  969  34.293   7.190   5.048
28644W        W  970  41.029  35.299   1.922
28645W        W  971  34.521  19.523  14.869
28646W        W  972  20.732   6.144  13.484
28647W        W  973  31.575  25.458  10.622
28648W        W  974  13.596  32.073   1.237
28649W        W  975   3.720  27.475  13.649
28650W        W  976  38.472   5.571  11.021
28651W        W  977  30.537  38.555   3.100
28652W        W  978  22.394  39.321  14.430
28653W        W  979  15.187  43.014   3.705
28654W        W  980  10.865  27.973   0.738
28655W        W  981  28.925   9.712  14.466
28656W        W  982  33.530  26.524   1.994
28657W        W  983  35.650  23.097  12.795
28658W        W  984  35.080   3.124   3.218
28659W        W  985  33.698  36.111  13.435
28660W        W  986  40.140  32.102  11.955
28661W        W  987  40.796  29.556  13.398
28662W        W  988  29.465   4.657  14.940
28663W        W  989   6.271  36.369  12.092
28664W        W  990  14.419  29.316   4.055
28665W        W  991  25.143  26.445   2.157
28666W        W  992  30.106   5.368   1.881
28667W        W  993   4.290   5.894  13.033
28668W        W  994  18.804  37.973   2.108
28669W        W  995  24.559  31.569   2.395
28670W        W  996  13.178   5.236   1.485
28671W        W  997  39.530  18.818   2.714
28672W        W  998  23.161   9.807   4.843
28673W        W  999  32.659  24.692   4.633
28674W        W 1000   2.925  40.351   2.835
28675W        W 1001   2.776  19.591  12.052
28676W        W 1002  27.128  23.084   2.814
28677W        W 1003  42.357  28.424   3.673
28678W        W 1004   4.686   0.395   0.893
28679W        W 1005   3.241  27.803   2.685
28680W        W 1006   3.484  38.059  12.568
28681W        W 1007  15.640   9.989  14.505
28682W        W 1008  18.761  42.566  11.607
28683W        W 1009  10.323  43.561   0.962
28684W        W 1010  31.736   7.257  11.066
28685W        W 1011  17.287  36.571  13.001
28686W        W 1012  38.345   2.492   1.801
28687W        W 1013  34.695  19.936   2.733
28688W        W 1014  31.797   9.038  14.932
28689W        W 1015  15.370   6.345  14.830
28690W        W 1016  11.768  38.233  14.126
28691W        W 1017  44.973  43.506  11.100
28692W        W 1018  37.336  42.332  13.066
28693W        W 1019   9.868  28.626  14.927
28694W        W 1020  23.797  35.596   1.236
28695W        W 1021  34.439  17.142   4.738
28696W        W 1022  41.823   4.754  13.906
28697W        W 1023  13.380   9.169   4.222
28698W        W 1024  31.050  38.739   1.808
28699W        W 1025   3.772   9.295   0.911
28700W        W 1026  44.727  36.114  12.907
28701W        W 1027   5.668   2.334   4.573
28702W        W 1028   6.206  29.576  14.874
28703W        W 1029   1.261  31.442   0.699
28704W        W 1030  39.709   5.337   4.938
28705W        W 1031  41.551  15.362  13.073
28706W        W 1032  25.094   0.179  10.638
28707W        W 1033  13.865  16.459  11.027
28708W        W 1034   6.330  44.060   1.253
28709W        W 1035  17.065  32.095  12.076
28710W        W 1036  39.290  21.532   3.151
28711W        W 1037  42.410  38.464   2.219
28712W        W 1038  34.922  37.995  10.783
28713W        W 1039  33.480  28.279  14.243
28714W        W 1040   6.454  15.667  11.905
28715W        W 1041  13.797  25.936  10.530
28716W        W 1042  30.208  21.198  14.032
28717W        W 1043  14.111   2.926  12.418
28718W        W 1044   5.229  15.239   1.792
28719W        W 1045   7.799  21.973   4.624
28720W        W 1046  14.465   1.519   1.882
28721W        W 1047   0.266  27.793  12.228
28722W        W 1048   5.679   8.723   0.379
28723W        W 1049   3.746  12.722  12.830
28724W        W 1050  23.573   8.633  14.949
28725W        W 1051  27.103  31.103   4.190
28726W        W 1052  21.483  35.016   3.210
28727W        W 1053  32.124  10.838   3.383
28728W        W 1054   1.381  32.564   4.374
28729W        W 1055   0.912  40.335  12.366
28730W        W 1056   7.211  39.894   3.755
28731W        W 1057  43.869  33.106  10.781
28732W        W 1058   1.022  19.028   3.329
28733W        W 1059  30.692  10.490  12.194
28734W        W 1060  29.159   2.005  13.128
28735W        W 1061  21.671  22.751   0.146
28736W        W 1062   9.411  33.793   4.214
28737W        W 1063  13.283   4.459   3.306
28738W        W 1064   6.110  38.065  11.703
28739W        W 1065  31.243  36.181  10.610
28740W        W 1066  33.623   7.936   1.974
28741W        W 1067  33.949  17.028  10.698
28742W        W 1068  11.913   5.492   1.123
28743W        W 1069  30.735  10.640   4.192
28744W        W 1070   2.281  32.138  14.455
28745W        W 1071  30.356  19.627  13.808
28746W        W 1072  44.426  41.572  14.521
28747W        W 1073  30.205  12.568   4.626
28748W        W 1074  15.033  20.145   2.195
28749W        W 1075   4.143  14.124  11.765
28750W        W 1076  23.733  32.610   0.145
28751W        W 1077  30.180  23.689  14.027
28752W        W 1078  35.450  33.443   5.065
28753W        W 1079  44.000  22.557  14.017
28754W        W 1080  22.791  11.858  11.600
28755W        W 1081  22.332  35.057   3.795
28756W        W 1082  28.008  14.212  12.783
28757W        W 1083   3.601   0.518   1.833
28758W        W 1084   3.693  31.071  13.391
28759W        W 1085  41.938  38.981  13.070
28760W        W 1086  42.426  16.169   2.802
28761W        W 1087  26.619  33.760  10.732
28762W        W 1088   4.171  44.934   3.754
28763W        W 1089   0.787  32.160   2.227
28764W        W 1090  37.165   5.337  13.471
28765W        W 1091   0.686  12.765  11.007
28766W        W 1092  11.805  33.095  14.055
28767W        W 1093  25.137  41.553   0.824
28768W        W 1094   8.408  43.861  13.071
28769W        W 1095  19.027  41.070  11.460
28770W        W 1096  38.835  10.366   3.698
28771W        W 1097  40.925  18.414  11.587
28772W        W 1098  24.280  11.724   5.230
28773W        W 1099   6.209  14.909   0.043
28774W        W 1100  24.180   7.424  13.531
28775W        W 1101  22.078  39.522  10.994
28776W        W 1102  44.461   7.777   0.926
28777W        W 1103  20.133  30.632   1.192
28778W        W 1104  31.901  32.980   4.651
28779W        W 1105  15.615  31.091  11.781
28780W        W 1106  44.487  34.472   4.231
28781W        W 1107  31.897  10.269   2.784
28782W        W 1108   5.734  24.240   0.929
28783W        W 1109   2.519  15.059   1.379
28784W        W 1110  31.504  32.189  12.641
28785W        W 1111  19.499   3.957   3.262
28786W        W 1112  10.264  35.403   3.769
28787W        W 1113  31.126  43.555   3.100
28788W        W 1114  10.612   6.794   3.249
28789W        W 1115  38.317  13.702   1.949
28790W        W 1116  40.073   9.439   0.455
28791W        W 1117   0.749   9.892  14.735
28792W        W 1118  16.226  27.576  11.863
28793W        W 1119  23.629  18.012  10.683
28794W        W 1120  27.336   9.843  14.304
28795W        W 1121   8.221  33.865  12.860
28796W        W 1122  38.361   0.768   2.432
28797W        W 1123  16.811  38.822  12.144
28798W        W 1124  39.264   9.713   3.079
28799W        W 1125   7.851  27.477  14.973
28800W        W 1126  29.109  38.217   2.741
28801W        W 1127   4.905  42.760  11.010
28802W        W 1128  10.600  25.466  13.037
28803W        W 1129   7.897  40.063   2.756
28804W        W 1130  38.119  18.286   4.129
28805W        W 1131   0.256  10.643  10.441
28806W        W 1132  18.025  23.137  12.652
28807W        W 1133  29.714  43.952   2.169
28808W        W 1134  16.516  19.760  13.473
28809W        W 1135   8.656   2.238  13.892
28810W        W 1136  30.513  19.115  13.755
28811W        W 1137  17.730  42.864   1.052
28812W        W 1138  18.241  43.063   4.673
28813W        W 1139  17.056  43.101  12.407
28814W        W 1140  30.516   8.673  12.323
28815W        W 1141  41.605  12.269  13.974
28816W        W 1142  41.329  41.065  13.718
28817W        W 1143  23.147   0.902   2.473
28818W        W 1144   9.841  20.890   0.371
28819W        W 1145  21.585   7.896   1.755
28820W        W 1146   8.963   7.356   0.885
28821W        W 1147  22.729  15.760   3.167
28822W        W 1148  24.656  18.475  11.080
28823W        W 1149  12.867  23.066  12.457
28824W        W 1150  39.481   7.329  12.804
28825W        W 1151   5.283   0.204   1.768
28826W        W 1152  32.012  15.070  13.820
28827W        W 1153  22.044  23.028   1.106
28828W        W 1154   7.089   4.344  10.735
28829W        W 1155  14.719  23.257  11.983
28830W        W 1156  34.116   4.980   4.146
28831W        W 1157  24.811  39.630   0.206
28832W        W 1158  13.739  32.125  11.362
28833W        W 1159  16.752   4.591  13.966
28834W        W 1160  26.696  25.736  13.802
28835W        W 1161  24.604   5.825   3.744
28836W        W 1162  15.945  38.959  13.868
28837W        W 1163  16.555   4.223  12.571
28838W        W 1164  12.645   3.023  12.460
28839W        W 1165  31.937  43.934   4.582
28840W        W 1166  34.592  31.276  13.776
28841W        W 1167  36.706  31.496   0.392
28842W        W 1168   2.339  40.511   1.265
28843W        W 1169  25.003   6.755   3.533
28844W        W 1170  12.720  18.277  11.171
28845W        W 1171  30.840  31.632  11.070
28846W        W 1172   4.784  14.856  14.259
28847W        W 1173  16.087  23.568   2.701
28848W        W 1174  23.835   8.848   0.361
28849W        W 1175   5.966  30.040   2.417
28850W        W 1176  34.709  27.180   4.173
28851W        W 1177   7.249  14.692   5.262
28852W        W 1178  15.428  26.376  10.176
28853W        W 1179  19.089  17.451   3.740
28854W        W 1180   9.756  12.363  13.910
28855W        W 1181  15.208  31.995   1.296
28856W        W 1182  31.657  17.234  14.792
28857W        W 1183  21.828   7.872   3.535
28858W        W 1184  36.839  11.781   0.788
28859W        W 1185  24.623   2.180   2.425
28860W        W 1186  12.173  28.386  14.326
28861W        W 1187   9.632  16.296  14.896
28862W        W 1188  33.974  35.065  14.585
28863W        W 1189  32.563  24.424  14.792
28864W        W 1190  18.251   5.038   0.005
28865W        W 1191  43.384  15.212   0.463
28866W        W 1192  19.303  27.866  14.808
28867W        W 1193  24.267  20.785   2.850
28868W        W 1194  16.495  36.939  14.852
28869W        W 1195  14.095  14.643  13.557
28870W        W 1196   3.673  23.112  10.243
28871W        W 1197   8.652   5.900   0.932
28872W        W 1198  27.813  23.127   0.298
28873W        W 1199  10.680  28.216  12.545
28874W        W 1200   3.931  21.226   2.763
28875W        W 1201  19.583   3.976  12.420
28876W        W 1202  15.999   6.928   0.048
28877W        W 1203  15.384  26.026   0.141
28878W        W 1204  29.482  24.732   3.981
28879W        W 1205   4.848   0.034  10.637
28880W        W 1206   4.615  35.618  12.896
28881W        W 1207  40.529  30.853   0.628
28882W        W 1208   4.189   2.817   2.135
28883W        W 1209  21.627   0.344   4.211
28884W        W 1210   9.983  42.197   2.299
28885W        W 1211  10.224  24.385  13.185
28886W        W 1212   3.368   5.639   0.895
28887W        W 1213  42.238  14.384  11.333
28888W        W 1214   2.257  25.000  12.981
28889W        W 1215   7.148  36.896  13.592
28890W        W 1216   1.886   5.135  12.996
28891W        W 1217  40.845   5.755  12.667
28892W        W 1218  33.875  33.000   2.770
28893W        W 1219  35.323  29.090   0.457
28894W        W 1220  38.142   1.344  11.547
28895W        W 1221  37.880  31.628   1.971
28896W        W 1222  24.759   6.451  12.893
28897W        W 1223  26.433  34.542  12.048
28898W        W 1224  31.438   4.492   4.175
28899W        W 1225   7.905  17.851   4.520
28900W        W 1226   3.926   9.888  11.641
28901W        W 1227  43.711   4.771   4.558
28902W        W 1228  22.083  41.337  11.533
28903W        W 1229  10.139  25.401  12.357
28904W        W 1230  31.446  16.878  11.464
28905W        W 1231  14.647  41.450   9.859
28906W        W 1232  17.279  26.002  12.556
28907W        W 1233  29.732  43.837   0.299
28908W        W 1234  21.200  10.799   4.458
28909W        W 1235   6.692  30.339  11.597
28910W        W 1236   4.796  22.143   3.206
28911W        W 1237  27.255  19.104  14.996
28912W        W 1238  22.144   0.484  12.906
28913W        W 1239   4.349  37.347   2.305
28914W        W 1240   4.756  21.580   0.389
28915W        W 1241  33.526  16.775   4.386
28916W        W 1242  31.665  41.863  14.641
28917W        W 1243  30.875   3.394   1.672
28918W        W 1244  12.177  23.127   1.279
28919W        W 1245   9.099  33.044   2.726
28920W        W 1246  34.015  41.629   2.739
28921W        W 1247  18.725  17.107   0.883
28922W        W 1248   0.644   5.389  12.520
28923W        W 1249  17.741  18.756  13.747
28924W        W 1250  41.872  22.195  12.913
28925W        W 1251  20.874   5.729   3.227
28926W        W 1252  33.366  21.105   1.038
28927W        W 1253   5.370  29.230  12.870
28928W        W 1254  31.605  13.250  11.571
28929W        W 1255  44.274  41.514   1.468
28930W        W 1256   6.771  27.486  14.784
28931W        W 1257  32.019  18.809  14.281
28932W        W 1258  36.462  34.394   4.607
28933W        W 1259  17.761  32.554   2.741
28934W        W 1260  18.137   1.722   2.267
28935W        W 1261   9.788   4.681  11.704
28936W        W 1262  44.984  17.598   3.527
28937W        W 1263  14.767  34.237  10.183
28938W        W 1264  44.531   0.837  14.911
28939W        W 1265  19.216  34.575  14.880
28940W        W 1266  39.839  40.890  12.472
28941W        W 1267  25.025  36.129   0.497
28942W        W 1268  34.022  19.768  10.932
28943W        W 1269  34.353  14.330  12.916
28944W        W 1270  39.261  36.787   4.665
28945W        W 1271   2.296  31.998  10.702
28946W        W 1272  36.105  18.142   1.224
28947W        W 1273  33.317  30.556  11.600
28948W        W 1274  17.506  12.749  12.643
28949W        W 1275   3.184   8.221  12.148
28950W        W 1276  29.617  41.254  11.400
28951W        W 1277  43.536  33.671   9.895
28952W        W 1278  38.045  21.485  14.248
28953W        W 1279  18.842   3.365  14.984
28954W        W 1280   4.814  32.464  12.967
28955W        W 1281  27.914  28.044  12.053
28956W        W 1282  13.804  43.578  14.731
28957W        W 1283  44.967   7.889  13.955
28958W        W 1284  27.693   6.874   2.807
28959W        W 1285   6.877   0.050   3.786
28960W        W 1286  40.956  17.160  10.808
28961W        W 1287   2.222  14.946   0.970
28962W        W 1288  28.107  23.469  11.300
28963W        W 1289  43.607  31.553   2.327
28964W        W 1290  30.680   8.740   3.772
28965W        W 1291  27.861  42.122   1.659
28966W        W 1292  34.290  35.244   4.102
28967W        W 1293   8.375  11.111  11.676
28968W        W 1294  22.540  14.389  13.950
28969W        W 1295   8.810  21.977   4.507
28970W        W 1296  17.454  20.016  14.332
28971W        W 1297  15.452  43.438  13.885
28972W        W 1298  36.793   6.120   2.375
28973W        W 1299   5.660  43.880  13.061
28974W        W 1300  40.235  39.315   4.463
28975W        W 1301  13.785  21.496  10.057
28976W        W 1302  21.767  24.090   0.985
28977W        W 1303  12.946  20.522   2.062
28978W        W 1304  24.744  20.915   2.698
28979W        W 1305   2.832   5.108  12.770
28980W        W 1306  11.223   7.841   1.476
28981W        W 1307  39.453   7.483   4.300
28982W        W 1308  19.860   2.028  12.548
28983W        W 1309  17.837  24.094  14.301
28984W        W 1310  16.773  13.672  14.839
28985W        W 1311   1.389  41.849   3.654
28986W        W 1312   5.835  21.513   2.405
28987W        W 1313  34.576   8.465   4.065
28988W        W 1314  32.015   9.278   1.004
28989W        W 1315  15.343  22.681  12.184
28990W        W 1316  30.814  25.561   3.151
28991W        W 1317  22.562  25.265  10.299
28992W        W 1318  24.562  30.694  13.603
28993W        W 1319  17.175  22.591   1.855
28994W        W 1320  31.076  24.924  13.869
28995W        W 1321   8.455  34.118   4.932
28996W        W 1322   7.369  35.576   3.720
28997W        W 1323  41.485  37.821  13.949
28998W        W 1324  28.187  34.007   5.027
28999W        W 1325  44.892  26.409  12.525
29000W        W 1326   5.232  17.077  11.928
29001W        W 1327  26.501  17.285   1.190
29002W        W 1328   2.597   9.808  11.043
29003W        W 1329  25.721  15.625   2.569
29004W        W 1330  15.753  23.508   4.546
29005W        W 1331  29.598  21.517   3.675
29006W        W 1332  16.850  29.404   0.069
29007W        W 1333   2.060  42.336  12.054
29008W        W 1334  30.390   0.386   0.858
29009W        W 1335  10.595  36.149  13.347
29010W        W 1336   1.738  33.398  14.721
29011W        W 1337   1.967  21.905  13.035
29012W        W 1338  36.950  19.529  11.722
29013W        W 1339  24.660  11.832  14.777
29014W        W 1340   8.667  11.187  10.383
29015W        W 1341  19.975  23.321   1.328
29016W        W 1342  16.622  34.845   3.096
29017W        W 1343  22.684   9.218   2.708
29018W        W 1344  18.284  31.593   0.399
29019W        W 1345  37.762  16.074   1.322
29020W        W 1346   2.983  15.846  12.573
29021W        W 1347  29.308  30.730   1.358
29022W        W 1348  11.868  26.095  14.476
29023W        W 1349  35.821  30.392  13.426
29024W        W 1350   0.406   8.424   2.712
29025W        W 1351   3.477   1.812  12.951
29026W        W 1352  36.752  35.511   9.835
29027W        W 1353  30.451   7.718   1.750
29028W        W 1354  20.069  12.612   1.356
29029W        W 1355   1.277  34.419   4.882
29030W        W 1356   2.084  36.805  13.842
29031W        W 1357  11.649  21.943   1.431
29032W        W 1358  24.058  31.886  14.003
29033W        W 1359  25.582  12.819   0.771
29034W        W 1360  30.467  17.413  12.298
29035W        W 1361   2.496  41.536  11.986
29036W        W 1362  25.730  14.143   4.520
29037W        W 1363  22.566  18.316  11.482
29038W        W 1364  29.431  24.701  10.385
29039W        W 1365  23.763   9.118   3.385
29040W        W 1366  31.469   3.726   4.627
29041W        W 1367  43.871  31.011   3.457
29042W        W 1368   2.188   5.838  12.282
29043W        W 1369   0.410  43.836  12.449
29044W        W 1370  27.913  39.907  12.029
29045W        W 1371  21.114  16.660  11.847
29046W        W 1372   0.997  15.732   1.761
29047W        W 1373  32.601  40.472  13.981
29048W        W 1374  43.925  38.952   2.862
29049W        W 1375  21.046   2.036   1.805
29050W        W 1376  35.750  43.952   0.389
29051W        W 1377  29.430  29.213  14.293
29052W        W 1378  19.399   3.806   0.938
29053W        W 1379  35.812  41.497  10.658
29054W        W 1380  30.458  36.828   0.843
29055W        W 1381  40.742  16.024  14.416
29056W        W 1382   6.730  20.901   2.782
29057W        W 1383   4.486  15.675   0.517
29058W        W 1384   5.720   9.650   1.866
29059W        W 1385  43.443  12.202   3.842
29060W        W 1386  11.136  22.151  14.712
29061W        W 1387  26.408  27.945   1.844
29062W        W 1388  37.042  23.222  10.741
29063W        W 1389   1.184  41.780   0.428
29064W        W 1390  34.534  14.802  12.974
29065W        W 1391  38.033  13.583  12.149
29066W        W 1392  23.460   5.299  14.064
29067W        W 1393  16.300  17.646   3.627
29068W        W 1394  13.320  27.853   4.653
29069W        W 1395   0.482  23.121  14.678
29070W        W 1396  20.091   1.709  13.326
29071W        W 1397  27.857  16.017  12.035
29072W        W 1398  28.543  22.005  13.937
29073W        W 1399  11.216  33.950   1.381
29074W        W 1400  37.898  14.228  14.005
29075W        W 1401  34.418  17.080  14.950
29076W        W 1402  28.535  30.469  12.737
29077W        W 1403  44.316  19.799  13.869
29078W        W 1404  21.291  24.285   0.863
29079W        W 1405  26.510   9.518   3.245
29080W        W 1406   1.919  18.997  14.559
29081W        W 1407  31.508   5.020   4.164
29082W        W 1408  27.391  10.849  12.586
29083W        W 1409  10.192  12.850   5.059
29084W        W 1410  40.545  42.427  14.250
29085W        W 1411  11.051  13.310   4.935
29086W        W 1412   7.164  29.507  10.699
29087W        W 1413   6.173  14.238  10.601
29088W        W 1414   1.027  32.120  14.537
29089W        W 1415  16.269  10.206  11.490
29090W        W 1416   3.897  19.145   3.765
29091W        W 1417   0.090   0.810   2.322
29092W        W 1418   1.356  30.109   0.235
29093W        W 1419   1.955  42.728   0.692
29094W        W 1420  19.256   7.575   3.673
29095W        W 1421  32.675   0.709   2.093
29096W        W 1422  36.308  15.588   0.273
29097W        W 1423  43.052  15.132   1.806
29098W        W 1424  27.873   2.218   2.682
29099W        W 1425  26.215   0.200  13.387
29100W        W 1426  33.885  41.906  11.543
29101W        W 1427   2.482  25.124  12.150
29102W        W 1428  42.492  31.200  10.378
29103W        W 1429   0.379  15.945   2.291
29104W        W 1430  12.266  24.250  13.523
29105W        W 1431  31.593  22.041  13.131
29106W        W 1432   5.717  15.875  11.492
29107W        W 1433  32.172  39.113   4.126
29108W        W 1434  34.683  27.109  13.813
29109W        W 1435  31.806   3.736  11.657
29110W        W 1436   4.161  24.626   1.451
29111W        W 1437   2.985  16.691  11.676
29112W        W 1438  15.251   6.305  11.979
29113W        W 1439   6.950   7.949  11.667
29114W        W 1440  28.114   7.436  11.142
29115W        W 1441  34.152   1.491  13.485
29116W        W 1442   2.445  37.826   1.795
29117W        W 1443  31.941   2.838  14.839
29118W        W 1444  30.508  13.108  12.032
29119W        W 1445  39.760  23.105   0.879
29120W        W 1446  20.645  24.695  13.818
29121W        W 1447  14.985  18.631   0.405
29122W        W 1448  25.228   9.699   4.090
29123W        W 1449  26.593  39.639  10.637
29124W        W 1450  39.511  38.351   4.662
29125W        W 1451  24.761  29.999  13.084
29126W        W 1452  42.443   9.766  10.708
29127W        W 1453  26.225  25.007  11.954
29128W        W 1454  26.737  13.262  12.515
29129W        W 1455   9.994  41.078   0.491
29130W        W 1456   2.813  22.800   3.748
29131W        W 1457  26.152  32.067  12.807
29132W        W 1458   0.379  22.706  14.352
29133W        W 1459  17.686   6.844  12.093
29134W        W 1460   3.733  13.696   1.254
29135W        W 1461  37.182  34.336   5.017
29136W        W 1462   5.144  40.553   3.351
29137W        W 1463  22.987  22.883  14.521
29138W        W 1464  27.469  39.938   1.807
29139W        W 1465  41.260  23.659   0.975
29140W        W 1466  27.743  43.721  11.632
29141W        W 1467  15.583   0.250   2.634
29142W        W 1468  21.764  37.167  12.020
29143W        W 1469   1.800  28.482   3.694
29144W        W 1470   7.216  12.407  13.846
29145W        W 1471   2.955  37.007   0.872
29146W        W 1472  40.878  33.987  12.053
29147W        W 1473  27.893   5.344   2.779
29148W        W 1474  39.601   5.756   2.431
29149W        W 1475  19.580   9.338   0.305
29150W        W 1476   6.106  34.875  13.502
29151W        W 1477  38.784  31.952   3.654
29152W        W 1478   2.948  41.861  13.947
29153W        W 1479  30.724  30.632   3.839
29154W        W 1480  36.293  37.012  11.114
29155W        W 1481  43.564   0.950  12.684
29156W        W 1482  39.446  27.033   4.150
29157W        W 1483  43.874   1.764  14.922
29158W        W 1484  44.233   0.764  13.011
29159W        W 1485  34.997   6.763   1.785
29160W        W 1486  25.188  13.693  14.419
29161W        W 1487  19.144  21.140   4.478
29162W        W 1488  26.885   3.170  10.622
29163W        W 1489   2.997  20.571  13.562
29164W        W 1490  37.891   6.286   4.808
29165W        W 1491   0.581  43.960   3.682
29166W        W 1492   3.146  34.586  13.254
29167W        W 1493  18.881  14.264   9.962
29168W        W 1494   9.738  29.134   3.532
29169W        W 1495  19.196  10.758  13.815
29170W        W 1496  26.593   3.163  13.805
29171W        W 1497  25.014  15.113   3.102
29172W        W 1498   2.426  27.024   2.126
29173W        W 1499  42.875   5.599  11.119
29174W        W 1500  28.114  39.009  14.893
29175W        W 1501  40.961  16.668   3.273
29176W        W 1502  16.331   6.921   1.777
29177W        W 1503  19.239  38.926   1.438
29178W        W 1504  23.032  37.284   1.827
29179W        W 1505  36.553  43.088   3.105
29180W        W 1506  36.239  43.511   3.280
29181W        W 1507  21.218  18.030  11.175
29182W        W 1508   5.333  28.214   2.692
29183W        W 1509  14.643  16.843  14.909
29184W        W 1510  12.419  42.304  13.299
29185W        W 1511  23.049  35.678  10.963
29186W        W 1512  29.990  30.199   4.712
29187W        W 1513  13.072  34.549   4.586
29188W        W 1514   2.966  17.200   3.874
29189W        W 1515  29.513  38.536  10.756
29190W        W 1516  25.035  11.370   4.949
29191W        W 1517  25.548  30.610  10.782
29192W        W 1518  30.099   8.623   4.876
29193W        W 1519  26.173  37.684  13.562
29194W        W 1520  16.871  19.184   4.087
29195W        W 1521   0.479   3.410  13.339
29196W        W 1522  43.275  39.215   4.137
29197W        W 1523  13.377  18.545   2.229
29198W        W 1524  10.934  38.707  11.525
29199W        W 1525  22.164  23.100   3.035
29200W        W 1526  22.498  36.073  12.417
29201W        W 1527  35.504   1.763  11.052
29202W        W 1528  29.801  10.282  14.432
29203W        W 1529  42.158  38.917  13.589
29204W        W 1530   1.467  35.920  13.979
29205W        W 1531  43.993  15.357   1.649
29206W        W 1532  11.630   1.071  12.060
29207W        W 1533   0.110  44.306  12.397
29208W        W 1534  40.039  22.971  12.869
29209W        W 1535   5.395  38.245  14.282
29210W        W 1536  25.070  18.751   1.476
29211W        W 1537  17.804  35.281   1.898
29212W        W 1538   7.219  19.827   1.518
29213W        W 1539  35.396  14.766   0.782
29214W        W 1540   4.438  34.088   4.123
29215W        W 1541  43.932  14.671  12.606
29216W        W 1542  36.524  44.923   0.363
29217W        W 1543  38.425  29.576  12.502
29218W        W 1544  34.579  16.155   4.672
29219W        W 1545  17.571   0.753   2.216
29220W        W 1546  26.780  19.165  13.706
29221W        W 1547  24.456  35.857   4.275
29222W        W 1548  43.011  13.679   0.273
29223W        W 1549   8.217  32.100   3.778
29224W        W 1550  14.602  41.961  12.397
29225W        W 1551   4.674  24.158   0.890
29226W        W 1552   3.857   1.312  11.945
29227W        W 1553  38.117  37.953   2.792
29228W        W 1554  22.496   3.308   2.365
29229W        W 1555   5.719   0.935   1.411
29230W        W 1556   0.839  40.135   2.083
29231W        W 1557  29.473  16.982   4.205
29232W        W 1558  24.401  36.885   3.275
29233W        W 1559  30.133  37.245   0.945
29234W        W 1560  40.506  36.935   0.728
29235W        W 1561   5.469  13.866  10.715
29236W        W 1562  10.865   0.406   2.945
29237W        W 1563  35.931   1.280  11.625
29238W        W 1564   3.275  39.420   3.776
29239W        W 1565  23.264  27.242   2.363
29240W        W 1566  32.701  26.156   1.729
29241W        W 1567  10.456  11.294  11.070
29242W        W 1568  42.292  30.144  14.355
29243W        W 1569  24.616  25.674   1.858
29244W        W 1570  12.851  14.110   2.797
29245W        W 1571  22.292  12.713   3.537
29246W        W 1572  38.360  36.823  14.807
29247W        W 1573  38.384   9.341   3.316
29248W        W 1574  26.648  28.139  13.485
29249W        W 1575  15.940  29.429  14.878
29250W        W 1576  24.961   2.448   0.423
29251W        W 1577  22.608  13.647  12.764
29252W        W 1578  20.799  23.644   3.627
29253W        W 1579   1.236  31.513   4.585
29254W        W 1580  15.390  31.626  12.549
29255W        W 1581  43.475  22.678   3.670
29256W        W 1582   6.918  33.503   1.560
29257W        W 1583  25.027  31.436  11.581
29258W        W 1584  44.175  24.537  14.957
29259W        W 1585  24.727  25.493  10.901
29260W        W 1586  40.963  17.967   3.810
29261W        W 1587  25.242  33.489  14.728
29262W        W 1588  28.107   2.348   3.887
29263W        W 1589  18.722  42.358  13.002
29264W        W 1590  17.573   2.380   2.436
29265W        W 1591   7.222  29.118   2.114
29266W        W 1592  13.464  35.145  10.376
29267W        W 1593  21.751  14.688  11.024
29268W        W 1594  25.511  33.786   3.194
29269W        W 1595  41.922  23.477  11.472
29270W        W 1596  14.663  42.916  12.396
29271W        W 1597  38.269  27.229  14.818
29272W        W 1598  33.391  31.165  14.411
29273W        W 1599  21.012  22.148   0.427
29274W        W 1600  12.517  33.547  14.831
29275W        W 1601  24.924  25.370   4.941
29276W        W 1602  39.518  11.712   2.942
29277W        W 1603  42.224   8.787   2.896
29278W        W 1604  16.809  30.385   1.269
29279W        W 1605  36.309  35.630  11.108
29280W        W 1606  10.601  41.410  11.915
29281W        W 1607  40.019   3.375  13.982
29282W        W 1608  34.279  27.475   0.648
29283W        W 1609  39.926   1.905  12.512
29284W        W 1610  37.495  43.607  12.932
29285W        W 1611  44.786  23.190  11.479
29286W        W 1612  28.104  27.435  13.485
29287W        W 1613  15.135  35.326   2.784
29288W        W 1614  13.082   8.456   3.814
29289W        W 1615   5.879  39.285   0.574
29290W        W 1616  26.949  24.628   2.402
29291W        W 1617  27.801  35.011   5.080
29292W        W 1618  28.490   3.430   1.989
29293W        W 1619  39.739  18.135  12.868
29294W        W 1620  29.484  32.437  11.037
29295W        W 1621   8.959  32.982  13.751
29296W        W 1622  29.035  36.024   3.596
29297W        W 1623  39.188   7.638   2.161
29298W        W 1624  32.378  38.379  14.317
29299W        W 1625   5.937  40.370   1.363
29300W        W 1626  20.769  10.280  12.404
29301W        W 1627  30.660   2.836  13.543
29302W        W 1628   6.696  39.998  13.500
29303W        W 1629  26.429  12.116   1.861
29304W        W 1630  26.053  44.952   3.830
29305W        W 1631  36.106  31.161   2.065
29306W        W 1632  33.197   1.280  11.076
29307W        W 1633  23.756   4.389   3.048
29308W        W 1634  32.993  21.133   1.419
29309W        W 1635  44.307  11.417   0.802
29310W        W 1636  11.266  24.800   5.632
29311W        W 1637  31.469  26.728  13.326
29312W        W 1638  28.356  29.345   2.735
29313W        W 1639  25.140  31.007   2.709
29314W        W 1640  15.636  43.582   3.259
29315W        W 1641  12.262  32.524   4.144
29316W        W 1642  44.492  39.575  14.330
29317W        W 1643  24.012   4.105  11.452
29318W        W 1644  34.884  19.266  14.485
29319W        W 1645  30.513  31.048  10.534
29320W        W 1646   8.812  19.712  11.342
29321W        W 1647   4.756  35.383   2.389
29322W        W 1648   0.303   8.409   0.306
29323W        W 1649  38.782  29.927   2.779
29324W        W 1650  33.995   7.568   0.191
29325W        W 1651   6.509  15.207  11.625
29326W        W 1652  12.194  20.554  14.794
29327W        W 1653  43.336  40.854  14.774
29328W        W 1654  27.428  33.030  10.926
29329W        W 1655   8.970  17.220  14.931
29330W        W 1656  41.038   6.834  10.733
29331W        W 1657  38.399  26.977  14.360
29332W        W 1658  41.303   3.967   1.148
29333W        W 1659  34.421   9.935  13.869
29334W        W 1660   4.260  11.719   1.524
29335W        W 1661  38.451  13.240   3.533
29336W        W 1662  12.486  39.793  13.005
29337W        W 1663  29.208  31.453  14.808
29338W        W 1664  35.461  20.513  11.134
29339W        W 1665  11.484  28.638   1.829
29340W        W 1666  19.595  42.919  11.660
29341W        W 1667   9.049   1.425   4.089
29342W        W 1668  33.030  27.208  12.324
29343W        W 1669  35.598  25.598  12.931
29344W        W 1670  28.171   4.156  13.779
29345W        W 1671  33.726   9.860  14.193
29346W        W 1672  22.649  33.554  12.816
29347W        W 1673  11.691  24.110   2.915
29348W        W 1674  25.894  37.479   2.856
29349W        W 1675  16.578   2.804  14.289
29350W        W 1676  13.847  17.203  10.584
29351W        W 1677  20.135  24.658  11.618
29352W        W 1678  36.302   7.341   3.866
29353W        W 1679  40.045  30.837  11.561
29354W        W 1680  39.979  14.798   4.611
29355W        W 1681  38.574  23.980  12.500
29356W        W 1682  15.767   5.387   0.944
29357W        W 1683  29.929  24.564   3.090
29358W        W 1684  23.768  21.547  11.064
29359W        W 1685  28.894  39.287  14.010
29360W        W 1686   3.356  21.699   1.806
29361W        W 1687  18.609  21.721   1.432
29362W        W 1688  36.611  24.376   1.835
29363W        W 1689   1.471  31.198  14.864
29364W        W 1690  23.749  22.533  13.998
29365W        W 1691  34.386  28.495  12.711
29366W        W 1692  13.254  43.688   3.132
29367W        W 1693  11.655  30.634  10.268
29368W        W 1694  11.904  11.748   3.689
29369W        W 1695  30.538  41.867   2.693
29370W        W 1696   4.407  16.570  11.823
29371W        W 1697  40.532  20.790   1.479
29372W        W 1698   7.922  35.601   3.668
29373W        W 1699  24.208  40.562   0.817
29374W        W 1700  22.280  20.566  11.483
29375W        W 1701  21.787  40.946   4.254
29376W        W 1702   0.333   4.184  10.697
29377W        W 1703   9.337  42.326   3.204
29378W        W 1704  16.054  17.337  11.199
29379W        W 1705  43.468  18.214   0.031
29380W        W 1706  30.111  22.658   0.651
29381W        W 1707  40.979  43.575   3.763
29382W        W 1708  31.687   8.302  14.494
29383W        W 1709  42.721  11.179  12.890
29384W        W 1710  42.297   1.742  13.271
29385W        W 1711   5.326  30.324  14.238
29386W        W 1712  19.187   7.254  11.226
29387W        W 1713  27.091  26.052   5.458
29388W        W 1714   7.280  14.844  11.911
29389W        W 1715   7.221   6.881   0.340
29390W        W 1716  33.965  41.856  14.948
29391W        W 1717  14.618   7.149   3.205
29392W        W 1718  19.040  23.132   4.097
29393W        W 1719  34.120  25.293   1.686
29394W        W 1720   6.231  41.879   5.115
29395W        W 1721  22.955  18.761   3.255
29396W        W 1722  14.852  31.472  13.408
29397W        W 1723   0.558  16.717   1.263
29398W        W 1724  13.487  10.345   5.078
29399W        W 1725  23.612  26.005  13.899
29400W        W 1726  40.302  42.096   3.262
29401W        W 1727  24.570  37.391  11.039
29402W        W 1728  11.914  10.572   4.172
29403W        W 1729  12.777  32.894   1.716
29404W        W 1730  25.014  34.383  13.703
29405W        W 1731  36.632  29.248  10.957
29406W        W 1732  10.884   8.955   4.177
29407W        W 1733   1.574   9.130  11.999
29408W        W 1734  32.266  37.998   0.683
29409W        W 1735  39.036  13.151  13.587
29410W        W 1736  25.058  28.472   4.539
29411W        W 1737  19.290  37.010  12.058
29412W        W 1738  35.251   0.716   1.342
29413W        W 1739  12.559  11.299   0.731
29414W        W 1740  37.729  39.398  13.106
29415W        W 1741   8.318  25.460   4.711
29416W        W 1742  40.216  14.291   1.734
29417W        W 1743  19.149   0.411   1.391
29418W        W 1744  43.775   9.336   3.613
29419W        W 1745   8.889  11.553  11.713
29420W        W 1746  38.714  16.566  13.558
29421W        W 1747  16.793  29.860   1.389
29422W        W 1748  18.993  11.878  12.123
29423W        W 1749  40.246   6.956   4.147
29424W        W 1750  23.191  44.400   4.684
29425W        W 1751  19.351  24.508   1.868
29426W        W 1752   7.634  42.746  14.929
29427W        W 1753  13.189  22.162   1.672
29428W        W 1754  26.977  11.565  12.902
29429W        W 1755  40.595  15.607   4.652
29430W        W 1756  41.893   9.167  12.403
29431W        W 1757  15.311   8.005   0.801
29432W        W 1758  24.160   0.339   0.040
29433W        W 1759  17.228  15.354  13.129
29434W        W 1760  41.370  23.696   2.296
29435W        W 1761   0.215  32.155   1.754
29436W        W 1762  33.055   5.542  14.798
29437W        W 1763  27.501   7.182   0.996
29438W        W 1764  44.897  33.409  12.810
29439W        W 1765  17.089  19.214  10.217
29440W        W 1766  12.617  25.713   2.853
29441W        W 1767  27.299  40.319  13.792
29442W        W 1768   6.889  24.592   4.074
29443W        W 1769   9.248  24.932   3.882
29444W        W 1770   6.335  32.865  14.511
29445W        W 1771  23.462  14.844  10.207
29446W        W 1772  33.457  42.455   1.951
29447W        W 1773  23.648  42.819   3.766
29448W        W 1774  31.526  13.261  14.057
29449W        W 1775  23.643   6.345  12.898
29450W        W 1776  29.418  40.225  11.241
29451W        W 1777   2.343   7.400   3.301
29452W        W 1778  27.366   2.330   1.354
29453W        W 1779   8.744  35.538   3.266
29454W        W 1780   6.769  14.786  12.017
29455W        W 1781  13.373  12.714  14.335
29456W        W 1782   2.569  20.640  13.840
29457W        W 1783  34.566  10.283   2.733
29458W        W 1784  24.703  11.340  14.498
29459W        W 1785  24.662  43.327  11.730
29460W        W 1786  40.017  12.625   3.261
29461W        W 1787  10.616   5.471   2.804
29462W        W 1788  34.878  39.988   0.785
29463W        W 1789  18.941  21.462   2.929
29464W        W 1790  16.553  34.438  13.818
29465W        W 1791  14.273  18.447  11.631
29466W        W 1792  14.049  38.507   1.841
29467W        W 1793  37.072  29.441  11.556
29468W        W 1794  19.539  36.074   3.329
29469W        W 1795  11.127  24.298  10.964
29470W        W 1796  32.517  33.001   1.327
29471W        W 1797  32.169   1.967  11.627
29472W        W 1798  19.107  43.437  14.556
29473W        W 1799  35.840   2.379   0.481
29474W        W 1800  29.812  14.306   2.267
29475W        W 1801  21.168   8.305  14.721
29476W        W 1802   9.914  25.988   3.259
29477W        W 1803  38.819   9.271  14.781
29478W        W 1804  32.156   8.443  11.461
29479W        W 1805  27.027  12.613   4.982
29480W        W 1806   0.367   5.110  13.906
29481W        W 1807  31.641  44.166  12.900
29482W        W 1808  41.094   5.875  12.013
29483W        W 1809   9.699  21.245   2.713
29484W        W 1810  43.101   7.860  11.232
29485W        W 1811  27.554  43.467  14.470
29486W        W 1812   9.361  28.417   1.302
29487W        W 1813  15.022  36.005  12.494
29488W        W 1814  22.026  10.730   1.692
29489W        W 1815   9.228  39.914   1.713
29490W        W 1816  18.668   9.199  13.483
29491W        W 1817  37.313  28.345   5.062
29492W        W 1818  35.276   8.178  14.404
29493W        W 1819   1.173  36.991  10.901
29494W        W 1820  37.353  14.646  13.000
29495W        W 1821  43.228  16.408  10.773
29496W        W 1822  24.518   0.897   2.106
29497W        W 1823  36.936   4.895   0.973
29498W        W 1824  10.922  11.227  12.267
29499W        W 1825  22.670  39.898   4.790
29500W        W 1826  13.069   7.121  11.598
29501W        W 1827  27.515  28.618   2.869
29502W        W 1828  12.139  38.995  14.386
29503W        W 1829   3.561  11.321   1.561
29504W        W 1830  36.668   2.770   0.538
29505W        W 1831   6.280  22.096   3.346
29506W        W 1832  22.103  14.493   1.490
29507W        W 1833  25.150  32.181   1.135
29508W        W 1834  39.766  40.866  13.006
29509W        W 1835  37.481  39.056   5.073
29510W        W 1836  23.625   2.758   3.542
29511W        W 1837   2.899  16.514  13.966
29512W        W 1838  15.635  18.004   3.438
29513W        W 1839   0.756  18.227   4.705
29514W        W 1840  32.510   0.349  14.488
29515W        W 1841  27.893   5.128  14.009
29516W        W 1842  43.191  26.928  12.241
29517W        W 1843  16.916  40.475   1.867
29518W        W 1844  33.427  38.307   2.143
29519W        W 1845  34.935  13.539  12.049
29520W        W 1846   7.495  33.171  12.027
29521W        W 1847   3.432  22.638  12.555
29522W        W 1848  20.180  41.374  14.212
29523W        W 1849  23.905  21.595   1.665
29524W        W 1850  10.781  42.056  13.735
29525W        W 1851  34.448  10.991   0.313
29526W        W 1852   3.190  38.932   2.820
29527W        W 1853  18.570  19.984   3.155
29528W        W 1854   5.877  14.073   0.931
29529W        W 1855  37.274  25.147  12.542
29530W        W 1856  26.682   9.361  14.383
29531W        W 1857  19.155  14.189  10.503
29532W        W 1858   9.126  36.310   0.342
29533W        W 1859   2.219  25.075  11.717
29534W        W 1860  25.257  37.580   0.408
29535W        W 1861  30.411   1.303  13.771
29536W        W 1862  43.421  19.504  13.825
29537W        W 1863  10.461  34.325   2.783
29538W        W 1864  17.235   5.984   1.678
29539W        W 1865  19.259  17.886   2.412
29540W        W 1866  27.181   1.744   9.890
29541W        W 1867   3.929  20.831  13.431
29542W        W 1868   5.480  27.922   3.690
29543W        W 1869  37.946   8.329  14.201
29544W        W 1870  21.582  39.287  10.664
29545W        W 1871  39.455  24.752   1.931
29546W        W 1872  30.192  30.446  12.997
29547W        W 1873  33.017  36.182  11.377
29548W        W 1874  29.573  41.821   2.801
29549W        W 1875  37.470  26.983  14.661
29550W        W 1876  32.569  16.971  13.791
29551W        W 1877  18.920  39.236  13.823
29552W        W 1878  27.017  13.856   3.664
29553W        W 1879  20.705  14.536   3.054
29554W        W 1880  34.946  14.864   1.494
29555W        W 1881  25.384   0.997  14.212
29556W        W 1882  11.690  43.437  10.329
29557W        W 1883  39.337  33.211  12.417
29558W        W 1884  11.880  39.589  11.932
29559W        W 1885  15.129  38.109  12.611
29560W        W 1886   6.163  44.534   0.300
29561W        W 1887  32.377  34.325  12.049
29562W        W 1888   4.011  34.047  12.277
29563W        W 1889  32.435  19.511   0.409
29564W        W 1890  43.792   8.890   0.208
29565W        W 1891  44.784  34.868  12.474
29566W        W 1892  41.653  24.580   1.274
29567W        W 1893  42.479  35.116  12.065
29568W        W 1894   6.437  34.340  14.330
29569W        W 1895  34.533  41.637  13.966
29570W        W 1896  12.521  33.477   1.236
29571W        W 1897  44.550  37.021  11.451
29572W        W 1898  30.536   2.696   1.678
29573W        W 1899   8.783  31.998   1.067
29574W        W 1900  37.048  12.739  13.075
29575W        W 1901  25.084  18.481   3.812
29576W        W 1902   4.632  39.122  12.029
29577W        W 1903  23.719  16.089   1.653
29578W        W 1904  40.554  20.538  11.845
29579W        W 1905  13.258  19.207   2.689
29580W        W 1906  42.019  42.544  11.456
29581W        W 1907  27.023  33.191  12.087
29582W        W 1908  44.171  37.513  14.934
29583W        W 1909  37.753  34.433  13.503
29584W        W 1910  13.625  41.372  13.020
29585W        W 1911  43.013  33.475  11.535
29586W        W 1912  22.180   6.476  13.232
29587W        W 1913  10.267   5.379  13.842
29588W        W 1914  36.723  34.374   3.676
29589W        W 1915   4.360  41.784  14.930
29590W        W 1916  37.957  13.115   3.653
29591W        W 1917  44.947  20.686  12.913
29592W        W 1918  42.550  20.350  10.392
29593W        W 1919   1.571   8.341   0.688
29594W        W 1920  12.945  24.608  11.893
29595W        W 1921  28.209  14.085  14.482
29596W        W 1922  36.304  20.293   3.645
29597W        W 1923  41.858  31.549   4.826
29598W        W 1924  27.575  34.730   4.052
29599W        W 1925  19.251  29.666   4.231
29600W        W 1926  29.519  22.581  13.498
29601W        W 1927   0.528   0.164   3.383
29602W        W 1928  40.951  40.053   2.716
29603W        W 1929  13.141  15.737  14.555
29604W        W 1930  26.645  20.068  13.787
29605W        W 1931  44.248  27.627  11.098
29606W        W 1932   5.548  18.019  14.395
29607W        W 1933  14.287  13.393  12.935
29608W        W 1934  19.265   7.177   4.035
29609W        W 1935  14.057   2.139  12.748
29610W        W 1936  25.758  41.295  11.515
29611W        W 1937  12.116  27.165  13.879
29612W        W 1938  37.379  11.213  12.808
29613W        W 1939  41.656  39.802  13.536
29614W        W 1940  18.067  42.280   3.082
29615W        W 1941   6.170  18.221   2.394
29616W        W 1942   3.087  44.877  12.425
29617W        W 1943  10.496   9.020   0.985
29618W        W 1944   4.860  21.626   4.372
29619W        W 1945  15.803  17.328  10.744
29620W        W 1946  19.601  44.954  12.143
29621W        W 1947  41.321  13.568  13.491
29622W        W 1948  41.335   0.367   3.152
29623W        W 1949   4.347  29.535   1.396
29624W        W 1950  11.188   2.725  12.310
29625W        W 1951  27.547   8.695   2.759
29626W        W 1952  38.762   7.396  12.075
29627W        W 1953  39.487  16.380  12.511
29628W        W 1954   9.702  41.023   4.309
29629W        W 1955  22.066  40.280  10.046
29630W        W 1956   9.117  43.336   3.270
29631W        W 1957  39.236  14.947   3.642
29632W        W 1958  23.506  30.438   3.060
29633W        W 1959  11.089  44.815   4.182
29634W        W 1960  36.575  19.068  12.417
29635W        W 1961   1.178  21.716  14.863
29636W        W 1962  34.089   8.071   0.266
29637W        W 1963  10.408  24.633   1.825
29638W        W 1964  34.264   6.195   2.408
29639W        W 1965   6.468  42.748   5.157
29640W        W 1966  30.362  34.051  13.989
29641W        W 1967  41.570  24.603  12.584
29642W        W 1968  18.809  12.819   3.690
29643W        W 1969  14.852   4.806  10.424
29644W        W 1970   8.711   9.209   2.512
29645W        W 1971   2.788   6.836  14.264
29646W        W 1972  19.504  43.565  10.839
29647W        W 1973  18.973  32.260  10.775
29648W        W 1974   8.110  11.345   3.762
29649W        W 1975  26.058  19.492  10.873
29650W        W 1976  35.418  19.819  13.023
29651W        W 1977  28.113   8.362  14.309
29652W        W 1978   8.922   0.326  13.726
29653W        W 1979  12.741  13.130   2.746
29654W        W 1980  44.310  15.672   3.706
29655W        W 1981   2.413  14.861   4.113
29656W        W 1982  41.206  31.618  12.995
29657W        W 1983  28.404   3.779  14.047
29658W        W 1984  35.285  13.710   0.042
29659W        W 1985  10.213  33.456   0.589
29660W        W 1986   8.475  32.066   3.350
29661W        W 1987  27.118  42.552   0.430
29662W        W 1988   7.401   9.092  13.854
29663W        W 1989  26.573  19.650  13.410
29664W        W 1990   3.836  29.581   1.366
29665W        W 1991  42.203  13.605  13.925
29666W        W 1992   5.930  32.345  11.660
29667W        W 1993  43.057  32.086   5.108
29668W        W 1994   7.834  36.984  14.208
29669W        W 1995  43.185  26.314  10.953
29670W        W 1996  26.951  33.385  10.051
29671W        W 1997  15.133   1.697   4.158
29672W        W 1998  25.598  37.942   3.865
29673W        W 1999  21.669   0.943   0.391
29674W        W 2000  16.195  13.644   3.634
29675W        W 2001  18.504  17.075   3.118
29676W        W 2002  30.177   6.481  11.134
29677W        W 2003   8.568   3.333   0.866
29678W        W 2004   9.640  15.791  12.667
29679W        W 2005  39.755  40.866   3.282
29680W        W 2006  15.050  30.471  14.994
29681W        W 2007  42.789  19.622   0.018
29682W        W 2008  27.542  20.783  12.862
29683W        W 2009  37.360  37.430   4.602
29684W        W 2010  19.208  21.974  12.647
29685W        W 2011  38.839  23.770  11.160
29686W        W 2012   4.720  43.599   0.703
29687W        W 2013  39.962  15.318  12.052
29688W        W 2014  39.519  22.780  11.094
29689W        W 2015  17.675   9.163  12.119
29690W        W 2016  23.414  27.065  13.854
29691W        W 2017  19.900  24.141  12.444
29692W        W 2018   2.413  13.284   4.453
29693W        W 2019   6.482  13.671  11.616
29694W        W 2020  44.914  39.158  13.954
29695W        W 2021  41.045  32.578   2.359
29696W        W 2022  44.803   3.088  10.276
29697W        W 2023  33.988  17.066   4.446
29698W        W 2024  43.266  36.190  11.182
29699W        W 2025  29.228  39.029  12.575
29700W        W 2026  16.131   3.496   3.667
29701W        W 2027  36.019  42.025  11.517
29702W        W 2028  23.860  35.649   0.350
29703W        W 2029   5.982  25.172  14.363
29704W        W 2030  26.126  11.330  11.874
29705W        W 2031  12.383  25.773  12.328
29706W        W 2032  27.500   0.895   1.478
29707W        W 2033  10.705  18.616   4.645
29708W        W 2034  19.431   1.365  14.905
29709W        W 2035  10.776   6.235  14.278
29710W        W 2036  34.110  30.063  11.534
29711W        W 2037  12.312  20.162  13.989
29712W        W 2038  13.839   8.335  13.577
29713W        W 2039  32.385  22.589   2.797
29714W        W 2040   8.271  33.865   4.181
29715W        W 2041   8.583   9.450   4.094
29716W        W 2042  16.733  24.635   4.595
29717W        W 2043  37.768  44.271   1.985
29718W        W 2044  31.100  23.689  14.480
29719W        W 2045  34.481   7.844  14.021
29720W        W 2046  35.865   9.855   0.686
29721W        W 2047  40.063  37.470   3.262
29722W        W 2048  20.886  31.616   0.712
29723W        W 2049   3.702  29.797   4.647
29724W        W 2050  21.550  40.882   4.758
29725W        W 2051  29.585   2.063  14.847
29726W        W 2052  44.510  17.536   3.635
29727W        W 2053   6.229  32.180   4.551
29728W        W 2054  25.103  43.355   3.936
29729W        W 2055  27.570   8.926   3.676
29730W        W 2056   8.350  23.543   3.908
29731W        W 2057  35.311   7.197   2.840
29732W        W 2058  43.143  24.121   5.032
29733W        W 2059  41.439   1.805  10.886
29734W        W 2060  36.908   5.661   2.171
29735W        W 2061  16.363  40.425  10.970
29736W        W 2062  31.492  10.620  12.189
29737W        W 2063  19.634  12.624  13.019
29738W        W 2064  25.989   0.743   0.382
29739W        W 2065  24.189  14.805  10.391
29740W        W 2066  16.676  28.101   0.507
29741W        W 2067   6.155   6.439  13.918
29742W        W 2068  12.217  19.557  12.813
29743W        W 2069   1.150  23.798   2.043
29744W        W 2070  40.389   4.171  12.589
29745W        W 2071  27.099   9.435   3.937
29746W        W 2072   2.056   4.876   5.624
29747W        W 2073  44.621  19.418   1.992
29748W        W 2074   3.704  23.554  14.025
29749W        W 2075  28.038   7.062   1.749
29750W        W 2076  28.885  11.273  11.016
29751W        W 2077  38.222  12.084  13.482
29752W        W 2078  11.677  17.808   3.748
29753W        W 2079   6.974  17.823  13.010
29754W        W 2080  44.406  11.815   0.458
29755W        W 2081  24.636  42.868  11.985
29756W        W 2082  12.071   7.925  10.706
29757W        W 2083  27.601  31.286  11.290
29758W        W 2084  16.332   3.367   4.120
29759W        W 2085   6.458  33.191   2.263
29760W        W 2086   8.209  33.961  14.726
29761W        W 2087  31.557  34.693   3.425
29762W        W 2088   8.324  24.527  11.534
29763W        W 2089  15.558  17.688  12.295
29764W        W 2090  18.950   5.415  12.456
29765W        W 2091  40.834   6.238  12.956
29766W        W 2092  26.658  17.853   3.467
29767W        W 2093  17.131  32.454   3.063
29768W        W 2094   3.095  24.257   0.566
29769W        W 2095  24.265  28.728  12.949
29770W        W 2096   9.356  20.008   2.304
29771W        W 2097   6.742  11.240   1.365
29772W        W 2098  20.809  37.914   4.626
29773W        W 2099   9.785  15.816  13.607
29774W        W 2100  25.635  23.148   3.450
29775W        W 2101  41.608  37.817   1.826
29776W        W 2102  10.837   2.515  13.522
29777W        W 2103  27.603  37.252  14.986
29778W        W 2104  29.931  42.501  14.037
29779W        W 2105  44.980  35.933   2.548
29780W        W 2106  18.653   0.373   1.257
29781W        W 2107   4.392  25.038   1.238
29782W        W 2108  25.576  10.476  12.323
29783W        W 2109  11.705   5.188  13.913
29784W        W 2110  21.231  14.394   0.227
29785W        W 2111  27.512  43.477   0.527
29786W        W 2112  11.514   4.522  11.017
29787W        W 2113   3.716  41.299   1.263
29788W        W 2114  30.878  19.996   1.679
29789W        W 2115  14.786  19.517  14.288
29790W        W 2116   6.182  33.878  14.345
29791W        W 2117  30.988  26.015  13.618
29792W        W 2118  38.109   0.658  13.548
29793W        W 2119  38.007  17.091  10.664
29794W        W 2120  31.621   8.430   0.851
29795W        W 2121  21.607  27.459  14.852
29796W        W 2122  30.537  37.926  10.370
29797W        W 2123  40.060  32.714   2.398
29798W        W 2124  29.325  21.119   0.310
29799W        W 2125  19.705  15.225  13.856
29800W        W 2126   3.876   2.875  14.467
29801W        W 2127  14.120  32.134  13.031
29802W        W 2128  16.528  44.489  12.061
29803W        W 2129  11.692   3.648   1.685
29804W        W 2130  44.802  25.102   0.262
29805W        W 2131  43.683  17.063  12.457
29806W        W 2132  20.526  13.739  11.820
29807W        W 2133  35.018  31.074   3.285
29808W        W 2134  43.948   3.484   4.995
29809W        W 2135  41.448   7.852   2.321
29810W        W 2136  14.875   5.467  11.114
29811W        W 2137  37.637  35.610  13.364
29812W        W 2138  33.314   0.756   4.854
29813W        W 2139  19.548  26.565   0.751
29814W        W 2140  41.834  32.465  11.235
29815W        W 2141   8.101  38.362  14.932
29816W        W 2142   9.424  24.425   3.877
29817W        W 2143  35.755  19.750  10.824
29818W        W 2144  15.132   7.689  11.594
29819W        W 2145  19.710  30.590   1.489
29820W        W 2146  40.129  21.518  11.326
29821W        W 2147  13.654  10.884   2.714
29822W        W 2148  40.281  12.123  14.867
29823W        W 2149   1.188   2.064   0.836
29824W        W 2150  43.983  38.361  11.979
29825W        W 2151  13.094  14.083  11.144
29826W        W 2152  17.459   6.335  12.484
29827W        W 2153  44.669   3.811  13.172
29828W        W 2154  40.763  15.122   1.704
29829W        W 2155  29.511   5.355   3.189
29830W        W 2156   2.000   2.352   0.739
29831W        W 2157   9.282  26.516  10.465
29832W        W 2158  30.642   6.990  12.275
29833W        W 2159  40.284  11.864   4.767
29834W        W 2160  32.038   6.425  10.745
29835W        W 2161  13.791  14.328  13.881
29836W        W 2162   5.140   2.709   1.758
29837W        W 2163  42.522  32.530   1.417
29838W        W 2164  12.859   7.855  11.123
29839W        W 2165   2.389   8.580  14.823
29840W        W 2166  24.003   6.873  12.434
29841W        W 2167   5.386  11.754   2.108
29842W        W 2168  41.289  32.453   2.809
29843W        W 2169  12.090   6.735   2.333
29844W        W 2170  12.609  30.136   1.737
29845W        W 2171  19.829  13.159  13.820
29846W        W 2172  24.233  35.359  14.560
29847W        W 2173   4.017  38.267   0.453
29848W        W 2174   8.245  23.556  11.836
29849W        W 2175  14.237  40.395  14.568
29850W        W 2176  33.558  14.852  10.727
29851W        W 2177  28.572  18.136   1.660
29852W        W 2178  32.354  26.905  11.196
29853W        W 2179   5.603  27.461  13.281
29854W        W 2180  27.544  21.409  11.065
29855W        W 2181  16.106  23.247   1.203
29856W        W 2182  35.939  36.328   3.521
29857W        W 2183  32.009  11.743  14.936
29858W        W 2184  24.008  11.507   1.779
29859W        W 2185  27.295  20.054  14.076
29860W        W 2186  11.750  26.570  13.951
29861W        W 2187  23.239  34.365   3.542
29862W        W 2188  38.520  21.802  13.825
29863W        W 2189  43.352   7.631  12.977
29864W        W 2190  24.779  16.058   0.457
29865W        W 2191  25.540   0.963  11.004
29866W        W 2192  22.789  15.752   1.175
29867W        W 2193  20.399  40.984  14.475
29868W        W 2194  17.301  41.891   2.758
29869W        W 2195  44.295  21.012   3.705
29870W        W 2196  34.189  16.373   2.300
29871W        W 2197  17.138   0.329   3.539
29872W        W 2198  26.383  26.488   0.966
29873W        W 2199  14.678  28.888   4.224
29874W        W 2200   3.499  24.255   2.016
29875W        W 2201  20.456  44.626  10.337
29876W        W 2202   8.737  18.782   1.317
29877W        W 2203  42.939  37.673   5.123
29878W        W 2204  17.218  26.649   4.654
29879W        W 2205   5.748  44.940   1.255
29880W        W 2206  26.363  21.117  14.394
29881W        W 2207  11.570  40.420  11.994
29882W        W 2208  30.065  27.652   0.230
29883W        W 2209  30.182  13.069  14.709
29884W        W 2210  34.465  22.555   1.707
29885W        W 2211  13.317  35.957   1.835
29886W        W 2212  25.397  12.127  13.648
29887W        W 2213  42.569  34.978   0.276
29888W        W 2214   5.144  30.071   2.256
29889W        W 2215  23.462  21.103  10.359
29890W        W 2216  44.479  16.192  14.966
29891W        W 2217  32.303  25.982  11.676
29892W        W 2218  40.401  24.709  14.365
29893W        W 2219   1.198  39.291  14.942
29894W        W 2220  41.195  41.940   1.397
29895W        W 2221   0.420  41.287  13.318
29896W        W 2222  20.973  26.619   3.315
29897W        W 2223  13.676  43.235  11.664
29898W        W 2224  19.599   7.932  13.026
29899W        W 2225  36.786   8.952   1.950
29900W        W 2226   0.721   7.240   4.789
29901W        W 2227  18.289  13.669  12.600
29902W        W 2228   6.847  44.569   3.585
29903W        W 2229  36.990  13.337  11.546
29904W        W 2230   1.472  23.598  13.046
29905W        W 2231  20.482  21.629   2.805
29906W        W 2232  10.901  35.143  11.495
29907W        W 2233  25.458   9.084  13.019
29908W        W 2234  37.763  36.064  13.871
29909W        W 2235  43.580  37.607  12.083
29910W        W 2236  38.808   5.878  10.720
29911W        W 2237  12.029  22.989  13.856
29912W        W 2238   6.213  40.994   1.340
29913W        W 2239  23.434  22.503  11.877
29914W        W 2240  27.683  17.829   4.426
29915W        W 2241  40.877  24.914   0.396
29916W        W 2242   1.004   8.995  10.804
29917W        W 2243  28.610  38.113   4.563
29918W        W 2244   6.951  29.203  11.178
29919W        W 2245  35.794  12.354   0.771
29920W        W 2246   3.905  27.616  10.247
29921W        W 2247  11.883  23.938   2.465
29922W        W 2248   4.711  16.709   1.612
29923W        W 2249   2.085  11.477   5.041
29924W        W 2250  31.200   9.680   2.302
29925W        W 2251  40.909  15.172   3.415
29926W        W 2252   6.892  19.057   2.610
29927W        W 2253   8.899  15.338   3.631
29928W        W 2254  18.234  29.835   2.751
29929W        W 2255   1.997  10.366  11.578
29930W        W 2256  43.970   6.334   2.242
29931W        W 2257  39.948  10.858  12.024
29932W        W 2258   7.752  10.610  11.985
29933W        W 2259  11.450  19.039  12.992
29934W        W 2260   7.667  28.494   1.719
29935W        W 2261  43.601  12.842   1.813
29936W        W 2262  38.983  19.399  12.624
29937W        W 2263  44.882  15.218  11.354
29938W        W 2264  22.319  32.160   0.876
29939W        W 2265   5.236  18.983  11.192
29940W        W 2266  43.452  11.414   3.232
29941W        W 2267  31.406  33.958   4.053
29942W        W 2268  35.543  33.446  13.028
29943W        W 2269  13.699   2.606  12.509
29944W        W 2270   1.011  11.932  13.372
29945W        W 2271  11.865  30.478   0.707
29946W        W 2272  18.726  34.960  12.343
29947W        W 2273  23.604  22.732  12.705
29948W        W 2274  24.938  26.881  12.419
29949W        W 2275  44.867  26.540   2.676
29950W        W 2276  37.577  23.264   2.157
29951W        W 2277  43.903  41.165   4.017
29952W        W 2278  38.980  13.777  14.414
29953W        W 2279  26.544  32.364  12.039
29954W        W 2280   9.094  29.732  11.143
29955W        W 2281  35.801   7.263   3.745
29956W        W 2282  36.151   9.099   0.431
29957W        W 2283  36.224  16.192   1.348
29958W        W 2284  23.339  14.066  11.589
29959W        W 2285  24.172   1.676   1.678
29960W        W 2286  15.149  38.570   3.609
29961W        W 2287  32.750  23.554   4.642
29962W        W 2288  42.909  20.111   0.406
29963W        W 2289  13.664  21.764   2.474
29964W        W 2290  17.531  39.708   2.151
29965W        W 2291  15.175  33.678   0.454
29966W        W 2292  17.947  22.096   2.202
29967W        W 2293  19.109  22.191  10.812
29968W        W 2294  40.565   2.458   3.320
29969W        W 2295  31.610  36.823  14.991
29970W        W 2296  42.809  37.464  13.726
29971W        W 2297  18.310   2.795   4.293
29972W        W 2298  41.360  44.009  14.458
29973W        W 2299  43.043  41.017  11.574
29974W        W 2300  42.579   9.388  11.983
29975W        W 2301   2.185  40.018   0.234
29976W        W 2302  13.176  13.825  10.550
29977W        W 2303  28.157  15.040  14.837
29978W        W 2304   2.133  44.793  10.673
29979W        W 2305   3.791  39.399   1.427
29980W        W 2306  32.652  17.191  10.732
29981W        W 2307  25.421  44.324  10.288
29982W        W 2308  27.872   1.493  10.858
29983W        W 2309  10.647  22.547  10.656
29984W        W 2310   5.834  32.545   4.608
29985W        W 2311  43.475  32.678   4.722
29986W        W 2312  21.463  40.411   2.661
29987W        W 2313   9.875  23.476  13.389
29988W        W 2314  41.608  26.175  13.597
29989W        W 2315  11.851  24.334   3.404
29990W        W 2316  16.079   5.395  13.117
29991W        W 2317  22.244  42.142  11.582
29992W        W 2318  35.029  12.152  11.398
29993W        W 2319  25.016   6.806   4.533
29994W        W 2320   4.790  23.519   4.516
29995W        W 2321  20.230  36.928   4.779
29996W        W 2322  13.385  43.934  12.849
29997W        W 2323  43.981   8.410  10.434
29998W        W 2324  16.637   0.197   3.610
29999W        W 2325  22.585   2.549  11.537
30000W        W 2326  27.447  16.246  10.699
30001W        W 2327  38.054  15.070   0.759
30002W        W 2328   9.825   1.224   4.513
30003W        W 2329  15.284  18.137  11.081
30004W        W 2330  34.102  43.927   2.699
30005W        W 2331  43.366  34.900  13.881
30006W        W 2332  13.532  29.911   0.506
30007W        W 2333  44.451  22.263  11.954
30008W        W 2334  33.466   5.944   4.591
30009W        W 2335  23.831  13.742  11.166
30010W        W 2336   2.702  31.053   0.464
30011W        W 2337  33.415  18.270   4.143
30012W        W 2338  23.095   8.659  14.715
30013W        W 2339  25.908  26.251  13.512
30014W        W 2340   4.877  37.624   0.379
30015W        W 2341  22.511  28.142  10.739
30016W        W 2342  27.145  18.169   1.891
30017W        W 2343  16.037  35.322  13.080
30018W        W 2344  32.696  42.513  11.282
30019W        W 2345  44.304  22.169   3.309
30020W        W 2346   4.380   8.453   3.273
30021W        W 2347  30.675  43.788   3.207
30022W        W 2348  43.308   6.736   1.794
30023W        W 2349  35.579   3.975   4.197
30024W        W 2350   6.778  31.087   3.587
30025W        W 2351  32.118  20.078  14.708
30026W        W 2352  11.568  44.981   0.285
30027W        W 2353  22.749  27.242   0.488
30028W        W 2354  15.276  22.840  11.357
30029W        W 2355  16.857  29.507  13.353
30030W        W 2356  10.889  35.925  11.092
30031W        W 2357  35.770   7.337  11.815
30032W        W 2358  32.582  41.958   3.753
30033W        W 2359  26.755  27.152  11.516
30034W        W 2360  43.456   3.391   0.718
30035W        W 2361   0.950  19.749   0.885
30036W        W 2362   7.264  17.210   3.613
30037W        W 2363   9.338  26.148  11.431
30038W        W 2364  31.654  35.988  14.238
30039W        W 2365  38.948   0.747  12.552
30040W        W 2366  44.278  27.420   3.226
30041W        W 2367  43.767  40.386  13.103
30042W        W 2368  34.781  22.798   4.996
30043W        W 2369  31.626   5.280   4.871
30044W        W 2370   5.866  35.009  14.313
30045W        W 2371  31.138  27.662  13.723
30046W        W 2372   2.736  16.740   0.692
30047W        W 2373  26.257   6.807  12.015
30048W        W 2374  39.939  10.209   3.615
30049W        W 2375   0.897  44.378   3.765
30050W        W 2376  11.813  29.066   5.359
30051W        W 2377  31.882   1.253  12.457
30052W        W 2378  41.538  23.287   4.182
30053W        W 2379  42.060  28.588   1.891
30054W        W 2380  21.461   4.184   0.135
30055W        W 2381  21.061  32.409  14.961
30056W        W 2382  14.142   5.679   3.894
30057W        W 2383  22.003   9.650  10.718
30058W        W 2384  33.006  36.769  14.832
30059W        W 2385  32.110  23.983  12.463
30060W        W 2386  44.870  38.548  13.499
30061W        W 2387   8.940   1.768   4.501
30062W        W 2388  18.158  40.549   1.424
30063W        W 2389  39.207   7.278  11.838
30064W        W 2390  14.193  27.093   5.087
30065W        W 2391  37.530  21.419  13.953
30066W        W 2392  27.594  30.547  11.458
30067W        W 2393  14.251   7.759  12.519
30068W        W 2394  30.856   0.802  12.393
30069W        W 2395  34.133   3.382  11.365
30070W        W 2396  29.181  42.036  12.110
30071W        W 2397  11.506  13.919   0.531
30072W        W 2398  35.474  26.556  13.979
30073W        W 2399  37.901  12.681   3.088
30074W        W 2400  14.424  17.602   4.199
30075W        W 2401   0.648  21.753  14.894
30076W        W 2402  30.920   9.852   1.866
30077W        W 2403  20.205  15.408  13.776
30078W        W 2404  22.740   6.104  11.652
30079W        W 2405  36.299   1.622  12.994
30080W        W 2406  43.810  30.982   3.973
30081W        W 2407  27.601  17.195   0.934
30082W        W 2408  39.452  19.545  12.945
30083W        W 2409  14.779  44.006  14.166
30084W        W 2410  12.236   3.634  14.468
30085W        W 2411  30.881  11.519   4.545
30086W        W 2412  12.617   8.291  12.924
30087W        W 2413  13.148  41.328  11.238
30088W        W 2414   8.846  21.551  12.135
30089W        W 2415   7.328  28.114   0.754
30090W        W 2416  22.506   8.827  11.497
30091W        W 2417  10.729  11.778  13.503
30092W        W 2418  25.261   0.828   1.764
30093W        W 2419  41.392  24.250  11.587
30094W        W 2420  43.248  17.763   4.467
30095W        W 2421  29.164  10.851  10.654
30096W        W 2422  42.283  31.701   3.171
30097W        W 2423   8.338  22.055   1.327
30098W        W 2424  26.222   7.961  12.403
30099W        W 2425  15.256  36.964  11.956
30100W        W 2426  35.299   4.938  12.148
30101W        W 2427   1.075  18.276  12.600
30102W        W 2428   9.919   9.038   2.886
30103W        W 2429   9.353  44.526  12.591
30104W        W 2430  25.492  24.294   2.393
30105W        W 2431  22.981   8.449   4.764
30106W        W 2432   5.972  14.744  10.667
30107W        W 2433  16.287  23.970  12.961
30108W        W 2434  19.225  39.246  10.796
30109W        W 2435  25.464  30.541   0.205
30110W        W 2436  44.456  35.317   3.216
30111W        W 2437  25.976  14.815   4.686
30112W        W 2438  32.788  34.049   3.552
30113W        W 2439  25.189  43.807  14.935
30114W        W 2440  40.395  23.114   4.621
30115W        W 2441  23.031  31.006  12.853
30116W        W 2442  41.399  24.133  12.463
30117W        W 2443  28.907  18.021   4.580
30118W        W 2444  37.474   3.981  12.798
30119W        W 2445  32.522  22.730  12.474
30120W        W 2446   9.629  43.702   2.289
30121W        W 2447  39.644  29.367   1.830
30122W        W 2448  17.011  33.412  11.047
30123W        W 2449  22.556  13.791   1.199
30124W        W 2450  25.729   8.674   2.002
30125W        W 2451  10.214  43.265  11.574
30126W        W 2452  19.098   8.848  12.353
30127W        W 2453  15.717   4.625   1.938
30128W        W 2454  32.182   8.796  13.069
30129W        W 2455   7.752  38.367  10.918
30130W        W 2456  14.134  40.825  11.033
30131W        W 2457   2.207  41.741   3.105
30132W        W 2458  12.364   5.176  11.312
30133W        W 2459  23.393   1.825   4.682
30134W        W 2460  29.594  36.544   4.152
30135W        W 2461   0.040  24.201   3.596
30136W        W 2462  11.895  37.540  11.061
30137W        W 2463   4.014  43.366   3.225
30138W        W 2464  30.355   7.357  12.558
30139W        W 2465  23.530  17.256   3.182
30140W        W 2466  24.057  39.984  11.490
30141W        W 2467  43.859   5.353   3.671
30142W        W 2468  14.345  41.024   3.177
30143W        W 2469  17.612  27.015   2.840
30144W        W 2470  19.569  11.322  10.674
30145W        W 2471  34.982  42.033   3.622
30146W        W 2472  19.688   3.146   0.927
30147W        W 2473  16.041   0.803   0.360
30148W        W 2474  16.095  39.765   1.844
30149W        W 2475  16.783  14.217   3.322
30150W        W 2476  25.441  42.309  14.011
30151W        W 2477   5.330   5.335  10.741
30152W        W 2478   2.350  18.896  13.804
30153W        W 2479  35.622  34.379   2.897
30154W        W 2480  41.825   5.005  14.797
30155W        W 2481   9.676   9.680  13.432
30156W        W 2482  25.909  14.756  12.013
30157W        W 2483  10.214  29.104  10.810
30158W        W 2484  34.121  33.486  13.981
30159W        W 2485  11.597  37.410  12.878
30160W        W 2486  12.593  20.519   2.847
30161W        W 2487  40.145  18.801   3.438
30162W        W 2488  38.846  13.635   4.663
30163W        W 2489  31.351  35.045   0.267
30164W        W 2490   9.319  39.229  12.947
30165W        W 2491   7.695  40.898  13.556
30166W        W 2492  12.557  41.551   3.436
30167W        W 2493  39.858  20.827   4.998
30168W        W 2494  32.380   6.671   4.156
30169W        W 2495   5.318  13.222   0.839
30170W        W 2496  22.595  35.387   4.609
30171W        W 2497  31.140  24.268  12.469
30172W        W 2498  17.507  29.665   4.115
30173W        W 2499  33.028  40.870   2.114
30174W        W 2500  22.098   9.797   2.245
30175W        W 2501  33.614  16.266  12.468
30176W        W 2502  42.396  36.346  12.931
30177W        W 2503  21.220  22.727  12.205
30178W        W 2504  16.455   7.792  14.882
30179W        W 2505  39.579  37.321   2.119
30180W        W 2506   0.017  43.508  14.275
30181W        W 2507  32.672   8.882   2.189
30182W        W 2508   1.906  22.702   1.350
30183W        W 2509  19.698  18.763   0.343
30184W        W 2510  40.069   9.060  14.622
30185W        W 2511  31.151  24.114  11.572
30186W        W 2512  41.551  14.974   2.875
30187W        W 2513   1.960   4.750   0.552
30188W        W 2514  21.523  24.658   3.767
30189W        W 2515  23.494  41.328   3.109
30190W        W 2516   0.906  26.917   0.045
30191W        W 2517  18.183  26.187   2.635
30192W        W 2518  25.465  21.036   4.105
30193W        W 2519   4.484  14.332   2.754
30194W        W 2520   9.872  22.022  12.907
30195W        W 2521  40.822  25.065  10.598
30196W        W 2522  15.320  16.158  12.887
30197W        W 2523  17.605  18.637   0.689
30198W        W 2524  38.034  16.757  12.159
30199W        W 2525  26.493   2.415   2.667
30200W        W 2526  15.751  14.715   1.608
30201W        W 2527  39.464  10.499  13.822
30202W        W 2528  32.013   7.684  11.178
30203W        W 2529  23.170   2.769   2.924
30204W        W 2530   7.331  30.772  14.281
30205W        W 2531  13.041   6.744  13.950
30206W        W 2532   8.302  34.853   4.143
30207W        W 2533   6.580   9.568  14.898
30208W        W 2534  19.577  17.307   3.825
30209W        W 2535  38.373  31.999   2.201
30210W        W 2536  36.790   2.316  13.317
30211W        W 2537  37.438  33.448  14.842
30212W        W 2538   6.858  15.905   0.642
30213W        W 2539   5.687  11.723  12.030
30214W        W 2540  12.599  14.327  14.883
30215W        W 2541  30.912   6.235   3.736
30216W        W 2542  11.695  12.024  13.580
30217W        W 2543  44.498  36.281   1.696
30218W        W 2544  19.505   4.903   1.854
30219W        W 2545  21.165   1.724   4.173
30220W        W 2546  31.117  15.048  10.900
30221W        W 2547  32.662  28.831   3.030
30222W        W 2548   9.294  23.000   0.341
30223W        W 2549  40.053   1.860   2.699
30224W        W 2550   8.825  38.585   2.831
30225W        W 2551  13.991   7.320  11.332
30226W        W 2552   6.900   0.302   3.221
30227W        W 2553   9.607   1.851  14.027
30228W        W 2554  43.346   5.102   3.767
30229W        W 2555  31.597   9.452   0.759
30230W        W 2556  29.209  22.037   2.388
30231W        W 2557  39.410  22.389  14.875
30232W        W 2558   1.820   7.135   1.873
30233W        W 2559  39.416  12.783  10.583
30234W        W 2560  14.563  38.650  12.065
30235W        W 2561  40.302  42.320  11.538
30236W        W 2562  42.301   6.853  14.345
30237W        W 2563   6.755  33.443   4.732
30238W        W 2564  32.720  20.101   4.200
30239W        W 2565  42.279   8.748   0.757
30240W        W 2566  34.636  32.237   2.367
30241W        W 2567  35.880  17.557   3.172
30242W        W 2568   1.166  18.186   1.325
30243W        W 2569  30.411  19.701   3.579
30244W        W 2570  27.680  23.190  11.590
30245W        W 2571  26.127  13.524   4.033
30246W        W 2572  40.907  11.543  10.531
30247W        W 2573  29.434  27.228  13.378
30248W        W 2574  37.848  37.312   0.460
30249W        W 2575  22.276  41.779   2.184
30250W        W 2576   5.911   8.139  14.884
30251W        W 2577  33.930   5.463   3.811
30252W        W 2578  10.716   3.882  11.126
30253W        W 2579  32.384  20.990   3.270
30254W        W 2580  34.796  40.925   2.770
30255W        W 2581   1.540  32.536  12.674
30256W        W 2582  31.349   3.422  13.884
30257W        W 2583  24.675  43.911  14.804
30258W        W 2584   3.823  34.060   2.346
30259W        W 2585  22.650  30.407   3.639
30260W        W 2586   5.397  20.482   2.153
30261W        W 2587   2.363  32.896   1.851
30262W        W 2588   0.342   5.608  10.523
30263W        W 2589  34.396  33.898  14.823
30264W        W 2590  14.033   9.133  11.534
30265W        W 2591  11.710  14.816  10.725
30266W        W 2592   5.364  40.055  14.051
30267W        W 2593  19.250  41.004   3.427
30268W        W 2594  35.003   1.528  11.104
30269W        W 2595  11.678  20.057   3.901
30270W        W 2596  36.884  36.408   2.381
30271W        W 2597  21.105   3.434   5.026
30272W        W 2598  32.158  17.983  13.039
30273W        W 2599   1.050  42.835  10.347
30274W        W 2600  37.609  44.545  14.580
30275W        W 2601  10.452  32.756   3.753
30276W        W 2602  38.363   1.483  14.822
30277W        W 2603  11.174   3.676   1.438
30278W        W 2604  43.505   0.989  11.270
30279W        W 2605  31.913  41.142  11.666
30280W        W 2606  10.391  12.719   1.229
30281W        W 2607  38.977  24.538  14.420
30282W        W 2608  35.885  21.202  10.912
30283W        W 2609  38.036  41.851  10.651
30284W        W 2610   2.871  35.021   0.309
30285W        W 2611  19.695  25.552  11.489
30286W        W 2612  20.590  37.916  12.358
30287W        W 2613  13.710   1.717  14.838
30288W        W 2614  41.212  27.499   4.136
30289W        W 2615  16.211   9.379  14.864
30290W        W 2616   3.498  25.584  12.965
30291W        W 2617  18.641  18.443  14.485
30292W        W 2618  44.290   2.948  10.407
30293W        W 2619  12.114  21.205  13.354
30294W        W 2620   8.742  36.974  14.289
30295W        W 2621  35.500   1.933  11.535
30296W        W 2622  29.919  14.570   3.709
30297W        W 2623  13.171  37.966   0.465
30298W        W 2624  34.053  43.410   4.673
30299W        W 2625   4.759  16.392  10.445
30300W        W 2626   5.496  34.293  11.417
30301W        W 2627   8.720  18.490   4.025
30302W        W 2628  23.623  14.059  13.832
30303W        W 2629  37.085  44.895  13.968
30304W        W 2630  44.980  16.623  10.806
30305W        W 2631  10.104  17.733   0.915
30306W        W 2632  38.126  10.022  10.696
30307W        W 2633  21.303  24.724   3.300
30308W        W 2634   2.194   2.009  11.118
30309W        W 2635   2.961  24.406   3.620
30310W        W 2636  33.156  38.865  14.994
30311W        W 2637   4.964  44.497  10.719
30312W        W 2638   7.814  12.658   2.371
30313W        W 2639  15.579  17.460  11.460
30314W        W 2640  44.393  25.923  14.000
30315W        W 2641  13.734  44.439  14.936
30316W        W 2642   4.777  43.736   2.648
30317W        W 2643  22.560  16.449   5.076
30318W        W 2644  15.619  24.763  11.577
30319W        W 2645  40.267  30.535   0.310
30320W        W 2646  39.974  17.542  14.288
30321W        W 2647  11.856  31.641   0.229
30322W        W 2648   1.583  35.847   2.854
30323W        W 2649  15.820  20.311   2.370
30324W        W 2650  28.168  30.016  10.935
30325W        W 2651  34.084  38.486   2.293
30326W        W 2652  27.527   8.354   0.150
30327W        W 2653  41.861  28.450  12.636
30328W        W 2654  25.123  17.317   0.773
30329W        W 2655  15.136  16.287  10.669
30330W        W 2656  10.707  10.393  14.276
30331W        W 2657   0.976   2.356   5.442
30332W        W 2658   8.191  33.142   4.658
30333W        W 2659  39.759  16.390   3.703
30334W        W 2660  13.345  33.917   5.283
30335W        W 2661  11.176  22.965   4.261
30336W        W 2662  33.431  33.320   3.606
30337W        W 2663  16.192  32.040  11.608
30338W        W 2664  26.034  33.118   3.666
30339W        W 2665  22.243  26.603  11.510
30340W        W 2666   8.116  31.178  12.546
30341W        W 2667  17.256   6.879   3.755
30342W        W 2668   9.789   3.467   1.752
30343W        W 2669  19.922  44.650   3.273
30344W        W 2670  36.902  15.723   0.167
30345W        W 2671  37.103  27.564   2.208
30346W        W 2672   0.464   2.281   4.739
30347W        W 2673   6.453  38.510   2.813
30348W        W 2674   5.413  39.216  14.384
30349W        W 2675  24.510  38.000   1.211
30350W        W 2676   2.011   1.144  10.602
30351W        W 2677  42.482  44.979   2.484
30352W        W 2678   1.916  23.240   2.659
30353W        W 2679  24.624  38.011  13.904
30354W        W 2680   2.657   1.989   2.124
30355W        W 2681  10.615   2.994   1.715
30356W        W 2682  33.602  10.401  13.503
30357W        W 2683   8.489  12.866   1.666
30358W        W 2684   4.279  20.168   3.924
30359W        W 2685  11.969  33.897  11.106
30360W        W 2686  23.500   3.355  11.658
30361W        W 2687  25.531  36.637   0.414
30362W        W 2688  35.379  40.106  14.915
30363W        W 2689  10.559  43.031  14.035
30364W        W 2690  14.572   4.653   4.468
30365W        W 2691  25.225  21.207  13.112
30366W        W 2692  19.465   8.664  11.475
30367W        W 2693   3.792  23.388   4.607
30368W        W 2694  28.068  31.374  14.874
30369W        W 2695   2.955   8.142  12.633
30370W        W 2696  14.816  27.049   3.825
30371W        W 2697   3.973  42.120   1.383
30372W        W 2698  14.407  26.043  11.146
30373W        W 2699  38.580  19.686   0.958
30374W        W 2700  21.678  44.891   4.455
30375W        W 2701  40.827  41.533  14.489
30376W        W 2702  25.132  35.681  14.227
30377W        W 2703  35.799  14.580   3.678
30378W        W 2704  25.099   0.296   4.812
30379W        W 2705  26.488  40.532   3.729
30380W        W 2706  14.994  12.736   1.417
30381W        W 2707  32.371   5.281   1.302
30382W        W 2708  29.748   4.195   4.065
30383W        W 2709   8.208  21.478   0.465
30384W        W 2710  28.432  33.081   4.636
30385W        W 2711  22.751   2.277  13.841
30386W        W 2712  38.512  18.070   4.356
30387W        W 2713  42.777  31.419  13.580
30388W        W 2714  16.137  10.837  10.736
30389W        W 2715  31.909  24.490  12.459
30390W        W 2716  14.698  43.809   1.977
30391W        W 2717  25.704  23.613   4.198
30392W        W 2718  32.119  13.890  13.006
30393W        W 2719  19.315  43.539   2.855
30394W        W 2720  40.418  27.947  14.562
30395W        W 2721  12.076  32.050  13.507
30396W        W 2722   0.423  34.654  11.984
30397W        W 2723   4.982   9.776  10.496
30398W        W 2724  12.219  20.253   4.617
30399W        W 2725  32.935  38.367   2.636
30400W        W 2726   0.032   0.219   3.293
30401W        W 2727   9.476  20.338   1.912
30402W        W 2728  33.460  28.220   2.696
30403W        W 2729  25.611   6.988   2.772
30404W        W 2730  32.087  13.640   0.219
30405W        W 2731  18.008  30.091   0.331
30406W        W 2732  12.792  11.343  10.524
30407W        W 2733   4.486  18.756  11.368
30408W        W 2734  26.664  40.297  14.425
30409W        W 2735  28.971  37.505  11.987
30410W        W 2736   3.897  11.110  13.799
30411W        W 2737  44.856  31.177   1.269
30412W        W 2738  35.106   8.653   0.210
30413W        W 2739  36.700  30.665  10.191
30414W        W 2740   6.665  11.844  10.245
30415W        W 2741   7.829  17.839   0.437
30416W        W 2742  25.377  37.327  14.921
30417W        W 2743  30.609  44.404   0.687
30418W        W 2744  30.122  35.972  14.001
30419W        W 2745   5.193  16.208  13.047
30420W        W 2746  18.906  44.284   1.662
30421W        W 2747  43.554  28.109  14.028
30422W        W 2748   3.405   9.743   9.835
30423W        W 2749  12.361  38.277   2.199
30424W        W 2750  35.515  32.541   0.347
30425W        W 2751  19.508  17.821  11.534
30426W        W 2752  17.596  15.125  13.408
30427W        W 2753   8.408  30.984  12.969
30428W        W 2754   8.069  26.491  12.965
30429W        W 2755  40.937   1.215   2.418
30430W        W 2756  35.993  35.767  10.153
30431W        W 2757  31.974  40.516   1.003
30432W        W 2758  38.883  12.655  11.444
30433W        W 2759  21.829  27.494  10.588
30434W        W 2760  28.467  29.129  10.698
30435W        W 2761  27.364   4.809  11.173
30436W        W 2762  19.378  21.627  13.009
30437W        W 2763   3.414  38.749   5.086
30438W        W 2764  21.535  29.145  13.991
30439W        W 2765  27.682  30.057  13.607
30440W        W 2766  34.067  30.638  14.155
30441W        W 2767  40.731   6.138  13.537
30442W        W 2768  23.930  43.832   1.644
30443W        W 2769  22.188  22.096   0.592
30444W        W 2770  16.999  41.095   4.198
30445W        W 2771  10.649  39.650  13.138
30446W        W 2772  22.042  31.489   4.548
30447W        W 2773  32.896  39.916   4.167
30448W        W 2774  32.210  41.122  12.074
30449W        W 2775  22.445   2.891  11.163
30450W        W 2776  12.680  20.248   2.405
30451W        W 2777   3.698  11.852   3.702
30452W        W 2778  22.147  43.266  10.540
30453W        W 2779  20.251  30.452  12.973
30454W        W 2780  39.332  41.003  12.780
30455W        W 2781  40.404  24.640   4.898
30456W        W 2782  42.785  35.867   1.518
30457W        W 2783   4.264  30.228  13.018
30458W        W 2784  10.242  42.339  14.853
30459W        W 2785   1.981  10.842   5.041
30460W        W 2786   2.946  23.755  14.333
30461W        W 2787   6.194  26.896   0.880
30462W        W 2788  17.866   6.415  14.663
30463W        W 2789  10.978  11.554   3.319
30464W        W 2790  22.762  16.226   3.359
30465W        W 2791  35.789  30.683   4.061
30466W        W 2792  34.155  38.038  13.425
30467W        W 2793  35.381  14.024  11.647
30468W        W 2794  19.815  38.900   2.295
30469W        W 2795  43.489  35.418   1.014
30470W        W 2796  44.700  11.715   3.925
30471W        W 2797  34.351  40.125   4.349
30472W        W 2798   8.665  25.150   4.449
30473W        W 2799  44.863  11.619  14.469
30474W        W 2800  15.697  17.120   1.656
30475W        W 2801   4.180   0.738   2.345
30476W        W 2802  28.373  21.049  14.241
30477W        W 2803   0.470  22.048  10.545
30478W        W 2804  19.307  19.077   2.600
30479W        W 2805   5.432  22.551  13.117
30480W        W 2806  14.126  18.759   3.650
30481W        W 2807  15.273  37.462  13.398
30482W        W 2808   0.628  36.168   0.962
30483W        W 2809   9.358   5.414   4.791
30484W        W 2810  10.881  44.242   2.220
30485W        W 2811  29.655  19.867   9.938
30486W        W 2812  25.196  25.139   3.173
30487W        W 2813  11.239  41.576  14.451
30488W        W 2814  10.136  31.156   0.846
30489W        W 2815  27.942  33.030  11.429
30490W        W 2816  35.926  11.359  13.066
30491W        W 2817  37.311  30.602  11.057
30492W        W 2818  14.699  43.752   0.122
30493W        W 2819  17.780  33.993   0.257
30494W        W 2820   0.330  27.165  10.386
30495W        W 2821  26.639  34.522  10.246
30496W        W 2822  39.160  17.639   0.368
30497W        W 2823   0.434   4.785   2.265
30498W        W 2824  19.623  11.713   2.192
30499W        W 2825  30.054  20.651  11.565
30500W        W 2826  31.590  29.155   3.681
30501W        W 2827  41.417   5.236   4.066
30502W        W 2828  34.208  11.115   2.633
30503W        W 2829  24.026  43.464  13.486
30504W        W 2830  31.543  18.057  14.092
30505W        W 2831  40.882  38.548  13.880
30506W        W 2832  27.980  21.859  13.838
30507W        W 2833   6.176  11.467   2.766
30508W        W 2834   8.457   7.956   1.362
30509W        W 2835  18.702  21.391   1.930
30510W        W 2836  24.067  30.678   1.661
30511W        W 2837  38.574  20.273   2.115
30512W        W 2838  31.348   5.300   1.211
30513W        W 2839   5.737  30.891   2.289
30514W        W 2840  27.248  31.009  14.401
30515W        W 2841   2.354   0.187  13.742
30516W        W 2842   9.248  18.486  14.986
30517W        W 2843  16.180  33.439   9.933
30518W        W 2844  34.076  11.909   0.197
30519W        W 2845   5.207  24.564   2.934
30520W        W 2846  24.040  42.549   2.728
30521W        W 2847  19.985  35.530   1.889
30522W        W 2848  39.005  16.213  12.468
30523W        W 2849   7.920  20.411   4.993
30524W        W 2850   4.486  17.543  13.812
30525W        W 2851  36.455  19.502   0.236
30526W        W 2852  25.582   7.211   3.233
30527W        W 2853  32.289   0.916  11.332
30528W        W 2854  16.167   7.583   4.773
30529W        W 2855  35.997   4.954   2.843
30530W        W 2856   1.989   3.427  14.837
30531W        W 2857  20.720  36.095   1.604
30532W        W 2858  33.984  25.596   4.454
30533W        W 2859  33.787  30.041  12.018
30534W        W 2860  17.269  34.322  12.466
30535W        W 2861  26.103  27.262  10.177
30536W        W 2862  44.346   2.690   4.886
30537W        W 2863  29.662  25.976  12.327
30538W        W 2864  19.800  14.832   4.103
30539W        W 2865  43.401  22.765  10.452
30540W        W 2866   2.732  28.025  12.457
30541W        W 2867  10.804  20.165   2.871
30542W        W 2868  10.751  21.014  13.205
30543W        W 2869  32.902  26.883   1.369
30544W        W 2870  14.098  31.944   1.144
30545W        W 2871  34.057   5.222   0.409
30546W        W 2872   4.002  30.580   0.251
30547W        W 2873  30.746   9.062  12.064
30548W        W 2874   0.288  20.628   3.696
30549W        W 2875  25.922  37.470  11.141
30550W        W 2876  14.926  36.175  12.974
30551W        W 2877  12.982  38.574  11.722
30552W        W 2878  42.002   5.254  12.881
30553W        W 2879  12.231   1.654   5.003
30554W        W 2880  28.912   1.757  12.161
30555W        W 2881  33.421  42.595  14.778
30556W        W 2882  37.552  13.846  10.971
30557W        W 2883  37.522  28.174   3.673
30558W        W 2884  19.581  20.502  12.974
30559W        W 2885  43.564   8.712  11.305
30560W        W 2886  30.626  17.539   4.571
30561W        W 2887  29.039  44.608  14.528
30562W        W 2888   6.481  38.066  13.842
30563W        W 2889  24.557  13.079  14.108
30564W        W 2890  26.100  38.868   0.516
30565W        W 2891  39.220  11.761   2.505
30566W        W 2892  41.209   5.871  13.013
30567W        W 2893  20.628  24.895   2.810
30568W        W 2894  17.524   6.571   3.330
30569W        W 2895   8.688   1.584   0.649
30570W        W 2896  29.568  37.934  13.353
30571W        W 2897   4.683  25.800   0.322
30572W        W 2898   4.374  28.407   1.872
30573W        W 2899   0.516  31.726   3.156
30574W        W 2900  12.705  10.839  14.760
30575W        W 2901  19.616  17.130   3.353
30576W        W 2902  37.995  23.165   2.491
30577W        W 2903   5.175  43.345  14.047
30578W        W 2904  19.519  27.109   1.543
30579W        W 2905  33.536  35.911  10.636
30580W        W 2906  20.187   2.040   4.033
30581W        W 2907  35.945  35.461  11.500
30582W        W 2908   4.238  30.136  11.468
30583W        W 2909  16.200  15.679  14.975
30584W        W 2910  39.909  11.634  12.936
30585W        W 2911  16.893   5.674  12.082
30586W        W 2912  18.796  44.454  12.548
30587W        W 2913  43.938  36.516  11.805
30588W        W 2914   1.881  19.620  13.925
30589W        W 2915  36.015  28.651   1.994
30590W        W 2916  36.522  23.418   2.941
30591W        W 2917  38.130  21.477  10.088
30592W        W 2918  13.275  36.243   3.184
30593W        W 2919  35.296  34.336   0.024
30594W        W 2920  38.581  34.378   2.722
30595W        W 2921  19.972   6.128   1.773
30596W        W 2922   8.757  38.458   1.302
30597W        W 2923   7.731  25.249   0.684
30598W        W 2924  10.425   9.024  11.551
30599W        W 2925   0.452  32.010   1.287
30600W        W 2926  21.698  44.848   1.427
30601W        W 2927  41.399  28.883  10.708
30602W        W 2928  17.223  38.967   0.174
30603W        W 2929  41.247   3.505   0.427
30604W        W 2930  33.303   8.468  10.672
30605W        W 2931  40.487  38.537  14.383
30606W        W 2932  23.539  42.235  14.859
30607W        W 2933  43.985  37.387   3.364
30608W        W 2934  18.138  29.602   0.432
30609W        W 2935  18.222  18.239  11.087
30610W        W 2936  24.740   8.776   4.766
30611W        W 2937  26.498  12.902   3.218
30612W        W 2938  43.843  41.921   4.100
30613W        W 2939  33.286  38.829  12.010
30614W        W 2940  25.829  26.753   3.743
30615W        W 2941  33.889  16.813  13.315
30616W        W 2942   9.882   7.639  14.947
30617W        W 2943   5.636   5.581  13.567
30618W        W 2944   3.392  31.166   2.360
30619W        W 2945  35.005  44.966   4.703
30620W        W 2946  44.018  22.939   2.903
30621W        W 2947  13.714   8.182   1.272
30622W        W 2948  40.762  35.407   0.902
30623W        W 2949   0.483   4.894  11.590
30624W        W 2950  28.519  40.899  12.378
30625W        W 2951  28.782   4.020   3.752
30626W        W 2952  31.434   7.281   2.315
30627W        W 2953  41.904  29.642  13.928
30628W        W 2954  37.836  42.214  14.899
30629W        W 2955  26.167  24.191  13.996
30630W        W 2956   4.094  16.408  12.971
30631W        W 2957  26.185  15.742  10.017
30632W        W 2958  10.657  23.503  12.004
30633W        W 2959  26.262  14.218   2.315
30634W        W 2960  30.978  20.107   2.527
30635W        W 2961  24.156  18.757   4.556
30636W        W 2962  31.998   3.275   0.264
30637W        W 2963  29.405   7.285  10.091
30638W        W 2964  44.205  19.637  11.391
30639W        W 2965  18.018  20.232   2.228
30640W        W 2966  35.411  23.489   3.416
30641W        W 2967  30.091  17.302  13.512
30642W        W 2968  21.759  39.227   3.337
30643W        W 2969  13.950  40.836  14.550
30644W        W 2970  35.613   6.284  11.537
30645W        W 2971  23.515   6.952  12.582
30646W        W 2972  30.370  19.152   1.932
30647W        W 2973  23.145  12.245  13.788
30648W        W 2974  11.064   5.859  13.362
30649W        W 2975   2.310  29.428  14.764
30650W        W 2976  27.236  29.393   5.737
30651W        W 2977  10.127  38.992  14.833
30652W        W 2978   9.634  11.449  12.138
30653W        W 2979   9.613  17.243   3.291
30654W        W 2980  13.742  30.664   4.775
30655W        W 2981  13.020   5.707   1.268
30656W        W 2982   1.339   4.277  13.663
30657W        W 2983  21.672  25.609   3.925
30658W        W 2984  11.311  42.840   4.559
30659W        W 2985  35.420  26.621   3.843
30660W        W 2986  34.821  13.255  14.405
30661W        W 2987  11.141  17.488  12.551
30662W        W 2988  25.660  12.974  12.845
30663W        W 2989  21.534  26.829  14.456
30664W        W 2990   2.693  12.731   9.847
30665W        W 2991   5.885  32.154   4.181
30666W        W 2992   9.772  19.460   1.673
30667W        W 2993   7.721  44.895  13.489
30668W        W 2994   4.196   0.379  14.363
30669W        W 2995  11.777   0.793  11.244
30670W        W 2996  19.699  19.808   2.023
30671W        W 2997  17.826  16.779   4.575
30672W        W 2998  28.141  41.842  13.985
30673W        W 2999  44.294  22.201   1.437
30674W        W 3000  23.628  40.360   4.718
30675W        W 3001   5.749  23.441   2.216
30676W        W 3002  30.143  31.555  10.561
30677W        W 3003   6.294   3.278   4.030
30678W        W 3004   0.452   2.534   4.265
30679W        W 3005  41.101  35.937   3.208
30680W        W 3006   8.405   5.737  10.765
30681W        W 3007  44.451  41.587  13.488
30682W        W 3008   7.810  21.139   1.745
30683W        W 3009  44.598   7.838   2.302
30684W        W 3010  29.603   5.232   1.667
30685W        W 3011  35.662  28.473  11.184
30686W        W 3012  19.150  18.325   2.181
30687W        W 3013   8.203   4.885  10.122
30688W        W 3014   6.085  32.024   0.817
30689W        W 3015  39.468  34.351  11.132
30690W        W 3016  39.811  30.137   3.622
30691W        W 3017   2.008  18.592  11.084
30692W        W 3018  41.795   1.299   4.618
30693W        W 3019  29.641  42.486  12.016
30694W        W 3020  29.004  16.805   2.829
30695W        W 3021   9.198  42.814   4.113
30696W        W 3022   6.297  10.196  12.141
30697W        W 3023  20.835  30.747   1.840
30698W        W 3024  11.267  37.363  12.456
30699W        W 3025  34.590  32.349  13.038
30700W        W 3026  16.532   7.519   3.329
30701W        W 3027  41.764  25.220  12.112
30702W        W 3028  39.090  28.926   1.830
30703W        W 3029   0.477  15.239  10.698
30704W        W 3030  34.634   9.889  10.724
30705W        W 3031   4.979  43.359   2.344
30706W        W 3032  26.876   6.117  12.042
30707W        W 3033   7.773  31.949  12.384
30708W        W 3034  44.672  15.941   3.446
30709W        W 3035  17.671  11.012   3.661
30710W        W 3036  43.834  35.172  13.853
30711W        W 3037  20.956  11.744  14.594
30712W        W 3038  17.218   6.609  12.118
30713W        W 3039   1.933  11.991   3.304
30714W        W 3040  35.908  21.120   4.606
30715W        W 3041   5.204   1.679  12.927
30716W        W 3042  26.523  22.277   1.829
30717W        W 3043  12.250  31.136   1.822
30718W        W 3044  33.550   1.096   4.004
30719W        W 3045  27.149  25.636   4.843
30720W        W 3046  40.293  12.775   2.807
30721W        W 3047   2.477  13.798   4.308
30722W        W 3048   6.356  19.073  10.980
30723W        W 3049   0.245  10.620  11.662
30724W        W 3050  19.259  19.208   3.104
30725W        W 3051  11.486  14.158   5.065
30726W        W 3052  25.676  25.306   3.359
30727W        W 3053  40.469   2.966   3.289
30728W        W 3054  28.727  25.459  12.621
30729W        W 3055  36.108  40.994   2.427
30730W        W 3056  43.683  23.477   0.298
30731W        W 3057  11.359  34.608  13.007
30732W        W 3058  25.062  28.197  11.985
30733W        W 3059  25.698  17.280  13.493
30734W        W 3060  41.921  27.135  14.057
30735W        W 3061   7.655  34.448   1.807
30736W        W 3062  44.820  36.469   2.863
30737W        W 3063  29.600  15.425   1.763
30738W        W 3064  27.386  19.545   3.726
30739W        W 3065   3.799  26.029   1.405
30740W        W 3066  32.056  32.464   1.667
30741W        W 3067  32.872  41.786   3.337
30742W        W 3068   2.530  35.872  13.983
30743W        W 3069  12.684  18.722   4.681
30744W        W 3070  14.625   0.668   2.950
30745W        W 3071  33.550  41.080   1.344
30746W        W 3072  37.151  41.465  12.999
30747W        W 3073   3.417  40.615  13.005
30748W        W 3074   5.166  11.338  11.606
30749W        W 3075  36.409  21.473  13.913
30750W        W 3076  20.279  43.945  14.781
30751W        W 3077  18.740  22.577   3.256
30752W        W 3078  13.105  42.471  12.091
30753W        W 3079  21.678   1.835   4.554
30754W        W 3080  26.545  28.881   5.127
30755W        W 3081  25.227   6.848   2.430
30756W        W 3082   5.982   1.366  11.632
30757W        W 3083  39.577  33.207   1.701
30758W        W 3084  33.533  16.764   0.920
30759W        W 3085  35.358  43.900  12.123
30760W        W 3086  30.583   7.312  14.828
30761W        W 3087  28.530  29.079  14.318
30762W        W 3088  29.038  34.931   2.807
30763W        W 3089  39.331  20.518   3.112
30764W        W 3090   5.421  11.045  12.578
30765W        W 3091  14.135   5.752  11.532
30766W        W 3092  38.419   9.247   4.884
30767W        W 3093   3.461  40.081  12.978
30768W        W 3094   8.190   5.452   3.324
30769W        W 3095  34.590  35.087   3.261
30770W        W 3096  36.373  36.951   1.952
30771W        W 3097  16.106  11.692   3.750
30772W        W 3098  13.143  44.392  12.896
30773W        W 3099   2.242  44.338  14.878
30774W        W 3100  37.405   4.781   2.256
30775W        W 3101  22.717  42.722   5.022
30776W        W 3102  14.806  19.724  11.143
30777W        W 3103  26.050  26.016  11.447
30778W        W 3104   2.605  35.802  13.088
30779W        W 3105  15.168  42.404  12.294
30780W        W 3106  37.296  29.064  12.575
30781W        W 3107  12.246   2.304  11.631
30782W        W 3108   5.920  10.136   2.741
30783W        W 3109  23.260  35.230  10.099
30784W        W 3110  17.585  22.187   4.706
30785W        W 3111  43.737  22.388   2.243
30786W        W 3112  22.687   9.063   3.999
30787W        W 3113  37.210   9.550   2.951
30788W        W 3114   2.146  13.788   1.247
30789W        W 3115  23.212  17.015   1.817
30790W        W 3116  29.930  21.251   1.436
30791W        W 3117  13.348  17.161  14.696
30792W        W 3118  30.068  13.251   2.826
30793W        W 3119  40.098  23.888  13.468
30794W        W 3120  21.459  43.909  13.001
30795W        W 3121  29.475  44.398  11.152
30796W        W 3122  34.405   2.299  13.629
30797W        W 3123  39.004  41.344  13.077
30798W        W 3124  16.575  36.887   2.132
30799W        W 3125  37.148  30.122   1.907
30800W        W 3126  13.396  11.747  11.208
30801W        W 3127  13.554  16.155   3.601
30802W        W 3128  43.571   9.241  12.469
30803W        W 3129  18.614  22.759   1.258
30804W        W 3130  11.658  35.019   4.975
30805W        W 3131  39.306   2.095  11.519
30806W        W 3132  30.399  22.577   3.661
30807W        W 3133  22.668  31.048   4.368
30808W        W 3134  38.022  40.875  13.944
30809W        W 3135  18.488  32.092   0.203
30810W        W 3136   8.918  15.280  11.067
30811W        W 3137  15.599  11.540   3.599
30812W        W 3138   6.604  36.355   4.200
30813W        W 3139  14.573  31.139  11.637
30814W        W 3140  26.687  30.041   2.095
30815W        W 3141   8.115   4.451  14.365
30816W        W 3142   4.270  26.745   3.369
30817W        W 3143  11.597  17.818   0.885
30818W        W 3144  41.834  14.260  14.476
30819W        W 3145  18.844  31.257   1.952
30820W        W 3146   1.838   4.724  12.678
30821W        W 3147  12.791   0.315   0.406
30822W        W 3148  25.009  26.415   3.811
30823W        W 3149  42.721   2.506   0.352
30824W        W 3150  27.392   8.932   1.377
30825W        W 3151  19.580   6.256  12.070
30826W        W 3152  15.838  40.786  13.725
30827W        W 3153  33.336   6.936  13.699
30828W        W 3154  38.550  11.788  12.086
30829W        W 3155  15.506   9.184  13.584
30830W        W 3156  35.036  27.646   2.196
30831W        W 3157  43.422  42.827   4.984
30832W        W 3158  31.579  22.168   0.924
30833W        W 3159  20.771  27.482   1.409
30834W        W 3160   7.811  39.423   0.932
30835W        W 3161  41.551  17.123   0.322
30836W        W 3162  18.844  15.290  13.026
30837W        W 3163  26.138   0.662  11.639
30838W        W 3164   9.157  26.680  14.999
30839W        W 3165  31.721  12.493  12.524
30840W        W 3166   8.252  10.172  13.748
30841W        W 3167  35.433  41.564   1.076
30842W        W 3168  30.656   9.598  14.817
30843W        W 3169  15.490  15.615  10.161
30844W        W 3170   6.817  21.123  11.955
30845W        W 3171  32.460  37.438  11.610
30846W        W 3172   9.393  20.309  11.619
30847W        W 3173  24.190  23.532  14.861
30848W        W 3174  41.901  43.455   1.842
30849W        W 3175  31.353  18.788  13.395
30850W        W 3176  43.248  14.617   2.204
30851W        W 3177  32.618  23.763   1.312
30852W        W 3178  32.888  19.057  12.547
30853W        W 3179  36.937  20.636   2.314
30854W        W 3180  19.736  10.828  12.414
30855W        W 3181   3.251  23.069  10.581
30856W        W 3182  19.005  40.566  12.318
30857W        W 3183  19.104   0.702   0.955
30858W        W 3184  21.665  36.135   3.813
30859W        W 3185   9.592  27.808  10.259
30860W        W 3186  31.661   3.833   1.335
30861W        W 3187   9.864  12.718  13.025
30862W        W 3188  18.068  18.753   2.928
30863W        W 3189  17.577  28.109   0.171
30864W        W 3190  39.030  40.059  11.735
30865W        W 3191   6.855  32.143   1.354
30866W        W 3192  29.751  24.975   2.662
30867W        W 3193  35.932  35.690   1.902
30868W        W 3194  10.874  34.553  10.715
30869W        W 3195  16.080  27.146   4.744
30870W        W 3196  20.047  22.121  12.542
30871W        W 3197  12.216   0.330  12.956
30872W        W 3198   5.204   6.724   0.203
30873W        W 3199  23.460  33.993  11.542
30874W        W 3200  18.310  21.494   1.078
30875W        W 3201  27.223   7.068  13.750
30876W        W 3202  32.991  36.289   2.511
30877W        W 3203  27.089  15.845   2.823
30878W        W 3204  12.115  36.961  14.217
30879W        W 3205  25.940  27.083  14.492
30880W        W 3206   9.153  30.158   1.894
30881W        W 3207  13.786  20.629   3.163
30882W        W 3208  11.589  44.366  13.140
30883W        W 3209  39.448   7.246   2.369
30884W        W 3210   9.356   8.435   2.869
30885W        W 3211  19.404  26.733  12.039
30886W        W 3212  20.989  17.117   2.059
30887W        W 3213  16.835  29.097  14.480
30888W        W 3214  34.650   7.494  11.039
30889W        W 3215   6.621  32.506   2.190
30890W        W 3216  26.708  43.563  12.969
30891W        W 3217  11.226   9.203  10.564
30892W        W 3218  30.831  33.799  12.773
30893W        W 3219  22.520   2.190  13.392
30894W        W 3220  20.033  15.884  11.593
30895W        W 3221   0.966  43.090   4.259
30896W        W 3222  39.513  11.687  10.683
30897W        W 3223  39.051  16.831  14.752
30898W        W 3224  18.552  43.245   1.244
30899W        W 3225  26.587  30.392  14.758
30900W        W 3226   2.839  28.723   3.834
30901W        W 3227  21.537  16.272   3.147
30902W        W 3228   5.261  43.740  14.876
30903W        W 3229  10.174  23.048  12.427
30904W        W 3230   1.911  38.280  13.934
30905W        W 3231  35.586  29.524   0.342
30906W        W 3232  16.368  33.420   2.155
30907W        W 3233  33.097  31.434  14.833
30908W        W 3234  44.506  39.774   4.200
30909W        W 3235  24.973  27.475  13.554
30910W        W 3236  11.284  34.748   4.677
30911W        W 3237  14.841  25.004   3.755
30912W        W 3238  39.250  37.012  12.210
30913W        W 3239  12.823  43.889  10.731
30914W        W 3240  38.186  31.986  11.609
30915W        W 3241   3.297  30.370  14.516
30916W        W 3242  14.086  43.390   2.659
30917W        W 3243  38.089   5.813  14.316
30918W        W 3244  37.454  11.197  12.315
30919W        W 3245  22.254  28.670  13.455
30920W        W 3246  41.882  16.696  11.557
30921W        W 3247  30.193   6.690   3.319
30922W        W 3248  17.574  36.370  14.336
30923W        W 3249   1.121   3.425   5.420
30924W        W 3250  35.509  17.059   1.230
30925W        W 3251  30.324  16.254  11.113
30926W        W 3252  26.548  11.791   2.345
30927W        W 3253  32.033  12.834   3.448
30928W        W 3254   5.397  31.202  10.651
30929W        W 3255  43.574  33.023  11.217
30930W        W 3256  32.940  35.200   1.534
30931W        W 3257  34.940  32.891   1.288
30932W        W 3258   7.544  35.142  11.934
30933W        W 3259  42.802   6.035   4.242
30934W        W 3260  22.221  24.284   0.244
30935W        W 3261  19.172  28.728   4.634
30936W        W 3262   5.242  37.549   2.217
30937W        W 3263  24.192  33.939  12.789
30938W        W 3264  21.012  19.811   9.862
30939W        W 3265  22.135  24.947   2.612
30940W        W 3266   6.134  38.505  13.789
30941W        W 3267   0.463  32.059  10.729
30942W        W 3268   9.755  34.981  11.969
30943W        W 3269  10.859  12.600  10.740
30944W        W 3270   0.535  18.876  12.571
30945W        W 3271   2.403   3.631  12.456
30946W        W 3272   8.399  19.134   2.204
30947W        W 3273  37.239  44.738  11.979
30948W        W 3274  22.274  34.593   3.572
30949W        W 3275   9.309   5.937  12.468
30950W        W 3276  44.422  35.078   3.663
30951W        W 3277  30.358  10.212  12.458
30952W        W 3278  23.027   3.707  12.623
30953W        W 3279  42.437  24.268   3.604
30954W        W 3280  33.936  15.978  12.203
30955W        W 3281  22.237  33.030   1.869
30956W        W 3282   1.971  23.962  14.063
30957W        W 3283  19.578  42.730   0.314
30958W        W 3284   9.141  20.087  11.213
30959W        W 3285  22.609  23.068  10.840
30960W        W 3286  35.483  39.775  11.506
30961W        W 3287  30.420   1.177   1.816
30962W        W 3288  17.808  10.535  14.067
30963W        W 3289   7.776  24.625  11.168
30964W        W 3290   1.786  26.626  14.965
30965W        W 3291   3.510  21.967   5.156
30966W        W 3292  44.775  12.839   0.038
30967W        W 3293  17.203   5.027  14.229
30968W        W 3294  38.571  14.692  12.828
30969W        W 3295  34.331  40.446  11.140
30970W        W 3296  28.592  20.986  12.971
30971W        W 3297  44.857  38.202   1.657
30972W        W 3298   6.346  39.064  11.121
30973W        W 3299  31.676  24.998  10.424
30974W        W 3300  21.656  10.124   0.448
30975W        W 3301   6.056   5.559   0.992
30976W        W 3302  36.060   0.376  14.118
30977W        W 3303  20.098  11.441   4.230
30978W        W 3304  18.769  21.159   4.031
30979W        W 3305  31.166   6.720   3.670
30980W        W 3306  20.852  38.957   2.150
30981W        W 3307  25.554   3.959   2.671
30982W        W 3308  11.314   0.458   0.396
30983W        W 3309  31.333  20.576  11.122
30984W        W 3310  25.176  44.905  11.338
30985W        W 3311  38.743   1.280  14.498
30986W        W 3312  40.533  32.877   3.595
30987W        W 3313  25.730  23.247   1.466
30988W        W 3314  31.563   0.536  13.994
30989W        W 3315   4.012  11.336   1.794
30990W        W 3316  40.314  23.863  13.931
30991W        W 3317  34.074  39.938   0.229
30992W        W 3318  16.522  26.551  12.637
30993W        W 3319  30.134  10.125   0.405
30994W        W 3320   1.245  42.309   3.833
30995W        W 3321  17.124  12.318  14.019
30996W        W 3322   2.414  12.036  14.821
30997W        W 3323   4.901  22.566   4.667
30998W        W 3324   1.446  21.147   1.249
30999W        W 3325  18.539  40.793  12.127
31000W        W 3326  33.459  39.519   3.775
31001W        W 3327  18.136   3.716  14.993
31002W        W 3328   6.820  38.861   1.454
31003W        W 3329  26.458  29.507  11.896
31004W        W 3330  19.056  19.724   3.198
31005W        W 3331  19.484   2.768   3.758
31006W        W 3332  40.173   9.308   2.744
31007W        W 3333   2.193  11.920   2.715
31008W        W 3334  17.491  14.978  13.890
31009W        W 3335  22.074  34.502  11.087
31010W        W 3336  29.793  37.502  14.574
31011W        W 3337  27.969  11.927   2.225
31012W        W 3338  41.994  13.713  13.438
31013W        W 3339   5.898  36.926   1.706
31014W        W 3340   8.163  12.274   4.607
31015W        W 3341   6.493  15.237   2.923
31016W        W 3342  21.654  18.161   5.075
31017W        W 3343  19.651   5.964  11.204
31018W        W 3344   9.408  21.304  13.986
31019W        W 3345  30.667  34.849  10.814
31020W        W 3346  22.825  19.971  10.348
31021W        W 3347  21.721  40.469   0.418
31022W        W 3348  35.623  10.230  13.577
31023W        W 3349  22.386  29.585   0.849
31024W        W 3350  12.695  30.109   3.144
31025W        W 3351  22.341  14.703  11.865
31026W        W 3352  41.040  19.326   2.777
31027W        W 3353  34.410  41.534   1.659
31028W        W 3354  32.424  28.227   1.759
31029W        W 3355  32.127  20.058   3.389
31030W        W 3356  40.086  28.639  11.168
31031W        W 3357  40.780  17.283  12.914
31032W        W 3358  11.402   0.330  13.990
31033W        W 3359   0.500  36.794  11.477
31034W        W 3360  17.477  30.157   0.397
31035W        W 3361  43.310  40.559  12.919
31036W        W 3362  18.681  40.604  14.865
31037W        W 3363  42.263  31.532  12.157
31038W        W 3364  33.981  16.752   0.681
31039W        W 3365  16.103  26.583   5.113
31040W        W 3366  27.606  13.203  11.968
31041W        W 3367   6.718  14.845  13.980
31042W        W 3368  10.650  12.362   3.132
31043W        W 3369  41.490  24.796   2.076
31044W        W 3370  10.884  42.519   4.585
31045W        W 3371  30.606  21.463  14.304
31046W        W 3372  39.041  29.756  13.326
31047W        W 3373  41.708  10.682  14.570
31048W        W 3374  14.172   6.885  14.381
31049W        W 3375  40.335  29.896   2.066
31050W        W 3376  24.918  16.163   3.969
31051W        W 3377  44.546  12.249   4.778
31052W        W 3378  22.219  12.190  10.608
31053W        W 3379  40.649  28.036   3.638
31054W        W 3380  38.422   9.319  10.144
31055W        W 3381   6.761  18.885  13.611
31056W        W 3382  17.517  39.822   3.396
31057W        W 3383   8.285   6.314  11.427
31058W        W 3384   8.893  17.641  11.884
31059W        W 3385  35.004  23.808   3.493
31060W        W 3386   8.490  22.748   3.341
31061W        W 3387  19.090  41.420  12.087
31062W        W 3388  16.787  15.223  10.531
31063W        W 3389  18.633   4.670  12.145
31064W        W 3390  12.758  24.094  13.527
31065W        W 3391  12.430  29.162   1.782
31066W        W 3392  38.938  12.573   4.774
31067W        W 3393  14.115  40.073   1.978
31068W        W 3394  10.238  13.580  12.453
31069W        W 3395  14.734  16.651  10.646
31070W        W 3396  14.608  27.594   0.237
31071W        W 3397   7.373  19.324   1.578
31072W        W 3398   8.916   3.685   1.674
31073W        W 3399  39.739  38.479   0.380
31074W        W 3400  24.035  16.117  14.930
31075W        W 3401  44.378  11.751  14.369
31076W        W 3402   1.319  23.484  13.556
31077W        W 3403  21.111  38.653   0.364
31078W        W 3404   8.810  26.916   1.284
31079W        W 3405  27.889  39.460   1.729
31080W        W 3406   5.923  19.223   3.716
31081W        W 3407  15.207  18.748   4.612
31082W        W 3408   8.173  42.468   2.032
31083W        W 3409  38.885  16.723  12.697
31084W        W 3410  26.141  40.651   2.674
31085W        W 3411  23.192  28.462  13.740
31086W        W 3412   1.276  23.023   3.682
31087W        W 3413  27.072  15.488   4.772
31088W        W 3414  44.472  41.383   3.711
31089W        W 3415  13.649   4.221  13.736
31090W        W 3416  40.654  41.068  12.017
31091W        W 3417  25.092  21.558   0.928
31092W        W 3418  34.460   2.779  13.475
31093W        W 3419   7.763  41.308   2.304
31094W        W 3420  10.754  31.214   0.400
31095W        W 3421  39.155   8.713   1.268
31096W        W 3422  42.928   1.618   0.693
31097W        W 3423  33.922   1.359   4.534
31098W        W 3424  37.286  23.044   0.475
31099W        W 3425   0.368  36.915  13.817
31100W        W 3426  11.274   5.337  12.220
31101W        W 3427   0.634  32.861  12.014
31102W        W 3428  41.754  36.274   1.330
31103W        W 3429  22.572  29.585   4.675
31104W        W 3430  32.470  35.640  12.890
31105W        W 3431  33.086  37.621  14.463
31106W        W 3432  24.701  20.986  11.331
31107W        W 3433  41.831  33.731   1.245
31108W        W 3434   0.925  33.148   3.318
31109W        W 3435  10.362   7.665  14.772
31110W        W 3436  40.703  17.968   1.503
31111W        W 3437   4.224   7.356   0.677
31112W        W 3438  21.562  26.118   0.310
31113W        W 3439  31.637  29.871   0.462
31114W        W 3440  40.783   2.225   1.782
31115W        W 3441  32.426  34.585   2.584
31116W        W 3442  32.964  24.320  13.602
31117W        W 3443   6.380  34.707  10.161
31118W        W 3444   7.779  13.942   0.974
31119W        W 3445   3.367  11.108  11.071
31120W        W 3446  35.930  34.842   1.480
31121W        W 3447  34.949  35.776   2.808
31122W        W 3448  32.026  42.550   4.309
31123W        W 3449  24.882  32.185  11.100
31124W        W 3450  20.824  15.745   0.860
31125W        W 3451  23.024  23.112  13.398
31126W        W 3452  43.593  17.078   0.860
31127W        W 3453  37.416  34.162  12.670
31128W        W 3454  32.683  36.997  10.910
31129W        W 3455   9.420  33.985   1.432
31130W        W 3456  17.777  29.899  14.081
31131W        W 3457  44.590  27.729   0.866
31132W        W 3458  44.895   0.696  13.600
31133W        W 3459  35.109  34.644   0.420
31134W        W 3460   4.388  35.973   0.392
31135W        W 3461  13.339  32.534   2.547
31136W        W 3462  28.588  40.494  11.134
31137W        W 3463  32.880  44.034  13.357
31138W        W 3464  36.339  35.044   4.962
31139W        W 3465  33.843  39.542  14.944
31140W        W 3466  36.948  20.106   4.760
31141W        W 3467  19.907   4.400  14.761
31142W        W 3468  26.759  43.505   1.744
31143W        W 3469  29.042  11.783   0.228
31144W        W 3470  30.246  30.655   0.133
31145W        W 3471   7.367  13.676   4.727
31146W        W 3472   6.791  28.668   1.719
31147W        W 3473  28.419  39.136   3.619
31148W        W 3474  42.806  29.112  13.860
31149W        W 3475  15.123  35.264  13.004
31150W        W 3476   9.209  19.523  12.050
31151W        W 3477  25.953  17.624   2.005
31152W        W 3478  34.344  34.946   4.533
31153W        W 3479  10.633   0.027   4.067
31154W        W 3480  34.900  36.101  14.167
31155W        W 3481  35.924  40.077   4.472
31156W        W 3482  39.203   1.298   3.201
31157W        W 3483  26.071   6.921   1.207
31158W        W 3484  25.123  37.051   2.606
31159W        W 3485  19.798   3.094   1.930
31160W        W 3486  34.077  23.846  14.483
31161W        W 3487  29.443  42.965   1.115
31162W        W 3488  43.280  41.346  14.898
31163W        W 3489   6.438   5.131  11.670
31164W        W 3490  37.089  26.663   2.750
31165W        W 3491  38.319  13.358  12.863
31166W        W 3492  25.900  13.615  13.599
31167W        W 3493   2.753  35.404  13.963
31168W        W 3494  37.130  43.542  13.902
31169W        W 3495  29.781   4.340  12.415
31170W        W 3496  30.053  37.730   0.161
31171W        W 3497  44.949  43.381   1.338
31172W        W 3498   4.524  39.987  13.801
31173W        W 3499  30.049  35.280  12.010
31174W        W 3500   2.933  39.343  14.941
31175W        W 3501  27.986  35.410  12.027
31176W        W 3502  18.594  24.713  14.258
31177W        W 3503  41.013  37.775  14.412
31178W        W 3504  38.073  22.583   3.217
31179W        W 3505   5.356  12.591   0.253
31180W        W 3506  38.716  43.975   3.641
31181W        W 3507  17.205  13.804   0.505
31182W        W 3508   3.728   1.341   4.080
31183W        W 3509  27.985  36.651  14.538
31184W        W 3510  43.496  22.711  14.918
31185W        W 3511  23.928   6.471  11.321
31186W        W 3512   3.411  37.558  12.478
31187W        W 3513  13.876   8.183  14.823
31188W        W 3514  43.295  22.258  11.581
31189W        W 3515  22.710  21.588  14.273
31190W        W 3516  14.257  27.105   1.370
31191W        W 3517  20.277   2.975   2.051
31192W        W 3518   5.579   8.746  12.426
31193W        W 3519  23.660  25.762   0.959
31194W        W 3520  30.371  12.350   1.453
31195W        W 3521   0.324  37.473   1.319
31196W        W 3522   2.336  36.384  10.731
31197W        W 3523   4.482  44.593   0.960
31198W        W 3524  13.591  25.728   1.203
31199W        W 3525  43.463  19.345   3.287
31200W        W 3526  23.576  17.096  10.735
31201W        W 3527  40.454  17.332  12.476
31202W        W 3528  30.916  37.547  10.343
31203W        W 3529  37.427  11.375   3.416
31204W        W 3530  23.720   7.569   1.375
31205W        W 3531  19.254  13.639  10.589
31206W        W 3532  31.021  16.297  14.986
31207W        W 3533  40.618  29.536   0.328
31208W        W 3534   3.340  41.293   2.798
31209W        W 3535  37.805   3.876   2.288
31210W        W 3536  15.541   4.301  13.910
31211W        W 3537   4.494  14.100   1.528
31212W        W 3538  30.952  31.175  12.171
31213W        W 3539  37.776  19.251  11.934
31214W        W 3540   1.636  11.656   1.146
31215W        W 3541  32.940  22.796   0.938
31216W        W 3542  24.995  13.108   2.405
31217W        W 3543   8.928  24.598  12.348
31218W        W 3544   9.494  25.115   2.604
31219W        W 3545  25.181   2.916  11.111
31220W        W 3546  42.240  39.728   2.351
31221W        W 3547  13.855  41.451   0.831
31222W        W 3548  16.566  17.727  10.606
31223W        W 3549   2.948   9.218   1.542
31224W        W 3550  42.328   2.080  12.428
31225W        W 3551  43.057  34.053   3.654
31226W        W 3552   1.004  21.828   3.795
31227W        W 3553  17.709  25.570  12.066
31228W        W 3554  39.888   2.237   0.499
31229W        W 3555  22.525  21.534  11.632
31230W        W 3556  15.807  25.020   4.658
31231W        W 3557  21.408  35.792   0.862
31232W        W 3558   4.821  25.145   4.630
31233W        W 3559  34.493  23.075   3.817
31234W        W 3560  30.566  15.734  11.880
31235W        W 3561  18.539  29.140   2.683
31236W        W 3562   8.930   9.300  13.138
31237W        W 3563  42.420  21.057   0.673
31238W        W 3564  24.346  35.923   3.389
31239W        W 3565  32.254  29.708   4.195
31240W        W 3566  15.275  35.649   1.094
31241W        W 3567  40.970  17.970  14.546
31242W        W 3568  36.501  12.696  14.835
31243W        W 3569  20.050  10.177  10.660
31244W        W 3570  13.774  23.413   2.158
31245W        W 3571  35.501  34.587  11.613
31246W        W 3572  29.358  22.581   4.610
31247W        W 3573  33.082  34.384  13.296
31248W        W 3574  30.118   2.623   1.386
31249W        W 3575  33.564  29.630  14.846
31250W        W 3576  38.140  19.269  12.519
31251W        W 3577   4.178  31.681  13.146
31252W        W 3578   6.805  24.322  11.157
31253W        W 3579  22.557  13.701  10.598
31254W        W 3580  38.907  41.192   3.169
31255W        W 3581  19.898  44.232   1.895
31256W        W 3582  40.450  18.681  14.859
31257W        W 3583  37.043  43.217   1.279
31258W        W 3584  31.570  10.872   0.545
31259W        W 3585  25.058   6.864  11.598
31260W        W 3586  19.134  34.624   1.739
31261W        W 3587   9.387  19.140  12.954
31262W        W 3588  32.759  15.603   4.580
31263W        W 3589  15.478  42.980  11.922
31264W        W 3590  34.448  23.190   0.278
31265W        W 3591   8.135  40.599  13.919
31266W        W 3592  21.776   5.125   1.311
31267W        W 3593  16.121  16.276   2.139
31268W        W 3594  40.874  19.488   1.378
31269W        W 3595  32.042  26.503  14.705
31270W        W 3596   6.498  12.182  11.177
31271W        W 3597  16.353  19.199   0.951
31272W        W 3598  44.372  27.664  11.607
31273W        W 3599   0.170  19.842  14.854
31274W        W 3600  27.673  33.800   4.243
31275W        W 3601  32.066  32.034   3.001
31276W        W 3602   9.482  29.172   4.684
31277W        W 3603  31.117  10.137   0.354
31278W        W 3604  32.920  10.260   2.610
31279W        W 3605  29.383   0.766  12.954
31280W        W 3606  43.834  40.069  14.437
31281W        W 3607  32.100  27.732   3.705
31282W        W 3608  26.651  23.025   3.852
31283W        W 3609  10.350  21.756  13.757
31284W        W 3610   4.803  36.627  10.273
31285W        W 3611  44.977  26.658  11.947
31286W        W 3612  15.902   3.664   5.000
31287W        W 3613  30.400  36.822   1.708
31288W        W 3614  10.318  42.069  12.547
31289W        W 3615   0.551  35.144  11.957
31290W        W 3616  34.258   7.225   2.886
31291W        W 3617  14.805  40.737   0.059
31292W        W 3618  31.541  27.095  13.782
31293W        W 3619   0.290  31.390   0.114
31294W        W 3620   9.798  35.519  12.374
31295W        W 3621  12.273  41.056   2.639
31296W        W 3622   7.302  16.672   0.534
31297W        W 3623  41.197   0.561  13.877
31298W        W 3624  28.428  32.531  12.574
31299W        W 3625  29.761  36.367  13.947
31300W        W 3626  27.218  37.921  11.956
31301W        W 3627  11.633  39.020   1.632
31302W        W 3628  35.618  32.474   4.219
31303W        W 3629  42.573  28.917   3.713
31304W        W 3630  38.541  10.274  11.998
31305W        W 3631  13.380   4.783   1.316
31306W        W 3632  35.338  31.173   2.757
31307W        W 3633  15.027   3.964   0.688
31308W        W 3634  19.544  28.039   0.241
31309W        W 3635   7.652  39.953   3.227
31310W        W 3636   9.118   1.075  12.748
31311W        W 3637  28.699  37.827  13.279
31312W        W 3638  38.927  27.619   0.986
31313W        W 3639  36.937  40.612  11.111
31314W        W 3640  43.941  34.089   0.531
31315W        W 3641   2.168  41.561  13.094
31316W        W 3642   6.840   4.713  14.937
31317W        W 3643  26.858  23.511  10.771
31318W        W 3644  26.670  40.023  12.469
31319W        W 3645  13.319  16.945   3.528
31320W        W 3646  27.995   5.765   4.275
31321W        W 3647  41.999   6.095   2.323
31322W        W 3648  14.822  44.539  10.632
31323W        W 3649  35.488  36.549   1.785
31324W        W 3650   0.505  23.948   0.293
31325W        W 3651  44.537  27.202  12.479
31326W        W 3652  43.233  29.905  13.489
31327W        W 3653  44.255  39.339   4.349
31328W        W 3654   1.417   5.315   4.878
31329W        W 3655  16.751  25.923   1.223
31330W        W 3656  43.706  21.182   3.270
31331W        W 3657  27.094  25.246  12.026
31332W        W 3658  22.818  33.526  11.923
31333W        W 3659  33.656   2.836  10.651
31334W        W 3660  37.280   1.472   0.682
31335W        W 3661  29.557  12.892   2.233
31336W        W 3662  18.421   5.296  13.193
31337W        W 3663  28.514  41.081   4.334
31338W        W 3664  16.394   3.842  14.381
31339W        W 3665  40.751  36.502  11.571
31340W        W 3666  25.326   3.774  14.396
31341W        W 3667  40.240  11.300  12.568
31342W        W 3668  35.894  42.888  10.623
31343W        W 3669   2.240  25.677   2.784
31344W        W 3670  10.503  30.702  12.022
31345W        W 3671   1.011  33.131   0.972
31346W        W 3672  16.131  24.990  11.101
31347W        W 3673  25.193  37.795   4.663
31348W        W 3674  24.695  22.350   3.020
31349W        W 3675  36.599  37.513  13.808
31350W        W 3676  39.880  31.422  14.272
31351W        W 3677  39.478  17.325  12.780
31352W        W 3678  37.845   6.813  11.120
31353W        W 3679   9.875  39.861   2.301
31354W        W 3680  28.470  12.230   3.401
31355W        W 3681  17.569  38.156   4.276
31356W        W 3682   9.735  37.329  13.141
31357W        W 3683  34.024   4.014  14.257
31358W        W 3684  40.572   9.906  10.613
31359W        W 3685  10.810  28.526   1.406
31360W        W 3686  25.912  13.352  11.916
31361W        W 3687  22.766  32.017  10.172
31362W        W 3688  25.217  30.610  11.971
31363W        W 3689   8.290   5.203   1.586
31364W        W 3690  40.461  25.404   3.233
31365W        W 3691  17.806   4.440   0.899
31366W        W 3692  14.841  40.598   2.430
31367W        W 3693   8.703   6.895   0.794
31368W        W 3694   4.796  41.319   3.774
31369W        W 3695  42.847  13.191  11.869
31370W        W 3696  22.695   4.833   3.533
31371W        W 3697  35.128   6.251  12.449
31372W        W 3698  23.950  21.458   3.414
31373W        W 3699  35.392  36.311  13.021
31374W        W 3700  15.300   0.487  10.618
31375W        W 3701  19.714  25.239  14.573
31376W        W 3702  29.274  35.922  13.658
31377W        W 3703  12.851  16.304   2.849
31378W        W 3704  40.028   8.737   3.319
31379W        W 3705   5.310  12.401  14.766
31380W        W 3706  10.603  20.736  14.807
31381W        W 3707  32.020  40.117  13.326
31382W        W 3708  37.877  16.085  11.016
31383W        W 3709   4.182  15.820   4.514
31384W        W 3710  28.632  40.075   1.248
31385W        W 3711  39.001   4.431  11.645
31386W        W 3712  31.153  42.323   3.651
31387W        W 3713  39.053  22.269   3.845
31388W        W 3714  25.692  36.088  10.677
31389W        W 3715   3.282  10.519  10.201
31390W        W 3716   2.388  35.523  14.791
31391W        W 3717   7.953  25.701  11.833
31392W        W 3718  25.248  22.403  11.934
31393W        W 3719  32.945  22.387  13.404
31394W        W 3720  27.115  43.529   1.307
31395W        W 3721  31.951  18.837   4.109
31396W        W 3722  38.499   2.963   0.984
31397W        W 3723   7.839  22.019  10.683
31398W        W 3724  29.259  10.676  14.963
31399W        W 3725  41.915  20.750  14.073
31400W        W 3726  15.557  29.104   9.622
31401W        W 3727  11.258  43.993   1.359
31402W        W 3728  30.461   2.395   3.776
31403W        W 3729   0.242  38.369  11.654
31404W        W 3730  21.656  17.274  10.362
31405W        W 3731  13.696  33.317  12.353
31406W        W 3732  33.632  19.151   3.622
31407W        W 3733  35.030  43.480   3.776
31408W        W 3734  15.705  43.224   4.220
31409W        W 3735  29.276  33.099  10.377
31410W        W 3736  13.710  33.105   5.116
31411W        W 3737   3.433  22.225  14.775
31412W        W 3738  17.965  13.180  14.384
31413W        W 3739  10.125  12.698  13.495
31414W        W 3740  32.561   6.356   1.792
31415W        W 3741  24.010  12.257  11.880
31416W        W 3742  34.553  11.287  12.457
31417W        W 3743  17.120  19.573  10.630
31418W        W 3744  13.426  37.398  14.472
31419W        W 3745   9.442  31.942  14.880
31420W        W 3746   5.727  31.440  12.068
31421W        W 3747  24.527  43.485  13.504
31422W        W 3748  12.397  28.291  10.617
31423W        W 3749  31.386  26.018  12.704
31424W        W 3750   0.456   2.842  11.894
31425W        W 3751  44.461   2.189   0.811
31426W        W 3752   5.266  26.242  13.064
31427W        W 3753  18.806   1.554   3.291
31428W        W 3754   1.648  31.404  12.130
31429W        W 3755   4.654  37.036  13.430
31430W        W 3756   4.207  44.218   4.178
31431W        W 3757   1.283  37.439  11.644
31432W        W 3758   5.404   7.569   4.137
31433W        W 3759  39.941  24.154   1.814
31434W        W 3760  39.081  39.371   2.741
31435W        W 3761  32.367  29.987  11.537
31436W        W 3762  26.554  34.243  11.599
31437W        W 3763   3.279  33.540   0.174
31438W        W 3764  20.302   1.948   2.739
31439W        W 3765  28.546  26.459   1.328
31440W        W 3766   4.918   5.173   3.782
31441W        W 3767  26.251  33.679   1.646
31442W        W 3768  28.089  37.053  10.616
31443W        W 3769  10.285   6.836  12.778
31444W        W 3770  39.216  42.810  14.376
31445W        W 3771   4.865  37.986  14.652
31446W        W 3772   9.451  15.748  14.063
31447W        W 3773   7.871   5.401   4.592
31448W        W 3774  14.840  10.164  12.796
31449W        W 3775  14.709  13.756  14.983
31450W        W 3776  27.344  24.219   0.977
31451W        W 3777  40.572  17.451  10.626
31452W        W 3778   6.265  10.415  11.202
31453W        W 3779  44.904  11.563   0.369
31454W        W 3780  43.662   5.322   4.561
31455W        W 3781   8.798   3.774   0.706
31456W        W 3782  33.897  12.654   1.351
31457W        W 3783  33.014  28.935  10.537
31458W        W 3784  41.610  14.054   2.742
31459W        W 3785  21.157  16.088   2.827
31460W        W 3786  34.167  24.945   1.311
31461W        W 3787  12.916   5.205  13.078
31462W        W 3788  11.328  35.110   1.017
31463W        W 3789   3.779  11.901   0.338
31464W        W 3790  27.092  17.810  12.369
31465W        W 3791  13.672  15.514   1.668
31466W        W 3792   9.841   5.879   3.201
31467W        W 3793  22.937  10.866  10.723
31468W        W 3794   4.453  17.167  11.002
31469W        W 3795  33.159  16.156  11.424
31470W        W 3796   1.257  43.520   4.164
31471W        W 3797   7.731  34.625  12.792
31472W        W 3798   5.950  13.432   0.020
31473W        W 3799  16.145  34.373   0.943
31474W        W 3800  33.023  15.512  10.714
31475W        W 3801  43.490  31.915   3.802
31476W        W 3802  35.610  19.103   1.794
31477W        W 3803  29.831   3.848  11.567
31478W        W 3804  38.913  19.788   3.311
31479W        W 3805   5.930  32.123  11.118
31480W        W 3806  10.731  34.361  11.181
31481W        W 3807  24.494  39.570  12.885
31482W        W 3808  23.142  22.243  12.644
31483W        W 3809  17.154  37.987   4.010
31484W        W 3810  36.542  10.348   2.654
31485W        W 3811  25.707  36.017   3.733
31486W        W 3812  27.653  41.538  11.962
31487W        W 3813  15.790  19.176  11.949
31488W        W 3814  14.516  11.785   3.791
31489W        W 3815  34.609  37.257  13.302
31490W        W 3816  26.340  27.092   5.034
31491W        W 3817  35.527  33.441   2.607
31492W        W 3818  26.080  37.909   3.155
31493W        W 3819   7.373  31.990  14.809
31494W        W 3820  19.245  18.826  11.932
31495W        W 3821  37.573  21.604  14.420
31496W        W 3822  42.964  30.918   3.281
31497W        W 3823  16.713   3.437  12.975
31498W        W 3824  19.517   9.911  13.827
31499W        W 3825  39.550  33.551   1.275
31500W        W 3826   7.933  30.799  12.863
31501W        W 3827  10.621  33.402   3.771
31502W        W 3828   5.325   3.999  12.658
31503W        W 3829  37.925  25.466   1.175
31504W        W 3830   5.809  26.880  13.638
31505W        W 3831   1.560  30.569   1.505
31506W        W 3832  11.797  24.278  10.897
31507W        W 3833  12.748  22.267   1.395
31508W        W 3834  15.527  33.969   1.399
31509W        W 3835  38.542  16.055  13.551
31510W        W 3836  10.907  42.512   0.559
31511W        W 3837  29.406  20.084  11.660
31512W        W 3838  18.679  44.312   2.742
31513W        W 3839   1.574  39.364  11.895
31514W        W 3840  15.077  25.210  11.131
31515W        W 3841  14.382  25.621  10.226
31516W        W 3842  33.628  36.842   3.244
31517W        W 3843   7.449   1.907  11.638
31518W        W 3844   4.757  33.363  13.254
31519W        W 3845   4.973   6.039   1.309
31520W        W 3846  29.932  29.927  14.910
31521W        W 3847  18.087  41.545   3.835
31522W        W 3848  11.029  28.293   1.817
31523W        W 3849   2.417   5.407  13.537
31524W        W 3850  15.510  13.842  11.861
31525W        W 3851  14.649  37.081  14.798
31526W        W 3852   4.243   5.433   0.793
31527W        W 3853  26.780  14.189  10.680
31528W        W 3854  28.936  10.212   3.748
31529W        W 3855  37.910   2.755   1.818
31530W        W 3856  14.653  31.477  14.828
31531W        W 3857   9.666  32.944   4.051
31532W        W 3858  31.130   5.325  10.406
31533W        W 3859  13.235  32.779   5.866
31534W        W 3860   7.271  24.338  12.696
31535W        W 3861  32.006  18.085  13.828
31536W        W 3862  40.596  12.624  13.847
31537W        W 3863  13.594  24.247   1.274
31538W        W 3864  43.768  34.454   0.082
31539W        W 3865  24.281   2.450  14.777
31540W        W 3866  24.054  16.438   4.528
31541W        W 3867  13.720  13.787   0.053
31542W        W 3868  36.965  17.682   0.219
31543W        W 3869  21.571  39.830  10.602
31544W        W 3870   5.826   9.996  14.463
31545W        W 3871  11.207   3.696   3.675
31546W        W 3872  30.508  40.909   2.640
31547W        W 3873   4.684   8.378  13.953
31548W        W 3874   5.210  26.806  13.901
31549W        W 3875  11.093  20.214  12.900
31550W        W 3876  24.218   5.789  12.903
31551W        W 3877  32.576  34.944  12.351
31552W        W 3878  43.903  12.780   1.395
31553W        W 3879  31.556  44.296   3.246
31554W        W 3880  35.581  40.977   2.328
31555W        W 3881  20.437  23.931  14.708
31556W        W 3882  13.751  14.745   3.652
31557W        W 3883  13.175  40.165  13.239
31558W        W 3884  17.372  39.193  13.917
31559W        W 3885  15.688  29.828  10.748
31560W        W 3886  20.726  27.864   1.041
31561W        W 3887  35.350  41.510  10.914
31562W        W 3888  44.015   4.544  10.175
31563W        W 3889   6.909   8.803   3.188
31564W        W 3890  22.815  15.101  11.160
31565W        W 3891  10.728  22.840   2.898
31566W        W 3892  39.441  10.659  10.445
31567W        W 3893  24.944  33.892   3.632
31568W        W 3894  44.486  43.569  13.117
31569W        W 3895  34.037  26.703   0.244
31570W        W 3896  22.587  27.289   3.635
31571W        W 3897  16.596  30.648  10.943
31572W        W 3898  34.491  24.662  13.277
31573W        W 3899  20.296   0.347  14.321
31574W        W 3900  11.608  31.425   0.629
31575W        W 3901  29.208   1.425   3.448
31576W        W 3902  14.596  26.196  12.119
31577W        W 3903   9.638   4.380   0.257
31578W        W 3904  19.795   4.261  10.655
31579W        W 3905  13.866  22.173   2.251
31580W        W 3906   7.783  39.714  10.770
31581W        W 3907  10.877  22.666  13.530
31582W        W 3908   4.042  21.588  10.967
31583W        W 3909  24.252  27.969   5.048
31584W        W 3910  27.097  17.548  11.912
31585W        W 3911  38.548   4.669   0.314
31586W        W 3912  30.999   0.036   5.143
31587W        W 3913  21.949   8.261   4.636
31588W        W 3914  15.811   8.596   4.304
31589W        W 3915   4.349   6.693   1.309
31590W        W 3916   6.208   0.264   0.830
31591W        W 3917  31.347  44.494  14.837
31592W        W 3918  41.840  26.587   3.766
31593W        W 3919   9.064  37.960  11.644
31594W        W 3920  41.533  13.429  12.967
31595W        W 3921  21.939   0.833   1.381
31596W        W 3922  19.745   8.878  12.885
31597W        W 3923  20.185  33.487   2.888
31598W        W 3924  12.855  43.347  14.817
31599W        W 3925  44.960  26.868  14.650
31600W        W 3926   8.330  19.678  11.166
31601W        W 3927  27.080   5.154   2.211
31602W        W 3928   2.400  41.144  10.671
31603W        W 3929  17.690  11.962   0.762
31604W        W 3930   2.203  43.911   0.418
31605W        W 3931  44.954  21.502   1.231
31606W        W 3932   4.304   4.724   1.322
31607W        W 3933  28.743  44.952  11.026
31608W        W 3934  29.937  36.905  11.755
31609W        W 3935  38.447   2.751   0.001
31610W        W 3936  24.615  35.281   1.274
31611W        W 3937  21.060  32.445  12.955
31612W        W 3938  31.419  10.847  13.181
31613W        W 3939  24.122  24.519   4.371
31614W        W 3940  23.665  44.908   3.759
31615W        W 3941   7.722  30.213   3.272
31616W        W 3942  25.744  32.354  11.037
31617W        W 3943  24.106  40.740  12.133
31618W        W 3944   0.258  27.924   2.400
31619W        W 3945  38.845   3.920   0.703
31620W        W 3946   7.579   9.331   3.283
31621W        W 3947  37.102   3.676  13.017
31622W        W 3948   2.082  30.725   1.641
31623W        W 3949   4.775  19.098   1.477
31624W        W 3950  42.230  25.611  13.938
31625W        W 3951  20.543  16.627  14.026
31626W        W 3952   8.957  36.880  11.993
31627W        W 3953  37.554  12.408   1.737
31628W        W 3954  24.586  20.532   1.240
31629W        W 3955  11.539   0.705   1.705
31630W        W 3956  30.509   9.346   2.531
31631W        W 3957  36.701   8.205  14.881
31632W        W 3958  19.863  36.397   4.162
31633W        W 3959  24.628  17.282   0.943
31634W        W 3960   7.309  23.567   4.118
31635W        W 3961   1.218  13.114   0.306
31636W        W 3962  20.786  14.644   0.342
31637W        W 3963  29.168   4.202  14.226
31638W        W 3964  41.472  26.810  14.380
31639W        W 3965  44.542  41.097   3.288
31640W        W 3966  42.518  35.392  10.484
31641W        W 3967   7.251  11.795  13.133
31642W        W 3968  35.130   0.182  13.831
31643W        W 3969  37.804  33.466   0.466
31644W        W 3970  43.930  12.441   1.771
31645W        W 3971   8.567  22.235  13.412
31646W        W 3972  41.512   3.455  13.949
31647W        W 3973  37.402  35.882   0.244
31648W        W 3974  39.490  35.159  10.623
31649W        W 3975  31.463   6.899  13.502
31650W        W 3976  39.000  31.047  10.502
31651W        W 3977  17.334  36.392   2.708
31652W        W 3978  18.837  19.242   0.351
31653W        W 3979  34.017  28.692   4.608
31654W        W 3980  38.507  22.398   3.743
31655W        W 3981  14.678   1.697  13.483
31656W        W 3982  26.522  10.777   3.882
31657W        W 3983  43.228  44.366   0.379
31658W        W 3984  18.333  38.104  13.068
31659W        W 3985  19.772  40.319  10.702
31660W        W 3986  12.950   8.808  13.853
31661W        W 3987  35.832  27.436  12.959
31662W        W 3988   0.731  23.905  10.675
31663W        W 3989  11.120   6.038   1.375
31664W        W 3990  39.702   3.406   1.489
31665W        W 3991  26.928  19.316   2.429
31666W        W 3992  20.577  42.748  14.425
31667W        W 3993  29.118  19.316  14.331
31668W        W 3994   0.862  23.235   0.796
31669W        W 3995   1.179  16.648  12.500
31670W        W 3996  38.704  31.475  10.663
31671W        W 3997  40.999  34.815   2.711
31672W        W 3998  10.723  27.740  11.190
31673W        W 3999  20.542  12.024   0.283
31674W        W 4000   1.354  22.751  11.076
31675W        W 4001   8.283  26.529  14.456
31676W        W 4002  44.486  41.572  11.607
31677W        W 4003  22.558  18.093   4.434
31678W        W 4004  42.241   2.872   2.783
31679W        W 4005  40.787  26.529   3.093
31680W        W 4006  11.221  33.418   3.301
31681W        W 4007  14.324  20.295  13.330
31682W        W 4008   1.834  14.578  10.726
31683W        W 4009  20.254  31.297   4.905
31684W        W 4010  17.175  25.474   2.800
31685W        W 4011  22.768   8.747   1.143
31686W        W 4012   1.905  40.380   2.835
31687W        W 4013  17.691  21.516   2.393
31688W        W 4014  19.199  22.694  10.693
31689W        W 4015  27.770  19.042  14.842
31690W        W 4016   2.338   1.948   3.082
31691W        W 4017  13.204  43.313   4.963
31692W        W 4018  11.241   9.856  14.791
31693W        W 4019  28.209   4.209   4.188
31694W        W 4020  22.914  39.990  11.981
31695W        W 4021   3.897  12.601  14.114
31696W        W 4022  23.412   5.880  14.813
31697W        W 4023  31.275   8.994   0.075
31698W        W 4024  42.072   5.657  12.059
31699W        W 4025  18.171  43.276   2.200
31700W        W 4026  31.121  23.881   3.149
31701W        W 4027  35.019   6.325   4.217
31702W        W 4028  21.709  19.485  12.085
31703W        W 4029  35.124   5.809  12.045
31704W        W 4030  44.851  17.478  10.869
31705W        W 4031  27.710  42.733   4.124
31706W        W 4032  33.148  13.391   1.890
31707W        W 4033  44.135  24.486   4.026
31708W        W 4034  10.607  18.329   0.430
31709W        W 4035   2.942  15.734   4.173
31710W        W 4036  11.848  40.934   1.449
31711W        W 4037  20.332   5.331  13.011
31712W        W 4038  25.702  31.647   4.308
31713W        W 4039  18.031  36.363   2.286
31714W        W 4040  11.252   4.352  12.092
31715W        W 4041   6.662  31.064  13.040
31716W        W 4042  34.646   5.899  14.477
31717W        W 4043  22.033  31.870  12.928
31718W        W 4044  14.979  36.959   0.184
31719W        W 4045  27.757  31.139  14.487
31720W        W 4046  36.364  26.918   0.814
31721W        W 4047  18.664  41.010  10.660
31722W        W 4048  43.532  34.458  11.264
31723W        W 4049  31.318  15.540   3.615
31724W        W 4050  25.505  39.025   1.264
31725W        W 4051  19.123  24.139   4.636
31726W        W 4052  13.624  26.700  14.498
31727W        W 4053  18.205  29.360  12.623
31728W        W 4054  16.856  11.608   4.722
31729W        W 4055   8.687  10.354  11.062
31730W        W 4056  39.786  39.548   0.215
31731W        W 4057   5.741  18.494  12.183
31732W        W 4058   8.450  12.320  10.770
31733W        W 4059  19.121   8.728   2.804
31734W        W 4060   6.031  23.414   2.648
31735W        W 4061  21.060  20.122  14.270
31736W        W 4062  29.102   9.677  12.654
31737W        W 4063  13.312  13.000  13.364
31738W        W 4064  40.757  11.334  10.971
31739W        W 4065   6.725  31.706   1.973
31740W        W 4066   9.634   8.660   5.063
31741W        W 4067  19.578   3.410  14.352
31742W        W 4068  34.551  39.855   3.594
31743W        W 4069  27.545   7.619   4.303
31744W        W 4070   6.290  34.893   0.247
31745W        W 4071  38.262  31.631  12.044
31746W        W 4072  41.952  21.725  13.817
31747W        W 4073  35.288   4.646  13.341
31748W        W 4074   1.575   1.545   5.093
31749W        W 4075  17.224   0.079  11.555
31750W        W 4076  23.730   8.381   4.087
31751W        W 4077  39.160  20.089   0.257
31752W        W 4078  16.094   7.232   4.092
31753W        W 4079  18.527  16.669  12.015
31754W        W 4080   2.807  31.942   0.925
31755W        W 4081  15.642  33.602   4.894
31756W        W 4082  11.320  38.539  13.894
31757W        W 4083  19.103   1.378  13.859
31758W        W 4084   7.877  41.218   0.383
31759W        W 4085   8.958   7.982   2.427
31760W        W 4086  18.530  43.425   2.631
31761W        W 4087   5.228  39.183  12.986
31762W        W 4088  37.964  22.615   3.739
31763W        W 4089  44.050   5.700   2.810
31764W        W 4090   9.833  43.294   3.671
31765W        W 4091  42.296  33.379   4.435
31766W        W 4092  26.393   8.352  11.246
31767W        W 4093   6.128   2.772  14.585
31768W        W 4094  36.638  41.525  13.054
31769W        W 4095   1.483   5.723  14.103
31770W        W 4096  34.066  14.724  12.687
31771W        W 4097  43.796  10.292   3.325
31772W        W 4098  33.479   1.287  14.460
31773W        W 4099  15.138  35.348   4.757
31774W        W 4100  30.160  36.858   1.268
31775W        W 4101  21.948  43.942   1.213
31776W        W 4102  21.132  28.733  14.794
31777W        W 4103  43.605  20.703   1.654
31778W        W 4104  12.632  23.181  10.497
31779W        W 4105  36.345   4.298   2.323
31780W        W 4106  23.291  10.313   1.955
31781W        W 4107   9.356  14.336  11.655
31782W        W 4108  23.185  13.699  12.485
31783W        W 4109   7.621  12.913  11.133
31784W        W 4110   8.957  18.144   4.846
31785W        W 4111  17.930   2.936  14.373
31786W        W 4112  29.367  39.040   4.529
31787W        W 4113  28.886   4.573   2.584
31788W        W 4114  40.601   9.665  14.307
31789W        W 4115  13.155  37.973  12.563
31790W        W 4116  19.726  34.437   2.734
31791W        W 4117  27.259  28.620   3.342
31792W        W 4118  24.237  11.169  10.454
31793W        W 4119  23.480  35.114   4.334
31794W        W 4120  15.828  36.539  12.924
31795W        W 4121  19.968  30.879   2.609
31796W        W 4122   7.163  16.130   2.309
31797W        W 4123  18.696  33.385   1.703
31798W        W 4124  19.380  16.631   2.000
31799W        W 4125  32.448  20.257   1.273
31800W        W 4126   6.429  24.606  11.527
31801W        W 4127   6.907  42.036  13.487
31802W        W 4128  15.682  38.302  11.501
31803W        W 4129  15.571  43.925  12.395
31804W        W 4130  31.914  35.599   0.017
31805W        W 4131  44.345  42.540   3.702
31806W        W 4132  37.061  23.692  13.999
31807W        W 4133  24.286  41.558  10.696
31808W        W 4134  12.275  17.834  11.986
31809W        W 4135  24.728  30.068  10.552
31810W        W 4136  14.423  14.583  11.642
31811W        W 4137  18.492  31.565   4.690
31812W        W 4138  37.798  27.118  13.896
31813W        W 4139  13.093  37.739  11.429
31814W        W 4140  43.169   8.941  12.691
31815W        W 4141  26.498  37.432  14.952
31816W        W 4142   2.768  19.988   1.054
31817W        W 4143  32.033  42.723  10.296
31818W        W 4144  27.805  13.909   1.817
31819W        W 4145   0.361  10.953   4.653
31820W        W 4146  25.464  28.795   3.675
31821W        W 4147  21.626  26.733   1.755
31822W        W 4148   2.289  26.918   3.249
31823W        W 4149  23.484  35.975  12.603
31824W        W 4150   2.056   7.869   3.128
31825W        W 4151  27.069  13.269  13.890
31826W        W 4152  25.409  32.617  11.326
31827W        W 4153  28.719   9.980  12.471
31828W        W 4154  38.029  28.009   3.735
31829W        W 4155   5.783  10.108  12.374
31830W        W 4156  37.911  28.924  11.166
31831W        W 4157  14.560  34.024  13.003
31832W        W 4158  17.816  38.551   2.844
31833W        W 4159  10.778  26.776  10.006
31834W        W 4160   1.107  17.664  14.808
31835W        W 4161  36.359  17.896  11.467
31836W        W 4162  30.657  26.699   1.805
31837W        W 4163   4.271  16.577  10.370
31838W        W 4164   1.390  43.314   0.295
31839W        W 4165  12.575  28.607   2.828
31840W        W 4166   9.160  39.447  11.590
31841W        W 4167   6.717  34.110  11.629
31842W        W 4168   3.414  10.309  13.810
31843W        W 4169  41.241  11.579   0.425
31844W        W 4170  17.631   5.928  11.666
31845W        W 4171  16.751  34.462  11.528
31846W        W 4172  30.894   2.478   1.283
31847W        W 4173  14.368  13.812   1.257
31848W        W 4174  43.499   3.449  10.668
31849W        W 4175   8.747   8.406   2.233
31850W        W 4176  11.256  28.947   1.400
31851W        W 4177   8.084  30.049  12.581
31852W        W 4178  28.031  11.204   4.755
31853W        W 4179   2.705  42.335   3.627
31854W        W 4180   3.255   3.017  14.330
31855W        W 4181  21.038  42.269   0.236
31856W        W 4182  34.079  32.535   4.633
31857W        W 4183  19.567  29.966  10.709
31858W        W 4184   2.466  13.109   4.964
31859W        W 4185  25.559   9.925   4.437
31860W        W 4186  35.882   8.852  14.027
31861W        W 4187  24.637  44.014   3.631
31862W        W 4188  41.905  37.889   2.674
31863W        W 4189  41.963  38.137  10.744
31864W        W 4190  27.025  42.733   5.095
31865W        W 4191  22.975   9.638   1.848
31866W        W 4192  18.127  37.125   1.844
31867W        W 4193  21.710  37.994  11.990
31868W        W 4194  22.760   4.759  14.252
31869W        W 4195  28.552   8.207   1.085
31870W        W 4196  28.104   9.579   2.708
31871W        W 4197  30.678   3.037  11.655
31872W        W 4198  12.172  35.417   3.744
31873W        W 4199  35.598   8.105   4.504
31874W        W 4200  33.326  27.903   2.279
31875W        W 4201   1.031  13.153  11.132
31876W        W 4202  33.428  20.922  12.556
31877W        W 4203  43.399  44.011   1.920
31878W        W 4204   1.747  26.619   4.071
31879W        W 4205   5.161  17.634   1.831
31880W        W 4206  33.261  32.523   4.787
31881W        W 4207   9.629  34.813   3.991
31882W        W 4208  37.399  32.485  11.506
31883W        W 4209   9.423  13.238  12.388
31884W        W 4210   8.926  16.076  13.536
31885W        W 4211  22.003  25.298  10.993
31886W        W 4212  23.983  18.996   0.948
31887W        W 4213   3.217   5.119   2.537
31888W        W 4214  19.785  26.510  10.054
31889W        W 4215  38.059  41.052  12.855
31890W        W 4216  39.914  32.554  11.175
31891W        W 4217  34.234  32.295   4.155
31892W        W 4218  20.565  20.351   0.709
31893W        W 4219  14.141  44.511   0.278
31894W        W 4220  25.187  15.210   5.584
31895W        W 4221   8.336   2.467   4.915
31896W        W 4222  11.095  28.668   2.694
31897W        W 4223  30.111  40.992  12.058
31898W        W 4224  28.430   1.227  13.047
31899W        W 4225  17.949  11.219  14.749
31900W        W 4226   1.683  14.657   0.113
31901W        W 4227  34.967  32.719   4.663
31902W        W 4228  37.260  29.144   2.227
31903W        W 4229  22.557   2.427  14.295
31904W        W 4230  27.989  41.582   3.820
31905W        W 4231  37.056  42.376  14.518
31906W        W 4232  25.246   6.606  12.854
31907W        W 4233   0.952  35.054   3.693
31908W        W 4234  22.971  10.429   2.879
31909W        W 4235  39.384  19.602   2.221
31910W        W 4236  28.496   7.863   0.405
31911W        W 4237  23.301  11.645  11.122
31912W        W 4238  14.135  28.198   3.325
31913W        W 4239  38.954  43.339   4.390
31914W        W 4240  31.377  16.141  12.831
31915W        W 4241   1.346  17.248  14.513
31916W        W 4242  13.681  25.715   0.248
31917W        W 4243   9.300  25.232  14.165
31918W        W 4244  22.925  10.273   4.297
31919W        W 4245   7.702  25.116  10.685
31920W        W 4246  13.754  44.486   3.204
31921W        W 4247   4.441  14.541   2.279
31922W        W 4248  39.338  26.050  10.577
31923W        W 4249  30.539   4.479  12.969
31924W        W 4250  24.386   8.345  14.416
31925W        W 4251  38.013   0.192  10.990
31926W        W 4252  23.212  19.775   4.682
31927W        W 4253   8.264   2.982   4.856
31928W        W 4254   6.619  20.527  14.401
31929W        W 4255  33.539  10.592   4.243
31930W        W 4256   6.849  13.109   1.348
31931W        W 4257  38.796  40.368   0.873
31932W        W 4258  36.877  43.074  10.387
31933W        W 4259  22.127  32.400  11.478
31934W        W 4260  34.149  17.718  11.110
31935W        W 4261  25.625  10.517   2.907
31936W        W 4262   2.941  32.893  12.587
31937W        W 4263  20.349  34.560  12.891
31938W        W 4264   1.677  36.724  11.993
31939W        W 4265  33.296  12.127   2.793
31940W        W 4266  36.970  35.061   4.304
31941W        W 4267  16.849  26.057  13.972
31942W        W 4268  14.511  27.156   1.823
31943W        W 4269  21.806   7.630  12.019
31944W        W 4270   4.768   8.798   3.232
31945W        W 4271  15.227  39.033  10.990
31946W        W 4272  16.044  37.821  12.931
31947W        W 4273  39.207  26.564   4.050
31948W        W 4274  34.978  28.407  13.861
31949W        W 4275  23.144  42.424  10.705
31950W        W 4276  14.319  25.232   2.060
31951W        W 4277  42.334  24.654   0.401
31952W        W 4278  15.606  33.202  13.000
31953W        W 4279  24.547  27.649   1.259
31954W        W 4280  17.629  44.892   0.698
31955W        W 4281  31.710  10.895  14.991
31956W        W 4282  20.416  38.922  13.882
31957W        W 4283   5.307  42.961   3.847
31958W        W 4284  27.197  14.274   0.168
31959W        W 4285   8.613   5.706  11.622
31960W        W 4286  31.752  35.989  10.527
31961W        W 4287   3.379  16.408  13.827
31962W        W 4288  42.682  24.022  12.070
31963W        W 4289  10.367  41.822  13.989
31964W        W 4290   8.392  41.042   0.417
31965W        W 4291   9.785  32.907  12.756
31966W        W 4292  33.538  44.306  14.985
31967W        W 4293  13.244  16.096  13.823
31968W        W 4294   4.157  42.534   3.751
31969W        W 4295   4.301   9.071  14.177
31970W        W 4296   8.075  15.116  14.798
31971W        W 4297  27.347   0.775  11.225
31972W        W 4298  39.572  10.095  12.043
31973W        W 4299   9.300  31.405  14.969
31974W        W 4300  21.497  18.050  11.912
31975W        W 4301  25.945  13.681   1.007
31976W        W 4302  19.136  36.591  10.818
31977W        W 4303  20.020   7.425  14.434
31978W        W 4304   7.739  19.313   0.361
31979W        W 4305   6.135   9.358   1.890
31980W        W 4306  29.469  42.089   0.888
31981W        W 4307  25.587  16.558   0.707
31982W        W 4308  35.019  44.389  13.536
31983W        W 4309  15.978  25.300   1.747
31984W        W 4310  31.068  27.077  14.562
31985W        W 4311  25.804  25.708   1.381
31986W        W 4312   0.397  24.004  11.526
31987W        W 4313  16.766   0.496  14.338
31988W        W 4314   3.306  13.566  13.608
31989W        W 4315  33.595  16.552  14.924
31990W        W 4316  22.751  44.255  11.965
31991W        W 4317   4.806  25.714  12.611
31992W        W 4318  17.337  32.632  13.981
31993W        W 4319  18.466  40.163  13.802
31994W        W 4320   4.251   7.693  11.948
31995W        W 4321  27.950  36.352   0.893
31996W        W 4322  23.691  37.978   2.272
31997W        W 4323  37.993   8.797  13.455
31998W        W 4324  11.668  37.909  13.119
31999W        W 4325  21.155  17.833  14.232
32000W        W 4326  30.350  10.681   3.841
32001W        W 4327  40.588  30.862  11.537
32002W        W 4328   2.898  16.299   3.048
32003W        W 4329  22.748  10.684   4.579
32004W        W 4330  22.309   7.364  11.223
32005W        W 4331  18.046  33.370   2.272
32006W        W 4332  35.971  18.789  12.586
32007W        W 4333  14.203  22.558  14.816
32008W        W 4334  10.742   8.511   0.872
32009W        W 4335  38.866  16.342   4.577
32010W        W 4336  26.155  27.413   1.951
32011W        W 4337  10.318  39.173  11.971
32012W        W 4338   8.656  13.101   0.373
32013W        W 4339  36.067   2.752   4.136
32014W        W 4340   5.246  37.850  11.594
32015W        W 4341  32.316  15.653  14.427
32016W        W 4342   5.827   1.134  11.187
32017W        W 4343  14.699  42.895  12.902
32018W        W 4344  35.581  30.989   3.172
32019W        W 4345  25.337  24.097  14.358
32020W        W 4346  14.255   6.329   3.210
32021W        W 4347  36.808  37.494  14.321
32022W        W 4348  38.847  23.373   1.950
32023W        W 4349  27.377  20.783   4.336
32024W        W 4350   5.375  38.875   4.571
32025W        W 4351  32.406  44.281  13.344
32026W        W 4352  39.913  39.713   4.621
32027W        W 4353  44.837  23.578   1.711
32028W        W 4354  16.296  14.395  14.422
32029W        W 4355  33.892  37.679  13.770
32030W        W 4356  32.383  30.156  14.545
32031W        W 4357   5.240  11.169  10.477
32032W        W 4358  19.206  35.706   4.624
32033W        W 4359  24.994  43.493  10.655
32034W        W 4360  27.704  35.368   0.726
32035W        W 4361   0.224  14.347   4.549
32036W        W 4362   6.038  40.426  14.351
32037W        W 4363  25.132  15.668  13.525
32038W        W 4364  41.453  10.419  10.660
32039W        W 4365  22.565  23.237   1.890
32040W        W 4366  33.490  44.560   1.849
32041W        W 4367  37.068   3.468  13.879
32042W        W 4368  37.960  34.857   3.082
32043W        W 4369  12.702  25.877  14.744
32044W        W 4370  23.458   7.364  14.256
32045W        W 4371  32.261  31.292   1.916
32046W        W 4372   2.459  10.128   9.834
32047W        W 4373  18.150  20.103  10.742
32048W        W 4374  33.488  15.659   0.537
32049W        W 4375  24.711  40.971  11.484
32050W        W 4376  10.068   7.201  14.735
32051W        W 4377  22.309  16.221  13.755
32052W        W 4378   5.137   4.327   0.882
32053W        W 4379  24.121  12.687  12.328
32054W        W 4380  41.864  35.329  12.363
32055W        W 4381  31.470  18.650   2.133
32056W        W 4382  19.675  39.721  13.154
32057W        W 4383  30.656  15.334  14.992
32058W        W 4384  10.649  23.361   3.034
32059W        W 4385  32.438  32.349  12.556
32060W        W 4386  31.132  32.687   1.554
32061W        W 4387  19.027  35.098   2.552
32062W        W 4388  38.458  29.845  12.068
32063W        W 4389   1.831  11.416  14.971
32064W        W 4390   4.787  19.108   4.618
32065W        W 4391  29.830  34.096  12.504
32066W        W 4392  18.235  38.928   1.271
32067W        W 4393  38.843  10.251  13.332
32068W        W 4394  25.518  19.976   4.077
32069W        W 4395  22.098  14.891  13.908
32070W        W 4396  13.241  40.521  14.491
32071W        W 4397  32.433  13.342  13.598
32072W        W 4398  10.380  21.710   0.216
32073W        W 4399  35.419   6.765  13.320
32074W        W 4400  16.309   7.813  12.010
32075W        W 4401   9.121  23.745  12.966
32076W        W 4402  36.476  24.806   3.251
32077W        W 4403  27.495  35.465   3.654
32078W        W 4404  33.109  41.193   5.010
32079W        W 4405   0.744  27.691  12.426
32080W        W 4406   3.254   8.588   2.329
32081W        W 4407  28.708   7.316   3.248
32082W        W 4408  41.402  19.103  11.112
32083W        W 4409  25.406  11.619  13.865
32084W        W 4410  13.840   7.963   0.288
32085W        W 4411  12.593  34.244   1.774
32086W        W 4412  31.108  36.574  11.769
32087W        W 4413  10.384  43.394  12.049
32088W        W 4414  41.299  10.513  11.899
32089W        W 4415   1.778  12.600   2.340
32090W        W 4416  24.348  18.614   9.761
32091W        W 4417   6.239   7.743  14.246
32092W        W 4418  21.254  44.019  13.543
32093W        W 4419  34.126  28.481   0.878
32094W        W 4420  25.481   2.397   0.286
32095W        W 4421  17.036   9.748  12.189
32096W        W 4422  30.019  27.484   1.157
32097W        W 4423  21.546   4.118   1.228
32098W        W 4424  23.758  32.394  12.871
32099W        W 4425   2.401  15.110   0.471
32100W        W 4426  31.154  36.427   0.449
32101W        W 4427  16.477  20.553   0.151
32102W        W 4428  34.157  16.657  12.883
32103W        W 4429  24.055  36.138   1.269
32104W        W 4430  13.267  24.103   1.966
32105W        W 4431  16.181  34.478  14.234
32106W        W 4432  10.177  13.212   4.069
32107W        W 4433  28.208  41.862   2.340
32108W        W 4434  22.290  10.637  12.095
32109W        W 4435  21.158  18.480   2.650
32110W        W 4436   1.348  25.671   3.523
32111W        W 4437  34.069  35.696  10.766
32112W        W 4438  16.589  42.529  14.032
32113W        W 4439  14.269  27.930   0.025
32114W        W 4440  23.741  24.580   2.260
32115W        W 4441  22.233  17.182   2.782
32116W        W 4442  14.071  34.378  10.235
32117W        W 4443   7.485  19.748   3.329
32118W        W 4444   3.633  13.207  10.648
32119W        W 4445  14.210   5.944  14.578
32120W        W 4446  21.512   8.644  14.405
32121W        W 4447  28.724  20.657  14.226
32122W        W 4448  22.169  30.544  14.450
32123W        W 4449  19.400  39.898   1.825
32124W        W 4450  17.833  23.460   1.406
32125W        W 4451   0.976  27.047  11.111
32126W        W 4452  27.692  26.221   3.254
32127W        W 4453  10.288  41.889  12.055
32128W        W 4454  39.963  36.128   4.627
32129W        W 4455  20.105  30.915   4.583
32130W        W 4456   8.710   7.485  13.440
32131W        W 4457  41.964  31.743  12.518
32132W        W 4458   3.899   7.772  10.673
32133W        W 4459  36.354   5.369  11.542
32134W        W 4460  25.615  31.920   1.864
32135W        W 4461  40.819  33.021   2.169
32136W        W 4462  17.626  22.102  13.084
32137W        W 4463  19.471  39.931   0.023
32138W        W 4464  22.756  14.471   0.883
32139W        W 4465  17.300  17.440  13.850
32140W        W 4466  11.936  12.187   0.345
32141W        W 4467   1.418  38.014  14.548
32142W        W 4468  40.346  36.089  11.933
32143W        W 4469  43.963  30.439   4.162
32144W        W 4470  16.841  23.808  13.607
32145W        W 4471   7.425  32.498  12.489
32146W        W 4472  33.351   2.026   2.181
32147W        W 4473   3.873  15.825  14.357
32148W        W 4474  31.094  41.632   4.594
32149W        W 4475   0.948  32.205  10.942
32150W        W 4476  32.348  25.281  11.661
32151W        W 4477   6.442   9.091  14.018
32152W        W 4478  22.553  29.186  13.014
32153W        W 4479  21.493   9.939   1.762
32154W        W 4480  19.770   4.499   1.691
32155W        W 4481  12.206   0.132   2.549
32156W        W 4482  24.236  17.617   2.530
32157W        W 4483  33.879   6.404   4.076
32158W        W 4484  28.642  21.097   4.861
32159W        W 4485  28.935  27.976  13.553
32160W        W 4486  14.656  15.079   3.845
32161W        W 4487  33.446  11.588  13.883
32162W        W 4488   2.219  11.410   2.768
32163W        W 4489  21.484   5.410   3.147
32164W        W 4490  39.995  25.436  14.393
32165W        W 4491  25.784   0.295   0.476
32166W        W 4492  20.139  17.871   0.089
32167W        W 4493  15.879  15.324  13.852
32168W        W 4494   6.668  14.102   1.459
32169W        W 4495  29.012  10.119  12.893
32170W        W 4496  24.577  38.810  14.518
32171W        W 4497  40.089  39.773   1.039
32172W        W 4498  10.354  44.990  11.556
32173W        W 4499  44.934  14.621   2.284
32174W        W 4500  30.059  12.856  12.002
32175W        W 4501  33.109  25.701  14.819
32176W        W 4502   2.322  24.073   0.050
32177W        W 4503  16.169   3.317   0.835
32178W        W 4504  33.935   6.598  10.301
32179W        W 4505  43.899  36.465  14.762
32180W        W 4506  17.651  41.230   3.710
32181W        W 4507  20.184  34.770   0.186
32182W        W 4508  39.620  10.266   0.030
32183W        W 4509  34.887   3.763  12.406
32184W        W 4510  31.956   4.457  13.928
32185W        W 4511   4.868  44.934   1.881
32186W        W 4512  11.375  33.440  14.034
32187W        W 4513  25.551  25.439   0.464
32188W        W 4514  15.207   3.335   1.711
32189W        W 4515   7.799  16.720  14.297
32190W        W 4516   4.855  26.103  10.889
32191W        W 4517   9.369  41.940   2.619
32192W        W 4518  11.093  39.884   2.723
32193W        W 4519  32.681  16.426  11.573
32194W        W 4520  25.428  10.263   3.356
32195W        W 4521  43.291  24.757  12.403
32196W        W 4522  43.075  28.627   2.124
32197W        W 4523  19.280  15.131   3.688
32198W        W 4524   6.100  32.353  10.347
32199W        W 4525  37.923  21.944   2.508
32200W        W 4526  17.774  40.764  13.910
32201W        W 4527  27.560  19.274  10.672
32202W        W 4528  20.555  25.684  14.532
32203W        W 4529  38.033  33.038   0.204
32204W        W 4530  42.926  18.589   4.362
32205W        W 4531  26.124  34.339   2.647
32206W        W 4532  26.461  41.521   2.180
32207W        W 4533  20.132  13.518  14.727
32208W        W 4534  44.279   8.871   3.172
32209W        W 4535  12.190  30.676   0.377
32210W        W 4536  23.080  21.055  11.162
32211W        W 4537  23.001  10.813   4.136
32212W        W 4538   0.143  23.924   3.096
32213W        W 4539  15.594  23.310  13.900
32214W        W 4540  44.459  29.016  12.885
32215W        W 4541  29.402  20.561  14.983
32216W        W 4542  31.156   1.831  13.304
32217W        W 4543  19.509  41.456   0.400
32218W        W 4544  16.105   8.134   4.620
32219W        W 4545  26.097  40.443  11.164
32220W        W 4546  32.021  42.421   1.676
32221W        W 4547   5.309  22.268  12.159
32222W        W 4548   3.914  22.725  12.437
32223W        W 4549  40.855  44.486  10.748
32224W        W 4550  23.239  16.383  14.731
32225W        W 4551  28.730  37.369  12.437
32226W        W 4552  12.620   4.787  13.056
32227W        W 4553  29.578  17.275   5.156
32228W        W 4554   4.206  15.297  11.920
32229W        W 4555  11.684  36.374   0.830
32230W        W 4556  34.491  14.303   3.641
32231W        W 4557  35.427  18.088  12.425
32232W        W 4558  25.019   3.338  10.629
32233W        W 4559  10.355  32.065   2.868
32234W        W 4560  28.359   7.335   0.278
32235W        W 4561  38.924  18.250  10.619
32236W        W 4562  36.897  25.642  14.986
32237W        W 4563  28.401  29.468  14.647
32238W        W 4564  12.320  17.026  14.831
32239W        W 4565  14.145  19.266  10.422
32240W        W 4566  36.653   4.149  11.275
32241W        W 4567  10.267  40.485  14.401
32242W        W 4568  32.418  10.314   2.760
32243W        W 4569  32.925  17.228   3.214
32244W        W 4570   6.956  26.127   0.252
32245W        W 4571  17.540  19.114   4.628
32246W        W 4572  40.444   8.642   3.634
32247W        W 4573  11.188   5.138   4.232
32248W        W 4574  16.456  39.019  13.135
32249W        W 4575  36.433  43.922  10.705
32250W        W 4576  18.936  35.816  14.489
32251W        W 4577  15.214   0.611   4.095
32252W        W 4578  20.861  21.447   1.456
32253W        W 4579  35.584  44.878   0.801
32254W        W 4580  28.819  21.440   2.589
32255W        W 4581  17.180  18.776   4.394
32256W        W 4582   7.588  41.107  12.632
32257W        W 4583  23.233   2.522  14.951
32258W        W 4584  18.118  23.976  13.047
32259W        W 4585  28.832  22.585   3.722
32260W        W 4586  42.323  21.183   3.707
32261W        W 4587  44.584  31.505  10.641
32262W        W 4588  38.808   8.426   4.089
32263W        W 4589  24.612  41.777   1.650
32264W        W 4590  36.400   3.757   2.276
32265W        W 4591  37.539  30.973   4.125
32266W        W 4592  20.779  40.345  14.239
32267W        W 4593  22.187   1.517   1.833
32268W        W 4594  40.260   5.221  14.488
32269W        W 4595  15.785  17.890  13.260
32270W        W 4596   2.332  21.727   4.167
32271W        W 4597   6.671  21.626  12.485
32272W        W 4598  33.066  37.520   2.793
32273W        W 4599  16.071  44.464   0.428
32274W        W 4600  18.020  14.756  13.510
32275W        W 4601  19.076   9.112  10.680
32276W        W 4602   6.873  20.424   2.896
32277W        W 4603  11.744   1.277   2.361
32278W        W 4604  31.163  43.250  13.969
32279W        W 4605  10.152  15.059  12.449
32280W        W 4606  31.847  16.797  11.781
32281W        W 4607  11.291  14.290  14.252
32282W        W 4608  42.791   7.213   2.437
32283W        W 4609   8.460  11.351  13.000
32284W        W 4610  38.544  18.126   2.406
32285W        W 4611  42.558   6.469   4.912
32286W        W 4612  16.921  42.085  11.113
32287W        W 4613  33.106   0.939   0.526
32288W        W 4614  27.828   6.939  10.253
32289W        W 4615  23.421   4.464  12.047
32290W        W 4616   7.886  25.575  10.337
32291W        W 4617  37.079  44.328  11.348
32292W        W 4618  20.000  36.450  14.478
32293W        W 4619  28.856  27.005  14.799
32294W        W 4620  26.863   6.410   2.779
32295W        W 4621  15.576  42.237  11.553
32296W        W 4622  42.022  37.142   0.776
32297W        W 4623   6.423  37.093  11.652
32298W        W 4624  14.290  33.341  11.645
32299W        W 4625  31.909  39.535   1.202
32300W        W 4626   4.764   4.313   0.513
32301W        W 4627  38.025  13.626   3.750
32302W        W 4628  18.094  20.977  14.844
32303W        W 4629  30.977   4.739   1.280
32304W        W 4630  22.509   6.666  14.486
32305W        W 4631  14.229  10.154   1.778
32306W        W 4632  38.831  18.845   4.650
32307W        W 4633  19.712   7.252  11.721
32308W        W 4634   9.442  39.894  11.568
32309W        W 4635  16.565  43.968  12.016
32310W        W 4636  34.649  18.583  12.273
32311W        W 4637  38.200  17.840   0.666
32312W        W 4638  42.620  36.866  14.891
32313W        W 4639  18.216  40.039  11.849
32314W        W 4640  31.567  15.345  11.017
32315W        W 4641   4.868   4.972  12.008
32316W        W 4642   2.880  11.889   3.194
32317W        W 4643  17.047  37.011  11.826
32318W        W 4644   9.716  14.844  14.103
32319W        W 4645  31.993  25.307   0.380
32320W        W 4646  10.169   8.087  11.657
32321W        W 4647  11.995  26.962  12.783
32322W        W 4648  20.731  26.539  12.408
32323W        W 4649  18.739  41.915   1.642
32324W        W 4650  24.046   2.576   2.866
32325W        W 4651  12.834   1.526  12.470
32326W        W 4652  35.466  14.783  11.924
32327W        W 4653  17.335  23.117   0.737
32328W        W 4654  10.484  37.813   4.592
32329W        W 4655  13.120  29.022   4.115
32330W        W 4656  22.924  21.317   2.788
32331W        W 4657   7.089  18.179  14.388
32332W        W 4658  41.163  29.486   0.087
32333W        W 4659  39.104  25.243  13.474
32334W        W 4660   0.135   1.101   1.837
32335W        W 4661  37.351  27.608  11.931
32336W        W 4662  15.342  36.670   3.358
32337W        W 4663   2.374  29.531   4.028
32338W        W 4664  11.959  37.437  14.365
32339W        W 4665  24.175   1.521  10.663
32340W        W 4666  23.903  34.474  12.556
32341W        W 4667  18.253  37.924   4.522
32342W        W 4668  27.137  27.875   1.421
32343W        W 4669   8.406  22.332   0.898
32344W        W 4670  34.389   8.584  13.494
32345W        W 4671  31.847   9.374  10.994
32346W        W 4672  12.123  21.738  13.297
32347W        W 4673  26.088  24.096  10.931
32348W        W 4674  22.710  36.971  14.469
32349W        W 4675  20.677  28.472  12.957
32350W        W 4676  40.610  41.216   2.019
32351W        W 4677  28.052  41.336   4.799
32352W        W 4678  36.070  34.038   2.218
32353W        W 4679  33.552  18.828  11.546
32354W        W 4680  15.352  36.948   3.786
32355W        W 4681  25.665  23.758  13.562
32356W        W 4682  30.996  12.670   2.218
32357W        W 4683  40.901   4.077  11.053
32358W        W 4684   9.353  30.967   1.450
32359W        W 4685   5.350  34.024   2.114
32360W        W 4686  23.480  36.860   1.197
32361W        W 4687   8.765  24.187  11.593
32362W        W 4688  43.571  40.791   4.123
32363W        W 4689  35.918   7.093   0.424
32364W        W 4690  42.075  27.142   0.077
32365W        W 4691  33.691  27.314   3.123
32366W        W 4692  25.616  13.483  12.685
32367W        W 4693  35.383   2.900  12.325
32368W        W 4694  11.722  16.341  11.546
32369W        W 4695  22.793   4.810  12.350
32370W        W 4696  41.946  41.053   0.882
32371W        W 4697  17.666  26.896   4.645
32372W        W 4698  10.528  24.220   3.618
32373W        W 4699  30.169   0.890  12.847
32374W        W 4700  42.969  27.225  14.537
32375W        W 4701  11.670   4.229   4.856
32376W        W 4702  37.997  42.780  13.362
32377W        W 4703  39.356   4.332   4.656
32378W        W 4704  19.735  19.501  11.999
32379W        W 4705  14.708  43.263  11.118
32380W        W 4706  23.140  11.592  11.994
32381W        W 4707  10.807  27.459   0.523
32382W        W 4708  20.158   7.273  12.522
32383W        W 4709  27.046  13.749  10.690
32384W        W 4710   7.015  11.528  13.858
32385W        W 4711  43.946  35.659  13.741
32386W        W 4712  17.248  43.510   4.223
32387W        W 4713   6.849   8.093  12.480
32388W        W 4714  33.478  44.507   0.969
32389W        W 4715  18.580  12.152   3.176
32390W        W 4716   7.363  42.786  10.364
32391W        W 4717  20.704  13.299  14.860
32392W        W 4718   5.099  22.582  13.529
32393W        W 4719   2.990  13.615  14.983
32394W        W 4720  28.157   4.112   0.393
32395W        W 4721  14.639  40.318  10.883
32396W        W 4722  13.800  38.602   3.148
32397W        W 4723  42.070  17.649  11.892
32398W        W 4724  18.292  12.749   1.808
32399W        W 4725  24.192  10.362   2.694
32400W        W 4726  41.889  26.193   0.818
32401W        W 4727  16.741  39.065   0.285
32402W        W 4728  30.686  22.511   4.100
32403W        W 4729  16.837  11.213   1.849
32404W        W 4730  35.445   9.518  11.056
32405W        W 4731  39.932   5.621   1.740
32406W        W 4732  23.196  23.254   3.612
32407W        W 4733  41.871  28.551   4.334
32408W        W 4734   7.643   2.908  13.953
32409W        W 4735  39.327  33.288   4.355
32410W        W 4736   0.921  35.947  14.711
32411W        W 4737   9.397   6.332   0.790
32412W        W 4738  41.273   1.770  14.380
32413W        W 4739   1.493  43.413  13.860
32414W        W 4740   2.302  28.134   0.371
32415W        W 4741  29.860   1.209  10.742
32416W        W 4742  14.392  32.866   1.200
32417W        W 4743  33.806  39.895  10.738
32418W        W 4744  23.224  12.611   3.832
32419W        W 4745   2.955  17.312   5.123
32420W        W 4746  42.589  41.349   2.433
32421W        W 4747   5.326   1.887   4.971
32422W        W 4748  43.253  28.780   3.388
32423W        W 4749  26.138  36.876   3.790
32424W        W 4750  34.423  30.423   0.367
32425W        W 4751  39.491  41.763  13.557
32426W        W 4752  30.553  28.002   2.159
32427W        W 4753  35.363  39.608   0.048
32428W        W 4754   2.839  33.615  11.972
32429W        W 4755  33.884  16.902   3.151
32430W        W 4756   0.106  11.149  14.491
32431W        W 4757  20.044  12.057   0.058
32432W        W 4758  20.940   2.296  13.551
32433W        W 4759  32.501  37.457   0.740
32434W        W 4760  32.740  42.236  12.492
32435W        W 4761   4.267  12.648  14.936
32436W        W 4762  40.280  10.869  14.272
32437W        W 4763  12.612   6.374   3.243
32438W        W 4764  40.432  15.635  10.341
32439W        W 4765   4.735  33.482  11.008
32440W        W 4766  16.612  33.522  10.715
32441W        W 4767   4.607  35.813   2.152
32442W        W 4768  20.571   7.415  10.713
32443W        W 4769  30.087  11.348  10.636
32444W        W 4770  23.120  29.911  12.576
32445W        W 4771  21.433  16.138   4.545
32446W        W 4772  41.490   3.243   4.318
32447W        W 4773  17.234  37.821   4.487
32448W        W 4774  19.719  28.562   4.823
32449W        W 4775  15.094  35.854  10.744
32450W        W 4776  21.117  34.471   0.381
32451W        W 4777  44.563  25.669   2.220
32452W        W 4778  11.689   7.933   1.692
32453W        W 4779   9.837  32.063   2.905
32454W        W 4780   2.554   1.319  10.723
32455W        W 4781  39.113  31.483   2.168
32456W        W 4782  11.587  39.999   1.527
32457W        W 4783  20.320  10.657   3.166
32458W        W 4784  30.277  16.984  13.891
32459W        W 4785   8.190  12.561   1.976
32460W        W 4786   2.279   3.602  13.711
32461W        W 4787  29.056  33.435   3.032
32462W        W 4788  23.762  33.109   4.086
32463W        W 4789  44.481  26.127   0.259
32464W        W 4790  21.457  31.491  12.457
32465W        W 4791  30.219   1.409  12.893
32466W        W 4792   5.710   6.932   2.236
32467W        W 4793  39.499   5.784   4.345
32468W        W 4794  35.985  41.052   1.337
32469W        W 4795  22.197  40.476  14.034
32470W        W 4796  22.569  19.086  12.594
32471W        W 4797   5.235   3.456   4.090
32472W        W 4798  30.057  26.767   4.526
32473W        W 4799  41.801  12.184  11.993
32474W        W 4800  10.322   4.884   2.346
32475W        W 4801  32.383  26.940  12.637
32476W        W 4802  32.536  40.402   0.830
32477W        W 4803  30.669  30.019   1.724
32478W        W 4804  30.347  25.995  10.832
32479W        W 4805  27.685  16.333  14.913
32480W        W 4806  40.763   4.698  13.544
32481W        W 4807  18.321  33.466  12.500
32482W        W 4808  38.008  32.470   2.893
32483W        W 4809  40.430   8.525   4.152
32484W        W 4810  15.931  20.283  14.468
32485W        W 4811  41.764  30.201  12.624
32486W        W 4812  43.254  26.814  13.403
32487W        W 4813   4.963  39.705   4.489
32488W        W 4814  32.962  33.008  10.309
32489W        W 4815   4.518  13.555  14.812
32490W        W 4816   7.610  33.617  13.502
32491W        W 4817  39.024  19.336   0.036
32492W        W 4818  23.645  22.983  11.103
32493W        W 4819  37.089  13.111   1.338
32494W        W 4820  19.115  18.649   4.597
32495W        W 4821  24.129  32.578   1.871
32496W        W 4822  26.491  35.386  13.062
32497W        W 4823  44.844  12.585   0.489
32498W        W 4824  36.335  38.467  12.151
32499W        W 4825  22.031  12.317   0.532
32500W        W 4826  43.912  11.185   3.127
32501W        W 4827  30.387  26.531  11.002
32502W        W 4828   9.350  28.848   3.738
32503W        W 4829   3.690  30.780  10.171
32504W        W 4830   5.828  10.867   1.610
32505W        W 4831  12.336  17.311  12.015
32506W        W 4832  32.875  31.113   0.453
32507W        W 4833  11.639  26.175   4.637
32508W        W 4834  36.927  25.068   4.656
32509W        W 4835   0.012  34.414   1.366
32510W        W 4836  28.596  12.373   0.646
32511W        W 4837   2.875  28.653  14.759
32512W        W 4838   9.168  44.848   3.193
32513W        W 4839   0.450  10.343  14.833
32514W        W 4840  37.702  39.892   2.391
32515W        W 4841  29.096  15.284   4.597
32516W        W 4842   4.287  26.044   4.162
32517W        W 4843  44.857   5.579  12.208
32518W        W 4844   2.042  12.795   0.788
32519W        W 4845  29.109  27.695   5.124
32520W        W 4846   4.894  34.429  14.808
32521W        W 4847  43.966  19.407  13.792
32522W        W 4848  23.971   0.754  13.007
32523W        W 4849  21.926  23.253  11.586
32524W        W 4850  25.693  19.712  14.520
32525W        W 4851   8.216   0.391   3.875
32526W        W 4852  18.048  13.317   0.729
32527W        W 4853  12.867   1.843  12.050
32528W        W 4854  40.368  43.967  14.807
32529W        W 4855   8.239  11.762  12.179
32530W        W 4856   2.028  16.871   3.776
32531W        W 4857  19.077   2.354  12.911
32532W        W 4858  41.031  33.415   2.911
32533W        W 4859   0.912  14.327   0.405
32534W        W 4860   7.296  44.805  13.069
32535W        W 4861  10.061  33.728   0.106
32536W        W 4862  38.993  36.156   0.847
32537W        W 4863  34.905  12.580   4.550
32538W        W 4864  42.795   1.362  12.131
32539W        W 4865   1.872  37.621  11.958
32540W        W 4866  42.821  22.919  11.183
32541W        W 4867  36.554   3.674  11.407
32542W        W 4868  26.684  37.061  11.558
32543W        W 4869  36.624   7.419   4.267
32544W        W 4870   9.137  23.303  13.989
32545W        W 4871  35.557   5.989   1.840
32546W        W 4872  13.705  12.066  12.429
32547W        W 4873  15.330  34.194  11.883
32548W        W 4874  33.057  42.289   0.743
32549W        W 4875  31.216  19.797  11.563
32550W        W 4876  39.953  39.747  13.371
32551W        W 4877   0.825  30.027  10.667
32552W        W 4878   3.415  37.373  14.452
32553W        W 4879  11.214   8.656  14.519
32554W        W 4880  21.122  34.518   3.631
32555W        W 4881  23.974  42.835  12.796
32556W        W 4882   3.776  21.143   5.088
32557W        W 4883   0.769  14.258   4.502
32558W        W 4884  30.312  43.922  11.327
32559W        W 4885  38.328  12.124  12.633
32560W        W 4886  44.030  17.306   4.338
32561W        W 4887  30.964   6.024   0.668
32562W        W 4888   3.954  28.896   0.786
32563W        W 4889  24.253  38.430  14.855
32564W        W 4890   6.891  43.986   1.467
32565W        W 4891   0.784  38.999  11.134
32566W        W 4892  12.063  22.211  11.486
32567W        W 4893  41.021   6.755  13.827
32568W        W 4894   9.938  24.291   2.287
32569W        W 4895  44.265  31.905  10.721
32570W        W 4896   2.481   3.893   2.125
32571W        W 4897  16.855  30.399  14.049
32572W        W 4898  28.896   8.750   3.259
32573W        W 4899  36.012  39.171  13.123
32574W        W 4900  23.488   1.697   0.231
32575W        W 4901  34.641  11.007  11.996
32576W        W 4902   3.657  22.455   4.208
32577W        W 4903  32.336  25.703   0.327
32578W        W 4904  33.655  14.749  14.255
32579W        W 4905  10.897  26.933   0.614
32580W        W 4906  25.072  12.749   3.641
32581W        W 4907  27.751  32.027   1.872
32582W        W 4908  18.282  43.356  13.481
32583W        W 4909  28.100  42.555   2.991
32584W        W 4910  37.086   3.166   4.130
32585W        W 4911  18.156  25.948   3.467
32586W        W 4912  40.782  26.878   1.688
32587W        W 4913  44.785  17.402  11.394
32588W        W 4914  11.320   3.987   1.826
32589W        W 4915  33.893  25.617  14.444
32590W        W 4916  11.309  24.621   0.465
32591W        W 4917   7.628  13.328   0.423
32592W        W 4918   9.800  37.976   1.273
32593W        W 4919   7.853   6.549  11.106
32594W        W 4920  42.450  30.537   3.757
32595W        W 4921  18.335   9.915  11.985
32596W        W 4922  32.508  38.687   4.561
32597W        W 4923  39.250  29.359  13.916
32598W        W 4924  18.321  28.964   4.250
32599W        W 4925  43.385  25.861  11.015
32600W        W 4926   1.973   7.039  13.101
32601W        W 4927  35.529  17.991  14.340
32602W        W 4928   0.340   7.598  13.768
32603W        W 4929   0.434  13.277   3.325
32604W        W 4930  39.648  36.448   2.180
32605W        W 4931  19.739   8.774  14.551
32606W        W 4932  10.795  35.849  11.995
32607W        W 4933  23.024   3.227   3.113
32608W        W 4934  41.803  33.762  11.142
32609W        W 4935   4.447  44.917   2.847
32610W        W 4936  19.134  22.814  11.460
32611W        W 4937  41.929  28.898   3.045
32612W        W 4938   0.968  17.051   2.814
32613W        W 4939  33.536  20.749  11.357
32614W        W 4940  28.139  28.974  13.452
32615W        W 4941  25.520  17.547   1.725
32616W        W 4942  12.276  42.815  11.722
32617W        W 4943  42.786  42.434  13.019
32618W        W 4944   6.813  20.131   4.343
32619W        W 4945  33.107  11.174  11.055
32620W        W 4946  37.691  21.790   1.736
32621W        W 4947  41.272  36.603   2.638
32622W        W 4948  15.813  27.952  13.498
32623W        W 4949  20.610  41.819   3.677
32624W        W 4950  24.449  24.697  10.793
32625W        W 4951  20.529  19.339   2.232
32626W        W 4952   6.664  26.029   0.697
32627W        W 4953  18.183  15.301   1.065
32628W        W 4954  34.873  37.354  12.498
32629W        W 4955  26.219  16.249   2.407
32630W        W 4956   3.194  44.919  14.290
32631W        W 4957  39.286  38.242   0.464
32632W        W 4958  15.822  11.717  14.942
32633W        W 4959  43.418   2.911   3.433
32634W        W 4960  35.127  20.602   1.753
32635W        W 4961  41.727   2.038  12.593
32636W        W 4962  26.974   5.811   3.809
32637W        W 4963   7.421  39.936   4.227
32638W        W 4964  34.495  35.590  11.570
32639W        W 4965   7.411  24.761   2.662
32640W        W 4966  34.854  18.717  10.674
32641W        W 4967  20.540  10.000  14.045
32642W        W 4968  17.289   7.267   2.493
32643W        W 4969  19.585  39.452  11.142
32644W        W 4970   7.940  39.699  14.839
32645W        W 4971  34.077  13.386   1.878
32646W        W 4972  20.698  18.673  10.680
32647W        W 4973  27.627  43.432  12.077
32648W        W 4974  25.020   2.931  12.048
32649W        W 4975  28.279  32.117   4.179
32650W        W 4976   3.668  25.039  12.980
32651W        W 4977   5.364  10.651  12.983
32652W        W 4978   0.349  11.183   2.825
32653W        W 4979   3.607   2.014  14.141
32654W        W 4980  25.691  38.352   2.119
32655W        W 4981   3.013  18.295   0.214
32656W        W 4982  35.908  16.043   2.812
32657W        W 4983   9.529  19.362  11.649
32658W        W 4984  39.364  39.160   4.262
32659W        W 4985  27.216  16.412   3.415
32660W        W 4986  26.736  30.016  12.567
32661W        W 4987  10.206   6.701  14.377
32662W        W 4988  25.050  33.191  14.318
32663W        W 4989  22.232  19.770  10.889
32664W        W 4990  27.969  15.533  11.860
32665W        W 4991  28.973  28.966  13.558
32666W        W 4992  22.983   0.326   0.844
32667W        W 4993  20.520  21.155   2.350
32668W        W 4994   2.944  12.173   1.418
32669W        W 4995  26.855  26.027   5.007
32670W        W 4996  43.815   7.414   4.503
32671W        W 4997   2.498   6.858  10.542
32672W        W 4998  30.242  39.831   1.484
32673W        W 4999  16.085   7.696   4.294
32674W        W 5000  12.767  19.141   3.849
32675W        W 5001   1.292  30.690   2.360
32676W        W 5002  36.342  44.939  11.409
32677W        W 5003  40.486  32.997  14.848
32678W        W 5004  28.093  34.254   0.244
32679W        W 5005  43.758  35.243   3.098
32680W        W 5006  36.980  25.987   3.664
32681W        W 5007  37.136   5.322   0.746
32682W        W 5008  16.705  44.727  12.517
32683W        W 5009  28.628  16.546  10.581
32684W        W 5010   3.430  17.331   2.102
32685W        W 5011  32.854  32.586  12.315
32686W        W 5012  25.971  35.905   2.801
32687W        W 5013  11.098  36.386   3.819
32688W        W 5014  43.199   8.864   0.788
32689W        W 5015  38.535  11.863   3.270
32690W        W 5016  23.274   0.154  14.877
32691W        W 5017  12.693  34.586   2.171
32692W        W 5018  26.623   2.893  11.655
32693W        W 5019   6.054  26.336   5.057
32694W        W 5020  42.302  16.151  12.049
32695W        W 5021   9.763  16.183  14.006
32696W        W 5022  44.715  20.529   2.844
32697W        W 5023  42.695  19.241   0.363
32698W        W 5024   6.683  34.133   2.358
32699W        W 5025  25.683   3.310  11.669
32700W        W 5026  15.366  33.945  10.610
32701W        W 5027   8.462  21.254   0.956
32702W        W 5028   0.692  21.675  10.820
32703W        W 5029  23.248  40.014   9.942
32704W        W 5030  19.661   4.116  13.595
32705W        W 5031  22.170  15.330   2.718
32706W        W 5032  44.785   6.709   0.373
32707W        W 5033  22.102  13.351   4.768
32708W        W 5034  23.613  23.402   2.921
32709W        W 5035  33.350  18.048  13.133
32710W        W 5036  44.753  23.708   4.335
32711W        W 5037  24.688  39.904   1.886
32712W        W 5038   3.009  34.155  12.910
32713W        W 5039  12.143  14.047   1.740
32714W        W 5040  26.871   9.674  12.469
32715W        W 5041   5.404  40.513   1.353
32716W        W 5042  32.528   0.263   0.383
32717W        W 5043  36.602  16.160   4.087
32718W        W 5044  44.994  28.419   2.158
32719W        W 5045  12.847   7.886  13.122
32720W        W 5046   6.145  15.748   4.637
32721W        W 5047   9.585  33.839  11.513
32722W        W 5048  40.786  14.372   4.436
32723W        W 5049   3.145  17.539  14.789
32724W        W 5050  37.025  19.923   3.381
32725W        W 5051  32.827   8.762  11.545
32726W        W 5052   2.753  24.572   5.558
32727W        W 5053   6.434  10.697   4.607
32728W        W 5054   5.335   2.341   4.130
32729W        W 5055  13.598   0.778  13.089
32730W        W 5056   3.361   5.765   3.297
32731W        W 5057  34.383  37.809  13.909
32732W        W 5058  21.248  39.916   1.916
32733W        W 5059  29.045   4.955  14.819
32734W        W 5060  26.894  38.593  12.688
32735W        W 5061  14.813   3.939   1.154
32736W        W 5062  24.975  35.598   0.583
32737W        W 5063  31.410  27.233  13.175
32738W        W 5064  18.273  18.837  11.947
32739W        W 5065   1.791  16.273  11.384
32740W        W 5066  22.969  28.014   1.889
32741W        W 5067   4.904  31.141  14.102
32742W        W 5068   8.661  23.832  14.703
32743W        W 5069  41.361  24.706   4.687
32744W        W 5070  22.017  33.482   2.690
32745W        W 5071  19.171  16.897  14.665
32746W        W 5072  29.209  17.681   1.405
32747W        W 5073  12.951  11.146  14.314
32748W        W 5074  16.267  31.493  14.318
32749W        W 5075  44.274   6.934  13.790
32750W        W 5076   2.166   5.778   4.588
32751W        W 5077  42.477  29.698  11.430
32752W        W 5078  13.493  24.118   4.857
32753W        W 5079  40.883  23.045  12.151
32754W        W 5080   1.006  33.359   0.478
32755W        W 5081  28.745   5.950   1.002
32756W        W 5082  21.699  39.379  13.545
32757W        W 5083  32.997  36.616  11.655
32758W        W 5084  44.322  31.190  12.481
32759W        W 5085  29.300   1.464  12.008
32760W        W 5086  38.014   9.725   5.548
32761W        W 5087   3.700  11.381   4.634
32762W        W 5088  40.444  34.721   3.788
32763W        W 5089  16.630  34.361  10.460
32764W        W 5090  10.271  24.915  12.348
32765W        W 5091  35.481   0.276  11.662
32766W        W 5092  39.922  25.218  10.668
32767W        W 5093  29.003  24.620   1.755
32768W        W 5094  27.605  24.165   4.413
32769W        W 5095   8.686  31.193  14.490
32770W        W 5096  33.877  38.113   0.255
32771W        W 5097   2.264   8.120  14.579
32772W        W 5098  44.375   3.476  13.852
32773W        W 5099   2.509  18.674  11.112
32774W        W 5100  31.928  22.272  11.965
32775W        W 5101   8.256  38.971   3.091
32776W        W 5102  29.937  13.852   4.510
32777W        W 5103  12.830  27.713   0.240
32778W        W 5104  10.316   4.872  13.586
32779W        W 5105   4.025  44.358  12.852
32780W        W 5106   3.218  14.175  12.099
32781W        W 5107  14.274  19.690  14.140
32782W        W 5108  30.059  42.406   0.063
32783W        W 5109  14.367  23.944   0.372
32784W        W 5110  24.255  34.247   2.687
32785W        W 5111  43.382  39.846  10.296
32786W        W 5112   4.513  24.010   0.181
32787W        W 5113  43.173  44.137   1.127
32788W        W 5114  31.965  36.326  13.366
32789W        W 5115  14.909  11.787  11.015
32790W        W 5116   5.110  26.090   0.765
32791W        W 5117  21.390  38.828  11.999
32792W        W 5118  33.443   7.139  12.348
32793W        W 5119  14.275  42.806   0.881
32794W        W 5120   6.707  30.433   2.814
32795W        W 5121  42.419  35.447   0.902
32796W        W 5122   6.172  38.904   0.829
32797W        W 5123  39.987  21.030  11.436
32798W        W 5124   3.715  19.600   2.832
32799W        W 5125   7.762  17.423   3.607
32800W        W 5126   3.430  35.071   4.139
32801W        W 5127  41.702  32.446  13.083
32802W        W 5128  11.689  32.611  10.906
32803W        W 5129  41.038  28.484   1.839
32804W        W 5130  33.549  19.570  13.101
32805W        W 5131  19.608  42.061  10.652
32806W        W 5132  15.405  39.437  14.842
32807W        W 5133  26.094   7.461  13.485
32808W        W 5134  42.247  11.682  10.685
32809W        W 5135  26.617  34.035   1.647
32810W        W 5136  17.769  44.638  14.766
32811W        W 5137  37.391  30.732   2.155
32812W        W 5138  44.174  38.347   2.284
32813W        W 5139  32.889  25.630   4.188
32814W        W 5140  31.158  23.645   4.744
32815W        W 5141  29.129   8.292  13.408
32816W        W 5142  18.190  37.076   4.611
32817W        W 5143  13.710   2.396   3.660
32818W        W 5144  16.801   7.533  14.520
32819W        W 5145  31.990  21.128   1.394
32820W        W 5146  31.882  24.505   4.195
32821W        W 5147  44.268  19.565   9.945
32822W        W 5148  33.520  34.627  11.960
32823W        W 5149  14.664  44.385  13.352
32824W        W 5150  23.010  41.940  13.864
32825W        W 5151  38.547  35.989  14.502
32826W        W 5152  25.706  38.558   0.331
32827W        W 5153  41.186  23.873  12.869
32828W        W 5154  31.349  16.815  14.448
32829W        W 5155  43.093  38.463  10.431
32830W        W 5156   7.216  26.664   2.746
32831W        W 5157  37.166  24.461   1.380
32832W        W 5158  33.112  34.875  14.057
32833W        W 5159  29.461  38.052   4.166
32834W        W 5160  37.101   0.285  10.781
32835W        W 5161  19.572  31.965   4.136
32836W        W 5162  14.535  37.558   4.058
32837W        W 5163   0.684  44.183   4.187
32838W        W 5164  43.950  11.310   4.101
32839W        W 5165  41.443   1.041  12.831
32840W        W 5166  12.900  30.109   4.758
32841W        W 5167  15.393  37.877   4.076
32842W        W 5168  22.768  23.718   1.901
32843W        W 5169  41.326  21.305  11.157
32844W        W 5170  11.291   5.865  13.872
32845W        W 5171  42.996  19.594  10.667
32846W        W 5172  18.121  11.644  14.498
32847W        W 5173  28.565  12.753  12.487
32848W        W 5174  12.639  35.793   1.434
32849W        W 5175  20.586  40.574  14.757
32850W        W 5176  42.560  34.352  13.802
32851W        W 5177  32.053   1.328  12.931
32852W        W 5178  26.123  16.643   0.063
32853W        W 5179   4.513   4.568  13.632
32854W        W 5180   6.230  25.521  14.032
32855W        W 5181   5.933  24.433   1.423
32856W        W 5182  10.923   3.273  12.104
32857W        W 5183  28.224  25.585  12.555
32858W        W 5184   2.312   2.970   2.820
32859W        W 5185  15.053  12.736  12.873
32860W        W 5186  14.301  41.066   1.883
32861W        W 5187  32.483  31.762   0.940
32862W        W 5188  17.115   8.687  13.518
32863W        W 5189   9.866  22.540   4.019
32864W        W 5190  33.220  21.512  14.631
32865W        W 5191  19.268  28.960   2.152
32866W        W 5192  24.897   3.235   3.291
32867W        W 5193   4.840  33.866   2.172
32868W        W 5194   6.780  10.127   3.682
32869W        W 5195   8.442  36.502   4.679
32870W        W 5196  39.910  41.046  11.129
32871W        W 5197  16.514  44.486   2.802
32872W        W 5198  21.416  23.366  11.502
32873W        W 5199  16.117   5.732   0.664
32874W        W 5200  40.929  35.548   2.935
32875W        W 5201   9.519  26.358  11.896
32876W        W 5202  39.327  43.460  11.067
32877W        W 5203  14.301  20.194  12.334
32878W        W 5204   1.664  16.463   3.260
32879W        W 5205  38.880  20.777   4.342
32880W        W 5206  39.337  28.465   1.857
32881W        W 5207  23.696  15.195   2.754
32882W        W 5208  43.568  17.679  11.100
32883W        W 5209   1.138  30.932   0.822
32884W        W 5210  26.543  19.136  14.186
32885W        W 5211  42.186  44.744   3.340
32886W        W 5212  35.562   0.522  12.988
32887W        W 5213  32.534   3.663   3.296
32888W        W 5214   1.038  40.320   2.572
32889W        W 5215   5.755  24.201   4.448
32890W        W 5216  25.297  21.059   4.584
32891W        W 5217  15.094  31.910   1.846
32892W        W 5218  30.431  38.541   0.461
32893W        W 5219   1.172  29.971   2.050
32894W        W 5220  34.462  13.659  11.138
32895W        W 5221  25.577  20.602  11.105
32896W        W 5222   1.372  41.029  11.484
32897W        W 5223  36.941  35.028  13.499
32898W        W 5224  33.112  13.778  12.925
32899W        W 5225   3.924  37.142  10.908
32900W        W 5226  12.805  26.604   4.275
32901W        W 5227  15.525   4.791  14.503
32902W        W 5228   2.075  13.014  11.060
32903W        W 5229  32.865  23.659   2.338
32904W        W 5230   0.344  38.567   3.348
32905W        W 5231  32.623  22.533   2.259
32906W        W 5232  39.941  44.330   1.314
32907W        W 5233   1.213  23.905  14.379
32908W        W 5234  18.303  24.056   1.470
32909W        W 5235  34.578  35.042   5.014
32910W        W 5236  25.078  38.532   2.783
32911W        W 5237  12.905  13.080  13.036
32912W        W 5238  16.653  31.986  10.489
32913W        W 5239  42.825  21.040   1.876
32914W        W 5240   1.267  10.822  11.651
32915W        W 5241   2.561  17.655   0.853
32916W        W 5242   0.830  27.450   1.809
32917W        W 5243  33.567  35.391   3.494
32918W        W 5244  12.404  34.185   4.177
32919W        W 5245  23.105  39.831   1.904
32920W        W 5246  29.684  11.127  13.290
32921W        W 5247  16.680   6.013   2.544
32922W        W 5248   3.238  32.924  12.130
32923W        W 5249  33.984  27.749   3.287
32924W        W 5250  36.319   6.103  12.820
32925W        W 5251  35.826   0.797  14.363
32926W        W 5252   2.010  16.670   1.470
32927W        W 5253  35.541  37.821   1.354
32928W        W 5254  37.431  15.731   4.264
32929W        W 5255  11.313  40.166   3.096
32930W        W 5256   0.323   9.376   3.747
32931W        W 5257  25.101  29.022   0.538
32932W        W 5258   5.829  30.572   3.130
32933W        W 5259   8.773  13.917  11.979
32934W        W 5260   0.459  33.677   1.720
32935W        W 5261  14.501   6.409   4.069
32936W        W 5262  11.615   1.586  12.871
32937W        W 5263   3.884  33.208   1.802
32938W        W 5264  21.127  12.857   0.398
32939W        W 5265  23.205  38.317   1.917
32940W        W 5266   6.169   7.784   1.786
32941W        W 5267   6.186   2.513   2.713
32942W        W 5268  43.898  31.493   4.191
32943W        W 5269   1.484  10.174  12.336
32944W        W 5270   7.338   6.873  12.646
32945W        W 5271   7.574  14.685  12.648
32946W        W 5272  31.431  43.716   4.587
32947W        W 5273  44.203   6.626  12.052
32948W        W 5274   0.016  38.269   4.203
32949W        W 5275   1.910  41.446   2.605
32950W        W 5276  19.041  11.613   0.943
32951W        W 5277  40.254  42.418  12.896
32952W        W 5278  17.186  40.029   2.588
32953W        W 5279  33.987  26.143   3.678
32954W        W 5280  34.380  41.993  11.570
32955W        W 5281  19.300  11.596  12.455
32956W        W 5282   7.967  21.091  12.548
32957W        W 5283  44.063   2.824  12.325
32958W        W 5284   8.953   2.535  12.632
32959W        W 5285  10.252   8.689  14.589
32960W        W 5286  18.064  10.321  10.811
32961W        W 5287   5.646  38.373   2.231
32962W        W 5288  35.621  17.173   0.721
32963W        W 5289  12.717  30.140  14.701
32964W        W 5290   7.123   4.171   3.663
32965W        W 5291  24.311  14.073   5.220
32966W        W 5292  31.058  17.116  11.194
32967W        W 5293  42.422  24.703   2.874
32968W        W 5294  33.086  28.035   0.739
32969W        W 5295  28.585  35.428   3.206
32970W        W 5296  41.977  20.992  13.465
32971W        W 5297  22.125  38.653  13.354
32972W        W 5298   2.149   3.921  12.085
32973W        W 5299  33.081   0.324  13.877
32974W        W 5300  32.946  29.926  12.592
32975W        W 5301  42.787  11.187  12.112
32976W        W 5302  38.319  13.309   4.034
32977W        W 5303  25.791  23.942   4.586
32978W        W 5304  41.945  35.414  13.563
32979W        W 5305  44.734   1.281   3.171
32980W        W 5306  37.599  40.390   2.556
32981W        W 5307  17.718  11.213   4.596
32982W        W 5308  31.039  11.967   2.816
32983W        W 5309   8.360  19.411  11.630
32984W        W 5310   8.365  21.611   3.646
32985W        W 5311  32.148  37.759   1.838
32986W        W 5312  25.913  30.219   1.843
32987W        W 5313  38.969   2.350   1.414
32988W        W 5314  16.801  44.945   2.752
32989W        W 5315  23.309  30.704  13.173
32990W        W 5316  11.785   9.123  13.060
32991W        W 5317  12.169   2.404  13.893
32992W        W 5318  31.183  13.685   2.256
32993W        W 5319  33.298  34.714  11.044
32994W        W 5320   0.341  20.227   2.287
32995W        W 5321  23.301  10.270  14.286
32996W        W 5322  17.739  28.493   2.471
32997W        W 5323  19.792  13.417  12.494
32998W        W 5324  32.667   8.605  12.552
32999W        W 5325  15.732  30.404   3.672
33000W        W 5326  32.045   2.785   0.826
33001W        W 5327  41.292  13.726   2.986
33002W        W 5328  32.362  38.030  14.694
33003W        W 5329   2.428   8.542  14.312
33004W        W 5330  21.713  28.357  12.501
33005W        W 5331   9.924  13.548  11.500
33006W        W 5332  27.837  22.724   3.609
33007W        W 5333  34.876  27.494   2.766
33008W        W 5334   1.303  39.645  12.748
33009W        W 5335  38.043  23.479  13.815
33010W        W 5336   4.345  19.697  12.186
33011W        W 5337  31.576  13.062   3.343
33012W        W 5338  38.376   2.761  11.824
33013W        W 5339  13.866  30.977  14.767
33014W        W 5340  43.061  30.419  12.502
33015W        W 5341   3.878   2.757   0.798
33016W        W 5342   7.418  29.006   0.597
33017W        W 5343  27.377   4.425  10.520
33018W        W 5344  22.712   7.038   2.211
33019W        W 5345  31.522   9.690  13.720
33020W        W 5346  26.173  43.847   3.353
33021W        W 5347   8.612  38.329   3.823
33022W        W 5348  22.494   5.116  10.802
33023W        W 5349  18.715   0.514  12.681
33024W        W 5350  16.811  14.950   2.288
33025W        W 5351  26.293  19.766  10.490
33026W        W 5352  39.812  37.906  13.413
33027W        W 5353  33.033  19.327  12.950
33028W        W 5354   5.214  32.179   2.940
33029W        W 5355   2.948  43.454   3.098
33030W        W 5356  25.184  13.094  14.874
33031W        W 5357  14.579  42.281  11.112
33032W        W 5358  43.393  27.086  10.769
33033W        W 5359  28.461   7.753  13.386
33034W        W 5360  31.306  22.961   3.151
33035W        W 5361  27.936  39.052  11.791
33036W        W 5362  33.358  22.687  12.116
33037W        W 5363  12.686  17.351   0.002
33038W        W 5364  16.427  14.109   3.739
33039W        W 5365  28.121  13.845   3.659
33040W        W 5366  26.176  27.636  12.820
33041W        W 5367  29.372  38.518   4.386
33042W        W 5368  41.306  42.745   4.860
33043W        W 5369  21.257  24.239   3.103
33044W        W 5370  23.867  18.188  11.991
33045W        W 5371  43.008  43.358  12.156
33046W        W 5372  40.673  26.144   4.812
33047W        W 5373  36.489  29.170   9.937
33048W        W 5374  44.859  44.719  13.826
33049W        W 5375  39.555  13.389   1.153
33050W        W 5376   6.462  44.844  11.040
33051W        W 5377  29.402  20.629  14.080
33052W        W 5378  26.713  43.034  14.807
33053W        W 5379  12.873  37.501   0.320
33054W        W 5380  42.984  43.762  14.752
33055W        W 5381   4.617  18.912   4.169
33056W        W 5382  30.576  24.678   1.283
33057W        W 5383  41.363  39.952  13.123
33058W        W 5384  15.145  29.607   3.654
33059W        W 5385  31.462  19.003   4.195
33060W        W 5386   4.023  42.986  10.156
33061W        W 5387   4.191   5.818  14.191
33062W        W 5388  37.556  35.068   2.175
33063W        W 5389   0.230  40.908  14.502
33064W        W 5390  35.667  31.506  10.723
33065W        W 5391  13.633  13.622   4.086
33066W        W 5392  30.621  37.335   0.749
33067W        W 5393   3.315   7.364   1.659
33068W        W 5394   0.918  18.475  11.492
33069W        W 5395  41.059  34.078  10.703
33070W        W 5396   0.301  16.528   4.175
33071W        W 5397  20.831   7.392  14.769
33072W        W 5398  37.242  13.175   5.087
33073W        W 5399  28.150  43.777   4.483
33074W        W 5400  29.973  32.170  10.862
33075W        W 5401   5.170  43.745  14.364
33076W        W 5402  20.463  16.249   0.734
33077W        W 5403  39.981   2.872   3.381
33078W        W 5404  36.996  40.541   1.957
33079W        W 5405   9.299  13.169   4.088
33080W        W 5406   5.842  26.360  13.774
33081W        W 5407   5.020  36.816   1.859
33082W        W 5408  33.206  25.418  11.861
33083W        W 5409  37.009  30.660  14.542
33084W        W 5410  22.142  30.583   4.962
33085W        W 5411   7.785  11.946  12.415
33086W        W 5412  22.302   2.007  12.952
33087W        W 5413  25.556  31.571   2.279
33088W        W 5414  41.350  22.193   3.096
33089W        W 5415  30.981   7.921   0.848
33090W        W 5416  15.593  20.760   0.868
33091W        W 5417  38.532  40.746   2.651
33092W        W 5418  17.247   0.377  14.980
33093W        W 5419   7.915  22.824  14.387
33094W        W 5420  10.280  37.329   1.390
33095W        W 5421   9.356  43.571  13.873
33096W        W 5422  18.772   1.924  13.329
33097W        W 5423   1.506  14.917  11.013
33098W        W 5424   1.968   4.385   3.113
33099W        W 5425   5.902   5.939   3.626
33100W        W 5426  32.943  12.104  12.170
33101W        W 5427  24.032  19.823   0.379
33102W        W 5428   4.220  32.456  14.421
33103W        W 5429  29.126  26.534   5.278
33104W        W 5430  44.962  23.492  13.260
33105W        W 5431   0.458  38.064   3.337
33106W        W 5432  30.353  19.644  12.113
33107W        W 5433   0.740  31.608  12.067
33108W        W 5434  11.872  32.638   0.421
33109W        W 5435   8.753   7.150  10.593
33110W        W 5436   5.298  35.090   3.764
33111W        W 5437  21.269  12.725   0.898
33112W        W 5438   5.793  34.577   1.585
33113W        W 5439   9.863  28.133  14.784
33114W        W 5440   9.745  22.985  13.253
33115W        W 5441  33.537  41.237   3.584
33116W        W 5442   9.593  37.478   1.993
33117W        W 5443  22.506  27.388   4.830
33118W        W 5444  23.572  19.635  11.966
33119W        W 5445  18.204  40.483   3.972
33120W        W 5446  38.579  37.160  13.443
33121W        W 5447  26.753   6.630  12.065
33122W        W 5448  29.951   7.250  12.240
33123W        W 5449   4.360  39.741  12.827
33124W        W 5450  27.129  35.853  12.965
33125W        W 5451  14.742  32.990   2.151
33126W        W 5452   5.345  27.908  13.353
33127W        W 5453  44.992  14.130  12.823
33128W        W 5454  12.624  37.048  14.057
33129W        W 5455  28.709  14.139   0.369
33130W        W 5456  44.548  11.880   2.223
33131W        W 5457   1.986  37.439  14.264
33132W        W 5458  36.044  19.136  13.956
33133W        W 5459  44.838   8.783   4.199
33134W        W 5460  34.402  16.521  11.644
33135W        W 5461  40.904   3.241   3.691
33136W        W 5462   1.838  37.131  14.831
33137W        W 5463  33.007  18.635   3.152
33138W        W 5464  24.729  15.333  10.601
33139W        W 5465  38.518  12.301  12.182
33140W        W 5466   2.236  43.258   0.480
33141W        W 5467  26.379  25.645  14.214
33142W        W 5468  40.493  23.251  12.943
33143W        W 5469  28.686  26.080  11.953
33144W        W 5470   4.048  31.081   4.202
33145W        W 5471  18.631   7.053  10.096
33146W        W 5472  38.038  29.205   1.315
33147W        W 5473   9.863  12.793   4.097
33148W        W 5474   5.886  14.157  11.019
33149W        W 5475  43.319  24.710   4.529
33150W        W 5476  29.631  18.642  12.065
33151W        W 5477  44.076   2.002   0.488
33152W        W 5478  14.519  37.975   4.878
33153W        W 5479  32.486  22.143   4.382
33154W        W 5480  18.259   9.710  14.517
33155W        W 5481  13.985  15.664   3.286
33156W        W 5482  18.051   2.402   2.635
33157W        W 5483  28.952   5.858   0.033
33158W        W 5484  42.435   1.722   2.085
33159W        W 5485  26.179  40.859  14.954
33160W        W 5486  15.123  35.618   4.304
33161W        W 5487  25.968  42.656   5.138
33162W        W 5488  26.205  38.320  12.030
33163W        W 5489  19.631  42.940   3.161
33164W        W 5490  32.839  42.034   4.218
33165W        W 5491   9.620   4.433   2.153
33166W        W 5492  38.068   3.152  14.805
33167W        W 5493  16.273  36.795  12.903
33168W        W 5494  34.036  35.430   1.860
33169W        W 5495  16.382  17.187   4.738
33170W        W 5496  14.618  24.733  11.633
33171W        W 5497  10.733  29.094   3.939
33172W        W 5498  32.250  36.598   3.132
33173W        W 5499  17.940  26.686   0.417
33174W        W 5500  18.853   4.823   3.238
33175W        W 5501  19.318  32.530  12.529
33176W        W 5502  21.163  32.639   3.350
33177W        W 5503  33.771   7.284  11.554
33178W        W 5504  37.070  17.556   3.620
33179W        W 5505   1.759  23.588   1.791
33180W        W 5506   4.921   6.757  11.625
33181W        W 5507  29.181   0.343   4.251
33182W        W 5508  23.984  21.151   1.918
33183W        W 5509  28.219  44.044  11.141
33184W        W 5510  40.481   3.651   2.808
33185W        W 5511  11.747  18.239   1.172
33186W        W 5512  39.073  31.120   2.843
33187W        W 5513  40.547  14.352  14.842
33188W        W 5514  18.512  31.088  12.842
33189W        W 5515  43.304  28.569   1.162
33190W        W 5516  15.177   8.375  13.890
33191W        W 5517  19.668   8.140  12.544
33192W        W 5518  36.598  31.556   3.708
33193W        W 5519  27.404  19.682  13.701
33194W        W 5520   5.873  38.629   4.505
33195W        W 5521  42.594   9.181   2.763
33196W        W 5522  20.130  18.019   1.416
33197W        W 5523  33.962  17.498   0.348
33198W        W 5524  33.652   9.798   2.938
33199W        W 5525  42.720  22.123   1.372
33200W        W 5526   1.026  36.503   1.770
33201W        W 5527  27.404  18.819  11.620
33202W        W 5528  36.341   0.813   2.338
33203W        W 5529   3.123  40.605   3.235
33204W        W 5530   4.544  43.629   5.025
33205W        W 5531  31.971   2.265   3.778
33206W        W 5532   4.329   4.739   5.067
33207W        W 5533   4.219  40.955   4.864
33208W        W 5534  37.843  22.948   2.932
33209W        W 5535  18.500  30.902  11.967
33210W        W 5536  17.168   7.913  14.539
33211W        W 5537  22.868  28.239  12.114
33212W        W 5538  16.861  16.683   4.167
33213W        W 5539  42.882   9.165   4.386
33214W        W 5540  25.695  32.893   1.929
33215W        W 5541   8.391  17.349  11.047
33216W        W 5542  16.392   6.339  14.808
33217W        W 5543   4.843  43.097  11.963
33218W        W 5544  35.521  35.810  13.011
33219W        W 5545   4.352  19.232  14.734
33220W        W 5546  42.938  22.907  12.614
33221W        W 5547   3.867  10.205   4.124
33222W        W 5548  28.688  32.106   0.382
33223W        W 5549  29.633  15.796   0.305
33224W        W 5550  39.825   4.664  10.668
33225W        W 5551  13.771  15.447  11.080
33226W        W 5552  41.304   4.803   3.762
33227W        W 5553  37.397  39.973  10.963
33228W        W 5554  41.929   7.425   3.829
33229W        W 5555   2.025  12.337  13.911
33230W        W 5556  22.511  14.631  10.517
33231W        W 5557  43.981   8.259   2.762
33232W        W 5558  25.600  16.975  14.332
33233W        W 5559  32.054  17.524  14.934
33234W        W 5560   2.784  30.596  13.118
33235W        W 5561  11.630  17.130  12.451
33236W        W 5562  36.922  18.683  13.655
33237W        W 5563  37.995  23.623  14.904
33238W        W 5564  16.788   1.968   2.602
33239W        W 5565  31.966  39.849   3.549
33240W        W 5566  12.273  14.793  14.556
33241W        W 5567  11.496  30.459  12.099
33242W        W 5568  44.282  39.472  14.798
33243W        W 5569  10.506  25.687   2.023
33244W        W 5570  39.393   8.578  11.198
33245W        W 5571  32.364   3.868   1.954
33246W        W 5572   7.225   9.192   3.633
33247W        W 5573  13.745  30.439   1.761
33248W        W 5574  43.371   8.596   1.267
33249W        W 5575   3.160  11.376  13.439
33250W        W 5576  38.967  38.392   2.987
33251W        W 5577  11.581  15.648  12.895
33252W        W 5578   9.138  40.822  12.391
33253W        W 5579   1.817  40.954  11.247
33254W        W 5580  27.132  27.529  11.561
33255W        W 5581  25.580  44.433  13.098
33256W        W 5582   5.868  38.012   0.469
33257W        W 5583  23.639  41.256  11.164
33258W        W 5584  39.500  34.047  13.880
33259W        W 5585  14.610   9.903  13.826
33260W        W 5586  43.428  34.135  14.838
33261W        W 5587  43.699  21.278  11.438
33262W        W 5588  13.573   8.661  14.778
33263W        W 5589  18.963   1.744  12.400
33264W        W 5590   8.705  37.827  12.029
33265W        W 5591  34.717  42.890  14.764
33266W        W 5592  34.778  12.758   3.770
33267W        W 5593   6.692  21.149  12.808
33268W        W 5594  20.318  23.060   3.340
33269W        W 5595  40.989  19.958   4.160
33270W        W 5596  39.535  43.937  11.164
33271W        W 5597  40.469  19.221   0.970
33272W        W 5598   0.428  24.507   4.692
33273W        W 5599   6.559  13.005  13.822
33274W        W 5600  21.197  26.713  13.575
33275W        W 5601  12.020  44.703  10.136
33276W        W 5602   9.157  25.679   3.312
33277W        W 5603  23.522   0.559  11.205
33278W        W 5604  15.105  27.524  14.452
33279W        W 5605  33.580  37.405  11.396
33280W        W 5606   1.274   6.657   1.690
33281W        W 5607  36.443  26.511  12.574
33282W        W 5608  24.570  44.820   0.436
33283W        W 5609  25.763  24.506   3.727
33284W        W 5610  26.613   9.844   3.922
33285W        W 5611  36.915  12.786   2.655
33286W        W 5612  21.320  33.513   0.442
33287W        W 5613  24.359  18.822   4.089
33288W        W 5614  13.636  28.492  10.484
33289W        W 5615  33.060   2.616  14.686
33290W        W 5616  30.904  43.963   2.788
33291W        W 5617   0.404   6.802  12.459
33292W        W 5618  27.545  24.436  11.022
33293W        W 5619  40.471  11.487   1.295
33294W        W 5620  42.461  29.408   3.620
33295W        W 5621  29.487   4.568  10.271
33296W        W 5622  40.016   3.859   0.810
33297W        W 5623  36.777   9.664   4.181
33298W        W 5624  31.946  14.381  13.793
33299W        W 5625  43.692   1.847  12.614
33300W        W 5626   0.866  32.659   1.475
33301W        W 5627  44.313  43.552  10.376
33302W        W 5628  44.975  14.301   4.092
33303W        W 5629  15.101  30.208  11.983
33304W        W 5630  36.625   3.312  11.060
33305W        W 5631   6.243  22.546  11.188
33306W        W 5632  21.481   1.483   2.389
33307W        W 5633  32.645  16.346  12.075
33308W        W 5634  36.164  28.446   4.113
33309W        W 5635  23.417  18.315  14.861
33310W        W 5636  33.681  35.115  11.146
33311W        W 5637  34.645  33.855  10.594
33312W        W 5638  43.181  21.455   0.237
33313W        W 5639   2.505  32.641  12.500
33314W        W 5640  22.257   1.553  10.682
33315W        W 5641  25.081  40.565   1.759
33316W        W 5642  10.765  15.541  11.873
33317W        W 5643  28.210  34.950   4.751
33318W        W 5644  40.455  23.317   0.877
33319W        W 5645   0.939  20.353  12.459
33320W        W 5646  29.580  29.194   2.337
33321W        W 5647  17.815  30.353   2.230
33322W        W 5648   6.984  24.024   5.209
33323W        W 5649  36.137  43.899  12.458
33324W        W 5650  28.600  11.630  13.580
33325W        W 5651  17.308  12.538   3.048
33326W        W 5652  17.039  32.063   0.390
33327W        W 5653  29.854  36.458  10.515
33328W        W 5654  20.517  19.591  13.545
33329W        W 5655   7.655  17.071  12.375
33330W        W 5656  15.823  17.898   2.975
33331W        W 5657  31.076  25.613   0.737
33332W        W 5658  39.304  17.226   4.582
33333W        W 5659  36.352  24.537  10.495
33334W        W 5660  31.953  12.377   2.766
33335W        W 5661   0.070  42.744   4.790
33336W        W 5662   8.135  44.245  10.693
33337W        W 5663  42.820  37.307   2.611
33338W        W 5664   8.493  26.530   0.867
33339W        W 5665  31.168  31.112   3.447
33340W        W 5666  44.723  19.247  11.929
33341W        W 5667  25.217   9.305   1.472
33342W        W 5668  42.272   6.869  12.594
33343W        W 5669  17.800  40.961   2.789
33344W        W 5670  27.857  42.525  10.007
33345W        W 5671   9.681  43.562  14.311
33346W        W 5672  23.151  31.627   4.223
33347W        W 5673   2.789   3.322  11.890
33348W        W 5674  33.089  36.518  12.140
33349W        W 5675   8.852   5.210  12.452
33350W        W 5676  10.810  43.030   4.568
33351W        W 5677  11.114  20.576   0.854
33352W        W 5678  14.151  35.076   3.225
33353W        W 5679  30.379  30.559   3.464
33354W        W 5680  30.571  33.384   3.184
33355W        W 5681   4.931   5.663   3.700
33356W        W 5682  39.396  24.595  11.536
33357W        W 5683  35.365   0.505   2.179
33358W        W 5684  44.239  37.485  12.592
33359W        W 5685  11.517  19.795  13.430
33360W        W 5686  19.160   8.131  10.771
33361W        W 5687  38.594  22.549   2.220
33362W        W 5688  11.563  41.490  11.856
33363W        W 5689   3.803  27.525  12.664
33364W        W 5690   9.254  43.692  11.127
33365W        W 5691  36.949  15.122   2.709
33366W        W 5692   0.939  42.293  14.664
33367W        W 5693  17.196  22.646   0.319
33368W        W 5694  27.109  33.430  11.599
33369W        W 5695  25.026  16.523  12.414
33370W        W 5696  13.421  40.134   3.410
33371W        W 5697  29.115  38.518  14.349
33372W        W 5698  39.326  21.868  12.698
33373W        W 5699  26.735  28.572   1.602
33374W        W 5700   0.816  10.181   0.791
33375W        W 5701  25.299  43.071  13.743
33376W        W 5702  37.846   5.086   2.315
33377W        W 5703  19.114  18.090   3.230
33378W        W 5704  30.905  30.420  11.534
33379W        W 5705   5.350  13.161   2.386
33380W        W 5706  42.037  42.254   0.428
33381W        W 5707   0.130  26.608   5.052
33382W        W 5708  20.697  20.285  13.940
33383W        W 5709   9.108  14.145   2.317
33384W        W 5710   1.675  23.713   2.652
33385W        W 5711  40.987  10.214   1.817
33386W        W 5712  22.485   7.071  13.010
33387W        W 5713   9.005  18.407  13.418
33388W        W 5714  42.601   1.329   0.414
33389W        W 5715  29.801  33.449  14.602
33390W        W 5716  30.650  22.891  13.020
33391W        W 5717  13.343  19.701  14.291
33392W        W 5718  23.562   9.367   1.906
33393W        W 5719  34.577   5.190   4.188
33394W        W 5720  31.645  24.638   2.876
33395W        W 5721  41.018   5.853   1.652
33396W        W 5722  10.938  25.208  10.839
33397W        W 5723   3.234  13.772   4.867
33398W        W 5724  38.813  34.885   4.513
33399W        W 5725  39.444   1.613   3.915
33400W        W 5726   9.459   4.001   4.130
33401W        W 5727  28.402  20.167   3.232
33402W        W 5728  31.394  25.008  11.911
33403W        W 5729  36.573   2.444  12.879
33404W        W 5730  12.100  44.484   1.823
33405W        W 5731  39.597  24.019  10.663
33406W        W 5732   5.800   4.580  12.171
33407W        W 5733  24.624  29.435   2.461
33408W        W 5734  41.246  26.742   1.911
33409W        W 5735  10.110  12.243   1.224
33410W        W 5736  19.792  18.745   1.166
33411W        W 5737   1.276   5.911  12.153
33412W        W 5738  37.361  27.065  14.174
33413W        W 5739  15.617  15.360   4.883
33414W        W 5740  38.480  15.071  14.971
33415W        W 5741  40.999  22.029  11.574
33416W        W 5742  27.480  23.266  13.891
33417W        W 5743  23.993  38.425  11.855
33418W        W 5744   2.816  18.141   2.086
33419W        W 5745  27.155   7.331   2.809
33420W        W 5746   4.444  33.064  11.187
33421W        W 5747  10.596  11.932   1.770
33422W        W 5748  44.335  40.846  13.962
33423W        W 5749  17.985  38.291  12.020
33424W        W 5750  16.176  30.141   4.148
33425W        W 5751  29.399  21.702   1.908
33426W        W 5752  21.643  16.567   1.245
33427W        W 5753  30.561  11.652   4.156
33428W        W 5754  22.611   8.402   1.965
33429W        W 5755  40.465  41.699   5.060
33430W        W 5756   1.349  26.878  10.800
33431W        W 5757  20.862  30.745   4.097
33432W        W 5758  31.475  42.523   0.368
33433W        W 5759  35.277  31.559   1.376
33434W        W 5760  38.468  42.759  13.162
33435W        W 5761  36.472  42.261   2.345
33436W        W 5762  31.033  30.354   4.620
33437W        W 5763  22.040  27.725  14.794
33438W        W 5764  36.848  20.298   2.701
33439W        W 5765  23.974  20.798   4.281
33440W        W 5766  32.949  39.515  12.363
33441W        W 5767  39.319   7.756  13.833
33442W        W 5768  31.911  43.633   0.847
33443W        W 5769   1.436   2.432   2.403
33444W        W 5770  43.440   1.807   4.211
33445W        W 5771  38.481  12.261   5.456
33446W        W 5772  32.384  29.433  11.568
33447W        W 5773  19.548  13.564  13.564
33448W        W 5774  10.465  30.498  10.202
33449W        W 5775   1.652  26.379   0.514
33450W        W 5776  37.488  28.894  13.962
33451W        W 5777  15.485  23.098   4.299
33452W        W 5778  17.006  13.387  12.111
33453W        W 5779  35.466  38.106   4.927
33454W        W 5780  25.654   7.656  11.200
33455W        W 5781   8.836  14.520   3.255
33456W        W 5782  42.117  12.254  13.467
33457W        W 5783  20.292  42.412  13.362
33458W        W 5784  31.712   8.435   4.137
33459W        W 5785  43.942  20.055   1.019
33460W        W 5786  21.539  14.064   4.207
33461W        W 5787  22.396   3.277  10.828
33462W        W 5788  30.700  21.011   1.919
33463W        W 5789  34.071   1.370   1.242
33464W        W 5790  25.268  14.270   3.063
33465W        W 5791   0.062  11.823  14.925
33466W        W 5792  25.621   2.320  13.318
33467W        W 5793   9.794  28.955  13.068
33468W        W 5794  42.905  13.804   2.512
33469W        W 5795  25.530  41.456  11.956
33470W        W 5796  43.660   3.183  11.987
33471W        W 5797  28.143  26.510  10.290
33472W        W 5798   1.252  42.046  13.164
33473W        W 5799  12.255  22.811  12.429
33474W        W 5800  19.978  14.352  14.406
33475W        W 5801   8.097  16.938   4.111
33476W        W 5802  17.620  33.565   3.615
33477W        W 5803  42.029  22.524  13.562
33478W        W 5804   0.516  27.474   2.457
33479W        W 5805  20.138  33.175  11.175
33480W        W 5806  21.538  25.239   3.268
33481W        W 5807  21.871  34.118   1.226
33482W        W 5808  20.862  17.717  14.637
33483W        W 5809  16.155  12.384   4.119
33484W        W 5810   6.231   3.441   1.759
33485W        W 5811   0.479  27.501   4.817
33486W        W 5812  44.066  13.817   3.218
33487W        W 5813  26.532  33.547  13.416
33488W        W 5814  41.735  43.440  11.554
33489W        W 5815  10.239  19.421  14.986
33490W        W 5816  31.016  41.552   3.260
33491W        W 5817  25.412   6.181  11.111
33492W        W 5818  14.150  17.195  13.054
33493W        W 5819  26.203  26.711   3.418
33494W        W 5820  35.536  23.162  10.776
33495W        W 5821  39.091  35.615   3.388
33496W        W 5822   6.428  43.069   1.399
33497W        W 5823  35.902  36.019  14.419
33498W        W 5824  22.953   9.839  14.394
33499W        W 5825  35.251  32.648  12.155
33500W        W 5826   5.349  41.340   0.910
33501W        W 5827  35.608  24.196   0.501
33502W        W 5828  23.089  10.258  10.711
33503W        W 5829   0.372  10.149   3.215
33504W        W 5830  21.223   2.862   2.306
33505W        W 5831  13.694  41.472   2.248
33506W        W 5832   6.717  29.056  11.606
33507W        W 5833   9.746  41.283  11.498
33508W        W 5834  33.031  36.422  14.414
33509W        W 5835  19.232  11.388   0.320
33510W        W 5836   3.072  40.861  13.968
33511W        W 5837   0.977  42.527   0.531
33512W        W 5838  19.418  39.652   3.511
33513W        W 5839  31.566  18.556  11.791
33514W        W 5840  27.574  13.702  10.623
33515W        W 5841   9.248  38.165   3.340
33516W        W 5842  42.513  32.825  14.373
33517W        W 5843   6.231  32.656  12.586
33518W        W 5844  37.611   0.623  13.485
33519W        W 5845  14.125  24.878  12.391
33520W        W 5846  44.780  44.069  14.399
33521W        W 5847  39.389  16.859   4.933
33522W        W 5848  41.244  44.575   3.779
33523W        W 5849  38.967  15.239  13.904
33524W        W 5850  43.980  39.805   4.223
33525W        W 5851  32.148  19.976  14.209
33526W        W 5852  33.696   9.850   0.428
33527W        W 5853  44.482  11.123  12.790
33528W        W 5854  41.199  19.818  14.292
33529W        W 5855  36.461  43.841   2.364
33530W        W 5856  44.688  19.529  14.800
33531W        W 5857  37.437   3.828  13.910
33532W        W 5858  34.977  40.432   4.097
33533W        W 5859  36.288  27.536   2.695
33534W        W 5860  33.860  21.719  12.886
33535W        W 5861  22.403  11.911  10.199
33536W        W 5862  43.976   3.218  11.552
33537W        W 5863  14.309   1.902   0.011
33538W        W 5864  14.159  10.857  11.077
33539W        W 5865  12.274  26.487   4.157
33540W        W 5866   4.828  44.126  14.405
33541W        W 5867  31.344   8.222  12.139
33542W        W 5868  31.102  21.788  12.388
33543W        W 5869  37.639   4.345   0.049
33544W        W 5870  34.313   4.674   3.627
33545W        W 5871  39.567   8.799   3.546
33546W        W 5872  27.499   5.472  14.035
33547W        W 5873   9.368  16.081  10.630
33548W        W 5874   1.910   0.403  12.835
33549W        W 5875   2.551  20.080  12.069
33550W        W 5876  37.533  29.700   4.954
33551W        W 5877   7.037  37.821  11.308
33552W        W 5878  10.201  39.560  14.310
33553W        W 5879   3.972   4.812   3.714
33554W        W 5880  38.168  37.559   4.309
33555W        W 5881  24.130  16.876  11.575
33556W        W 5882  16.016  17.839   0.530
33557W        W 5883   2.279  34.174  14.419
33558W        W 5884  32.052  44.992   3.612
33559W        W 5885  25.757  30.847  14.236
33560W        W 5886  20.236  44.662   1.818
33561W        W 5887  34.745  41.555  10.059
33562W        W 5888  12.118  33.024  11.436
33563W        W 5889  13.609  39.174  10.609
33564W        W 5890   2.356  38.490  13.077
33565W        W 5891  35.287  12.403   4.141
33566W        W 5892  15.218  12.689  10.429
33567W        W 5893   8.822  23.477   2.559
33568W        W 5894  28.630  34.449  14.465
33569W        W 5895   8.957  12.121   0.416
33570W        W 5896   1.527  18.753   0.505
33571W        W 5897  30.019  18.231   0.707
33572W        W 5898  43.405  35.382   3.441
33573W        W 5899  24.633  15.759   0.847
33574W        W 5900  25.136  30.549  13.747
33575W        W 5901  24.162  34.917   3.678
33576W        W 5902   3.999  24.772  13.315
33577W        W 5903   7.111  42.489   1.644
33578W        W 5904  29.940  30.179  12.612
33579W        W 5905  35.149  20.632  10.668
33580W        W 5906   2.183  43.380   4.541
33581W        W 5907  36.669  31.617   2.756
33582W        W 5908  26.249  40.589  14.518
33583W        W 5909  42.828  41.292  14.075
33584W        W 5910  34.897  25.211  10.433
33585W        W 5911  44.163  25.709   0.365
33586W        W 5912  34.336   4.286  10.500
33587W        W 5913  43.810  34.467  14.546
33588W        W 5914   7.284  29.315  13.791
33589W        W 5915  11.636  31.013  14.782
33590W        W 5916   3.403   5.397  12.548
33591W        W 5917  24.038  17.220  10.909
33592W        W 5918  40.570  17.664   3.713
33593W        W 5919   7.945   6.915  13.472
33594W        W 5920  20.720  26.987  14.958
33595W        W 5921  14.717  36.667   4.521
33596W        W 5922  41.475  14.819   0.789
33597W        W 5923   7.947  10.643  13.572
33598W        W 5924  23.989  19.168  14.781
33599W        W 5925   9.666   9.387   0.271
33600W        W 5926  38.932  12.051   4.661
33601W        W 5927  16.640  23.213  14.918
33602W        W 5928  40.549   1.453  11.401
33603W        W 5929  15.235  10.328  12.497
33604W        W 5930  25.722  30.548  12.007
33605W        W 5931  14.836  37.344  11.518
33606W        W 5932   4.628  20.102   4.710
33607W        W 5933  28.977   0.864  13.896
33608W        W 5934   2.746  42.958   0.400
33609W        W 5935  20.317  23.290  13.864
33610W        W 5936  31.114  44.335   0.440
33611W        W 5937   2.189   9.678   3.255
33612W        W 5938  12.280  18.851   4.315
33613W        W 5939   4.060  40.778   1.825
33614W        W 5940  27.062  10.840   3.850
33615W        W 5941  19.237   9.262   1.160
33616W        W 5942   4.406  13.097   3.658
33617W        W 5943  21.249   1.445  11.170
33618W        W 5944  41.782  41.827  12.596
33619W        W 5945  44.311  38.523  14.301
33620W        W 5946  18.976  38.762  13.026
33621W        W 5947  26.414  24.127   2.848
33622W        W 5948  19.223  30.228  13.888
33623W        W 5949   6.234  44.322  11.952
33624W        W 5950  28.410   6.271   2.789
33625W        W 5951   9.604  24.671  11.956
33626W        W 5952  16.452  16.489  11.395
33627W        W 5953  22.439   9.362  13.490
33628W        W 5954  10.450   5.512  10.702
33629W        W 5955  24.638  37.799   0.736
33630W        W 5956  40.408  42.313   1.451
33631W        W 5957   6.867   3.201   4.686
33632W        W 5958  38.988  10.900   5.187
33633W        W 5959  31.106  38.208   2.049
33634W        W 5960  19.022  40.927  11.949
33635W        W 5961  25.313  27.479  13.948
33636W        W 5962  43.752   2.505   2.815
33637W        W 5963  10.093  30.974  11.540
33638W        W 5964  40.174  11.277  13.975
33639W        W 5965  21.564   6.694   2.675
33640W        W 5966  25.888  38.894  12.842
33641W        W 5967  27.888  17.214   1.388
33642W        W 5968  12.773  14.357   3.237
33643W        W 5969   9.419   0.446  13.412
33644W        W 5970  28.147  23.645  12.757
33645W        W 5971  21.680  25.736  11.589
33646W        W 5972  36.415   2.332   0.667
33647W        W 5973  11.275  33.326  14.543
33648W        W 5974   1.458  44.261  11.689
33649W        W 5975   4.410  39.971   2.151
33650W        W 5976   8.853  32.969   4.842
33651W        W 5977   5.018  20.977   0.874
33652W        W 5978  17.644   3.516   0.146
33653W        W 5979  38.672  39.963  12.115
33654W        W 5980  22.750  18.804   3.743
33655W        W 5981  24.218   1.852  11.068
33656W        W 5982  12.186  19.688  10.719
33657W        W 5983  19.335  41.628  10.596
33658W        W 5984  34.393  36.579   4.653
33659W        W 5985  36.544  36.969   0.934
33660W        W 5986  13.229  11.816   4.084
33661W        W 5987  41.750  30.993   3.854
33662W        W 5988  34.948  13.122  11.597
33663W        W 5989  43.442   8.327  13.977
33664W        W 5990  41.270   7.349  12.078
33665W        W 5991  24.309   6.270  13.051
33666W        W 5992  24.182   8.302   1.835
33667W        W 5993   2.899  11.624   0.660
33668W        W 5994  23.484  34.914   2.708
33669W        W 5995  24.640   7.351   2.971
33670W        W 5996  38.626  10.457   4.180
33671W        W 5997  41.501   3.487  13.032
33672W        W 5998  29.914  17.246   0.315
33673W        W 5999  36.894  14.333   0.445
33674W        W 6000  29.457  13.771   3.225
33675W        W 6001  16.604  14.154  12.622
33676W        W 6002  33.353  32.679   1.839
33677W        W 6003   0.188   3.067  11.483
33678W        W 6004  24.290   7.104  11.999
33679W        W 6005  30.397  31.387  10.976
33680W        W 6006  19.282  22.449  12.861
33681W        W 6007  29.869   2.337   2.824
33682W        W 6008  33.423  16.061   2.185
33683W        W 6009  12.224  18.444  11.154
33684W        W 6010  29.521  34.659  14.972
33685W        W 6011  11.707  29.437  13.960
33686W        W 6012  42.127   5.614  11.207
33687W        W 6013  30.535  32.392   4.153
33688W        W 6014  12.609  31.497   2.637
33689W        W 6015   7.333  13.072  11.530
33690W        W 6016  23.705  12.886   1.737
33691W        W 6017  20.092   8.798  13.775
33692W        W 6018  15.150   9.098  14.446
33693W        W 6019  22.557  24.432  14.867
33694W        W 6020  26.743  21.668  13.447
33695W        W 6021  34.094  43.173   0.399
33696W        W 6022  28.855  12.117  11.465
33697W        W 6023   8.370  31.636  14.781
33698W        W 6024   9.263  11.747  11.419
33699W        W 6025  40.114  10.306  14.989
33700W        W 6026  19.676  24.929  13.473
33701W        W 6027  10.154   2.886   1.913
33702W        W 6028  13.262  32.998  10.725
33703W        W 6029  10.204  26.133  12.935
33704W        W 6030  44.720  28.988  10.855
33705W        W 6031  16.210  23.720  11.552
33706W        W 6032   0.289  13.391   2.345
33707W        W 6033  23.234  38.851  12.037
33708W        W 6034  16.601  33.148   2.876
33709W        W 6035   3.224  25.071   3.129
33710W        W 6036  37.415  31.875  12.056
33711W        W 6037   2.325   3.000  13.286
33712W        W 6038  29.209  26.399   3.738
33713W        W 6039  14.216  21.049   0.484
33714W        W 6040  10.224  31.098  14.355
33715W        W 6041  15.067  15.056  14.255
33716W        W 6042   3.593  15.664  10.276
33717W        W 6043  26.010  36.419  11.604
33718W        W 6044  11.902  44.220  14.474
33719W        W 6045  29.837  23.038   0.869
33720W        W 6046  20.810  37.819   1.396
33721W        W 6047  30.002   7.371  13.998
33722W        W 6048  12.812  16.651  12.056
33723W        W 6049  33.406  41.994  13.861
33724W        W 6050   9.620  16.245   1.299
33725W        W 6051  12.359   5.925  13.954
33726W        W 6052  30.556  21.513  10.590
33727W        W 6053   2.939  17.976   3.106
33728W        W 6054  31.112  20.183  12.045
33729W        W 6055   2.653   9.398   2.480
33730W        W 6056   0.904  44.771  12.493
33731W        W 6057  37.807   9.885   3.174
33732W        W 6058  10.707   6.241  10.841
33733W        W 6059  19.126   8.634   1.893
33734W        W 6060  24.750  38.560   3.575
33735W        W 6061  25.967  38.965  13.758
33736W        W 6062  17.240  10.800  14.816
33737W        W 6063   0.983  20.034  13.341
33738W        W 6064   6.582  11.155   0.509
33739W        W 6065   1.313  39.903   4.749
33740W        W 6066  28.260   7.517   0.764
33741W        W 6067  36.003  34.347  12.320
33742W        W 6068  11.471  31.029  10.535
33743W        W 6069  40.969  38.493  11.822
33744W        W 6070  26.357  29.437   0.030
33745W        W 6071  34.049  14.205  12.092
33746W        W 6072  22.439  39.365   5.038
33747W        W 6073   4.636   4.781  12.425
33748W        W 6074  15.118   3.200   3.187
33749W        W 6075  44.959  31.758  13.297
33750W        W 6076   5.672   9.153   2.765
33751W        W 6077  19.173  12.874  13.097
33752W        W 6078  44.525   5.139  14.794
33753W        W 6079  31.533  40.066   2.391
33754W        W 6080  33.998   8.758   1.134
33755W        W 6081  26.084  16.107  14.454
33756W        W 6082  29.221  41.141  11.048
33757W        W 6083  18.052  15.378  11.425
33758W        W 6084  28.236   6.450  14.301
33759W        W 6085   4.064  18.745   3.161
33760W        W 6086  21.502  39.627   1.445
33761W        W 6087   7.157  35.874   1.947
33762W        W 6088  15.801   4.209   4.330
33763W        W 6089  21.078   4.171  10.636
33764W        W 6090  33.107   6.256  13.529
33765W        W 6091   3.241  39.025  11.887
33766W        W 6092  22.128  37.886   1.910
33767W        W 6093  40.900  30.981   1.998
33768W        W 6094  42.506  37.600   1.392
33769W        W 6095  26.404  25.849  14.686
33770W        W 6096  27.135  11.806   4.897
33771W        W 6097  16.775  43.420   4.500
33772W        W 6098   4.364  17.409  14.546
33773W        W 6099  43.546  41.516   4.918
33774W        W 6100  28.476  15.268  14.517
33775W        W 6101  27.934  35.602   3.902
33776W        W 6102  40.469  37.479   4.224
33777W        W 6103  34.709  38.918  12.629
33778W        W 6104  29.532   2.243  12.884
33779W        W 6105  27.968   1.813   0.700
33780W        W 6106  36.446  19.481   3.553
33781W        W 6107  32.350  11.573   2.839
33782W        W 6108  43.022  29.161  12.902
33783W        W 6109  31.941  39.766  11.147
33784W        W 6110   1.032   0.777   4.140
33785W        W 6111  32.575  32.828   2.701
33786W        W 6112  35.735  25.125   3.802
33787W        W 6113  18.309  38.775  14.889
33788W        W 6114   0.024  20.772  11.591
33789W        W 6115  32.005  22.935   2.790
33790W        W 6116  44.973  10.174   1.875
33791W        W 6117   7.368   2.784  14.382
33792W        W 6118  36.065  37.812   1.196
33793W        W 6119  39.398   3.873   1.451
33794W        W 6120  17.537  41.517  13.025
33795W        W 6121  41.802  44.903  12.664
33796W        W 6122  17.471  37.119  11.264
33797W        W 6123  12.067   6.880  10.412
33798W        W 6124  22.061  25.996   4.924
33799W        W 6125  13.177  34.477  10.653
33800W        W 6126  27.386  34.914   3.596
33801W        W 6127  37.527  42.593  14.619
33802W        W 6128  34.839  38.827   0.298
33803W        W 6129  43.739  37.076   0.454
33804W        W 6130  23.686  33.037  14.375
33805W        W 6131  19.622  40.050   3.800
33806W        W 6132  41.500  21.123   0.267
33807W        W 6133  25.228  35.668  13.330
33808W        W 6134  11.302  30.509  10.642
33809W        W 6135  31.577  23.222   2.803
33810W        W 6136  10.878   4.504   1.043
33811W        W 6137   2.424  22.678   1.371
33812W        W 6138  43.817  33.901  11.508
33813W        W 6139  35.826  44.514  13.869
33814W        W 6140   5.054   1.291   0.828
33815W        W 6141  11.063  11.580  13.920
33816W        W 6142  26.519  16.219  13.562
33817W        W 6143   4.930  43.834   4.595
33818W        W 6144   4.034  32.018  14.698
33819W        W 6145  10.362  34.993  13.774
33820W        W 6146  23.584   6.873  11.230
33821W        W 6147  29.211   0.124   4.735
33822W        W 6148  24.005   6.784   1.908
33823W        W 6149  22.653  36.525   3.274
33824W        W 6150  31.910  23.409   4.122
33825W        W 6151  10.728  31.665  12.889
33826W        W 6152   4.910  20.016  14.408
33827W        W 6153  24.073  11.068  14.888
33828W        W 6154   2.404  43.522   2.317
33829W        W 6155   7.340   1.213   0.199
33830W        W 6156  33.295  34.582   3.295
33831W        W 6157  33.497  19.153   2.206
33832W        W 6158   0.842   2.990  13.518
33833W        W 6159   0.946  30.518   4.517
33834W        W 6160  36.444  44.978  10.534
33835W        W 6161  33.346  15.290   1.936
33836W        W 6162   3.671  36.872   2.602
33837W        W 6163  25.400  24.115   3.665
33838W        W 6164  40.303  35.236   3.738
33839W        W 6165   4.387  20.859   1.205
33840W        W 6166  40.827  24.587   4.215
33841W        W 6167  33.333   7.960  10.561
33842W        W 6168  24.044  37.970   0.007
33843W        W 6169  41.514  30.534   0.912
33844W        W 6170  27.014  19.089   3.444
33845W        W 6171  41.257  30.449  13.492
33846W        W 6172  27.583  30.412  10.651
33847W        W 6173  38.178  15.865   1.572
33848W        W 6174  13.328   3.648  13.494
33849W        W 6175  43.768  40.570  11.120
33850W        W 6176   1.911  30.668  13.320
33851W        W 6177  30.164  33.058   1.350
33852W        W 6178  44.501  27.241   1.921
33853W        W 6179   6.813  20.192   0.702
33854W        W 6180  21.086  43.442   2.373
33855W        W 6181  31.762  40.535   0.521
33856W        W 6182  43.931  43.532   2.189
33857W        W 6183  11.622   4.412   3.923
33858W        W 6184   1.488   1.413   4.474
33859W        W 6185  42.562  30.022  12.124
33860W        W 6186  39.793   0.435   1.763
33861W        W 6187   7.215  16.180  14.740
33862W        W 6188  34.858  36.711   1.691
33863W        W 6189  22.563   0.495  12.568
33864W        W 6190  39.444   6.837  10.629
33865W        W 6191  33.847   6.135  12.861
33866W        W 6192   4.022  39.934   3.143
33867W        W 6193  22.773  30.049  10.475
33868W        W 6194   0.836  42.023   3.686
33869W        W 6195  35.505  24.242  11.916
33870W        W 6196  20.171   0.822  12.463
33871W        W 6197  12.896   0.876  11.778
33872W        W 6198  17.141  28.047   0.896
33873W        W 6199  27.684  25.645   4.906
33874W        W 6200  38.410  32.591   3.735
33875W        W 6201  13.548  28.725   2.821
33876W        W 6202  35.089   8.256   4.634
33877W        W 6203  29.983  10.876  13.839
33878W        W 6204  22.103  36.670   1.265
33879W        W 6205  19.996   5.623   1.938
33880W        W 6206   5.201   0.280   0.878
33881W        W 6207  34.371  41.475  12.534
33882W        W 6208  44.068  37.916  12.286
33883W        W 6209  28.401  25.274  13.866
33884W        W 6210  19.788  41.464   1.299
33885W        W 6211  26.674  12.224  10.587
33886W        W 6212  40.845  27.737  10.515
33887W        W 6213  17.234  38.035  10.931
33888W        W 6214  26.983  28.293   4.571
33889W        W 6215  41.746  41.052   4.458
33890W        W 6216  34.857  16.783  11.558
33891W        W 6217  26.586  16.208   4.760
33892W        W 6218  15.350  20.694   4.289
33893W        W 6219   9.828  11.060  12.887
33894W        W 6220   3.346   9.280   4.742
33895W        W 6221  20.632   7.062   4.572
33896W        W 6222  11.060   6.882  13.961
33897W        W 6223   5.419  17.813  11.651
33898W        W 6224   0.232  32.925   0.730
33899W        W 6225  37.816   7.153   5.072
33900W        W 6226  34.372  25.025   2.098
33901W        W 6227  14.548   9.002  10.429
33902W        W 6228  12.186  25.991  14.938
33903W        W 6229  20.740  23.084  13.011
33904W        W 6230  29.966  27.023   0.932
33905W        W 6231   8.818  34.590  14.326
33906W        W 6232  39.756  16.975  12.103
33907W        W 6233  31.403  27.685   1.218
33908W        W 6234   1.651  43.235   4.020
33909W        W 6235  10.920   1.585   3.221
33910W        W 6236  36.376  35.881   9.834
33911W        W 6237  17.860  11.813  12.532
33912W        W 6238  26.141   0.238  12.526
33913W        W 6239  36.959  12.223  13.859
33914W        W 6240   4.317  35.684  11.099
33915W        W 6241  25.682  24.022  13.108
33916W        W 6242  15.737  16.862   0.754
33917W        W 6243   4.774  22.666   3.261
33918W        W 6244  13.771  42.885   0.941
33919W        W 6245   3.225  11.602  11.045
33920W        W 6246   6.531  25.158   2.116
33921W        W 6247   1.879  41.540  13.518
33922W        W 6248  15.205  16.844  11.936
33923W        W 6249  33.067  38.825  14.008
33924W        W 6250  31.957  23.785  11.980
33925W        W 6251  28.706  41.293   2.443
33926W        W 6252  11.736  36.624   2.895
33927W        W 6253  39.355  39.563   1.141
33928W        W 6254  37.885  17.612  10.615
33929W        W 6255   7.579  15.142  14.944
33930W        W 6256   8.183   2.323  12.620
33931W        W 6257  30.819  40.369   4.495
33932W        W 6258  17.615   4.997   2.640
33933W        W 6259  41.422  26.155  12.130
33934W        W 6260  42.634   0.006   3.043
33935W        W 6261  29.018  33.977   1.853
33936W        W 6262  22.449   4.510  10.339
33937W        W 6263  32.099  10.571  10.270
33938W        W 6264  11.935  14.377   1.353
33939W        W 6265  38.878  12.261  10.756
33940W        W 6266  44.046  23.243  11.019
33941W        W 6267  16.140  22.021   2.700
33942W        W 6268   3.858  13.806  12.471
33943W        W 6269  31.402  22.264   1.395
33944W        W 6270  11.371  18.085  11.523
33945W        W 6271  43.201  12.171  12.976
33946W        W 6272   7.388   8.710   3.544
33947W        W 6273   1.784  43.310   0.751
33948W        W 6274   4.747  15.238   3.083
33949W        W 6275   8.555  13.786   2.096
33950W        W 6276  13.160   5.541   2.921
33951W        W 6277  30.567  20.488  14.485
33952W        W 6278   5.490  44.379  12.978
33953W        W 6279  31.505  40.024   3.736
33954W        W 6280  32.933   0.298  11.030
33955W        W 6281  13.651  39.337  14.060
33956W        W 6282  17.232  38.771  11.803
33957W        W 6283  19.012   4.120   1.956
33958W        W 6284  31.027  16.138   0.967
33959W        W 6285  15.787  35.356  12.290
33960W        W 6286   8.168  24.539  12.559
33961W        W 6287  11.210   2.915   3.243
33962W        W 6288  22.937   2.806  11.070
33963W        W 6289  27.083  26.627  10.683
33964W        W 6290  16.283  31.025  14.943
33965W        W 6291  13.412  35.916   4.563
33966W        W 6292  26.509  26.921   4.583
33967W        W 6293  35.041  36.429  10.252
33968W        W 6294  25.742   0.911  11.463
33969W        W 6295   2.794  41.604  13.501
33970W        W 6296  26.706  14.277   0.402
33971W        W 6297  33.557  26.652   1.486
33972W        W 6298   9.207  11.279   3.669
33973W        W 6299  38.036   1.460   3.743
33974W        W 6300   6.107  18.369   9.924
33975W        W 6301  43.984  34.193  14.111
33976W        W 6302  42.717  42.534   4.089
33977W        W 6303  40.882  28.433   4.727
33978W        W 6304  16.416  27.356   4.335
33979W        W 6305  31.940  32.426  12.827
33980W        W 6306  23.179  44.057  10.980
33981W        W 6307  41.791  24.153   3.133
33982W        W 6308  29.261  17.515   2.199
33983W        W 6309  18.028  18.660   1.478
33984W        W 6310   8.807  39.093   2.393
33985W        W 6311  28.951  33.982   0.845
33986W        W 6312   7.401  17.174   2.692
33987W        W 6313  34.118  39.991  11.123
33988W        W 6314  24.449  16.952  10.228
33989W        W 6315   3.954  10.333   1.909
33990W        W 6316  27.016  25.398  13.462
33991W        W 6317  33.952  42.674   2.805
33992W        W 6318  36.522  41.769   2.600
33993W        W 6319  10.190  44.758   4.139
33994W        W 6320  41.531  42.332   4.634
33995W        W 6321  25.655  33.156   0.400
33996W        W 6322  13.274   3.753   2.689
33997W        W 6323  41.896  15.229  11.452
33998W        W 6324  28.247  28.435   1.969
33999W        W 6325   6.905  11.286   3.290
34000W        W 6326  16.234  27.666   4.710
34001W        W 6327  29.216  25.609  12.407
34002W        W 6328  28.510   2.715   4.562
34003W        W 6329  37.520  44.895  13.332
34004W        W 6330  10.128  11.337   0.346
34005W        W 6331  37.542   4.150   1.127
34006W        W 6332   4.453  42.376  13.566
34007W        W 6333  40.758  34.013   2.242
34008W        W 6334   0.077   1.835  12.878
34009W        W 6335  42.713  40.010  12.325
34010W        W 6336  44.032  44.350   1.317
34011W        W 6337  36.891  19.677   0.001
34012W        W 6338   5.426  43.759   4.462
34013W        W 6339   5.802   3.908   0.349
34014W        W 6340  10.201  34.523   3.196
34015W        W 6341  27.442   5.065  12.702
34016W        W 6342  42.465  14.612   1.828
34017W        W 6343  20.529  38.447  12.472
34018W        W 6344  41.545  27.496   3.633
34019W        W 6345  13.248  16.838   4.027
34020W        W 6346  40.967  20.239   0.066
34021W        W 6347   6.851   0.419   4.648
34022W        W 6348   9.955  43.950   0.929
34023W        W 6349  28.988  21.654   0.764
34024W        W 6350   3.197  13.036  11.626
34025W        W 6351   2.334  27.045   0.481
34026W        W 6352  10.570  20.182   3.716
34027W        W 6353  12.654  12.174  11.045
34028W        W 6354  27.493  28.934   3.723
34029W        W 6355  29.670  28.122   9.760
34030W        W 6356  15.663  41.325   1.681
34031W        W 6357  40.965  31.128  12.017
34032W        W 6358  43.520  27.601  10.560
34033W        W 6359   5.091  12.566  11.161
34034W        W 6360   0.899   0.454  10.619
34035W        W 6361  31.834  28.204   3.679
34036W        W 6362  12.045  19.811  12.392
34037W        W 6363  40.776  18.734  11.202
34038W        W 6364  29.428   2.979  14.914
34039W        W 6365  12.302  44.540   0.410
34040W        W 6366  30.550  40.729   1.865
34041W        W 6367  44.285  28.518   1.392
34042W        W 6368  20.085   1.373   3.850
34043W        W 6369  20.313  19.555  14.426
34044W        W 6370  26.076  43.655   2.892
34045W        W 6371  38.419  29.300   0.945
34046W        W 6372  13.010  35.652  11.116
34047W        W 6373  18.646   5.744   0.919
34048W        W 6374  13.080  33.448   4.629
34049W        W 6375  40.298  19.154   0.450
34050W        W 6376  16.835  36.341   4.847
34051W        W 6377  14.967  16.682   3.334
34052W        W 6378  32.948  41.424  12.677
34053W        W 6379  20.537  13.282  12.072
34054W        W 6380  32.143  37.376  13.978
34055W        W 6381  17.429   0.937  13.741
34056W        W 6382  36.348  13.750   3.909
34057W        W 6383   3.458  36.974   3.085
34058W        W 6384  40.762  36.055   0.268
34059W        W 6385  30.465  10.252   0.037
34060W        W 6386  30.941  31.008  11.292
34061W        W 6387  16.534  29.281   2.443
34062W        W 6388  18.894  39.635   1.264
34063W        W 6389  33.817   8.016   5.200
34064W        W 6390   4.447  26.644   0.398
34065W        W 6391  41.442  24.021  13.289
34066W        W 6392  16.084  31.478   4.404
34067W        W 6393  20.110  19.668   2.313
34068W        W 6394  25.505   2.170  13.817
34069W        W 6395   7.839   2.785   0.723
34070W        W 6396  32.081  43.277   1.207
34071W        W 6397  10.727  44.771  14.926
34072W        W 6398  21.839  20.536   0.480
34073W        W 6399  14.577   3.245   3.106
34074W        W 6400  14.308  20.265   4.655
34075W        W 6401  18.747  11.676   2.398
34076W        W 6402  28.448  14.684  12.053
34077W        W 6403  19.627  31.567  14.986
34078W        W 6404  20.512  31.147  11.881
34079W        W 6405  43.688   4.407  12.399
34080W        W 6406   4.255  35.592   0.776
34081W        W 6407   1.645   7.575  11.675
34082W        W 6408   2.625   5.476  10.925
34083W        W 6409  30.707  20.960  14.331
34084W        W 6410  35.563  21.333   3.399
34085W        W 6411  21.056  10.111  10.632
34086W        W 6412  20.518   4.746   4.995
34087W        W 6413  20.846   0.457   3.160
34088W        W 6414  31.859  26.000   0.923
34089W        W 6415  44.189  40.312  12.800
34090W        W 6416  44.983   2.166  13.875
34091W        W 6417  12.087  40.920   0.275
34092W        W 6418   1.116   6.694   3.606
34093W        W 6419  21.282   5.247   3.957
34094W        W 6420  14.296  33.328   1.445
34095W        W 6421  39.006  25.408   1.798
34096W        W 6422  26.239  10.841  11.729
34097W        W 6423  30.562  15.255   2.703
34098W        W 6424   2.482  34.939   2.249
34099W        W 6425  16.584  27.309   3.849
34100W        W 6426  19.547  12.824  14.787
34101W        W 6427  12.131  24.360  12.531
34102W        W 6428  42.473  40.937   3.247
34103W        W 6429  11.075   0.489  11.556
34104W        W 6430  31.545  17.744   3.695
34105W        W 6431  38.023  26.117   1.216
34106W        W 6432  33.388  35.618   2.478
34107W        W 6433  31.693  43.838   0.421
34108W        W 6434  16.824  20.451   0.961
34109W        W 6435  37.216  32.542   1.291
34110W        W 6436  17.592   3.214   1.166
34111W        W 6437   4.130  22.923  10.925
34112W        W 6438  12.344  29.279  14.886
34113W        W 6439  34.677  24.975   1.211
34114W        W 6440  43.856  29.184   2.562
34115W        W 6441   8.267  31.980  12.181
34116W        W 6442  15.265  23.096   2.351
34117W        W 6443  22.562   7.871   4.653
34118W        W 6444   4.736  35.521  12.378
34119W        W 6445  33.609   6.636   3.284
34120W        W 6446  12.340  26.971   2.339
34121W        W 6447  15.200  12.362   3.567
34122W        W 6448  44.993  15.214   2.645
34123W        W 6449  18.168  44.746   3.322
34124W        W 6450  31.593  41.857  14.142
34125W        W 6451  28.454  43.406   3.366
34126W        W 6452  28.255  38.009  13.132
34127W        W 6453  12.418   0.925  11.979
34128W        W 6454   4.269  18.728   2.670
34129W        W 6455  27.718  11.277  11.686
34130W        W 6456  29.506  14.986   0.958
34131W        W 6457  24.697  23.445   3.859
34132W        W 6458  44.862  22.838   3.725
34133W        W 6459  29.026  17.127  13.415
34134W        W 6460  42.036  25.170   0.800
34135W        W 6461   3.683   5.283   0.728
34136W        W 6462  16.177  23.756   0.274
34137W        W 6463  16.190   8.596   0.474
34138W        W 6464  11.348  37.121  13.761
34139W        W 6465  24.093  39.100   5.004
34140W        W 6466  38.068  36.845   0.567
34141W        W 6467  33.336  24.812  14.689
34142W        W 6468   2.748  13.734  10.573
34143W        W 6469  13.850  43.011  10.400
34144W        W 6470  20.858  18.599  14.306
34145W        W 6471  23.770  20.027   2.218
34146W        W 6472  34.931  16.742   2.195
34147W        W 6473  21.629  12.434  10.854
34148W        W 6474  12.189  21.307  14.214
34149W        W 6475  13.250  33.495   2.754
34150W        W 6476  23.672  24.417   1.236
34151W        W 6477  18.603   8.976  10.332
34152W        W 6478  25.760  10.404   4.630
34153W        W 6479  16.365  25.921   4.323
34154W        W 6480  21.500  31.204   1.389
34155W        W 6481  18.948  37.798   5.010
34156W        W 6482  34.771   0.777  11.443
34157W        W 6483  39.002  31.040   4.999
34158W        W 6484   3.326  33.435  12.074
34159W        W 6485  29.352  22.489   3.755
34160W        W 6486  23.680  13.069  11.457
34161W        W 6487   2.277  25.133   0.938
34162W        W 6488  37.145  10.856  11.335
34163W        W 6489  27.466  37.439  11.939
34164W        W 6490  13.546  15.252   4.644
34165W        W 6491  39.563  25.185  14.207
34166W        W 6492  42.803  44.931   4.363
34167W        W 6493  28.383   1.124  13.913
34168W        W 6494  23.098   5.282   4.970
34169W        W 6495  20.170  15.605   2.331
34170W        W 6496  37.406  18.813   1.472
34171W        W 6497   2.393  17.756  14.356
34172W        W 6498  32.828  33.493  14.313
34173W        W 6499  24.315  10.172  10.674
34174W        W 6500  43.926  13.573   0.794
34175W        W 6501   9.694   2.191   2.316
34176W        W 6502  13.581   2.972  11.562
34177W        W 6503  23.281  15.675   9.869
34178W        W 6504   3.350   6.672  11.427
34179W        W 6505  30.454  34.623   0.697
34180W        W 6506   9.678  19.641   2.144
34181W        W 6507  41.472  25.550  10.597
34182W        W 6508  32.989  29.855   2.311
34183W        W 6509   2.195  38.131  10.407
34184W        W 6510  12.839  28.144   4.699
34185W        W 6511  23.543  30.509  14.031
34186W        W 6512  43.205  15.529   0.098
34187W        W 6513   1.136  27.889  14.717
34188W        W 6514  10.847  12.095   2.203
34189W        W 6515  24.046   1.229   4.947
34190W        W 6516  44.678  43.819   2.263
34191W        W 6517   6.929  25.585  12.730
34192W        W 6518  15.229  30.599   3.810
34193W        W 6519  28.709  36.498  12.006
34194W        W 6520   3.146  30.543  14.983
34195W        W 6521  41.947  28.009   4.094
34196W        W 6522  40.472  36.098  13.559
34197W        W 6523  16.333   8.225  11.131
34198W        W 6524  44.444  16.335   4.694
34199W        W 6525   3.163   9.393  11.524
34200W        W 6526  32.027  37.760   5.020
34201W        W 6527  26.110  41.832  12.535
34202W        W 6528   3.214  28.655   2.848
34203W        W 6529  14.445  21.312  10.940
34204W        W 6530  24.473   9.755  14.073
34205W        W 6531   6.865  38.133   0.995
34206W        W 6532   7.160   0.228  10.712
34207W        W 6533  10.358  24.035  13.584
34208W        W 6534  24.225  27.739  11.206
34209W        W 6535  40.968  11.910   1.917
34210W        W 6536  35.314   2.095  12.894
34211W        W 6537   9.347  35.369  11.566
34212W        W 6538  36.309  41.060  14.249
34213W        W 6539  25.410  17.162   4.145
34214W        W 6540   2.087  20.216   2.668
34215W        W 6541  13.290  21.594  10.804
34216W        W 6542   3.358  23.665   0.948
34217W        W 6543  11.903  12.155   0.861
34218W        W 6544  28.007  16.079  14.553
34219W        W 6545  32.226  14.871   3.091
34220W        W 6546   3.959  30.998  14.913
34221W        W 6547  35.067  23.414  13.387
34222W        W 6548   2.853   7.218   0.931
34223W        W 6549   6.163   9.301   0.108
34224W        W 6550  32.221  26.379   1.792
34225W        W 6551  17.087  30.340   1.853
34226W        W 6552  15.332   5.310   2.675
34227W        W 6553  18.124  30.741   1.143
34228W        W 6554  31.939   4.461   3.845
34229W        W 6555   5.195  24.205   0.783
34230W        W 6556   1.390  38.247  12.940
34231W        W 6557  26.993  26.715  11.200
34232W        W 6558  39.061   3.095  11.152
34233W        W 6559  26.228   2.414  12.254
34234W        W 6560  44.262  22.562   4.530
34235W        W 6561   6.338   1.848   0.573
34236W        W 6562   2.545  40.012  12.863
34237W        W 6563  38.299  19.610   1.393
34238W        W 6564  18.611  29.614   0.232
34239W        W 6565  44.836  10.152   0.480
34240W        W 6566  21.082  29.470  11.167
34241W        W 6567  20.775  10.254  14.707
34242W        W 6568  27.074  20.541  12.869
34243W        W 6569  36.213  20.262  14.993
34244W        W 6570  44.772   0.539   4.491
34245W        W 6571   4.863  22.309  11.849
34246W        W 6572  11.994  31.977   2.314
34247W        W 6573   6.888  38.898   4.571
34248W        W 6574  15.158  28.219   2.446
34249W        W 6575   8.013   3.319   2.486
34250W        W 6576   9.769  20.095   4.794
34251W        W 6577  39.948  40.036  11.063
34252W        W 6578  27.237  36.526  12.427
34253W        W 6579  30.741  34.765  11.377
34254W        W 6580  31.386  18.523  13.856
34255W        W 6581  17.659  10.596  13.011
34256W        W 6582   4.986  17.538  11.959
34257W        W 6583  20.603  36.843  12.511
34258W        W 6584  37.463  42.275   2.256
34259W        W 6585  15.493  44.789   2.412
34260W        W 6586  38.223  31.470  10.472
34261W        W 6587   3.396  24.713   3.482
34262W        W 6588  29.050   4.688   0.268
34263W        W 6589  37.883  33.856   4.581
34264W        W 6590   2.228  26.841  13.066
34265W        W 6591   3.731  32.309  14.350
34266W        W 6592   3.796  13.852   0.346
34267W        W 6593   5.296  16.692   0.478
34268W        W 6594  24.710   4.650  11.334
34269W        W 6595  14.783  35.234  10.618
34270W        W 6596  19.146  36.488  12.820
34271W        W 6597  31.748  29.769   2.428
34272W        W 6598  10.124  10.304   0.461
34273W        W 6599  20.373   7.752  13.287
34274W        W 6600  18.519   3.248  12.915
34275W        W 6601   7.719  18.479   0.626
34276W        W 6602  24.545  33.394   0.405
34277W        W 6603  19.546   1.729  10.781
34278W        W 6604   9.191  34.171  13.097
34279W        W 6605  41.652   1.433  11.987
34280W        W 6606  44.917  12.554   3.257
34281W        W 6607  25.059  37.392   3.414
34282W        W 6608   5.648  27.932  12.577
34283W        W 6609   6.828  16.631   3.587
34284W        W 6610  29.144   2.215  12.431
34285W        W 6611  16.445   4.839   3.460
34286W        W 6612  11.679   5.330  11.403
34287W        W 6613   5.367  30.407   3.273
34288W        W 6614  23.007  39.075  12.991
34289W        W 6615   7.847  35.318  13.343
34290W        W 6616  28.435  29.171  12.934
34291W        W 6617  30.001   9.801  14.380
34292W        W 6618   8.821  20.034   2.366
34293W        W 6619  27.992  21.711  10.959
34294W        W 6620  36.595  13.557  10.848
34295W        W 6621  32.893  42.563   4.261
34296W        W 6622   2.710  31.653   4.071
34297W        W 6623  22.216  27.706   2.967
34298W        W 6624  20.692  30.942  13.259
34299W        W 6625  26.612  15.335   1.208
34300W        W 6626  17.183  10.277  12.942
34301W        W 6627  22.264  37.777  12.556
34302W        W 6628  31.137  38.542  14.890
34303W        W 6629  37.046  31.245   1.471
34304W        W 6630  32.187  28.054   0.394
34305W        W 6631  14.264  23.897   4.542
34306W        W 6632  23.017  41.044   3.835
34307W        W 6633  26.948   5.307  14.025
34308W        W 6634  25.738  15.601  13.099
34309W        W 6635  19.547  44.364  13.919
34310W        W 6636   8.102  15.833   0.715
34311W        W 6637  32.045   5.274   1.729
34312W        W 6638  39.490  33.579  11.579
34313W        W 6639  10.446   1.822   0.739
34314W        W 6640  18.222  20.751   3.281
34315W        W 6641  40.579  12.507  10.204
34316W        W 6642   4.564  41.295   4.230
34317W        W 6643  28.137  25.830   4.550
34318W        W 6644  26.689  17.797  14.356
34319W        W 6645  18.111  13.496  13.566
34320W        W 6646  29.408  28.479  14.880
34321W        W 6647  37.992  29.765  10.811
34322W        W 6648  23.653  13.734  10.692
34323W        W 6649  43.316  22.022   0.841
34324W        W 6650   6.625  40.056  11.594
34325W        W 6651  21.271  34.879  13.237
34326W        W 6652  39.220  42.607  14.907
34327W        W 6653  42.993  34.631   3.350
34328W        W 6654   5.347  27.988   0.780
34329W        W 6655  14.820  18.849  12.533
34330W        W 6656  29.926  31.438   4.638
34331W        W 6657   1.546  40.910   0.532
34332W        W 6658  33.435  25.329  14.550
34333W        W 6659  41.836  17.073   4.534
34334W        W 6660  40.913  24.597  13.870
34335W        W 6661  14.320  34.095   0.828
34336W        W 6662   9.298  31.455   2.319
34337W        W 6663  39.410  29.661   2.452
34338W        W 6664  42.536  17.979   1.680
34339W        W 6665  17.198  44.996  10.877
34340W        W 6666  37.880  23.457  11.994
34341W        W 6667  12.229   5.232   0.290
34342W        W 6668  29.000  42.864   1.455
34343W        W 6669  31.639  44.923   0.757
34344W        W 6670  35.143  41.999   2.146
34345W        W 6671  13.781  33.952  14.620
34346W        W 6672  29.486  31.592   0.821
34347W        W 6673  26.681  14.351  14.389
34348W        W 6674   4.402  43.031  11.071
34349W        W 6675  43.822  30.970  10.404
34350W        W 6676  41.112  33.853   3.188
34351W        W 6677  39.931  23.006   3.167
34352W        W 6678  38.111  20.616   0.713
34353W        W 6679  18.164  44.029   1.217
34354W        W 6680   7.871  42.533  14.171
34355W        W 6681  22.358  29.007   4.209
34356W        W 6682  30.462  43.065  11.127
34357W        W 6683  18.567  43.810   3.283
34358W        W 6684  38.945  28.952   0.369
34359W        W 6685  44.726   5.730  11.741
34360W        W 6686  32.960   0.874   4.300
34361W        W 6687   0.924   4.716  14.237
34362W        W 6688  26.681  16.637  12.851
34363W        W 6689  37.054  23.404   4.559
34364W        W 6690  16.212  17.071   0.909
34365W        W 6691  20.626  42.469   2.860
34366W        W 6692   6.967  23.566  10.685
34367W        W 6693   9.249  35.296   3.335
34368W        W 6694   1.729  40.973   1.881
34369W        W 6695  22.901  29.667  13.047
34370W        W 6696  35.537   6.998  13.792
34371W        W 6697  35.667  36.015   3.823
34372W        W 6698   1.528  41.149  12.190
34373W        W 6699   7.504  40.554   3.472
34374W        W 6700   7.173  30.625  10.596
34375W        W 6701  39.350  26.136  12.486
34376W        W 6702  36.769  25.056   3.852
34377W        W 6703  21.492  17.311   0.343
34378W        W 6704   9.922  14.560   3.210
34379W        W 6705   2.854  27.560  13.468
34380W        W 6706  28.031  13.252  11.628
34381W        W 6707   8.949  35.842   2.544
34382W        W 6708   0.191  32.300  12.849
34383W        W 6709   1.960  17.247  14.005
34384W        W 6710  34.526  28.326   2.747
34385W        W 6711  11.889  29.458   0.728
34386W        W 6712  14.853  13.087   1.765
34387W        W 6713  19.113  32.161  11.605
34388W        W 6714  28.961  25.039  13.079
34389W        W 6715  32.470  32.223  10.625
34390W        W 6716  13.526  32.273  12.433
34391W        W 6717  39.001   7.337   3.555
34392W        W 6718  30.614  13.613   3.938
34393W        W 6719  34.265  34.395  14.920
34394W        W 6720  22.961  29.404  13.940
34395W        W 6721  43.081  10.248   0.633
34396W        W 6722  37.458  20.258   1.302
34397W        W 6723  19.548  15.765  11.168
34398W        W 6724  28.076   9.293   0.615
34399W        W 6725  39.368  35.137  12.960
34400W        W 6726  31.590   1.213  11.994
34401W        W 6727  11.808  18.065   2.184
34402W        W 6728   4.229  24.546  12.930
34403W        W 6729  41.560  30.488   3.705
34404W        W 6730  31.589  35.572   2.851
34405W        W 6731  43.840  16.831  12.877
34406W        W 6732  35.421  25.982  13.938
34407W        W 6733  15.204  21.532  13.283
34408W        W 6734  24.249   8.205  13.888
34409W        W 6735  10.351   9.310  11.131
34410W        W 6736  22.169   7.020  12.550
34411W        W 6737  40.323  32.821   1.244
34412W        W 6738  10.895  33.465   2.912
34413W        W 6739  13.252  19.003  11.096
34414W        W 6740  39.646  35.861   4.991
34415W        W 6741  30.223  13.640  12.914
34416W        W 6742  37.621  18.218  12.534
34417W        W 6743  17.692  25.725   2.090
34418W        W 6744  17.507  41.067   4.197
34419W        W 6745  20.224  36.460  13.879
34420W        W 6746  26.821   4.771   9.856
34421W        W 6747  11.279   1.487   2.134
34422W        W 6748  10.216  27.080   4.056
34423W        W 6749  39.312  36.038  13.903
34424W        W 6750  32.950  31.851   0.115
34425W        W 6751   5.954  41.941  11.520
34426W        W 6752   8.349  44.186   3.376
34427W        W 6753  36.585   9.662   4.705
34428W        W 6754  28.474  35.570  13.413
34429W        W 6755  15.010  24.226   1.212
34430W        W 6756  31.347   6.287   2.887
34431W        W 6757  36.398  20.167   0.790
34432W        W 6758  30.100   6.913   4.860
34433W        W 6759  14.663  33.095  12.015
34434W        W 6760  26.809  17.725  13.860
34435W        W 6761  18.670  44.530  10.841
34436W        W 6762  17.245  30.862   1.914
34437W        W 6763   4.868  12.799   4.333
34438W        W 6764  15.643   6.484   2.213
34439W        W 6765  14.944  18.588   4.064
34440W        W 6766  24.021  24.275   2.573
34441W        W 6767  19.605  44.254   0.281
34442W        W 6768  39.336  32.032  13.000
34443W        W 6769  40.088  24.627   2.724
34444W        W 6770   0.437   8.259   1.755
34445W        W 6771   7.604  17.087  11.424
34446W        W 6772  33.666  16.117  14.380
34447W        W 6773   1.468  10.370   2.995
34448W        W 6774  42.840  21.102   0.975
34449W        W 6775  18.030  35.808   2.260
34450W        W 6776  40.590  38.443   4.614
34451W        W 6777  23.634   4.184  11.078
34452W        W 6778  35.644  13.526  13.183
34453W        W 6779  17.569  15.345   0.477
34454W        W 6780   5.375  31.550  13.962
34455W        W 6781  27.806  23.322   0.802
34456W        W 6782  41.167   8.922   4.501
34457W        W 6783  15.681  29.867  14.771
34458W        W 6784  23.667  41.483  14.440
34459W        W 6785  44.204  11.414  10.691
34460W        W 6786  15.199  10.084  10.492
34461W        W 6787  13.820  26.620   4.301
34462W        W 6788   4.257   8.939   3.233
34463W        W 6789  18.638  31.923   3.326
34464W        W 6790   0.997  29.425  14.802
34465W        W 6791  19.694  11.344   3.282
34466W        W 6792  11.500  32.320  14.274
34467W        W 6793  34.451  28.926  11.848
34468W        W 6794  43.904  35.288  12.847
34469W        W 6795  28.686  23.186  13.393
34470W        W 6796  31.118  17.127   0.916
34471W        W 6797   6.284  37.465  12.882
34472W        W 6798  10.212  14.082   4.057
34473W        W 6799  35.754  34.708   0.814
34474W        W 6800  12.835  10.707   3.571
34475W        W 6801  14.754  13.172  12.886
34476W        W 6802   4.933  32.400  14.807
34477W        W 6803  23.687  15.318   4.180
34478W        W 6804  13.971  22.754  11.803
34479W        W 6805  18.691  16.557  13.335
34480W        W 6806   2.685   8.323   3.327
34481W        W 6807  32.827  11.038  12.082
34482W        W 6808  34.464   3.267  13.314
34483W        W 6809  17.821  21.944  10.731
34484W        W 6810  16.808  17.760   0.911
34485W        W 6811   4.803   4.596  11.173
34486W        W 6812   8.873   6.299  14.990
34487W        W 6813  34.105  22.497  13.471
34488W        W 6814  18.677   8.461  10.451
34489W        W 6815   4.904   2.710   4.511
34490W        W 6816  13.405   7.911   0.885
34491W        W 6817  28.517  23.402  10.979
34492W        W 6818  36.008  44.838   1.642
34493W        W 6819  20.493  33.464  11.432
34494W        W 6820  13.699  41.088  10.958
34495W        W 6821  38.233  19.795   2.805
34496W        W 6822  19.514  27.032   0.138
34497W        W 6823  40.024   4.269   3.569
34498W        W 6824  36.856  20.205  14.238
34499W        W 6825  10.129  37.022   2.243
34500W        W 6826  34.346  23.549  10.967
34501W        W 6827  15.164   9.635   0.324
34502W        W 6828  41.311  22.597   2.786
34503W        W 6829  37.835   3.233   0.680
34504W        W 6830  12.710  19.588  10.761
34505W        W 6831  35.579  19.077  13.488
34506W        W 6832  44.522  30.437   1.320
34507W        W 6833  18.432  23.940   0.892
34508W        W 6834  20.764  30.482   3.620
34509W        W 6835  28.536   3.782  10.963
34510W        W 6836  11.595  33.409   0.796
34511W        W 6837  12.971   6.693  10.762
34512W        W 6838  28.574  42.553   2.773
34513W        W 6839   4.417  19.976  11.120
34514W        W 6840   5.159  33.757   1.419
34515W        W 6841  20.538  34.595   1.761
34516W        W 6842  15.738   5.442  10.675
34517W        W 6843  39.923  38.386  13.799
34518W        W 6844  39.952  24.714   1.787
34519W        W 6845  33.880  21.266  10.665
34520W        W 6846  27.481  29.002  10.032
34521W        W 6847   2.172  34.911   3.955
34522W        W 6848   6.381  17.446   4.860
34523W        W 6849  12.083   5.795   2.862
34524W        W 6850  22.828  41.882   1.207
34525W        W 6851  23.928  14.250   3.403
34526W        W 6852  18.621  29.449  11.885
34527W        W 6853  34.109   5.723   0.540
34528W        W 6854  26.096   7.200   3.959
34529W        W 6855  19.630   9.584  11.115
34530W        W 6856  15.084   8.811   1.814
34531W        W 6857  36.371   8.800   1.659
34532W        W 6858  13.758  15.710   3.772
34533W        W 6859  37.787  41.118   3.828
34534W        W 6860  13.600  22.950   4.763
34535W        W 6861  21.495  44.434  10.055
34536W        W 6862  19.102   6.674  13.963
34537W        W 6863  39.871  18.528   2.477
34538W        W 6864   1.643  24.056   3.117
34539W        W 6865  28.069  21.728   1.618
34540W        W 6866   0.186  44.888   3.689
34541W        W 6867  36.859  34.848  11.563
34542W        W 6868   8.179  36.535   0.010
34543W        W 6869  18.537  10.235   4.843
34544W        W 6870  31.448  33.923   1.664
34545W        W 6871  43.371  31.158   4.549
34546W        W 6872  18.777  31.405   4.196
34547W        W 6873  13.812  24.275  11.964
34548W        W 6874  21.501  37.329  10.660
34549W        W 6875   2.455  12.143   5.300
34550W        W 6876  29.279  35.842   1.303
34551W        W 6877  16.401  33.041   3.924
34552W        W 6878  39.948  41.552  13.308
34553W        W 6879  14.598  31.469  11.158
34554W        W 6880  13.232   0.660  10.704
34555W        W 6881  25.187   8.788  14.271
34556W        W 6882  42.808  34.561   0.467
34557W        W 6883   7.992  37.672  13.155
34558W        W 6884  12.106  37.020  10.488
34559W        W 6885  44.550  29.938   0.437
34560W        W 6886  26.929  36.445   0.190
34561W        W 6887   3.228   4.832  13.575
34562W        W 6888  39.451  23.990  12.649
34563W        W 6889  26.200  37.337   4.629
34564W        W 6890   4.638  39.381  11.587
34565W        W 6891   2.191  36.106  12.000
34566W        W 6892   6.959   6.568   0.954
34567W        W 6893  16.036   0.741   2.197
34568W        W 6894   8.135  25.571  13.745
34569W        W 6895  27.032  42.492   4.564
34570W        W 6896   0.274   1.191   2.669
34571W        W 6897  42.512  20.089  14.600
34572W        W 6898  12.851   1.825   4.771
34573W        W 6899  17.328  24.077   4.330
34574W        W 6900  40.389   1.703   3.801
34575W        W 6901   6.911  32.933   2.207
34576W        W 6902  36.979  36.329   3.295
34577W        W 6903   6.837  40.897  12.126
34578W        W 6904  38.787  31.573   1.741
34579W        W 6905  15.075  19.819  12.876
34580W        W 6906  38.864  27.892  11.481
34581W        W 6907  44.858  34.687  11.270
34582W        W 6908  42.559  12.912  11.110
34583W        W 6909  12.283  41.977  12.938
34584W        W 6910  18.767  38.764   2.391
34585W        W 6911  18.216  11.673  13.323
34586W        W 6912   9.661   8.122  14.907
34587W        W 6913  26.524  18.147  14.007
34588W        W 6914   6.470  15.098   3.427
34589W        W 6915  29.197  30.141  11.960
34590W        W 6916   0.450  37.857  12.585
34591W        W 6917  14.605  23.450   3.664
34592W        W 6918  17.136  35.393   1.308
34593W        W 6919  42.396   5.525  13.399
34594W        W 6920  39.335  11.076   3.868
34595W        W 6921  42.401  29.897  10.968
34596W        W 6922  22.012  28.222  14.776
34597W        W 6923  24.758  39.433   1.661
34598W        W 6924  33.960   9.411  13.335
34599W        W 6925   3.273   1.413   0.171
34600W        W 6926  31.250  12.829  14.952
34601W        W 6927  14.268   0.297   4.303
34602W        W 6928  28.010  34.442  10.276
34603W        W 6929  41.904  32.399  11.755
34604W        W 6930  29.116   5.792   3.636
34605W        W 6931  32.161  34.096   0.997
34606W        W 6932   1.362  41.399  13.353
34607W        W 6933  28.434  28.753   1.046
34608W        W 6934  21.680  21.035   0.437
34609W        W 6935  11.804   5.297   2.119
34610W        W 6936  21.246  27.471  12.912
34611W        W 6937  37.111   2.356  12.024
34612W        W 6938   7.950  41.741  10.639
34613W        W 6939  14.089  39.974   0.802
34614W        W 6940  40.107   9.785   4.332
34615W        W 6941   2.800  43.995  11.351
34616W        W 6942   8.195  10.961   3.280
34617W        W 6943  13.285  38.405  13.262
34618W        W 6944  26.047  42.171   4.277
34619W        W 6945   4.827  15.465   3.889
34620W        W 6946  26.131  12.882  11.032
34621W        W 6947   7.975   5.906  13.018
34622W        W 6948  28.201   5.721   3.414
34623W        W 6949  34.973   6.983   2.269
34624W        W 6950  41.964  33.145   0.331
34625W        W 6951  12.873   5.891  13.875
34626W        W 6952  30.681   9.400  13.452
34627W        W 6953   6.212  22.634   3.119
34628W        W 6954  34.634  42.624  14.312
34629W        W 6955  43.058   0.196  14.765
34630W        W 6956  19.277  36.089  14.196
34631W        W 6957  26.268  13.832   2.790
34632W        W 6958  21.949  16.711   4.317
34633W        W 6959  34.639  19.459   2.884
34634W        W 6960  11.653  14.607  13.744
34635W        W 6961  21.496  35.005  13.720
34636W        W 6962  43.947  13.254  12.321
34637W        W 6963  15.141  25.615   0.928
34638W        W 6964  21.205  33.059   1.986
34639W        W 6965  32.557  37.049  12.439
34640W        W 6966  24.247  14.986  11.234
34641W        W 6967   5.205  16.704  10.867
34642W        W 6968  22.189  26.019  10.311
34643W        W 6969  21.711   1.967  12.142
34644W        W 6970  42.541   9.166   1.240
34645W        W 6971   8.228   2.031  14.958
34646W        W 6972   4.650  34.130   0.242
34647W        W 6973  41.912  33.979  12.053
34648W        W 6974   5.718  16.137   3.588
34649W        W 6975   2.206  10.543  12.881
34650W        W 6976  19.048  27.394  14.921
34651W        W 6977  14.837  36.122   3.605
34652W        W 6978   7.932  40.756   3.714
34653W        W 6979  42.500  21.072  13.424
34654W        W 6980   6.321  36.691  13.874
34655W        W 6981   2.452  33.944  13.938
34656W        W 6982  29.100  23.956   2.044
34657W        W 6983  43.024  42.064   1.257
34658W        W 6984  20.154   3.930  14.921
34659W        W 6985  34.624  11.564   4.684
34660W        W 6986  40.342   6.891  12.664
34661W        W 6987  30.301   7.555   4.252
34662W        W 6988   0.722  19.322   0.649
34663W        W 6989  36.761  31.496  11.567
34664W        W 6990  35.353  27.991   1.964
34665W        W 6991  30.622  22.148  11.047
34666W        W 6992  10.254  15.991   3.900
34667W        W 6993  25.203  23.193   1.441
34668W        W 6994  31.632  11.837  14.427
34669W        W 6995  31.925  24.039  14.879
34670W        W 6996  19.106  15.184  14.515
34671W        W 6997  34.784  28.075   3.321
34672W        W 6998  11.243  13.955  12.446
34673W        W 6999  22.505  20.994  13.356
34674W        W 7000  29.289   9.510   1.687
34675W        W 7001  14.128  31.150  14.368
34676W        W 7002  34.090  24.464   1.456
34677W        W 7003  10.883  35.490   2.352
34678W        W 7004  37.323  42.990   3.675
34679W        W 7005  14.338  40.796  12.595
34680W        W 7006  29.149  35.250   0.466
34681W        W 7007  34.053  22.834   0.402
34682W        W 7008  19.154  18.045   0.200
34683W        W 7009   2.845  32.674   1.650
34684W        W 7010  28.695  34.352   0.588
34685W        W 7011  16.544  13.323   4.036
34686W        W 7012  21.993  42.066  13.904
34687W        W 7013  17.160  27.455  12.666
34688W        W 7014   8.531   1.826  12.404
34689W        W 7015  17.795   9.541   3.881
34690W        W 7016  31.515  36.028   3.086
34691W        W 7017   7.205  10.611  12.319
34692W        W 7018  43.369  28.710  12.890
34693W        W 7019  23.663  20.028   4.181
34694W        W 7020  22.806  44.731  12.243
34695W        W 7021  38.128  25.788   3.111
34696W        W 7022   6.403   8.720   3.637
34697W        W 7023  15.327  35.332  11.558
34698W        W 7024  21.584  23.991  14.014
34699W        W 7025  36.377  20.947  10.173
34700W        W 7026  20.704  28.464  14.946
34701W        W 7027  31.864  27.998  13.358
34702W        W 7028   3.139  12.229   2.861
34703W        W 7029  26.429  17.852  13.547
34704W        W 7030  31.108  19.028   1.512
34705W        W 7031  20.776   1.484  10.966
34706W        W 7032  19.314   2.416   0.420
34707W        W 7033   0.374   7.704   1.854
34708W        W 7034  39.556   8.186  12.156
34709W        W 7035  37.626   9.776   5.129
34710W        W 7036  10.271  28.190  11.090
34711W        W 7037  14.634   2.523  14.518
34712W        W 7038  40.121   6.162  11.480
34713W        W 7039  12.232  18.227   0.877
34714W        W 7040  31.898  27.069   2.854
34715W        W 7041  39.279  28.001   1.127
34716W        W 7042  10.785   4.407   3.643
34717W        W 7043   8.161  10.519   2.409
34718W        W 7044  12.589  36.263  14.363
34719W        W 7045  19.173   2.514   3.390
34720W        W 7046  12.205   7.316  11.212
34721W        W 7047   7.316   2.914   0.794
34722W        W 7048  30.586  23.960  12.911
34723W        W 7049   0.436  39.237  13.443
34724W        W 7050  39.102  24.012   4.186
34725W        W 7051  24.074  21.799  10.682
34726W        W 7052  11.506  33.272   4.597
34727W        W 7053  40.978  37.555   4.229
34728W        W 7054  31.946  35.028   4.571
34729W        W 7055  19.106  24.105   2.662
34730W        W 7056  13.661  19.037   2.386
34731W        W 7057  36.307   9.116  14.782
34732W        W 7058   8.903  11.652   2.905
34733W        W 7059  43.918  42.861  13.001
34734W        W 7060   2.410  31.011   2.338
34735W        W 7061  39.199  19.204  11.861
34736W        W 7062  13.055  42.769   4.093
34737W        W 7063  19.112  39.685   0.793
34738W        W 7064  17.743   4.194   1.475
34739W        W 7065  10.637  27.290   3.848
34740W        W 7066  42.874  35.447  13.977
34741W        W 7067  13.713   1.415  10.710
34742W        W 7068   4.816  25.199  13.462
34743W        W 7069   7.139  36.340   4.207
34744W        W 7070  37.796   0.402   3.597
34745W        W 7071  16.151   2.960  14.848
34746W        W 7072  20.232  44.400  12.151
34747W        W 7073  31.219  12.638   3.572
34748W        W 7074  27.050   6.227   0.241
34749W        W 7075   2.780  22.780  10.552
34750W        W 7076  21.672  18.557   1.270
34751W        W 7077  10.340   9.110   3.632
34752W        W 7078   0.035  41.910   1.463
34753W        W 7079  35.490   1.836   3.228
34754W        W 7080  13.903  39.886   1.263
34755W        W 7081  39.946  13.573  13.838
34756W        W 7082  44.981  15.657  14.597
34757W        W 7083  34.883  33.810  11.517
34758W        W 7084  21.578   8.332   2.801
34759W        W 7085  32.250   3.310   2.839
34760W        W 7086  22.549  14.176  12.855
34761W        W 7087  22.141  24.428   0.749
34762W        W 7088  27.965   9.521  11.023
34763W        W 7089  38.836  34.862   3.638
34764W        W 7090  12.096   6.123  13.511
34765W        W 7091   1.870  11.866  14.176
34766W        W 7092  39.186   1.353  14.236
34767W        W 7093  39.429  29.914  12.523
34768W        W 7094  25.162  38.776   3.360
34769W        W 7095  20.888   8.226   2.108
34770W        W 7096   1.747  34.857   3.274
34771W        W 7097  41.466  10.718   4.895
34772W        W 7098   8.417   6.728  11.710
34773W        W 7099  43.585   5.956  13.537
34774W        W 7100  34.335  31.517  14.634
34775W        W 7101  16.131  37.396  14.777
34776W        W 7102  19.306  28.941   1.235
34777W        W 7103  38.736  44.811   2.449
34778W        W 7104  14.206  29.792   1.270
34779W        W 7105   3.518  11.331   1.051
34780W        W 7106  22.524  39.301  11.085
34781W        W 7107   0.100  27.510  14.424
34782W        W 7108  30.690   6.465  11.124
34783W        W 7109  33.538  28.448   0.457
34784W        W 7110  21.108  44.487   0.443
34785W        W 7111   7.157   1.384  12.518
34786W        W 7112  39.819  31.442   4.136
34787W        W 7113  19.048  26.819   3.207
34788W        W 7114  18.094  32.112   1.309
34789W        W 7115   2.936  19.958   3.258
34790W        W 7116  44.627  26.964   5.101
34791W        W 7117  43.945  31.000  13.926
34792W        W 7118  25.933  42.935   3.764
34793W        W 7119  16.736  26.083   3.377
34794W        W 7120  44.218  26.078   4.825
34795W        W 7121  42.267   5.492   4.799
34796W        W 7122  13.802  24.785  12.021
34797W        W 7123  34.810   3.694  13.332
34798W        W 7124  12.726  25.670   0.217
34799W        W 7125  19.215  23.455  12.582
34800W        W 7126   7.228   8.243   0.826
34801W        W 7127  40.386   0.771  12.886
34802W        W 7128   2.188   4.332   3.611
34803W        W 7129  30.981  36.621   0.908
34804W        W 7130   1.724  41.004   2.798
34805W        W 7131  18.337  28.440   0.739
34806W        W 7132   9.860  32.045  12.974
34807W        W 7133   6.756  39.934  12.565
34808W        W 7134  27.195  30.036   1.926
34809W        W 7135  23.679  14.849   0.781
34810W        W 7136  22.040   8.662   2.300
34811W        W 7137  23.798   2.492   5.083
34812W        W 7138  25.118  41.956   0.065
34813W        W 7139  38.856  20.295  11.850
34814W        W 7140  12.269  18.219  12.334
34815W        W 7141  25.992  44.083   0.778
34816W        W 7142  38.094  16.631   2.371
34817W        W 7143  14.041  25.200  10.910
34818W        W 7144  33.977   4.111   4.597
34819W        W 7145   3.215  37.770  12.905
34820W        W 7146   9.044  19.032   3.342
34821W        W 7147   0.060  32.144  14.517
34822W        W 7148  41.489  10.400   1.805
34823W        W 7149  21.255  39.537  11.509
34824W        W 7150  37.313  41.089   3.635
34825W        W 7151  40.461  14.823  13.936
34826W        W 7152  25.111  12.217  10.621
34827W        W 7153   9.359   9.712   3.353
34828W        W 7154  26.741  36.722  12.573
34829W        W 7155  12.269  14.923   3.319
34830W        W 7156  38.912   6.088   4.077
34831W        W 7157  22.605  41.787  12.109
34832W        W 7158  38.647  30.421   4.432
34833W        W 7159  30.705   6.781   3.350
34834W        W 7160   5.524  24.970  12.197
34835W        W 7161  12.813  14.169  13.015
34836W        W 7162  35.421   7.761  13.413
34837W        W 7163  38.060  26.315  14.806
34838W        W 7164  21.272  41.872  11.548
34839W        W 7165  43.688  19.648  11.448
34840W        W 7166  21.622  32.450  13.433
34841W        W 7167  41.350  15.614   4.205
34842W        W 7168   3.347   0.527   2.929
34843W        W 7169  20.019  11.389  14.740
34844W        W 7170  28.647  41.939  12.971
34845W        W 7171  20.264  12.385   2.600
34846W        W 7172  17.591  40.009   2.916
34847W        W 7173  37.549   9.967  11.465
34848W        W 7174  23.954  24.574   4.856
34849W        W 7175   7.250  19.107   0.313
34850W        W 7176  42.953   4.279   3.140
34851W        W 7177   3.349  19.643   3.344
34852W        W 7178  31.419  31.015  10.548
34853W        W 7179  34.431  35.794   2.671
34854W        W 7180  40.241  39.965   2.236
34855W        W 7181   2.931  40.368   0.520
34856W        W 7182   7.255  34.351   3.305
34857W        W 7183  20.189  24.747  10.753
34858W        W 7184   8.292  20.636   4.632
34859W        W 7185   0.982  15.597   2.758
34860W        W 7186  18.160  11.043   0.200
34861W        W 7187   6.257  29.562   4.310
34862W        W 7188  16.215  24.640  14.838
34863W        W 7189  37.356  17.392  13.410
34864W        W 7190   6.421   7.963  11.601
34865W        W 7191   5.931  42.106   0.793
34866W        W 7192  13.838  13.066   0.215
34867W        W 7193   6.507   8.421   1.199
34868W        W 7194  14.119  26.876   0.871
34869W        W 7195  30.491   9.816  10.532
34870W        W 7196  29.663  44.278  12.519
34871W        W 7197  15.560   8.869   3.510
34872W        W 7198  41.950  22.921  12.365
34873W        W 7199  34.503  44.220   2.858
34874W        W 7200   7.255  21.637  12.496
34875W        W 7201  33.747   4.483  13.156
34876W        W 7202  35.572  17.503  14.522
34877W        W 7203   5.760  10.937   3.322
34878W        W 7204  41.655  15.350   1.702
34879W        W 7205  29.520  42.283   0.297
34880W        W 7206   4.365  37.785  14.546
34881W        W 7207   7.199  35.814   2.450
34882W        W 7208  12.713  18.675   4.112
34883W        W 7209   8.007   0.545  10.669
34884W        W 7210  38.415   0.614   1.349
34885W        W 7211  12.423  25.096  11.943
34886W        W 7212   9.855  31.345  11.789
34887W        W 7213  30.449   1.898  14.445
34888W        W 7214  41.424  15.597   0.435
34889W        W 7215  28.475   1.536  14.227
34890W        W 7216  25.406  23.023  12.185
34891W        W 7217   0.407  17.035   4.228
34892W        W 7218  24.141  19.236   1.408
34893W        W 7219  15.720  27.958   0.086
34894W        W 7220   9.514  38.820  10.280
34895W        W 7221  39.293  22.306   1.283
34896W        W 7222  32.926  30.585   1.210
34897W        W 7223   6.886  19.227  11.527
34898W        W 7224  14.368   5.525  11.121
34899W        W 7225  37.856   5.708  10.707
34900W        W 7226  12.433  39.916  10.643
34901W        W 7227  30.412  39.447  11.113
34902W        W 7228  17.545  38.091   2.874
34903W        W 7229  18.948   3.752   2.660
34904W        W 7230  27.161  11.670  11.015
34905W        W 7231  21.718  43.266  12.098
34906W        W 7232  32.872   9.438   0.771
34907W        W 7233  16.199  13.304  11.229
34908W        W 7234   0.229  22.257   2.754
34909W        W 7235  26.690  42.009   2.260
34910W        W 7236  16.186  19.227   4.560
34911W        W 7237  19.539  25.920   2.761
34912W        W 7238  38.704  10.193   4.614
34913W        W 7239   9.792  17.065   4.549
34914W        W 7240  41.198  34.749   3.602
34915W        W 7241  38.941  25.421   4.097
34916W        W 7242  11.312  28.742  14.743
34917W        W 7243  12.460  39.358   2.913
34918W        W 7244  18.289   4.854   1.947
34919W        W 7245  21.799  18.313   0.819
34920W        W 7246  28.120  38.615   0.651
34921W        W 7247  32.926  39.563  11.510
34922W        W 7248  30.549   3.140  12.538
34923W        W 7249  24.327   3.830   4.854
34924W        W 7250   0.234  43.814  11.974
34925W        W 7251   0.740  13.331   0.249
34926W        W 7252   4.922  41.789  12.075
34927W        W 7253   6.105  16.892   3.339
34928W        W 7254   0.916   8.467   2.543
34929W        W 7255  28.423  13.590  14.502
34930W        W 7256  39.868  37.932  14.949
34931W        W 7257  12.902  44.415  12.006
34932W        W 7258  37.315  10.034  10.998
34933W        W 7259  14.098   5.428   0.487
34934W        W 7260  25.754   6.763   0.433
34935W        W 7261  19.106  15.571   9.904
34936W        W 7262  12.517  44.136  14.278
34937W        W 7263   8.809   1.722   3.761
34938W        W 7264  20.530  10.208   4.416
34939W        W 7265  43.232  35.727   0.355
34940W        W 7266  29.917   4.656   0.477
34941W        W 7267  13.161   4.178  11.488
34942W        W 7268   1.719  20.175  14.762
34943W        W 7269  44.937  31.911  14.051
34944W        W 7270  44.050   0.711  13.994
34945W        W 7271  15.599  38.065  12.837
34946W        W 7272  22.535   6.280   2.744
34947W        W 7273  32.026   6.466  12.698
34948W        W 7274  15.797   0.439  12.523
34949W        W 7275  32.785  36.530   2.947
34950W        W 7276  23.900   6.636  11.986
34951W        W 7277   6.046  25.167   4.621
34952W        W 7278  31.697  26.505   1.781
34953W        W 7279  10.009   9.853   4.156
34954W        W 7280   0.341  22.832   1.856
34955W        W 7281  35.402   8.565  11.149
34956W        W 7282  17.771  18.665  12.751
34957W        W 7283  31.910  36.568  12.367
34958W        W 7284  44.485   8.771   0.259
34959W        W 7285  26.169  32.933  12.428
34960W        W 7286  18.826  31.581   2.379
34961W        W 7287   0.842  35.438  13.334
34962W        W 7288   6.750  19.742   1.942
34963W        W 7289  21.461  43.948   4.656
34964W        W 7290  36.295  29.973   3.495
34965W        W 7291  36.809  26.517   3.726
34966W        W 7292  11.636  34.403  13.382
34967W        W 7293  34.011  16.588  12.379
34968W        W 7294  14.860  27.649  13.783
34969W        W 7295  34.039  21.095  14.808
34970W        W 7296  25.146  26.987   0.493
34971W        W 7297  29.839  33.367   2.148
34972W        W 7298  41.447   2.037  11.343
34973W        W 7299  26.438  38.342   3.169
34974W        W 7300  27.077   5.949   1.780
34975W        W 7301  13.804   4.853   0.428
34976W        W 7302  43.757  31.546  11.056
34977W        W 7303  14.200   2.045   0.489
34978W        W 7304  30.743  12.279   4.109
34979W        W 7305   9.623  14.767   0.683
34980W        W 7306   3.187  15.320   3.133
34981W        W 7307  17.644  30.476  11.934
34982W        W 7308  36.616  11.632   2.377
34983W        W 7309  14.199  39.836   0.318
34984W        W 7310  29.984  35.591  10.574
34985W        W 7311  22.015   1.971  14.987
34986W        W 7312  11.762  18.649   1.517
34987W        W 7313   0.848  35.675   3.015
34988W        W 7314   2.428  29.013   0.722
34989W        W 7315  26.354   5.317  11.709
34990W        W 7316  42.236  27.089   0.606
34991W        W 7317  26.564  23.452   4.153
34992W        W 7318  22.406   8.180  14.404
34993W        W 7319  16.344  13.993  13.761
34994W        W 7320   1.441  12.595  10.511
34995W        W 7321  41.402  16.386  10.691
34996W        W 7322  11.285  41.700   1.121
34997W        W 7323   5.758   3.977  12.963
34998W        W 7324  32.327  16.060   2.584
34999W        W 7325  24.081  37.529  11.996
35000W        W 7326   4.472  23.997  12.911
35001W        W 7327  33.394  36.589   3.649
35002W        W 7328  15.980  34.030  12.518
35003W        W 7329  30.558  22.758   2.258
35004W        W 7330  22.883  38.023  13.954
35005W        W 7331  19.565  25.730   2.271
35006W        W 7332  14.749  28.988   2.135
35007W        W 7333  31.190  32.980  12.348
35008W        W 7334  44.248   7.429   3.254
35009W        W 7335  12.098   5.988   1.044
35010W        W 7336   8.303  28.886   3.688
35011W        W 7337  23.895  36.927   5.078
35012W        W 7338  21.950   2.996  13.009
35013W        W 7339   6.827  36.993   3.477
35014W        W 7340  37.781  26.254   3.186
35015W        W 7341   8.310  42.409   4.207
35016W        W 7342  39.969  18.145   3.133
35017W        W 7343  23.515  36.436   3.071
35018W        W 7344   0.255  29.330   4.324
35019W        W 7345   7.290   1.613  12.070
35020W        W 7346  20.516   8.852  13.324
35021W        W 7347  35.943  36.600  10.242
35022W        W 7348  27.562  36.477   1.214
35023W        W 7349  29.567  16.931   2.883
35024W        W 7350  26.627  14.124  12.011
35025W        W 7351   7.410  29.096  10.448
35026W        W 7352   4.151  36.211  10.977
35027W        W 7353   0.764  26.516   2.794
35028W        W 7354  10.327  13.552   0.787
35029W        W 7355   2.877   0.899  10.922
35030W        W 7356  17.552  30.090   4.425
35031W        W 7357  10.042  33.655  10.899
35032W        W 7358  44.429   1.473  13.830
35033W        W 7359  22.956  11.332   3.721
35034W        W 7360  33.995  16.092  13.990
35035W        W 7361  43.236  21.072  11.004
35036W        W 7362  29.136  16.094  13.513
35037W        W 7363   4.621  36.283  11.147
35038W        W 7364  18.889  22.584  11.078
35039W        W 7365  17.245  32.667   0.267
35040W        W 7366  42.072  33.334   2.707
35041W        W 7367  28.957  39.836   3.965
35042W        W 7368  37.559  40.558  13.509
35043W        W 7369   5.035   6.149   3.742
35044W        W 7370  44.778  31.402  11.134
35045W        W 7371   4.433  26.827  12.924
35046W        W 7372  16.136  36.297   3.712
35047W        W 7373   3.901  39.872   3.638
35048W        W 7374  38.145  20.672   3.155
35049W        W 7375   0.866  12.168  12.098
35050W        W 7376  43.356  22.715   2.402
35051W        W 7377   5.071   2.376   2.185
35052W        W 7378  29.135  26.674   4.225
35053W        W 7379  18.309  19.198   0.219
35054W        W 7380  32.050  26.046  11.204
35055W        W 7381  14.343   7.254   2.345
35056W        W 7382  27.749  16.106  14.099
35057W        W 7383   3.448  24.553   0.846
35058W        W 7384  40.163  32.061   4.562
35059W        W 7385  35.039  44.987  10.948
35060W        W 7386   6.611  32.488  10.439
35061W        W 7387  16.011  43.835   1.944
35062W        W 7388  36.353   1.048  12.138
35063W        W 7389  12.815  25.183   2.585
35064W        W 7390   3.310   0.754  12.857
35065W        W 7391  41.436  38.066  14.399
35066W        W 7392  10.115  37.322   4.656
35067W        W 7393  21.180  10.658  14.025
35068W        W 7394  10.513  15.664   4.651
35069W        W 7395  18.115   2.315   3.133
35070W        W 7396   3.343  42.217  11.584
35071W        W 7397  14.133   7.284   3.321
35072W        W 7398   7.338   5.262  11.181
35073W        W 7399   9.767   2.699   2.234
35074W        W 7400   1.350  11.591   2.049
35075W        W 7401  39.423  12.657  14.966
35076W        W 7402  39.501  40.500  10.588
35077W        W 7403  20.109  44.243  11.475
35078W        W 7404  37.072   1.782   2.696
35079W        W 7405  42.349  38.273   0.783
35080W        W 7406  15.255   1.507  14.975
35081W        W 7407  21.009  44.915  11.153
35082W        W 7408  35.294  28.740  12.053
35083W        W 7409   8.600   6.247   2.264
35084W        W 7410   3.874  19.281  12.480
35085W        W 7411   5.298   0.322  12.641
35086W        W 7412   3.979  22.094   3.875
35087W        W 7413  21.332  11.152  11.149
35088W        W 7414  21.337  31.122  13.937
35089W        W 7415  22.004  25.373  12.173
35090W        W 7416  30.700  18.268   0.917
35091W        W 7417  18.296   4.917  13.523
35092W        W 7418  14.707  10.115   4.272
35093W        W 7419  44.349  30.158  14.986
35094W        W 7420  43.813  14.688  11.638
35095W        W 7421   8.729  42.759  14.009
35096W        W 7422  22.936  16.741   3.283
35097W        W 7423   4.792  29.592  13.461
35098W        W 7424   2.330   0.819   3.533
35099W        W 7425  20.766  36.091   0.256
35100W        W 7426  12.952  42.912  10.393
35101W        W 7427  14.372  26.082   0.326
35102W        W 7428  43.481  39.816   1.425
35103W        W 7429  33.635  19.856   1.368
35104W        W 7430  21.812  44.918  13.002
35105W        W 7431  28.016   5.616  13.970
35106W        W 7432  43.333  20.944   0.211
35107W        W 7433  42.426   9.597  14.300
35108W        W 7434  41.724  35.565   5.035
35109W        W 7435  27.732  37.866   2.646
35110W        W 7436   4.281   7.917   1.931
35111W        W 7437  10.236  41.975   0.239
35112W        W 7438   8.245  28.317  11.884
35113W        W 7439  15.264  38.779  11.584
35114W        W 7440  10.943   5.335   0.884
35115W        W 7441   8.883  25.267   3.463
35116W        W 7442  14.346   6.361  12.938
35117W        W 7443  20.547  15.051  12.623
35118W        W 7444   0.405   2.246   1.471
35119W        W 7445  36.910  40.230  12.511
35120W        W 7446  21.250  42.396   3.794
35121W        W 7447  20.680  18.849  13.903
35122W        W 7448  44.926   4.127  11.006
35123W        W 7449  41.558  32.524   2.348
35124W        W 7450  13.374  41.825  13.953
35125W        W 7451  27.623  15.140   3.869
35126W        W 7452  36.839  29.247  12.402
35127W        W 7453  13.665  21.559   4.845
35128W        W 7454   9.988  13.474   2.107
35129W        W 7455   1.991  22.299  10.468
35130W        W 7456  21.525  28.024   2.275
35131W        W 7457  38.416  35.629   1.361
35132W        W 7458  25.785   1.360   4.112
35133W        W 7459  31.482   9.744   4.172
35134W        W 7460  22.318  13.203  11.962
35135W        W 7461  32.833  21.694  12.883
35136W        W 7462  30.969   0.859   2.654
35137W        W 7463  12.319  29.133   0.862
35138W        W 7464   6.316  32.701   2.910
35139W        W 7465  12.091  24.729  13.522
35140W        W 7466  23.772  28.114   4.318
35141W        W 7467   1.768   6.219   2.629
35142W        W 7468  42.185  26.057   2.330
35143W        W 7469  42.032  37.276   3.581
35144W        W 7470   9.504  11.402  10.690
35145W        W 7471  30.979   2.224  12.519
35146W        W 7472  12.396  26.095  10.602
35147W        W 7473   5.686  22.103  14.893
35148W        W 7474  11.368  42.327  13.398
35149W        W 7475  14.667  39.007  12.862
35150W        W 7476  20.686  39.454  12.078
35151W        W 7477  22.082  25.509  12.972
35152W        W 7478  26.177  36.916  10.959
35153W        W 7479  28.940   5.430   2.788
35154W        W 7480  36.630  42.021  14.406
35155W        W 7481  27.911  32.383   2.720
35156W        W 7482  26.634  19.835  12.470
35157W        W 7483   3.633  12.424   2.793
35158W        W 7484  40.961  15.906   0.412
35159W        W 7485  29.658  29.469  14.795
35160W        W 7486  38.382  20.059   4.249
35161W        W 7487  18.811  33.108  10.448
35162W        W 7488  20.021  19.602   2.842
35163W        W 7489  31.031  35.083   3.284
35164W        W 7490   5.243  10.733   1.971
35165W        W 7491  25.825  22.722  12.180
35166W        W 7492  21.099   4.502  13.707
35167W        W 7493  10.703  23.258  12.470
35168W        W 7494  35.022  14.367  11.461
35169W        W 7495  23.916   6.941   2.750
35170W        W 7496  14.023  11.685   3.648
35171W        W 7497  32.006   1.368   4.392
35172W        W 7498  18.531   2.359   2.800
35173W        W 7499   7.433   9.294  13.109
35174W        W 7500  39.490  42.115   4.519
35175W        W 7501  15.622  34.676   2.301
35176W        W 7502  15.966  34.892   1.448
35177W        W 7503  13.304   8.694   0.212
35178W        W 7504   7.203  10.118   2.286
35179W        W 7505  10.402   2.597  12.424
35180W        W 7506  36.183  23.049   1.760
35181W        W 7507   9.421  32.665   2.895
35182W        W 7508  14.642  17.159  13.784
35183W        W 7509  17.889  19.895   3.653
35184W        W 7510  33.353  21.019   2.907
35185W        W 7511  19.551  21.554   0.518
35186W        W 7512  26.086  22.293   3.813
35187W        W 7513  16.041   0.756  12.167
35188W        W 7514  36.073  44.156   0.724
35189W        W 7515  44.080  42.462  11.060
35190W        W 7516  15.864  24.550  11.121
35191W        W 7517  39.935  19.020   4.809
35192W        W 7518  17.459  29.486   2.254
35193W        W 7519   2.763   6.469  11.599
35194W        W 7520  32.803   3.432   0.967
35195W        W 7521  24.677  11.720   4.461
35196W        W 7522  29.159  29.514  13.952
35197W        W 7523  11.620  26.203   0.791
35198W        W 7524  35.911  29.884   4.349
35199W        W 7525  34.516  27.400   1.099
35200W        W 7526  21.596  43.436  12.588
35201W        W 7527   7.021  12.401  12.031
35202W        W 7528   6.902   1.791   4.478
35203W        W 7529  40.850   2.973   2.943
35204W        W 7530  44.014  18.890   3.136
35205W        W 7531  29.774  11.794  12.935
35206W        W 7532  15.246  16.638  13.617
35207W        W 7533  17.322  14.786   4.750
35208W        W 7534  17.664  22.831  13.616
35209W        W 7535  20.168   9.550  12.477
35210W        W 7536  26.696   9.424   4.249
35211W        W 7537  29.574  20.845  11.639
35212W        W 7538  23.510  13.805   0.777
35213W        W 7539   0.392  15.952   0.941
35214W        W 7540   2.305   5.480   3.228
35215W        W 7541  31.006  35.612   4.584
35216W        W 7542  13.148  23.713  12.087
35217W        W 7543  20.604  24.652   3.701
35218W        W 7544  32.915  43.213   4.793
35219W        W 7545  25.167  13.812   3.347
35220W        W 7546  30.670   5.404   3.360
35221W        W 7547  16.873  43.970  11.110
35222W        W 7548  44.315  29.851   3.518
35223W        W 7549   5.338  44.205   1.977
35224W        W 7550   0.029   5.364  13.267
35225W        W 7551  19.570  27.900   2.818
35226W        W 7552  34.122  44.841   2.189
35227W        W 7553  39.965  21.495  14.803
35228W        W 7554  34.555  27.873   1.378
35229W        W 7555  39.033  34.165  10.934
35230W        W 7556  37.974  38.976   4.885
35231W        W 7557  21.092  30.862   2.290
35232W        W 7558  33.520  22.773  14.064
35233W        W 7559   6.117   0.248   2.941
35234W        W 7560  38.375  43.662  14.897
35235W        W 7561  20.745  18.844   4.201
35236W        W 7562  32.875  36.156   0.714
35237W        W 7563  41.050   7.175  11.137
35238W        W 7564   1.442  28.829   1.222
35239W        W 7565  16.618   4.968   2.997
35240W        W 7566  21.195  44.800  11.614
35241W        W 7567  19.867  35.832   5.141
35242W        W 7568  28.112  12.061  14.935
35243W        W 7569  13.289  33.141   9.720
35244W        W 7570  35.803  26.618  13.479
35245W        W 7571   8.272   6.275   4.813
35246W        W 7572  44.869  44.534   2.779
35247W        W 7573   0.489  10.123   1.729
35248W        W 7574   2.220  23.946  11.569
35249W        W 7575   9.001   8.366  11.172
35250W        W 7576  37.833  35.894  11.610
35251W        W 7577  31.002   4.996   0.287
35252W        W 7578  36.285  40.441  14.081
35253W        W 7579  36.987  11.716   4.369
35254W        W 7580  22.974  44.843   0.728
35255W        W 7581  14.158  40.316   4.872
35256W        W 7582  39.968  44.125   2.274
35257W        W 7583  15.776  21.848   2.354
35258W        W 7584   9.364  28.981  13.471
35259W        W 7585  33.109  21.667   4.933
35260W        W 7586  27.787  21.116  12.512
35261W        W 7587  21.248  23.665   0.897
35262W        W 7588  16.160  30.090   3.620
35263W        W 7589  21.692  29.840   3.360
35264W        W 7590  40.860  21.602   0.248
35265W        W 7591  33.505  22.074   3.705
35266W        W 7592  22.909  33.352  11.087
35267W        W 7593  31.128  10.275   1.688
35268W        W 7594  43.059  38.849   1.793
35269W        W 7595  35.871  24.966   4.672
35270W        W 7596  27.739   5.592   3.220
35271W        W 7597   0.071   2.436   5.545
35272W        W 7598  11.283  23.496  14.716
35273W        W 7599  13.587  20.651  11.101
35274W        W 7600   8.000   3.527   0.362
35275W        W 7601  13.579  41.285   1.459
35276W        W 7602  26.943   0.702   0.291
35277W        W 7603   6.253   5.825  10.933
35278W        W 7604  29.414  11.884   3.761
35279W        W 7605  22.544  23.050  10.313
35280W        W 7606   7.473  27.439  11.550
35281W        W 7607  30.047   9.573  10.707
35282W        W 7608  19.082  44.368  10.569
35283W        W 7609  42.525  33.514   2.880
35284W        W 7610  32.568  31.565  14.826
35285W        W 7611  39.415  29.385  13.413
35286W        W 7612  16.174   9.642   2.219
35287W        W 7613   0.744   9.422  14.365
35288W        W 7614  14.445  27.981   2.188
35289W        W 7615  36.060  26.443  14.841
35290W        W 7616  44.560  35.308   1.858
35291W        W 7617  26.150  37.900   4.627
35292W        W 7618  34.619  39.114   3.268
35293W        W 7619  11.450  17.987  14.302
35294W        W 7620  20.306  43.869   0.724
35295W        W 7621   2.345  44.075  11.088
35296W        W 7622  14.147  34.306   3.763
35297W        W 7623  14.455  17.690   0.422
35298W        W 7624  44.252  22.520   2.690
35299W        W 7625  22.035   3.437  13.469
35300W        W 7626  44.920  11.758   2.796
35301W        W 7627  29.767  27.151  13.807
35302W        W 7628  31.398   1.715  10.475
35303W        W 7629  25.722  26.146  13.994
35304W        W 7630  11.866  38.961  13.057
35305W        W 7631   9.765  29.544  14.774
35306W        W 7632   7.261   2.518  14.829
35307W        W 7633  16.146  34.186  14.747
35308W        W 7634  37.370  12.165  11.835
35309W        W 7635   3.335  27.327  11.845
35310W        W 7636  25.717   8.422   2.749
35311W        W 7637  19.050   4.400  12.265
35312W        W 7638  38.365  19.096   1.350
35313W        W 7639  16.779  27.410  14.126
35314W        W 7640  16.678   3.961  13.027
35315W        W 7641   6.035   1.574   2.784
35316W        W 7642  22.388  41.774   0.444
35317W        W 7643  30.055  20.348   4.578
35318W        W 7644  32.332   0.033   1.312
35319W        W 7645   0.507   1.443   3.566
35320W        W 7646   4.876   8.308  14.415
35321W        W 7647  27.056   3.826   1.413
35322W        W 7648  23.668  29.431  10.524
35323W        W 7649  11.073  42.487  12.976
35324W        W 7650  15.803  28.470   3.300
35325W        W 7651  38.392   0.514   4.621
35326W        W 7652  14.499  26.010   9.831
35327W        W 7653   8.933  13.567   1.218
35328W        W 7654  21.057  34.893  14.840
35329W        W 7655   9.820   5.404   4.020
35330W        W 7656  43.282  43.411  13.857
35331W        W 7657  14.612  10.152   3.355
35332W        W 7658  15.558  33.074   2.773
35333W        W 7659   0.323  37.057   3.179
35334W        W 7660  10.796   7.395   3.692
35335W        W 7661  37.674  12.611  11.970
35336W        W 7662  27.978   5.513   1.266
35337W        W 7663   9.688  11.420   2.322
35338W        W 7664  33.139  28.129   3.084
35339W        W 7665  19.157   9.329   3.925
35340W        W 7666  42.398   0.006  12.072
35341W        W 7667  38.359   0.762   4.171
35342W        W 7668  34.879   2.358   1.160
35343W        W 7669   7.859  27.517  11.201
35344W        W 7670  10.200  37.066  12.990
35345W        W 7671  20.767   3.630  13.215
35346W        W 7672  38.579  27.930   1.903
35347W        W 7673  18.727   0.215   3.000
35348W        W 7674   8.329   0.646   0.217
35349W        W 7675  35.011  27.947  14.680
35350W        W 7676  33.322  10.641  11.444
35351W        W 7677  22.670  21.168  13.839
35352W        W 7678  28.783  15.487  11.484
35353W        W 7679  23.642  13.389  13.296
35354W        W 7680  33.044  27.015   2.811
35355W        W 7681   4.127   0.267   2.664
35356W        W 7682  34.069  12.430   0.261
35357W        W 7683  22.252   4.092  13.930
35358W        W 7684  41.262   4.735  13.431
35359W        W 7685  31.662  16.753  13.988
35360W        W 7686  21.005  43.724  11.411
35361W        W 7687  40.712  35.087  13.444
35362W        W 7688  44.002   0.587  11.831
35363W        W 7689  14.105   1.429   3.381
35364W        W 7690  25.967  18.134  12.556
35365W        W 7691   6.346  21.697   0.221
35366W        W 7692   8.669   2.139  12.762
35367W        W 7693   0.071  13.627   3.211
35368W        W 7694   6.159  19.019   4.512
35369W        W 7695  32.043  13.657   4.431
35370W        W 7696  13.645  33.020   3.641
35371W        W 7697  19.793  38.712  10.451
35372W        W 7698  44.476  22.500   3.678
35373W        W 7699  37.100  13.087  13.484
35374W        W 7700   5.613  35.995   4.614
35375W        W 7701  39.512  21.616   0.551
35376W        W 7702  40.394  35.206  11.872
35377W        W 7703  18.644   9.206   0.387
35378W        W 7704  30.570   5.144  13.799
35379W        W 7705  38.324  27.994  10.422
35380W        W 7706  15.139  43.552   1.405
35381W        W 7707  12.482  16.665   0.185
35382W        W 7708   2.882   6.630  12.840
35383W        W 7709  42.589  33.062   3.791
35384W        W 7710   9.620  26.700  14.294
35385W        W 7711   5.739  31.989   4.654
35386W        W 7712   3.257  23.259  14.246
35387W        W 7713  13.883  20.735  10.688
35388W        W 7714  18.552  33.006  12.502
35389W        W 7715   1.752  24.244  13.169
35390W        W 7716  40.397  42.782   2.823
35391W        W 7717  39.232  42.315  11.068
35392W        W 7718  41.525  42.698   0.774
35393W        W 7719  37.061  42.798  12.854
35394W        W 7720  11.653  33.624   1.329
35395W        W 7721  15.501   9.176  11.415
35396W        W 7722  26.608   2.414  11.440
35397W        W 7723  27.034   5.318   3.930
35398W        W 7724  18.152  23.035   1.394
35399W        W 7725  31.026  35.107  14.834
35400W        W 7726  27.476  16.261   1.364
35401W        W 7727  21.167  40.007  14.100
35402W        W 7728  28.041  13.782  14.084
35403W        W 7729  11.061  42.871  14.002
35404W        W 7730  35.794  35.919  11.840
35405W        W 7731  26.423  37.348  11.895
35406W        W 7732  36.410  42.977  10.604
35407W        W 7733  41.267  41.562  13.660
35408W        W 7734   9.766  11.950  12.102
35409W        W 7735   3.341  24.656  10.900
35410W        W 7736   2.733  40.930   4.516
35411W        W 7737  24.096  34.517  14.090
35412W        W 7738   2.790  41.816   4.305
35413W        W 7739  40.926   9.477  13.379
35414W        W 7740   7.836  43.470  13.776
35415W        W 7741  30.046   0.353  10.640
35416W        W 7742  21.550  44.734   0.257
35417W        W 7743   0.204  36.462   0.888
35418W        W 7744   8.720  11.534   1.276
35419W        W 7745  36.887  10.353  14.397
35420W        W 7746  21.266   3.033   1.819
35421W        W 7747  32.679   0.750   0.297
35422W        W 7748  10.627  16.431  12.082
35423W        W 7749  25.492  24.486   4.449
35424W        W 7750   3.112  19.784   1.910
35425W        W 7751  11.777  18.813  11.935
35426W        W 7752  35.699  17.200   1.680
35427W        W 7753  28.828  35.678  13.059
35428W        W 7754  11.190  10.799  12.414
35429W        W 7755   6.309   6.338  10.174
35430W        W 7756   6.194  32.212   2.188
35431W        W 7757  15.778  13.537  12.537
35432W        W 7758  40.899  40.448   3.024
35433W        W 7759  27.733  24.272  11.509
35434W        W 7760  16.404   7.296  13.005
35435W        W 7761  26.595  29.475   1.968
35436W        W 7762  33.383  20.502   2.943
35437W        W 7763  29.733  32.921  14.495
35438W        W 7764  14.668  38.879  14.427
35439W        W 7765  39.512  19.010  13.312
35440W        W 7766  44.970  29.375  14.870
35441W        W 7767  43.236   4.782  13.322
35442W        W 7768  34.932  28.914   3.957
35443W        W 7769  40.296   4.715  10.424
35444W        W 7770  18.273  14.714   2.127
35445W        W 7771   4.432  41.415   4.713
35446W        W 7772  34.949  22.171   0.875
35447W        W 7773  27.038  30.892  12.142
35448W        W 7774  20.244   4.188  14.414
35449W        W 7775  26.057  19.050  13.993
35450W        W 7776   6.623  15.730   3.109
35451W        W 7777  24.049  39.799  13.002
35452W        W 7778  39.252  24.258   2.792
35453W        W 7779  39.068  41.310  14.958
35454W        W 7780  12.132  19.827   1.297
35455W        W 7781  38.995   4.190  13.445
35456W        W 7782  11.765   7.913  13.747
35457W        W 7783  27.135   4.739  11.798
35458W        W 7784  39.556  14.409   3.703
35459W        W 7785  19.687  35.373   0.842
35460W        W 7786  39.445  23.731   1.334
35461W        W 7787  39.389  44.377   0.950
35462W        W 7788  18.023   5.241   4.208
35463W        W 7789   3.780  42.557   1.158
35464W        W 7790  18.609  33.398   3.609
35465W        W 7791   8.307  23.042   0.120
35466W        W 7792  17.110  23.342   9.914
35467W        W 7793  44.792  27.641   4.190
35468W        W 7794  36.857  32.035  14.252
35469W        W 7795  21.341  34.464  14.932
35470W        W 7796  28.507   0.370  10.908
35471W        W 7797  35.672  41.981   1.264
35472W        W 7798   7.383  30.105   2.321
35473W        W 7799  21.905   3.315  11.003
35474W        W 7800  12.636  14.357   2.368
35475W        W 7801  25.599  13.329  11.508
35476W        W 7802  32.138  12.681  14.997
35477W        W 7803  26.467  21.128  12.351
35478W        W 7804   9.585  15.005   4.598
35479W        W 7805  37.208  39.915  11.496
35480W        W 7806  16.616  29.969   3.856
35481W        W 7807   7.811  42.759   0.827
35482W        W 7808  21.652  22.974   2.266
35483W        W 7809  21.960  38.802  13.824
35484W        W 7810   8.769  39.783   1.888
35485W        W 7811  35.973  16.155  10.679
35486W        W 7812  41.373  26.531  10.740
35487W        W 7813  42.855  38.146   2.204
35488W        W 7814  34.970  25.598   3.672
35489W        W 7815  33.756  15.770   4.594
35490W        W 7816  42.678  19.257   2.723
35491W        W 7817   7.740   4.210  14.631
35492W        W 7818   8.696  32.011  12.501
35493W        W 7819  30.209   3.436   3.610
35494W        W 7820  28.566  17.546   0.540
35495W        W 7821  11.129  43.222   3.358
35496W        W 7822  19.543  12.694  10.686
35497W        W 7823   1.838  33.634   3.219
35498W        W 7824  27.907   3.142   4.068
35499W        W 7825  30.889   4.197   3.093
35500W        W 7826  18.780  15.982  11.388
35501W        W 7827  43.905  30.872   4.972
35502W        W 7828  38.443  10.354   2.303
35503W        W 7829  40.253  44.239   4.984
35504W        W 7830  13.575  28.608  13.756
35505W        W 7831  11.271  44.201   3.106
35506W        W 7832  43.018   0.228   3.395
35507W        W 7833  38.038  13.899  11.724
35508W        W 7834  24.709  27.880  11.182
35509W        W 7835   8.355  35.915   3.336
35510W        W 7836  32.889  43.400  10.735
35511W        W 7837  14.656  19.318   1.394
35512W        W 7838  34.878  41.481  13.407
35513W        W 7839  30.972   2.361   4.510
35514W        W 7840   2.830  19.275   3.878
35515W        W 7841  10.607  27.579  12.015
35516W        W 7842  42.266  35.724  14.339
35517W        W 7843  26.199  10.221  14.031
35518W        W 7844  10.289  33.086  12.850
35519W        W 7845  25.538   5.927  13.348
35520W        W 7846   9.923  19.835  14.805
35521W        W 7847  31.333  39.732  14.433
35522W        W 7848  17.261  26.656  12.103
35523W        W 7849  37.241  17.856  12.434
35524W        W 7850   7.129  12.594  11.541
35525W        W 7851  21.005   4.921  11.091
35526W        W 7852  10.172  14.064   0.721
35527W        W 7853  38.766   1.465   4.168
35528W        W 7854  27.470  12.655   0.941
35529W        W 7855  41.040   0.910  10.651
35530W        W 7856  10.747  27.989   0.240
35531W        W 7857  18.050  16.838  11.999
35532W        W 7858  41.885  44.063   3.255
35533W        W 7859   2.813  27.950  11.598
35534W        W 7860  31.784  40.367  13.724
35535W        W 7861  26.839   3.909   4.514
35536W        W 7862  34.643  44.366  13.010
35537W        W 7863  10.158   8.907   0.578
35538W        W 7864  37.475  42.542   1.609
35539W        W 7865  26.977  39.286   0.823
35540W        W 7866  24.052  29.655   2.348
35541W        W 7867   9.228  15.383   3.214
35542W        W 7868  12.141  32.518   3.627
35543W        W 7869  37.595  13.894  11.477
35544W        W 7870  38.572  29.095   4.816
35545W        W 7871  20.029  26.036   2.591
35546W        W 7872  24.624  11.801  11.041
35547W        W 7873   5.968  40.910   3.262
35548W        W 7874  29.852  19.114   1.916
35549W        W 7875  14.561   1.699   1.344
35550W        W 7876   4.157  26.259  14.361
35551W        W 7877  22.978  18.873   4.231
35552W        W 7878  25.552  39.552  12.079
35553W        W 7879   6.404  42.011  13.943
35554W        W 7880  39.605  14.321   2.926
35555W        W 7881  22.020  19.953   4.493
35556W        W 7882  11.279  41.235   4.848
35557W        W 7883  36.813  32.243  13.286
35558W        W 7884  32.243  34.313   4.694
35559W        W 7885   5.699  30.873  12.609
35560W        W 7886   6.776  16.594  13.378
35561W        W 7887  37.121  39.045  12.614
35562W        W 7888  20.783   9.379  14.941
35563W        W 7889  25.255  30.956  11.572
35564W        W 7890  29.034  16.656   1.854
35565W        W 7891  38.580   5.411  14.982
35566W        W 7892   9.303   8.361   2.358
35567W        W 7893   2.887  20.778   0.452
35568W        W 7894  27.997   9.617   1.001
35569W        W 7895  42.325   6.942   1.219
35570W        W 7896   3.298  18.510  10.484
35571W        W 7897  39.364  32.533   3.075
35572W        W 7898  16.681   7.692  12.805
35573W        W 7899  34.336  31.354  13.324
35574W        W 7900   5.121  15.758   1.868
35575W        W 7901  18.165  21.666   4.658
35576W        W 7902   6.227  14.160  11.547
35577W        W 7903  29.906  37.661   4.371
35578W        W 7904  19.943   5.340  11.628
35579W        W 7905  25.907  35.874   1.467
35580W        W 7906  33.897   3.007  12.015
35581W        W 7907  24.900  44.334  11.678
35582W        W 7908  10.267   4.315   4.607
35583W        W 7909  40.921  39.035   2.792
35584W        W 7910  35.186   3.955  12.044
35585W        W 7911  12.830   2.955  13.784
35586W        W 7912  18.311  42.543   0.826
35587W        W 7913  42.754  43.327  14.914
35588W        W 7914  33.654  22.141   2.776
35589W        W 7915   8.721  36.323  10.630
35590W        W 7916  18.520   8.537  11.770
35591W        W 7917  17.860  32.509  14.002
35592W        W 7918  18.223  25.302   3.716
35593W        W 7919  20.259  37.820   1.489
35594W        W 7920   4.347  42.982   4.674
35595W        W 7921  42.003  11.681  11.215
35596W        W 7922  26.642  17.676   4.467
35597W        W 7923  13.093  34.836  12.951
35598W        W 7924  26.931  10.668  11.041
35599W        W 7925  42.499  34.208  12.473
35600W        W 7926  16.333  12.213  14.403
35601W        W 7927  41.399  37.852   4.216
35602W        W 7928  34.987  36.103  10.647
35603W        W 7929  40.268  41.977  11.152
35604W        W 7930  41.733  42.380  12.840
35605W        W 7931  41.410  30.476   2.056
35606W        W 7932  31.400  17.370  13.313
35607W        W 7933  26.692  24.013   0.498
35608W        W 7934   0.535   4.256  14.942
35609W        W 7935   3.059  37.500  14.913
35610W        W 7936   6.783  35.579  14.741
35611W        W 7937  20.942  15.420   4.974
35612W        W 7938  25.875  29.114  13.059
35613W        W 7939  11.593  16.078  11.087
35614W        W 7940  12.107  25.230   0.897
35615W        W 7941  23.082  17.496  11.089
35616W        W 7942  29.576  37.951  14.301
35617W        W 7943  19.613   0.429  12.952
35618W        W 7944  38.807  44.484   9.973
35619W        W 7945  20.264  35.126  14.332
35620W        W 7946   6.714   7.277   4.341
35621W        W 7947  21.096  21.761  12.083
35622W        W 7948  39.229  18.309   1.869
35623W        W 7949  27.484   2.057  14.341
35624W        W 7950  22.032  32.131   3.246
35625W        W 7951   9.774  40.772  11.578
35626W        W 7952  21.958  12.126   3.975
35627W        W 7953  26.200  14.889   2.908
35628W        W 7954  34.633  20.668  14.528
35629W        W 7955   7.783  36.658  12.820
35630W        W 7956  12.858  29.486  11.557
35631W        W 7957  18.153  27.633   0.530
35632W        W 7958  18.639  34.818  11.797
35633W        W 7959  33.583  44.835  12.506
35634W        W 7960  27.221  10.187   4.990
35635W        W 7961  37.356   5.947   2.176
35636W        W 7962  44.668  41.847   4.586
35637W        W 7963   2.011   0.925   4.368
35638W        W 7964  37.002  25.336   2.896
35639W        W 7965  24.768  32.010   1.448
35640W        W 7966   9.558  20.508  11.174
35641W        W 7967  30.680  39.307  10.718
35642W        W 7968  24.919   4.613   9.943
35643W        W 7969   5.429  36.047  12.005
35644W        W 7970  10.951  28.435  11.563
35645W        W 7971  13.831  36.053   0.898
35646W        W 7972  33.955  32.660   3.232
35647W        W 7973  25.439  37.076  12.987
35648W        W 7974  27.647  18.298   3.301
35649W        W 7975  31.920  22.707   4.946
35650W        W 7976  37.739  22.518   0.284
35651W        W 7977   3.427  42.731  13.633
35652W        W 7978  16.537  44.854   1.314
35653W        W 7979  23.105  16.816  14.985
35654W        W 7980   0.535  21.071   2.782
35655W        W 7981  24.299  13.884  11.375
35656W        W 7982  27.253  22.576  11.503
35657W        W 7983  38.879  25.819  10.670
35658W        W 7984  21.947  29.363   4.246
35659W        W 7985   9.632  12.595   0.009
35660W        W 7986  27.161   8.011  13.808
35661W        W 7987  13.801   7.766  12.240
35662W        W 7988  32.230   1.299  10.992
35663W        W 7989  22.631   4.850   0.734
35664W        W 7990  14.906   1.777  11.180
35665W        W 7991  17.224  25.419   0.479
35666W        W 7992  31.643  37.863  11.879
35667W        W 7993  12.563  43.917   0.079
35668W        W 7994   1.038   8.082   3.688
35669W        W 7995  33.656  22.660  11.704
35670W        W 7996  23.522  10.240  12.405
35671W        W 7997  24.997  25.222   2.191
35672W        W 7998  28.451  29.863  14.327
35673W        W 7999  25.997   0.526  12.972
35674W        W 8000   3.870  15.333   4.289
35675W        W 8001  11.883  28.420  10.540
35676W        W 8002  25.867  15.611   1.927
35677W        W 8003  28.045  20.059   3.705
35678W        W 8004  25.828  37.246  12.510
35679W        W 8005  15.230  22.520  10.951
35680W        W 8006  23.004  34.865   0.215
35681W        W 8007   7.645  43.389   0.425
35682W        W 8008  36.503  10.688   0.296
35683W        W 8009  15.010  33.842  11.417
35684W        W 8010   5.434  18.540   1.782
35685W        W 8011  17.543  36.567   2.273
35686W        W 8012  18.635  26.128  11.129
35687W        W 8013  37.299   1.436  11.122
35688W        W 8014  44.284   3.003  10.943
35689W        W 8015  21.779  29.459  14.358
35690W        W 8016  41.564  33.673  13.028
35691W        W 8017  30.598  39.047   3.264
35692W        W 8018  21.615   9.333   3.332
35693W        W 8019  31.555  23.967  12.999
35694W        W 8020  37.505  44.759   1.891
35695W        W 8021  20.841   6.137   0.993
35696W        W 8022  44.003  16.415   4.950
35697W        W 8023  30.499  31.457  11.969
35698W        W 8024  11.608  14.914  13.272
35699W        W 8025  12.126  26.391  11.482
35700W        W 8026  36.377  16.865   2.860
35701W        W 8027  31.150  17.717   0.935
35702W        W 8028  28.451  29.159   1.902
35703W        W 8029  38.896  38.493  10.500
35704W        W 8030  43.408   7.686   3.628
35705W        W 8031  15.800   1.788   1.807
35706W        W 8032  39.321   5.848  10.687
35707W        W 8033  43.403   6.233  11.668
35708W        W 8034  41.786  40.404   1.197
35709W        W 8035  31.570  21.050   2.640
35710W        W 8036  37.578  27.987   2.762
35711W        W 8037  36.994   0.879  13.774
35712W        W 8038  25.464  27.123   3.760
35713W        W 8039  25.011  33.513  12.469
35714W        W 8040  10.705  40.818  11.210
35715W        W 8041  20.177  39.635  13.404
35716W        W 8042  28.014  12.269  11.732
35717W        W 8043  23.506  40.833   2.921
35718W        W 8044  27.581   9.846  14.765
35719W        W 8045  24.339  31.595  13.279
35720W        W 8046  43.734   7.540  14.518
35721W        W 8047  14.870  25.247  13.590
35722W        W 8048  14.613   1.857   2.841
35723W        W 8049   8.326  13.327   1.912
35724W        W 8050  41.423  44.028   4.619
35725W        W 8051  39.001  22.305   1.922
35726W        W 8052   2.187  21.600   9.947
35727W        W 8053  30.985   1.340  14.881
35728W        W 8054  11.587  11.796  11.088
35729W        W 8055  38.657   4.703  14.342
35730W        W 8056  29.993  24.338  13.766
35731W        W 8057   5.847  16.228   4.073
35732W        W 8058  34.606  25.777   4.764
35733W        W 8059  13.731  26.216  14.005
35734W        W 8060  21.819   8.003   0.775
35735W        W 8061  18.433  26.965   3.963
35736W        W 8062  38.887  37.032   4.397
35737W        W 8063   6.549  28.113  12.908
35738W        W 8064   6.270  13.779   1.548
35739W        W 8065  32.756   2.694   1.905
35740W        W 8066  29.860  18.986  10.648
35741W        W 8067  30.462   1.686   1.868
35742W        W 8068  41.325  12.275  12.161
35743W        W 8069  22.624  15.268   2.454
35744W        W 8070  40.441  28.926   4.576
35745W        W 8071  41.513  42.804   4.391
35746W        W 8072  34.718  43.668   1.468
35747W        W 8073  21.528  12.259   2.258
35748W        W 8074  33.690   9.561   3.394
35749W        W 8075  40.927  29.953   0.222
35750W        W 8076  41.035  23.028  11.655
35751W        W 8077  41.871  11.194  12.446
35752W        W 8078  33.961  13.970   0.399
35753W        W 8079  41.670  40.320  13.428
35754W        W 8080  15.768   6.702   3.603
35755W        W 8081  28.946  32.667  14.488
35756W        W 8082   2.436   0.491   2.209
35757W        W 8083  39.137   2.899  12.975
35758W        W 8084  12.113  36.471  11.589
35759W        W 8085  21.384  36.758   5.729
35760W        W 8086  28.529  32.547   0.747
35761W        W 8087  26.252  15.681   0.201
35762W        W 8088  29.733  33.115   4.372
35763W        W 8089  10.625   5.608  11.634
35764W        W 8090  37.391   2.952   4.662
35765W        W 8091  43.078  10.350   4.079
35766W        W 8092  17.837  18.188   0.968
35767W        W 8093  20.188  31.426   0.217
35768W        W 8094  11.297  12.290   3.712
35769W        W 8095  33.774  23.846   9.977
35770W        W 8096  30.203  28.152  14.513
35771W        W 8097  15.075  22.697  14.382
35772W        W 8098  18.257  22.023   1.190
35773W        W 8099   4.362  15.270  10.448
35774W        W 8100  22.612  25.234   2.833
35775W        W 8101  37.159  44.511  13.232
35776W        W 8102   1.516   7.509  12.556
35777W        W 8103  44.573  33.115   3.304
35778W        W 8104   2.219   6.687   0.379
35779W        W 8105  11.555   8.099  13.110
35780W        W 8106  12.755  33.989  14.907
35781W        W 8107  30.544   8.707  13.349
35782W        W 8108   7.637  11.106  12.220
35783W        W 8109  29.878  37.356   0.510
35784W        W 8110  27.020   8.742   2.816
35785W        W 8111  24.950  39.021  13.972
35786W        W 8112  24.178  29.799   3.663
35787W        W 8113  10.371  11.376   9.997
35788W        W 8114   0.920  29.678  12.865
35789W        W 8115  33.791  37.397  11.876
35790W        W 8116  21.986  41.071   3.780
35791W        W 8117  16.200   5.872   2.808
35792W        W 8118   9.914  22.164   2.498
35793W        W 8119  39.323  20.586  12.370
35794W        W 8120  39.574  24.707   2.775
35795W        W 8121  28.079  20.049  11.589
35796W        W 8122  18.796  31.805   1.904
35797W        W 8123  26.194  19.608   2.343
35798W        W 8124  42.817  33.138   0.592
35799W        W 8125  20.973  17.315   0.291
35800W        W 8126   7.823  13.344   4.695
35801W        W 8127  37.055  39.068  11.251
35802W        W 8128   2.204  31.824   2.477
35803W        W 8129   3.495   0.369   1.336
35804W        W 8130  12.688  12.560   4.960
35805W        W 8131  30.488   6.818   0.731
35806W        W 8132  16.080  44.227  12.020
35807W        W 8133  40.594  33.886   3.117
35808W        W 8134   1.986  23.586   2.253
35809W        W 8135  38.264  13.098  11.949
35810W        W 8136  41.399  41.484   1.843
35811W        W 8137  39.892  43.355  14.126
35812W        W 8138  42.886   0.195   4.799
35813W        W 8139   0.849  13.448  11.620
35814W        W 8140  21.137  17.375   2.504
35815W        W 8141  29.247  36.292  14.046
35816W        W 8142   2.658  44.879  10.666
35817W        W 8143  12.435  24.014  13.085
35818W        W 8144  36.660  10.632  13.077
35819W        W 8145  34.490  20.772   2.349
35820W        W 8146  32.889  42.314  13.089
35821W        W 8147  18.431  43.566  11.598
35822W        W 8148  14.044  24.029   4.110
35823W        W 8149  41.822   3.924   4.127
35824W        W 8150  11.360  11.780   3.613
35825W        W 8151  13.128  40.862  13.331
35826W        W 8152   2.980  42.984  13.567
35827W        W 8153  10.747   9.323  14.054
35828W        W 8154   5.458  44.257  11.643
35829W        W 8155  14.442  26.636   5.076
35830W        W 8156  11.774  10.824   1.826
35831W        W 8157  16.632   5.393  10.934
35832W        W 8158  14.065  20.629  12.589
35833W        W 8159  38.727  12.183  11.239
35834W        W 8160  19.955   6.707   2.578
35835W        W 8161  13.297  19.475   0.292
35836W        W 8162   7.146  23.989   3.188
35837W        W 8163   1.462  38.403  11.495
35838W        W 8164   8.153  31.526   0.596
35839W        W 8165   7.708   6.164   2.093
35840W        W 8166  27.007  28.580  11.941
35841W        W 8167  17.157  18.197  14.798
35842W        W 8168  15.215   5.195  14.361
35843W        W 8169  30.396  21.181   2.330
35844W        W 8170  18.280  37.046  12.956
35845W        W 8171  11.830   3.907  11.497
35846W        W 8172  39.966  33.897  14.076
35847W        W 8173   2.492   7.653  14.495
35848W        W 8174   8.550   1.068   0.733
35849W        W 8175   3.607   0.042  12.453
35850W        W 8176  35.505   0.707  14.826
35851W        W 8177  17.515   2.216   1.425
35852W        W 8178  35.640   3.968   3.075
35853W        W 8179  12.439  30.802   3.216
35854W        W 8180  19.577  16.614   4.588
35855W        W 8181  31.574  30.064   3.146
35856W        W 8182   5.648  16.336   2.286
35857W        W 8183  35.864  13.218  12.830
35858W        W 8184  23.722  34.939   0.778
35859W        W 8185  26.135  24.727   4.744
35860W        W 8186  36.480   6.308  10.306
35861W        W 8187  44.322  42.526  10.050
35862W        W 8188  40.458  37.508  14.464
35863W        W 8189  23.031  23.133  10.547
35864W        W 8190  19.593  10.735   4.568
35865W        W 8191  17.717  29.087   3.129
35866W        W 8192  32.546  12.692  14.334
35867W        W 8193  44.980  35.831   4.642
35868W        W 8194  15.209  44.646   0.276
35869W        W 8195   9.154  32.508  12.974
35870W        W 8196  29.095   1.326   1.448
35871W        W 8197  30.908  12.324   1.282
35872W        W 8198  34.356  14.697   4.573
35873W        W 8199  37.773  31.569  11.822
35874W        W 8200  28.998  28.199  10.732
35875W        W 8201  19.882  14.129   0.261
35876W        W 8202  22.550  13.234   2.450
35877W        W 8203  39.487  36.518   3.203
35878W        W 8204  19.141  24.924  13.357
35879W        W 8205  44.722  44.816  14.837
35880W        W 8206  14.392   7.757  10.932
35881W        W 8207  20.494   7.232   2.372
35882W        W 8208  16.008  14.199   4.055
35883W        W 8209  16.222  29.520  10.639
35884W        W 8210  26.952  33.948   2.012
35885W        W 8211  10.225  22.531  12.255
35886W        W 8212  13.354  44.686  11.437
35887W        W 8213  43.473  38.875   0.694
35888W        W 8214  39.440  42.036  12.531
35889W        W 8215  27.571  12.096   1.476
35890W        W 8216  33.368  10.431   3.782
35891W        W 8217   6.708  20.508  11.145
35892W        W 8218   6.662   2.568  11.404
35893W        W 8219  28.895  12.026  10.962
35894W        W 8220  36.055  28.989   3.875
35895W        W 8221  23.145  30.459  11.728
35896W        W 8222  20.862   5.683   2.335
35897W        W 8223  29.511   1.524   1.660
35898W        W 8224  11.665  25.705   3.115
35899W        W 8225  33.465  36.099  10.150
35900W        W 8226  42.194   1.925  14.260
35901W        W 8227   2.865  34.384   2.859
35902W        W 8228  34.753  34.196  11.831
35903W        W 8229  42.072  32.020   2.645
35904W        W 8230   3.100   3.904  14.050
35905W        W 8231  30.826  34.373   3.732
35906W        W 8232  12.289  21.723  14.508
35907W        W 8233  42.653  24.708   1.422
35908W        W 8234  32.479   4.981   3.688
35909W        W 8235   6.908   9.618   3.659
35910W        W 8236  29.382  40.594  13.737
35911W        W 8237  39.846  18.634   3.060
35912W        W 8238  30.897  27.032   2.941
35913W        W 8239  15.215  12.208  10.698
35914W        W 8240   2.841  22.506  10.981
35915W        W 8241   1.026  39.824   3.855
35916W        W 8242  17.295  14.375   3.345
35917W        W 8243   0.770  33.961  11.554
35918W        W 8244  32.118  29.904  12.853
35919W        W 8245  41.428  38.586   0.474
35920W        W 8246  30.127  24.063  10.554
35921W        W 8247  20.960   8.398  11.357
35922W        W 8248   9.046  21.051  11.207
35923W        W 8249  16.566   3.239   4.565
35924W        W 8250   1.727   3.877  14.959
35925W        W 8251  16.006  32.801  12.972
35926W        W 8252  23.529  18.779   0.792
35927W        W 8253  34.603  23.051   3.332
35928W        W 8254  23.492  38.983  13.901
35929W        W 8255  31.457  25.078  12.900
35930W        W 8256  35.460  28.402   2.237
35931W        W 8257  35.512  10.744  11.956
35932W        W 8258  38.454   1.800  14.410
35933W        W 8259   2.422  23.040   9.931
35934W        W 8260  43.636  30.405  12.053
35935W        W 8261  28.498  20.111  13.378
35936W        W 8262  17.166   0.748  14.556
35937W        W 8263  32.447  10.846   2.209
35938W        W 8264  36.373   6.926  11.946
35939W        W 8265  23.204  16.100   1.830
35940W        W 8266   9.909  19.779  12.569
35941W        W 8267  12.656  24.462  14.858
35942W        W 8268  18.568   2.306   0.118
35943W        W 8269  43.933   4.887   1.406
35944W        W 8270  44.687  18.974  11.070
35945W        W 8271  31.582  30.137   4.658
35946W        W 8272   0.326  42.958  14.982
35947W        W 8273  29.151  36.415   4.877
35948W        W 8274  38.046  11.634   2.238
35949W        W 8275  28.994  23.140   2.950
35950W        W 8276  35.549   1.021  13.852
35951W        W 8277  31.537  37.641  12.625
35952W        W 8278   6.435  44.377   2.340
35953W        W 8279  15.482  12.360   0.019
35954W        W 8280  10.242  12.653  12.618
35955W        W 8281  38.158  10.711  12.908
35956W        W 8282  12.304  25.119  14.463
35957W        W 8283  42.348  25.527   1.734
35958W        W 8284  43.528  20.718   3.115
35959W        W 8285  31.624  39.222   4.159
35960W        W 8286   3.016  37.421  11.115
35961W        W 8287  36.893   7.764  11.062
35962W        W 8288   2.971  31.872  12.877
35963W        W 8289   0.948   7.135  12.939
35964W        W 8290   5.860   7.690   3.955
35965W        W 8291  22.566  23.722   3.717
35966W        W 8292  10.877  31.111   4.208
35967W        W 8293  13.726   4.695  13.561
35968W        W 8294  34.948  39.073  11.579
35969W        W 8295  43.930  13.608   2.243
35970W        W 8296  19.773   6.389  14.576
35971W        W 8297  42.970  12.286   0.015
35972W        W 8298  41.466  27.025   4.160
35973W        W 8299  16.754  33.073  12.042
35974W        W 8300  41.248  42.372  11.963
35975W        W 8301  11.252  29.212  13.879
35976W        W 8302   4.931  34.409   1.464
35977W        W 8303  25.647  18.339   2.145
35978W        W 8304  33.805  37.800   4.633
35979W        W 8305  17.300  38.498  14.965
35980W        W 8306  24.372  15.230  13.458
35981W        W 8307  18.723   6.700   3.724
35982W        W 8308  34.902  17.048   3.253
35983W        W 8309   8.753  13.091   1.272
35984W        W 8310  20.270   6.821   1.458
35985W        W 8311   2.010  41.628  14.809
35986W        W 8312  13.121  22.026   3.657
35987W        W 8313  25.102  25.567   0.220
35988W        W 8314  41.728  27.493  11.552
35989W        W 8315  11.199  11.331  14.343
35990W        W 8316   5.916  38.388  11.067
35991W        W 8317  36.115  16.823   0.316
35992W        W 8318  40.766  39.871  14.369
35993W        W 8319  15.899  35.895  13.910
35994W        W 8320  16.665  24.373  11.487
35995W        W 8321  31.496  13.177  14.554
35996W        W 8322  16.088   5.933  14.685
35997W        W 8323  42.061  13.294   2.765
35998W        W 8324  25.392  35.632   0.286
35999W        W 8325  12.432  19.970  11.167
36000W        W 8326  30.919   7.916   3.109
36001W        W 8327  32.310  19.769  11.148
36002W        W 8328  36.119  23.185   4.856
36003W        W 8329  19.045   9.615   2.698
36004W        W 8330  25.168   0.673  10.769
36005W        W 8331  35.528  29.523   4.344
36006W        W 8332  10.400  17.719  11.202
36007W        W 8333  20.738   5.587   4.554
36008W        W 8334  33.700  19.434  12.616
36009W        W 8335   5.768  17.182   2.844
36010W        W 8336  21.578   4.268   3.853
36011W        W 8337  42.644  11.325   4.433
36012W        W 8338  12.874  10.388  12.229
36013W        W 8339   9.579  40.938  14.887
36014W        W 8340  42.823  40.606  13.463
36015W        W 8341  32.924  38.372   2.124
36016W        W 8342   5.768   2.193  12.432
36017W        W 8343   6.148  25.514   2.005
36018W        W 8344  40.722  27.347   4.070
36019W        W 8345  42.442  11.076   4.037
36020W        W 8346  30.087  34.927   1.604
36021W        W 8347  16.535  17.873  12.609
36022W        W 8348  16.718   2.369   0.392
36023W        W 8349  29.928   6.809   1.895
36024W        W 8350   5.457  40.504   4.840
36025W        W 8351   0.782   7.952  13.839
36026W        W 8352  32.541  25.213  11.159
36027W        W 8353  14.736  18.289   3.679
36028W        W 8354  12.448  44.888  10.726
36029W        W 8355   9.899  35.426   1.524
36030W        W 8356  21.277  14.439   1.891
36031W        W 8357  14.716  15.586  13.420
36032W        W 8358  22.774  43.409  11.352
36033W        W 8359   7.372  27.454   4.679
36034W        W 8360   0.891  23.646   4.159
36035W        W 8361   2.415  26.373   4.145
36036W        W 8362   6.652  39.132   4.160
36037W        W 8363   5.186   7.249  12.772
36038W        W 8364  30.978  31.554   2.655
36039W        W 8365   5.707  23.685  10.803
36040W        W 8366  17.070  36.935  13.880
36041W        W 8367  42.142  20.188   2.744
36042W        W 8368  43.307  24.943   0.429
36043W        W 8369  18.286  35.921  14.049
36044W        W 8370   5.778   7.895  12.447
36045W        W 8371  35.476  36.474  10.521
36046W        W 8372  30.229  32.407  13.947
36047W        W 8373  34.469  40.830  11.627
36048W        W 8374  44.561  14.661  13.514
36049W        W 8375  38.950   8.485  10.900
36050W        W 8376   1.679  28.210  13.395
36051W        W 8377  24.070  22.156   2.441
36052W        W 8378  36.034  30.393   3.650
36053W        W 8379  11.370  35.544   1.352
36054W        W 8380  13.883  41.933   2.444
36055W        W 8381  31.090  19.139  14.583
36056W        W 8382  25.236  44.484   4.191
36057W        W 8383  38.369  32.328  12.138
36058W        W 8384  33.148  22.588   1.379
36059W        W 8385   6.777  24.933  13.586
36060W        W 8386  35.599   8.769   3.725
36061W        W 8387  10.872  44.858  13.986
36062W        W 8388   5.412  36.874   0.457
36063W        W 8389  31.094   7.220   1.412
36064W        W 8390  18.186  19.223   0.726
36065W        W 8391  44.565   3.447   1.279
36066W        W 8392  21.796  28.462   0.175
36067W        W 8393  17.477   0.376   3.976
36068W        W 8394  22.416   7.347   4.488
36069W        W 8395  15.112  36.737  12.854
36070W        W 8396   6.140  36.272   3.292
36071W        W 8397  36.449  13.606   2.140
36072W        W 8398   0.935  29.862   0.714
36073W        W 8399  23.120  24.219  11.630
36074W        W 8400  44.371  25.301  12.095
36075W        W 8401  18.115   8.134  12.970
36076W        W 8402  32.049  31.366   3.623
36077W        W 8403  21.771  23.128   4.881
36078W        W 8404  15.487  31.337  13.982
36079W        W 8405   6.824  37.675   0.772
36080W        W 8406  36.522  18.021  13.566
36081W        W 8407  33.472  18.796   0.380
36082W        W 8408  38.062   3.754  13.115
36083W        W 8409  33.042  35.307  12.768
36084W        W 8410  32.590  25.513   0.748
36085W        W 8411   1.206  42.409   4.867
36086W        W 8412  14.773  37.596  14.837
36087W        W 8413   0.786   5.958   1.973
36088W        W 8414  24.102   8.948  13.362
36089W        W 8415  39.082  20.781   2.729
36090W        W 8416   0.838   3.368  14.418
36091W        W 8417  32.148   0.811  13.080
36092W        W 8418  31.416   1.385  12.618
36093W        W 8419  24.008   4.347   2.589
36094W        W 8420   6.816  24.057  10.668
36095W        W 8421  28.432  22.036   3.866
36096W        W 8422  24.014  19.540  11.081
36097W        W 8423   8.963  17.702  12.913
36098W        W 8424  39.310   1.355   4.877
36099W        W 8425  40.026  39.609  13.875
36100W        W 8426  38.527  32.455  14.065
36101W        W 8427  38.772  22.600   2.715
36102W        W 8428  27.507   6.906  10.666
36103W        W 8429  43.540  12.899   3.243
36104W        W 8430  23.216   9.740   4.316
36105W        W 8431   6.891  16.834   1.777
36106W        W 8432  10.666  35.881   1.279
36107W        W 8433   0.479  16.775  13.472
36108W        W 8434  37.131  10.809  10.804
36109W        W 8435  44.845  23.210   2.354
36110W        W 8436  26.247  38.103   4.145
36111W        W 8437   0.496   3.774   1.599
36112W        W 8438  32.632  41.254  13.603
36113W        W 8439  27.495  27.256  14.693
36114W        W 8440  17.169  25.970  13.087
36115W        W 8441  22.700   2.153   1.261
36116W        W 8442  18.024   4.406  11.167
36117W        W 8443  23.962  38.911   3.780
36118W        W 8444  42.745   6.180  12.320
36119W        W 8445  41.497  43.992  11.596
36120W        W 8446  21.348   4.073  13.927
36121W        W 8447   1.203  13.053   2.136
36122W        W 8448  17.531  43.528  12.502
36123W        W 8449  12.401  38.385   3.390
36124W        W 8450  25.923  31.080  13.266
36125W        W 8451  18.093   8.152  13.892
36126W        W 8452  33.732   8.770   0.036
36127W        W 8453  23.932  36.718   3.194
36128W        W 8454   8.006   0.770   3.579
36129W        W 8455   2.935  38.415  10.357
36130W        W 8456  33.694  42.406   3.189
36131W        W 8457  12.717  37.378   5.037
36132W        W 8458   4.700  13.727  12.914
36133W        W 8459   2.434  24.478   9.842
36134W        W 8460   3.549   0.299  12.900
36135W        W 8461  12.876  43.814  13.548
36136W        W 8462  40.879  28.081  10.899
36137W        W 8463  28.013  40.473  12.779
36138W        W 8464  27.583  23.520  12.029
36139W        W 8465  34.093  20.723   4.560
36140W        W 8466  36.492  28.031  12.898
36141W        W 8467  19.357  36.354   2.920
36142W        W 8468  21.444  18.609   2.217
36143W        W 8469  37.631  10.851  11.528
36144W        W 8470  39.814  37.629   3.677
36145W        W 8471  39.512  34.563  13.817
36146W        W 8472  10.631  18.196   1.777
36147W        W 8473  44.317   2.934   0.297
36148W        W 8474  41.094   8.715  11.114
36149W        W 8475  31.555  39.053  12.344
36150W        W 8476  36.153  13.664  10.597
36151W        W 8477  15.084  40.027   4.586
36152W        W 8478  34.485  25.895  11.876
36153W        W 8479  15.114  26.554   2.878
36154W        W 8480  34.306  44.321   1.397
36155W        W 8481  28.962  12.445   1.422
36156W        W 8482  34.755  17.314  11.639
36157W        W 8483  16.577  34.076   2.699
36158W        W 8484  44.842  44.020   2.739
36159W        W 8485  15.686  15.214   3.879
36160W        W 8486  26.637  19.700   4.385
36161W        W 8487   7.749  23.200  13.895
36162W        W 8488   2.165  12.153  12.103
36163W        W 8489   1.576  13.905   3.069
36164W        W 8490  15.181   8.840   3.161
36165W        W 8491  10.187  11.564   2.275
36166W        W 8492  20.978  31.622  14.772
36167W        W 8493   2.043  13.756   2.811
36168W        W 8494  16.304  30.915   0.436
36169W        W 8495  42.046  34.094   4.972
36170W        W 8496   6.771  38.811  13.109
36171W        W 8497  28.073  27.954   3.242
36172W        W 8498  36.023  20.972  13.334
36173W        W 8499  44.397  40.870   0.102
36174W        W 8500  35.314  10.765  10.822
36175W        W 8501   3.528   6.700  14.921
36176W        W 8502  17.952   5.332  13.571
36177W        W 8503  10.661  33.451   4.675
36178W        W 8504  30.500  37.529  12.102
36179W        W 8505   3.342  22.814   3.112
36180W        W 8506  14.121  29.880   2.817
36181W        W 8507  37.526  28.506   2.376
36182W        W 8508   3.862  24.812   2.245
36183W        W 8509  21.120  42.987  10.629
36184W        W 8510   7.765  10.564   1.132
36185W        W 8511  18.246  44.730   2.377
36186W        W 8512  29.382   0.721   3.327
36187W        W 8513  22.943  41.425   3.245
36188W        W 8514  32.507  15.792   1.708
36189W        W 8515   2.214  38.458   3.198
36190W        W 8516   2.414  23.993   9.670
36191W        W 8517  14.871  14.861   3.067
36192W        W 8518  21.148  22.988   2.093
36193W        W 8519  39.125  30.119  10.983
36194W        W 8520  34.350  43.919   1.731
36195W        W 8521  41.547  31.601  11.613
36196W        W 8522  14.819   6.918  11.135
36197W        W 8523   6.165  15.292  12.881
36198W        W 8524   4.001  29.851  14.249
36199W        W 8525  27.924  24.451   1.434
36200W        W 8526  11.618  25.084  13.909
36201W        W 8527  24.182  39.578   5.154
36202W        W 8528   9.740  34.609  12.344
36203W        W 8529  29.420  21.325   1.541
36204W        W 8530  21.413   3.451  11.117
36205W        W 8531   7.868  43.881   0.404
36206W        W 8532  26.338  23.159  14.492
36207W        W 8533  27.533  41.773  12.431
36208W        W 8534  34.992  15.632   0.980
36209W        W 8535  29.493  35.654  12.242
36210W        W 8536  21.477  35.358   2.666
36211W        W 8537  26.179  13.174  12.641
36212W        W 8538  27.945  18.172   3.710
36213W        W 8539   9.480  43.638   2.790
36214W        W 8540   8.167  21.444  11.605
36215W        W 8541  14.553  24.058   4.925
36216W        W 8542  41.838   2.469  11.503
36217W        W 8543   1.996  28.742   0.964
36218W        W 8544   8.320   7.756  11.885
36219W        W 8545  14.337  28.045   0.988
36220W        W 8546  21.125  35.348  13.569
36221W        W 8547  10.444   2.817  10.682
36222W        W 8548  27.205  39.011  12.556
36223W        W 8549  23.787   9.078  14.038
36224W        W 8550  27.599  16.859   2.235
36225W        W 8551  32.074   9.306   1.512
36226W        W 8552  27.393  42.334  10.705
36227W        W 8553  30.440  37.092   3.556
36228W        W 8554  10.870  14.763  11.552
36229W        W 8555  29.611  41.465  10.876
36230W        W 8556  31.350  37.315  13.580
36231W        W 8557   6.825  36.989  10.752
36232W        W 8558  37.234  16.389  13.366
36233W        W 8559   8.411  28.107   4.601
36234W        W 8560  39.252  13.915   2.856
36235W        W 8561  43.480  30.721  12.422
36236W        W 8562   8.694   0.227   0.296
36237W        W 8563  40.624  43.880  13.860
36238W        W 8564  37.373   5.001  12.876
36239W        W 8565  27.601  17.787  12.513
36240W        W 8566  35.191  12.464   1.043
36241W        W 8567  38.450  42.076   1.896
36242W        W 8568  24.795  16.543   0.281
36243W        W 8569  26.927   4.786  13.835
36244W        W 8570   3.215  13.672   1.310
36245W        W 8571  36.861   4.928  14.848
36246W        W 8572  30.396  15.698  10.526
36247W        W 8573  27.805  18.164   2.404
36248W        W 8574  29.006  11.780  14.713
36249W        W 8575  23.320  39.899   4.267
36250W        W 8576  12.472  13.220  11.818
36251W        W 8577   7.814  43.765  11.878
36252W        W 8578  26.405  30.379   1.823
36253W        W 8579   4.959  41.115  13.431
36254W        W 8580  30.194  35.887   1.250
36255W        W 8581  34.525   6.191  14.912
36256W        W 8582   6.875  38.380   1.824
36257W        W 8583  33.039   6.184   3.863
36258W        W 8584  17.701   5.212  10.580
36259W        W 8585  31.428  25.446   3.815
36260W        W 8586  17.992  19.008  11.526
36261W        W 8587  19.139  22.000   1.309
36262W        W 8588  39.822  39.563  12.801
36263W        W 8589  13.086  34.461   1.808
36264W        W 8590  31.412  27.920   3.634
36265W        W 8591  28.254  35.506  14.866
36266W        W 8592  20.952  30.420   2.792
36267W        W 8593  18.835   5.882   4.648
36268W        W 8594  14.839  35.932   1.272
36269W        W 8595   7.985  20.594  13.833
36270W        W 8596   8.281  30.613   0.927
36271W        W 8597  24.725   8.030  14.761
36272W        W 8598  11.545  28.592   3.675
36273W        W 8599  43.481  31.903   2.716
36274W        W 8600  40.564   3.860   3.289
36275W        W 8601  39.388   5.065   0.525
36276W        W 8602  33.582   5.564  14.826
36277W        W 8603  24.121  23.461  13.881
36278W        W 8604  21.043  18.552  12.144
36279W        W 8605  34.569   8.754   3.645
36280W        W 8606  29.243  18.134  14.922
36281W        W 8607  34.460  20.527  11.405
36282W        W 8608   0.904  11.394  13.332
36283W        W 8609  42.320   3.526  14.303
36284W        W 8610  33.497  26.652   2.516
36285W        W 8611  12.921   9.130  12.489
36286W        W 8612  44.043  32.183   4.204
36287W        W 8613  15.918  23.677   2.213
36288W        W 8614  14.195   9.876   3.216
36289W        W 8615  30.727   7.252   3.143
36290W        W 8616  38.439   0.499   2.859
36291W        W 8617  19.212  25.517   2.646
36292W        W 8618  34.163  28.425  11.518
36293W        W 8619  24.616  15.994   1.344
36294W        W 8620   6.920  35.036   2.871
36295W        W 8621  17.221  13.689  12.504
36296W        W 8622  35.465   5.066  13.874
36297W        W 8623  12.663  20.554   4.667
36298W        W 8624  42.022  16.843   1.690
36299W        W 8625  30.920  34.607  13.115
36300W        W 8626  11.406   4.915  12.466
36301W        W 8627  40.014  12.344  11.967
36302W        W 8628   4.968  28.541  11.980
36303W        W 8629  44.008  23.979  12.712
36304W        W 8630   4.252   6.008  12.515
36305W        W 8631  37.326  13.165  13.017
36306W        W 8632   2.467  43.810   4.711
36307W        W 8633   8.671  21.469   4.484
36308W        W 8634   5.593  44.612   3.223
36309W        W 8635   1.959  33.908  10.577
36310W        W 8636  22.216   2.795  12.483
36311W        W 8637  43.751  31.541   1.826
36312W        W 8638  18.084  10.823  12.070
36313W        W 8639  31.901   5.779   1.708
36314W        W 8640  15.104  26.925   0.698
36315W        W 8641  41.999  39.537  13.950
36316W        W 8642  10.075   1.380  14.911
36317W        W 8643  40.355  39.520   1.409
36318W        W 8644  31.925   8.300   4.638
36319W        W 8645  36.040  26.053   1.410
36320W        W 8646   4.794  29.343   3.786
36321W        W 8647  22.474  25.952   4.610
36322W        W 8648  18.153  22.527   1.201
36323W        W 8649  44.135   3.886   2.745
36324W        W 8650  40.044  42.876  13.071
36325W        W 8651   9.260   6.718   1.830
36326W        W 8652  39.967  25.938   0.588
36327W        W 8653  29.114   3.120   3.785
36328W        W 8654  33.716  30.999  12.719
36329W        W 8655  43.222   6.236   0.855
36330W        W 8656  17.552  12.013  14.031
36331W        W 8657   8.013  15.660   1.204
36332W        W 8658  29.010  44.612   3.743
36333W        W 8659  29.162   5.788  11.586
36334W        W 8660  42.330  42.616  10.525
36335W        W 8661  14.668  41.511   2.424
36336W        W 8662  36.557   1.482   4.272
36337W        W 8663   7.485  29.727   3.761
36338W        W 8664  40.364   5.498  13.424
36339W        W 8665   7.396  24.472   4.004
36340W        W 8666   0.540   1.780   0.318
36341W        W 8667  28.151  37.450   3.214
36342W        W 8668   9.608   7.985   3.647
36343W        W 8669  33.241  29.409   2.379
36344W        W 8670  30.955   6.760  13.384
36345W        W 8671  13.169  31.837  12.503
36346W        W 8672  19.302  31.375   4.190
36347W        W 8673  41.230  40.818  12.759
36348W        W 8674  21.824   5.435  12.174
36349W        W 8675  15.075  29.048  10.975
36350W        W 8676  30.080  24.168   0.775
36351W        W 8677  20.749   2.333  10.930
36352W        W 8678  29.622  19.067  12.402
36353W        W 8679  34.676   3.331  14.721
36354W        W 8680  41.854  14.078  12.200
36355W        W 8681  30.018  44.415  11.089
36356W        W 8682  10.693  32.656   3.298
36357W        W 8683  16.256   2.401  14.220
36358W        W 8684  21.681   4.154   2.125
36359W        W 8685  17.533  29.946  10.697
36360W        W 8686  44.002  25.283  11.179
36361W        W 8687  40.874   2.022  12.332
36362W        W 8688  29.660   4.865  13.878
36363W        W 8689   2.888  43.919   4.422
36364W        W 8690  15.820  16.386  13.022
36365W        W 8691  14.747   6.135   3.174
36366W        W 8692  32.591  16.843  14.793
36367W        W 8693  37.885  15.693  14.780
36368W        W 8694  18.596  16.939  11.146
36369W        W 8695  18.091  30.424  14.921
36370W        W 8696   2.294   7.824   3.686
36371W        W 8697  22.664  16.952   2.161
36372W        W 8698  39.916  28.909  12.470
36373W        W 8699  13.033  39.246  14.473
36374W        W 8700  42.102  38.447  14.724
36375W        W 8701  32.894  44.620  14.216
36376W        W 8702   7.956  13.255   2.721
36377W        W 8703  10.239  26.895   1.150
36378W        W 8704  34.886  11.590  11.519
36379W        W 8705  21.497  28.477   4.422
36380W        W 8706   8.142  22.626  14.870
36381W        W 8707  40.334  21.121   0.653
36382W        W 8708  31.043  19.649   0.284
36383W        W 8709  39.994  42.332  12.377
36384W        W 8710  37.775   9.193   2.434
36385W        W 8711  27.088  12.327  11.852
36386W        W 8712  35.183  16.251  13.337
36387W        W 8713  24.097  24.978   1.732
36388W        W 8714  15.865  28.506   0.863
36389W        W 8715  27.604  29.284  11.945
36390W        W 8716  15.386  44.117   0.784
36391W        W 8717  14.897  34.464   4.277
36392W        W 8718  39.979  39.303   2.786
36393W        W 8719  16.626  22.436   2.063
36394W        W 8720  28.137   7.990   0.892
36395W        W 8721   8.888  19.074  12.989
36396W        W 8722  27.490  19.752   4.871
36397W        W 8723  34.949  42.786   4.327
36398W        W 8724  13.161  44.876  11.987
36399W        W 8725   8.456  25.390   0.221
36400W        W 8726   6.696  39.714  13.045
36401W        W 8727   8.406  35.841  14.260
36402W        W 8728   2.471  33.728   0.807
36403W        W 8729  39.859  24.493   4.177
36404W        W 8730   5.096  18.200   3.918
36405W        W 8731  39.756  28.142  12.177
36406W        W 8732  24.343  23.955  13.917
36407W        W 8733  43.305  21.979   3.121
36408W        W 8734  31.057  33.199   4.570
36409W        W 8735  20.811  39.455   3.635
36410W        W 8736  15.104  15.890  11.481
36411W        W 8737  24.606  16.493   4.218
36412W        W 8738  29.215  12.345  10.683
36413W        W 8739  12.668  11.316   2.731
36414W        W 8740  17.551   3.978  12.901
36415W        W 8741  34.644  30.927  11.927
36416W        W 8742  34.454  19.268   0.333
36417W        W 8743  18.260  21.770  14.360
36418W        W 8744  33.561  17.626   3.699
36419W        W 8745   5.807  40.353  11.331
36420W        W 8746   4.105  18.316   2.375
36421W        W 8747   3.900   7.296  14.339
36422W        W 8748   1.930  27.437   3.667
36423W        W 8749   7.833  33.184  14.885
36424W        W 8750  16.938  21.463   5.218
36425W        W 8751  41.413  14.679   2.109
36426W        W 8752   1.481  13.290   1.764
36427W        W 8753  28.184   2.353  14.011
36428W        W 8754   4.039  35.582  11.610
36429W        W 8755  44.749   7.335   2.381
36430W        W 8756   5.036  42.606   4.134
36431W        W 8757  43.934  32.558   1.723
36432W        W 8758  21.766  10.374   1.971
36433W        W 8759  11.629  36.012   1.399
36434W        W 8760  16.099  34.571   0.096
36435W        W 8761  16.536  34.509  14.806
36436W        W 8762   5.287  39.876  11.345
36437W        W 8763  12.370  32.330  14.213
36438W        W 8764  31.987  21.820   0.410
36439W        W 8765  18.819  37.621   3.212
36440W        W 8766  42.059  41.791   1.212
36441W        W 8767  30.539   8.771   4.623
36442W        W 8768  15.195  15.094  12.966
36443W        W 8769  33.678  40.682  12.042
36444W        W 8770  41.494  34.492   2.241
36445W        W 8771  36.913  42.298  12.670
36446W        W 8772  43.327  14.228   1.863
36447W        W 8773  34.846  26.523   9.800
36448W        W 8774  15.536  10.376   3.228
36449W        W 8775  33.175  14.336   1.835
36450W        W 8776  24.524  16.519   2.747
36451W        W 8777  16.722  32.065  12.914
36452W        W 8778  15.693  41.470   4.039
36453W        W 8779  29.426  28.392  10.915
36454W        W 8780   8.397  20.310  12.977
36455W        W 8781  22.404  24.621  12.825
36456W        W 8782  10.576  26.961   3.191
36457W        W 8783  14.564   0.264  11.029
36458W        W 8784  14.101  15.118  12.811
36459W        W 8785  12.213  33.434  10.080
36460W        W 8786  27.485   1.340   3.205
36461W        W 8787  34.937  36.351   2.045
36462W        W 8788  30.381  29.175   0.822
36463W        W 8789  36.539  42.271  11.958
36464W        W 8790  35.499  42.461   1.100
36465W        W 8791  42.121   0.540   4.852
36466W        W 8792  30.514  35.823   4.551
36467W        W 8793  34.946   3.911  12.882
36468W        W 8794  39.426  41.102   4.210
36469W        W 8795   1.859   2.690   2.847
36470W        W 8796  38.297  26.123  12.380
36471W        W 8797  32.870  30.107   1.849
36472W        W 8798  21.637  15.372   2.169
36473W        W 8799   2.024  27.237  11.183
36474W        W 8800  25.200  36.826  14.895
36475W        W 8801   0.444  14.751   3.204
36476W        W 8802  24.549  10.793   4.109
36477W        W 8803  28.164  18.973   0.147
36478W        W 8804  39.464  34.350   0.976
36479W        W 8805  10.375  34.129  14.342
36480W        W 8806  38.548  44.832  11.615
36481W        W 8807  12.657  15.638   3.683
36482W        W 8808   6.754  31.620  11.965
36483W        W 8809  21.269  27.204  13.429
36484W        W 8810  27.245  25.251   0.324
36485W        W 8811  15.781   2.324  12.280
36486W        W 8812  13.817  18.312  11.380
36487W        W 8813  35.529  22.717   3.862
36488W        W 8814  24.968  10.815  12.963
36489W        W 8815   2.402   4.401   5.139
36490W        W 8816  29.571  15.165  12.059
36491W        W 8817  26.256  25.138  14.308
36492W        W 8818  19.583   6.678   2.935
36493W        W 8819  25.698  32.794   3.440
36494W        W 8820  37.601  41.586   1.657
36495W        W 8821  20.552  22.215   3.204
36496W        W 8822  14.892  11.656   2.016
36497W        W 8823  44.798  25.997  14.329
36498W        W 8824  25.645  18.641   1.737
36499W        W 8825  44.992  34.433  12.249
36500W        W 8826   3.707  24.886   0.022
36501W        W 8827   6.275  38.494   4.842
36502W        W 8828   8.680  36.348   2.078
36503W        W 8829  15.251  34.133   0.236
36504W        W 8830  14.354   0.538   1.777
36505W        W 8831  40.889   2.023   4.970
36506W        W 8832  38.086  30.184  11.101
36507W        W 8833   9.258  15.685  13.593
36508W        W 8834  39.948  23.003  10.960
36509W        W 8835  29.461  25.959  14.504
36510W        W 8836  44.954  31.980   3.759
36511W        W 8837  30.194  27.488   1.639
36512W        W 8838  12.709  23.652   9.503
36513W        W 8839  29.666   6.496  11.146
36514W        W 8840  14.267   1.971   1.687
36515W        W 8841  13.313  15.824  13.360
36516W        W 8842   7.477  17.063  14.072
36517W        W 8843   6.741   5.973   4.113
36518W        W 8844  11.736  33.006  11.773
36519W        W 8845  19.568  19.015  12.821
36520W        W 8846  11.118  21.100  13.553
36521W        W 8847  16.073  26.971   4.260
36522W        W 8848   4.386  10.249   1.584
36523W        W 8849  16.321   7.611   2.319
36524W        W 8850  24.740  43.764   1.259
36525W        W 8851  43.513  11.228  12.631
36526W        W 8852  10.841  21.849   4.571
36527W        W 8853  26.422  12.565   3.637
36528W        W 8854  42.971  21.534   5.069
36529W        W 8855   8.944  11.567   4.119
36530W        W 8856  20.908  33.134  12.043
36531W        W 8857  28.482  21.623  11.643
36532W        W 8858  16.234  40.810   0.797
36533W        W 8859   5.354  34.507  13.869
36534W        W 8860  18.545  19.261   4.791
36535W        W 8861  19.175   5.718   0.745
36536W        W 8862   0.704   9.960  12.546
36537W        W 8863  34.966  13.010  12.109
36538W        W 8864   1.936  25.678  10.627
36539W        W 8865  37.190  12.331  12.802
36540W        W 8866  27.683  16.720  11.935
36541W        W 8867  24.064   1.295  14.549
36542W        W 8868  25.724  31.722  13.417
36543W        W 8869  15.327  21.123   3.938
36544W        W 8870  20.577  28.694   2.733
36545W        W 8871  40.967   4.938   0.012
36546W        W 8872   4.782  43.946  13.390
36547W        W 8873  20.499   9.420  12.081
36548W        W 8874  12.932  26.141   3.167
36549W        W 8875  15.267   6.490   4.463
36550W        W 8876  37.931  10.836  10.230
36551W        W 8877  34.183  31.220  14.126
36552W        W 8878  16.325  25.928   0.916
36553W        W 8879  41.268  28.367  10.737
36554W        W 8880  42.761  11.365   2.134
36555W        W 8881  35.915  38.795   4.602
36556W        W 8882  19.466   0.474  10.486
36557W        W 8883  32.408  34.470  11.100
36558W        W 8884   3.169   8.326   4.614
36559W        W 8885  18.542  10.173  14.420
36560W        W 8886  14.074  28.371  11.494
36561W        W 8887  32.353   0.410  11.497
36562W        W 8888   5.905  34.580  10.661
36563W        W 8889  18.711  20.472   3.313
36564W        W 8890  40.380  19.952   1.739
36565W        W 8891  17.382   9.992  14.076
36566W        W 8892  17.311  11.871   4.595
36567W        W 8893  32.082  42.736  12.526
36568W        W 8894  40.500  22.416  14.463
36569W        W 8895  29.688  12.279   3.534
36570W        W 8896  19.099   1.479   2.618
36571W        W 8897  27.064  32.837   2.736
36572W        W 8898  43.337   9.927   2.431
36573W        W 8899  11.902  33.856   5.022
36574W        W 8900  37.295  19.330  12.036
36575W        W 8901  27.352   1.655   2.511
36576W        W 8902  18.059  32.366   0.048
36577W        W 8903  23.648  31.729   4.385
36578W        W 8904  25.549  23.528  13.120
36579W        W 8905  44.096  21.015   1.299
36580W        W 8906  42.963  17.716   4.915
36581W        W 8907   3.094  29.490  12.261
36582W        W 8908  24.147  10.807  13.888
36583W        W 8909  36.779  38.027   3.879
36584W        W 8910  38.391   6.349   4.755
36585W        W 8911  13.253  35.356  14.741
36586W        W 8912   7.951  22.466  11.095
36587W        W 8913  17.133  16.582   2.822
36588W        W 8914  15.830  37.973  13.710
36589W        W 8915  42.257  37.518   1.831
36590W        W 8916  29.674  26.565   3.170
36591W        W 8917   3.481   5.187   1.722
36592W        W 8918  20.821   3.340  14.940
36593W        W 8919  41.335   1.784  14.907
36594W        W 8920  20.763  39.615   1.795
36595W        W 8921  38.916  27.482   1.829
36596W        W 8922  43.507  31.993  13.502
36597W        W 8923  37.524  14.147   0.843
36598W        W 8924  12.148  18.190  12.839
36599W        W 8925  30.947  34.583  13.928
36600W        W 8926  37.486  22.021   0.355
36601W        W 8927  36.779  39.670   4.865
36602W        W 8928  30.536  32.336   0.381
36603W        W 8929  37.843  27.083   0.347
36604W        W 8930  17.268  38.102  12.582
36605W        W 8931   2.302  10.678   1.911
36606W        W 8932  30.223   1.918  12.065
36607W        W 8933  34.958  29.231  10.682
36608W        W 8934  31.878  36.819  13.146
36609W        W 8935  27.498   6.409  12.449
36610W        W 8936   8.740  31.389  11.018
36611W        W 8937   3.847   0.978   1.854
36612W        W 8938  18.511  15.624   3.392
36613W        W 8939  32.394  19.150  12.480
36614W        W 8940  28.567  27.165   2.719
36615W        W 8941  10.139  19.530  14.405
36616W        W 8942   0.288  40.971   3.788
36617W        W 8943  43.273   0.221  11.659
36618W        W 8944  19.553   7.431   0.965
36619W        W 8945   0.457  11.667   1.340
36620W        W 8946   8.585  26.544  12.988
36621W        W 8947  18.561  28.878   3.784
36622W        W 8948   3.610  42.775   5.078
36623W        W 8949  10.201  21.684   4.289
36624W        W 8950  44.487  12.300   0.735
36625W        W 8951  27.282   1.495  14.916
36626W        W 8952   5.173   4.343   4.139
36627W        W 8953  26.160  16.222  13.945
36628W        W 8954  19.565  39.435  12.147
36629W        W 8955   5.219  10.921   3.340
36630W        W 8956  33.654   4.064   5.036
36631W        W 8957  18.043  25.214  14.470
36632W        W 8958   2.857  20.626  14.486
36633W        W 8959  15.130   3.146   4.912
36634W        W 8960   8.977   7.370  13.987
36635W        W 8961   7.225  10.454  13.248
36636W        W 8962  42.769   3.768   1.447
36637W        W 8963   8.795  11.998  13.526
36638W        W 8964  37.180  17.992   3.846
36639W        W 8965  24.118  36.881  12.518
36640W        W 8966   2.980  10.682   0.690
36641W        W 8967  21.797  28.440  13.357
36642W        W 8968  32.629  43.237   3.053
36643W        W 8969  32.556   5.669   3.232
36644W        W 8970  23.562  20.247  14.127
36645W        W 8971  44.126  42.551  13.372
36646W        W 8972  23.409   0.842   1.291
36647W        W 8973  31.448  33.392  14.927
36648W        W 8974  35.031   5.635  14.737
36649W        W 8975   8.353  13.956  10.699
36650W        W 8976  12.960  29.740   5.128
36651W        W 8977  36.889   5.420  11.686
36652W        W 8978  41.923   4.095   2.425
36653W        W 8979  38.210  24.611   2.201
36654W        W 8980  25.525  20.226  10.769
36655W        W 8981  25.443  20.199  14.542
36656W        W 8982  34.435  32.236  13.510
36657W        W 8983   0.439  31.841  14.736
36658W        W 8984  29.510  31.328   2.327
36659W        W 8985  38.625  42.274  13.923
36660W        W 8986  32.984  33.910  13.497
36661W        W 8987   3.783   1.426   0.920
36662W        W 8988  11.874  22.032  13.734
36663W        W 8989  42.409  41.523   3.790
36664W        W 8990  29.725  12.147  14.428
36665W        W 8991  19.035  11.691  14.306
36666W        W 8992   1.394  12.061   2.262
36667W        W 8993  44.665   4.840   5.072
36668W        W 8994   9.356   8.809  14.493
36669W        W 8995  38.368  21.738  14.970
36670W        W 8996  34.856  23.571  11.865
36671W        W 8997  34.385  18.950  11.395
36672W        W 8998  19.060  39.465   0.303
36673W        W 8999  39.362   4.378  12.209
36674W        W 9000  27.188  19.073   3.915
36675W        W 9001   4.332  24.679   1.935
36676W        W 9002   9.069  15.793   2.493
36677W        W 9003   4.685  15.988   2.127
36678W        W 9004  38.021   7.669  12.543
36679W        W 9005  18.684  11.082   4.189
36680W        W 9006  19.683  30.009  14.023
36681W        W 9007  28.073  13.245   0.423
36682W        W 9008  25.756   6.524  14.754
36683W        W 9009   2.084  35.073  11.164
36684W        W 9010  36.223  31.164  11.073
36685W        W 9011  17.153   8.172   0.907
36686W        W 9012  36.055   5.085  10.734
36687W        W 9013  23.540  15.097   1.217
36688W        W 9014  11.753  37.108   0.523
36689W        W 9015  29.952  23.137  14.116
36690W        W 9016  38.666  10.650   5.516
36691W        W 9017  15.740  38.236   0.466
36692W        W 9018  43.842  33.866  13.653
36693W        W 9019  12.158  31.953  12.528
36694W        W 9020   4.314   5.274   4.129
36695W        W 9021   4.933  21.333   1.737
36696W        W 9022  31.412  10.470  11.126
36697W        W 9023  24.045  11.361   2.820
36698W        W 9024   5.469   7.652  10.652
36699W        W 9025  22.834  40.804   4.265
36700W        W 9026   6.438  23.583   0.913
36701W        W 9027  41.680  19.714  11.498
36702W        W 9028  26.034  36.278   4.679
36703W        W 9029  41.417  15.641  13.506
36704W        W 9030  13.466  13.779  10.955
36705W        W 9031  38.468  18.275   1.883
36706W        W 9032  27.148   4.803   4.114
36707W        W 9033  10.277  25.130   1.902
36708W        W 9034  18.093   9.811  10.654
36709W        W 9035  28.968   3.772  13.990
36710W        W 9036   2.831  22.978   1.480
36711W        W 9037  41.267  17.539  14.564
36712W        W 9038   2.330   6.501   3.263
36713W        W 9039  28.797   8.792   4.806
36714W        W 9040  14.818   1.194  13.410
36715W        W 9041  20.859   0.437   2.628
36716W        W 9042  18.666  32.578  11.106
36717W        W 9043  19.174  13.247   1.879
36718W        W 9044  18.747  42.134   4.819
36719W        W 9045  32.320  34.640   0.858
36720W        W 9046  14.386  30.938  14.827
36721W        W 9047   6.655   1.531  12.557
36722W        W 9048  15.657  27.669  14.219
36723W        W 9049   9.406  10.319  10.670
36724W        W 9050  22.931  28.568   3.797
36725W        W 9051  16.741  43.387   2.321
36726W        W 9052  20.635  40.034  10.504
36727W        W 9053  29.493  10.249   3.619
36728W        W 9054  30.420  20.040   4.330
36729W        W 9055  41.392  33.998  12.050
36730W        W 9056   8.734   2.284   0.180
36731W        W 9057  26.141  30.431   2.701
36732W        W 9058  32.092  15.224  14.822
36733W        W 9059  20.044  13.720   3.869
36734W        W 9060   1.250  42.985  12.148
36735W        W 9061  44.584  16.581   1.211
36736W        W 9062  39.993  42.441  13.355
36737W        W 9063  39.052  31.614  13.305
36738W        W 9064  15.301   7.726   3.705
36739W        W 9065   9.127  39.416   4.194
36740W        W 9066   6.918  31.949   3.285
36741W        W 9067   2.673  13.125  11.643
36742W        W 9068   1.007  25.133  13.239
36743W        W 9069  34.031  18.174   1.419
36744W        W 9070  16.905  25.962   4.339
36745W        W 9071  41.559   1.234   0.355
36746W        W 9072  13.392  28.575   4.134
36747W        W 9073  15.824  25.476  13.452
36748W        W 9074  36.436  33.924   1.864
36749W        W 9075  16.778  26.404   4.594
36750W        W 9076  41.947  35.395  14.569
36751W        W 9077  27.612  29.072   5.460
36752W        W 9078  32.218  37.061  11.117
36753W        W 9079  44.265  15.655   0.736
36754W        W 9080  16.489  24.169   4.657
36755W        W 9081  25.600  11.785   2.216
36756W        W 9082  39.763  43.647   2.246
36757W        W 9083  19.747  35.667  12.397
36758W        W 9084  17.668  26.997  14.557
36759W        W 9085  14.392  37.014   3.297
36760W        W 9086   3.899  43.059  14.500
36761W        W 9087  12.824  20.172  12.493
36762W        W 9088  38.605  29.441   2.775
36763W        W 9089   1.714   8.506  10.548
36764W        W 9090  23.479  43.046   3.322
36765W        W 9091  18.804  34.681   2.322
36766W        W 9092  35.024   4.716   0.158
36767W        W 9093  12.799  15.391   2.809
36768W        W 9094  18.173  30.765   2.329
36769W        W 9095   1.091  14.596  11.796
36770W        W 9096  18.374  10.796   3.152
36771W        W 9097   2.264  14.899  14.309
36772W        W 9098  29.421   7.575   1.974
36773W        W 9099  31.011  37.308   2.888
36774W        W 9100  28.240  11.722  13.201
36775W        W 9101   7.916   4.942  12.955
36776W        W 9102  19.272  39.372  11.699
36777W        W 9103   7.915  40.344   0.709
36778W        W 9104  13.344   0.411  11.136
36779W        W 9105  20.697  40.661  12.807
36780W        W 9106  20.360  21.160  12.086
36781W        W 9107   0.221  13.137  11.404
36782W        W 9108  22.655  41.037  14.863
36783W        W 9109  42.077  13.658   1.895
36784W        W 9110   2.241  31.825  14.038
36785W        W 9111  37.692  39.585  11.106
36786W        W 9112  31.067  10.569   3.382
36787W        W 9113   3.945  21.493  14.844
36788W        W 9114  32.990  30.208   0.436
36789W        W 9115  19.406   6.139   0.892
36790W        W 9116  12.751  32.999  11.862
36791W        W 9117  41.922  32.902  13.036
36792W        W 9118  29.353  39.404  14.878
36793W        W 9119  29.451  14.751   3.552
36794W        W 9120  28.281  34.008   3.248
36795W        W 9121  31.695  14.204   0.072
36796W        W 9122  12.155  13.848   4.537
36797W        W 9123   4.919  42.243  10.907
36798W        W 9124  32.537   3.701  14.772
36799W        W 9125  30.065   7.872   3.377
36800W        W 9126  37.605  33.437  11.535
36801W        W 9127  19.426   9.452   3.476
36802W        W 9128   8.854  37.911   1.439
36803W        W 9129  26.201  24.988   4.302
36804W        W 9130   6.341   5.382   4.530
36805W        W 9131  36.989  27.063   0.541
36806W        W 9132  39.057   1.702   2.621
36807W        W 9133  34.365   5.996  11.058
36808W        W 9134  16.748   8.222  14.985
36809W        W 9135   6.284  44.505  14.774
36810W        W 9136   9.417  28.587  13.085
36811W        W 9137  22.725  44.699   3.740
36812W        W 9138   9.046   6.093  12.048
36813W        W 9139  37.954  33.979  12.525
36814W        W 9140  34.040  35.988  12.915
36815W        W 9141  22.076   8.616   4.259
36816W        W 9142  44.657   4.585   4.411
36817W        W 9143  11.145  15.342   2.079
36818W        W 9144  17.288  44.919   3.817
36819W        W 9145  18.327  21.092  12.421
36820W        W 9146  14.248   8.698   1.769
36821W        W 9147  31.552  35.504  10.539
36822W        W 9148  30.117  38.369   1.337
36823W        W 9149   4.210  25.796  13.332
36824W        W 9150  10.103  33.745  11.473
36825W        W 9151  34.487  33.626  12.963
36826W        W 9152  23.219   2.438  13.712
36827W        W 9153  44.447   0.059  12.378
36828W        W 9154   6.533   1.477  12.059
36829W        W 9155   9.896  42.663   1.239
36830W        W 9156  21.697   8.311  12.551
36831W        W 9157  11.651  21.491  10.745
36832W        W 9158   3.837  40.323   1.915
36833W        W 9159  12.089  25.287  12.317
36834W        W 9160   7.128  34.995  12.198
36835W        W 9161  33.812  36.455  12.951
36836W        W 9162  32.061  17.359   0.567
36837W        W 9163  33.143  29.512   4.138
36838W        W 9164  21.211  15.217   3.671
36839W        W 9165  26.252  35.621   3.246
36840W        W 9166  21.774  23.258  12.083
36841W        W 9167   0.251  39.026  10.373
36842W        W 9168   4.756   2.988  12.073
36843W        W 9169  31.127   0.254  13.927
36844W        W 9170  42.793  36.330  11.353
36845W        W 9171  10.316  26.982  14.326
36846W        W 9172  13.181  19.025   2.201
36847W        W 9173  16.566  41.623   0.844
36848W        W 9174  32.076  25.008  10.779
36849W        W 9175   3.335   4.423   4.215
36850W        W 9176  14.131  35.638   4.050
36851W        W 9177  20.500  43.428  11.015
36852W        W 9178  38.801  10.717   9.763
36853W        W 9179  26.225  33.923  14.006
36854W        W 9180   2.950  13.643   1.795
36855W        W 9181  20.018  40.089  12.453
36856W        W 9182  32.428  19.000   0.399
36857W        W 9183  40.895  23.012   2.151
36858W        W 9184  10.215  27.378  11.538
36859W        W 9185  34.962  16.755  14.652
36860W        W 9186  39.936  26.458   3.074
36861W        W 9187  17.582  27.962   4.522
36862W        W 9188   6.611  14.604  14.927
36863W        W 9189  13.953  22.471  13.465
36864W        W 9190   3.256   3.224   1.607
36865W        W 9191  22.556   8.364   0.874
36866W        W 9192  20.027  27.291  12.501
36867W        W 9193  23.921  21.589  12.454
36868W        W 9194  41.430  36.032   4.827
36869W        W 9195  14.626  33.528  14.431
36870W        W 9196  30.162  41.668   4.028
36871W        W 9197  32.645   8.567  13.096
36872W        W 9198  31.857  11.394  14.259
36873W        W 9199  25.265  29.664  13.797
36874W        W 9200  42.910   5.690   1.410
36875W        W 9201  37.072  35.323   3.300
36876W        W 9202   7.710  31.465  10.593
36877W        W 9203  41.556   1.309  13.285
36878W        W 9204   9.205  17.655  14.808
36879W        W 9205  42.098  27.600   3.810
36880W        W 9206   9.407   4.837   3.700
36881W        W 9207  32.330  21.518   3.344
36882W        W 9208  28.662  41.692  11.205
36883W        W 9209  14.104  21.704   2.194
36884W        W 9210   1.512  12.349  14.000
36885W        W 9211  18.309  30.385   3.267
36886W        W 9212  30.946   6.325  14.827
36887W        W 9213  25.020   4.946  14.784
36888W        W 9214  19.712  28.226  11.407
36889W        W 9215  42.969   9.275  14.834
36890W        W 9216  26.011  17.071   4.160
36891W        W 9217  32.190  23.297   0.559
36892W        W 9218  23.441  30.116  14.362
36893W        W 9219  32.000   9.203   3.652
36894W        W 9220   4.822  44.625   3.078
36895W        W 9221   3.818  39.488   0.895
36896W        W 9222  12.832  30.708   2.364
36897W        W 9223   8.766  26.256   1.950
36898W        W 9224   7.892   0.827  13.639
36899W        W 9225  40.332  42.557  11.994
36900W        W 9226  19.500  26.555   4.683
36901W        W 9227  39.833   6.085   1.529
36902W        W 9228  18.021  41.916  12.629
36903W        W 9229  43.507  30.349  13.421
36904W        W 9230   0.955  22.186  14.909
36905W        W 9231  26.916  12.561  14.415
36906W        W 9232  22.575   8.223  10.361
36907W        W 9233  43.874  44.756   3.593
36908W        W 9234  26.608  37.916  13.300
36909W        W 9235  38.773  27.668   0.500
36910W        W 9236  43.773  40.332  11.995
36911W        W 9237  27.485  15.086  13.784
36912W        W 9238  37.115  16.047  11.965
36913W        W 9239  29.598   9.383   3.347
36914W        W 9240   5.452  37.531  10.131
36915W        W 9241  33.519  20.482   2.281
36916W        W 9242  31.871  26.135  12.546
36917W        W 9243  32.172  19.217   2.317
36918W        W 9244  20.705  42.478  14.870
36919W        W 9245  37.781  43.159   0.836
36920W        W 9246  43.653  26.357  10.105
36921W        W 9247  12.865   6.808   3.286
36922W        W 9248  16.663   1.375  13.956
36923W        W 9249  35.916  14.799   1.865
36924W        W 9250  38.038  27.518  11.109
36925W        W 9251  37.783  35.898  10.566
36926W        W 9252  34.097  29.879   0.841
36927W        W 9253   3.533  43.934  10.292
36928W        W 9254   8.820  11.910   4.504
36929W        W 9255  33.994  33.021   0.947
36930W        W 9256   7.872  31.147   4.871
36931W        W 9257  31.674  21.727   0.005
36932W        W 9258  38.564  37.152  12.588
36933W        W 9259  35.107  33.934   1.007
36934W        W 9260  27.139  21.132   3.151
36935W        W 9261  10.464   9.709  13.826
36936W        W 9262  40.469  43.060  11.988
36937W        W 9263  36.380  40.300  12.413
36938W        W 9264  32.185   2.292   4.260
36939W        W 9265  26.471  17.592   4.984
36940W        W 9266  40.857  22.542   3.566
36941W        W 9267  20.113  15.830  14.051
36942W        W 9268   3.820   4.504   2.762
36943W        W 9269  41.062  23.050   2.823
36944W        W 9270  29.196   0.348   2.405
36945W        W 9271  33.500  44.571  12.990
36946W        W 9272  24.037  10.095   0.751
36947W        W 9273   0.962  37.900   3.336
36948W        W 9274  30.483  25.668  13.093
36949W        W 9275  44.723   1.057   4.533
36950W        W 9276  27.624  38.499   0.458
36951W        W 9277  43.258  37.386  14.007
36952W        W 9278  22.135  17.754   1.132
36953W        W 9279  40.055   8.156  10.435
36954W        W 9280   8.224  16.665  14.000
36955W        W 9281   2.500  33.407   2.057
36956W        W 9282  40.808   7.143   4.606
36957W        W 9283  40.002  33.035  11.000
36958W        W 9284  41.861  24.613   4.890
36959W        W 9285  39.198  29.958   5.113
36960W        W 9286  15.578  15.838   2.738
36961W        W 9287  39.269   1.757  11.111
36962W        W 9288   8.404  19.234  13.900
36963W        W 9289  14.997  33.025  12.423
36964W        W 9290  13.607  11.815  14.523
36965W        W 9291  40.850   0.599   0.788
36966W        W 9292  29.212  17.211   2.619
36967W        W 9293  19.554  19.875  13.494
36968W        W 9294   2.508  29.133   3.706
36969W        W 9295  42.785  12.799  14.879
36970W        W 9296  31.876  25.734  13.476
36971W        W 9297  27.668  29.612  13.876
36972W        W 9298   3.688  22.810  10.658
36973W        W 9299  43.403  13.143  11.189
36974W        W 9300  33.438   2.973   4.861
36975W        W 9301  34.867  31.657  14.950
36976W        W 9302   4.640   7.625   3.794
36977W        W 9303  28.167  22.162  12.324
36978W        W 9304  23.985  26.888  11.583
36979W        W 9305  44.739  40.863  14.348
36980W        W 9306  19.273  20.271   0.272
36981W        W 9307  18.303   2.290   4.042
36982W        W 9308   0.504  33.476   3.383
36983W        W 9309  31.199  37.940  12.126
36984W        W 9310  32.583  20.082  10.773
36985W        W 9311  27.990  28.246   0.264
36986W        W 9312  16.278  17.816  13.480
36987W        W 9313   5.877  43.303   0.179
36988W        W 9314   0.345   8.256  13.928
36989W        W 9315  19.843  21.228   0.233
36990W        W 9316  34.494  14.468   2.192
36991W        W 9317  16.534   7.329   2.835
36992W        W 9318  20.392  42.838   2.486
36993W        W 9319  34.621  10.701  12.840
36994W        W 9320  37.980  18.650   4.494
36995W        W 9321  39.108  11.859  11.532
36996W        W 9322  37.912   1.862   4.873
36997W        W 9323  41.989  14.661  13.509
36998W        W 9324   5.844  22.324  14.299
36999W        W 9325  43.305  15.201  12.349
37000W        W 9326  17.268  37.443   4.117
37001W        W 9327  21.969  38.383  14.491
37002W        W 9328  31.181  24.935  10.147
37003W        W 9329   2.004  26.322   4.535
37004W        W 9330  43.613  10.890  12.160
37005W        W 9331  44.336  43.401  14.918
37006W        W 9332  33.070  38.638   0.870
37007W        W 9333  24.016  10.474  12.504
37008W        W 9334   7.976  13.569   3.847
37009W        W 9335   6.172  35.449   3.933
37010W        W 9336  32.689  33.827   1.840
37011W        W 9337  42.821  36.854  11.961
37012W        W 9338  16.185  23.189   4.466
37013W        W 9339  25.696  40.938  13.738
37014W        W 9340   4.827   1.281  12.192
37015W        W 9341  35.370  33.867  14.779
37016W        W 9342  18.335  44.007   0.730
37017W        W 9343  30.761  17.862   4.101
37018W        W 9344  31.438   5.706  14.933
37019W        W 9345  11.592  37.753   0.642
37020W        W 9346  34.061   3.842   2.130
37021W        W 9347   3.173   9.682  11.946
37022W        W 9348  22.642   7.227  11.655
37023W        W 9349  34.753  34.409   0.761
37024W        W 9350  37.953  23.719  12.458
37025W        W 9351  29.153  13.702  14.646
37026W        W 9352  36.828  33.581  11.989
37027W        W 9353  13.831  14.303  12.346
37028W        W 9354  31.176   8.930   3.793
37029W        W 9355   7.276  27.308   3.371
37030W        W 9356   3.265  40.070  11.511
37031W        W 9357  11.800  19.169   0.803
37032W        W 9358   9.226   1.208   0.787
37033W        W 9359  31.432  40.985   2.250
37034W        W 9360  43.537  32.887   2.384
37035W        W 9361  15.779  18.094   4.265
37036W        W 9362  11.284   8.093  11.338
37037W        W 9363  26.138   3.113  14.328
37038W        W 9364  13.905   2.587  11.603
37039W        W 9365   7.308  14.623  13.114
37040W        W 9366  31.001  26.900  13.122
37041W        W 9367  28.985   4.184  12.527
37042W        W 9368   8.833  24.731   4.175
37043W        W 9369  44.306  35.417   0.539
37044W        W 9370  14.124  23.801  13.451
37045W        W 9371  22.709  11.655   0.783
37046W        W 9372  13.171   9.693  12.925
37047W        W 9373  40.238  31.057   0.210
37048W        W 9374   3.619   4.867  11.558
37049W        W 9375  12.262  15.975  11.871
37050W        W 9376  36.082  16.809   4.696
37051W        W 9377  33.177   5.253  10.673
37052W        W 9378   8.369  12.655   0.729
37053W        W 9379   5.265   9.145   0.859
37054W        W 9380  36.976  26.298  11.161
37055W        W 9381  15.762  35.954   0.319
37056W        W 9382  21.711  21.623  12.075
37057W        W 9383  15.619   5.205  12.440
37058W        W 9384  17.690   0.322   1.943
37059W        W 9385  26.693   7.519   5.073
37060W        W 9386   4.956  38.013  12.353
37061W        W 9387  15.080  36.312  11.633
37062W        W 9388  14.795  30.078   0.555
37063W        W 9389  32.641  41.402   3.068
37064W        W 9390  23.517  20.805  12.644
37065W        W 9391  35.917   2.959   2.272
37066W        W 9392  26.134  39.813   3.124
37067W        W 9393  43.193  42.384   0.363
37068W        W 9394  32.445  39.195   4.631
37069W        W 9395  17.604  34.623  11.311
37070W        W 9396  30.295  10.711  14.826
37071W        W 9397  20.163   7.576   2.127
37072W        W 9398  32.853  13.269  13.891
37073W        W 9399  40.393  24.948   1.237
37074W        W 9400  40.793  22.990   3.825
37075W        W 9401   2.260  29.154   1.722
37076W        W 9402   7.336   4.169  12.105
37077W        W 9403  29.358  12.763  12.969
37078W        W 9404   3.179  16.244  11.823
37079W        W 9405   6.728   2.328  13.072
37080W        W 9406   5.438  11.634  13.371
37081W        W 9407  36.750  10.603  14.853
37082W        W 9408  18.022   7.991   0.644
37083W        W 9409  41.739  38.489   0.084
37084W        W 9410   3.330   6.435  13.001
37085W        W 9411   0.572  40.597   4.537
37086W        W 9412  40.107  39.207   0.547
37087W        W 9413  22.624  14.899  14.620
37088W        W 9414  34.790   6.382   4.730
37089W        W 9415  18.160  33.906   0.670
37090W        W 9416  16.894   7.685   3.734
37091W        W 9417  13.662  30.036   2.641
37092W        W 9418  36.151  15.308   1.181
37093W        W 9419  42.262  23.702   1.275
37094W        W 9420  27.031  33.140   3.440
37095W        W 9421  14.765  41.178  14.841
37096W        W 9422  14.249   8.156  13.297
37097W        W 9423   0.009  24.569  14.368
37098W        W 9424  18.441  36.626  14.400
37099W        W 9425  18.588  19.581   1.264
37100W        W 9426  12.313   0.771   0.931
37101W        W 9427  30.881  44.468   3.331
37102W        W 9428   5.269  36.136   1.710
37103W        W 9429  19.466   9.140  12.165
37104W        W 9430  23.520   9.771  13.534
37105W        W 9431  36.507   6.704  11.522
37106W        W 9432  31.174  15.113  14.332
37107W        W 9433   6.428  13.064  11.678
37108W        W 9434  25.909  29.410   4.296
37109W        W 9435  22.218  35.342  11.488
37110W        W 9436  43.791   5.748   3.276
37111W        W 9437  16.235  22.689  12.439
37112W        W 9438   4.698  19.592   1.384
37113W        W 9439  27.621  28.109   1.431
37114W        W 9440  18.802  41.107  14.031
37115W        W 9441  19.541  32.427  11.524
37116W        W 9442   1.754  34.079  11.839
37117W        W 9443  26.968   9.257   1.307
37118W        W 9444  11.731  28.368   0.520
37119W        W 9445  25.495   6.905  13.539
37120W        W 9446   8.047  23.493   2.166
37121W        W 9447   8.246  44.290  14.414
37122W        W 9448   6.433   3.776   2.123
37123W        W 9449  13.753  19.115   2.884
37124W        W 9450  13.397  30.664  14.478
37125W        W 9451  25.829   7.395   1.955
37126W        W 9452   2.581  25.705  14.285
37127W        W 9453  28.988  38.385  13.856
37128W        W 9454  26.141  40.911   3.605
37129W        W 9455  41.101  37.025   3.062
37130W        W 9456   3.176   7.981   4.185
37131W        W 9457  16.345   7.819   2.813
37132W        W 9458  26.437  25.753  12.887
37133W        W 9459  43.704   1.734   2.291
37134W        W 9460  18.368   3.760  11.770
37135W        W 9461  31.963   7.865  13.200
37136W        W 9462  12.538  24.703   4.232
37137W        W 9463  23.063  17.877  12.054
37138W        W 9464  20.891  26.179   3.769
37139W        W 9465   2.522  30.145  14.356
37140W        W 9466  16.780  27.957  11.410
37141W        W 9467  10.212  13.215   4.644
37142W        W 9468  24.094  41.526   3.747
37143W        W 9469  37.379  15.808   2.797
37144W        W 9470  26.423  36.270   0.868
37145W        W 9471  33.584  29.086   3.412
37146W        W 9472  41.770  10.821  11.711
37147W        W 9473  25.986  14.920   1.238
37148W        W 9474  37.011  11.260   0.714
37149W        W 9475  22.260  15.688  11.919
37150W        W 9476  25.150  16.829  13.073
37151W        W 9477   8.774   0.078  11.916
37152W        W 9478   7.953  43.080  12.580
37153W        W 9479  17.553  12.428  13.077
37154W        W 9480   3.665  43.720   1.381
37155W        W 9481  14.882  14.314  11.141
37156W        W 9482  39.996  31.240  10.749
37157W        W 9483   7.981  10.671  10.684
37158W        W 9484   9.572  20.666  14.926
37159W        W 9485  11.944  26.418   3.721
37160W        W 9486   9.347  18.162  13.695
37161W        W 9487   0.871  13.297   1.173
37162W        W 9488  29.529  44.314   0.296
37163W        W 9489  32.577  33.338  10.060
37164W        W 9490  28.637  23.043   0.700
37165W        W 9491  20.110  12.287   3.088
37166W        W 9492  27.883  30.933   1.831
37167W        W 9493  27.542  29.359   2.642
37168W        W 9494  28.437  24.556   1.474
37169W        W 9495  10.669  38.080   0.317
37170W        W 9496   5.166  27.482  11.554
37171W        W 9497  25.109   6.926   0.920
37172W        W 9498   2.203   8.403  10.768
37173W        W 9499   8.864  22.830  14.394
37174W        W 9500  12.919  41.951   4.245
37175W        W 9501   0.297  15.437   2.260
37176W        W 9502  16.140  42.596  13.757
37177W        W 9503  22.560   8.773  12.434
37178W        W 9504  35.806  39.323   4.583
37179W        W 9505  12.311  22.576  14.992
37180W        W 9506  24.533  23.324   3.361
37181W        W 9507  16.308  15.337  14.540
37182W        W 9508  13.190  37.346  10.687
37183W        W 9509   7.051  36.502  11.466
37184W        W 9510  42.956  14.814   1.283
37185W        W 9511   5.762  24.138  13.522
37186W        W 9512  22.171  40.595   3.710
37187W        W 9513  28.540  15.242   0.406
37188W        W 9514  21.520   8.739   1.829
37189W        W 9515  17.038  29.269   2.657
37190W        W 9516  15.704  41.879   4.348
37191W        W 9517  15.062  20.010   4.004
37192W        W 9518  33.595  21.463  12.502
37193W        W 9519   5.378  12.358   3.271
37194W        W 9520  26.364  18.057  12.227
37195W        W 9521  13.816  33.635   5.085
37196W        W 9522  43.602  39.788   2.843
37197W        W 9523   4.755   9.309  10.589
37198W        W 9524   5.903  33.851  12.524
37199W        W 9525  16.688  26.629  13.556
37200W        W 9526  17.088  25.589  13.987
37201W        W 9527  34.060  39.415   1.923
37202W        W 9528  25.056   6.892  13.832
37203W        W 9529   4.865  18.589   4.555
37204W        W 9530  37.881  13.191  11.133
37205W        W 9531  11.439  11.484  11.472
37206W        W 9532  10.245  39.366   3.643
37207W        W 9533  12.124  40.479   3.194
37208W        W 9534  17.660  19.919  10.647
37209W        W 9535   4.421  22.613  12.423
37210W        W 9536   1.842  25.285  12.834
37211W        W 9537  14.345  15.200   2.825
37212W        W 9538   3.186  43.011   3.252
37213W        W 9539  19.046  30.682  10.681
37214W        W 9540  20.752  42.278   3.908
37215W        W 9541   0.044  36.501   0.392
37216W        W 9542   9.131  37.506   2.205
37217W        W 9543   0.659  26.424   3.305
37218W        W 9544  37.948   8.390   4.420
37219W        W 9545   3.620  34.339  12.024
37220W        W 9546  26.144  37.185  13.393
37221W        W 9547  43.629  27.206  13.421
37222W        W 9548  10.086  22.037   0.514
37223W        W 9549  44.013  27.057   0.356
37224W        W 9550   7.502  21.744  13.505
37225W        W 9551   8.667  23.612   1.257
37226W        W 9552  39.127  43.182  11.455
37227W        W 9553  32.141  37.835  12.321
37228W        W 9554  32.705   9.216  14.441
37229W        W 9555  14.119  42.320  14.490
37230W        W 9556   3.735  20.392   0.730
37231W        W 9557  30.629  19.172   2.386
37232W        W 9558  23.435  41.005  13.784
37233W        W 9559   6.277  36.836   4.190
37234W        W 9560  35.069  13.644   2.353
37235W        W 9561  32.224  10.840   4.303
37236W        W 9562  22.944  39.844  12.496
37237W        W 9563   7.443   9.244  14.925
37238W        W 9564  32.017  15.616   4.128
37239W        W 9565   3.734  10.194  10.048
37240W        W 9566  35.813  22.626   0.712
37241W        W 9567  28.409   2.215  12.071
37242W        W 9568  38.552   5.501  13.443
37243W        W 9569  22.294   6.709   2.211
37244W        W 9570  41.774  14.525   2.928
37245W        W 9571  40.326  18.114  11.116
37246W        W 9572  26.055  38.309   2.778
37247W        W 9573   6.321   6.919   4.201
37248W        W 9574  35.334  17.714   2.333
37249W        W 9575  44.368  26.949  10.692
37250W        W 9576  20.175  36.532   0.994
37251W        W 9577   0.345  26.532  13.862
37252W        W 9578  15.314   8.831   5.090
37253W        W 9579  27.232   0.045   4.893
37254W        W 9580  19.638  28.636  11.824
37255W        W 9581  19.717   7.787  11.975
37256W        W 9582  24.472  24.752   0.440
37257W        W 9583  27.103  41.980  10.437
37258W        W 9584  31.000   4.672  11.193
37259W        W 9585   3.935  43.474  13.604
37260W        W 9586  31.402  43.370   2.297
37261W        W 9587   5.661  15.571   4.704
37262W        W 9588  28.469  17.487  11.587
37263W        W 9589  39.783  12.303   3.627
37264W        W 9590  26.995  43.989   0.723
37265W        W 9591  17.269  36.673   4.610
37266W        W 9592  32.461  14.761   3.831
37267W        W 9593  37.830  19.222  14.344
37268W        W 9594  14.641  38.806   2.779
37269W        W 9595  39.224   6.501  12.096
37270W        W 9596   6.564   0.818   5.116
37271W        W 9597  42.849   1.048   1.545
37272W        W 9598  39.243  30.501   1.408
37273W        W 9599  43.325  21.587   1.611
37274W        W 9600  17.988  41.054   1.326
37275W        W 9601  20.709  15.743  10.600
37276W        W 9602  33.504  35.421  11.543
37277W        W 9603  18.783   8.309   0.281
37278W        W 9604  30.902  25.604   4.531
37279W        W 9605  11.206  28.581  13.247
37280W        W 9606  14.303  22.742  11.103
37281W        W 9607  27.195   6.985   1.762
37282W        W 9608  23.399  37.391  14.243
37283W        W 9609  29.457  21.595  13.562
37284W        W 9610   2.985  40.843   0.295
37285W        W 9611  35.861  22.695   1.559
37286W        W 9612  42.843  41.778   3.658
37287W        W 9613  24.658   1.272  10.812
37288W        W 9614  40.499   3.683   0.716
37289W        W 9615  36.101  25.522  12.977
37290W        W 9616  43.070  24.222  12.449
37291W        W 9617  32.351  17.356   4.121
37292W        W 9618  13.605  21.746  14.967
37293W        W 9619   5.161   0.810  13.080
37294W        W 9620  26.667   3.965  12.959
37295W        W 9621  42.816  19.939   5.279
37296W        W 9622  23.101  25.026   0.479
37297W        W 9623   6.523  21.134   0.120
37298W        W 9624   7.863  17.294  11.002
37299W        W 9625  37.469  39.319   2.000
37300W        W 9626  44.821  14.128   2.301
37301W        W 9627  35.093  17.073  12.885
37302W        W 9628  11.064  11.250   3.763
37303W        W 9629   5.868  29.058  14.776
37304W        W 9630  41.787  25.921   0.345
37305W        W 9631   4.463  25.047  13.054
37306W        W 9632  12.230  36.806   1.294
37307W        W 9633  37.031  39.378   1.324
37308W        W 9634   4.884  33.387   0.699
37309W        W 9635  31.747  31.154  12.490
37310W        W 9636  26.491  21.136  10.889
37311W        W 9637  27.216  13.286   1.989
37312W        W 9638  25.544  20.533  13.763
37313W        W 9639   3.971  23.317  10.622
37314W        W 9640  11.154  28.563  14.273
37315W        W 9641  30.647  23.474   2.764
37316W        W 9642  40.597   4.442   1.291
37317W        W 9643   0.338   6.396   4.135
37318W        W 9644  29.600  15.951   3.291
37319W        W 9645  34.259   9.111   4.670
37320W        W 9646  19.582  32.972  12.553
37321W        W 9647  27.141  31.559   4.506
37322W        W 9648  19.473   2.485  11.782
37323W        W 9649  31.623  42.560  13.781
37324W        W 9650  24.544   9.167  13.182
37325W        W 9651  35.640  14.127   4.572
37326W        W 9652  29.247  29.144   3.412
37327W        W 9653  32.572  33.103   2.234
37328W        W 9654  39.791  22.983   1.751
37329W        W 9655  13.170  44.352   0.798
37330W        W 9656   7.407  43.352  13.474
37331W        W 9657   0.007   9.739  12.133
37332W        W 9658  41.946  38.467   4.107
37333W        W 9659  24.726   0.960   0.822
37334W        W 9660  23.622  42.772   0.838
37335W        W 9661  23.440  21.955  10.992
37336W        W 9662   8.399  22.266  10.921
37337W        W 9663  31.932  12.367  12.077
37338W        W 9664   5.783  12.363   0.023
37339W        W 9665  39.967   7.415   0.401
37340W        W 9666   0.003   8.440   1.990
37341W        W 9667  35.379  27.523  12.218
37342W        W 9668  32.290   2.458  14.932
37343W        W 9669  27.538   7.718  13.038
37344W        W 9670  39.118  22.282   4.731
37345W        W 9671  18.646  15.081   1.205
37346W        W 9672   6.344   9.396  10.959
37347W        W 9673  11.798  31.926  12.162
37348W        W 9674  38.402  33.625  13.533
37349W        W 9675  22.083  37.434   0.499
37350W        W 9676  35.488  39.324  14.283
37351W        W 9677   9.889  31.948  13.879
37352W        W 9678  11.283  31.013  11.887
37353W        W 9679  37.504  13.331   1.663
37354W        W 9680  42.932  22.232  11.960
37355W        W 9681  19.128  13.577  11.841
37356W        W 9682  27.302  10.643   1.455
37357W        W 9683  33.410   0.082   4.256
37358W        W 9684  40.831  42.741   3.130
37359W        W 9685  19.612   0.679   4.258
37360W        W 9686   5.106  21.752  13.456
37361W        W 9687  33.745   4.983   2.674
37362W        W 9688  22.249  12.681   4.577
37363W        W 9689  37.179   3.685  10.222
37364W        W 9690  37.897  11.278   3.609
37365W        W 9691   4.444   7.462  13.767
37366W        W 9692  11.686  29.501  13.056
37367W        W 9693   5.922  37.771  13.075
37368W        W 9694  33.096  19.623   4.677
37369W        W 9695  27.343  17.256   1.408
37370W        W 9696  14.637  35.346  13.342
37371W        W 9697  31.188  17.838  14.447
37372W        W 9698  18.804  18.265  11.570
37373W        W 9699  32.567   9.783   4.704
37374W        W 9700  33.353  42.351  11.532
37375W        W 9701  22.920   3.231  12.471
37376W        W 9702  28.159  27.540   2.905
37377W        W 9703   6.215  30.945  12.792
37378W        W 9704  24.126  26.909  13.348
37379W        W 9705   4.397   7.150   0.226
37380W        W 9706  20.075  30.060   4.214
37381W        W 9707  43.992  28.439   2.309
37382W        W 9708   9.555   6.220  12.103
37383W        W 9709  36.284  40.567   1.268
37384W        W 9710  39.311   9.244   3.342
37385W        W 9711  37.896  27.779  10.638
37386W        W 9712  15.804  29.103  11.487
37387W        W 9713   2.705  40.250   2.368
37388W        W 9714  24.351  33.342  13.172
37389W        W 9715  37.690  31.110  11.585
37390W        W 9716  33.508  35.540  14.021
37391W        W 9717  15.371   2.391   2.670
37392W        W 9718   1.333  21.257   5.002
37393W        W 9719  36.186  30.219   0.017
37394W        W 9720  32.118  26.205  13.648
37395W        W 9721  25.047  19.703   4.897
37396W        W 9722  42.729  23.939   0.040
37397W        W 9723  38.361  44.995  13.851
37398W        W 9724  18.561  18.743   2.383
37399W        W 9725  36.934  38.328   1.288
37400W        W 9726   1.149   2.986  14.853
37401W        W 9727  10.724  31.102  11.072
37402W        W 9728   3.423   7.537   0.291
37403W        W 9729  18.760  19.725  10.775
37404W        W 9730  22.519   0.512   0.717
37405W        W 9731  13.271  10.361   3.390
37406W        W 9732  29.487   7.848  12.967
37407W        W 9733   0.711  41.632  11.964
37408W        W 9734  26.142   9.053  10.930
37409W        W 9735  19.903   1.576  12.268
37410W        W 9736  23.135  19.211  12.851
37411W        W 9737  31.209  30.762  13.057
37412W        W 9738  11.879   6.173   0.167
37413W        W 9739  35.073  42.630  11.993
37414W        W 9740  22.533  26.521   1.326
37415W        W 9741  27.526   6.979   0.264
37416W        W 9742  34.134  30.811   2.376
37417W        W 9743  33.398  39.847  10.433
37418W        W 9744   4.908  43.453   0.171
37419W        W 9745  11.196   3.778  14.727
37420W        W 9746  25.685  43.390   2.666
37421W        W 9747   9.827   7.644   2.811
37422W        W 9748  25.518   5.338   3.716
37423W        W 9749  33.165  38.490   5.012
37424W        W 9750   2.597  15.491   0.154
37425W        W 9751  33.759  39.784  11.964
37426W        W 9752   4.437  24.049   4.377
37427W        W 9753  30.547   0.663  10.711
37428W        W 9754  23.746  17.156  13.586
37429W        W 9755  39.040  22.759  14.833
37430W        W 9756  39.984  13.611  14.341
37431W        W 9757  32.949  24.162   1.392
37432W        W 9758  42.532  44.389   1.826
37433W        W 9759  44.460  14.048  12.111
37434W        W 9760  44.823  36.446  14.397
37435W        W 9761  39.000  35.800  12.565
37436W        W 9762  29.042  38.774   2.847
37437W        W 9763  27.545  23.774  13.967
37438W        W 9764  36.159  20.515  11.948
37439W        W 9765  28.132  13.134  14.692
37440W        W 9766  14.172  34.935  12.089
37441W        W 9767  26.648   7.195   2.288
37442W        W 9768  16.720   9.655  10.359
37443W        W 9769  19.325  15.435   3.273
37444W        W 9770  38.604  16.904  10.447
37445W        W 9771   0.723   9.171   0.301
37446W        W 9772   6.367  31.821   4.171
37447W        W 9773  31.965  23.747   2.411
37448W        W 9774  27.927  21.205  14.439
37449W        W 9775  12.080  11.743  10.941
37450W        W 9776  20.594  40.325   1.200
37451W        W 9777  16.824  37.311  10.481
37452W        W 9778  25.483  29.605   4.067
37453W        W 9779  23.357  18.136   1.226
37454W        W 9780  43.861  13.411   0.288
37455W        W 9781  25.023   3.383  13.651
37456W        W 9782  17.102  23.177   0.227
37457W        W 9783  28.918  15.815   2.791
37458W        W 9784  19.730  24.711  13.937
37459W        W 9785  26.250  21.300   1.515
37460W        W 9786   5.776   4.221   2.392
37461W        W 9787  43.346   0.858   3.219
37462W        W 9788  11.297  29.643   1.573
37463W        W 9789  41.336  14.373  14.058
37464W        W 9790   2.757   7.624   3.665
37465W        W 9791  19.578  23.192   0.543
37466W        W 9792   8.804  24.519   2.714
37467W        W 9793   0.964  41.220  11.732
37468W        W 9794  40.973   3.748   2.950
37469W        W 9795   6.673  30.383   3.369
37470W        W 9796  17.685  40.563   1.183
37471W        W 9797   6.215  41.502  11.594
37472W        W 9798  30.175  33.604   3.760
37473W        W 9799  26.969  35.358   2.329
37474W        W 9800  30.515  22.605  11.632
37475W        W 9801  41.559  34.363  11.507
37476W        W 9802  16.714  22.475   0.188
37477W        W 9803  43.122  30.300  11.989
37478W        W 9804   3.740  11.783  14.820
37479W        W 9805  31.328  27.055   4.720
37480W        W 9806  16.181   6.155   3.255
37481W        W 9807  29.054  19.203  11.583
37482W        W 9808  41.708   0.528  13.917
37483W        W 9809  11.459  35.788   1.827
37484W        W 9810   6.707   6.783   4.529
37485W        W 9811  34.881   1.854  13.054
37486W        W 9812  30.592  32.830   0.501
37487W        W 9813   6.633  30.006  11.979
37488W        W 9814  40.882  13.599   0.838
37489W        W 9815   7.672  23.787  10.340
37490W        W 9816  29.207  16.200  14.046
37491W        W 9817  23.436  28.007  13.828
37492W        W 9818  21.625  26.443  14.858
37493W        W 9819  13.304  11.623  13.681
37494W        W 9820  10.521   8.216  12.012
37495W        W 9821  27.250   2.233   4.190
37496W        W 9822  36.444  14.247  13.004
37497W        W 9823  42.909  40.778   0.786
37498W        W 9824  26.231  42.726   0.290
37499W        W 9825  30.618  27.089  13.599
37500W        W 9826  15.518   0.733   2.289
37501W        W 9827  19.943  30.916   9.766
37502W        W 9828  36.838  17.520   1.331
37503W        W 9829  40.145  42.527   0.173
37504W        W 9830   3.889  37.450   4.567
37505W        W 9831  23.648  39.046   2.839
37506W        W 9832  10.321  41.284  13.968
37507W        W 9833   7.265  41.849   3.289
37508W        W 9834  39.364  14.672  13.137
37509W        W 9835  36.028  27.699  12.514
37510W        W 9836   9.506  14.110  14.425
37511W        W 9837  36.852  15.462   3.456
37512W        W 9838  40.348  22.071  12.965
37513W        W 9839  12.085  28.693   0.760
37514W        W 9840  27.524   2.681   4.613
37515W        W 9841  42.418  24.327  13.306
37516W        W 9842   1.990  11.667  11.987
37517W        W 9843  38.587  19.632  14.593
37518W        W 9844   8.173  42.868  11.660
37519W        W 9845   4.251  42.194  11.488
37520W        W 9846  28.194  42.512   3.479
37521W        W 9847  39.403   6.359   0.687
37522W        W 9848  18.968  15.810   3.223
37523W        W 9849  28.184   5.256  11.948
37524W        W 9850  28.816  14.849  10.605
37525W        W 9851  17.195  31.617  14.379
37526W        W 9852  13.318  12.659  11.301
37527W        W 9853  28.639  22.787   1.309
37528W        W 9854  23.693  18.725  13.391
37529W        W 9855  22.477  40.025  12.320
37530W        W 9856  17.974   5.254   1.778
37531W        W 9857  23.027  25.220  13.097
37532W        W 9858  15.782  18.320   2.320
37533W        W 9859  31.052   0.692  14.228
37534W        W 9860  35.207   4.838   1.606
37535W        W 9861  42.832   9.784   3.206
37536W        W 9862  16.398  24.770  13.439
37537W        W 9863  12.355  11.397  13.823
37538W        W 9864   3.255  17.551   3.167
37539W        W 9865  29.847   3.892   2.726
37540W        W 9866  17.352   8.717  13.985
37541W        W 9867   9.234   5.389  11.451
37542W        W 9868  27.090  31.044  14.908
37543W        W 9869  41.601  40.190  10.947
37544W        W 9870  38.027   1.878  14.743
37545W        W 9871  12.972  24.677   0.205
37546W        W 9872   5.478  31.569  12.513
37547W        W 9873  26.478  28.120  12.080
37548W        W 9874  29.436  28.949  13.831
37549W        W 9875   0.902  41.092   4.633
37550W        W 9876  28.135   8.233  12.521
37551W        W 9877  28.676  28.457  11.418
37552W        W 9878   8.886  32.416  14.931
37553W        W 9879   2.901  12.024   5.568
37554W        W 9880   9.362  23.486   3.649
37555W        W 9881  13.638  12.627   1.831
37556W        W 9882  27.622  36.085  10.626
37557W        W 9883  25.730   3.617   2.029
37558W        W 9884  15.704  42.124  14.924
37559W        W 9885  13.715  17.406  12.847
37560W        W 9886   0.393   9.435   0.642
37561W        W 9887  11.103  29.598  13.126
37562W        W 9888  29.408  19.578   3.747
37563W        W 9889  12.737  23.744  13.885
37564W        W 9890  37.464  16.682   4.463
37565W        W 9891  23.281  19.665  13.614
37566W        W 9892   9.271   7.778   0.690
37567W        W 9893   2.792   1.394   4.129
37568W        W 9894  22.707  43.579   2.317
37569W        W 9895  15.556  18.973   0.526
37570W        W 9896  15.078  36.378  14.251
37571W        W 9897   2.808  43.506  12.855
37572W        W 9898  15.463  23.429   1.470
37573W        W 9899  32.153  37.877   4.515
37574W        W 9900  14.202  26.612   2.158
37575W        W 9901  19.469  22.761  14.654
37576W        W 9902  16.312  11.831  11.503
37577W        W 9903  41.768   8.676   5.059
37578W        W 9904   3.684  44.771   3.803
37579W        W 9905   9.923  31.673   3.680
37580W        W 9906  40.307  40.582  11.975
37581W        W 9907  25.489  19.050   4.462
37582W        W 9908  33.914  22.692   2.721
37583W        W 9909   9.780   2.823   0.440
37584W        W 9910   5.181  40.953  11.082
37585W        W 9911  15.118  35.789  11.662
37586W        W 9912  41.990   0.850  10.325
37587W        W 9913  15.841  32.388   0.836
37588W        W 9914   6.841  39.489  13.511
37589W        W 9915  28.476   8.690  14.515
37590W        W 9916  35.520  19.806  12.087
37591W        W 9917   6.478   7.681  13.748
37592W        W 9918  35.992   3.702  12.473
37593W        W 9919  27.140   3.734  12.069
37594W        W 9920  33.404  35.081   1.726
37595W        W 9921   0.827  11.076   5.571
37596W        W 9922  11.112   8.053   4.140
37597W        W 9923  19.663   3.291   2.935
37598W        W 9924  20.751  21.690   3.260
37599W        W 9925   6.648  31.622   1.431
37600W        W 9926   8.139  35.110   3.694
37601W        W 9927  27.933  20.170   2.676
37602W        W 9928  13.233  43.018  13.068
37603W        W 9929  29.584   1.953  12.464
37604W        W 9930  17.528   7.852  10.683
37605W        W 9931  32.423   9.362   2.874
37606W        W 9932   1.287  18.986  13.886
37607W        W 9933  38.066  15.799  13.471
37608W        W 9934  42.493   3.728  14.972
37609W        W 9935   1.453  18.652   2.611
37610W        W 9936   2.394  41.574  14.449
37611W        W 9937   4.849  34.596  12.988
37612W        W 9938  42.904   2.873   3.264
37613W        W 9939  13.322  41.970  11.193
37614W        W 9940  32.633   3.815  12.015
37615W        W 9941  39.939   6.267  12.520
37616W        W 9942   2.919  20.310  12.695
37617W        W 9943   1.882   1.271  12.965
37618W        W 9944  42.891   0.973   2.957
37619W        W 9945  20.330   8.923  11.999
37620W        W 9946  15.731  41.301  12.352
37621W        W 9947  20.073  28.017   2.683
37622W        W 9948  36.508  44.443   0.629
37623W        W 9949  19.831  28.722  13.259
37624W        W 9950  16.120   9.113   0.488
37625W        W 9951  30.021  37.899   3.091
37626W        W 9952  17.306   1.656  14.383
37627W        W 9953   5.932  41.874  14.852
37628W        W 9954   0.663   3.775  12.092
37629W        W 9955  26.907  35.427   0.347
37630W        W 9956  29.974  26.688  13.750
37631W        W 9957   2.460  13.029  13.965
37632W        W 9958  19.281  10.627   2.863
37633W        W 9959   0.788  30.565   2.184
37634W        W 9960   6.373   0.583  12.976
37635W        W 9961  19.044   5.272   0.012
37636W        W 9962  44.005   4.795  12.546
37637W        W 9963  24.185  42.424  12.408
37638W        W 9964  26.991  36.124  13.857
37639W        W 9965  16.792  14.554  14.498
37640W        W 9966  11.694   6.477  12.793
37641W        W 9967   7.973   4.886   0.300
37642W        W 9968  39.792  25.909  11.186
37643W        W 9969  16.733   0.008  13.509
37644W        W 9970  21.475  17.214   2.158
37645W        W 9971  10.224  10.086  14.122
37646W        W 9972   6.883  38.162   2.765
37647W        W 9973  26.149   5.639  14.920
37648W        W 9974   5.528  35.115   2.054
37649W        W 9975   9.345   8.082  13.380
37650W        W 9976  21.577  25.748   4.804
37651W        W 9977  11.708  16.168   3.715
37652W        W 9978  18.065  36.397  14.096
37653W        W 9979  39.615  19.752  13.966
37654W        W 9980  21.586  29.373  13.516
37655W        W 9981  14.308  11.922   3.269
37656W        W 9982  34.432  16.560  14.915
37657W        W 9983   7.442  10.823   2.576
37658W        W 9984  23.204   4.016  11.923
37659W        W 9985  12.677  29.640   2.765
37660W        W 9986  23.037  30.162   2.520
37661W        W 9987  29.665  40.831   3.824
37662W        W 9988  32.907   9.058  12.418
37663W        W 9989   0.873   2.454   1.601
37664W        W 9990  31.128  19.667   2.847
37665W        W 9991  42.980  17.234  13.754
37666W        W 9992  42.546   0.023  12.837
37667W        W 9993  31.518  12.125   2.945
37668W        W 9994  25.726  25.004   4.599
37669W        W 9995  19.938   4.789   2.125
37670W        W 9996  30.036   2.923   4.605
37671W        W 9997  44.524  40.372   2.805
37672W        W 9998   7.676  30.900   0.902
37673W        W 9999  15.771  22.130  14.857
37674W        W10000  44.490  19.978  12.143
37675W        W10001  41.452  19.501  13.889
37676W        W10002  34.999  28.974  11.680
37677W        W10003   8.865  34.319   2.703
37678W        W10004   9.317  33.113   3.226
37679W        W10005  20.670  20.304  11.894
37680W        W10006  33.464  39.264  14.710
37681W        W10007  22.011  24.481   3.761
37682W        W10008  21.368  22.917   1.393
37683W        W10009   3.419  15.227  11.198
37684W        W10010   4.770  31.402   3.764
37685W        W10011  43.473   0.163  10.734
37686W        W10012   8.871   8.912  12.064
37687W        W10013  31.982  23.611  13.940
37688W        W10014  16.593  16.298   0.825
37689W        W10015  18.663   0.723   4.711
37690W        W10016  16.097  27.651   1.367
37691W        W10017  20.955  28.934  12.974
37692W        W10018   2.293  23.533  10.227
37693W        W10019  25.565  22.654   3.230
37694W        W10020  10.147  40.975  10.007
37695W        W10021  17.776   3.438  11.003
37696W        W10022   3.079  25.919  14.306
37697W        W10023  10.663  21.224  14.426
37698W        W10024   5.289  23.368  12.478
37699W        W10025   3.670   1.677   1.433
37700W        W10026   5.127   0.236   4.038
37701W        W10027   5.152  11.675  11.182
37702W        W10028  41.301  13.375  13.974
37703W        W10029   4.297  42.300  10.481
37704W        W10030  10.280  41.516   1.848
37705W        W10031  25.883  36.998   3.073
37706W        W10032  10.273  14.552   4.246
37707W        W10033  12.031  16.702   3.220
37708W        W10034  35.056   0.425   3.440
37709W        W10035   3.381  37.624   4.585
37710W        W10036  24.955  30.373   4.727
37711W        W10037  34.372  25.348   2.484
37712W        W10038  31.758  10.646   4.180
37713W        W10039  30.490   1.366   3.656
37714W        W10040  14.366  41.356   4.649
37715W        W10041   7.253  17.651   2.732
37716W        W10042  30.921  15.630   0.878
37717W        W10043  14.688  40.535   4.612
37718W        W10044  19.334  21.150  12.468
37719W        W10045  22.458  13.025   0.708
37720W        W10046  33.776  29.193   2.498
37721W        W10047  27.142  31.419   2.338
37722W        W10048  38.650  33.043  14.566
37723W        W10049  18.099  15.654  13.119
37724W        W10050  18.208   8.927  12.450
37725W        W10051  31.931  35.049  14.925
37726W        W10052   6.781   1.058  12.334
37727W        W10053  30.645  17.222  10.448
37728W        W10054   2.310  38.117   2.721
37729W        W10055  10.415  29.239  14.350
37730W        W10056   3.379   3.285  10.617
37731W        W10057  25.385   6.697   1.956
37732W        W10058   7.449  44.391   2.200
37733W        W10059   7.345  19.292   2.415
37734W        W10060  14.706   1.820  13.985
37735W        W10061  28.244  37.556  10.759
37736W        W10062   3.296  42.823   2.314
37737W        W10063  13.728  43.700   2.895
37738W        W10064   5.306   8.981  14.957
37739W        W10065  12.673  43.118   2.723
37740W        W10066  42.043  17.375  14.844
37741W        W10067  31.105  30.114   1.428
37742W        W10068   9.366  16.120  14.426
37743W        W10069  24.576   0.338  12.817
37744W        W10070  23.599  44.082  12.751
37745W        W10071  31.464  40.330   1.114
37746W        W10072  24.558  42.506   3.828
37747W        W10073  24.830   1.775  11.643
37748W        W10074  17.846  39.564   1.365
37749W        W10075  37.966  27.240  13.392
37750W        W10076  11.836  28.074   2.892
37751W        W10077   2.812  36.611   1.745
37752W        W10078  16.843  39.545   2.739
37753W        W10079  26.925  40.986   1.534
37754W        W10080  22.776  38.011  11.677
37755W        W10081  31.726  15.538   2.158
37756W        W10082  26.590  21.203  13.930
37757W        W10083  44.466  15.200  11.067
37758W        W10084  28.020  31.017  14.016
37759W        W10085  35.301  35.650   0.920
37760W        W10086  23.926  44.372  13.458
37761W        W10087  15.483  10.699  14.925
37762W        W10088  29.367  17.299   0.430
37763W        W10089  39.209  12.827   3.751
37764W        W10090  33.527   3.701   1.370
37765W        W10091   9.627  11.800   4.886
37766W        W10092  42.737  27.537   4.071
37767W        W10093  38.443  39.648   0.270
37768W        W10094  44.311  38.303  13.795
37769W        W10095  13.643  23.254   1.665
37770W        W10096  10.112  28.020  10.631
37771W        W10097  18.669  43.120  12.497
37772W        W10098   4.080  24.519   3.762
37773W        W10099   3.752   6.303   3.913
37774W        W10100   8.691  32.844  14.672
37775W        W10101  29.669  21.023   1.899
37776W        W10102  34.960  35.661   1.919
37777W        W10103  34.123  31.124  11.164
37778W        W10104  36.770  39.989   2.299
37779W        W10105  41.967  12.924  10.888
37780W        W10106  29.992  24.934  11.495
37781W        W10107  14.625  41.885  13.307
37782W        W10108   5.381   6.289   2.925
37783W        W10109   3.353  43.501   4.348
37784W        W10110   3.471   9.790   1.419
37785W        W10111  18.562   1.033   4.293
37786W        W10112  37.366  22.774   1.795
37787W        W10113  32.009   5.354  12.857
37788W        W10114  26.577  39.223   3.216
37789W        W10115   2.294   4.265   9.753
37790W        W10116  37.318  38.093  13.623
37791W        W10117   4.460   3.880   0.340
37792W        W10118  40.974  40.823  13.992
37793W        W10119  26.239  27.221   3.311
37794W        W10120  42.882  28.233  14.421
37795W        W10121   1.395  27.536  13.589
37796W        W10122   4.698  26.911   0.011
37797W        W10123  23.653  27.536   2.170
37798W        W10124  24.122  28.476  12.479
37799W        W10125  20.435   1.611  11.967
37800W        W10126  31.421  12.238   0.983
37801W        W10127  36.819   9.881  11.045
37802W        W10128  11.872  38.197   4.115
37803W        W10129  35.110   7.452   0.972
37804W        W10130   8.325   9.101   4.903
37805W        W10131  33.619  25.099   0.003
37806W        W10132  23.750   1.794   4.309
37807W        W10133  42.481  21.589   4.466
37808W        W10134  36.404  25.691  13.500
37809W        W10135   3.150   1.434  11.583
37810W        W10136   0.515  21.878  13.879
37811W        W10137  43.880  12.372   2.695
37812W        W10138  41.741  38.063  14.801
37813W        W10139  43.757   0.692   3.880
37814W        W10140  11.972  33.588  13.922
37815W        W10141  27.188  33.516   2.171
37816W        W10142   0.824   9.117  13.052
37817W        W10143  20.602  37.404   4.675
37818W        W10144   2.463  28.925  12.481
37819W        W10145  13.078  42.347   2.212
37820W        W10146  41.321  11.632  14.564
37821W        W10147  40.426   8.910  14.962
37822W        W10148  19.828  24.448   2.645
37823W        W10149   0.414  22.692   3.728
37824W        W10150  18.102  28.656  10.703
37825W        W10151  19.209  37.267   4.147
37826W        W10152  34.069   1.967  12.500
37827W        W10153  28.499  44.484   4.395
37828W        W10154  20.451   8.688   0.257
37829W        W10155  40.401  34.198  13.339
37830W        W10156  23.987   0.402   3.820
37831W        W10157  44.723  14.337   2.812
37832W        W10158  29.169  20.966   1.808
37833W        W10159  18.204  13.292  10.720
37834W        W10160  23.666  41.093  12.856
37835W        W10161   3.817  17.322  10.600
37836W        W10162  15.430  36.493  13.243
37837W        W10163   4.402  10.205   4.176
37838W        W10164   5.328  26.714  14.940
37839W        W10165  43.912  14.067  13.892
37840W        W10166   0.512  23.300   5.590
37841W        W10167   3.456  26.587   0.085
37842W        W10168   4.822  20.026  10.590
37843W        W10169  34.362   0.748  11.120
37844W        W10170  11.049  22.734  10.378
37845W        W10171  18.289  15.712   4.344
37846W        W10172   3.032  40.203  13.818
37847W        W10173  16.860  10.568   3.320
37848W        W10174  32.128  38.990   3.263
37849W        W10175   6.846   9.190  11.072
37850W        W10176  33.727  10.111   4.239
37851W        W10177  10.277  42.384  11.872
37852W        W10178   8.824  41.981  11.094
37853W        W10179  17.068  40.932  12.445
37854W        W10180  12.840  15.792  11.018
37855W        W10181  28.168   9.894  11.898
37856W        W10182  26.522   5.507   3.772
37857W        W10183  11.772  19.544   1.671
37858W        W10184  13.318  43.384   3.962
37859W        W10185  38.066  10.882  14.927
37860W        W10186  35.414   3.407  11.081
37861W        W10187   4.937   0.171  11.502
37862W        W10188  42.772  23.087  14.778
37863W        W10189  18.352  30.601  14.316
37864W        W10190  33.460   0.963   0.925
37865W        W10191  14.641  25.773  11.552
37866W        W10192   0.337   4.658  12.939
37867W        W10193  44.930  36.525   1.351
37868W        W10194  40.493  20.121  14.929
37869W        W10195  29.032  22.993   2.003
37870W        W10196  41.924  20.084  13.342
37871W        W10197  39.621  40.451  13.288
37872W        W10198   6.231  20.050  12.496
37873W        W10199  29.403  26.653   2.282
37874W        W10200  23.542   6.580   4.300
37875W        W10201  12.744   1.501   3.311
37876W        W10202  41.450  11.128  14.526
37877W        W10203  16.775   1.170   1.411
37878W        W10204  12.129  42.514   4.106
37879W        W10205  43.442   6.693  14.360
37880W        W10206  11.737   1.340   1.397
37881W        W10207  20.491  35.575  12.987
37882W        W10208  20.844  10.383   0.734
37883W        W10209  20.436   3.277  11.164
37884W        W10210  37.260  40.213  14.714
37885W        W10211  38.822  18.951   2.455
37886W        W10212  16.664  22.458   1.530
37887W        W10213   9.382  18.503   2.895
37888W        W10214  32.470  44.713   2.816
37889W        W10215  42.126  41.725   0.325
37890W        W10216  27.763  43.297   4.992
37891W        W10217  28.456  17.710   1.915
37892W        W10218  19.199  27.915   4.308
37893W        W10219   7.360  16.602   1.852
37894W        W10220  14.323  25.980   3.238
37895W        W10221  21.789  21.335  14.939
37896W        W10222  43.392  15.094   1.402
37897W        W10223  20.618  19.673   1.256
37898W        W10224   9.658  40.552  12.078
37899W        W10225  33.986  23.161  14.008
37900W        W10226  17.565  16.973  11.146
37901W        W10227  39.550  39.668  13.723
37902W        W10228  42.998  40.411  12.496
37903W        W10229   1.727  33.441  10.620
37904W        W10230  42.547   8.767   4.378
37905W        W10231  32.104  16.434  13.986
37906W        W10232   8.357  33.990   2.271
37907W        W10233  44.842  17.025   1.145
37908W        W10234  34.914   3.466  10.874
37909W        W10235  11.596   3.274   4.220
37910W        W10236  28.887  41.978   1.713
37911W        W10237  28.884   3.543  11.596
37912W        W10238   4.247  21.178  11.568
37913W        W10239  23.406  34.661   3.148
37914W        W10240  29.232  25.033  14.423
37915W        W10241  34.889  36.062   1.605
37916W        W10242  43.807   7.033  14.431
37917W        W10243  38.615  14.006   0.769
37918W        W10244  28.064   3.459   3.703
37919W        W10245  13.320  21.550  10.283
37920W        W10246  43.983  26.635  10.846
37921W        W10247   6.260  39.730  13.350
37922W        W10248  42.396   7.002   4.595
37923W        W10249  26.451   9.611  14.801
37924W        W10250  15.733  37.340   0.168
37925W        W10251  29.502   2.905   4.575
37926W        W10252  23.750  20.692  14.326
37927W        W10253  44.148  15.385  14.063
37928W        W10254  43.886   9.176  12.882
37929W        W10255  31.331   3.826  14.443
37930W        W10256  22.448  16.689   2.690
37931W        W10257  21.679  41.333  12.446
37932W        W10258   8.169  39.243  14.688
37933W        W10259  23.182  35.763  14.311
37934W        W10260   5.319  23.839   1.141
37935W        W10261  29.096  25.626   2.040
37936W        W10262  21.195  28.472  12.828
37937W        W10263  34.868  21.305  14.790
37938W        W10264  31.745  40.886  12.078
37939W        W10265  11.089   8.225  14.237
37940W        W10266  26.685   2.073  12.389
37941W        W10267  20.820  19.578  14.474
37942W        W10268  31.662  25.970   4.679
37943W        W10269  28.974  38.816   4.250
37944W        W10270  19.424  19.355  14.841
37945W        W10271  14.952  27.289  10.634
37946W        W10272  42.254  39.506   4.331
37947W        W10273  26.943   9.268  12.153
37948W        W10274  15.503   5.709   1.274
37949W        W10275   2.472   4.332   1.186
37950W        W10276   2.367  44.735   1.454
37951W        W10277  10.428   3.684  10.741
37952W        W10278  27.196  44.421   1.671
37953W        W10279  25.239  34.002  12.401
37954W        W10280  37.899  35.088  14.888
37955W        W10281  39.484  26.183   2.829
37956W        W10282   9.572  30.020  14.855
37957W        W10283  32.258  40.825   0.702
37958W        W10284  13.259  27.246  13.512
37959W        W10285  12.110   6.832   4.619
37960W        W10286   9.273  15.216   1.787
37961W        W10287  33.795  44.883   2.591
37962W        W10288   9.240  24.937   0.433
37963W        W10289   4.148  22.630   2.601
37964W        W10290  23.551  24.179   1.906
37965W        W10291   2.832  19.037  13.845
37966W        W10292   6.830  14.616   2.273
37967W        W10293   5.356   4.510   1.314
37968W        W10294  23.475  16.553   1.843
37969W        W10295   5.776  30.397  12.371
37970W        W10296  28.886  29.064  10.401
37971W        W10297  21.037  25.640  10.361
37972W        W10298  44.801   4.458   1.814
37973W        W10299   6.743  30.759   0.957
37974W        W10300  27.000  39.410   2.372
37975W        W10301  31.943  14.602   4.568
37976W        W10302  33.047  38.459   4.488
37977W        W10303  42.871  25.270   2.259
37978W        W10304   5.326  13.091   0.324
37979W        W10305  21.328  30.587   1.917
37980W        W10306  28.653  16.626  12.873
37981W        W10307  29.993  41.840  10.740
37982W        W10308   1.698  21.029   0.740
37983W        W10309   3.713   6.217   2.187
37984W        W10310  34.181  37.393  10.148
37985W        W10311  11.211  43.720   3.279
37986W        W10312   6.766  33.437  12.540
37987W        W10313  16.535   7.571  10.771
37988W        W10314  43.890  22.843   2.395
37989W        W10315  42.868  24.172   0.488
37990W        W10316  25.263   1.400   0.366
37991W        W10317  35.978  16.623  14.495
37992W        W10318  40.832  30.510  11.229
37993W        W10319  20.743  26.599   2.796
37994W        W10320  25.906  44.381   0.360
37995W        W10321  12.137  38.885   1.675
37996W        W10322  24.755  19.654  11.496
37997W        W10323   6.517  18.714   3.372
37998W        W10324   1.428  36.472   0.923
37999W        W10325  28.469  25.064   2.111
38000W        W10326   0.489  10.145   1.207
38001W        W10327  42.055  22.549  10.535
38002W        W10328  15.130  25.984  10.377
38003W        W10329  40.856  24.824   0.928
38004W        W10330  39.032  34.084  12.539
38005W        W10331  33.941  32.543   1.178
38006W        W10332  43.780  24.109   1.842
38007W        W10333   7.239  35.373   2.006
38008W        W10334  13.785  12.820  13.441
38009W        W10335  11.218   4.477   4.844
38010W        W10336   8.234  42.753  10.667
38011W        W10337  43.929  41.956  10.412
38012W        W10338  44.574  40.875   2.805
38013W        W10339  24.949  44.444   0.454
38014W        W10340  43.062  21.145  10.112
38015W        W10341  12.600  15.027  13.023
38016W        W10342  33.785  33.057  12.909
38017W        W10343  41.507  41.953   2.898
38018W        W10344  21.715  36.414  10.735
38019W        W10345  43.587  32.951   0.237
38020W        W10346  28.938  17.262   1.288
38021W        W10347  15.135  23.205  11.042
38022W        W10348  35.854  20.767  12.280
38023W        W10349   0.170   3.291   4.706
38024W        W10350  15.320  19.410  14.354
38025W        W10351  39.845  30.231   3.061
38026W        W10352  18.655  41.377   0.399
38027W        W10353  14.491  30.245   2.604
38028W        W10354   6.362   9.691   2.216
38029W        W10355  40.507  15.636  13.427
38030W        W10356  26.626  32.917  12.936
38031W        W10357  43.013   8.733   4.112
38032W        W10358   1.649   1.833   1.394
38033W        W10359   0.244   6.236  13.361
38034W        W10360   9.871  12.652  14.419
38035W        W10361  42.806  19.577  11.631
38036W        W10362   3.672  35.194  13.946
38037W        W10363  44.829  12.695  11.224
38038W        W10364  10.389  34.094   4.270
38039W        W10365   7.180   8.322   2.186
38040W        W10366   2.709  19.022  14.768
38041W        W10367  24.026  39.560  14.334
38042W        W10368  27.979  27.034   1.428
38043W        W10369  29.027  11.659   2.799
38044W        W10370  32.368  11.258   3.558
38045W        W10371   8.984   7.831  11.936
38046W        W10372  20.307   6.767   3.675
38047W        W10373   2.913  37.381   4.592
38048W        W10374  38.597  34.354  13.069
38049W        W10375   4.438  31.052   2.471
38050W        W10376  43.921   5.302  13.760
38051W        W10377  25.395  12.636  10.766
38052W        W10378  30.547  30.963  11.910
38053W        W10379  15.543   7.213   2.664
38054W        W10380  39.277  36.493  12.316
38055W        W10381  44.998  29.987   4.900
38056W        W10382   6.266   4.705  11.961
38057W        W10383  37.892  10.187   5.279
38058W        W10384  20.193  42.442   3.722
38059W        W10385   8.979  14.223  14.432
38060W        W10386   3.051  29.990  11.207
38061W        W10387  44.028  28.629  12.441
38062W        W10388  29.383  24.266  12.125
38063W        W10389  28.120  27.659  13.986
38064W        W10390  16.400  22.720   4.290
38065W        W10391  13.581  27.402  10.495
38066W        W10392  30.704  23.898   0.681
38067W        W10393  15.101   3.448   4.417
38068W        W10394   4.861  20.713   3.505
38069W        W10395  24.712  25.408   1.428
38070W        W10396  22.971   7.707   1.833
38071W        W10397  25.678  22.210   2.370
38072W        W10398  17.698  27.474  11.633
38073W        W10399  25.943  33.891   4.894
38074W        W10400  27.061  29.727   3.276
38075W        W10401   8.907   8.174  10.701
38076W        W10402  41.053   1.508   2.812
38077W        W10403  20.162  39.106  13.450
38078W        W10404  30.552  24.734  12.655
38079W        W10405  30.598   0.515   2.398
38080W        W10406   4.826   5.799   0.489
38081W        W10407  28.117  40.354  11.865
38082W        W10408  42.945  10.036   2.748
38083W        W10409  27.179  27.985  13.436
38084W        W10410  28.725  29.886   2.315
38085W        W10411  23.614   2.860  11.528
38086W        W10412  33.108  17.512  11.071
38087W        W10413  43.845  17.386  14.810
38088W        W10414  11.645  43.382  10.843
38089W        W10415  35.063   0.779  13.066
38090W        W10416  38.923  12.428   5.264
38091W        W10417   2.826  15.489  12.106
38092W        W10418  11.826  41.936   1.958
38093W        W10419  16.028   4.213   2.089
38094W        W10420  30.570  29.592  11.656
38095W        W10421   5.311  23.118   2.316
38096W        W10422  32.526   7.772  14.089
38097W        W10423   1.275  36.464  10.760
38098W        W10424   2.774   5.036  10.580
38099W        W10425  13.188  34.433   2.332
38100W        W10426  32.442  21.158   0.586
38101W        W10427   4.809  10.092   3.676
38102W        W10428  16.278  44.417   3.299
38103W        W10429  20.435   7.821   0.072
38104W        W10430  11.726   6.333  14.693
38105W        W10431  34.964   1.049   1.633
38106W        W10432  40.808  41.543  12.534
38107W        W10433  42.895   6.926  11.601
38108W        W10434  17.295  16.624   3.330
38109W        W10435   0.406  36.894   0.475
38110W        W10436  39.237  17.293  13.886
38111W        W10437  20.242  23.446   1.784
38112W        W10438  18.724  37.548   1.060
38113W        W10439  39.914  32.709   3.823
38114W        W10440   4.931  36.189  11.977
38115W        W10441  41.991  23.772  11.049
38116W        W10442   7.290  13.197  14.430
38117W        W10443   9.778   3.275   1.274
38118W        W10444   2.193  24.387  12.903
38119W        W10445  41.060  18.534   2.329
38120W        W10446  14.841  40.476  11.346
38121W        W10447  13.583   8.636   2.539
38122W        W10448  26.216   2.860   3.272
38123W        W10449  26.179  34.049  10.699
38124W        W10450  44.657  13.274   4.605
38125W        W10451   2.483   2.430  10.999
38126W        W10452  39.582  18.562   1.215
38127W        W10453   4.704   7.556   0.493
38128W        W10454   8.739  37.505  10.663
38129W        W10455  14.132  15.724   1.535
38130W        W10456  19.744  36.687  12.130
38131W        W10457   0.330  36.365  12.178
38132W        W10458  23.179   1.372   1.187
38133W        W10459   0.045   8.702   3.744
38134W        W10460  33.512   2.401  12.455
38135W        W10461  21.983  20.475   4.512
38136W        W10462   2.808  42.513   0.688
38137W        W10463  34.298  32.169  13.991
38138W        W10464   5.736  23.228   4.287
38139W        W10465  16.085  24.627  12.052
38140W        W10466  29.837   6.421  13.434
38141W        W10467  44.286  13.709  13.961
38142W        W10468  11.316  40.231  12.541
38143W        W10469  34.036  35.252  12.413
38144W        W10470  34.378  19.576   3.312
38145W        W10471  44.031  35.542   0.105
38146W        W10472  32.315  25.095   1.899
38147W        W10473  17.603  20.213  14.934
38148W        W10474   9.932  32.345  14.846
38149W        W10475  34.366   4.394  14.470
38150W        W10476  16.844  39.122  13.886
38151W        W10477  32.750   1.736   1.477
38152W        W10478  37.832   3.080  11.534
38153W        W10479  13.941  29.010   2.587
38154W        W10480   1.451   3.733   5.151
38155W        W10481  23.220   9.419  11.547
38156W        W10482  44.020  23.067   0.286
38157W        W10483   1.980   3.381  13.353
38158W        W10484  34.583  20.047   3.236
38159W        W10485  30.593   2.857  14.694
38160W        W10486  39.936  41.807   4.561
38161W        W10487  35.644  34.294  13.576
38162W        W10488  16.711  31.417   1.433
38163W        W10489  28.014  30.080   4.244
38164W        W10490  31.588  39.515   3.731
38165W        W10491   0.881  43.636  14.804
38166W        W10492  24.517  24.654   3.212
38167W        W10493  32.149   6.458  11.530
38168W        W10494  27.744  15.103   1.586
38169W        W10495  41.025  20.587   1.415
38170W        W10496  31.415  22.487   0.529
38171W        W10497  30.057   8.650  12.063
38172W        W10498  32.865   4.985  10.977
38173W        W10499  42.281  11.357   0.002
38174W        W10500  12.255  20.058   2.660
38175W        W10501   9.402  24.520  11.464
38176W        W10502  28.976  26.964   0.904
38177W        W10503  24.489  28.124   1.587
38178W        W10504   2.189   0.897  13.200
38179W        W10505  26.002  29.357  14.629
38180W        W10506  27.220  32.579   4.774
38181W        W10507  28.111   9.868  10.413
38182W        W10508  34.070  24.890  11.195
38183W        W10509   8.914  41.331  12.552
38184W        W10510  13.348  11.658   1.852
38185W        W10511  10.926   0.488  13.390
38186W        W10512  37.419  33.427   4.172
38187W        W10513  40.886  25.960   0.380
38188W        W10514   1.826  24.530   0.912
38189W        W10515  19.963   4.536  11.903
38190W        W10516  40.678   1.197   3.122
38191W        W10517  36.018  43.922  11.516
38192W        W10518   7.458  13.437   4.268
38193W        W10519   9.932  17.661   3.407
38194W        W10520  44.779   6.206   0.324
38195W        W10521  32.554  13.517  12.418
38196W        W10522  24.498  23.535  14.229
38197W        W10523  40.037  10.186   4.652
38198W        W10524  42.509  16.712  12.085
38199W        W10525  33.491  27.459   0.350
38200W        W10526  24.018  14.641   2.315
38201W        W10527   6.220  11.918  12.915
38202W        W10528  38.283  43.299   0.872
38203W        W10529  13.579  41.967  10.744
38204W        W10530  25.434  17.903  10.086
38205W        W10531  26.538  44.871  14.471
38206W        W10532  26.832   0.668  11.212
38207W        W10533  40.161  31.737   0.755
38208W        W10534  44.826  22.221   3.336
38209W        W10535  23.615  23.557  13.984
38210W        W10536  23.879  20.464  12.473
38211W        W10537  11.699  10.654   2.765
38212W        W10538  44.220   3.485  11.095
38213W        W10539  34.555  38.915  13.119
38214W        W10540   7.165  31.184  10.645
38215W        W10541  36.548  43.258   3.600
38216W        W10542  25.799  38.977  10.691
38217W        W10543   1.783  27.464  14.527
38218W        W10544   6.250  14.430   0.870
38219W        W10545  18.532  23.771  12.816
38220W        W10546  19.405   5.189  10.706
38221W        W10547  39.757  17.274  13.866
38222W        W10548  21.667   1.647  10.723
38223W        W10549  37.273   8.984  13.022
38224W        W10550  40.576  32.427  12.366
38225W        W10551  38.839   6.737  10.090
38226W        W10552  23.960  16.818   4.906
38227W        W10553  10.391  33.268   5.098
38228W        W10554  29.386  33.370  12.243
38229W        W10555   1.107  30.074   3.599
38230W        W10556  43.490  40.817  11.748
38231W        W10557  16.997  27.199  11.621
38232W        W10558   3.858  10.874   1.593
38233W        W10559  18.067  30.004  13.178
38234W        W10560  13.098  21.936   1.213
38235W        W10561  30.653  12.383   1.935
38236W        W10562  30.953   7.922   1.786
38237W        W10563  18.069  26.472  11.290
38238W        W10564  22.916   9.808   0.324
38239W        W10565   2.918  38.616  11.863
38240W        W10566   3.278  42.316  12.458
38241W        W10567  20.198  41.484   4.115
38242W        W10568  37.185  14.689   2.441
38243W        W10569  29.914  12.539  12.359
38244W        W10570  35.874  34.469   2.441
38245W        W10571  15.995  27.619   2.305
38246W        W10572  11.365   9.912   2.145
38247W        W10573   5.766  34.595   2.171
38248W        W10574  36.988  20.166   1.606
38249W        W10575  11.293  31.013  12.386
38250W        W10576   8.055  41.541  11.927
38251W        W10577  34.835  30.061  11.988
38252W        W10578   2.692  24.017  12.461
38253W        W10579  22.630  18.772  11.272
38254W        W10580  37.297  29.306  12.117
38255W        W10581  38.117   6.821  14.471
38256W        W10582   9.126  33.901  12.647
38257W        W10583  44.823  29.740  13.349
38258W        W10584  30.093  25.429  14.909
38259W        W10585   1.950  13.098   1.454
38260W        W10586  12.216  18.398   4.113
38261W        W10587   1.245  27.694  11.392
38262W        W10588  15.263  41.755   4.049
38263W        W10589  44.602  21.033   0.186
38264W        W10590  12.584  16.703   2.671
38265W        W10591   3.427   9.745  10.684
38266W        W10592  28.903  41.479  14.422
38267W        W10593  43.208  27.997  10.685
38268W        W10594  36.766  38.650  13.319
38269W        W10595  36.992   4.189  13.017
38270W        W10596  21.816  43.787  11.199
38271W        W10597   6.623  23.554   3.711
38272W        W10598   5.958  42.547  12.534
38273W        W10599  42.503  39.378   3.276
38274W        W10600  35.383   0.940  12.714
38275W        W10601  20.595   8.918  13.913
38276W        W10602  24.887  21.382  14.462
38277W        W10603  18.548   8.424  13.031
38278W        W10604  11.620  12.829   5.086
38279W        W10605  36.955  11.285   1.613
38280W        W10606  15.152  29.101  13.290
38281W        W10607  17.187  24.214  13.691
38282W        W10608  31.680  39.332  10.647
38283W        W10609  11.840  10.710  13.290
38284W        W10610   0.161   2.796   0.759
38285W        W10611  42.862  38.871   4.151
38286W        W10612   9.961   4.202  13.467
38287W        W10613   6.813  25.111  12.555
38288W        W10614  19.838  30.086  13.533
38289W        W10615  23.525  34.856  12.531
38290W        W10616  29.543  28.233   5.537
38291W        W10617   9.746  10.203   2.917
38292W        W10618   7.608  33.673  11.989
38293W        W10619  22.454  18.680   2.218
38294W        W10620   7.279   0.350   0.210
38295W        W10621  25.149  23.691   1.304
38296W        W10622  33.505  14.478  12.453
38297W        W10623  22.504  44.911   4.378
38298W        W10624  19.130  32.264  12.943
38299W        W10625  12.636   2.369   4.668
38300W        W10626  23.771   2.855  12.505
38301W        W10627  33.150  37.420   1.852
38302W        W10628  33.908  29.196  11.152
38303W        W10629  38.656  24.062   3.906
38304W        W10630   0.186  26.676  10.529
38305W        W10631   8.225  30.878  12.099
38306W        W10632   8.235   6.857  11.265
38307W        W10633  21.326   7.767   3.837
38308W        W10634   6.146  14.765  13.144
38309W        W10635   3.381   8.409  12.590
38310W        W10636  42.225  14.513   0.356
38311W        W10637  11.219  38.698   0.008
38312W        W10638   5.619  19.540   4.514
38313W        W10639  27.609  40.452  13.112
38314W        W10640  22.338  38.103   0.977
38315W        W10641  17.189   0.086   0.454
38316W        W10642  14.305  13.666   4.659
38317W        W10643  11.693  19.688   3.514
38318W        W10644   7.567  15.196  11.599
38319W        W10645  39.032   6.230  13.262
38320W        W10646  26.151  11.629   4.560
38321W        W10647  11.292  23.244  13.139
38322W        W10648  43.042   7.310  14.999
38323W        W10649   3.226  43.373   0.793
38324W        W10650  37.815  30.123  14.887
38325W        W10651  36.982  40.347   4.249
38326W        W10652  25.991  34.496   3.127
38327W        W10653  35.555  28.316  12.078
38328W        W10654  28.912  20.452  12.908
38329W        W10655   2.671   1.001  14.067
38330W        W10656  11.373  11.672   1.462
38331W        W10657  29.443  26.967  10.580
38332W        W10658  28.685   6.825  11.249
38333W        W10659  37.128  14.792  12.425
38334W        W10660  36.424  15.192   3.633
38335W        W10661  35.570   5.560  13.827
38336W        W10662  32.767  37.744  14.850
38337W        W10663   8.823  38.029  12.949
38338W        W10664  24.662  26.622  10.530
38339W        W10665  13.908  23.931  10.572
38340W        W10666  16.742  24.522   0.363
38341W        W10667   0.181  34.376  14.858
38342W        W10668  21.569  42.742  10.556
38343W        W10669  42.961   1.387   3.733
38344W        W10670  41.723  29.660   4.800
38345W        W10671  39.646  26.697   0.312
38346W        W10672  12.316   2.416   0.909
38347W        W10673  39.616  15.197   4.107
38348W        W10674  17.350  16.667   0.459
38349W        W10675  40.537  33.044  11.950
38350W        W10676  14.428  12.874   2.388
38351W        W10677  20.709  28.915   0.693
38352W        W10678   2.720   2.907  14.107
38353W        W10679  32.233  20.298  11.091
38354W        W10680  27.713  23.432  12.556
38355W        W10681  31.650  20.035  14.879
38356W        W10682  26.183  18.086   2.043
38357W        W10683  12.424  21.717  14.010
38358W        W10684  20.643   9.441   0.873
38359W        W10685  22.963  17.565   4.149
38360W        W10686  33.903   1.553  14.801
38361W        W10687  13.700  24.980  11.539
38362W        W10688   5.816  36.578  13.838
38363W        W10689   0.245   9.197  10.646
38364W        W10690   9.449   7.620  11.965
38365W        W10691  33.732  21.155   3.266
38366W        W10692  24.581   9.455   3.797
38367W        W10693  21.641  28.169   3.638
38368W        W10694  19.619  40.709  12.994
38369W        W10695   9.894  40.147   0.444
38370W        W10696   3.900  15.006   4.715
38371W        W10697  41.298  29.208   1.161
38372W        W10698   4.686  23.069   4.776
38373W        W10699   6.877  35.594  11.418
38374W        W10700   0.077  14.832   4.767
38375W        W10701  39.986  29.960  14.335
38376W        W10702  11.937   1.662   4.240
38377W        W10703  42.269  23.206  14.942
38378W        W10704  11.319  32.957   1.645
38379W        W10705   1.621  18.430   1.347
38380W        W10706   2.815  10.215  10.248
38381W        W10707  40.025  13.379   4.525
38382W        W10708  14.108  36.832   2.887
38383W        W10709  14.790   4.375   4.103
38384W        W10710   0.884  41.241   3.273
38385W        W10711   5.298  41.377  11.406
38386W        W10712  24.111  36.489  11.678
38387W        W10713  22.175   8.924  14.209
38388W        W10714   2.868   3.362   9.625
38389W        W10715  36.770   9.645  11.590
38390W        W10716  38.635  30.555  14.275
38391W        W10717   6.423  42.440   2.293
38392W        W10718  21.242  22.132  12.888
38393W        W10719   7.816  12.260   0.307
38394W        W10720   4.895  11.626   3.738
38395W        W10721  35.361  25.468  12.486
38396W        W10722  31.493  16.519   1.248
38397W        W10723  11.077  16.627  14.820
38398W        W10724  18.230  11.491  11.025
38399W        W10725  42.199  35.063  13.265
38400W        W10726  13.792  20.088   4.682
38401W        W10727  19.637   4.877  14.025
38402W        W10728  40.410  27.931   3.167
38403W        W10729   3.877  42.426   2.195
38404W        W10730  29.503  31.559   1.847
38405W        W10731  25.000  27.961  13.369
38406W        W10732   3.463   4.262   5.510
38407W        W10733   1.521  10.460  11.380
38408W        W10734  23.908  43.302  13.026
38409W        W10735  27.057  35.601  13.950
38410W        W10736  27.437   1.855   2.034
38411W        W10737  15.538  16.918   4.933
38412W        W10738  17.391  15.399   1.413
38413W        W10739  18.943  12.570   2.654
38414W        W10740  34.315   8.295   3.633
38415W        W10741   2.232  25.643   3.681
38416W        W10742   7.933  34.828   4.519
38417W        W10743  44.382  40.930  11.194
38418W        W10744   5.911  42.511   3.195
38419W        W10745   8.308  19.150   4.030
38420W        W10746  17.770  40.156   0.243
38421W        W10747   2.075  30.060  11.074
38422W        W10748  17.364   6.472  13.366
38423W        W10749  35.942  13.803   4.868
38424W        W10750   9.824   6.824  13.519
38425W        W10751  16.749  20.963  14.950
38426W        W10752  35.473  35.250   4.107
38427W        W10753  34.124  31.471   1.947
38428W        W10754   9.059  35.819   1.411
38429W        W10755  14.621  23.183  11.149
38430W        W10756  14.392  16.860  14.406
38431W        W10757  41.024  16.576  12.697
38432W        W10758  13.568   3.511  12.721
38433W        W10759   1.446   9.256   1.953
38434W        W10760  16.680  10.523  10.577
38435W        W10761  13.363  25.755  12.610
38436W        W10762   0.104   9.700   3.236
38437W        W10763  29.187  35.941   2.155
38438W        W10764  42.256   2.763   4.803
38439W        W10765  36.066  30.953   1.224
38440W        W10766   2.308  28.778  10.585
38441W        W10767  27.196  21.648   3.374
38442W        W10768  24.719  25.575   3.782
38443W        W10769  14.064   4.797  12.562
38444W        W10770  25.664  35.473   1.241
38445W        W10771  16.981   0.879   0.015
38446W        W10772   8.678  34.057  10.942
38447W        W10773  14.666   5.756  13.381
38448W        W10774  43.307  40.323  11.061
38449W        W10775  44.833   4.132  11.510
38450W        W10776  19.774  29.196  11.149
38451W        W10777  42.503  36.809  10.750
38452W        W10778   1.050  36.391   0.001
38453W        W10779  27.456  12.881   4.231
38454W        W10780  39.478  16.070  12.103
38455W        W10781  31.207  35.766   3.729
38456W        W10782  17.381  41.591  14.389
38457W        W10783  24.878  13.129   4.271
38458W        W10784   5.123   8.740   1.334
38459W        W10785   0.538  33.983   3.036
38460W        W10786  40.896   4.434  12.035
38461W        W10787  15.440  35.591   2.497
38462W        W10788  42.443  42.359   1.816
38463W        W10789  42.118  28.771  11.431
38464W        W10790  38.661   5.667  10.280
38465W        W10791  22.810  43.315   3.426
38466W        W10792  30.079  33.345  10.100
38467W        W10793   4.144  15.782   0.892
38468W        W10794  24.240  12.167  14.852
38469W        W10795  35.928  11.549   0.227
38470W        W10796  19.726   8.114   0.248
38471W        W10797  12.399  36.063   0.567
38472W        W10798   5.838  29.622   1.684
38473W        W10799   9.677  21.208   0.010
38474W        W10800   4.625  11.922   0.718
38475W        W10801  12.764  22.889  11.117
38476W        W10802  38.576  39.448  12.134
38477W        W10803  16.604  16.285   2.354
38478W        W10804  37.848  11.580   1.704
38479W        W10805   2.252   0.662  14.763
38480W        W10806  33.157  24.338   4.638
38481W        W10807  23.477  25.686   3.168
38482W        W10808  10.904  32.185   0.291
38483W        W10809   2.670  18.708  13.066
38484W        W10810  20.744  10.968  13.541
38485W        W10811  18.984  14.949   3.298
38486W        W10812  44.997   0.193   0.507
38487W        W10813  19.880  17.571   3.222
38488W        W10814  22.010  31.430   1.292
38489W        W10815  33.234  28.517  10.742
38490W        W10816   9.811  31.380  14.976
38491W        W10817  42.245  25.556  13.033
38492W        W10818  37.755   3.478   1.138
38493W        W10819  36.054  30.205  12.425
38494W        W10820  26.580   3.754   2.288
38495W        W10821  10.344  19.694   2.796
38496W        W10822  20.351  43.299   2.844
38497W        W10823  18.653  25.458   1.802
38498W        W10824  12.773  25.233   3.088
38499W        W10825  21.519  14.847  10.599
38500W        W10826  18.260  32.032   4.577
38501W        W10827  41.529  21.455   4.233
38502W        W10828   3.424  36.026  11.439
38503W        W10829   9.610  30.483   4.689
38504W        W10830  14.446   1.565   0.374
38505W        W10831  15.831  32.357  13.991
38506W        W10832   9.916  32.381  12.220
38507W        W10833  18.765  38.929   3.192
38508W        W10834  37.363  25.021   1.996
38509W        W10835   3.365  32.590  12.518
38510W        W10836  35.008  25.232  13.957
38511W        W10837  34.445   8.367  13.991
38512W        W10838  11.211  14.757   3.883
38513W        W10839   0.859  38.404  10.816
38514W        W10840  11.442  35.816   3.246
38515W        W10841  39.906  23.775  12.463
38516W        W10842  35.502  41.220  11.906
38517W        W10843  14.243  28.156  13.076
38518W        W10844  13.850  43.257  11.161
38519W        W10845  34.055  35.546   0.289
38520W        W10846  13.392   8.912  10.979
38521W        W10847   9.352  36.980  13.421
38522W        W10848  27.785  43.307  14.008
38523W        W10849   6.281  30.865   1.867
38524W        W10850  39.333   8.213  10.723
38525W        W10851  32.621  36.918   3.333
38526W        W10852   8.794   7.139   3.677
38527W        W10853   0.997  39.467   0.383
38528W        W10854  17.321  21.717  13.211
38529W        W10855  42.724  33.457   1.401
38530W        W10856  13.157   5.727  10.700
38531W        W10857  11.230   2.170  13.492
38532W        W10858  18.524  23.055   4.029
38533W        W10859  16.559   5.668  11.687
38534W        W10860  10.170  44.248  11.028
38535W        W10861   7.724  24.269   0.847
38536W        W10862   6.881  13.388   4.870
38537W        W10863  12.818   4.767   1.353
38538W        W10864  35.550  23.995  12.446
38539W        W10865   9.471  17.210  14.798
38540W        W10866  22.525  25.134  11.264
38541W        W10867  39.835  25.911  13.472
38542W        W10868  30.350  31.379   4.312
38543W        W10869  21.043  21.693   3.729
38544W        W10870  38.972   7.516   4.567
38545W        W10871   3.764   6.367  11.672
38546W        W10872  34.416  11.334  14.394
38547W        W10873   5.363  14.218   0.909
38548W        W10874  23.551  41.892  13.511
38549W        W10875  27.497  43.236  10.689
38550W        W10876  32.992  32.544   0.684
38551W        W10877  28.690  29.489  12.614
38552W        W10878  35.815  37.432  14.280
38553W        W10879  15.224  21.813  12.364
38554W        W10880  27.939  15.505   4.746
38555W        W10881  15.197   0.429   4.610
38556W        W10882  15.081   0.787  14.264
38557W        W10883  12.333   9.162   2.357
38558W        W10884  27.460   4.457   0.716
38559W        W10885  13.183  34.172  11.616
38560W        W10886  19.720  21.934   1.009
38561W        W10887  31.933   5.629  11.091
38562W        W10888   3.829  24.339   5.096
38563W        W10889  11.574  28.376   0.005
38564W        W10890  40.009  24.931   0.395
38565W        W10891  34.633  21.611  13.547
38566W        W10892  27.999  22.600  14.480
38567W        W10893  29.438  41.632  11.752
38568W        W10894   9.667   1.381  13.830
38569W        W10895  44.600  38.217  12.923
38570W        W10896   9.409   1.365  13.394
38571W        W10897  34.858  42.349  12.846
38572W        W10898  34.660   2.916   4.149
38573W        W10899  40.529  43.179   1.872
38574W        W10900  43.611  33.631  10.695
38575W        W10901  27.625   0.244  14.755
38576W        W10902  27.150  19.578   3.263
38577W        W10903  17.326  27.551   1.800
38578W        W10904  24.460  31.880  11.142
38579W        W10905  23.941  19.862   5.119
38580W        W10906  25.591  31.142   4.416
38581W        W10907  14.726  44.741   0.434
38582W        W10908   9.191  11.114   4.796
38583W        W10909  32.433  27.379   0.909
38584W        W10910   2.049  36.090   4.603
38585W        W10911  35.600  12.280  14.924
38586W        W10912   9.566  25.749   4.160
38587W        W10913  43.289  23.653   3.291
38588W        W10914  38.846   1.888   1.197
38589W        W10915  30.435   8.898   2.753
38590W        W10916  19.157  43.975   0.367
38591W        W10917  31.946  13.356  14.364
38592W        W10918  34.451  19.064   2.606
38593W        W10919   5.128  44.013  12.984
38594W        W10920  36.607  12.950  12.630
38595W        W10921   3.332  41.023  11.670
38596W        W10922  31.621   1.659   4.202
38597W        W10923   0.926  35.558   1.636
38598W        W10924  34.306  13.504   1.040
38599W        W10925   7.618  24.445   2.222
38600W        W10926  41.850  14.273   0.757
38601W        W10927  42.797  11.450  13.375
38602W        W10928   9.125  20.605   0.854
38603W        W10929  32.649  39.686   1.847
38604W        W10930   4.728  42.531   1.956
38605W        W10931  23.028   8.674  13.772
38606W        W10932  26.433   9.126  12.181
38607W        W10933  19.230  18.817   4.107
38608W        W10934  42.489   5.930  11.029
38609W        W10935  30.218  32.048   3.825
38610W        W10936  42.283  15.451   0.637
38611W        W10937  11.185   4.161   3.873
38612W        W10938  18.491  29.198  11.105
38613W        W10939  16.668   2.339  13.054
38614W        W10940   4.675  35.876   0.843
38615W        W10941  32.735   9.968  12.657
38616W        W10942  28.744  37.650   2.733
38617W        W10943  42.158   5.939  11.613
38618W        W10944  23.985   2.920   4.853
38619W        W10945   4.693   0.753   2.224
38620W        W10946  36.919  34.038   0.369
38621W        W10947  33.439  20.662   3.932
38622W        W10948  30.731  10.314   2.430
38623W        W10949  31.400  11.073  11.931
38624W        W10950   1.953  14.627  14.664
38625W        W10951   7.788  30.034  12.126
38626W        W10952  43.484  41.094   3.216
38627W        W10953  21.486  22.712   2.678
38628W        W10954  34.187  39.033  11.135
38629W        W10955  30.030  20.052   3.557
38630W        W10956  16.075  41.156  11.902
38631W        W10957  43.729  12.826   4.609
38632W        W10958  37.642   9.839  10.621
38633W        W10959  40.840  25.115  12.474
38634W        W10960   7.363  26.471  14.358
38635W        W10961   4.609  27.458   4.261
38636W        W10962  42.618  24.981   4.631
38637W        W10963  24.468   5.913  14.738
38638W        W10964  13.874  12.331   1.441
38639W        W10965  16.626  38.276  13.508
38640W        W10966   0.344  24.494  14.767
38641W        W10967  17.009   5.514  13.358
38642W        W10968  24.595   9.676  13.060
38643W        W10969   6.888   1.293  11.036
38644W        W10970  15.732  15.869  13.028
38645W        W10971  14.102  36.152   2.382
38646W        W10972  27.992   3.463   2.327
38647W        W10973  16.118   5.518  12.625
38648W        W10974  39.278   2.004   4.225
38649W        W10975  11.627  24.644   2.231
38650W        W10976  20.228  28.428  11.476
38651W        W10977  35.049  33.496   2.793
38652W        W10978  13.863  12.316   4.629
38653W        W10979  14.148   0.338   2.225
38654W        W10980  28.888   7.366  10.644
38655W        W10981  28.137  13.979   0.857
38656W        W10982  12.165  31.688   4.877
38657W        W10983  35.179  16.455  10.301
38658W        W10984  41.362  37.051  14.425
38659W        W10985  41.480  35.904  13.370
38660W        W10986  24.796  22.659  13.288
38661W        W10987   4.927   7.722   1.444
38662W        W10988  26.484  26.103   2.018
38663W        W10989  17.406  24.638  13.476
38664W        W10990   6.932  29.955   4.514
38665W        W10991  13.200  42.979  12.126
38666W        W10992  21.966  39.753   2.333
38667W        W10993  42.021  43.438  12.029
38668W        W10994  29.070  17.523   4.631
38669W        W10995  32.675  29.491  12.490
38670W        W10996  36.073  39.739  12.399
38671W        W10997  23.601  37.397   4.086
38672W        W10998  16.150  21.812   3.678
38673W        W10999  35.519  17.054  10.662
38674W        W11000  20.790  43.733  11.878
38675W        W11001   1.400  32.783  13.961
38676W        W11002  18.968  30.168   1.126
38677W        W11003   4.320  16.104  12.581
38678W        W11004  12.746  33.075   2.604
38679W        W11005  38.079  27.990   2.804
38680W        W11006  36.288   4.361   0.959
38681W        W11007  16.096  10.758   1.018
38682W        W11008  33.300  31.147   2.623
38683W        W11009  17.856  30.680  14.554
38684W        W11010  22.254  28.017  14.379
38685W        W11011  29.572  16.517   4.007
38686W        W11012   1.778  12.744   4.660
38687W        W11013  24.109  14.198  13.705
38688W        W11014  24.282  41.853   4.182
38689W        W11015  28.728  43.248   2.171
38690W        W11016  36.049  19.115   3.257
38691W        W11017  22.832  22.082  14.801
38692W        W11018  11.548  39.765  13.314
38693W        W11019  12.744  19.065   1.934
38694W        W11020  35.107  38.441   1.923
38695W        W11021  39.132  19.121  10.482
38696W        W11022   5.751   1.671  12.469
38697W        W11023  38.003  41.368  13.739
38698W        W11024  34.367  43.851  12.080
38699W        W11025  16.059   7.651   0.219
38700W        W11026  14.202  24.550   1.466
38701W        W11027  32.099  28.416  12.990
38702W        W11028  28.620  27.417   3.212
38703W        W11029   2.733   9.892  13.509
38704W        W11030  34.061   8.773   3.725
38705W        W11031  10.765  24.069  12.015
38706W        W11032  33.563  41.819   0.302
38707W        W11033  12.312  24.845  12.481
38708W        W11034   6.932  40.988  11.627
38709W        W11035  38.889  24.192   4.614
38710W        W11036   5.636   6.215   1.401
38711W        W11037  22.080  40.820  11.430
38712W        W11038   2.593   6.378  12.491
38713W        W11039   5.313  41.602   0.460
38714W        W11040  43.464  28.971   2.932
38715W        W11041  30.943  19.655  14.310
38716W        W11042  25.077  22.454   0.783
38717W        W11043  30.703  31.847   0.393
38718W        W11044  16.221  25.630   4.747
38719W        W11045  43.201  20.257   4.506
38720W        W11046  25.436  35.851   5.084
38721W        W11047  20.009  21.278   3.109
38722W        W11048   0.443  23.953  14.740
38723W        W11049  26.548  16.512   0.465
38724W        W11050   6.196  11.843   4.105
38725W        W11051   4.229  10.692   3.277
38726W        W11052   7.364   6.370   3.667
38727W        W11053  32.914  44.928  11.874
38728W        W11054   0.622  13.369  13.565
38729W        W11055  38.643  17.907  14.709
38730W        W11056   0.283  28.256  12.008
38731W        W11057   4.916  37.453   1.286
38732W        W11058  17.081  21.135  12.065
38733W        W11059  19.615  39.349   5.164
38734W        W11060  19.700  30.210  11.158
38735W        W11061  24.310  42.953  10.107
38736W        W11062  40.398  42.337   3.741
38737W        W11063  33.729   7.261  13.586
38738W        W11064  10.640  23.754   3.391
38739W        W11065   5.908  38.493   2.778
38740W        W11066  35.992  29.508   3.578
38741W        W11067  20.643  31.666  12.907
38742W        W11068  31.983  42.394  10.714
38743W        W11069  34.481   2.150   1.505
38744W        W11070  41.880  28.977  12.663
38745W        W11071  40.237  33.974   1.708
38746W        W11072   1.760  40.187   3.297
38747W        W11073  25.748   6.757   2.327
38748W        W11074  25.109  38.338   3.897
38749W        W11075  21.256   0.727  11.763
38750W        W11076  29.892   6.186  10.756
38751W        W11077  14.028  22.617   4.846
38752W        W11078  26.833  24.249   4.625
38753W        W11079  10.099   0.856  14.932
38754W        W11080   6.809  20.015  14.403
38755W        W11081  44.819   0.162  13.545
38756W        W11082   0.922  33.377  10.112
38757W        W11083   7.436   3.595   1.511
38758W        W11084  33.946  15.566  11.224
38759W        W11085  42.652  43.605   0.376
38760W        W11086  21.806  28.941  13.392
38761W        W11087  28.343  31.305   0.923
38762W        W11088  15.554   0.935  10.504
38763W        W11089   9.247  27.291  12.954
38764W        W11090  27.524   4.263   2.068
38765W        W11091  29.394  21.178  14.362
38766W        W11092  15.065  21.844   0.427
38767W        W11093   7.234  33.834   3.338
38768W        W11094   6.720   2.502   4.076
38769W        W11095  14.039  41.683  10.769
38770W        W11096  12.591  24.750  11.539
38771W        W11097  30.026   1.284  14.784
38772W        W11098  26.230  14.210   4.639
38773W        W11099  18.472   4.233  12.949
38774W        W11100  36.025  21.726  12.912
38775W        W11101  27.077  26.705   1.714
38776W        W11102  44.763   7.731   0.496
38777W        W11103  27.444  31.518  14.295
38778W        W11104  28.406  19.524  10.500
38779W        W11105  27.341  23.518  13.418
38780W        W11106  20.600  33.968  11.258
38781W        W11107  11.169  16.844   1.762
38782W        W11108  15.126  40.143  12.276
38783W        W11109  32.636  43.008  12.996
38784W        W11110  33.560  21.225  14.894
38785W        W11111   6.835   8.966  14.403
38786W        W11112  25.490  14.569   0.450
38787W        W11113  28.518  43.035  14.446
38788W        W11114  38.469  28.463  11.973
38789W        W11115  18.744  18.250   2.467
38790W        W11116  18.795   1.068  13.444
38791W        W11117  22.699  21.254  12.058
38792W        W11118   1.038  10.058  12.027
38793W        W11119  38.162  33.509  13.973
38794W        W11120   3.470  33.259   3.240
38795W        W11121  42.248  24.971  14.428
38796W        W11122  14.291  21.782   3.627
38797W        W11123  39.558   8.240   0.419
38798W        W11124  22.521  38.426   4.295
38799W        W11125   2.193  37.477   3.342
38800W        W11126  11.355  32.153   3.707
38801W        W11127   0.473  43.649   4.478
38802W        W11128   9.782  25.852  13.030
38803W        W11129   7.887  14.804   0.413
38804W        W11130  39.444   9.614  11.049
38805W        W11131  39.840  14.292   2.115
38806W        W11132  35.372  24.437  10.955
38807W        W11133  24.142  34.026   0.233
38808W        W11134  12.798   3.412   1.649
38809W        W11135  20.412   5.434   3.848
38810W        W11136   7.518   0.363  11.505
38811W        W11137  26.590  42.686  11.420
38812W        W11138  11.152  38.538  11.961
38813W        W11139  25.762  40.869  12.885
38814W        W11140  21.367   3.325  14.855
38815W        W11141  35.394  22.287  13.856
38816W        W11142   7.599  28.376   4.283
38817W        W11143  41.981   1.051   2.925
38818W        W11144  12.927   5.735  13.119
38819W        W11145  25.597   4.574   1.923
38820W        W11146  10.084  41.403   2.730
38821W        W11147  43.466  23.778   4.276
38822W        W11148  11.856   6.351   3.658
38823W        W11149  36.291  28.127  12.375
38824W        W11150   1.618   4.769   1.886
38825W        W11151  15.761  24.657   0.686
38826W        W11152  16.910   0.506   0.352
38827W        W11153  30.414  40.439  11.439
38828W        W11154  13.918  16.002   4.993
38829W        W11155  34.762  43.552  11.903
38830W        W11156  29.534  12.239   0.268
38831W        W11157  23.019  40.012   0.572
38832W        W11158  41.537  14.096   0.367
38833W        W11159  24.941   3.136  14.574
38834W        W11160  14.706   8.494  11.125
38835W        W11161   8.300   8.753   0.979
38836W        W11162   5.436  28.704   4.024
38837W        W11163  28.213  33.042  13.885
38838W        W11164   6.444   6.609  13.483
38839W        W11165  15.990  26.683   0.515
38840W        W11166   2.224   9.070   2.423
38841W        W11167  33.393   5.930   0.720
38842W        W11168  40.008  39.855   2.699
38843W        W11169  20.250  27.570   2.352
38844W        W11170  21.651   0.280   3.073
38845W        W11171   6.700  21.224   3.202
38846W        W11172   7.131  34.179  10.653
38847W        W11173  32.080  42.837   3.662
38848W        W11174  13.728  36.261   5.347
38849W        W11175  43.981  44.823  11.186
38850W        W11176  32.440  29.975  12.443
38851W        W11177  44.970  13.756  10.608
38852W        W11178  14.081   9.639   4.588
38853W        W11179   1.568  16.611   1.209
38854W        W11180  39.478   0.031  12.666
38855W        W11181  16.147  25.096   1.284
38856W        W11182  12.564  34.463  14.679
38857W        W11183  10.382  24.516  11.346
38858W        W11184  32.286  19.740   1.406
38859W        W11185   4.403   4.746  11.873
38860W        W11186  19.446  12.596   2.588
38861W        W11187   1.415  16.888   0.793
38862W        W11188  23.070   0.799   4.550
38863W        W11189  27.711  37.449  12.419
38864W        W11190  20.792  27.516  11.503
38865W        W11191   2.024  35.913  13.982
38866W        W11192   5.866  28.371  14.522
38867W        W11193   7.708  28.237   1.202
38868W        W11194  39.598  40.249  11.393
38869W        W11195  16.986  29.755   5.186
38870W        W11196  18.211  26.180  13.010
38871W        W11197   1.256  31.098   3.298
38872W        W11198  17.312  29.950  14.814
38873W        W11199   9.204  28.939  12.486
38874W        W11200  23.888  18.516  14.825
38875W        W11201  40.009  31.521   0.276
38876W        W11202  21.543  39.252   2.864
38877W        W11203  33.052   3.793   1.242
38878W        W11204  18.365  25.522   3.251
38879W        W11205   2.493  26.642   4.574
38880W        W11206  19.137  28.948  14.886
38881W        W11207   8.392   5.228  12.214
38882W        W11208   5.641  23.312  13.600
38883W        W11209  42.085  28.088  12.966
38884W        W11210  38.434   0.788  12.383
38885W        W11211  41.455   8.710   3.068
38886W        W11212  43.381  32.705   2.857
38887W        W11213  28.661   5.389   1.650
38888W        W11214  25.461  25.095   1.960
38889W        W11215  14.403  35.623   2.373
38890W        W11216  35.885   7.151   3.234
38891W        W11217   4.646  32.092  13.918
38892W        W11218   8.198  38.385  14.411
38893W        W11219  29.547  28.105   1.494
38894W        W11220  27.733   7.905   2.274
38895W        W11221  19.333   7.754   1.847
38896W        W11222  27.596  27.920  10.694
38897W        W11223  26.994   6.297   3.649
38898W        W11224  39.616   1.693  11.516
38899W        W11225   0.341  27.632  11.228
38900W        W11226   6.829  37.642   4.086
38901W        W11227   3.512  34.914  10.680
38902W        W11228  11.394   8.717  10.536
38903W        W11229   1.290  32.172  13.276
38904W        W11230  25.382  41.604  12.434
38905W        W11231   9.623   0.279  14.269
38906W        W11232  34.896   7.578   1.408
38907W        W11233  17.107  36.420   0.499
38908W        W11234  13.570  11.390   2.779
38909W        W11235  10.384  37.031   2.695
38910W        W11236  30.858  38.019   4.257
38911W        W11237  44.999  14.121   1.399
38912W        W11238   8.088  42.939   1.812
38913W        W11239  19.547  37.459   4.626
38914W        W11240  32.886  22.631   3.734
38915W        W11241  15.595  14.022  13.423
38916W        W11242  18.584  30.670  13.365
38917W        W11243  13.531  34.391   1.371
38918W        W11244  18.719   8.884   3.113
38919W        W11245  37.868  29.179  13.741
38920W        W11246  23.600  28.244  12.490
38921W        W11247   2.988  42.935   1.440
38922W        W11248   2.979  21.088   5.027
38923W        W11249  43.889   0.945   2.935
38924W        W11250  31.463   5.887  11.095
38925W        W11251  20.022  41.284   4.563
38926W        W11252  35.114  42.359   0.495
38927W        W11253   9.179  35.111  12.834
38928W        W11254  42.070  18.585   3.328
38929W        W11255  33.336  44.773   1.385
38930W        W11256  44.784   3.952  14.634
38931W        W11257   0.966  33.321   2.846
38932W        W11258  35.898  36.516   3.990
38933W        W11259  11.107  25.516  12.456
38934W        W11260   3.632  31.168   2.813
38935W        W11261  30.108  34.651  13.539
38936W        W11262  11.779  15.663   4.694
38937W        W11263  24.308  27.234   2.415
38938W        W11264   5.617  14.867   1.331
38939W        W11265  27.117  42.016   1.469
38940W        W11266  18.110  30.854   3.412
38941W        W11267   4.313   9.773   5.725
38942W        W11268  30.581  21.062  12.188
38943W        W11269  14.815  43.388  12.601
38944W        W11270  39.556   2.256  10.262
38945W        W11271  19.801  41.870   0.177
38946W        W11272  42.509   5.211  11.180
38947W        W11273  29.076   3.775  10.801
38948W        W11274  43.049  29.149   3.732
38949W        W11275  44.854  29.095  12.056
38950W        W11276  37.916  33.069  13.812
38951W        W11277  39.580  30.452  10.937
38952W        W11278  14.284  44.682  14.254
38953W        W11279  36.730  36.586   2.898
38954W        W11280  12.897  32.086   3.698
38955W        W11281  40.401  10.235   2.360
38956W        W11282  38.023  12.104   0.369
38957W        W11283   2.427  37.529   4.708
38958W        W11284  34.920   0.523  12.287
38959W        W11285  28.718   5.880   2.870
38960W        W11286  39.558   3.867   4.676
38961W        W11287  15.153  35.095  10.242
38962W        W11288  31.148  24.280  13.036
38963W        W11289  17.217  32.442   0.723
38964W        W11290   2.896  20.476   3.268
38965W        W11291   3.974  12.774  10.324
38966W        W11292  31.607  34.811   0.693
38967W        W11293  17.543   6.695   2.414
38968W        W11294   0.774  16.294   1.058
38969W        W11295   1.734   8.794   4.221
38970W        W11296  37.995  27.952  12.484
38971W        W11297   0.949   0.676   0.564
38972W        W11298  41.825  37.045  12.919
38973W        W11299  40.868   4.714   0.956
38974W        W11300   9.143  15.824   4.472
38975W        W11301   3.818  12.765   3.147
38976W        W11302  23.753  13.845   1.692
38977W        W11303   4.341   4.269   2.182
38978W        W11304   8.177  18.244  11.125
38979W        W11305  23.634  25.206   1.784
38980W        W11306  21.544  23.569   3.104
38981W        W11307  11.939  43.015  12.091
38982W        W11308  30.464  26.661  13.382
38983W        W11309  27.171   4.950   3.590
38984W        W11310  13.548   9.935  11.172
38985W        W11311  42.524  42.088  11.930
38986W        W11312  20.641  35.119   1.126
38987W        W11313  16.138   8.938  10.653
38988W        W11314  27.704  15.801  10.719
38989W        W11315  34.613   9.673   3.339
38990W        W11316  18.021  29.374  11.208
38991W        W11317  23.124  38.994   4.575
38992W        W11318  41.967  43.035  14.012
38993W        W11319  21.634  18.066   9.830
38994W        W11320  44.320  35.520  14.090
38995W        W11321   1.380   1.559  14.942
38996W        W11322  29.852  30.966   4.825
38997W        W11323  22.552  38.437   4.835
38998W        W11324  25.000   1.396   0.825
38999W        W11325  26.492  39.541  12.355
39000W        W11326  32.658  14.286   3.899
39001W        W11327  13.204  17.952  11.182
39002W        W11328  21.109  38.533   1.933
39003W        W11329  11.023  23.333  14.098
39004W        W11330  35.811   2.000  13.047
39005W        W11331   3.348  39.403   0.714
39006W        W11332   6.691  33.155   2.744
39007W        W11333  44.448  33.133   2.237
39008W        W11334  39.495  42.291  14.088
39009W        W11335  18.356  10.664   4.131
39010W        W11336   4.596  29.716  14.340
39011W        W11337  29.213  35.847   2.690
39012W        W11338   7.709  20.625   1.951
39013W        W11339   1.337  44.821  11.119
39014W        W11340  21.506  19.303   0.636
39015W        W11341  33.823  34.617  14.841
39016W        W11342  30.407  42.842   3.560
39017W        W11343  13.179  43.948  11.983
39018W        W11344  29.886  28.946   4.685
39019W        W11345  22.184  35.108   4.831
39020W        W11346  35.158  11.269   0.174
39021W        W11347  34.938  33.789  12.058
39022W        W11348  41.385  17.345   4.499
39023W        W11349  33.179  26.289   0.453
39024W        W11350  32.544  30.752  12.804
39025W        W11351   4.335  19.342   1.703
39026W        W11352   2.222  29.450   4.523
39027W        W11353  10.221  36.447  13.545
39028W        W11354  39.385   0.472  12.416
39029W        W11355  40.445  31.583  13.308
39030W        W11356   9.861  31.144  12.299
39031W        W11357  24.557  23.914  12.335
39032W        W11358   2.246  19.525  10.668
39033W        W11359  28.514  29.698   0.102
39034W        W11360  40.196  36.970   1.132
39035W        W11361  21.084  25.474  14.085
39036W        W11362  37.868  18.142  10.637
39037W        W11363   7.624  10.635  13.974
39038W        W11364  18.205  25.112   0.478
39039W        W11365  13.696   3.268   4.695
39040W        W11366   5.279  25.270   5.205
39041W        W11367   8.219  41.974  14.870
39042W        W11368  22.032   6.836   4.741
39043W        W11369   0.437   9.299   3.050
39044W        W11370  32.012  28.768   2.271
39045W        W11371  18.236   8.333   0.275
39046W        W11372  44.427  16.552   4.169
39047W        W11373  27.174  13.888   0.865
39048W        W11374  27.207  19.738   2.278
39049W        W11375  13.272  42.063   3.630
39050W        W11376  41.651  32.570  12.581
39051W        W11377   3.997  26.184  12.586
39052W        W11378  43.752  43.123   1.869
39053W        W11379  15.185   5.390   4.513
39054W        W11380  35.847  18.970   2.240
39055W        W11381  33.001  15.950  10.980
39056W        W11382  25.289  32.095  12.306
39057W        W11383  31.158  34.843  14.379
39058W        W11384   0.260   2.512   2.816
39059W        W11385  40.342  24.716   0.767
39060W        W11386   1.055  38.999  11.611
39061W        W11387   7.367   2.780   2.373
39062W        W11388   3.117  28.881   1.967
39063W        W11389  19.308   9.684  14.298
39064W        W11390   0.734  14.658  13.957
39065W        W11391  21.274  26.960   0.934
39066W        W11392  32.925   1.415  13.869
39067W        W11393  23.186  18.328   3.407
39068W        W11394   1.236   4.482   0.976
39069W        W11395  36.783   5.822   1.328
39070W        W11396  38.473  38.298   3.237
39071W        W11397  29.920   0.157  12.583
39072W        W11398  40.961  34.331   4.411
39073W        W11399  29.071  30.828   4.623
39074W        W11400   8.666  28.180   0.361
39075W        W11401   3.373  28.984  11.000
39076W        W11402   3.515   4.200  11.954
39077W        W11403  22.150  20.336   2.217
39078W        W11404  11.134  24.794  14.618
39079W        W11405  43.185  14.629   4.043
39080W        W11406   9.015   8.812   1.986
39081W        W11407   3.160   4.652  11.424
39082W        W11408  28.821  29.537   1.158
39083W        W11409  33.467   5.711   2.234
39084W        W11410  39.075  29.178  10.615
39085W        W11411  31.219  35.953   1.280
39086W        W11412  32.000   4.936   4.742
39087W        W11413  35.319  37.044   1.857
39088W        W11414  26.796  41.057  10.770
39089W        W11415   9.160  13.856   0.343
39090W        W11416  33.784  18.603  14.809
39091W        W11417  32.384  42.401   2.716
39092W        W11418  22.024  11.542   1.414
39093W        W11419  36.570  13.549  10.335
39094W        W11420  36.642   0.558   2.000
39095W        W11421  38.477  21.761   2.703
39096W        W11422  29.066  30.919   3.321
39097W        W11423  38.911  37.123   4.897
39098W        W11424  23.490  35.472   0.796
39099W        W11425  23.226  29.464  13.482
39100W        W11426   2.491  13.286  12.915
39101W        W11427  39.384  29.594  10.924
39102W        W11428   7.970  25.455   1.127
39103W        W11429  30.132  12.349   2.865
39104W        W11430  32.991  27.179  10.602
39105W        W11431  18.578  39.478  14.865
39106W        W11432  41.255  42.264  13.048
39107W        W11433  14.049  25.966  14.913
39108W        W11434  27.207  42.434  10.232
39109W        W11435  40.447  40.778  10.681
39110W        W11436  19.893  40.057  13.506
39111W        W11437  23.519  39.736   3.762
39112W        W11438  30.887   0.842  11.178
39113W        W11439   3.248   3.353  12.978
39114W        W11440  24.929  22.606  12.322
39115W        W11441  12.429  39.876  14.311
39116W        W11442  24.650  33.900   0.325
39117W        W11443  18.651  25.189  12.587
39118W        W11444  25.043  41.720  13.554
39119W        W11445  39.996  26.477  14.322
39120W        W11446  34.842  14.065  13.779
39121W        W11447  21.368  20.763   3.857
39122W        W11448  21.787  26.166  10.654
39123W        W11449   4.618  40.314  14.426
39124W        W11450  44.435   7.971  12.333
39125W        W11451  17.043  27.975   4.466
39126W        W11452  35.589   3.939  13.845
39127W        W11453  23.239  13.830   1.793
39128W        W11454  21.740  31.124   1.868
39129W        W11455   4.923  39.920   3.311
39130W        W11456  14.499  14.638  14.528
39131W        W11457  11.635  15.646  14.311
39132W        W11458   6.671  36.047  14.498
39133W        W11459  12.824   3.135   4.345
39134W        W11460  10.198  18.243  13.849
39135W        W11461  10.155  32.394  13.894
39136W        W11462  39.162  44.737  14.301
39137W        W11463   8.773  29.153   1.794
39138W        W11464  28.212  33.993   2.308
39139W        W11465  26.168  15.621  14.308
39140W        W11466   3.447  38.720   2.419
39141W        W11467   0.284  29.101   3.234
39142W        W11468  19.332  36.545  11.813
39143W        W11469  24.674  33.096   4.223
39144W        W11470   5.955   3.482   2.858
39145W        W11471  22.978  35.992   4.140
39146W        W11472  11.143  40.724  11.872
39147W        W11473   2.335  17.000   4.417
39148W        W11474  29.697  29.351   0.696
39149W        W11475  27.938  26.435   1.941
39150W        W11476  16.189  32.619  13.419
39151W        W11477  25.923  41.019  14.508
39152W        W11478  36.505  23.928   1.606
39153W        W11479  16.605  38.155   2.704
39154W        W11480   3.959  38.443   0.983
39155W        W11481  10.581  34.580   4.137
39156W        W11482  39.910  18.332   0.420
39157W        W11483  16.249  43.785   3.773
39158W        W11484  40.034   3.308  13.093
39159W        W11485  21.416   0.326  13.452
39160W        W11486  42.337  20.981   1.178
39161W        W11487  14.435  38.537  11.201
39162W        W11488  39.041  24.526   0.440
39163W        W11489  28.625  12.127   1.107
39164W        W11490   0.607   4.473  12.504
39165W        W11491  30.500  23.286   4.054
39166W        W11492  26.247  20.956   2.698
39167W        W11493  14.597  36.400   0.972
39168W        W11494  25.721  38.672   4.997
39169W        W11495  41.489  12.809   1.719
39170W        W11496  43.888  24.475  13.977
39171W        W11497  30.020   8.741   4.336
39172W        W11498  44.869  18.145  10.731
39173W        W11499  13.812  36.167  13.879
39174W        W11500  33.361   5.691  12.062
39175W        W11501  25.698  26.515  12.853
39176W        W11502   7.240  29.642  11.197
39177W        W11503   4.740  32.503  10.657
39178W        W11504  35.544  15.261   3.297
39179W        W11505  32.870  26.808  14.793
39180W        W11506  11.703   3.299  10.087
39181W        W11507   1.334   2.956  11.148
39182W        W11508  11.540   8.629  14.951
39183W        W11509  10.386  38.072  14.857
39184W        W11510  23.395  29.775  13.050
39185W        W11511   4.347  14.374  13.527
39186W        W11512  18.946  13.135   3.294
39187W        W11513  34.404  23.049   0.802
39188W        W11514  39.051  15.759  12.199
39189W        W11515  32.651   8.820  12.032
39190W        W11516  34.212   0.250  11.053
39191W        W11517   8.281   7.908  11.388
39192W        W11518  26.276  14.120  10.686
39193W        W11519  32.895  37.457  13.578
39194W        W11520  38.453  36.057  12.490
39195W        W11521  20.042   4.232   1.341
39196W        W11522  29.021  37.328  14.971
39197W        W11523  18.604   9.450   1.813
39198W        W11524   3.510   3.718   0.772
39199W        W11525  19.766  21.219  14.319
39200W        W11526  19.325  44.814  13.766
39201W        W11527  14.718  14.798  11.203
39202W        W11528   8.288  11.705  14.229
39203W        W11529  25.277  44.582  13.956
39204W        W11530  39.323  28.548   4.600
39205W        W11531  29.526  22.291  13.072
39206W        W11532  25.616  41.080   3.634
39207W        W11533  34.487  35.401  10.686
39208W        W11534   3.721  23.319   0.361
39209W        W11535   0.234  18.270  13.373
39210W        W11536  36.636  19.729   5.042
39211W        W11537  31.673  26.442  12.927
39212W        W11538  40.366  23.975  12.551
39213W        W11539   6.804   1.975   2.217
39214W        W11540  23.624  12.911   3.120
39215W        W11541  22.523  28.039   3.219
39216W        W11542  29.107  41.441  13.918
39217W        W11543  40.034   5.124   3.675
39218W        W11544  13.621  14.521  14.340
39219W        W11545  44.035  43.793   3.765
39220W        W11546   7.271  34.236   1.233
39221W        W11547  42.475   2.558   4.334
39222W        W11548  18.207  39.445   2.389
39223W        W11549  40.200   0.831   2.535
39224W        W11550  34.581   9.270  12.993
39225W        W11551  37.566   0.780   0.972
39226W        W11552  26.059  20.359   1.309
39227W        W11553  17.306  36.052  12.099
39228W        W11554  21.244  18.138   4.302
39229W        W11555  24.403  25.131  11.067
39230W        W11556  29.434   8.136  14.955
39231W        W11557  13.447  24.573  11.751
39232W        W11558   2.463  26.053   4.578
39233W        W11559  35.615   7.531  11.336
39234W        W11560   7.777  20.304   0.104
39235W        W11561  43.484  37.100  13.191
39236W        W11562  28.005  23.392   1.460
39237W        W11563  13.306  25.182  14.434
39238W        W11564  30.812  36.730   3.685
39239W        W11565  19.610  35.728  11.868
39240W        W11566   4.637  43.401   4.564
39241W        W11567  13.900  37.506  14.292
39242W        W11568   5.667   5.781   0.020
39243W        W11569  30.180  10.671  12.274
39244W        W11570   2.516   0.082  11.975
39245W        W11571   6.901   1.291   1.719
39246W        W11572  44.576  36.532  13.501
39247W        W11573  42.046  36.754  11.601
39248W        W11574  42.520  13.050  12.997
39249W        W11575   1.989  21.935  12.272
39250W        W11576   9.184  13.759  14.209
39251W        W11577  35.982   8.251  13.877
39252W        W11578  36.015  10.344   0.773
39253W        W11579  22.217  24.712   1.193
39254W        W11580  39.767  12.810   3.714
39255W        W11581  39.604  28.885   2.039
39256W        W11582  19.984  40.921  11.264
39257W        W11583   1.177   2.962   0.746
39258W        W11584  40.575  29.691  12.594
39259W        W11585   3.272  20.965   2.071
39260W        W11586  37.511  15.667   2.308
39261W        W11587  28.609  35.877  11.159
39262W        W11588  25.437   4.573   3.282
39263W        W11589  15.648  16.593   1.654
39264W        W11590  20.130  25.711   2.156
39265W        W11591  39.751   7.679  11.076
39266W        W11592  29.304  18.645   1.509
39267W        W11593  38.434   1.020   2.871
39268W        W11594  24.019  32.185   3.242
39269W        W11595  33.994  22.266   3.694
39270W        W11596   7.140  31.950  13.813
39271W        W11597  32.063  11.733   0.465
39272W        W11598   7.700  28.727  14.287
39273W        W11599  31.955  23.325  13.462
39274W        W11600  44.007  12.568   3.289
39275W        W11601  28.182  16.567  14.447
39276W        W11602  22.879  28.697  14.478
39277W        W11603  11.417  17.287   4.219
39278W        W11604  21.485  16.773  12.171
39279W        W11605  20.562  21.975   3.655
39280W        W11606  22.789  19.494  13.516
39281W        W11607  28.185  21.320  12.193
39282W        W11608  44.047  31.959  11.210
39283W        W11609  30.594   4.431  11.952
39284W        W11610   8.514  32.758   1.278
39285W        W11611  36.574  33.734  11.284
39286W        W11612  16.820  36.347   0.924
39287W        W11613  29.636   9.985   4.583
39288W        W11614  23.161  43.847   4.244
39289W        W11615  30.123  19.359   4.676
39290W        W11616  17.721   8.227  10.992
39291W        W11617  32.703  23.218   0.642
39292W        W11618  42.568   0.444   2.202
39293W        W11619  30.928   9.197   2.271
39294W        W11620  27.512  25.188  12.810
39295W        W11621  43.383  30.696   1.845
39296W        W11622   7.455  13.572  11.592
39297W        W11623  14.906  34.867   3.659
39298W        W11624  19.710   1.973  13.049
39299W        W11625  42.949   1.470  14.315
39300W        W11626  35.742   3.455  10.263
39301W        W11627   1.486  20.480  13.959
39302W        W11628  42.481  28.923  11.090
39303W        W11629  20.099  34.560   0.947
39304W        W11630  32.834  38.684   0.411
39305W        W11631  23.537  15.029   3.780
39306W        W11632  28.756  36.582   1.302
39307W        W11633  10.901   7.901  12.166
39308W        W11634  41.984  37.787   1.474
39309W        W11635  37.059  41.062  14.836
39310W        W11636  34.805   3.647  14.198
39311W        W11637  20.541  17.264  14.507
39312W        W11638  36.506  25.712  14.410
39313W        W11639  19.523  33.334   1.868
39314W        W11640   5.675   4.342   0.586
39315W        W11641  33.985   6.676  12.001
39316W        W11642  18.249  43.502  12.089
39317W        W11643  15.998  44.288   2.868
39318W        W11644   9.998  33.655  12.025
39319W        W11645   6.799  16.190   3.298
39320W        W11646  38.292  40.451   1.724
39321W        W11647  28.717   3.337  11.128
39322W        W11648  38.017  26.713   3.199
39323W        W11649  26.551   7.430   4.169
39324W        W11650  13.860   2.339   1.880
39325W        W11651  15.744  20.095  11.685
39326W        W11652  33.345   2.961  11.520
39327W        W11653  36.310  20.563   4.085
39328W        W11654  36.552  28.454  11.181
39329W        W11655   1.814  16.723   1.975
39330W        W11656  19.339  14.453  13.331
39331W        W11657  28.367  35.413   3.694
39332W        W11658  14.678  17.113  11.368
39333W        W11659  36.942  33.635   2.202
39334W        W11660  12.714   5.465   1.619
39335W        W11661  32.395   4.743  12.356
39336W        W11662   4.627   0.988   0.831
39337W        W11663  15.799  42.629   0.066
39338W        W11664  24.282  37.065  14.194
39339W        W11665  25.242  32.697   1.058
39340W        W11666  23.476  41.940  10.698
39341W        W11667  22.269  43.840  13.390
39342W        W11668  25.724  25.928  12.219
39343W        W11669  42.512  16.821   0.430
39344W        W11670  28.333   3.877  14.564
39345W        W11671   9.324  31.120  12.384
39346W        W11672  11.258  39.897  11.326
39347W        W11673  18.575  13.674  11.199
39348W        W11674   0.321  24.704   1.423
39349W        W11675   1.699  38.888  10.622
39350W        W11676  13.178  30.417   4.153
39351W        W11677  37.097  11.515   1.164
39352W        W11678  15.558  43.573   2.355
39353W        W11679   3.536  30.139  11.216
39354W        W11680   6.835  35.645  14.225
39355W        W11681   1.464  37.044  13.426
39356W        W11682  31.139   8.540  13.853
39357W        W11683  35.527  24.152  14.980
39358W        W11684  19.732  29.104  11.646
39359W        W11685  26.470  10.188  11.439
39360W        W11686  27.050  11.317   3.639
39361W        W11687   7.965  38.552  11.852
39362W        W11688  13.203   8.729  11.411
39363W        W11689  29.031  35.890  12.406
39364W        W11690  13.767  42.436  10.586
39365W        W11691  40.890  13.870  11.100
39366W        W11692  13.034  33.609   3.667
39367W        W11693  11.367  34.459   1.502
39368W        W11694  41.334  19.245   3.819
39369W        W11695  19.098  10.765   1.934
39370W        W11696  29.462  16.627  13.757
39371W        W11697   9.836  36.374  12.306
39372W        W11698   5.389   4.885  12.048
39373W        W11699  15.488  32.614   2.507
39374W        W11700   3.457  20.016  13.426
39375W        W11701  44.835   3.977  10.526
39376W        W11702  16.264  33.128   4.619
39377W        W11703  38.280  17.595  12.425
39378W        W11704   8.713  25.268   2.226
39379W        W11705  27.868  15.263  12.425
39380W        W11706  13.383  31.700   4.176
39381W        W11707  44.198  11.093   4.510
39382W        W11708  32.816  41.103  10.682
39383W        W11709  15.640   3.227   1.953
39384W        W11710  39.698  10.015   3.185
39385W        W11711  21.654  26.654  13.975
39386W        W11712  11.250  39.363   1.749
39387W        W11713  12.775  14.897   4.119
39388W        W11714  38.203  35.172   2.724
39389W        W11715  12.832   0.592  11.212
39390W        W11716  12.933   0.451   1.928
39391W        W11717  43.552  11.189  11.743
39392W        W11718  14.115   0.253  12.009
39393W        W11719  12.849  30.972   0.623
39394W        W11720  19.249  26.709   3.677
39395W        W11721  31.617  35.025   1.167
39396W        W11722   5.171  29.085   2.942
39397W        W11723   3.844  20.537  12.971
39398W        W11724   4.074  41.264   1.643
39399W        W11725  11.506  21.511  11.635
39400W        W11726  20.237  33.609  14.560
39401W        W11727   6.091   2.284   1.335
39402W        W11728  40.309  13.133  12.383
39403W        W11729   3.455  24.983   4.375
39404W        W11730  44.132  43.673   5.019
39405W        W11731   0.323  25.554  11.522
39406W        W11732  32.400  20.472  14.894
39407W        W11733  20.048   7.796  12.356
39408W        W11734  38.089  20.610  10.886
39409W        W11735  38.556  18.626   3.726
39410W        W11736  24.238  39.813   2.384
39411W        W11737   5.920  44.374   2.170
39412W        W11738  30.589  21.013   2.791
39413W        W11739  33.705  15.622  14.007
39414W        W11740  10.231  42.919  11.971
39415W        W11741  10.140   6.349  13.991
39416W        W11742  21.049  30.931   1.376
39417W        W11743   2.080  19.688   1.778
39418W        W11744  12.857  28.281   0.840
39419W        W11745  37.038  12.728   5.420
39420W        W11746  39.475  23.713   0.399
39421W        W11747  40.996  36.031  13.534
39422W        W11748   3.231   5.069   0.869
39423W        W11749  13.687   3.925   0.241
39424W        W11750   3.490  35.030   2.332
39425W        W11751  39.209  15.304   2.827
39426W        W11752  40.531   2.872   1.615
39427W        W11753  17.180  14.879  10.546
39428W        W11754  23.538  16.167  12.534
39429W        W11755   7.703  37.426  13.955
39430W        W11756  22.188   6.472   1.353
39431W        W11757  24.936  40.814  13.296
39432W        W11758  35.974  10.106  11.605
39433W        W11759   3.305   1.910  11.463
39434W        W11760  21.398   7.908   0.472
39435W        W11761   7.681  15.792  13.958
39436W        W11762  32.579  22.233   3.864
39437W        W11763  26.338   7.211   0.818
39438W        W11764  21.994  19.579  13.333
39439W        W11765   3.699  33.809   0.362
39440W        W11766  17.028  31.375   3.243
39441W        W11767   1.864  10.389  10.128
39442W        W11768  36.519  13.103   0.633
39443W        W11769  32.660  15.361  13.260
39444W        W11770  13.159  14.297   0.631
39445W        W11771  29.403  30.072   3.731
39446W        W11772  17.951  41.830  13.499
39447W        W11773  32.645  15.232   3.706
39448W        W11774  14.724  26.185   2.481
39449W        W11775  19.249  24.938   3.871
39450W        W11776  34.853  17.714   0.017
39451W        W11777   3.521   3.773  11.674
39452W        W11778  38.275  43.673  13.601
39453W        W11779   8.896  37.482  14.278
39454W        W11780   8.594   0.694   3.227
39455W        W11781  38.892  20.445  10.782
39456W        W11782  44.939  27.707  13.003
39457W        W11783   5.287  35.769  14.811
39458W        W11784  12.778  27.939   3.447
39459W        W11785  11.019  24.112   3.679
39460W        W11786  13.396   3.365  10.750
39461W        W11787   3.837  42.431   0.165
39462W        W11788  29.069  10.629  12.946
39463W        W11789  12.326  22.139   0.286
39464W        W11790  17.864   5.345  11.883
39465W        W11791  16.513  35.931   4.735
39466W        W11792   1.898  38.836   4.319
39467W        W11793  40.623  13.289  10.472
39468W        W11794  31.610  41.959  13.648
39469W        W11795   6.344  38.824  11.576
39470W        W11796  10.968  31.846   2.326
39471W        W11797  29.573  10.677   1.139
39472W        W11798  23.336  23.262   0.294
39473W        W11799  11.894  26.908   3.567
39474W        W11800  22.278  11.894  12.177
39475W        W11801  34.858  17.429   0.474
39476W        W11802  44.527  43.337   0.428
39477W        W11803  19.219  17.641  12.900
39478W        W11804  14.384  39.033   0.400
39479W        W11805   0.499  30.926  14.989
39480W        W11806  43.752  16.228   3.001
39481W        W11807  15.673  21.021  12.140
39482W        W11808  42.903  34.469  14.416
39483W        W11809  44.399   3.495  11.578
39484W        W11810  27.913   5.202  12.396
39485W        W11811   1.003  33.121   2.383
39486W        W11812   0.419  29.644   3.393
39487W        W11813  42.425  30.936  12.887
39488W        W11814  13.889  18.282  14.400
39489W        W11815  24.330  11.754  12.507
39490W        W11816   3.225  19.176  14.799
39491W        W11817  25.092  37.740  12.360
39492W        W11818   7.767   3.461   3.658
39493W        W11819  18.711  32.184   2.853
39494W        W11820  41.909  44.502  10.445
39495W        W11821  27.367  37.856   1.376
39496W        W11822  18.150  12.402   3.004
39497W        W11823   3.712  38.955  10.999
39498W        W11824  11.844  14.604  12.890
39499W        W11825   1.841  11.574  10.584
39500W        W11826  31.812  42.271   0.684
39501W        W11827   4.815  29.570   3.175
39502W        W11828   9.307  10.548   0.660
39503W        W11829  27.996  35.934  14.550
39504W        W11830  39.256  17.602   2.408
39505W        W11831   2.962  44.119  14.313
39506W        W11832  41.363   8.189  10.613
39507W        W11833  13.367  11.372   1.429
39508W        W11834  20.664  14.091   0.951
39509W        W11835  12.309  21.739  11.491
39510W        W11836  28.236  42.997  11.033
39511W        W11837  28.166  40.817   1.318
39512W        W11838  26.227  10.237   3.727
39513W        W11839   8.136   2.993  12.364
39514W        W11840  34.132  26.208   0.375
39515W        W11841  35.915  34.873   3.744
39516W        W11842  32.020  44.556   0.720
39517W        W11843  23.207  36.853   4.612
39518W        W11844   8.646  28.410  10.950
39519W        W11845  36.176   0.576  12.039
39520W        W11846  23.132  11.706   1.865
39521W        W11847  28.829  21.136   0.419
39522W        W11848  31.736   0.998  13.889
39523W        W11849  20.594  40.988   2.279
39524W        W11850  33.197  21.178   4.704
39525W        W11851  41.268   8.314  12.339
39526W        W11852  36.886  42.988  10.887
39527W        W11853  16.165   0.452   1.712
39528W        W11854  21.092  40.502   4.615
39529W        W11855   6.943  14.862   4.101
39530W        W11856   0.608  38.061   0.886
39531W        W11857   7.433   2.260  14.398
39532W        W11858   6.004   3.204   3.321
39533W        W11859  38.369  19.193  12.973
39534W        W11860  13.783  39.378   1.349
39535W        W11861  35.818  28.045   4.269
39536W        W11862  38.497  23.320   0.908
39537W        W11863  23.071   4.955   3.163
39538W        W11864   4.731  27.561   1.774
39539W        W11865  21.745  34.686  11.991
39540W        W11866  38.514  36.622  12.520
39541W        W11867  39.898  29.525   4.123
39542W        W11868  43.467  42.278   1.857
39543W        W11869  33.485  11.145  14.312
39544W        W11870  28.580  27.460  14.789
39545W        W11871  29.068  28.392  14.465
39546W        W11872  30.125  43.243  14.015
39547W        W11873  10.148  13.371  14.409
39548W        W11874   3.958   1.932   4.281
39549W        W11875  39.879   8.112   0.005
39550W        W11876  17.847  11.983  13.043
39551W        W11877  44.385   6.636   2.644
39552W        W11878  26.465  27.130  14.452
39553W        W11879  26.171  17.873   2.913
39554W        W11880  25.505  28.475  12.014
39555W        W11881  11.335  37.865  12.526
39556W        W11882  44.690  27.231  13.391
39557W        W11883  14.216   7.757   1.782
39558W        W11884  13.126   7.964   3.765
39559W        W11885  15.650  43.509  10.495
39560W        W11886  14.137  44.423   2.870
39561W        W11887  42.092  17.374   2.261
39562W        W11888  44.944   5.762   1.925
39563W        W11889   6.372  37.558  12.383
39564W        W11890   2.766  23.014  11.123
39565W        W11891  43.164  31.400   3.302
39566W        W11892   8.728  43.677   1.738
39567W        W11893  28.672  23.218   0.208
39568W        W11894  26.679  12.512   4.587
39569W        W11895   2.037  36.536   2.764
39570W        W11896  28.991  14.313  12.921
39571W        W11897  14.330  37.554  13.170
39572W        W11898   5.251   7.929  13.968
39573W        W11899   3.771  44.049   0.568
39574W        W11900  14.335  24.281  13.381
39575W        W11901  41.988  23.310   4.499
39576W        W11902  11.357  40.845  13.902
39577W        W11903   2.938   2.874  12.118
39578W        W11904  21.540  30.876  13.531
39579W        W11905  41.913   7.103   2.289
39580W        W11906   9.736  35.798   4.370
39581W        W11907  27.814  18.785   3.300
39582W        W11908  14.424   7.769   4.862
39583W        W11909  15.148  41.584   1.668
39584W        W11910  22.676  22.589   1.020
39585W        W11911  18.135   6.834   2.841
39586W        W11912  15.692  39.487   0.928
39587W        W11913  30.607  19.682   3.066
39588W        W11914  10.422  11.795  12.659
39589W        W11915  39.495  23.795   2.928
39590W        W11916  37.348   2.957   2.876
39591W        W11917  43.462   1.575   3.698
39592W        W11918  41.549  19.611  10.662
39593W        W11919  36.570  39.481   1.706
39594W        W11920  41.419  21.703   2.931
39595W        W11921   2.358  14.595   0.635
39596W        W11922  12.265  17.833   2.164
39597W        W11923  38.275  27.976  11.950
39598W        W11924   6.882  13.337  11.574
39599W        W11925  21.379  19.357  13.415
39600W        W11926  33.834  33.776  12.070
39601W        W11927  25.103  29.956   4.034
39602W        W11928   9.140  32.003  10.337
39603W        W11929   9.224   4.114   1.901
39604W        W11930  24.038  20.614  11.982
39605W        W11931  29.423  14.521   1.199
39606W        W11932  12.933  37.353  14.335
39607W        W11933   8.810  38.435   3.344
39608W        W11934  43.828  37.155  12.459
39609W        W11935  22.004  28.103   3.235
39610W        W11936   7.328  41.928   0.063
39611W        W11937  26.966   0.030   1.642
39612W        W11938  11.725  27.687  11.562
39613W        W11939  42.113   1.378  13.586
39614W        W11940  10.847  44.066  11.673
39615W        W11941  11.158   1.410  12.052
39616W        W11942  20.016  30.912  13.078
39617W        W11943  41.933  14.598   2.000
39618W        W11944   3.221  21.443   2.260
39619W        W11945   8.050  13.888  14.398
39620W        W11946  41.116  24.902  12.906
39621W        W11947  36.602  20.261  11.230
39622W        W11948  40.762  34.501  10.366
39623W        W11949   2.469  28.024   2.686
39624W        W11950  20.361  13.673   3.456
39625W        W11951   3.800  13.880  11.062
39626W        W11952  12.136  23.087   4.137
39627W        W11953  26.821   0.969   0.729
39628W        W11954  25.479  35.306   4.204
39629W        W11955  28.840  18.192   0.828
39630W        W11956  30.102  12.362  11.914
39631W        W11957  17.093  36.644   3.598
39632W        W11958  18.428  20.503   1.937
39633W        W11959  27.683  11.458  13.010
39634W        W11960   9.884  21.430   2.015
39635W        W11961   6.131  28.521   2.291
39636W        W11962  17.741   6.652  14.225
39637W        W11963  29.893   8.748  13.494
39638W        W11964   3.118  22.770   2.662
39639W        W11965   5.289  16.386   1.386
39640W        W11966   0.852  38.466   0.006
39641W        W11967  30.959  27.234  12.750
39642W        W11968  41.362  15.121  11.185
39643W        W11969  33.151   9.950   2.941
39644W        W11970   1.007   6.308  11.985
39645W        W11971  18.520  31.142   3.793
39646W        W11972  37.803  21.330  12.911
39647W        W11973  13.113  20.019   2.160
39648W        W11974  20.224  35.422  12.531
39649W        W11975  38.290  31.827   1.714
39650W        W11976  11.393  30.088  11.479
39651W        W11977  29.209  43.082   2.400
39652W        W11978   1.994  21.309   0.311
39653W        W11979  44.373  39.943  12.468
39654W        W11980  19.194   6.877  11.622
39655W        W11981  25.199  40.776   3.079
39656W        W11982  38.440  34.978  13.288
39657W        W11983  14.656  43.386  13.114
39658W        W11984  20.578  39.205   3.236
39659W        W11985   7.208  42.509   2.654
39660W        W11986  11.224  25.251   4.752
39661W        W11987  19.512  14.929   3.258
39662W        W11988  33.292  31.382   0.350
39663W        W11989  34.354   6.229   3.879
39664W        W11990  32.883  16.123  12.999
39665W        W11991  38.923  31.147  10.995
39666W        W11992  40.894  23.386   0.394
39667W        W11993  27.719   9.140   1.768
39668W        W11994   9.153  39.616   0.220
39669W        W11995  41.338  13.294  14.875
39670W        W11996  12.353  24.213   2.385
39671W        W11997  15.984   5.416  12.129
39672W        W11998  33.539  23.604  11.660
39673W        W11999   1.175  12.770   3.869
39674W        W12000  30.117  37.855   1.232
39675W        W12001  20.076  23.222  11.559
39676W        W12002  12.371  15.109  11.442
39677W        W12003  34.175  14.276  11.114
39678W        W12004  37.713  18.882   1.902
39679W        W12005  42.551  24.266  12.514
39680W        W12006  24.713  41.085   4.137
39681W        W12007   2.571   5.822   2.907
39682W        W12008  22.206  31.383   3.674
39683W        W12009  40.909  30.990   4.076
39684W        W12010  30.038  14.677  11.566
39685W        W12011  34.006  13.321   3.715
39686W        W12012   1.655  33.347  11.216
39687W        W12013  17.664  43.931   0.283
39688W        W12014  29.467  24.155   2.412
39689W        W12015  18.462  29.178  13.063
39690W        W12016  37.127  17.552  11.089
39691W        W12017  32.533  17.805   3.730
39692W        W12018   3.408  43.690   0.411
39693W        W12019  25.572  24.577  14.524
39694W        W12020  36.567   1.848   4.632
39695W        W12021  39.738   0.706   1.322
39696W        W12022  11.036  32.527  14.435
39697W        W12023  34.796  33.206   4.742
39698W        W12024  21.221  27.507   0.479
39699W        W12025   4.065  29.764  12.015
39700W        W12026   6.772  18.168  14.819
39701W        W12027  35.310  14.900   2.334
39702W        W12028  16.755  19.757  12.087
39703W        W12029  22.027  23.241   1.989
39704W        W12030  27.506  23.574   1.431
39705W        W12031  30.125  15.827  13.147
39706W        W12032  17.289  20.372   3.632
39707W        W12033  31.819  33.626   4.023
39708W        W12034   3.231  40.866  11.165
39709W        W12035   3.732  11.837  10.250
39710W        W12036  38.899  12.022   0.253
39711W        W12037  11.737  39.887  12.654
39712W        W12038  30.036  31.394  14.119
39713W        W12039  26.226  34.542   1.133
39714W        W12040  36.681  12.447  12.736
39715W        W12041  33.728  14.460   4.749
39716W        W12042  42.482  40.970   1.184
39717W        W12043  40.862  37.546   1.922
39718W        W12044  11.909  35.270  14.881
39719W        W12045  31.576  20.593  13.393
39720W        W12046  32.369  12.205   1.927
39721W        W12047   7.667   0.168  14.936
39722W        W12048  35.507  28.641  13.118
39723W        W12049  39.870  13.054  11.493
39724W        W12050   0.739  10.881  13.281
39725W        W12051  14.894  37.332   1.330
39726W        W12052  32.537  10.761  10.556
39727W        W12053  30.036   5.156   1.416
39728W        W12054  35.051  34.327  11.436
39729W        W12055   4.897   8.707  11.069
39730W        W12056  19.012   7.770  11.456
39731W        W12057  40.780  32.949   4.527
39732W        W12058   4.688  43.080  10.633
39733W        W12059  43.101  36.164   1.207
39734W        W12060  12.359  16.123   1.775
39735W        W12061  35.903  30.831   1.712
39736W        W12062   6.929   9.364  13.955
39737W        W12063   1.927   4.708   0.028
39738W        W12064  20.070  42.323   4.247
39739W        W12065  17.611  37.358  12.384
39740W        W12066   3.332  13.685   3.800
39741W        W12067  38.284  11.641   2.867
39742W        W12068  20.580  33.495  14.954
39743W        W12069  36.571  14.022  10.515
39744W        W12070  32.095  21.228  11.969
39745W        W12071   9.856   8.952   3.743
39746W        W12072  20.612   3.304  10.680
39747W        W12073  17.722  18.102   3.853
39748W        W12074  11.461  24.139   2.257
39749W        W12075  27.206  12.226  10.582
39750W        W12076  40.507   9.164  11.650
39751W        W12077  27.482  41.276   3.173
39752W        W12078  10.879  13.678  14.756
39753W        W12079  41.016  16.118   3.180
39754W        W12080  18.035  11.268  10.602
39755W        W12081   2.590  22.964  13.037
39756W        W12082  38.625  25.091  13.496
39757W        W12083   3.277  40.026   4.385
39758W        W12084  37.612   5.547   2.364
39759W        W12085   7.728  18.071  13.546
39760W        W12086  44.245   8.656   2.608
39761W        W12087  39.597  40.964   1.930
39762W        W12088  17.785   6.214   3.599
39763W        W12089  19.140  17.833  13.445
39764W        W12090   9.072  26.706   1.729
39765W        W12091  33.081  16.660   0.649
39766W        W12092  16.951  14.717  11.953
39767W        W12093  28.658  22.695   2.326
39768W        W12094  19.960  21.727   2.874
39769W        W12095  34.297  12.168   4.187
39770W        W12096  40.225   3.434   3.218
39771W        W12097  44.426  13.126   1.420
39772W        W12098   3.967  36.080   0.030
39773W        W12099   5.447  20.491  11.690
39774W        W12100  42.034  35.620  13.104
39775W        W12101  42.806   0.210   1.371
39776W        W12102  26.835  35.990   4.757
39777W        W12103  38.450  36.324  12.951
39778W        W12104  42.927  10.153  12.624
39779W        W12105  36.527  40.597  11.509
39780W        W12106  21.659   0.921   2.404
39781W        W12107  41.437  28.457  14.861
39782W        W12108   4.198  18.176   4.321
39783W        W12109  35.059  43.681  11.465
39784W        W12110  22.746  19.793   3.222
39785W        W12111   5.209  23.448   1.462
39786W        W12112  19.449  20.674   1.915
39787W        W12113  17.205  10.249   3.598
39788W        W12114  40.895  40.854  11.199
39789W        W12115   4.881   1.729   4.812
39790W        W12116   6.765   3.250   0.013
39791W        W12117  10.123  31.399   1.323
39792W        W12118   8.804   4.639   1.278
39793W        W12119  34.433   7.806  13.105
39794W        W12120  22.781  16.195  13.952
39795W        W12121  16.836  33.533   1.322
39796W        W12122  35.492  39.390   3.246
39797W        W12123   6.806   4.415  13.785
39798W        W12124  27.053  18.550   4.681
39799W        W12125  22.475  40.937  14.361
39800W        W12126  21.602   4.696  14.465
39801W        W12127  21.240   4.688  10.676
39802W        W12128  40.479  44.262  11.531
39803W        W12129  11.875   4.790  14.870
39804W        W12130   1.568  11.644   5.086
39805W        W12131  38.046  12.286   4.973
39806W        W12132   4.005   6.767   0.914
39807W        W12133  32.031   1.955  14.264
39808W        W12134   9.386   4.047   3.329
39809W        W12135  14.946  35.556   0.463
39810W        W12136   5.759  29.460  11.650
39811W        W12137  32.025   8.802   0.816
39812W        W12138   1.414  24.083   5.077
39813W        W12139  15.166  31.594   4.068
39814W        W12140   3.259  22.577   3.902
39815W        W12141  15.567   0.837   0.174
39816W        W12142  42.302  14.259   3.825
39817W        W12143  37.979  40.780  14.977
39818W        W12144  38.091  16.489  11.294
39819W        W12145   1.420  17.548  11.956
39820W        W12146  16.604  39.518  14.521
39821W        W12147  26.229  21.525  12.120
39822W        W12148  27.797  26.658  10.672
39823W        W12149  34.039  34.319  11.947
39824W        W12150  44.467  16.520   9.877
39825W        W12151  23.908  35.686   3.198
39826W        W12152  41.813   2.316   1.144
39827W        W12153  26.421  29.982  10.760
39828W        W12154  42.393  16.974   2.096
39829W        W12155  41.445  34.645  14.720
39830W        W12156   2.769  44.454  12.404
39831W        W12157  30.654   0.990  14.095
39832W        W12158  21.655   7.795   4.709
39833W        W12159  31.989   1.003   1.335
39834W        W12160   0.340  17.038  14.457
39835W        W12161  19.789  44.015   0.688
39836W        W12162  28.000   4.752  12.146
39837W        W12163  21.597  27.829  10.173
39838W        W12164   6.055  12.699  11.568
39839W        W12165   1.992  24.712  10.026
39840W        W12166  40.909  39.373   1.790
39841W        W12167  27.664  26.135  12.855
39842W        W12168  22.845  44.001   0.817
39843W        W12169   6.009  18.219   4.163
39844W        W12170  44.844  40.071   1.306
39845W        W12171  41.084  38.420   4.781
39846W        W12172  39.382  19.958  13.530
39847W        W12173   9.236  24.655   4.818
39848W        W12174  38.063  34.593  13.920
39849W        W12175   7.405   8.340  13.284
39850W        W12176  40.119  13.480  10.554
39851W        W12177  43.413  13.724   4.473
39852W        W12178  33.899  31.852  12.493
39853W        W12179  18.513  19.837  13.432
39854W        W12180  31.672  25.002  12.429
39855W        W12181  18.269   9.311   3.847
39856W        W12182  11.716  18.149  10.244
39857W        W12183   4.801  13.302  14.316
39858W        W12184   5.477  12.644  13.436
39859W        W12185   6.836  43.299  10.286
39860W        W12186  43.966  38.749  14.950
39861W        W12187   4.820   5.249  10.549
39862W        W12188  29.874  13.801  14.532
39863W        W12189  34.920  25.821   1.974
39864W        W12190  26.161  36.044  12.832
39865W        W12191  27.579   4.727  13.113
39866W        W12192  37.780  27.886  12.021
39867W        W12193  16.544  39.393   2.310
39868W        W12194   4.370   4.644   0.412
39869W        W12195  27.104  18.820  12.474
39870W        W12196   5.676  37.493   2.760
39871W        W12197  22.006  33.870  14.444
39872W        W12198  18.823  10.337   1.938
39873W        W12199  44.032  10.619  14.010
39874W        W12200  38.280  39.296   2.318
39875W        W12201   1.279  38.769  14.936
39876W        W12202  43.806  22.573   4.307
39877W        W12203  10.707  38.856   2.126
39878W        W12204  14.335  26.505   1.219
39879W        W12205  33.409  22.619  13.579
39880W        W12206  14.840  15.879  11.930
39881W        W12207  16.813  39.327  13.394
39882W        W12208   5.265  42.867  13.292
39883W        W12209  12.668  37.965   0.669
39884W        W12210   4.013  33.725   1.700
39885W        W12211  39.752   8.090  13.706
39886W        W12212  18.081  39.184   1.686
39887W        W12213   8.363  40.338   0.973
39888W        W12214  44.534  20.121   2.422
39889W        W12215   3.987  21.641   3.092
39890W        W12216  32.567   2.859  10.704
39891W        W12217  20.372  23.367   3.761
39892W        W12218  11.446  34.045  11.120
39893W        W12219  44.139  20.298  13.872
39894W        W12220  19.601  33.691  12.063
39895W        W12221   4.924  19.503  14.446
39896W        W12222  24.727  36.033  11.075
39897W        W12223  18.858  41.506  13.343
39898W        W12224  16.572   1.153   3.598
39899W        W12225   3.922   8.757  14.753
39900W        W12226  33.308  21.954   3.180
39901W        W12227  13.325  42.841   3.246
39902W        W12228  16.044  44.295  13.817
39903W        W12229  20.681   5.327  11.138
39904W        W12230  23.508  11.089   4.520
39905W        W12231  12.242  14.028  11.173
39906W        W12232  30.072  32.056  10.368
39907W        W12233  24.067   6.330  12.602
39908W        W12234  33.390  24.913  14.183
39909W        W12235  23.507  37.096   0.271
39910W        W12236  39.765   1.427   0.995
39911W        W12237  20.021   1.965   0.347
39912W        W12238  39.731  25.732  14.731
39913W        W12239  15.643   4.247  10.253
39914W        W12240  16.300  17.614   2.590
39915W        W12241  19.380  27.263   2.355
39916W        W12242  24.124  17.815  13.025
39917W        W12243   0.956  34.053  13.035
39918W        W12244   6.906   7.767  14.990
39919W        W12245  27.572  41.851   0.633
39920W        W12246  41.861  40.259  12.129
39921W        W12247  43.489  39.848  13.221
39922W        W12248   0.333  40.098   3.272
39923W        W12249  35.899  30.953   0.281
39924W        W12250  34.033   6.804   1.798
39925W        W12251   4.679  28.056  14.380
39926W        W12252  35.610  43.531   2.317
39927W        W12253  24.706  11.893   1.832
39928W        W12254  23.036   6.452   2.669
39929W        W12255  19.262  22.944  11.956
39930W        W12256  38.373   1.783   4.106
39931W        W12257  33.565  20.411  10.454
39932W        W12258  37.593  16.613  11.962
39933W        W12259   8.903  18.527  10.805
39934W        W12260   8.311   0.836  11.946
39935W        W12261  15.665  19.839  14.391
39936W        W12262   7.754  38.294   2.329
39937W        W12263  39.040  28.107   5.011
39938W        W12264  29.047  36.473   3.842
39939W        W12265  12.668  41.546  11.119
39940W        W12266  14.225   0.900   2.688
39941W        W12267  15.109  38.532   2.699
39942W        W12268  33.113  11.344   4.286
39943W        W12269  35.324  16.203   1.672
39944W        W12270  33.911  26.100  11.029
39945W        W12271   2.823   1.469   5.038
39946W        W12272  22.634   6.689  10.812
39947W        W12273  42.078  40.512  14.888
39948W        W12274   1.821  33.009  11.552
39949W        W12275  24.268  20.612  14.298
39950W        W12276  23.489  44.225   4.137
39951W        W12277   6.516  30.969   2.725
39952W        W12278   7.507  19.771  12.844
39953W        W12279  28.280  38.583  12.207
39954W        W12280   6.918   6.346   1.819
39955W        W12281   6.432  33.444   1.338
39956W        W12282  27.090   4.091  11.191
39957W        W12283   9.351  43.798   0.781
39958W        W12284  17.095   6.027  13.390
39959W        W12285   7.873  15.075   1.734
39960W        W12286  29.372  36.788   1.746
39961W        W12287   7.002  40.626  10.852
39962W        W12288  16.145  22.141  13.918
39963W        W12289  27.052  19.662   2.766
39964W        W12290  18.843  30.453   0.292
39965W        W12291  25.680  16.140  11.149
39966W        W12292  23.629   1.464  12.884
39967W        W12293  41.890  16.177  11.707
39968W        W12294  30.321  12.384  11.447
39969W        W12295  10.388  36.144  12.067
39970W        W12296  39.814  27.632   1.392
39971W        W12297  16.016  38.234   4.057
39972W        W12298  35.882  26.174  10.694
39973W        W12299  28.414  34.671   0.305
39974W        W12300  21.419  38.525   0.788
39975W        W12301   5.344  21.619   4.122
39976W        W12302  31.889  17.984   1.993
39977W        W12303  27.598  24.134   0.546
39978W        W12304  13.700  26.676  11.086
39979W        W12305  32.071  26.915  14.398
39980W        W12306  28.680  29.212   0.311
39981W        W12307  34.066  36.995   3.894
39982W        W12308   3.992   5.423  11.223
39983W        W12309  12.102   1.164  11.101
39984W        W12310  28.674   6.848  14.967
39985W        W12311  34.467  12.203   0.779
39986W        W12312   1.633   9.110  14.203
39987W        W12313  26.027  43.509  14.407
39988W        W12314  12.362  23.024   0.259
39989W        W12315   2.029  29.257   0.989
39990W        W12316   1.555  24.473   2.792
39991W        W12317  27.016   0.431  12.966
39992W        W12318  44.844   2.706   2.394
39993W        W12319   7.694   5.667  11.589
39994W        W12320  24.607  33.601   4.383
39995W        W12321   8.243  36.350  14.065
39996W        W12322  24.683  24.393  11.511
39997W        W12323  28.289   9.222  12.377
39998W        W12324  40.552  36.960  13.488
39999W        W12325  22.175  11.737   2.724
40000W        W12326  29.061   7.840  11.483
40001W        W12327   5.841   1.823   1.178
40002W        W12328  19.184  30.478   2.574
40003W        W12329  10.778   2.614   3.129
40004W        W12330  31.894  42.020   1.970
40005W        W12331  36.621  29.028  12.835
40006W        W12332  24.253  11.249   2.278
40007W        W12333  18.713  39.078   5.092
40008W        W12334  32.646   7.271  11.615
40009W        W12335  26.117  17.630  12.014
40010W        W12336  19.014  24.224   2.154
40011W        W12337  14.328  15.143   0.810
40012W        W12338  42.377  43.287  13.857
40013W        W12339  43.202  22.945   9.894
40014W        W12340  35.532  25.743  12.093
40015W        W12341   4.626  32.133  11.475
40016W        W12342  13.074  15.251  12.062
40017W        W12343  40.113  41.055  12.036
40018W        W12344  44.865   6.946  10.742
40019W        W12345  29.545  36.702   3.646
40020W        W12346  35.815  32.015   4.079
40021W        W12347  33.913  30.216   1.220
40022W        W12348  27.877  29.249   9.781
40023W        W12349  37.746   9.462   2.871
40024W        W12350   1.737  11.992   0.773
40025W        W12351  16.693   7.891  12.338
40026W        W12352  29.069  31.650  11.047
40027W        W12353  19.983  37.869  10.852
40028W        W12354  34.570  34.517  10.562
40029W        W12355  21.637  35.882  10.684
40030W        W12356  43.455  16.581  11.206
40031W        W12357  32.229  28.330   0.852
40032W        W12358  35.985  33.048  14.987
40033W        W12359  39.984  16.252   2.413
40034W        W12360  16.058  20.272  13.550
40035W        W12361  42.701  22.807  14.299
40036W        W12362  11.181  38.709   3.287
40037W        W12363  28.982  30.168   4.018
40038W        W12364  38.032  40.288   3.215
40039W        W12365  24.963   8.905   2.781
40040W        W12366   9.483  22.813   3.182
40041W        W12367  44.672  34.926  10.784
40042W        W12368  23.753   8.923  12.028
40043W        W12369  41.494  27.576  13.284
40044W        W12370  36.639  17.838   0.944
40045W        W12371  34.627  33.994   1.177
40046W        W12372  28.396  19.666   3.799
40047W        W12373  28.104   0.815   3.679
40048W        W12374  20.413  44.766  14.870
40049W        W12375   2.199  26.474  11.612
40050W        W12376  29.961  15.143  11.357
40051W        W12377  42.098  38.088   1.928
40052W        W12378  44.492   6.352   2.195
40053W        W12379  27.074  16.066   4.632
40054W        W12380  17.282  18.676  10.261
40055W        W12381  14.145   7.384   1.378
40056W        W12382   1.413  17.135   1.258
40057W        W12383  40.924  21.086  13.323
40058W        W12384  21.546  39.831  11.910
40059W        W12385   6.656  37.526   2.730
40060W        W12386   3.401  27.600  10.958
40061W        W12387  24.384  44.276   1.318
40062W        W12388  14.232  43.379   4.583
40063W        W12389  25.903  14.738   0.198
40064W        W12390  32.935  30.542   4.193
40065W        W12391  12.173  25.508   1.351
40066W        W12392   7.813   8.611   3.268
40067W        W12393   9.464  37.979   0.828
40068W        W12394  19.013  25.066   2.949
40069W        W12395  42.970  36.069   0.024
40070W        W12396  10.796   9.862   3.615
40071W        W12397  28.653  32.085  10.569
40072W        W12398  36.542  20.651  14.266
40073W        W12399  20.730  31.682   2.600
40074W        W12400  15.830  29.036  14.285
40075W        W12401  13.292   1.242  12.476
40076W        W12402  40.033  14.265   3.777
40077W        W12403  39.270  10.765   1.245
40078W        W12404  11.358  23.579  13.792
40079W        W12405  19.434  36.514   4.505
40080W        W12406   0.660  28.778   3.642
40081W        W12407  16.372  16.715   3.852
40082W        W12408  32.649   5.701   4.148
40083W        W12409  23.629  38.426  13.082
40084W        W12410   1.036  40.895   0.450
40085W        W12411  20.246  33.387   3.771
40086W        W12412   3.976  31.513  12.658
40087W        W12413  23.863  25.955   0.062
40088W        W12414   0.889  25.713  13.975
40089W        W12415  35.026  19.065  12.931
40090W        W12416  30.982  40.386  13.091
40091W        W12417  37.255  39.089   2.409
40092W        W12418   1.461  15.817   1.549
40093W        W12419  18.452   5.462   4.499
40094W        W12420  11.361  36.090  12.866
40095W        W12421  25.970  40.892   4.089
40096W        W12422  40.888  26.488   2.555
40097W        W12423  13.789  20.505  13.965
40098W        W12424  41.044  19.296  14.859
40099W        W12425   9.315  39.423   4.712
40100W        W12426  33.193  20.660  14.359
40101W        W12427   7.894  30.176  14.574
40102W        W12428  14.343  31.417  13.412
40103W        W12429  17.688  24.966  10.745
40104W        W12430  20.537  28.678  11.033
40105W        W12431  31.667  31.545  13.334
40106W        W12432  28.119   4.715   4.195
40107W        W12433  44.532  34.835  12.031
40108W        W12434  11.302  34.279  10.575
40109W        W12435  41.725   8.742   0.848
40110W        W12436  34.121  29.654   1.877
40111W        W12437  20.109  30.708  14.713
40112W        W12438  21.312  38.956  10.155
40113W        W12439   1.418  41.234   3.861
40114W        W12440   7.446   0.937  13.421
40115W        W12441  29.186  11.656  11.186
40116W        W12442  37.919  40.760  12.449
40117W        W12443   4.995   8.366  13.537
40118W        W12444   9.873   0.764   4.228
40119W        W12445   7.423  44.966   3.681
40120W        W12446  36.680  17.090  14.515
40121W        W12447  22.974   0.292   4.639
40122W        W12448  29.046   7.230  12.015
40123W        W12449  31.929  27.174  12.390
40124W        W12450  17.490  27.563   0.883
40125W        W12451  44.279   1.977  11.898
40126W        W12452  12.655   7.201   3.889
40127W        W12453   7.506  33.656   2.923
40128W        W12454  23.170  25.558  11.657
40129W        W12455  35.135  16.208   2.407
40130W        W12456  29.492  25.420  11.106
40131W        W12457   5.473   3.064  10.676
40132W        W12458   9.781  39.218  14.354
40133W        W12459  26.717  37.805   2.644
40134W        W12460  42.248   1.418  11.135
40135W        W12461  43.287  25.453   1.820
40136W        W12462  31.805  16.964  12.302
40137W        W12463   4.343  25.347   3.604
40138W        W12464  33.497  44.825   0.551
40139W        W12465  32.536   7.260   2.185
40140W        W12466  29.756  24.189   1.505
40141W        W12467  30.328  28.674   3.428
40142W        W12468   3.507  27.671   2.260
40143W        W12469   2.067  21.291  10.520
40144W        W12470  15.308  42.483   0.817
40145W        W12471   9.378  28.179   4.541
40146W        W12472  40.846   5.705   1.184
40147W        W12473   7.388  22.284   4.632
40148W        W12474   3.933  10.917   4.600
40149W        W12475  33.543   3.322   1.744
40150W        W12476  35.033  29.045   1.827
40151W        W12477  19.553  36.468   1.790
40152W        W12478  12.220  34.902  13.597
40153W        W12479   5.146  12.231   2.810
40154W        W12480  26.708   7.724   2.325
40155W        W12481  32.987   9.600  12.377
40156W        W12482  12.299   5.691   2.392
40157W        W12483   0.751  15.239   2.404
40158W        W12484   7.595   8.852  13.382
40159W        W12485  39.395  42.917   0.284
40160W        W12486  39.903  41.839  12.649
40161W        W12487   9.659  30.437   3.698
40162W        W12488   6.245  27.931   4.082
40163W        W12489  33.896   5.877  13.614
40164W        W12490  42.373  36.081  11.873
40165W        W12491   4.312   8.777  13.294
40166W        W12492  42.399   2.379  14.366
40167W        W12493  29.150  10.363   3.250
40168W        W12494  26.857   6.617   4.397
40169W        W12495  17.730  30.679  13.583
40170W        W12496  29.524  44.215  11.628
40171W        W12497  23.579  28.824   0.405
40172W        W12498  15.645  13.008   3.714
40173W        W12499  26.297  16.469   5.633
40174W        W12500  14.082   2.299  14.801
40175W        W12501  43.930   7.352  11.629
40176W        W12502  32.683  14.518  14.394
40177W        W12503  30.514  43.116  12.499
40178W        W12504  32.911  43.976   2.597
40179W        W12505  39.293  29.535  12.907
40180W        W12506  34.128   7.876  13.506
40181W        W12507  36.813   7.318   3.750
40182W        W12508   5.820  30.473  10.326
40183W        W12509  30.602   0.760   0.049
40184W        W12510  22.566  24.553  11.991
40185W        W12511  44.756  34.926   0.671
40186W        W12512   4.560   3.245   3.359
40187W        W12513  12.686   2.970  10.448
40188W        W12514   4.278  18.324   1.799
40189W        W12515   2.431  10.200  11.941
40190W        W12516   5.689  34.704   3.853
40191W        W12517  17.087  37.375  13.622
40192W        W12518  42.202  22.580   3.149
40193W        W12519   4.317   8.768   1.063
40194W        W12520   3.389   5.192  12.057
40195W        W12521   6.872  41.772  13.958
40196W        W12522  14.364  35.306   3.662
40197W        W12523  22.159   3.700   3.204
40198W        W12524   6.163  23.980  14.231
40199W        W12525   2.801  25.549  14.990
40200W        W12526  35.095   0.017   0.810
40201W        W12527  20.017  23.616  11.174
40202W        W12528  41.422  33.730  14.555
40203W        W12529  30.346   3.929  11.627
40204W        W12530   5.798  33.075   4.454
40205W        W12531  24.497  27.950  13.838
40206W        W12532  23.052  22.920   0.815
40207W        W12533  24.188  10.353   2.157
40208W        W12534  43.259  28.486   3.863
40209W        W12535  18.521  20.968   2.163
40210W        W12536   6.596  23.037  13.392
40211W        W12537  33.848  10.323  14.497
40212W        W12538  44.571   6.522  13.966
40213W        W12539   7.744  29.549   2.649
40214W        W12540  26.615  21.278   2.554
40215W        W12541  17.737  22.455  10.738
40216W        W12542  13.863  34.424   4.176
40217W        W12543  30.051  39.539   4.917
40218W        W12544  25.476  33.977   3.672
40219W        W12545   0.058  19.605  14.421
40220W        W12546   3.482  10.129  11.929
40221W        W12547  34.454  41.325   2.712
40222W        W12548  19.132  34.656   4.432
40223W        W12549   6.104  24.968   3.340
40224W        W12550   7.836   7.695   4.250
40225W        W12551   0.742   9.324  11.354
40226W        W12552   5.994  29.200  10.838
40227W        W12553   4.441   1.952   4.099
40228W        W12554   7.443  42.880   0.464
40229W        W12555   0.991   2.802   2.373
40230W        W12556  28.361  24.118   4.982
40231W        W12557   7.124  39.541  13.959
40232W        W12558  42.068  26.791  11.997
40233W        W12559  21.089  15.025   4.136
40234W        W12560  20.104  19.786   1.419
40235W        W12561  20.588  19.869  12.185
40236W        W12562  26.272  35.432  13.546
40237W        W12563  25.951   4.008  11.672
40238W        W12564  30.036  23.952  12.940
40239W        W12565  30.278  31.002   5.085
40240W        W12566  44.021  10.759   4.144
40241W        W12567  14.295   6.924  11.144
40242W        W12568  22.180  17.496   3.200
40243W        W12569  39.139  37.435   0.327
40244W        W12570  41.934  43.327  12.994
40245W        W12571  40.805  13.317   0.375
40246W        W12572  26.243  38.809   3.362
40247W        W12573  14.778  12.867   5.178
40248W        W12574  44.916  31.078   2.576
40249W        W12575   5.911   2.243   3.672
40250W        W12576   6.180   6.021   0.784
40251W        W12577  29.129  15.760   0.461
40252W        W12578  37.116  41.875  14.416
40253W        W12579  16.584  21.010   3.795
40254W        W12580  40.287  38.571  12.977
40255W        W12581  18.152  43.384  10.829
40256W        W12582  10.923  29.935   2.232
40257W        W12583  43.536  18.798  10.641
40258W        W12584  27.181  12.263   1.181
40259W        W12585  42.684  36.357  14.399
40260W        W12586  17.728  32.660  11.179
40261W        W12587  25.168  34.027   4.078
40262W        W12588  19.725  23.023  12.854
40263W        W12589  28.979   1.031   3.166
40264W        W12590  16.250  35.343   3.632
40265W        W12591   8.327  19.531   3.682
40266W        W12592   3.387  36.340  11.851
40267W        W12593  20.806  28.122  12.016
40268W        W12594  21.557   6.484   1.770
40269W        W12595  19.369  10.380  13.508
40270W        W12596  38.585  31.951   5.094
40271W        W12597  19.079  23.740  14.726
40272W        W12598   1.929   6.658  11.182
40273W        W12599  10.658  22.628   0.637
40274W        W12600  25.054  34.718  11.174
40275W        W12601  19.051  23.195  10.595
40276W        W12602  10.382  21.723   4.782
40277W        W12603   5.326  32.478   3.392
40278W        W12604  31.558  38.151   1.129
40279W        W12605  19.615  37.587  14.384
40280W        W12606  23.662  17.520  10.423
40281W        W12607  44.510  26.720  12.669
40282W        W12608  11.780  17.820  11.796
40283W        W12609   2.842   2.763   1.644
40284W        W12610  43.058  13.204   0.069
40285W        W12611   8.623  40.915  12.487
40286W        W12612  39.513   2.857  11.197
40287W        W12613  40.424  29.445   4.726
40288W        W12614  21.688   3.758   0.836
40289W        W12615  24.723   2.711  13.381
40290W        W12616  11.279  38.866  14.515
40291W        W12617  26.682   4.446  14.289
40292W        W12618  37.461  21.207   2.697
40293W        W12619  27.913  10.042   2.778
40294W        W12620  35.022  26.013   3.364
40295W        W12621  28.989  28.479  13.376
40296W        W12622  25.533  14.288  10.381
40297W        W12623  40.838  24.917  14.495
40298W        W12624  35.157  32.065  12.361
40299W        W12625  44.770  12.726  10.690
40300W        W12626  40.311   9.760  12.480
40301W        W12627  41.812   7.789  12.150
40302W        W12628  13.519  23.212   3.856
40303W        W12629  38.492  33.141   4.613
40304W        W12630  16.028  25.487  12.108
40305W        W12631  25.086  28.259  11.138
40306W        W12632   1.831  33.069  13.857
40307W        W12633  21.566  28.058  11.629
40308W        W12634   6.508  27.075   1.242
40309W        W12635  17.298  20.062  12.861
40310W        W12636   0.317  22.714  12.872
40311W        W12637  12.718  32.832   4.144
40312W        W12638  43.960  37.011  14.971
40313W        W12639  25.710  33.545   2.771
40314W        W12640  24.409   8.109   2.270
40315W        W12641  36.589   3.422  11.851
40316W        W12642  16.782  26.250   2.898
40317W        W12643  24.694  22.750   2.650
40318W        W12644  38.968  33.486  10.314
40319W        W12645   5.443  32.931  12.905
40320W        W12646  14.892  23.713   1.425
40321W        W12647   2.491  20.988  11.737
40322W        W12648  22.009  38.419   2.913
40323W        W12649   7.474  24.643  10.703
40324W        W12650  31.391  19.677   1.193
40325W        W12651   3.791   0.472  11.058
40326W        W12652  15.851  29.656   0.340
40327W        W12653  24.548   2.266  12.462
40328W        W12654  39.355  21.821   1.439
40329W        W12655   1.375  23.243   1.705
40330W        W12656  41.951  31.591  14.778
40331W        W12657  17.032   5.992  12.509
40332W        W12658  11.489   7.757   4.356
40333W        W12659  16.181  37.096   3.252
40334W        W12660  22.684  36.537  14.196
40335W        W12661  12.176  32.447   2.153
40336W        W12662  32.182  20.915  12.403
40337W        W12663  13.085  15.926   3.675
40338W        W12664  18.192   3.855   3.882
40339W        W12665  39.573  16.812  14.007
40340W        W12666  38.376   3.068   9.993
40341W        W12667  40.930   8.881   2.226
40342W        W12668   2.013  22.999  14.000
40343W        W12669  10.650  42.018   2.387
40344W        W12670   2.366   2.683   1.832
40345W        W12671  19.537  41.249   3.041
40346W        W12672  12.133  32.531   4.635
40347W        W12673  44.795  16.488  11.808
40348W        W12674   7.799  10.197  14.904
40349W        W12675  17.273   9.811  13.145
40350W        W12676  23.167  19.146   2.221
40351W        W12677  16.328  31.538  14.823
40352W        W12678   7.742  29.571  10.978
40353W        W12679  34.018  27.905  14.811
40354W        W12680   1.112  32.461   4.809
40355W        W12681  30.099  37.337   1.470
40356W        W12682  31.092   0.467   0.331
40357W        W12683  18.793  37.976  14.789
40358W        W12684   1.939   1.733   2.786
40359W        W12685  16.747  13.596   0.367
40360W        W12686  13.172  38.442  12.756
40361W        W12687   5.773  28.690   4.459
40362W        W12688  13.080  34.953  11.124
40363W        W12689  38.821  18.018   0.188
40364W        W12690   7.210   1.148  13.836
40365W        W12691  10.360  27.705   3.708
40366W        W12692  32.877  29.068   2.602
40367W        W12693  31.303  40.237   0.627
40368W        W12694  24.146  32.599  10.681
40369W        W12695   5.960   9.380  11.320
40370W        W12696  44.747  28.721   0.158
40371W        W12697  39.655  32.586  14.936
40372W        W12698   7.590  19.004  12.045
40373W        W12699  11.657  18.141   0.149
40374W        W12700  38.881   9.889  12.091
40375W        W12701  35.203  40.053  13.385
40376W        W12702  40.417  10.574  14.666
40377W        W12703  34.931  33.048   4.265
40378W        W12704  40.731   5.753  13.165
40379W        W12705  29.192  17.079   0.864
40380W        W12706   5.899  15.089  11.057
40381W        W12707  26.539  23.450  14.932
40382W        W12708  37.444  11.895   1.802
40383W        W12709  24.658   5.854  11.151
40384W        W12710  34.886  23.683  10.675
40385W        W12711  40.298  22.032  11.164
40386W        W12712  40.312   4.590  13.303
40387W        W12713  10.537  17.687   1.724
40388W        W12714  40.298   5.996  13.311
40389W        W12715  28.679  21.913  14.927
40390W        W12716  20.247  10.147  10.174
40391W        W12717  38.426  13.735   4.938
40392W        W12718  42.332  38.601  11.526
40393W        W12719  21.738  44.049   0.753
40394W        W12720  16.527  43.842  13.309
40395W        W12721   0.884  26.720   2.314
40396W        W12722  15.779  19.003  10.690
40397W        W12723  38.014  13.598  14.410
40398W        W12724  28.499  16.705   0.013
40399W        W12725  10.222   6.958   4.878
40400W        W12726  39.868  42.782  12.083
40401W        W12727  22.642  21.211   5.087
40402W        W12728  18.121  32.825  14.804
40403W        W12729  33.869   9.760  14.673
40404W        W12730  18.310  27.658   2.723
40405W        W12731  34.175  26.617   3.672
40406W        W12732  24.424  30.066   3.193
40407W        W12733  42.035  20.428   4.115
40408W        W12734   1.712  37.611  14.662
40409W        W12735   2.227  37.571   0.416
40410W        W12736  40.265  43.972  13.421
40411W        W12737  23.655  25.791   4.687
40412W        W12738  28.644  15.559  12.004
40413W        W12739  19.811  44.829  13.969
40414W        W12740  37.786  38.511  12.676
40415W        W12741   4.066  44.420  14.419
40416W        W12742  33.376  11.269   4.761
40417W        W12743  13.421  24.738  14.901
40418W        W12744   8.613  38.725  12.546
40419W        W12745  32.554  44.907   4.409
40420W        W12746  15.727  10.909  11.329
40421W        W12747  12.628  24.726   2.347
40422W        W12748  30.501  32.873  10.587
40423W        W12749  10.640  27.987   1.634
40424W        W12750  27.645  24.583  11.940
40425W        W12751  35.796  10.596  11.564
40426W        W12752  17.730  13.302  10.417
40427W        W12753  12.697  22.076   1.879
40428W        W12754   3.047  23.585   4.113
40429W        W12755  41.310  20.959   4.024
40430W        W12756  37.403  27.671   4.471
40431W        W12757  34.764  28.286  12.443
40432W        W12758  38.160  11.363   4.998
40433W        W12759  34.474  15.225   4.564
40434W        W12760  13.003  11.172  13.391
40435W        W12761  33.675  38.812  14.778
40436W        W12762  42.275  26.998  10.690
40437W        W12763   7.274  27.928  11.450
40438W        W12764  24.077  40.048  10.962
40439W        W12765  23.140  11.673  13.377
40440W        W12766  18.516  38.964  13.008
40441W        W12767  19.758  19.170   2.865
40442W        W12768  14.813  11.866   3.184
40443W        W12769  32.730  41.032   3.481
40444W        W12770  30.065   3.299   2.165
40445W        W12771  22.669   1.702  13.256
40446W        W12772  10.895  14.902   2.133
40447W        W12773  33.575   3.361  10.698
40448W        W12774  42.506  37.889  12.035
40449W        W12775  35.600   1.719   2.751
40450W        W12776  16.201  43.454  11.105
40451W        W12777  24.578  28.205  12.505
40452W        W12778  22.912  24.583   0.240
40453W        W12779  13.332  23.979   0.442
40454W        W12780  27.531  43.032   1.787
40455W        W12781   4.097   1.434   2.358
40456W        W12782  12.149  36.113  12.370
40457W        W12783  44.457  11.302   4.104
40458W        W12784  12.348  26.900   2.862
40459W        W12785  42.447  39.698  13.353
40460W        W12786  35.580  44.353   0.692
40461W        W12787  34.482  11.066   4.832
40462W        W12788   8.677  18.298  11.190
40463W        W12789  22.456   2.130  10.641
40464W        W12790  22.513  40.194  10.697
40465W        W12791   1.302   6.264   3.830
40466W        W12792  33.593   1.420   1.440
40467W        W12793   8.354  10.777   0.037
40468W        W12794  23.672  18.552   1.238
40469W        W12795  28.500  13.856   2.407
40470W        W12796  15.633  20.590   2.785
40471W        W12797  35.950   4.571  10.639
40472W        W12798  20.680  44.256  10.635
40473W        W12799  11.888  30.569  13.029
40474W        W12800  14.565  25.856  13.970
40475W        W12801  24.982  28.878  13.616
40476W        W12802  43.986   1.597  12.137
40477W        W12803  35.495   5.189  11.417
40478W        W12804  33.826  34.664   2.370
40479W        W12805   4.520  11.358   1.885
40480W        W12806  40.220   8.416  12.333
40481W        W12807  36.858  16.728   1.931
40482W        W12808  10.732  36.456   2.871
40483W        W12809   5.908  35.524  14.248
40484W        W12810  39.031  26.607  11.021
40485W        W12811  34.772  41.421   4.098
40486W        W12812   7.111  16.615   4.395
40487W        W12813  34.253  41.551   3.200
40488W        W12814  23.942   5.351  13.099
40489W        W12815  30.109  31.523  11.585
40490W        W12816  25.469  42.437   1.362
40491W        W12817  37.854  35.014  12.502
40492W        W12818  22.891   8.248  14.487
40493W        W12819  28.434   3.923  11.436
40494W        W12820  27.524   3.285  12.841
40495W        W12821  21.706  30.009   2.853
40496W        W12822  19.100  13.087   4.584
40497W        W12823   6.173  23.473  11.013
40498W        W12824  14.021  27.031   1.874
40499W        W12825  19.353   8.619  11.980
40500W        W12826  10.751   2.875   0.320
40501W        W12827  10.562  23.533   0.323
40502W        W12828  10.311  32.076  12.016
40503W        W12829   7.411  31.543  14.006
40504W        W12830  18.625  16.778   1.294
40505W        W12831  13.214  35.197   3.249
40506W        W12832  31.488  16.262   3.796
40507W        W12833   4.775  40.897   2.697
40508W        W12834  31.354  23.356  11.092
40509W        W12835  29.023  14.694   0.376
40510W        W12836  44.806  16.634   1.931
40511W        W12837   5.879  34.568   4.359
40512W        W12838   7.061  26.418   1.877
40513W        W12839  17.041  34.880  14.472
40514W        W12840  18.850   5.055  12.850
40515W        W12841   9.216  24.765   2.883
40516W        W12842  20.713  31.926  13.352
40517W        W12843  21.526  43.765  10.764
40518W        W12844  20.819  12.792  13.775
40519W        W12845   3.838   2.370   5.016
40520W        W12846  20.112  25.585  11.801
40521W        W12847  34.150   4.208   1.781
40522W        W12848  30.336   8.271   4.592
40523W        W12849  11.783  20.187   4.933
40524W        W12850   9.208  25.127  13.267
40525W        W12851  23.431  24.637   0.360
40526W        W12852  43.439  42.106  12.670
40527W        W12853  17.191  40.571   0.891
40528W        W12854  16.358  43.804   0.944
40529W        W12855  33.910  36.302  13.931
40530W        W12856  30.180  41.375  12.445
40531W        W12857  40.177  18.041   1.634
40532W        W12858  13.653   0.849  10.962
40533W        W12859  28.559  27.262   0.848
40534W        W12860  25.519  26.589  13.826
40535W        W12861   3.309  30.278  11.662
40536W        W12862  27.366  15.533  11.144
40537W        W12863  31.001  20.780  13.405
40538W        W12864  11.289  27.282  13.425
40539W        W12865  31.038  11.861   4.181
40540W        W12866  29.881   7.474   1.316
40541W        W12867  42.976  21.492   4.151
40542W        W12868   2.199  28.879   2.840
40543W        W12869  32.558  12.124   3.395
40544W        W12870  30.903  11.191   2.251
40545W        W12871  10.144  25.019   2.763
40546W        W12872   7.784  23.652  14.981
40547W        W12873  39.063  27.582  14.458
40548W        W12874   5.895  15.422   2.192
40549W        W12875   9.301  41.835  11.142
40550W        W12876  38.975   4.412  12.551
40551W        W12877  13.962   3.082   5.098
40552W        W12878  11.102  38.064  11.279
40553W        W12879  15.776  21.244  11.224
40554W        W12880  40.665  36.963   2.641
40555W        W12881  24.079  12.629   5.329
40556W        W12882  16.762  18.264   3.216
40557W        W12883  43.526  30.418   2.641
40558W        W12884   7.884   2.791   3.238
40559W        W12885   3.683  44.781  14.335
40560W        W12886   6.341  41.029  13.813
40561W        W12887  42.711  39.616   4.564
40562W        W12888  30.982  27.935   3.909
40563W        W12889  38.092   6.632   4.404
40564W        W12890  38.911  20.239  14.815
40565W        W12891  33.223  22.677  10.734
40566W        W12892   4.985   3.501  14.837
40567W        W12893  19.978   3.755  14.319
40568W        W12894  12.663  13.116   0.101
40569W        W12895  31.432   0.519  14.889
40570W        W12896  12.584  44.197  13.755
40571W        W12897  44.320   4.681  10.585
40572W        W12898  44.021  37.855  13.809
40573W        W12899  19.476  20.163  14.245
40574W        W12900  18.271   4.462  10.699
40575W        W12901   8.426   9.385  13.328
40576W        W12902   0.609   1.911  12.854
40577W        W12903  32.551  31.731   1.813
40578W        W12904  29.575  20.543  12.699
40579W        W12905   6.227  38.578   3.337
40580W        W12906  23.206  30.961   4.593
40581W        W12907  17.618  14.175   4.125
40582W        W12908   8.586  11.193   0.293
40583W        W12909  28.150  32.572   3.130
40584W        W12910  29.421   5.167  11.536
40585W        W12911  30.891   8.856   4.235
40586W        W12912  33.683  41.589   2.283
40587W        W12913  34.390  14.512   4.100
40588W        W12914  36.292  13.207  13.093
40589W        W12915  12.126  33.412  11.062
40590W        W12916  28.967  14.078  12.471
40591W        W12917  20.832  40.774   3.235
40592W        W12918  37.034   8.099   2.269
40593W        W12919  35.252  37.925  10.370
40594W        W12920  43.880   5.607   4.168
40595W        W12921  31.123  13.872  13.962
40596W        W12922  29.529   7.148   1.150
40597W        W12923  15.024   6.533   1.006
40598W        W12924  33.880  40.211   3.380
40599W        W12925   6.181  11.744  14.291
40600W        W12926  24.869  23.055   4.155
40601W        W12927   2.407   8.177   2.257
40602W        W12928  14.296   0.751  11.205
40603W        W12929  40.230  29.747  14.941
40604W        W12930  23.079  13.762   1.294
40605W        W12931  19.382  30.094  14.787
40606W        W12932  24.589   7.280   2.457
40607W        W12933   3.034  15.858  13.461
40608W        W12934  15.160  44.758  10.296
40609W        W12935   3.701  36.921   0.099
40610W        W12936  21.136  19.274   1.519
40611W        W12937  23.447  14.036   3.246
40612W        W12938   6.699  34.995   3.382
40613W        W12939  10.338  11.791  13.174
40614W        W12940  27.717  41.539   2.801
40615W        W12941  10.431   2.446   1.711
40616W        W12942  21.034  36.860   1.357
40617W        W12943  40.523   0.479  10.705
40618W        W12944  20.037   0.428   3.843
40619W        W12945  27.007  39.414   0.296
40620W        W12946   5.813  24.923   1.442
40621W        W12947  13.739  21.658   0.466
40622W        W12948   6.451  41.962  11.504
40623W        W12949  19.678  41.371   4.164
40624W        W12950  44.012  29.196   1.904
40625W        W12951  17.065  15.202  14.075
40626W        W12952  42.284   9.642   3.747
40627W        W12953   9.242  20.760   3.279
40628W        W12954  34.921  18.239  11.635
40629W        W12955  12.328  17.586   2.611
40630W        W12956   3.174   1.777  13.976
40631W        W12957  14.785  21.042  12.167
40632W        W12958  40.519   8.693  10.460
40633W        W12959   2.934  35.659   3.205
40634W        W12960  11.609   1.766   2.439
40635W        W12961  16.523  13.067   4.757
40636W        W12962  38.910   8.400   2.635
40637W        W12963  28.020  24.695  10.875
40638W        W12964  37.409  14.015  12.819
40639W        W12965  44.902  31.807   4.261
40640W        W12966  10.210   3.800  11.210
40641W        W12967  40.003  18.311  10.610
40642W        W12968  34.906  38.375   0.531
40643W        W12969  20.696   7.316   0.268
40644W        W12970  14.718  27.605   1.942
40645W        W12971  27.705  24.843   3.203
40646W        W12972  26.069   1.889   4.764
40647W        W12973  30.914  42.772   3.601
40648W        W12974  16.713   2.888   2.856
40649W        W12975   0.565   0.996  14.831
40650W        W12976   5.141  25.655  13.409
40651W        W12977  32.084  41.806   3.815
40652W        W12978  28.216  18.002  11.997
40653W        W12979   7.349  12.676  14.536
40654W        W12980  31.122  29.404   3.699
40655W        W12981  41.361  11.645   2.220
40656W        W12982  36.437  41.072   3.768
40657W        W12983   3.152  13.651  12.165
40658W        W12984  40.870  25.446   4.373
40659W        W12985   1.951  15.690   1.388
40660W        W12986   3.889  18.109  14.092
40661W        W12987  25.250  11.099   2.378
40662W        W12988  24.390  16.513  11.829
40663W        W12989  17.212  15.623  14.899
40664W        W12990  28.483  18.199  13.814
40665W        W12991   5.704   2.212  10.602
40666W        W12992   0.467  25.085  10.716
40667W        W12993  29.671  17.193   2.422
40668W        W12994  41.218  42.341  11.106
40669W        W12995   9.591  17.380   2.412
40670W        W12996  11.825  23.438   2.344
40671W        W12997   7.750   6.817   0.303
40672W        W12998  36.952  36.853  12.159
40673W        W12999  21.975  43.562  12.922
40674W        W13000  33.957  39.900   0.716
40675W        W13001   7.392  11.321  12.962
40676W        W13002  33.520  31.465  12.691
40677W        W13003  36.224  39.558   1.312
40678W        W13004   4.902  41.041  11.692
40679W        W13005  19.219  10.917   2.426
40680W        W13006  43.242  31.346  11.075
40681W        W13007  25.440   0.367   4.156
40682W        W13008  39.047  40.087  11.226
40683W        W13009  43.826  36.519   2.854
40684W        W13010   5.697  15.247   3.971
40685W        W13011  44.484  17.754  11.617
40686W        W13012  41.518   4.384  10.661
40687W        W13013  29.641  25.094   1.270
40688W        W13014  31.759  14.404   2.350
40689W        W13015   1.060  16.626  10.188
40690W        W13016  15.332  32.131  12.985
40691W        W13017  42.525  18.096  14.031
40692W        W13018   6.825  31.982  11.511
40693W        W13019  10.804  37.061   3.574
40694W        W13020   2.280  33.380  14.835
40695W        W13021  20.759   4.774  14.747
40696W        W13022  17.096  38.317   4.408
40697W        W13023  12.579  23.536   1.771
40698W        W13024  11.005  43.891   2.598
40699W        W13025  33.026   9.191   0.328
40700W        W13026  43.250  33.437   1.485
40701W        W13027  15.641  27.968   3.281
40702W        W13028  28.330  32.388  13.893
40703W        W13029  21.144  34.221  10.293
40704W        W13030  28.329  42.386  11.511
40705W        W13031  30.605  31.411  12.487
40706W        W13032  18.680  10.889  13.019
40707W        W13033  29.251  34.045   2.391
40708W        W13034  20.612   2.696   4.390
40709W        W13035  36.759  23.995  13.722
40710W        W13036  33.506  34.286   2.181
40711W        W13037   9.259   3.562   0.452
40712W        W13038  40.131  26.672  13.847
40713W        W13039  27.136  37.063   3.732
40714W        W13040  13.754  33.504   0.970
40715W        W13041  33.133  41.817   1.030
40716W        W13042  39.266  26.568  11.589
40717W        W13043  22.043  39.660   3.405
40718W        W13044  28.560  24.372  10.659
40719W        W13045   0.384  25.206   2.211
40720W        W13046   1.773  13.075  10.652
40721W        W13047  25.664   3.223   0.665
40722W        W13048  22.598  44.205  13.599
40723W        W13049   5.392  15.837  13.848
40724W        W13050  11.169  26.506  11.443
40725W        W13051  23.703  44.322  14.383
40726W        W13052  12.634  36.392  11.547
40727W        W13053  43.981  41.374   2.785
40728W        W13054  34.816  10.319   0.470
40729W        W13055  43.473  11.720  12.908
40730W        W13056  23.594  28.281  13.368
40731W        W13057  13.622  17.230   0.195
40732W        W13058   1.332  19.518  13.908
40733W        W13059   6.331   3.195   4.534
40734W        W13060  14.166  34.005   4.210
40735W        W13061  23.677  36.790  11.003
40736W        W13062   8.940   0.962   2.245
40737W        W13063  22.171  16.699   1.283
40738W        W13064   1.018  23.467  10.679
40739W        W13065  12.324  34.732   3.166
40740W        W13066   6.943   1.412  12.989
40741W        W13067  11.617  22.209   3.967
40742W        W13068  27.929  29.704  10.037
40743W        W13069  13.866   8.705  13.935
40744W        W13070  16.087  22.991   3.532
40745W        W13071  24.033  26.219  14.609
40746W        W13072  26.471  13.372  11.669
40747W        W13073  38.949  13.385  10.291
40748W        W13074   4.961  17.579  12.877
40749W        W13075   8.660   7.119  11.495
40750W        W13076  27.953  39.762  10.153
40751W        W13077   5.012   5.359  13.201
40752W        W13078  42.875  35.548   0.012
40753W        W13079  26.054  18.332   0.418
40754W        W13080  15.694  20.414   3.293
40755W        W13081  39.279  25.804   3.875
40756W        W13082  10.306  29.617   0.695
40757W        W13083  44.996  30.597   4.224
40758W        W13084  19.766  12.654   2.996
40759W        W13085  25.470   6.265   1.227
40760W        W13086  22.676  31.042   4.889
40761W        W13087  14.605  29.873   4.146
40762W        W13088   6.625   2.748  14.476
40763W        W13089  44.768  21.041   0.698
40764W        W13090  44.771  37.932  11.108
40765W        W13091  11.749  23.291  12.019
40766W        W13092  10.163  17.268  14.242
40767W        W13093  14.775  34.132   4.663
40768W        W13094   9.428  19.251   0.253
40769W        W13095  44.987  13.615  12.059
40770W        W13096  12.129  33.832   1.261
40771W        W13097  16.672  13.022  14.271
40772W        W13098  12.890  39.129   4.109
40773W        W13099   8.938  33.677  14.438
40774W        W13100  10.401  31.491  12.535
40775W        W13101  13.752   0.361   0.439
40776W        W13102  11.116  34.632   4.205
40777W        W13103  20.223  21.347  14.102
40778W        W13104  42.007  38.475  12.853
40779W        W13105  10.884  36.364  12.010
40780W        W13106  41.124  19.847   2.770
40781W        W13107  11.307  41.988  11.114
40782W        W13108  22.063  10.355  14.286
40783W        W13109  20.189  23.739   0.670
40784W        W13110  16.765  43.837   4.874
40785W        W13111  20.782   2.044   3.606
40786W        W13112  28.382  25.439   1.339
40787W        W13113   9.198   0.069  14.069
40788W        W13114  14.774  31.051   3.625
40789W        W13115  24.951  39.999  14.437
40790W        W13116   6.426   1.372  14.391
40791W        W13117   8.637  24.550  13.262
40792W        W13118   2.169  14.120  13.803
40793W        W13119   0.984  13.920  10.132
40794W        W13120  10.075  40.050  10.172
40795W        W13121   4.343  28.778   3.216
40796W        W13122   2.345  43.195   3.564
40797W        W13123  21.772  21.584  12.974
40798W        W13124  15.293  26.450  12.025
40799W        W13125   3.380  41.143   4.057
40800W        W13126  20.148  29.721   0.710
40801W        W13127  13.639  15.802  10.116
40802W        W13128   7.346   6.657  11.686
40803W        W13129  41.083   2.020   2.688
40804W        W13130  10.617  44.789  11.135
40805W        W13131  28.120  28.732  10.656
40806W        W13132  29.906  36.976  14.583
40807W        W13133  28.501   4.446   1.712
40808W        W13134   2.176   9.548   5.440
40809W        W13135  24.207   7.265  11.262
40810W        W13136  10.165   0.916  14.060
40811W        W13137   0.421  11.335   2.309
40812W        W13138  16.526  30.865  13.495
40813W        W13139   8.306  19.441   2.998
40814W        W13140  21.649  42.507   3.246
40815W        W13141  40.484  20.161   3.265
40816W        W13142  36.798   1.248  11.155
40817W        W13143   9.621  14.378  10.923
40818W        W13144   1.485   1.240   1.768
40819W        W13145  14.514   4.540  13.992
40820W        W13146   1.372   5.373   2.568
40821W        W13147  30.358  39.538  14.944
40822W        W13148  35.393  33.553   3.620
40823W        W13149  22.533   2.659   1.267
40824W        W13150  14.410   0.385  14.831
40825W        W13151  22.109   5.674   0.791
40826W        W13152   3.032  23.613   3.213
40827W        W13153   6.327  31.198  10.617
40828W        W13154  12.595  40.029  11.487
40829W        W13155  43.427  38.170  14.329
40830W        W13156  35.336  25.052   0.522
40831W        W13157  30.606  41.746   3.631
40832W        W13158  13.729   4.663   4.618
40833W        W13159   9.727  27.450  13.009
40834W        W13160  34.183  40.705  12.035
40835W        W13161  36.982  29.981  13.822
40836W        W13162  43.933   0.400  10.514
40837W        W13163  23.687  34.247   1.432
40838W        W13164  38.817  24.476  10.650
40839W        W13165   6.908  20.630   0.382
40840W        W13166  17.135  13.292   2.704
40841W        W13167  18.300  41.234   4.189
40842W        W13168  26.665  30.768   0.113
40843W        W13169  39.622  32.074  12.180
40844W        W13170  40.246  41.032  12.858
40845W        W13171  35.251  42.472   3.008
40846W        W13172  12.230  17.566  14.894
40847W        W13173  27.167   7.358  12.978
40848W        W13174  14.128  32.489   4.134
40849W        W13175  28.570  32.408  11.855
40850W        W13176  10.269  18.505   1.325
40851W        W13177  32.039  38.232  12.991
40852W        W13178  11.902  14.666   4.568
40853W        W13179  11.316  22.325  10.542
40854W        W13180  33.670  13.913   2.418
40855W        W13181  17.335  31.449   3.754
40856W        W13182  10.161  15.244  14.349
40857W        W13183  15.203   0.911   3.665
40858W        W13184  33.544  16.807   1.436
40859W        W13185  36.385  36.416   2.222
40860W        W13186  22.675  23.428   4.183
40861W        W13187  33.838  41.275  14.605
40862W        W13188  37.050  15.336   4.116
40863W        W13189  40.256   0.079   3.345
40864W        W13190  19.562  16.611  11.001
40865W        W13191  44.368  20.414  12.378
40866W        W13192   9.785  38.970  12.960
40867W        W13193  10.727  33.975   4.696
40868W        W13194  40.617  21.124  14.726
40869W        W13195  11.316  36.137  13.900
40870W        W13196  34.354   8.173   1.898
40871W        W13197  17.188   5.148  10.726
40872W        W13198  14.054  20.685   3.606
40873W        W13199  11.802  26.586  13.447
40874W        W13200  34.209   9.527  12.720
40875W        W13201  16.229  26.659  10.624
40876W        W13202   7.703  29.510  14.800
40877W        W13203   0.517  19.268   4.182
40878W        W13204   7.403  39.457   3.990
40879W        W13205   8.341  20.485   3.653
40880W        W13206  13.656  12.345  11.095
40881W        W13207  43.866   3.778  10.873
40882W        W13208  33.850   0.544  13.328
40883W        W13209  20.713   2.221  13.085
40884W        W13210  31.084  43.234  11.253
40885W        W13211  15.288  26.918  10.799
40886W        W13212  39.893  27.604   2.819
40887W        W13213  43.065  14.336  12.573
40888W        W13214  31.728   6.892   0.169
40889W        W13215  28.131  23.691   0.994
40890W        W13216  12.585  23.180   3.840
40891W        W13217  20.066  22.782  10.856
40892W        W13218   9.693  17.790  10.584
40893W        W13219  36.894  44.918   2.716
40894W        W13220  14.075   3.288   3.240
40895W        W13221  27.401  40.917   1.753
40896W        W13222  27.189  42.857   2.778
40897W        W13223  34.395  12.315  11.959
40898W        W13224  39.317  24.896   0.682
40899W        W13225  36.914  29.496   3.652
40900W        W13226  43.982  11.760   1.404
40901W        W13227  33.018  43.049  13.526
40902W        W13228  15.882  36.299  13.462
40903W        W13229  31.207  43.885  14.469
40904W        W13230  32.339  11.121   1.786
40905W        W13231  37.033  18.981   3.606
40906W        W13232   6.291   2.790   3.135
40907W        W13233  36.337   8.230   1.796
40908W        W13234  19.755  26.763  14.749
40909W        W13235  35.457  22.985   4.336
40910W        W13236  36.086  41.301  11.046
40911W        W13237  31.136  39.384   4.387
40912W        W13238   1.049   0.576  12.885
40913W        W13239  35.950   4.292   3.972
40914W        W13240  12.766   5.261   1.137
40915W        W13241   8.800  13.696  11.467
40916W        W13242   9.298   0.518   0.459
40917W        W13243  34.847  13.972  14.927
40918W        W13244  14.243   3.166  11.984
40919W        W13245   1.501  39.359  14.324
40920W        W13246   1.948  14.776  11.211
40921W        W13247   0.495  32.987   3.592
40922W        W13248  22.050  27.037   2.925
40923W        W13249   3.238  14.256   2.261
40924W        W13250  30.030  32.666   4.090
40925W        W13251  37.819   0.719  14.392
40926W        W13252   9.379   9.630  13.882
40927W        W13253  40.328   6.069   3.120
40928W        W13254  10.208  35.035  14.800
40929W        W13255   7.248  34.860  12.666
40930W        W13256  44.905   3.697   4.905
40931W        W13257  18.655  27.908   4.625
40932W        W13258  33.608  34.159   3.177
40933W        W13259  41.619  42.465  13.347
40934W        W13260  10.973   7.622   2.368
40935W        W13261   6.887  11.929  14.846
40936W        W13262  32.553  26.173  10.708
40937W        W13263   7.409   8.793   2.130
40938W        W13264  16.211   7.643  12.515
40939W        W13265  38.941  15.305   2.374
40940W        W13266  30.151   8.212   2.700
40941W        W13267  42.484  10.794   0.854
40942W        W13268  20.313  38.778  10.275
40943W        W13269  35.618  44.998  13.912
40944W        W13270   0.484  36.829   3.644
40945W        W13271   5.372  35.749   1.375
40946W        W13272  26.431  20.264   0.424
40947W        W13273  31.595  16.503   3.054
40948W        W13274  42.605  18.524   0.939
40949W        W13275  19.386   6.311  14.946
40950W        W13276   0.893  12.203   2.417
40951W        W13277   0.207   4.775   1.759
40952W        W13278  25.165  43.580   4.390
40953W        W13279  16.491  10.376  13.465
40954W        W13280  19.330  29.061  14.418
40955W        W13281   4.398   9.515  14.443
40956W        W13282   6.336  16.806  12.607
40957W        W13283  10.388  24.963  14.618
40958W        W13284   8.700  21.016  14.770
40959W        W13285   5.881  24.559   3.608
40960W        W13286   4.835  37.406  13.984
40961W        W13287  40.777   5.354  14.419
40962W        W13288  25.191  25.458   3.574
40963W        W13289  22.547  23.442   3.271
40964W        W13290  21.500  33.967  12.480
40965W        W13291  21.988   9.145   3.035
40966W        W13292  21.217  44.366   1.455
40967W        W13293   2.666   8.442  10.569
40968W        W13294  29.705  17.407   1.965
40969W        W13295   5.153   8.032  12.196
40970W        W13296  34.028  42.597  12.154
40971W        W13297  16.489   0.508  11.999
40972W        W13298  19.241  32.061   1.958
40973W        W13299  18.082  44.349   3.648
40974W        W13300   2.731   9.516   9.739
40975W        W13301   9.173  12.387  12.654
40976W        W13302  21.136  29.478   4.804
40977W        W13303  22.609  20.211   4.571
40978W        W13304   9.800   5.213  11.599
40979W        W13305  43.108  28.735  12.164
40980W        W13306  28.174  24.218   1.837
40981W        W13307  30.624  27.098   3.643
40982W        W13308  13.909  32.655  13.879
40983W        W13309   0.817   6.882   1.802
40984W        W13310  18.317   2.688  13.862
40985W        W13311  26.335   3.954   4.734
40986W        W13312  24.145  20.126  13.990
40987W        W13313   0.079  21.029   4.115
40988W        W13314   6.725  31.821  13.542
40989W        W13315   2.254  37.510  11.569
40990W        W13316  34.033  23.115   4.551
40991W        W13317   0.381  11.654  13.957
40992W        W13318  36.005  26.490   3.195
40993W        W13319  18.738   4.736   3.763
40994W        W13320   0.295  31.337  11.175
40995W        W13321  42.997  42.885  10.358
40996W        W13322  26.697  19.151  13.196
40997W        W13323  22.793  41.773   4.237
40998W        W13324  39.532  23.205   1.342
40999W        W13325  43.433  31.147  13.788
41000W        W13326  12.748  36.906   4.700
41001W        W13327  43.446   6.164   1.344
41002W        W13328  27.703  36.916   2.438
41003W        W13329  38.645  23.132   0.253
41004W        W13330  29.380  29.714  14.402
41005W        W13331  29.860  18.075   3.674
41006W        W13332  44.156  42.038   5.053
41007W        W13333  41.955  23.591   3.386
41008W        W13334  41.548  32.087  12.355
41009W        W13335   6.506  17.998   0.265
41010W        W13336  24.539   7.094  12.480
41011W        W13337   1.046   0.901  12.489
41012W        W13338  35.926  36.394  11.661
41013W        W13339   5.432   5.842   3.863
41014W        W13340  31.668   2.817  12.186
41015W        W13341  14.421  14.304   5.240
41016W        W13342  36.393  24.961  13.784
41017W        W13343  40.757   9.265  13.866
41018W        W13344  31.519  12.153  12.864
41019W        W13345  27.160  16.772  11.561
41020W        W13346  15.163  38.393  10.734
41021W        W13347  42.399   9.828  11.217
41022W        W13348  10.161  11.223   3.284
41023W        W13349  37.328  34.343  13.901
41024W        W13350  18.096  11.165   3.407
41025W        W13351  29.949   4.941   0.050
41026W        W13352  18.513  42.868   2.073
41027W        W13353   5.320   5.838  12.452
41028W        W13354   7.832  37.890  14.232
41029W        W13355   8.148  43.000  14.020
41030W        W13356  27.441  26.007  14.724
41031W        W13357  12.668   1.930  14.951
41032W        W13358  41.816  11.874   2.676
41033W        W13359   3.392  42.513   1.913
41034W        W13360  29.368  40.821   1.813
41035W        W13361  29.701  24.064   3.244
41036W        W13362  11.922  34.571   3.953
41037W        W13363  29.149   7.318  11.084
41038W        W13364  26.521  40.033   0.061
41039W        W13365  44.434  13.587  14.553
41040W        W13366  41.858  16.425   2.027
41041W        W13367  19.710  35.989   0.002
41042W        W13368  40.536  29.004   2.129
41043W        W13369   2.806  13.147   1.711
41044W        W13370  10.867  40.479  12.509
41045W        W13371  41.903   2.387  14.306
41046W        W13372  14.570  27.625   3.453
41047W        W13373  26.492  13.879  11.545
41048W        W13374  25.528  24.542  13.517
41049W        W13375   8.711   2.968  14.906
41050W        W13376  20.216  10.731   3.715
41051W        W13377   7.802  41.723   0.524
41052W        W13378   9.732   4.708  13.454
41053W        W13379  29.059  34.179  12.037
41054W        W13380  13.871   3.456   1.781
41055W        W13381  27.174  39.956  12.480
41056W        W13382  35.404  13.187  11.903
41057W        W13383  18.668  13.588   3.266
41058W        W13384  12.757  24.157   9.827
41059W        W13385   7.900  44.827   1.316
41060W        W13386  40.128   0.422   0.374
41061W        W13387  31.350  22.174  11.648
41062W        W13388   7.243  31.084  12.564
41063W        W13389  29.028   6.210   3.354
41064W        W13390  23.759   4.779   2.415
41065W        W13391   7.823  43.415   4.513
41066W        W13392  26.117  28.534   0.485
41067W        W13393  31.086  27.065   3.400
41068W        W13394  30.571  10.798  12.593
41069W        W13395  14.174  33.199  12.135
41070W        W13396  37.394  23.604  13.355
41071W        W13397  24.420  33.240   4.682
41072W        W13398   0.805  21.589   0.786
41073W        W13399  13.200  20.542   1.230
41074W        W13400  44.313  36.422  14.482
41075W        W13401  30.421   2.622  11.870
41076W        W13402  15.589  28.167  13.966
41077W        W13403   7.853  36.908   4.603
41078W        W13404   7.409   7.277   2.668
41079W        W13405  21.118  17.469   3.694
41080W        W13406  39.118  26.124  12.013
41081W        W13407  22.762  43.763  12.135
41082W        W13408   0.818  22.179   4.104
41083W        W13409  21.737  42.346   0.827
41084W        W13410  30.869  40.480   5.060
41085W        W13411  12.342  27.925   2.674
41086W        W13412  39.967  26.697   2.124
41087W        W13413   3.584  24.523   1.348
41088W        W13414  30.165  27.083   4.963
41089W        W13415   8.329  20.978   2.249
41090W        W13416  11.173  13.219  11.260
41091W        W13417  41.270  32.109   2.378
41092W        W13418  16.298  15.570   0.890
41093W        W13419  26.233  20.780  11.531
41094W        W13420  29.250  40.836  10.622
41095W        W13421  41.768  28.479   1.310
41096W        W13422  14.093  11.174  13.032
41097W        W13423  41.952  30.882   0.384
41098W        W13424  39.375  27.609   2.848
41099W        W13425  34.096  18.216  14.627
41100W        W13426  10.758  25.743  14.895
41101W        W13427   8.678   5.965   2.716
41102W        W13428  43.437  36.596  12.058
41103W        W13429   2.434  11.930   9.795
41104W        W13430  20.520   4.482   1.301
41105W        W13431  36.411   9.296  10.669
41106W        W13432  36.752  44.846  14.787
41107W        W13433   1.974  22.667  13.593
41108W        W13434  39.917   4.783  13.597
41109W        W13435  32.023  15.126   1.886
41110W        W13436  34.030  10.061   0.763
41111W        W13437   8.105  38.296   3.823
41112W        W13438   9.862  21.016   3.144
41113W        W13439   5.515  26.060  13.485
41114W        W13440  36.516  28.157   3.768
41115W        W13441  16.751  26.970   4.628
41116W        W13442  38.382   2.766  11.327
41117W        W13443  10.039  25.122   3.676
41118W        W13444   8.683  34.065  11.445
41119W        W13445  21.007  14.830  11.970
41120W        W13446   3.420   8.084   2.232
41121W        W13447  18.190  23.784   3.750
41122W        W13448  30.884  42.455   4.088
41123W        W13449  40.000  28.242  10.832
41124W        W13450  32.484  43.505   4.051
41125W        W13451  11.004  30.250   0.741
41126W        W13452   1.391  14.343  14.815
41127W        W13453  38.476  42.867   3.073
41128W        W13454   9.860   9.352   2.021
41129W        W13455   2.298  19.768  14.748
41130W        W13456  33.400   2.330  14.377
41131W        W13457  24.740  13.374   0.943
41132W        W13458  34.593  31.396  12.879
41133W        W13459  16.862  34.861   4.581
41134W        W13460  12.403  39.047   4.294
41135W        W13461  23.439  33.507   1.902
41136W        W13462  18.489   9.599  11.549
41137W        W13463  24.190  35.890   4.862
41138W        W13464  10.377  34.074   2.323
41139W        W13465  12.714  39.317  12.923
41140W        W13466  16.714  19.264  11.999
41141W        W13467  26.450  42.582  10.923
41142W        W13468  43.395  29.047  13.278
41143W        W13469   9.772  15.032   1.795
41144W        W13470  17.790   4.779   4.198
41145W        W13471  25.526  22.766  14.371
41146W        W13472  22.829  35.165   3.646
41147W        W13473   3.375   3.125   4.037
41148W        W13474  22.492  23.907  14.949
41149W        W13475  20.111  15.059   3.220
41150W        W13476  31.537  23.126  12.413
41151W        W13477  19.733  32.174  11.132
41152W        W13478  33.855  21.179   2.780
41153W        W13479   4.002   6.266  12.138
41154W        W13480  21.102  25.691  12.374
41155W        W13481  42.675  41.873   1.630
41156W        W13482  10.306  16.398  14.179
41157W        W13483   9.094   6.028   2.318
41158W        W13484   4.417  37.868   0.511
41159W        W13485  17.069  14.832   3.637
41160W        W13486  22.493  31.401  12.436
41161W        W13487  39.869   8.577   2.400
41162W        W13488  25.267  25.041   0.244
41163W        W13489   1.816  35.130   4.284
41164W        W13490  27.587   6.104   1.718
41165W        W13491  14.719  12.622  11.000
41166W        W13492  43.533  44.872  12.044
41167W        W13493  16.033  32.966  11.233
41168W        W13494  33.412   0.569  10.270
41169W        W13495  37.618   7.661   3.417
41170W        W13496  36.985  27.178  14.532
41171W        W13497  39.598  35.797  14.278
41172W        W13498  32.994  43.289  14.018
41173W        W13499  23.820   8.784  12.512
41174W        W13500  40.559  22.679  11.305
41175W        W13501   0.016   9.239  12.405
41176W        W13502   9.379   5.704  12.013
41177W        W13503  44.883  20.204  14.424
41178W        W13504   4.926  12.297   0.975
41179W        W13505  41.519  30.169   4.111
41180W        W13506  19.127  18.657  11.467
41181W        W13507  43.395  14.876   0.864
41182W        W13508  38.566  44.366  11.396
41183W        W13509  14.933  14.536  11.627
41184W        W13510  19.346  24.518  13.604
41185W        W13511  31.721  18.615  10.439
41186W        W13512   6.449   0.295   4.963
41187W        W13513  29.479  21.544   0.580
41188W        W13514  16.202  36.442  14.819
41189W        W13515  29.885  23.578   0.872
41190W        W13516  35.318   3.235  10.052
41191W        W13517  31.441  31.644  14.793
41192W        W13518  39.421  23.285  14.034
41193W        W13519  25.714  19.632  11.736
41194W        W13520  34.054   2.718  13.805
41195W        W13521  11.551   7.042  14.096
41196W        W13522   0.625  28.015  10.938
41197W        W13523  29.500  14.199  12.873
41198W        W13524  21.047  36.596   0.824
41199W        W13525  17.133  37.138   3.698
41200W        W13526  34.404   1.399  14.567
41201W        W13527  24.598  29.513   1.480
41202W        W13528   7.924   8.307  12.414
41203W        W13529  13.362  11.823   0.493
41204W        W13530  23.146  42.814  14.814
41205W        W13531  30.760  30.503   1.471
41206W        W13532  13.132  24.174  14.478
41207W        W13533   0.802  22.720  14.841
41208W        W13534  41.037   4.472   0.515
41209W        W13535  43.565  44.382   3.297
41210W        W13536  41.322  28.067  14.518
41211W        W13537   2.813  42.320  14.170
41212W        W13538  30.331  27.307   3.259
41213W        W13539  27.499  33.635  11.881
41214W        W13540  35.005  24.216  13.835
41215W        W13541  13.181  43.863  11.175
41216W        W13542  39.410  31.672  13.845
41217W        W13543   2.725  23.953  13.370
41218W        W13544   8.649  25.165   1.028
41219W        W13545  37.731  40.305  14.929
41220W        W13546   7.954  27.034   1.257
41221W        W13547  38.998  42.369   1.459
41222W        W13548  21.563  29.221   3.644
41223W        W13549  30.068  14.392  12.050
41224W        W13550  28.433  13.108   2.788
41225W        W13551   0.601  40.302  14.937
41226W        W13552  27.574  13.916  14.893
41227W        W13553  31.907  37.814  14.760
41228W        W13554  23.202  29.552   0.276
41229W        W13555  44.767  43.503   2.774
41230W        W13556  26.569   3.143  14.643
41231W        W13557  32.625  36.512   4.827
41232W        W13558  26.093  16.202  11.969
41233W        W13559  15.418   3.231  12.686
41234W        W13560   9.156  31.177   2.748
41235W        W13561  30.570  23.005   4.470
41236W        W13562  22.638  25.031   1.451
41237W        W13563  33.471   5.438   1.786
41238W        W13564  17.816   1.099  13.462
41239W        W13565  28.612  36.642   2.852
41240W        W13566  12.276  21.553  11.968
41241W        W13567   6.794  28.070   0.664
41242W        W13568   5.848  10.167   1.860
41243W        W13569  35.323   3.371   5.037
41244W        W13570  31.665  42.778   3.154
41245W        W13571  13.379  22.996  12.648
41246W        W13572  10.634   0.877  10.669
41247W        W13573  42.301  37.866   4.679
41248W        W13574   3.287  22.810  11.072
41249W        W13575   4.241  20.568  14.968
41250W        W13576  36.013   8.175  11.313
41251W        W13577  30.337  28.785   9.739
41252W        W13578  39.171   0.021  13.069
41253W        W13579  25.224  39.316   0.321
41254W        W13580  32.395  17.061  12.462
41255W        W13581  22.209  38.333  10.973
41256W        W13582  13.130  10.162  11.383
41257W        W13583  27.114   7.613  10.382
41258W        W13584  13.060  30.968  11.417
41259W        W13585  14.889  13.814   3.063
41260W        W13586  10.795  19.549  10.703
41261W        W13587   0.600  25.471  12.330
41262W        W13588   1.092  42.178  13.862
41263W        W13589  29.104  17.511  11.110
41264W        W13590  34.108  35.958   3.779
41265W        W13591   2.006  40.918   0.311
41266W        W13592  15.068  35.518  14.948
41267W        W13593  31.122  20.703   0.319
41268W        W13594  27.055  24.140  12.560
41269W        W13595   0.918  27.232   0.482
41270W        W13596  40.569  11.237  11.434
41271W        W13597  17.007  32.103  14.529
41272W        W13598  44.820  32.531   2.327
41273W        W13599  38.922  21.150  13.335
41274W        W13600  35.208  25.145   3.803
41275W        W13601  42.880  23.483   3.594
41276W        W13602  10.238   6.212  11.150
41277W        W13603   3.682  26.020   1.931
41278W        W13604   0.977   2.437  10.674
41279W        W13605  24.573  37.522  10.512
41280W        W13606  34.898  10.374   1.416
41281W        W13607   5.787   1.965   1.686
41282W        W13608  38.620  23.556   3.176
41283W        W13609  11.121  12.310   2.839
41284W        W13610   4.287  43.715   4.124
41285W        W13611   0.706  22.764   0.728
41286W        W13612   4.339  27.598  10.995
41287W        W13613   1.971   9.204   3.296
41288W        W13614  44.777  30.458  12.938
41289W        W13615  26.642  29.423  13.840
41290W        W13616  11.158   8.016   0.977
41291W        W13617  20.642  28.143  14.050
41292W        W13618   1.322  13.400  12.621
41293W        W13619  40.248  25.497   2.763
41294W        W13620  27.162  14.866   3.746
41295W        W13621  26.712  12.204   1.418
41296W        W13622  22.675   7.846   1.187
41297W        W13623  11.191  36.334   0.353
41298W        W13624   0.976  31.672   3.715
41299W        W13625  34.199  15.603  14.073
41300W        W13626   7.902  14.251  10.667
41301W        W13627  18.486  24.380  11.977
41302W        W13628  26.463  34.956   3.700
41303W        W13629  10.078   1.717  10.880
41304W        W13630  29.900   2.924  13.818
41305W        W13631  25.198  14.743  14.012
41306W        W13632  18.781  33.964  14.406
41307W        W13633  34.341  36.894  13.533
41308W        W13634  36.481  34.979  13.242
41309W        W13635  42.228  40.987  14.750
41310W        W13636  39.083  13.923   3.723
41311W        W13637  19.782  42.902  14.868
41312W        W13638  31.884   5.810   3.708
41313W        W13639  22.442   8.405   2.468
41314W        W13640  20.215  41.692  11.467
41315W        W13641  11.763   2.162   4.259
41316W        W13642  22.195  33.166   3.287
41317W        W13643  37.544  17.979   1.908
41318W        W13644  37.547  34.614   0.888
41319W        W13645  36.863  28.122   0.666
41320W        W13646   5.189  19.002   1.774
41321W        W13647  34.229   1.507   1.762
41322W        W13648  27.713  30.660  13.736
41323W        W13649  25.626  10.951   0.149
41324W        W13650  37.769  13.230   2.244
41325W        W13651  43.286  15.071  11.054
41326W        W13652  42.259  26.082   1.390
41327W        W13653  10.160  26.643  12.964
41328W        W13654   6.859  32.927  13.864
41329W        W13655   8.648  29.713   0.434
41330W        W13656  44.363   8.661  12.094
41331W        W13657  32.953  20.145   4.681
41332W        W13658  40.510  20.597   4.447
41333W        W13659  10.634  23.044  14.371
41334W        W13660   0.746  20.345   3.604
41335W        W13661  13.546  33.491  14.777
41336W        W13662  18.675  15.547  10.264
41337W        W13663  39.577   7.466  13.318
41338W        W13664   9.460  10.993   2.625
41339W        W13665  28.042  42.907   3.773
41340W        W13666  43.402   5.370  13.513
41341W        W13667   3.659   4.372  11.470
41342W        W13668  17.263   9.979  10.941
41343W        W13669  33.491  17.501   2.669
41344W        W13670   8.095  27.405  13.832
41345W        W13671  44.973  16.042  12.489
41346W        W13672  25.231   8.420   4.137
41347W        W13673  27.880  19.511  12.902
41348W        W13674  11.434   0.192  12.569
41349W        W13675   0.691  44.685  13.838
41350W        W13676  37.154  17.669   1.734
41351W        W13677  22.653  43.085   2.443
41352W        W13678  17.216   6.862  10.639
41353W        W13679  44.535  13.604  11.823
41354W        W13680  27.446  16.296  12.144
41355W        W13681  28.165   2.224  11.232
41356W        W13682  31.838  39.534   2.266
41357W        W13683  38.243   2.245  11.658
41358W        W13684  14.853  22.567  13.369
41359W        W13685  31.070   6.491  13.871
41360W        W13686  37.724  11.308  14.987
41361W        W13687  32.872   3.847   2.090
41362W        W13688  36.864  33.063  14.011
41363W        W13689  10.453  12.365  14.430
41364W        W13690  32.039   6.382  14.500
41365W        W13691  13.719  44.832   0.341
41366W        W13692  21.817  10.243   0.942
41367W        W13693  22.719  33.974   1.036
41368W        W13694  15.117  38.740   1.366
41369W        W13695  23.081  30.450   3.364
41370W        W13696  18.256  35.181   4.202
41371W        W13697   3.478  24.763  13.377
41372W        W13698  24.958  17.294   2.407
41373W        W13699  17.537  34.732   0.804
41374W        W13700  20.980   6.900  12.954
41375W        W13701   6.293  23.295   2.218
41376W        W13702  37.256   9.688  11.784
41377W        W13703   1.100  16.150   2.332
41378W        W13704  29.731  29.366  12.018
41379W        W13705  20.752  13.357   1.465
41380W        W13706  13.706   7.657   1.240
41381W        W13707  28.326   3.772   4.653
41382W        W13708  28.920  37.934   3.133
41383W        W13709   6.165  18.207  12.068
41384W        W13710   1.951   0.878   2.865
41385W        W13711  34.788  20.512  14.046
41386W        W13712   6.884  22.574   3.792
41387W        W13713  26.235  18.656   0.982
41388W        W13714  12.644  27.076   4.033
41389W        W13715  39.340  17.074  11.798
41390W        W13716   6.865  28.584   2.958
41391W        W13717   6.181  12.818   1.701
41392W        W13718   2.377  13.394   1.470
41393W        W13719  38.484  41.453   0.733
41394W        W13720  41.455  21.467  14.886
41395W        W13721  39.396  18.833  14.716
41396W        W13722  34.281  20.690   2.829
41397W        W13723   7.143  30.582  12.423
41398W        W13724  44.313  37.026  12.330
41399W        W13725   6.993  21.211  12.414
41400W        W13726  12.693   5.458  11.617
41401W        W13727  19.806   6.301   3.857
41402W        W13728  16.899  24.752  13.490
41403W        W13729  30.590  19.082   4.815
41404W        W13730  44.658  41.912  13.846
41405W        W13731  27.687  22.970  14.270
41406W        W13732  37.768  42.688  10.034
41407W        W13733  33.636  38.461   2.586
41408W        W13734  22.200  31.002   4.647
41409W        W13735  22.903  10.186  10.171
41410W        W13736  38.811  38.611   0.743
41411W        W13737  14.147  28.372   2.417
41412W        W13738   8.778  16.046  13.038
41413W        W13739  11.685  20.757   4.218
41414W        W13740  31.667   1.199   3.426
41415W        W13741  35.000   1.464  13.437
41416W        W13742  44.528  21.242   1.127
41417W        W13743   1.074  38.272   4.162
41418W        W13744  10.866  23.578  13.615
41419W        W13745  12.791  10.895   3.069
41420W        W13746  15.331  22.764  10.505
41421W        W13747  19.631  40.752  14.018
41422W        W13748  27.652  17.322   1.850
41423W        W13749  31.018   4.797   4.335
41424W        W13750  30.995  38.850   0.298
41425W        W13751   1.425  28.190   2.900
41426W        W13752  35.975  24.086   3.170
41427W        W13753  36.644  38.904  12.511
41428W        W13754  23.674  31.119   0.795
41429W        W13755   7.449  43.723  14.465
41430W        W13756   2.270   5.790  13.859
41431W        W13757  13.361  43.224  12.548
41432W        W13758  38.952  29.388  11.569
41433W        W13759  12.687   8.898   2.668
41434W        W13760  21.288   6.661  11.637
41435W        W13761  23.633  24.674   1.742
41436W        W13762  29.081  19.589   2.170
41437W        W13763  19.210  21.944  14.363
41438W        W13764  38.990   7.128  12.634
41439W        W13765  27.703  44.358   0.826
41440W        W13766  16.134  31.936  14.055
41441W        W13767  33.060  33.032   0.512
41442W        W13768  18.009  32.543   3.757
41443W        W13769   9.228  30.629   2.761
41444W        W13770  11.771  37.073   1.456
41445W        W13771  23.706  39.430   4.994
41446W        W13772  21.114  36.104  12.592
41447W        W13773   2.284  38.328  12.569
41448W        W13774  17.538  12.636   2.291
41449W        W13775  26.831  18.760  10.624
41450W        W13776   3.781   0.794  11.926
41451W        W13777  32.395  34.839   4.699
41452W        W13778  40.874   2.210   0.455
41453W        W13779  44.908  12.339  14.989
41454W        W13780  15.125   7.709  10.617
41455W        W13781   4.767  30.929  13.118
41456W        W13782  32.141  33.496  13.557
41457W        W13783   6.047  25.002   1.941
41458W        W13784  21.096  16.667   3.242
41459W        W13785  43.366  11.603   4.059
41460W        W13786  15.145   9.551  10.496
41461W        W13787  30.446   9.111  14.782
41462W        W13788  35.495   3.265   2.794
41463W        W13789  10.698  25.581  14.073
41464W        W13790  28.060   2.880  10.729
41465W        W13791  10.118  24.063  14.943
41466W        W13792   7.609  32.984  10.367
41467W        W13793  28.971  40.487  13.393
41468W        W13794   4.600  16.107   0.806
41469W        W13795   5.776  30.556  11.865
41470W        W13796  27.889  17.569   2.718
41471W        W13797  33.923   4.766  12.329
41472W        W13798  27.271  24.019  11.520
41473W        W13799  30.802  31.799   1.207
41474W        W13800  25.964  17.126   3.238
41475W        W13801  14.229  15.592   5.087
41476W        W13802  10.453   3.984   4.241
41477W        W13803   9.553  16.629   4.382
41478W        W13804  29.134  12.181   1.013
41479W        W13805   1.059  38.304   0.846
41480W        W13806  25.080  41.871  14.058
41481W        W13807  38.830   4.656  11.200
41482W        W13808  34.590  35.390   3.691
41483W        W13809  36.597  14.788  10.629
41484W        W13810  21.317   3.747   2.163
41485W        W13811  28.477  23.239   1.626
41486W        W13812  36.875  37.131   3.866
41487W        W13813   5.831  28.991  11.836
41488W        W13814   2.964   4.173  10.238
41489W        W13815  16.178   9.733  11.652
41490W        W13816  23.024  39.722  13.640
41491W        W13817  42.809  14.074   1.737
41492W        W13818  31.574   0.910  13.396
41493W        W13819   8.339   1.020  13.431
41494W        W13820   9.348  13.614  14.870
41495W        W13821  17.752   5.198   3.718
41496W        W13822  37.242   5.919  13.930
41497W        W13823   1.547  25.975   2.354
41498W        W13824  15.341  17.798   4.589
41499W        W13825   2.407   2.767  11.397
41500W        W13826  16.309  10.868  14.790
41501W        W13827  22.546  15.660  11.458
41502W        W13828   5.114   1.843   2.302
41503W        W13829  33.457  11.655   0.325
41504W        W13830  37.869  20.679  13.476
41505W        W13831  15.336   6.953  13.575
41506W        W13832   6.776  10.624  13.000
41507W        W13833  25.497  14.178  13.357
41508W        W13834  42.739  23.099  13.078
41509W        W13835   2.442  17.379   1.296
41510W        W13836   7.854  44.007  13.788
41511W        W13837  32.550  12.780   2.138
41512W        W13838  13.351  12.516  13.505
41513W        W13839  32.977   5.473  12.889
41514W        W13840  43.207  11.311   2.396
41515W        W13841  23.667  28.769   1.457
41516W        W13842  24.052  29.993   1.748
41517W        W13843  22.730   9.231   1.358
41518W        W13844  21.162  25.139  11.116
41519W        W13845   7.006  44.836   1.883
41520W        W13846   9.165  32.648   3.361
41521W        W13847  23.936  17.800  11.225
41522W        W13848  33.827   4.922   3.726
41523W        W13849  29.670  20.803  13.147
41524W        W13850  38.285   4.459  12.930
41525W        W13851  29.419  15.486   3.509
41526W        W13852  30.767  40.989  13.589
41527W        W13853  42.784  13.236  12.363
41528W        W13854  23.035  33.929  10.593
41529W        W13855   0.150  35.646  13.156
41530W        W13856  20.730  22.619   0.523
41531W        W13857  39.351  34.515   4.068
41532W        W13858  11.111  40.785   4.107
41533W        W13859  44.379  16.035   4.283
41534W        W13860   7.185  29.079   2.648
41535W        W13861  33.280  32.548  12.588
41536W        W13862  15.158  39.058   4.542
41537W        W13863  12.181  31.005   2.322
41538W        W13864   5.375   1.972   1.377
41539W        W13865  23.884  31.044   2.605
41540W        W13866  36.297  11.418  10.647
41541W        W13867  27.688   5.499  13.560
41542W        W13868  11.261   2.889   4.159
41543W        W13869  13.739  19.130   3.389
41544W        W13870  32.391   0.425  12.775
41545W        W13871  18.180  20.561   1.255
41546W        W13872  35.443  35.500   1.785
41547W        W13873  19.999  44.742   5.209
41548W        W13874   0.411  30.487   0.326
41549W        W13875  21.792  24.100  11.150
41550W        W13876   3.429  37.207  13.904
41551W        W13877  20.837  25.703   0.384
41552W        W13878  31.623  20.271   2.354
41553W        W13879  16.732  38.970  11.170
41554W        W13880  14.621  26.314   1.982
41555W        W13881  31.171   4.406  10.775
41556W        W13882   4.002   3.178   1.092
41557W        W13883  10.920  43.877   1.849
41558W        W13884  10.388  12.209  13.503
41559W        W13885  18.620  22.271  12.019
41560W        W13886  20.572   5.374  12.551
41561W        W13887   5.965  44.606  13.126
41562W        W13888  18.036   1.675  14.536
41563W        W13889  28.122  30.180  12.866
41564W        W13890  41.371  44.029   0.291
41565W        W13891  23.271  34.025   2.361
41566W        W13892  29.474  14.813  11.596
41567W        W13893  19.120  34.821  14.392
41568W        W13894  33.821  10.550   2.154
41569W        W13895   1.995  28.985   4.629
41570W        W13896  13.265  20.639   3.966
41571W        W13897  44.957  44.289   2.305
41572W        W13898  24.676  41.929   0.352
41573W        W13899   4.878  14.836   1.765
41574W        W13900  32.550   9.851   0.298
41575W        W13901  40.026  37.856   2.742
41576W        W13902  26.932  32.554  13.514
41577W        W13903  13.697  34.356   2.258
41578W        W13904   5.446  38.651  12.995
41579W        W13905  43.769   9.839  13.570
41580W        W13906  19.642  26.749   5.174
41581W        W13907  10.643   9.133   0.059
41582W        W13908  28.117  36.032   3.585
41583W        W13909  38.407  17.915  12.841
41584W        W13910  29.127  14.805   4.365
41585W        W13911   9.712   3.296  13.313
41586W        W13912   2.291  21.733   3.323
41587W        W13913   7.909  27.025  12.865
41588W        W13914  23.079  23.447   2.201
41589W        W13915   2.863  43.955  12.594
41590W        W13916  24.888   2.283   4.210
41591W        W13917  32.514  23.470  13.202
41592W        W13918  31.909  27.670   4.312
41593W        W13919   4.201   8.665   4.108
41594W        W13920  11.933  37.354   2.305
41595W        W13921  26.281  41.742  13.015
41596W        W13922  24.255   2.401   1.031
41597W        W13923  11.843  16.275  13.548
41598W        W13924  40.566  40.255  11.638
41599W        W13925   6.827   2.334  12.068
41600W        W13926   0.897  30.690   0.318
41601W        W13927  32.469   1.205  12.215
41602W        W13928  34.624  10.245   5.104
41603W        W13929  12.555   3.892   3.265
41604W        W13930  37.982  42.464   4.675
41605W        W13931   7.802  15.604  10.272
41606W        W13932  10.730  43.551   4.539
41607W        W13933   2.316   4.730  10.586
41608W        W13934  36.591  26.657   2.894
41609W        W13935  10.882   4.968  10.275
41610W        W13936  18.708  18.156   0.920
41611W        W13937   3.803  37.545  12.136
41612W        W13938   0.146  28.405   0.027
41613W        W13939  15.583  31.536  12.030
41614W        W13940   3.463  14.297  14.482
41615W        W13941  33.243   9.435   2.879
41616W        W13942  10.752   7.282   3.178
41617W        W13943  16.115   8.585   4.852
41618W        W13944  15.077  39.204   0.202
41619W        W13945   0.937   3.366   0.931
41620W        W13946  21.190   7.330  12.439
41621W        W13947  23.621  11.730  14.491
41622W        W13948  21.601  18.285  10.916
41623W        W13949  27.202  18.680   1.193
41624W        W13950  26.652   3.653  11.907
41625W        W13951   2.272  35.271   1.861
41626W        W13952  26.015  41.341   4.872
41627W        W13953  40.806   6.399  10.478
41628W        W13954  15.695  28.486  10.765
41629W        W13955  12.856  36.527   0.297
41630W        W13956   9.172  13.111   3.516
41631W        W13957  43.727   4.816  14.983
41632W        W13958  23.599  19.674   2.648
41633W        W13959  21.097  14.848   2.842
41634W        W13960  22.532  22.988  13.416
41635W        W13961   8.545   5.243  14.328
41636W        W13962  37.495  31.601   3.826
41637W        W13963  26.503  15.618  12.456
41638W        W13964   3.331  29.184   2.328
41639W        W13965   9.348   7.804   4.048
41640W        W13966  28.965  11.790  12.218
41641W        W13967   8.835  40.825  13.540
41642W        W13968  29.202  24.136   1.548
41643W        W13969  24.410  30.001   1.376
41644W        W13970  16.091  32.585  12.488
41645W        W13971  39.801  38.795   2.531
41646W        W13972  11.186  39.871   1.836
41647W        W13973  41.849   0.093  14.875
41648W        W13974  12.787  39.959   4.596
41649W        W13975  10.984   6.775   2.896
41650W        W13976  33.086  28.602   2.853
41651W        W13977  29.065  36.880  11.976
41652W        W13978  38.486   1.556   4.583
41653W        W13979  20.172   7.590   2.655
41654W        W13980   7.927  13.103  14.051
41655W        W13981  19.575  26.705  11.553
41656W        W13982   0.056   3.563   1.429
41657W        W13983  14.557  39.031  11.031
41658W        W13984  33.340  43.423  12.431
41659W        W13985  15.121  10.559  11.787
41660W        W13986   5.433  38.504   4.197
41661W        W13987   3.699   2.331   4.510
41662W        W13988   3.525  40.780   1.813
41663W        W13989   7.156  11.151   4.594
41664W        W13990  44.237   8.166  13.022
41665W        W13991  38.327  10.092  12.432
41666W        W13992  43.329  32.829  12.210
41667W        W13993  15.848   1.369  10.395
41668W        W13994   4.578   0.347   4.642
41669W        W13995  41.544  32.400  10.621
41670W        W13996   7.526  41.388   3.261
41671W        W13997  38.877   2.122  11.108
41672W        W13998  28.211  43.815   3.625
41673W        W13999   8.209  29.346   3.497
41674W        W14000  20.735  18.328  13.888
41675W        W14001   5.127  42.862   2.182
41676W        W14002  40.895  16.146   1.760
41677W        W14003  22.125  17.180  10.174
41678W        W14004   2.006   2.954   4.718
41679W        W14005  25.004  41.490   3.399
41680W        W14006  13.229  10.999  11.876
41681W        W14007  25.153  18.728  14.297
41682W        W14008  14.574  27.532   2.461
41683W        W14009   6.488  42.887  10.297
41684W        W14010  19.614   1.746   1.404
41685W        W14011  19.955  26.677   2.410
41686W        W14012  15.138  20.754  14.412
41687W        W14013  20.492  36.474   4.882
41688W        W14014  16.522  12.613   0.553
41689W        W14015  36.870  37.320   0.347
41690W        W14016   1.018  30.128  13.083
41691W        W14017  15.546  18.294   3.856
41692W        W14018   1.879  40.835   2.346
41693W        W14019  31.165  32.602   4.219
41694W        W14020  17.122  32.123  12.607
41695W        W14021   4.415  43.914   4.591
41696W        W14022   1.487  35.975  10.729
41697W        W14023  37.025  43.438   3.758
41698W        W14024   9.360  27.408  13.448
41699W        W14025  31.650  25.157   2.172
41700W        W14026  29.020  27.892   2.270
41701W        W14027  20.538  42.871  11.272
41702W        W14028  32.413   0.385  13.306
41703W        W14029  38.646   9.910  11.170
41704W        W14030  13.031   9.715  11.127
41705W        W14031   2.947  21.618   0.013
41706W        W14032  35.015  40.953  11.151
41707W        W14033  38.084  41.794   1.264
41708W        W14034  40.952  18.040   2.373
41709W        W14035  33.887  22.800   0.896
41710W        W14036   6.403  30.129  13.723
41711W        W14037   1.492  11.120  12.158
41712W        W14038  22.482  39.346   4.290
41713W        W14039  33.562  36.068   1.350
41714W        W14040   2.747  12.770  10.715
41715W        W14041  13.671  30.932  11.304
41716W        W14042  10.962  19.808  12.593
41717W        W14043  44.739  13.691   1.256
41718W        W14044  13.700  40.565  11.020
41719W        W14045  36.910  40.034  11.093
41720W        W14046  29.055   1.511  14.911
41721W        W14047  33.845  10.868  13.361
41722W        W14048  32.196   7.719   0.044
41723W        W14049  15.861   9.326  12.351
41724W        W14050  42.325  15.299   3.415
41725W        W14051  11.795   3.503  13.282
41726W        W14052  44.358  17.711   2.786
41727W        W14053   6.163  13.869   4.031
41728W        W14054   9.162  41.858  14.413
41729W        W14055  18.793   9.022  14.888
41730W        W14056   2.190  31.068   2.828
41731W        W14057  21.766  24.123   0.488
41732W        W14058  26.640   1.827   0.963
41733W        W14059  43.494  29.915   2.573
41734W        W14060   1.815   5.252  11.840
41735W        W14061  21.574  14.336   1.474
41736W        W14062  36.478  31.867  12.041
41737W        W14063   0.765  23.315  11.604
41738W        W14064   7.187  41.714   1.455
41739W        W14065  41.324  15.966   2.694
41740W        W14066  13.035  16.160   0.858
41741W        W14067  29.014  23.605   3.271
41742W        W14068  10.923   5.731  10.832
41743W        W14069   4.797  40.566   4.150
41744W        W14070   1.403  44.676  12.818
41745W        W14071   0.327  15.517   5.098
41746W        W14072  31.272  11.403  11.058
41747W        W14073  13.768  27.998  14.393
41748W        W14074  31.687   6.683  14.708
41749W        W14075  34.510  15.075  13.397
41750W        W14076   8.908   6.815  12.423
41751W        W14077  40.921  31.000  11.118
41752W        W14078  40.405  44.926  13.417
41753W        W14079   3.234  42.458   4.777
41754W        W14080  15.071  11.304   0.214
41755W        W14081  41.997  10.260  14.605
41756W        W14082  28.548  28.167  14.439
41757W        W14083   6.682   6.385  13.985
41758W        W14084  39.487  10.121  10.806
41759W        W14085   8.695   5.807  14.983
41760W        W14086  17.069  29.047  13.057
41761W        W14087   9.490  39.207   0.334
41762W        W14088  16.065  16.214  11.140
41763W        W14089  19.778  18.231   4.709
41764W        W14090  10.815  40.299  13.367
41765W        W14091  24.730  10.175  12.921
41766W        W14092  32.042  36.094  11.655
41767W        W14093   8.952  28.152  12.091
41768W        W14094  18.671  18.016   4.308
41769W        W14095  25.282  12.390  14.072
41770W        W14096   6.768  18.549   2.685
41771W        W14097  32.403   8.147  13.317
41772W        W14098  36.814  26.045  13.747
41773W        W14099  16.879   0.842  12.069
41774W        W14100  36.439   2.936  12.921
41775W        W14101  42.443  41.805  14.906
41776W        W14102   6.653  26.475  13.125
41777W        W14103  37.158   6.003   0.284
41778W        W14104  10.960  32.438  13.423
41779W        W14105  17.817  18.577   4.085
41780W        W14106   4.925  21.812  12.016
41781W        W14107  11.112  27.235   1.844
41782W        W14108  33.445  39.753  13.595
41783W        W14109  33.949  44.255   1.822
41784W        W14110  21.438  24.563   4.614
41785W        W14111  10.656  38.351  11.192
41786W        W14112  31.891  28.716   0.993
41787W        W14113  44.367  19.520  12.396
41788W        W14114  43.397   7.104  11.580
41789W        W14115  32.248  15.967  11.588
41790W        W14116  37.823  15.968   0.679
41791W        W14117  21.591   1.165  10.902
41792W        W14118  27.760  32.372  11.435
41793W        W14119  27.599  24.281  13.991
41794W        W14120  39.353  29.771   1.964
41795W        W14121   0.650  15.277  11.181
41796W        W14122   2.770  40.158  11.599
41797W        W14123  20.788  32.142   0.670
41798W        W14124  32.864  17.473   0.595
41799W        W14125  14.720  13.529  14.521
41800W        W14126  16.345  42.437   1.908
41801W        W14127  37.360  24.767  11.398
41802W        W14128  22.026  33.040   2.353
41803W        W14129  10.817  29.049   0.412
41804W        W14130   2.256  24.157  10.697
41805W        W14131   9.027  17.713  11.380
41806W        W14132  10.814  13.570   1.031
41807W        W14133  16.238   1.367   1.295
41808W        W14134  13.552   5.823   2.725
41809W        W14135   4.834   6.865   4.186
41810W        W14136  36.414  28.629   4.568
41811W        W14137  31.160  25.988   4.787
41812W        W14138  14.297  13.787   2.290
41813W        W14139  41.986  41.338   2.820
41814W        W14140  33.660  11.713   2.623
41815W        W14141  37.118   0.467   2.202
41816W        W14142  44.789  30.064   3.842
41817W        W14143  39.468  27.224  13.187
41818W        W14144  20.240  37.941   2.407
41819W        W14145  27.009   7.460  13.474
41820W        W14146  25.772   0.341   1.374
41821W        W14147  21.008  19.683  12.471
41822W        W14148   4.395  34.733  12.799
41823W        W14149  39.956   5.716   3.222
41824W        W14150  19.466   8.327   4.629
41825W        W14151   1.373   8.700   2.466
41826W        W14152  19.008  27.698   0.755
41827W        W14153  26.240  16.173   3.258
41828W        W14154  38.536  34.789  12.828
41829W        W14155  15.402  42.981  11.067
41830W        W14156  20.101  35.022   2.860
41831W        W14157  23.281  22.627  12.338
41832W        W14158  21.519  38.790  10.658
41833W        W14159  35.102  18.136  14.887
41834W        W14160  42.968  14.673  14.882
41835W        W14161  23.945  44.973  14.414
41836W        W14162   5.247  11.452   5.471
41837W        W14163   6.963  12.365  14.422
41838W        W14164   1.350  20.889   1.709
41839W        W14165   9.193  18.615  13.894
41840W        W14166   5.794   3.703  13.968
41841W        W14167  28.220  18.518  11.954
41842W        W14168   9.153   7.526   1.442
41843W        W14169  35.960  17.052   3.119
41844W        W14170  10.260  38.593   1.064
41845W        W14171  35.456  16.611  14.541
41846W        W14172  11.916  43.896   0.778
41847W        W14173  17.654  23.244   4.160
41848W        W14174  35.911  33.442  10.186
41849W        W14175  43.902  12.843   2.884
41850W        W14176   5.702  14.356   1.351
41851W        W14177  14.405  15.071  12.404
41852W        W14178  40.514  34.163   0.597
41853W        W14179  14.300  43.167   4.126
41854W        W14180  34.006  13.158  13.342
41855W        W14181  25.640  11.741   4.417
41856W        W14182  34.881  43.858   0.950
41857W        W14183  32.561  27.919   0.808
41858W        W14184  26.834  19.328  12.447
41859W        W14185  27.202  11.741   0.023
41860W        W14186  34.135  26.937  11.335
41861W        W14187  42.167  41.203   4.680
41862W        W14188  33.345  32.537   2.366
41863W        W14189   7.508  43.562   3.535
41864W        W14190  36.476  21.496  12.059
41865W        W14191  27.422   8.452  10.682
41866W        W14192  19.458  30.112   1.385
41867W        W14193  22.191   8.321   1.669
41868W        W14194  12.230  14.018   0.779
41869W        W14195  34.624  27.145  14.809
41870W        W14196  26.681  24.059   3.289
41871W        W14197   8.809  22.786  11.588
41872W        W14198  39.668  20.806   0.339
41873W        W14199  23.381  17.684   4.606
41874W        W14200  43.222  23.042  10.887
41875W        W14201   7.411  10.175  11.420
41876W        W14202   0.808  12.802   1.289
41877W        W14203   1.339  15.869  14.845
41878W        W14204  16.197  22.288   1.335
41879W        W14205  24.457  10.099  13.367
41880W        W14206  23.148  40.106   4.727
41881W        W14207  18.079  27.983   0.901
41882W        W14208  40.405  44.335   0.744
41883W        W14209  27.826  15.073   2.100
41884W        W14210  21.305  27.500  10.484
41885W        W14211  19.207  30.404  11.162
41886W        W14212   9.109  37.050   2.450
41887W        W14213  32.558  37.884  11.390
41888W        W14214  44.058  37.442  12.102
41889W        W14215  43.555  32.892   3.297
41890W        W14216  19.586  12.252   3.301
41891W        W14217   5.299   6.405  11.607
41892W        W14218   3.741  40.882   3.728
41893W        W14219   9.398   2.221   0.804
41894W        W14220  15.056  13.204  13.594
41895W        W14221   2.314  24.905   1.409
41896W        W14222  31.588  39.519   4.616
41897W        W14223  33.649  28.084   1.445
41898W        W14224  30.476  20.124   3.288
41899W        W14225  42.380  28.036  14.450
41900W        W14226   5.884  18.892  10.788
41901W        W14227  40.426  34.541   0.942
41902W        W14228   3.297  35.975  12.733
41903W        W14229  40.980   5.346  13.908
41904W        W14230  23.310  37.541  10.207
41905W        W14231  23.983  44.610   4.185
41906W        W14232   9.175  15.587  14.460
41907W        W14233   0.091  36.889   2.684
41908W        W14234  32.019  15.231  12.454
41909W        W14235  19.490  38.483   0.251
41910W        W14236  22.742  14.708   4.092
41911W        W14237  17.337   9.339   3.152
41912W        W14238  40.481  17.674   0.022
41913W        W14239   2.309  35.568  11.160
41914W        W14240  22.391  33.014  10.687
41915W        W14241  22.885  15.944  12.935
41916W        W14242   1.954  31.127  11.852
41917W        W14243  44.367  32.197   0.777
41918W        W14244  41.889  44.759   9.884
41919W        W14245  28.963  30.969   0.409
41920W        W14246   1.688  20.900   2.119
41921W        W14247  35.882  15.620  11.561
41922W        W14248   0.928  38.170   1.694
41923W        W14249  33.917   9.721   1.132
41924W        W14250   2.942  44.446  10.603
41925W        W14251  44.014  34.138   3.785
41926W        W14252  28.372  27.102   4.506
41927W        W14253  21.319  19.607  13.892
41928W        W14254  35.136   2.742   4.141
41929W        W14255   4.483   0.528  13.543
41930W        W14256  14.894  31.657  12.498
41931W        W14257   3.004  23.191   2.933
41932W        W14258   3.223   4.685   2.844
41933W        W14259   2.336   1.512   3.876
41934W        W14260  36.811  17.644  13.915
41935W        W14261   2.968   4.805   2.197
41936W        W14262   9.957  22.548  14.003
41937W        W14263  43.036  10.863  14.997
41938W        W14264  27.126  32.061  12.851
41939W        W14265  38.010  39.813  13.008
41940W        W14266  40.950  16.537   3.777
41941W        W14267  32.483  28.010   2.322
41942W        W14268  27.542  25.268  13.314
41943W        W14269  26.749  33.356  14.404
41944W        W14270  38.380  32.324   4.593
41945W        W14271  36.633  30.799   3.217
41946W        W14272  23.400  17.772   1.834
41947W        W14273  27.377   9.301  14.997
41948W        W14274   5.367  34.144  11.904
41949W        W14275  12.287  26.115   4.531
41950W        W14276  20.291  16.846  11.553
41951W        W14277  26.078  32.517  14.214
41952W        W14278   1.550  16.703   2.454
41953W        W14279  21.209  36.998  10.943
41954W        W14280  43.441  21.196  13.533
41955W        W14281  14.606  27.996   3.121
41956W        W14282  41.918  31.650   0.819
41957W        W14283   0.104   7.756   2.298
41958W        W14284   3.730  26.657   1.530
41959W        W14285  18.696  37.998  10.746
41960W        W14286  34.458  15.687   0.977
41961W        W14287  10.249  30.543  14.093
41962W        W14288  29.499  41.100  13.809
41963W        W14289  23.498  22.926  13.452
41964W        W14290  36.348  16.845  14.827
41965W        W14291  44.264  39.333   4.869
41966W        W14292  34.643  29.229   3.042
41967W        W14293  43.806  19.859  12.949
41968W        W14294  33.605  16.097  13.352
41969W        W14295  32.860  22.107  14.253
41970W        W14296   0.021  37.402   3.385
41971W        W14297  15.945   8.845   3.843
41972W        W14298  12.360  37.366  11.899
41973W        W14299  16.672  41.896   4.516
41974W        W14300   4.962  12.640  13.425
41975W        W14301  41.033  20.322  14.023
41976W        W14302  17.392   6.880  14.519
41977W        W14303   9.339  14.976  12.523
41978W        W14304   8.568   4.410  11.036
41979W        W14305  43.570  12.214  10.631
41980W        W14306  38.356  13.832   1.185
41981W        W14307  39.171  38.279   0.966
41982W        W14308  32.908   9.224   4.061
41983W        W14309  43.386  23.256   4.240
41984W        W14310  10.397  22.599  14.294
41985W        W14311   6.293  41.882   2.216
41986W        W14312  43.450  37.413  11.188
41987W        W14313  24.730   6.484  11.544
41988W        W14314   5.858  20.710   3.358
41989W        W14315  38.569  28.949  12.942
41990W        W14316  40.902  43.432  11.244
41991W        W14317  36.466  15.978   1.743
41992W        W14318  38.562  20.190  12.740
41993W        W14319  33.926  21.693   2.744
41994W        W14320  10.090  28.686   2.871
41995W        W14321  37.520   6.887  12.928
41996W        W14322  17.093  27.974  13.012
41997W        W14323  40.871  22.680   1.731
41998W        W14324   3.106  41.708  11.085
41999W        W14325  29.450  43.109  13.379
42000W        W14326  17.639  15.070  14.410
42001W        W14327  12.775  27.080   5.491
42002W        W14328  14.497  16.537  12.546
42003W        W14329  16.037   2.200  11.530
42004W        W14330   9.676  28.497  12.191
42005W        W14331  33.695  11.327  12.108
42006W        W14332  13.138   4.370  14.334
42007W        W14333  26.097  33.713  11.998
42008W        W14334  40.478   6.169   5.004
42009W        W14335  23.186  38.544  11.287
42010W        W14336   5.428  31.167  14.826
42011W        W14337  38.061  11.612  11.989
42012W        W14338  40.045  28.377   0.764
42013W        W14339  31.931  25.848  12.075
42014W        W14340  14.141  17.223   0.362
42015W        W14341  40.283  21.762   2.379
42016W        W14342   5.960  39.393  11.858
42017W        W14343  44.574  16.647   3.627
42018W        W14344   2.383  31.925   4.422
42019W        W14345  20.604  11.780  11.269
42020W        W14346  11.346   9.181  12.379
42021W        W14347  17.546  24.156  11.925
42022W        W14348   0.436  42.293  14.852
42023W        W14349  31.422  27.555   4.572
42024W        W14350  15.200  25.129   1.137
42025W        W14351   9.155  42.545   2.762
42026W        W14352  31.947  27.438  14.461
42027W        W14353  23.405  35.344   0.215
42028W        W14354  44.360  22.448  13.248
42029W        W14355  41.341  40.296  11.978
42030W        W14356  41.010  16.380   1.304
42031W        W14357  25.934  39.521   4.114
42032W        W14358  38.622  18.428   2.834
42033W        W14359   3.937  21.408  11.929
42034W        W14360  39.295  28.698  10.918
42035W        W14361  30.990  16.981  11.689
42036W        W14362   4.875   9.241   2.320
42037W        W14363  20.896  21.235   9.887
42038W        W14364  43.325   1.095  14.794
42039W        W14365  13.102  41.437   4.159
42040W        W14366  17.385   3.992  11.527
42041W        W14367  26.219  11.773  13.421
42042W        W14368   4.714   4.941  11.517
42043W        W14369  23.017  10.228  12.155
42044W        W14370   0.497  17.581   4.233
42045W        W14371   9.693  36.208   3.637
42046W        W14372  41.504  15.377   3.788
42047W        W14373  31.656  13.250   2.870
42048W        W14374  11.621   3.416   0.425
42049W        W14375  18.176  25.203   2.876
42050W        W14376  34.382   5.671   4.245
42051W        W14377  24.180  17.647   0.976
42052W        W14378   4.611   4.244  10.858
42053W        W14379  25.674  11.212  11.133
42054W        W14380  29.008   7.936  12.078
42055W        W14381  25.120  26.368  12.995
42056W        W14382  24.588  10.208   4.709
42057W        W14383   4.730   2.514  10.593
42058W        W14384   6.715   1.388  13.477
42059W        W14385  41.535   9.692   1.947
42060W        W14386  37.904  26.730  13.495
42061W        W14387  20.673   1.199  13.972
42062W        W14388  18.824  23.417   0.066
42063W        W14389  39.799   0.949   0.120
42064W        W14390  44.601   4.549   3.151
42065W        W14391  42.265   4.444   2.296
42066W        W14392   9.571  35.402   2.915
42067W        W14393   0.480  23.507  13.324
42068W        W14394  38.385  43.791   0.771
42069W        W14395   6.911  30.871  13.456
42070W        W14396  24.502  14.785  14.308
42071W        W14397  16.262  21.220  10.469
42072W        W14398  31.334  18.614  10.815
42073W        W14399  11.831  12.772  12.495
42074W        W14400  16.305  23.659  12.535
42075W        W14401  16.321   5.161   2.318
42076W        W14402  19.314  41.956   0.008
42077W        W14403  21.625  25.665  10.669
42078W        W14404  44.329  44.772   1.371
42079W        W14405  31.465   2.357  12.372
42080W        W14406  41.409   7.670  10.519
42081W        W14407  21.344  10.368   5.025
42082W        W14408  36.645  30.559  14.979
42083W        W14409  36.539  22.781   3.611
42084W        W14410  19.258  15.708  14.364
42085W        W14411  40.447   9.731  13.399
42086W        W14412  12.812  33.911   0.841
42087W        W14413  39.864  24.789  12.683
42088W        W14414  30.244  39.008  14.821
42089W        W14415  41.842  19.772  10.190
42090W        W14416  35.379   1.857  12.417
42091W        W14417  44.309  26.454   3.507
42092W        W14418  19.039  41.193  12.933
42093W        W14419  25.515  14.730   2.408
42094W        W14420  20.248   3.950  11.031
42095W        W14421  26.891  29.454  14.955
42096W        W14422  30.925  39.300  11.202
42097W        W14423  22.093   9.279   2.544
42098W        W14424  24.368   2.545  10.401
42099W        W14425  15.781  27.769  12.972
42100W        W14426  23.700  23.018   4.784
42101W        W14427  22.259  17.749   3.628
42102W        W14428  43.926  17.715  13.069
42103W        W14429  42.538   5.358   1.309
42104W        W14430   5.754  44.933  12.790
42105W        W14431  40.372   1.636  12.674
42106W        W14432  27.460  25.196   4.733
42107W        W14433  41.947  21.569   1.670
42108W        W14434  31.544  26.989  10.604
42109W        W14435   8.832  20.821  12.611
42110W        W14436  29.997   7.357   2.616
42111W        W14437   7.924   8.403  13.360
42112W        W14438  15.155  40.271  12.940
42113W        W14439   7.925  31.462  14.251
42114W        W14440  40.817   4.949   1.456
42115W        W14441  42.392  18.513  12.528
42116W        W14442  22.263  37.581   2.793
42117W        W14443   0.187  16.098  14.336
42118W        W14444  26.002  43.318  11.426
42119W        W14445  43.272  40.868   3.695
42120W        W14446  24.042  12.114   0.982
42121W        W14447  42.961  35.151   3.339
42122W        W14448  21.076  12.468  12.035
42123W        W14449  18.757  37.302  12.870
42124W        W14450  32.148  32.043   1.957
42125W        W14451   3.894  10.862  10.695
42126W        W14452   2.355  16.281  12.959
42127W        W14453  24.101  40.061  10.457
42128W        W14454   2.203  29.458  11.810
42129W        W14455  37.850  10.200   2.335
42130W        W14456   7.097  29.416  11.633
42131W        W14457  32.453  17.539   0.289
42132W        W14458   6.870  22.486   2.355
42133W        W14459  35.493   6.797   3.172
42134W        W14460  22.140  43.831   3.630
42135W        W14461   4.316  25.770  14.422
42136W        W14462  32.552   5.841   2.753
42137W        W14463  28.979   0.474   1.166
42138W        W14464  29.958  34.198  13.030
42139W        W14465  19.468  41.998  14.244
42140W        W14466  37.429  13.067  11.679
42141W        W14467   8.705  10.149   0.968
42142W        W14468  29.617  39.648   1.186
42143W        W14469  37.930  26.466   2.018
42144W        W14470   5.316  10.811  10.848
42145W        W14471  27.450  23.560  10.694
42146W        W14472  16.793  37.351   1.963
42147W        W14473   9.494  37.865  12.514
42148W        W14474   1.140  25.600  13.467
42149W        W14475  25.006   9.669   3.614
42150W        W14476  32.550   2.026   0.845
42151W        W14477   2.964   2.268  14.867
42152W        W14478  37.550   2.318   2.332
42153W        W14479  37.339  22.703   2.638
42154W        W14480   5.379   7.625   0.913
42155W        W14481  15.234   6.359  13.806
42156W        W14482   5.937   3.528   4.321
42157W        W14483  36.967   7.148  14.914
42158W        W14484  15.253  37.295   3.394
42159W        W14485  20.019  40.593  12.396
42160W        W14486   8.353  10.997   2.356
42161W        W14487   7.437  29.934   4.620
42162W        W14488  20.966  31.481  12.528
42163W        W14489  17.350  24.517  11.028
42164W        W14490  11.568  18.235  12.018
42165W        W14491   6.155  11.740   0.752
42166W        W14492  26.939  44.378  11.022
42167W        W14493  24.641  31.695   0.756
42168W        W14494  29.605  13.586  12.059
42169W        W14495  32.953   1.927  13.982
42170W        W14496  11.094  15.388   0.381
42171W        W14497  30.183  19.753   2.668
42172W        W14498   6.132  19.147   0.662
42173W        W14499  26.789  33.123   4.219
42174W        W14500  24.676  14.837  11.455
42175W        W14501  13.068   7.490   0.009
42176W        W14502  44.032  18.008   1.652
42177W        W14503  18.631  35.859   1.677
42178W        W14504  20.770  17.714  11.103
42179W        W14505   0.148   7.429  14.223
42180W        W14506  40.033  15.420   0.219
42181W        W14507   4.042  38.943   3.839
42182W        W14508  31.400  25.526   4.676
42183W        W14509  28.142  25.276   1.780
42184W        W14510  26.655   1.859  10.706
42185W        W14511  28.769  44.333  10.598
42186W        W14512  32.894  33.663   4.247
42187W        W14513   0.997  41.284   4.161
42188W        W14514  17.579  37.418  11.876
42189W        W14515  33.091  41.503  13.508
42190W        W14516  12.463  26.130  11.106
42191W        W14517   2.275  24.634   0.687
42192W        W14518   9.301  13.148  14.031
42193W        W14519  14.182  26.636  10.885
42194W        W14520  35.443   3.766  12.455
42195W        W14521  22.593  18.025  14.358
42196W        W14522  20.984  10.553   2.379
42197W        W14523  23.187  19.980  12.787
42198W        W14524   5.658  10.341   2.334
42199W        W14525  14.829  14.073  14.565
42200W        W14526   0.279  14.177  10.630
42201W        W14527   4.275  28.165  10.583
42202W        W14528   2.884  17.229  10.333
42203W        W14529  44.938  44.528   4.498
42204W        W14530  40.450  42.976   1.376
42205W        W14531  28.536  17.652  14.596
42206W        W14532  37.266  35.119   1.759
42207W        W14533  36.568  26.104   3.944
42208W        W14534  29.604  30.900  10.938
42209W        W14535  30.175  18.113   0.191
42210W        W14536  34.655   0.469  12.992
42211W        W14537  35.619   6.322   3.394
42212W        W14538   1.428  15.705   3.123
42213W        W14539  43.850   1.976   2.841
42214W        W14540   6.723  33.871  10.708
42215W        W14541   2.050   2.338  12.292
42216W        W14542   7.622  17.522  14.877
42217W        W14543  39.409   7.066  11.435
42218W        W14544  12.219  22.209   1.343
42219W        W14545  32.389  24.231   0.312
42220W        W14546  13.559   8.760   0.646
42221W        W14547  12.167   3.147  13.254
42222W        W14548  40.457   3.196  14.828
42223W        W14549  40.529  19.256   2.853
42224W        W14550  16.278  44.859  11.235
42225W        W14551  22.029  18.194   3.585
42226W        W14552  37.633  44.024  14.517
42227W        W14553  24.371  32.413   2.303
42228W        W14554  42.107  29.071  11.949
42229W        W14555  37.334   6.746   2.185
42230W        W14556  33.070  31.957   4.640
42231W        W14557  22.221  36.373   4.030
42232W        W14558  41.902   0.338  14.358
42233W        W14559  38.134  21.747  11.551
42234W        W14560  44.742  31.716   4.738
42235W        W14561  43.233  18.623  14.354
42236W        W14562   5.642  27.027   2.255
42237W        W14563  38.176  24.900  12.088
42238W        W14564  12.144   3.071   2.315
42239W        W14565   6.333   5.721   3.819
42240W        W14566   7.878  29.175  14.434
42241W        W14567  25.041  31.409  10.679
42242W        W14568   2.877  25.677   4.502
42243W        W14569  10.800  27.109  10.389
42244W        W14570  35.486   5.451   4.078
42245W        W14571  43.497  37.085  10.791
42246W        W14572  17.518  31.044   0.384
42247W        W14573  42.155  42.154  11.110
42248W        W14574  27.660   2.458   3.626
42249W        W14575  28.092  42.477  11.051
42250W        W14576  20.055  12.894   1.867
42251W        W14577  38.469  35.144  10.646
42252W        W14578  10.702  24.978  12.054
42253W        W14579  14.148   3.885  10.748
42254W        W14580  16.406  29.612   3.264
42255W        W14581  30.590  22.710   1.258
42256W        W14582  24.902  32.527   1.424
42257W        W14583  14.863   0.156  14.982
42258W        W14584  12.595  40.880   0.152
42259W        W14585   1.981  26.683   2.847
42260W        W14586  42.991  20.507  12.047
42261W        W14587  32.113  40.161   0.625
42262W        W14588  43.223   0.821  13.047
42263W        W14589  11.123  24.657   3.162
42264W        W14590  44.839   3.266  14.489
42265W        W14591  19.767  19.957   2.549
42266W        W14592  19.022  15.328  12.379
42267W        W14593  26.469  26.030  10.695
42268W        W14594  26.298   0.813   3.638
42269W        W14595  42.486  39.338   0.139
42270W        W14596  35.815  12.597   0.304
42271W        W14597  37.869  37.657   2.016
42272W        W14598  39.802  38.457   3.335
42273W        W14599  14.205  11.711  12.979
42274W        W14600  15.613   2.331  13.815
42275W        W14601  22.770  34.004  13.074
42276W        W14602  36.390  18.467   0.273
42277W        W14603  10.014  25.216  10.671
42278W        W14604  30.449  32.587   0.938
42279W        W14605  40.382  42.906  11.191
42280W        W14606  25.934  16.329   2.832
42281W        W14607  12.039  41.883  11.673
42282W        W14608  23.548  28.195   3.324
42283W        W14609  29.605   1.981   1.881
42284W        W14610  11.363  30.808   2.227
42285W        W14611  13.690  43.709   1.028
42286W        W14612  23.683  12.665   3.556
42287W        W14613  24.301  40.319   5.145
42288W        W14614  23.208  10.664  13.592
42289W        W14615  29.558  26.740  14.054
42290W        W14616   3.006  11.919   9.837
42291W        W14617  12.195   9.693  14.531
42292W        W14618  31.319  21.282   0.026
42293W        W14619   7.723  10.703   3.246
42294W        W14620  37.967   2.579  11.064
42295W        W14621  32.507  33.706  10.452
42296W        W14622   2.700  33.063  14.255
42297W        W14623   6.843  27.585   3.301
42298W        W14624  19.530  10.159  13.075
42299W        W14625   4.809  29.868  13.912
42300W        W14626  17.746  42.859  11.389
42301W        W14627  43.392  28.162  13.115
42302W        W14628  41.928   2.340   2.113
42303W        W14629  37.942  37.254   3.967
42304W        W14630   1.226  17.366   0.807
42305W        W14631  31.612  13.258  12.546
42306W        W14632   3.950  19.751  13.445
42307W        W14633  10.038  29.859   2.956
42308W        W14634  21.642   6.691  11.213
42309W        W14635  18.279  18.748   3.910
42310W        W14636  28.764  27.712   1.246
42311W        W14637   6.926  17.076  11.201
42312W        W14638  13.753   1.052   0.679
42313W        W14639   0.608  42.703  14.572
42314W        W14640  42.050  20.268  12.356
42315W        W14641  18.505  10.186  13.251
42316W        W14642   6.433  32.092  11.206
42317W        W14643  34.443  30.104   3.589
42318W        W14644  30.020  10.847  11.442
42319W        W14645   6.715  41.361   0.625
42320W        W14646  29.957   3.705   9.923
42321W        W14647  28.558  27.225  13.284
42322W        W14648  17.063  44.795   1.413
42323W        W14649   5.866   1.405  13.839
42324W        W14650  38.612   5.277   2.342
42325W        W14651  36.143   7.700  12.513
42326W        W14652   4.362  35.176   2.691
42327W        W14653  10.331  24.487   2.716
42328W        W14654   4.364  37.038  13.868
42329W        W14655  26.647  22.200   2.861
42330W        W14656   1.890  27.322   4.573
42331W        W14657  26.519   2.850  12.983
42332W        W14658  39.508   4.341  11.717
42333W        W14659  31.834  33.672  14.594
42334W        W14660  18.127   9.925   4.677
42335W        W14661  20.328  32.409   0.488
42336W        W14662  42.679  22.593  12.933
42337W        W14663  20.877  21.348  11.911
42338W        W14664  42.688  28.456  11.997
42339W        W14665  19.701  43.615  12.143
42340W        W14666  39.226  35.322  13.428
42341W        W14667  19.282  16.203  11.217
42342W        W14668  18.029  14.243  10.749
42343W        W14669  28.431  38.519   4.871
42344W        W14670  19.737   7.642   2.382
42345W        W14671  44.489  20.613   0.460
42346W        W14672  11.316  26.979  14.981
42347W        W14673  24.825  40.156   5.638
42348W        W14674   9.902  13.885   1.172
42349W        W14675  33.318   6.786  12.741
42350W        W14676  41.285  17.707   0.448
42351W        W14677  30.474  41.385  12.008
42352W        W14678   0.160  11.440  10.342
42353W        W14679  14.987  37.129   2.529
42354W        W14680  19.488  37.193   2.620
42355W        W14681  24.615   3.042  13.830
42356W        W14682  31.943  22.606  14.856
42357W        W14683   9.788  25.610   3.726
42358W        W14684  25.179  19.086   0.528
42359W        W14685  33.041   1.201  11.571
42360W        W14686   8.775  17.537  12.411
42361W        W14687  19.614   1.012   3.158
42362W        W14688  37.001  31.220   0.032
42363W        W14689   4.853  15.404  10.540
42364W        W14690  38.013  31.185   1.185
42365W        W14691  26.030  44.979  12.963
42366W        W14692   6.671  40.624  10.467
42367W        W14693   4.461   4.451   5.466
42368W        W14694  37.247   4.137   3.277
42369W        W14695  36.872  27.789   4.247
42370W        W14696  20.418   0.269   1.764
42371W        W14697  43.226   3.126   9.908
42372W        W14698  16.501  21.070   0.384
42373W        W14699   3.928  34.449   4.568
42374W        W14700  32.356   4.751   4.138
42375W        W14701  25.212  43.813   4.860
42376W        W14702  15.593  30.488   1.693
42377W        W14703  22.455  21.737  10.134
42378W        W14704  24.724  20.512  13.332
42379W        W14705  25.265   6.356  11.576
42380W        W14706  16.273   2.198   0.638
42381W        W14707  10.763   6.858   1.906
42382W        W14708  11.141  35.539   4.099
42383W        W14709  35.879  26.450   1.709
42384W        W14710  31.959  15.057  11.243
42385W        W14711  16.728  31.103  13.062
42386W        W14712  17.674  36.667  11.156
42387W        W14713  35.545  23.864   0.908
42388W        W14714   2.543   3.503  13.286
42389W        W14715   1.929   1.854  13.361
42390W        W14716   1.078  23.124   1.266
42391W        W14717  40.378  13.257  13.245
42392W        W14718   1.287   0.744  14.418
42393W        W14719  33.409   2.333   0.894
42394W        W14720  40.356  42.405   4.873
42395W        W14721  34.904  20.459  11.090
42396W        W14722  37.579  44.768  13.822
42397W        W14723  13.077  12.242   4.348
42398W        W14724  22.151  44.578   1.918
42399W        W14725  40.573  16.303   4.058
42400W        W14726   1.261   0.155  11.495
42401W        W14727  29.530  34.572   0.844
42402W        W14728  24.527  39.402   4.003
42403W        W14729  39.760  23.714  14.753
42404W        W14730  16.451   8.826   3.692
42405W        W14731  36.428   6.280   2.738
42406W        W14732  32.136  30.434  12.830
42407W        W14733  38.742  19.861   2.831
42408W        W14734  33.545   5.312   3.524
42409W        W14735  34.690  16.226  11.071
42410W        W14736  32.433  43.622   0.919
42411W        W14737   8.232   1.524   3.199
42412W        W14738  21.773  11.336  10.243
42413W        W14739  32.014   2.429  10.612
42414W        W14740  20.264  20.651  11.929
42415W        W14741  43.063   1.326   0.197
42416W        W14742  11.336  34.579   1.006
42417W        W14743   2.009  40.638  13.116
42418W        W14744   4.374  21.816   4.370
42419W        W14745  17.572  11.748  14.485
42420W        W14746  14.656  21.680   0.931
42421W        W14747  42.076  16.534  14.387
42422W        W14748  32.332  20.793  14.021
42423W        W14749  33.009  40.494  14.455
42424W        W14750  10.677  14.798  10.641
42425W        W14751   7.004  43.888  12.958
42426W        W14752  21.778   6.412   4.922
42427W        W14753  14.374  17.709  12.000
42428W        W14754   0.665  20.736  12.054
42429W        W14755  38.377  15.957  10.846
42430W        W14756   4.247  21.233   2.305
42431W        W14757  10.346  20.565  13.320
42432W        W14758  21.124  21.023  13.740
42433W        W14759   4.204  17.594  11.202
42434W        W14760  33.899  25.882  12.668
42435W        W14761  13.922   9.198   3.801
42436W        W14762  16.414  15.484   4.418
42437W        W14763  36.598   3.915   3.260
42438W        W14764  21.199  41.848  14.318
42439W        W14765   4.900  38.448  14.382
42440W        W14766   1.747  39.241  13.135
42441W        W14767  17.387  32.448  14.461
42442W        W14768  42.884  32.652  13.835
42443W        W14769   5.170  36.252   4.508
42444W        W14770  37.066  14.401   0.975
42445W        W14771  40.855   9.159  12.033
42446W        W14772  17.739  12.702   3.772
42447W        W14773   1.095  27.337  12.296
42448W        W14774   0.801   5.963  11.658
42449W        W14775  41.380  13.647   4.338
42450W        W14776  42.863  39.994  10.354
42451W        W14777   0.134  13.942  11.063
42452W        W14778  39.686  24.463  11.111
42453W        W14779   3.843  21.959   1.698
42454W        W14780  27.131   1.253  11.209
42455W        W14781  17.545  41.894  14.945
42456W        W14782  39.775  23.204  14.627
42457W        W14783  33.092  20.551  11.563
42458W        W14784  25.494  43.348   4.716
42459W        W14785  23.773  29.099   0.788
42460W        W14786  27.705  21.611   3.362
42461W        W14787  33.821   9.215   0.993
42462W        W14788  19.028  25.547   0.196
42463W        W14789  41.428   7.729   3.375
42464W        W14790  26.925   1.463  11.625
42465W        W14791   7.469  33.626   4.318
42466W        W14792  41.119   6.403   2.817
42467W        W14793  39.091   7.588   3.076
42468W        W14794  32.934   2.894   2.366
42469W        W14795   9.753  18.260   0.191
42470W        W14796  18.176  36.120   0.886
42471W        W14797  43.017  25.421  11.171
42472W        W14798  11.372  30.458  13.036
42473W        W14799  13.576  34.452  14.984
42474W        W14800  19.977  18.760   2.580
42475W        W14801   5.459  13.271   3.408
42476W        W14802  30.392   7.824   5.115
42477W        W14803  25.495  41.177  14.762
42478W        W14804  35.961  14.714   0.558
42479W        W14805  44.244  16.992  12.453
42480W        W14806  29.119  26.038   5.461
42481W        W14807  38.009  33.862  14.350
42482W        W14808  26.151  18.086  14.961
42483W        W14809  27.973   3.822  12.371
42484W        W14810   1.846   9.433   2.288
42485W        W14811   4.004  15.624  13.906
42486W        W14812  35.570  31.616   4.253
42487W        W14813  24.083  42.426   1.967
42488W        W14814  24.438  25.525  13.072
42489W        W14815  25.231   9.786   1.675
42490W        W14816  19.554  19.000   2.134
42491W        W14817  13.672   2.288   1.300
42492W        W14818  30.955  23.082   1.282
42493W        W14819  12.387  39.027   1.230
42494W        W14820  15.566   8.733  13.353
42495W        W14821   5.113  19.533   4.582
42496W        W14822   3.351  37.223   0.336
42497W        W14823   6.392  16.924  13.512
42498W        W14824   3.911  23.637   1.786
42499W        W14825  42.863   2.390  10.594
42500W        W14826  15.766  10.248  11.332
42501W        W14827  13.596   4.443  11.436
42502W        W14828   8.807  16.646   2.184
42503W        W14829  17.814  43.048  10.523
42504W        W14830   2.736   4.081  14.881
42505W        W14831  22.280   8.720   1.342
42506W        W14832  18.114   7.770  14.261
42507W        W14833  37.571  32.546   3.130
42508W        W14834  27.690  15.792   1.384
42509W        W14835  13.345  18.765  12.490
42510W        W14836   9.668  41.783   2.202
42511W        W14837  12.084  21.480   1.689
42512W        W14838  36.345   2.631  13.340
42513W        W14839  36.074   3.509  14.899
42514W        W14840   4.975  14.196  12.942
42515W        W14841  10.252  41.654   0.974
42516W        W14842  28.076   5.476   4.713
42517W        W14843  34.332   6.509  11.091
42518W        W14844  18.842  41.864   4.395
42519W        W14845  20.556  38.048   4.166
42520W        W14846  24.732   9.887  10.592
42521W        W14847  31.399  44.456  12.532
42522W        W14848  38.316  21.139   2.440
42523W        W14849  10.119  30.666   3.760
42524W        W14850   0.287  43.082  14.430
42525W        W14851   3.309  43.107   4.759
42526W        W14852  19.767  35.691   2.335
42527W        W14853  30.337  14.795   2.761
42528W        W14854  42.014  29.796   2.187
42529W        W14855   4.466  36.589  12.446
42530W        W14856   8.213  19.666  10.658
42531W        W14857  15.531   7.361   5.028
42532W        W14858  21.570  41.474  14.111
42533W        W14859  33.747   9.250   2.917
42534W        W14860  18.140   5.945   2.804
42535W        W14861  13.882   7.757   0.766
42536W        W14862  30.217  37.883   2.550
42537W        W14863  39.364  30.687   0.382
42538W        W14864   4.435  20.577   3.151
42539W        W14865   0.070  30.415  14.349
42540W        W14866  30.136  42.625  11.136
42541W        W14867   8.384  15.137  12.491
42542W        W14868  18.122  23.904   2.191
42543W        W14869  14.308  23.322  12.583
42544W        W14870  18.358  22.075  14.796
42545W        W14871  22.310   9.726  11.147
42546W        W14872  32.878  18.592   1.934
42547W        W14873   4.658  11.278  13.492
42548W        W14874  26.959  34.131  11.086
42549W        W14875  44.039  30.622   2.649
42550W        W14876   9.484   7.352  10.261
42551W        W14877  10.203  16.827   1.863
42552W        W14878   0.843  26.566  13.635
42553W        W14879   4.890  42.842   4.606
42554W        W14880  32.250   5.154  14.448
42555W        W14881  43.850  15.131   0.687
42556W        W14882  39.407   2.059  12.391
42557W        W14883  20.494  36.623   1.924
42558W        W14884  20.956  35.317  13.073
42559W        W14885  28.977   6.034  14.033
42560W        W14886  41.646  41.916   0.408
42561W        W14887  44.001  20.483  14.540
42562W        W14888  27.695  22.811  12.957
42563W        W14889  36.625  14.622  12.360
42564W        W14890  14.902  29.221   3.894
42565W        W14891   5.166  38.880   2.867
42566W        W14892  43.036   2.421  11.081
42567W        W14893  15.965  28.481   4.148
42568W        W14894  35.118  40.971  14.877
42569W        W14895   1.937   3.874   5.235
42570W        W14896  30.659  38.899  11.877
42571W        W14897  16.109   0.103  10.811
42572W        W14898  22.106  33.960   2.469
42573W        W14899  22.476  44.544  14.846
42574W        W14900  16.390   5.380   2.789
42575W        W14901  20.963  44.688   4.941
42576W        W14902  35.229  35.187   9.786
42577W        W14903   6.115  25.248   1.182
42578W        W14904   1.129   9.577  11.168
42579W        W14905  19.436  30.357   3.372
42580W        W14906  37.162   1.818   0.331
42581W        W14907  27.136   7.445   4.600
42582W        W14908  12.026  28.037  12.316
42583W        W14909  33.779  21.504   1.148
42584W        W14910  30.058  29.967  13.909
42585W        W14911  26.444  12.747   0.867
42586W        W14912  29.476   4.912  10.657
42587W        W14913  24.222  31.434   2.776
42588W        W14914   6.108  21.000  12.004
42589W        W14915  36.025  23.507  11.149
42590W        W14916  37.657  29.085   0.892
42591W        W14917  31.460  12.134  14.001
42592W        W14918   6.317   9.870  11.195
42593W        W14919  40.442  26.695   0.290
42594W        W14920  23.822  33.974   2.828
42595W        W14921  15.501  27.269   1.668
42596W        W14922  34.297  24.212   4.107
42597W        W14923  40.029   5.528  12.794
42598W        W14924  19.697  35.793   3.795
42599W        W14925   3.965  11.402   3.796
42600W        W14926  43.279  29.990   0.890
42601W        W14927  21.443  39.565  11.044
42602W        W14928  10.071  23.696   1.621
42603W        W14929  37.410  32.270   2.296
42604W        W14930  39.543  25.367  11.912
42605W        W14931  21.106  21.485   4.641
42606W        W14932  39.926   6.601  12.935
42607W        W14933   0.980  36.026  14.201
42608W        W14934  25.054   7.185   3.236
42609W        W14935  42.415  43.821  13.351
42610W        W14936  18.317  14.343  13.929
42611W        W14937  44.790  42.349   4.062
42612W        W14938  32.459  42.977   4.945
42613W        W14939  21.279   0.031   4.737
42614W        W14940  15.311  15.889  12.415
42615W        W14941  23.019   2.869   1.292
42616W        W14942  16.652  41.281  12.073
42617W        W14943   8.459   2.573  13.562
42618W        W14944  30.460  15.216  12.600
42619W        W14945  26.615  44.089  14.897
42620W        W14946  33.964   8.872  13.392
42621W        W14947   5.236   5.841  10.684
42622W        W14948  43.667   3.788   3.631
42623W        W14949  42.432   9.149   4.038
42624W        W14950  39.986  29.221   4.540
42625W        W14951  25.751  40.154   3.337
42626W        W14952  22.422  21.561   1.281
42627W        W14953  31.403  19.924  14.416
42628W        W14954  10.688   5.420  11.161
42629W        W14955   4.305  27.207  10.626
42630W        W14956   8.101  24.047  12.489
42631W        W14957  22.605  29.464   4.153
42632W        W14958  28.974  33.650  12.051
42633W        W14959  22.626  31.648   2.840
42634W        W14960  25.622   0.052  13.813
42635W        W14961  13.245  13.497  11.972
42636W        W14962  19.734  24.954  10.621
42637W        W14963   1.088  15.463   1.328
42638W        W14964   8.240  37.884   0.223
42639W        W14965   5.289  26.800  11.917
42640W        W14966   1.314  18.731   3.773
42641W        W14967  17.804   7.308  13.624
42642W        W14968  30.949  25.582  14.717
42643W        W14969  40.994   0.126  11.115
42644W        W14970  30.263   8.283  11.126
42645W        W14971   5.152  11.339   1.254
42646W        W14972   3.417  13.847   1.769
42647W        W14973  12.825  40.494  12.353
42648W        W14974   1.579  42.023   4.108
42649W        W14975  35.624  42.351  14.555
42650W        W14976  10.701  23.137  13.348
42651W        W14977  22.357  26.586  13.490
42652W        W14978   3.383  33.414   2.294
42653W        W14979  13.780  16.131   3.128
42654W        W14980   4.509   3.495   5.452
42655W        W14981  41.880  27.161  12.987
42656W        W14982  14.755  26.476   4.698
42657W        W14983  39.471  25.935   0.816
42658W        W14984  30.025  30.932  12.985
42659W        W14985  20.730  20.864  11.886
42660W        W14986  32.619   7.414   4.589
42661W        W14987  44.500  37.230  10.589
42662W        W14988  28.059  42.109  14.963
42663W        W14989   8.272  12.760   0.239
42664W        W14990  41.032  41.815  12.927
42665W        W14991  31.164  10.140  12.966
42666W        W14992   1.927   6.916   4.003
42667W        W14993  21.933  28.476  14.307
42668W        W14994   2.630   4.695   9.668
42669W        W14995  18.181  24.748  14.640
42670W        W14996  25.211  13.992  11.555
42671W        W14997  15.226  12.679  10.938
42672W        W14998  14.851  38.949   1.780
42673W        W14999  43.181   0.561   1.533
42674W        W15000  16.133   2.928  13.388
42675W        W15001  32.528  39.538   4.256
42676W        W15002  40.953  33.615  13.788
42677W        W15003   4.980  19.492   1.841
42678W        W15004  18.473   8.443   3.197
42679W        W15005  10.636   3.215   2.193
42680W        W15006   8.888  29.781   0.924
42681W        W15007  18.153  25.911   0.787
42682W        W15008  36.148  41.501   1.800
42683W        W15009  22.475  34.401  12.901
42684W        W15010  42.455  43.871   4.360
42685W        W15011  17.174  25.096  13.797
42686W        W15012  21.032  19.063  10.767
42687W        W15013   0.185  36.080   1.281
42688W        W15014  28.813  19.255   1.864
42689W        W15015  22.837  25.537  11.173
42690W        W15016   0.371  15.707  12.413
42691W        W15017  24.707  19.238   2.151
42692W        W15018  25.546  43.684  14.352
42693W        W15019   6.942  36.490   1.262
42694W        W15020  10.365  41.292   3.668
42695W        W15021   2.713   4.162   0.760
42696W        W15022  32.553  42.418  14.505
42697W        W15023  25.037  27.057  13.869
42698W        W15024  36.257   0.500   2.769
42699W        W15025  40.560  19.574  13.851
42700W        W15026  14.169  12.265  10.900
42701W        W15027  39.468  16.440  13.443
42702W        W15028  11.524   0.712  11.722
42703W        W15029  28.717  16.852   1.516
42704W        W15030  31.329  21.701  12.835
42705W        W15031  21.804  44.217   4.926
42706W        W15032  25.301  23.760  13.935
42707W        W15033  31.966   3.349   2.406
42708W        W15034  37.997  15.823   4.484
42709W        W15035  40.215  19.473   1.899
42710W        W15036  34.374  15.105   1.752
42711W        W15037  25.907  11.748  10.665
42712W        W15038  34.058  44.509  10.207
42713W        W15039  24.286  17.032   3.644
42714W        W15040  20.494  15.742  14.987
42715W        W15041  42.927  27.906  14.035
42716W        W15042   4.391  37.143   3.191
42717W        W15043  25.121  26.762  10.258
42718W        W15044  10.278  22.559   2.809
42719W        W15045   8.812  25.034  12.057
42720W        W15046  26.021  34.028   0.965
42721W        W15047  30.617  21.580  12.517
42722W        W15048  43.320  36.261   0.352
42723W        W15049  39.831  27.615   0.479
42724W        W15050  12.072  37.849   2.332
42725W        W15051  20.317  14.383   0.474
42726W        W15052   3.414   3.023   0.313
42727W        W15053  35.493  32.943   9.761
42728W        W15054   0.192  32.525  13.585
42729W        W15055  29.492  32.466  14.662
42730W        W15056   1.543  36.809  13.876
42731W        W15057  20.738  23.704  12.474
42732W        W15058  29.530   4.428  14.505
42733W        W15059  35.024   2.887   1.275
42734W        W15060   6.617  13.251   2.722
42735W        W15061  24.173   3.633   0.238
42736W        W15062   9.793  20.186  10.422
42737W        W15063  10.466   4.157  11.510
42738W        W15064   2.268   8.678   2.068
42739W        W15065  31.168  10.675  10.684
42740W        W15066  18.174   6.543  12.122
42741W        W15067   2.005  28.133  12.064
42742W        W15068  35.144   3.287  13.963
42743W        W15069   4.267  37.972   4.678
42744W        W15070  21.058   1.455   2.853
42745W        W15071  16.752  31.333  12.381
42746W        W15072   4.752  21.219   1.272
42747W        W15073   3.435  27.585  10.446
42748W        W15074  17.073   6.387  13.792
42749W        W15075  12.210  23.068  11.109
42750W        W15076  28.528  44.105  10.151
42751W        W15077  22.325  22.021  14.735
42752W        W15078   2.686  33.082   3.382
42753W        W15079   0.330   3.835   2.941
42754W        W15080   3.101  13.334   0.410
42755W        W15081  21.901  17.544  14.059
42756W        W15082  31.891  24.627   3.325
42757W        W15083  33.898  33.567  13.045
42758W        W15084  24.719  15.663   4.852
42759W        W15085  24.520  20.046   3.147
42760W        W15086   3.458  42.926   0.959
42761W        W15087  17.997  17.777   4.918
42762W        W15088   6.458  23.114   0.693
42763W        W15089  40.914  36.549   1.446
42764W        W15090  17.275  25.511  11.049
42765W        W15091  41.366   8.247   3.288
42766W        W15092  41.963  43.955   4.632
42767W        W15093   1.189  35.539   2.632
42768W        W15094  37.082  43.725   1.368
42769W        W15095  16.815  44.285   0.961
42770W        W15096  17.055  33.439  14.458
42771W        W15097  30.611  28.467  11.566
42772W        W15098  14.761  11.324   1.628
42773W        W15099  33.460  16.822  10.630
42774W        W15100   2.324  28.612  11.067
42775W        W15101   4.538  20.051  13.488
42776W        W15102  35.618  10.763  13.094
42777W        W15103  17.723  39.260  11.923
42778W        W15104   1.567  23.028  13.725
42779W        W15105  20.384  18.267  10.643
42780W        W15106  33.089  41.336  12.048
42781W        W15107  27.204  30.638   3.050
42782W        W15108  43.662   8.824   1.681
42783W        W15109  22.086  21.300  13.290
42784W        W15110  19.785   4.654   0.889
42785W        W15111  39.449  26.685   1.957
42786W        W15112  22.581  44.838   2.328
42787W        W15113   6.427   5.402  10.655
42788W        W15114  24.495   9.911   0.525
42789W        W15115  14.047  28.000  12.095
42790W        W15116  15.188   7.361   4.071
42791W        W15117  36.900   2.883  11.210
42792W        W15118  10.286  26.105  14.390
42793W        W15119  11.327   2.753  14.300
42794W        W15120  26.136  29.933  12.545
42795W        W15121  21.194  12.490  12.512
42796W        W15122   5.845  13.378   4.242
42797W        W15123  24.728   5.886   3.219
42798W        W15124  25.692  10.211  14.926
42799W        W15125  39.539   9.215  11.896
42800W        W15126  36.085  27.976   1.652
42801W        W15127  31.553  18.600  14.866
42802W        W15128  38.001   4.292  11.158
42803W        W15129  44.972  12.402   4.218
42804W        W15130  26.243  15.669  12.938
42805W        W15131  29.527  24.147  13.652
42806W        W15132  15.730  37.512   3.215
42807W        W15133  24.597  10.627   3.249
42808W        W15134  33.994  37.426  14.669
42809W        W15135  38.827  35.604   2.671
42810W        W15136  23.446  11.648   1.436
42811W        W15137   4.236  34.631   0.925
42812W        W15138  40.395  13.858   1.543
42813W        W15139   8.724  39.484   1.423
42814W        W15140  42.881  16.427   3.131
42815W        W15141  44.344  32.833  10.744
42816W        W15142  28.224  44.458   1.752
42817W        W15143  35.403  12.847  13.998
42818W        W15144  20.607  12.619  11.484
42819W        W15145  24.749   1.886   4.537
42820W        W15146  22.189  18.216  13.570
42821W        W15147  29.942   1.171  12.475
42822W        W15148  15.035  44.068   3.682
42823W        W15149  19.248   6.616  13.056
42824W        W15150  35.795   2.819   2.778
42825W        W15151  39.901  14.070  14.092
42826W        W15152  38.780  38.598  14.734
42827W        W15153  13.322   9.645  11.549
42828W        W15154   9.283  41.332   1.868
42829W        W15155  33.654  41.955   1.326
42830W        W15156  11.796   8.640   2.649
42831W        W15157  17.336  42.397   3.793
42832W        W15158   7.712  10.691   1.647
42833W        W15159  34.528  10.632   3.136
42834W        W15160   3.971   3.345   2.379
42835W        W15161  16.283  44.968   2.786
42836W        W15162  36.849  19.469  12.235
42837W        W15163  23.569  44.209   1.834
42838W        W15164  33.556   3.998   0.895
42839W        W15165  21.272  26.171   3.339
42840W        W15166   8.375   1.799  11.528
42841W        W15167   1.334  29.135  12.493
42842W        W15168   4.611   0.823  13.967
42843W        W15169   7.864   1.047  12.704
42844W        W15170  37.909  14.705  13.781
42845W        W15171  39.973  32.928   0.788
42846W        W15172  10.343   1.218  12.416
42847W        W15173   5.777  32.347  12.556
42848W        W15174  21.006  22.959   0.254
42849W        W15175  34.913   0.843   4.168
42850W        W15176   1.968  32.489   1.862
42851W        W15177  20.237  32.824   2.388
42852W        W15178  39.374  44.803  11.040
42853W        W15179   9.985  13.851   2.658
42854W        W15180  13.885  20.105  11.705
42855W        W15181  17.003  13.552   4.111
42856W        W15182   6.830  14.384   4.254
42857W        W15183   5.110  29.813  14.321
42858W        W15184  28.251  43.455  12.767
42859W        W15185  21.608  13.326  14.929
42860W        W15186  35.754  30.499   3.219
42861W        W15187  40.566   4.420   0.291
42862W        W15188  22.619  40.780  12.333
42863W        W15189  20.058   4.759   1.320
42864W        W15190  33.571  21.246  12.965
42865W        W15191   1.721  38.063   4.698
42866W        W15192  22.900  40.135   5.177
42867W        W15193  29.165  28.638  10.516
42868W        W15194  17.827  17.712   0.716
42869W        W15195  43.445   3.889  12.704
42870W        W15196   8.362  44.039   4.655
42871W        W15197  22.427  23.541   9.879
42872W        W15198  13.337   2.718   1.311
42873W        W15199  29.940   2.395   4.543
42874W        W15200  35.985  39.840  11.324
42875W        W15201   0.458  37.937  13.102
42876W        W15202  12.769  31.438  13.489
42877W        W15203   6.598  37.309   4.466
42878W        W15204  33.375  36.457   0.772
42879W        W15205  37.754  30.372   2.280
42880W        W15206  23.770   0.683  11.654
42881W        W15207  36.370  24.755   0.743
42882W        W15208  26.651  27.664   2.800
42883W        W15209  14.680  12.586   1.813
42884W        W15210  35.300  34.662  11.112
42885W        W15211   0.234  23.737  12.895
42886W        W15212  10.337  30.847   4.823
42887W        W15213  25.917  14.398   1.328
42888W        W15214  26.074  10.073  11.122
42889W        W15215  12.758  31.574   3.122
42890W        W15216  38.442  42.603  14.978
42891W        W15217  38.540   3.967   4.330
42892W        W15218   7.778  18.042   1.928
42893W        W15219  31.595  29.568   1.974
42894W        W15220   6.272  30.416  11.902
42895W        W15221  28.986  15.220   4.097
42896W        W15222  10.917  24.101  11.497
42897W        W15223  23.510  44.279  13.798
42898W        W15224  16.309  43.920   2.699
42899W        W15225  18.916  21.908  13.911
42900W        W15226  41.368   9.326   4.806
42901W        W15227   6.262  42.919  14.439
42902W        W15228  39.485  30.301  13.869
42903W        W15229  43.716  29.549  14.670
42904W        W15230  34.684  40.017  13.390
42905W        W15231  26.195   7.724   0.782
42906W        W15232  14.226  14.246  10.551
42907W        W15233  18.250  37.422  11.100
42908W        W15234  36.847  22.789   2.792
42909W        W15235  11.974  35.439   2.432
42910W        W15236   9.911  36.827  10.801
42911W        W15237  13.283  36.076   5.019
42912W        W15238  30.166   5.672  11.569
42913W        W15239  24.609   4.220  10.714
42914W        W15240  21.103  44.907  14.341
42915W        W15241  21.257   6.401   1.241
42916W        W15242  25.391   8.345  11.651
42917W        W15243  11.835  25.902  11.841
42918W        W15244  34.703  32.502  10.490
42919W        W15245  19.311  13.277   0.950
42920W        W15246  34.106   5.476  13.933
42921W        W15247  40.906  15.853   2.190
42922W        W15248  30.922  14.622   3.598
42923W        W15249  26.116  22.264   4.312
42924W        W15250  29.084  17.588  13.902
42925W        W15251  29.990  31.702  11.068
42926W        W15252  11.771  43.352  12.854
42927W        W15253  11.876  42.008   3.309
42928W        W15254  29.473   5.532   3.880
42929W        W15255  33.876  42.931   3.239
42930W        W15256   3.891  10.034   0.593
42931W        W15257  37.053   6.308  14.271
42932W        W15258  32.490  26.553  13.591
42933W        W15259  39.318  41.982  11.923
42934W        W15260   8.765   8.821   1.228
42935W        W15261   5.822  38.369  12.007
42936W        W15262  37.961  22.076   1.025
42937W        W15263  33.451  36.492   2.237
42938W        W15264  25.126  15.360  12.079
42939W        W15265   8.277  24.660  14.629
42940W        W15266  20.196  18.948   0.369
42941W        W15267  37.621  35.461   0.495
42942W        W15268  23.691  12.562   0.470
42943W        W15269  43.923  32.994  14.833
42944W        W15270  31.654  41.415  13.886
42945W        W15271   9.205   1.521  11.043
42946W        W15272  22.120  13.007   1.087
42947W        W15273  41.468  31.941   0.822
42948W        W15274  42.811  35.345   1.514
42949W        W15275  33.113   5.574   4.454
42950W        W15276  17.380   8.628   1.267
42951W        W15277   7.395   4.840  14.074
42952W        W15278  23.212   4.741   4.167
42953W        W15279  11.068  41.502  11.709
42954W        W15280  41.391  21.193  11.640
42955W        W15281  28.926  34.324   1.463
42956W        W15282  39.315  23.547   4.300
42957W        W15283  27.260  42.559   3.634
42958W        W15284  39.542  41.883   1.052
42959W        W15285  20.213  24.403   3.915
42960W        W15286   9.244   3.298   4.476
42961W        W15287  18.659   6.283  11.102
42962W        W15288  24.794   5.949  14.338
42963W        W15289  25.970  10.568  14.424
42964W        W15290  16.695  20.482   3.837
42965W        W15291  37.968  33.954  11.598
42966W        W15292   7.288  10.366  11.881
42967W        W15293  38.436  18.077   1.353
42968W        W15294  39.889  10.529  14.357
42969W        W15295  44.443   3.666   3.121
42970W        W15296  29.125   0.329   0.270
42971W        W15297   1.619   6.255  12.875
42972W        W15298  12.869  31.167  14.866
42973W        W15299   5.258  28.072   3.235
42974W        W15300  37.650  30.169  13.020
42975W        W15301   4.530  33.125   2.829
42976W        W15302  22.028   3.853   1.308
42977W        W15303  34.592  18.328   1.327
42978W        W15304  21.603  38.153   5.003
42979W        W15305  25.526  18.807   0.046
42980W        W15306  34.560   2.733   1.494
42981W        W15307  29.364  43.527   4.379
42982W        W15308  19.458  44.409   2.146
42983W        W15309   9.156  25.662   1.811
42984W        W15310  27.709  41.771  14.734
42985W        W15311  14.703  43.519  10.665
42986W        W15312  32.012  33.048   0.813
42987W        W15313   1.409  18.259   1.816
42988W        W15314  42.509   5.458   3.974
42989W        W15315  19.309  11.180   0.808
42990W        W15316  36.925  41.381   0.322
42991W        W15317  22.190   9.166  10.682
42992W        W15318   0.549  11.774  10.241
42993W        W15319   9.332  10.313   1.575
42994W        W15320   8.762   8.773   0.727
42995W        W15321  11.753  18.527   2.991
42996W        W15322  21.104  38.009  13.142
42997W        W15323   2.842   1.732  13.334
42998W        W15324   1.706  31.577   0.934
42999W        W15325   0.401  16.219  10.701
43000W        W15326  29.953   9.892  12.400
43001W        W15327  34.009  31.964   1.836
43002W        W15328  41.386  19.645  12.416
43003W        W15329  25.935   2.780  12.935
43004W        W15330  37.874   9.670  13.970
43005W        W15331  36.021  29.013  14.425
43006W        W15332  17.807  13.470  14.819
43007W        W15333  27.465  39.918   4.496
43008W        W15334   1.552  27.527   1.329
43009W        W15335  27.921  25.040   2.214
43010W        W15336  34.278  21.773  11.387
43011W        W15337  37.023  43.417   0.393
43012W        W15338  16.860   3.995   3.831
43013W        W15339   7.266  15.657   0.456
43014W        W15340   3.369  15.174  14.224
43015W        W15341  44.487  15.196   3.884
43016W        W15342  32.678  20.561   4.509
43017W        W15343   5.251   4.622   0.474
43018W        W15344   4.740  18.204   0.928
43019W        W15345   0.075  40.350  14.867
43020W        W15346  35.679  13.347   0.879
43021W        W15347  37.670   4.776  14.300
43022W        W15348  42.478   9.385   2.261
43023W        W15349  41.339  28.954  14.840
43024W        W15350  22.702   0.776  10.741
43025W        W15351  21.275  37.298   1.471
43026W        W15352  17.642  10.228  11.611
43027W        W15353  10.336   2.452   4.429
43028W        W15354  34.789   5.976   2.314
43029W        W15355   1.391  36.625   4.143
43030W        W15356  42.319  26.162   3.466
43031W        W15357   3.833  31.839   4.817
43032W        W15358  34.500  24.553  11.499
43033W        W15359  37.039  25.819  14.518
43034W        W15360  20.893   0.603  12.159
43035W        W15361  33.097  18.609   1.473
43036W        W15362  32.679  28.689   1.721
43037W        W15363  14.362   0.021   1.879
43038W        W15364  41.499   8.302  11.091
43039W        W15365   8.288  13.725   1.134
43040W        W15366  14.809  39.570   4.705
43041W        W15367  38.178   0.571  11.974
43042W        W15368   2.841  14.708   2.582
43043W        W15369  36.527   3.337   5.010
43044W        W15370   7.670  36.416   1.760
43045W        W15371  37.078  27.029   1.404
43046W        W15372  44.708  40.342  11.266
43047W        W15373  30.255  43.772   0.276
43048W        W15374  25.041  28.205   3.232
43049W        W15375  22.062  12.560   1.348
43050W        W15376  44.383   6.146   4.542
43051W        W15377  14.434  33.386  14.911
43052W        W15378  22.441  22.754  12.952
43053W        W15379   1.835  26.398  13.984
43054W        W15380  19.348  44.058   3.477
43055W        W15381  35.493  40.318   0.375
43056W        W15382  23.229  20.806  10.738
43057W        W15383  27.930  27.026  14.551
43058W        W15384  23.817   4.707  12.319
43059W        W15385  20.954   8.838  11.614
43060W        W15386  30.067  34.096   3.602
43061W        W15387  41.352  35.556   4.681
43062W        W15388   3.772   7.720  12.101
43063W        W15389  20.845  38.074   0.010
43064W        W15390  30.930  25.175   0.486
43065W        W15391  41.447   7.639  14.441
43066W        W15392  20.154  31.423   4.378
43067W        W15393  29.619  37.805   0.439
43068W        W15394  29.426  22.385  14.959
43069W        W15395  25.919  18.129  11.965
43070W        W15396  41.719  20.215   1.814
43071W        W15397  27.731   8.207   2.720
43072W        W15398  18.162  26.956   0.879
43073W        W15399  41.280   4.929   1.183
43074W        W15400  13.795  26.716   3.784
43075W        W15401   5.368  39.019  10.712
43076W        W15402  20.787   3.190   4.222
43077W        W15403  16.594   6.488   3.264
43078W        W15404   7.401   4.551   3.047
43079W        W15405   6.270  10.602  13.124
43080W        W15406   0.295  26.057   3.162
43081W        W15407  11.456  25.221  14.801
43082W        W15408   9.243  34.417  14.008
43083W        W15409   8.065  40.781   1.594
43084W        W15410  38.043  28.672   0.041
43085W        W15411  13.106  35.744   5.378
43086W        W15412  12.312  32.431   1.278
43087W        W15413  21.737  20.838   4.791
43088W        W15414  14.609   8.986  10.952
43089W        W15415  17.301   2.381   4.092
43090W        W15416  27.575  40.729   3.140
43091W        W15417   1.628  15.214  12.595
43092W        W15418   5.366   0.157  11.229
43093W        W15419  33.646  12.134   0.383
43094W        W15420  25.176  29.667   1.782
43095W        W15421  31.685  34.265  14.850
43096W        W15422  42.272   8.685  14.075
43097W        W15423  21.017  40.404  13.149
43098W        W15424   8.311  16.245  12.945
43099W        W15425  42.526  27.416   3.597
43100W        W15426   8.116  24.632   2.130
43101W        W15427  29.672  11.247  12.450
43102W        W15428  32.051  38.698   2.294
43103W        W15429  23.582   0.291  10.714
43104W        W15430   7.404  22.160  11.637
43105W        W15431   0.748   2.818  12.382
43106W        W15432  40.641  18.986  10.780
43107W        W15433  31.131  36.852   2.208
43108W        W15434   9.740   7.376   3.242
43109W        W15435  41.319  43.028  12.404
43110W        W15436  16.106  39.575  13.806
43111W        W15437  38.989  44.897  14.754
43112W        W15438  13.771  28.936  10.691
43113W        W15439  20.443  39.809  12.560
43114W        W15440  34.864  24.343   1.925
43115W        W15441  15.049   0.523   2.662
43116W        W15442   4.957  41.873   1.266
43117W        W15443  38.318  22.935   0.609
43118W        W15444  28.728  21.582  14.522
43119W        W15445  44.326  24.885   9.880
43120W        W15446  33.865  41.304   4.452
43121W        W15447  20.635  20.120  13.455
43122W        W15448  22.795  17.953  11.110
43123W        W15449  40.919  28.515  12.631
43124W        W15450  27.458   5.910  13.315
43125W        W15451  18.756  43.078   4.583
43126W        W15452  33.024  15.993  10.432
43127W        W15453  12.861   2.831  11.089
43128W        W15454  29.337  12.135   2.267
43129W        W15455  15.574  29.568  12.907
43130W        W15456  17.730  24.328   2.720
43131W        W15457  11.541  19.032  14.329
43132W        W15458  39.545  27.169   1.288
43133W        W15459  29.110   5.740  10.719
43134W        W15460  36.363  42.947  12.397
43135W        W15461  42.108  40.081  11.534
43136W        W15462   9.299   0.083   2.379
43137W        W15463  42.397   6.927  13.541
43138W        W15464  44.049  16.598   1.230
43139W        W15465  37.984  43.416   4.761
43140W        W15466  26.256  26.701   1.446
43141W        W15467   7.885  43.885   4.773
43142W        W15468   6.783  12.158   0.323
43143W        W15469  32.490  23.685  11.664
43144W        W15470  43.509  23.646   1.934
43145W        W15471  37.098  32.610  11.909
43146W        W15472  10.605  20.019   4.309
43147W        W15473  34.624  21.692  14.473
43148W        W15474   6.487  33.866  12.749
43149W        W15475  35.330  13.662   3.738
43150W        W15476  38.950  19.259  14.519
43151W        W15477  21.575  23.470   2.294
43152W        W15478   0.349  41.598  12.505
43153W        W15479   4.916   2.679  13.391
43154W        W15480  28.706  39.273   2.203
43155W        W15481  42.106  18.539   0.781
43156W        W15482  10.750  12.542   3.608
43157W        W15483   3.420  15.082   1.163
43158W        W15484  32.356  27.426  11.083
43159W        W15485  37.580  30.651  12.857
43160W        W15486  10.374   3.313  11.171
43161W        W15487  20.579  15.002   2.896
43162W        W15488  28.383   3.432  11.508
43163W        W15489  15.606  10.728   0.841
43164W        W15490  24.327  18.766  14.970
43165W        W15491  38.628  19.395   2.656
43166W        W15492  39.342  35.059  13.863
43167W        W15493  34.059  22.995  11.655
43168W        W15494  15.257  35.024   2.344
43169W        W15495  44.670  14.459   0.734
43170W        W15496  11.641  26.551   3.285
43171W        W15497  32.454  10.691  11.919
43172W        W15498  26.498  44.088  12.880
43173W        W15499   4.573  30.713   2.869
43174W        W15500   1.016  12.633  11.797
43175W        W15501  16.845  42.472   2.855
43176W        W15502  24.092  40.298   4.302
43177W        W15503  10.740  12.191  14.870
43178W        W15504  31.943  34.965  13.972
43179W        W15505  19.499  23.152   1.416
43180W        W15506  28.551  40.309  14.171
43181W        W15507   0.176  41.271  11.139
43182W        W15508  18.911  43.750  11.601
43183W        W15509  14.865  34.848  12.383
43184W        W15510  31.952  12.643   2.324
43185W        W15511  21.046  28.184   2.082
43186W        W15512   1.584  43.272  10.921
43187W        W15513   0.736   8.848   3.192
43188W        W15514  20.761  16.685  11.471
43189W        W15515  41.451  11.944   3.160
43190W        W15516   8.266  33.845  11.201
43191W        W15517   3.180  11.785   3.708
43192W        W15518  37.949  17.336  13.822
43193W        W15519  10.214  38.136  12.934
43194W        W15520  43.379  12.286  11.108
43195W        W15521  40.402  15.968   2.298
43196W        W15522  10.338  27.341   1.391
43197W        W15523   5.752   1.254   0.981
43198W        W15524  18.808   5.839   0.418
43199W        W15525  40.558   5.677   4.441
43200W        W15526   0.150  27.055   1.134
43201W        W15527  24.029  18.785  14.406
43202W        W15528  37.487  21.301  10.766
43203W        W15529  40.230  23.619   2.243
43204W        W15530  23.057  44.866   1.235
43205W        W15531   6.356  26.032  10.762
43206W        W15532  12.622  21.987  13.286
43207W        W15533  27.168  21.754   2.421
43208W        W15534  42.990   1.213  13.841
43209W        W15535   6.596  13.650   3.795
43210W        W15536  19.767  43.396  11.699
43211W        W15537  40.785  13.707   2.879
43212W        W15538   2.783  31.955  14.381
43213W        W15539  27.505  21.796  13.084
43214W        W15540  28.657  36.663  11.534
43215W        W15541  25.115  15.180   5.082
43216W        W15542  10.822  40.909  12.207
43217W        W15543  32.451   4.164   2.354
43218W        W15544   7.214   1.701   4.073
43219W        W15545  38.641  26.117   2.452
43220W        W15546   3.951  11.214   5.056
43221W        W15547  21.984  30.543  10.431
43222W        W15548  14.275  25.029  14.564
43223W        W15549  25.603   7.114   4.074
43224W        W15550  12.378  29.689   1.894
43225W        W15551  33.061  40.499  12.421
43226W        W15552  17.103  40.463   2.907
43227W        W15553  30.015  25.470   4.305
43228W        W15554   9.499  31.398   3.667
43229W        W15555   3.657  34.561   2.171
43230W        W15556  41.289  29.599  12.084
43231W        W15557   1.816   5.878   4.210
43232W        W15558  41.275  32.956   3.097
43233W        W15559  20.231  37.309  12.852
43234W        W15560   1.547  25.521  11.960
43235W        W15561  44.442   2.982  14.251
43236W        W15562  23.368  44.921   3.336
43237W        W15563   8.851   0.391  11.057
43238W        W15564  21.120  30.606   3.222
43239W        W15565  21.043  24.839   3.877
43240W        W15566  13.196  14.624   4.267
43241W        W15567  39.886   7.405  14.282
43242W        W15568   9.970  30.123   3.412
43243W        W15569   5.915   2.003   0.269
43244W        W15570  30.421   5.299   2.787
43245W        W15571  24.806  21.265  12.802
43246W        W15572   0.972  40.676  14.979
43247W        W15573  25.093  23.511  12.902
43248W        W15574  22.061  18.209  10.685
43249W        W15575  21.165  19.132   3.172
43250W        W15576  38.988  44.362   3.001
43251W        W15577  10.392  34.010   3.196
43252W        W15578   3.645  24.651   4.741
43253W        W15579  19.866  18.111  13.008
43254W        W15580  13.254  22.992  11.238
43255W        W15581  32.079  41.413  10.131
43256W        W15582  27.105   5.844  10.669
43257W        W15583   0.937  34.429   2.037
43258W        W15584  23.178  29.016   3.709
43259W        W15585  30.634  34.794  13.508
43260W        W15586  29.537   3.411  14.274
43261W        W15587   3.112  21.248  12.436
43262W        W15588  23.059  42.910  13.772
43263W        W15589  17.583   5.759   4.551
43264W        W15590  43.526  43.298   0.339
43265W        W15591  42.579   3.657   0.950
43266W        W15592  14.227  43.763   2.183
43267W        W15593  33.794  15.655   1.369
43268W        W15594  25.175  41.991   0.559
43269W        W15595  20.099  18.784  14.856
43270W        W15596  31.206  20.225  13.970
43271W        W15597  41.980  36.165   2.488
43272W        W15598  22.506  11.310  13.889
43273W        W15599  28.977  18.282  11.488
43274W        W15600   0.770  22.481  10.490
43275W        W15601  10.975  44.077   4.069
43276W        W15602  14.228  12.343   0.556
43277W        W15603  42.977  18.612  11.209
43278W        W15604  36.824  29.020  11.945
43279W        W15605   2.697   4.658  14.440
43280W        W15606   4.683  23.991   3.638
43281W        W15607  22.239  44.840  11.637
43282W        W15608  23.182  31.117   0.154
43283W        W15609  11.671  36.290   4.534
43284W        W15610  22.600  24.830  10.673
43285W        W15611  25.501  44.927  14.316
43286W        W15612  33.357  39.736  14.950
43287W        W15613  32.041  42.044  14.319
43288W        W15614  21.958  15.367  14.060
43289W        W15615   4.979  40.497  11.896
43290W        W15616   5.617  42.379   1.868
43291W        W15617  31.378  18.193  12.095
43292W        W15618  16.825  14.518   4.580
43293W        W15619  24.515  42.287   1.694
43294W        W15620  12.317  42.652   1.706
43295W        W15621  31.970  21.750  13.314
43296W        W15622   0.915   0.465   4.645
43297W        W15623  23.087  24.021   2.220
43298W        W15624  10.336  19.720  11.905
43299W        W15625   5.257  37.075  10.953
43300W        W15626  29.703   5.314  12.736
43301W        W15627  43.529  34.079   3.941
43302W        W15628  43.984  31.092  10.897
43303W        W15629  19.092  39.023  12.095
43304W        W15630  19.580  37.073  12.487
43305W        W15631  37.125   0.754   2.742
43306W        W15632  30.495  43.713  11.808
43307W        W15633   8.691  18.666   3.533
43308W        W15634  32.422  34.264   0.543
43309W        W15635  20.194   5.823  11.645
43310W        W15636  13.839  44.867  13.057
43311W        W15637  25.162  18.823   0.972
43312W        W15638  30.074  12.421  10.469
43313W        W15639  22.509  41.422  13.481
43314W        W15640   0.704  43.337   2.826
43315W        W15641  26.690  31.447  11.899
43316W        W15642   8.286  31.590   3.233
43317W        W15643  32.563   4.178   3.281
43318W        W15644  15.577  38.886   3.675
43319W        W15645   1.959   8.597   2.557
43320W        W15646  40.892  42.748  12.001
43321W        W15647  24.060   7.158   2.283
43322W        W15648   5.119  17.851   2.806
43323W        W15649   5.739  13.435   4.739
43324W        W15650  20.851   3.178  12.426
43325W        W15651   5.725  33.468   2.632
43326W        W15652  13.116  16.641   1.407
43327W        W15653  38.061  35.542  12.457
43328W        W15654  44.482  21.103  10.022
43329W        W15655   3.899  22.071   3.374
43330W        W15656   3.462   6.142  13.414
43331W        W15657   4.895  22.992  14.995
43332W        W15658  11.338  28.156  13.997
43333W        W15659  21.552   4.255  10.868
43334W        W15660  27.166   5.723   0.244
43335W        W15661  18.057  27.824   1.398
43336W        W15662  14.299   6.318  10.703
43337W        W15663  21.139  24.667  14.472
43338W        W15664  24.553  21.096   0.369
43339W        W15665   2.248  42.549   1.411
43340W        W15666  28.514  15.363  13.544
43341W        W15667   4.263  24.022  11.131
43342W        W15668   0.320  13.666   3.695
43343W        W15669  35.184  30.931  10.949
43344W        W15670  21.964  31.228   0.031
43345W        W15671  34.107  36.889   2.375
43346W        W15672   3.699  42.414  12.891
43347W        W15673   5.435   0.809  12.608
43348W        W15674  25.461  27.880   0.492
43349W        W15675  42.376  21.730   2.436
43350W        W15676  15.047   1.248  11.875
43351W        W15677  29.387  35.284  11.324
43352W        W15678  13.593  37.910  14.423
43353W        W15679  30.374  33.906   1.465
43354W        W15680   7.762  18.633   1.131
43355W        W15681   2.235  21.297  13.422
43356W        W15682  16.130  27.250   3.636
43357W        W15683  24.928  14.179   2.133
43358W        W15684   3.689  32.045   0.681
43359W        W15685  29.096  28.688   3.087
43360W        W15686  43.346  37.365  12.472
43361W        W15687   9.920  15.212  11.879
43362W        W15688  15.038  26.505  14.367
43363W        W15689  28.532  19.061   4.266
43364W        W15690  22.961  21.816  10.742
43365W        W15691   3.843   5.088   4.213
43366W        W15692   9.764  27.920   3.818
43367W        W15693  17.040  20.753  12.911
43368W        W15694   9.418  39.959   3.147
43369W        W15695  17.490   4.178   0.065
43370W        W15696   9.219   4.075   0.342
43371W        W15697  23.971  40.499  11.423
43372W        W15698  36.375  38.347  13.162
43373W        W15699  25.664  18.693  14.016
43374W        W15700  29.987  20.284   2.565
43375W        W15701  16.142  30.464   0.230
43376W        W15702  21.543  16.367   1.855
43377W        W15703  30.463  31.875   3.410
43378W        W15704  39.051  37.883   4.091
43379W        W15705  13.281  24.115   2.486
43380W        W15706  15.179  29.152   2.450
43381W        W15707   9.182  33.972   3.737
43382W        W15708  16.410  15.814  11.077
43383W        W15709   4.662  10.316   0.562
43384W        W15710   9.617  13.218  13.066
43385W        W15711  25.170  26.891   2.431
43386W        W15712  13.854  11.293   2.315
43387W        W15713   2.409  10.259  14.996
43388W        W15714  38.481   8.261  11.065
43389W        W15715  31.081   6.861  12.872
43390W        W15716  26.264   7.374  13.984
43391W        W15717  11.136  27.009  12.494
43392W        W15718   9.294   7.276   4.725
43393W        W15719   9.728   6.268   4.395
43394W        W15720  32.806  44.818  10.822
43395W        W15721  35.023   9.698   2.564
43396W        W15722   2.024  19.153   3.507
43397W        W15723  41.076  37.695   1.108
43398W        W15724  19.576  16.523  12.406
43399W        W15725  15.746   6.825   4.463
43400W        W15726  44.853  11.883  14.036
43401W        W15727  16.822  11.373   0.835
43402W        W15728  17.059  27.600  14.527
43403W        W15729   3.745  33.832  11.178
43404W        W15730   2.321  15.364  13.451
43405W        W15731  19.541  16.158   2.117
43406W        W15732   0.746  44.583  12.042
43407W        W15733  17.231   8.075  11.043
43408W        W15734  12.261  41.041  12.058
43409W        W15735  25.118   2.067   2.897
43410W        W15736  38.361  27.536  10.691
43411W        W15737  34.864  38.893   4.544
43412W        W15738  19.230   6.617   0.815
43413W        W15739  10.434  14.278  14.264
43414W        W15740   2.301  12.794   4.543
43415W        W15741  16.574  41.864  10.774
43416W        W15742  19.058  23.809   1.855
43417W        W15743  40.073   8.841   4.368
43418W        W15744   9.169   7.206  11.214
43419W        W15745  13.242  23.992  10.041
43420W        W15746  17.520  35.958  12.563
43421W        W15747  18.092  25.687  10.620
43422W        W15748  16.674  29.385  13.827
43423W        W15749  10.962  14.290  13.452
43424W        W15750  18.022  43.608  13.851
43425W        W15751  39.420  27.560  10.684
43426W        W15752  39.134  14.925  11.352
43427W        W15753  30.450  27.162   2.718
43428W        W15754  16.232  21.264   1.199
43429W        W15755  16.152  12.822  10.483
43430W        W15756  40.658  28.660   2.858
43431W        W15757  22.025  14.639  13.410
43432W        W15758   2.373  30.678  10.181
43433W        W15759  12.824  35.485  14.997
43434W        W15760  10.582  41.264  13.392
43435W        W15761   3.266  13.116   1.390
43436W        W15762   7.154   8.231  14.996
43437W        W15763   8.461   5.052   1.069
43438W        W15764  29.950  25.200  11.070
43439W        W15765  34.656   3.257   1.403
43440W        W15766  36.785   7.222  11.996
43441W        W15767  41.495  16.769   3.220
43442W        W15768  41.811  29.885   1.480
43443W        W15769  10.132  14.982   0.067
43444W        W15770  35.973   9.471  10.923
43445W        W15771   4.297  40.015   3.924
43446W        W15772  30.112  41.326  11.624
43447W        W15773  19.298  14.839  11.659
43448W        W15774  41.738   7.608  12.665
43449W        W15775  28.257   2.586   0.473
43450W        W15776  34.370  39.372   1.476
43451W        W15777  16.675  35.299  14.276
43452W        W15778  43.368  12.651   2.228
43453W        W15779  41.416  44.844  12.355
43454W        W15780   7.791  18.109  13.016
43455W        W15781  24.734  32.042   2.234
43456W        W15782   7.780  11.063  11.734
43457W        W15783  25.542  39.758  11.384
43458W        W15784   0.786  40.722   0.879
43459W        W15785   4.499  14.321  12.068
43460W        W15786  31.761   6.650   1.096
43461W        W15787  21.688  20.139  12.866
43462W        W15788  28.868  32.584   0.360
43463W        W15789  33.012  25.399   3.685
43464W        W15790  38.182   4.903  14.356
43465W        W15791  30.205  28.921  12.622
43466W        W15792  25.004  27.887  12.474
43467W        W15793  17.134  10.408  14.295
43468W        W15794  35.897   6.704  13.578
43469W        W15795  34.427  32.426   5.072
43470W        W15796  40.941  22.484  14.746
43471W        W15797   1.245  28.244  12.606
43472W        W15798  36.174   1.260  10.515
43473W        W15799   2.659   7.762   5.087
43474W        W15800  26.321  19.918  10.987
43475W        W15801   0.669   4.212  12.958
43476W        W15802  29.563  24.787  11.756
43477W        W15803   0.808  36.435  14.526
43478W        W15804  17.646  26.167  12.936
43479W        W15805  14.583  12.183  11.226
43480W        W15806  37.134  31.630  14.141
43481W        W15807   8.884   5.516  12.012
43482W        W15808  15.772  34.429   1.334
43483W        W15809  42.933   7.411   4.250
43484W        W15810   3.567  22.283  11.927
43485W        W15811  41.101   9.915  14.304
43486W        W15812   5.301   1.410  12.402
43487W        W15813  23.232  24.171   0.317
43488W        W15814  11.227  40.432   5.013
43489W        W15815   1.802  32.496  14.592
43490W        W15816  43.195  35.569   4.928
43491W        W15817   8.212  18.517   3.399
43492W        W15818  17.293  18.304  11.132
43493W        W15819  32.965  31.853   2.577
43494W        W15820   9.290  18.193  10.630
43495W        W15821  29.638  23.344  11.101
43496W        W15822  15.275   8.832  14.899
43497W        W15823  43.042  10.052   3.612
43498W        W15824  18.216   4.779   2.436
43499W        W15825   3.124  29.166   2.829
43500W        W15826  32.912  24.705   1.328
43501W        W15827  37.318  27.561   2.665
43502W        W15828  21.069  21.667  10.692
43503W        W15829   9.848   7.326   0.393
43504W        W15830  42.574  32.326  10.723
43505W        W15831  36.829  24.128  14.205
43506W        W15832   7.820  32.957   3.285
43507W        W15833  20.438  40.462   3.374
43508W        W15834  24.226  35.419   3.508
43509W        W15835  22.317  18.022   3.180
43510W        W15836  35.549   4.737   1.233
43511W        W15837  36.343  14.234  14.008
43512W        W15838  15.693  11.625  10.659
43513W        W15839  43.815  26.949  11.610
43514W        W15840  17.578  39.260  12.846
43515W        W15841  21.079   5.903  12.925
43516W        W15842  11.554  39.933  12.187
43517W        W15843  30.227  28.959   4.302
43518W        W15844  19.645  25.361  11.979
43519W        W15845  18.537  37.346  13.335
43520W        W15846  17.137  15.611   4.921
43521W        W15847  15.831  31.421  12.471
43522W        W15848  39.523  20.053  13.036
43523W        W15849  12.824  44.791   1.244
43524W        W15850  10.161  12.853   2.832
43525W        W15851  22.083  42.463   1.230
43526W        W15852  10.774  36.061  10.154
43527W        W15853  27.451  37.374  11.366
43528W        W15854  40.040  28.286   2.300
43529W        W15855  20.556   4.121  13.261
43530W        W15856   2.497  30.443   1.289
43531W        W15857  43.366  31.032   3.634
43532W        W15858  16.511  17.089  13.908
43533W        W15859  25.584  14.939   5.028
43534W        W15860  35.461  40.296  14.438
43535W        W15861  27.880  21.288  10.686
43536W        W15862  13.066   0.899   2.917
43537W        W15863  28.884  15.691   4.351
43538W        W15864   1.733   2.238   1.713
43539W        W15865  35.926   5.854  13.551
43540W        W15866  21.086  31.413  13.027
43541W        W15867  23.413   2.029  14.823
43542W        W15868  13.386  20.175  13.861
43543W        W15869  36.748  42.554  10.638
43544W        W15870  43.900  12.886   0.210
43545W        W15871  31.156  43.308   1.728
43546W        W15872  27.674  16.074   1.819
43547W        W15873  34.060  37.361   0.916
43548W        W15874  27.135   7.527  13.973
43549W        W15875  30.672  35.431   4.209
43550W        W15876  19.114  43.398  12.360
43551W        W15877  14.259  44.518  14.744
43552W        W15878  15.525  21.260  14.472
43553W        W15879  29.236   7.878   0.818
43554W        W15880  31.472  20.695  13.912
43555W        W15881  18.294  19.205   2.730
43556W        W15882  27.547  27.632   1.681
43557W        W15883  43.760   3.812  10.381
43558W        W15884   5.695  35.823   3.127
43559W        W15885  37.462  25.988   0.033
43560W        W15886  35.542   6.366   4.135
43561W        W15887  25.306  15.035   4.616
43562W        W15888  23.084  24.566  12.090
43563W        W15889  15.148  13.101   4.752
43564W        W15890  23.928  22.020  11.176
43565W        W15891  22.079  25.217   0.323
43566W        W15892  32.768   8.613   3.287
43567W        W15893  16.324  11.762  14.976
43568W        W15894  14.526   3.080   5.076
43569W        W15895  21.112  41.972   3.529
43570W        W15896  42.315   6.846  11.169
43571W        W15897   8.210  28.754  11.438
43572W        W15898   9.688  35.121   1.161
43573W        W15899   1.602  38.456  14.343
43574W        W15900  32.536   1.750   4.297
43575W        W15901  15.133   2.686  11.197
43576W        W15902  15.641  28.057  11.038
43577W        W15903  39.613  14.192   0.882
43578W        W15904   0.814  31.998  11.726
43579W        W15905   9.285  40.951   3.672
43580W        W15906  23.946  31.412  14.935
43581W        W15907  31.379  34.355   0.785
43582W        W15908   0.283  30.608   3.248
43583W        W15909  23.428  32.658  11.924
43584W        W15910  43.125  15.646  12.612
43585W        W15911  43.128   5.741   0.594
43586W        W15912   9.179  30.506   3.269
43587W        W15913  30.111   5.802  13.583
43588W        W15914   0.420  40.546   3.541
43589W        W15915  20.595  25.618   1.788
43590W        W15916  40.522  43.817   0.818
43591W        W15917  20.743  39.518  11.525
43592W        W15918  32.467   9.416   3.881
43593W        W15919  29.608  44.095  13.717
43594W        W15920   4.275  44.001  13.504
43595W        W15921  22.008   3.788  14.355
43596W        W15922  10.826  16.081   4.589
43597W        W15923  13.797  25.649  12.345
43598W        W15924   8.630  44.825   3.053
43599W        W15925   7.161   6.203  13.847
43600W        W15926  28.152  16.953  11.989
43601W        W15927  33.559  37.022  13.095
43602W        W15928   3.231  21.727   4.192
43603W        W15929   2.696  18.168  14.253
43604W        W15930  38.488  38.551  12.446
43605W        W15931   1.476  21.102  12.993
43606W        W15932  29.457   1.426   3.901
43607W        W15933  10.864  26.633   2.897
43608W        W15934  31.668  18.166  12.968
43609W        W15935  22.315  43.357   4.582
43610W        W15936  27.866  20.793  10.789
43611W        W15937  22.976  29.105   4.175
43612W        W15938  22.629   3.061  11.614
43613W        W15939  35.435  34.899  14.845
43614W        W15940  42.248  11.282  13.853
43615W        W15941  32.404   8.123  10.490
43616W        W15942  15.132   1.978  14.778
43617W        W15943   8.237  31.426   4.153
43618W        W15944  28.708  20.777  12.512
43619W        W15945  10.418  37.590   9.901
43620W        W15946  41.957  37.667   2.207
43621W        W15947  22.980  38.610   2.677
43622W        W15948  12.812  12.307  12.514
43623W        W15949   6.835  22.559  13.465
43624W        W15950  15.609  23.232  12.075
43625W        W15951   9.832  14.837  11.178
43626W        W15952  23.598  24.504  10.933
43627W        W15953  10.418  21.727   0.779
43628W        W15954  24.077  20.534   4.705
43629W        W15955  28.450  21.753   2.261
43630W        W15956  14.184  20.114   0.814
43631W        W15957  12.386   3.864  13.935
43632W        W15958  27.692  41.976   3.663
43633W        W15959   0.721   8.929  14.552
43634W        W15960  18.855  41.857  14.231
43635W        W15961  37.420   3.393  11.554
43636W        W15962  16.059   3.376   4.563
43637W        W15963  16.109   3.699   2.208
43638W        W15964  12.681  30.508   0.425
43639W        W15965  11.833  12.167  12.120
43640W        W15966  24.689  20.054  13.631
43641W        W15967  38.972  27.038  13.298
43642W        W15968  35.586  42.273   2.013
43643W        W15969  17.639  24.257   3.914
43644W        W15970  11.168  14.443   2.004
43645W        W15971  13.082  27.671  14.449
43646W        W15972  11.688  27.927   0.245
43647W        W15973  13.113  27.079   4.235
43648W        W15974  31.546   1.231   1.343
43649W        W15975  30.084  38.851   3.180
43650W        W15976   4.436  23.130   3.849
43651W        W15977  21.838  23.660   2.703
43652W        W15978   5.366  43.396   4.107
43653W        W15979  34.589  37.036   2.388
43654W        W15980  44.436  16.619   0.253
43655W        W15981  30.127  27.244  11.167
43656W        W15982  35.141   8.266  13.060
43657W        W15983  20.442  22.094  14.976
43658W        W15984   3.319   4.865   3.312
43659W        W15985  13.766  10.562   4.125
43660W        W15986  29.096  37.950  10.591
43661W        W15987  11.598  43.785  14.419
43662W        W15988  32.008  18.279  14.305
43663W        W15989   1.828  42.444   1.119
43664W        W15990  31.055  40.962  11.919
43665W        W15991  27.096  20.036   3.618
43666W        W15992  22.238  15.069   3.424
43667W        W15993  13.597  14.699   4.654
43668W        W15994  35.160  32.876   5.127
43669W        W15995  35.904  40.837  13.986
43670W        W15996  33.442  30.388  13.074
43671W        W15997   8.961   6.906   4.117
43672W        W15998   4.163  11.322  13.401
43673W        W15999  36.103   3.051   3.191
43674W        W16000  13.263  43.717   2.111
43675W        W16001  13.761  29.962  12.098
43676W        W16002  26.983  15.299  14.561
43677W        W16003  19.711  38.162   1.207
43678W        W16004  35.771  22.494  13.560
43679W        W16005  23.508  38.235  14.465
43680W        W16006  19.784  43.109   5.110
43681W        W16007   2.924  38.498  14.849
43682W        W16008   5.988  29.999   4.252
43683W        W16009   8.341   2.897  12.870
43684W        W16010  32.424  15.474  11.554
43685W        W16011  33.346   1.633   3.167
43686W        W16012  21.640  15.852   1.729
43687W        W16013   9.676  38.675   2.781
43688W        W16014  22.248  15.756  14.585
43689W        W16015  25.067  25.950   3.617
43690W        W16016  16.357   9.166  12.360
43691W        W16017  33.910  35.839   4.642
43692W        W16018  24.261  38.154  10.976
43693W        W16019  11.141  44.413  14.013
43694W        W16020  10.177  18.281  12.952
43695W        W16021  27.881  17.154  12.860
43696W        W16022  22.222   7.225   2.263
43697W        W16023  22.736  15.168   4.923
43698W        W16024  16.906  15.735  11.376
43699W        W16025  31.352  43.689  12.050
43700W        W16026  31.996   3.324   4.671
43701W        W16027  42.451   7.561   3.723
43702W        W16028  25.497   8.728  14.712
43703W        W16029   8.094  23.300  14.309
43704W        W16030  22.121   5.950   3.519
43705W        W16031  25.455  32.289   0.316
43706W        W16032   3.401  16.087  14.330
43707W        W16033  42.473  44.741  11.603
43708W        W16034   6.582  19.300   4.569
43709W        W16035  34.466  29.449   3.642
43710W        W16036  24.112  18.828   1.829
43711W        W16037  28.868   6.299  13.464
43712W        W16038   7.898  33.932   2.627
43713W        W16039  44.690  22.696   2.409
43714W        W16040  16.216   0.988   4.512
43715W        W16041   4.777  39.062   0.749
43716W        W16042   5.873   8.100  11.623
43717W        W16043  25.754  26.579   2.228
43718W        W16044  40.932   2.266  13.994
43719W        W16045   0.006  25.090  12.938
43720W        W16046  25.068  41.261  12.673
43721W        W16047  11.722  43.923  13.896
43722W        W16048  41.369  36.455  12.588
43723W        W16049   9.070   8.051   3.071
43724W        W16050  11.001  14.637   4.335
43725W        W16051   6.032  14.788   4.011
43726W        W16052  12.539  44.029   2.688
43727W        W16053   9.778  33.420  12.814
43728W        W16054  39.600   1.278  12.054
43729W        W16055   6.859  36.981   1.845
43730W        W16056   3.173  15.410   0.845
43731W        W16057  43.239  42.681  12.041
43732W        W16058  12.237  31.561   3.835
43733W        W16059   8.388  31.075   1.805
43734W        W16060   9.038   2.111  12.348
43735W        W16061  20.693  10.669   3.945
43736W        W16062   4.268  35.398   2.229
43737W        W16063  39.538  33.175   0.906
43738W        W16064  14.730  32.914   3.182
43739W        W16065  25.447   8.703  13.811
43740W        W16066  21.806  10.448  12.077
43741W        W16067  43.389  25.155  13.014
43742W        W16068   8.689  36.626   5.114
43743W        W16069  18.203  39.536  11.995
43744W        W16070  42.235  27.344   4.231
43745W        W16071  34.567  33.455   3.034
43746W        W16072  27.670  39.418   4.472
43747W        W16073  27.641  34.696   1.426
43748W        W16074  20.033  23.055   2.889
43749W        W16075  25.593  12.292   0.581
43750W        W16076  17.266  28.567   2.208
43751W        W16077   0.237  39.159  11.925
43752W        W16078  40.469  33.495  13.933
43753W        W16079  12.326  28.159   1.734
43754W        W16080  35.843  20.329  10.795
43755W        W16081  14.174  25.587   0.279
43756W        W16082   1.883   5.342   2.941
43757W        W16083  36.763   4.474   2.564
43758W        W16084  34.386   3.006   4.571
43759W        W16085   6.362   4.294   2.302
43760W        W16086  11.991  27.725  10.015
43761W        W16087  12.129  38.023   1.340
43762W        W16088  38.872   5.348   1.916
43763W        W16089   2.016   3.809  12.745
43764W        W16090   3.763   2.917  13.562
43765W        W16091  42.600   6.664  13.923
43766W        W16092  27.552  41.247  12.416
43767W        W16093  38.920  32.490   3.641
43768W        W16094  29.221  13.370  10.896
43769W        W16095  36.821  29.931  12.886
43770W        W16096  14.757  20.955   4.991
43771W        W16097  11.180   2.804  14.794
43772W        W16098  10.768  19.544   4.515
43773W        W16099  32.504  14.581  12.149
43774W        W16100  37.469   3.808  11.837
43775W        W16101  29.077  35.035   0.934
43776W        W16102  30.131  43.885  12.127
43777W        W16103  16.634  28.062   1.032
43778W        W16104  39.078  29.149   4.916
43779W        W16105  31.567  12.341   1.948
43780W        W16106  42.359  37.473  13.460
43781W        W16107  24.682  16.269   0.911
43782W        W16108  28.577  20.759   0.154
43783W        W16109  40.696   3.718  13.459
43784W        W16110  30.427  40.286   4.883
43785W        W16111  30.494   5.859   0.472
43786W        W16112   1.216   0.416   1.346
43787W        W16113  35.541  21.427   2.690
43788W        W16114   3.018  34.681  12.781
43789W        W16115  33.648  23.448   4.445
43790W        W16116   1.734  24.117  11.647
43791W        W16117  19.046   1.287   3.701
43792W        W16118  18.582  44.487   3.629
43793W        W16119  11.277  25.562   5.181
43794W        W16120   2.024  25.235  10.904
43795W        W16121  14.262  37.940  13.510
43796W        W16122  31.826  29.452   1.270
43797W        W16123  19.040  44.310  12.999
43798W        W16124   1.942   5.175   1.879
43799W        W16125  13.146  29.503  10.665
43800W        W16126  22.848  35.340  12.925
43801W        W16127  19.442  37.679   2.815
43802W        W16128  42.331  31.930  13.887
43803W        W16129  23.699  26.531  13.850
43804W        W16130  17.558  36.190  10.923
43805W        W16131  23.440  44.676  13.450
43806W        W16132  25.118  27.688  11.991
43807W        W16133   1.925  10.422   2.123
43808W        W16134  12.240  15.537   2.648
43809W        W16135  26.619  35.207  12.584
43810W        W16136  34.848  19.701   0.877
43811W        W16137  44.612   6.910   4.034
43812W        W16138  35.937  16.217   0.896
43813W        W16139  40.379  18.293   1.242
43814W        W16140  37.640  40.036   1.334
43815W        W16141  28.741  19.515   2.832
43816W        W16142  34.573  19.126   1.703
43817W        W16143  23.146  37.086  14.894
43818W        W16144  10.461  13.697   2.859
43819W        W16145   2.075  31.539  10.631
43820W        W16146  21.934  19.166  11.642
43821W        W16147  30.520  15.749  11.028
43822W        W16148  27.944  26.369  11.630
43823W        W16149  43.986  24.923   3.497
43824W        W16150  40.393  16.791   3.344
43825W        W16151  44.509  42.374  12.435
43826W        W16152   3.592  42.684   3.830
43827W        W16153  11.438  31.337   0.132
43828W        W16154  11.578  24.567  14.066
43829W        W16155   4.735  28.587   0.389
43830W        W16156  30.440  44.256   3.170
43831W        W16157  15.582   1.249  12.957
43832W        W16158   7.884  41.007  14.500
43833W        W16159  11.655  29.167  12.554
43834W        W16160  20.159   0.703   0.008
43835W        W16161  23.158  42.360  14.503
43836W        W16162  40.084  12.845  11.084
43837W        W16163  43.816   7.310   1.388
43838W        W16164   7.678  34.511  10.216
43839W        W16165   8.078   0.756   0.667
43840W        W16166  32.312  18.203  12.537
43841W        W16167  32.858  40.297  11.070
43842W        W16168   4.603  27.209   0.451
43843W        W16169  10.148  22.115  11.070
43844W        W16170  31.618  18.783  12.230
43845W        W16171   5.182  38.442   1.921
43846W        W16172  13.310  30.951   4.624
43847W        W16173  11.806  11.559   1.729
43848W        W16174  15.692   9.923   1.397
43849W        W16175  32.917   0.607  14.292
43850W        W16176  14.083  21.562  11.851
43851W        W16177  35.693  44.622  13.017
43852W        W16178   3.896   0.327   1.016
43853W        W16179  41.821  34.085   2.311
43854W        W16180  14.691  29.872   1.043
43855W        W16181  36.644  41.363  14.859
43856W        W16182  31.448  11.698   1.200
43857W        W16183  18.198  29.225   3.845
43858W        W16184  37.835  31.125  12.110
43859W        W16185  42.297  29.630  14.316
43860W        W16186   6.903  14.848   1.804
43861W        W16187  15.173   8.255   1.742
43862W        W16188  34.419  14.815   3.629
43863W        W16189  41.506   1.235   2.718
43864W        W16190  16.817  34.409  13.367
43865W        W16191   6.252  22.426  13.917
43866W        W16192  14.081  36.405   1.202
43867W        W16193  19.262  10.295  10.006
43868W        W16194  16.242   4.028   3.170
43869W        W16195  22.242  43.513   1.208
43870W        W16196  39.373  31.006   1.300
43871W        W16197  18.013  43.980   1.864
43872W        W16198  13.780  40.476   4.538
43873W        W16199  19.144  34.599  11.925
43874W        W16200  34.288  26.735   4.167
43875W        W16201   8.270   1.279  12.956
43876W        W16202  42.093  20.139  10.615
43877W        W16203  26.590  40.382  11.910
43878W        W16204   2.955  40.451  11.204
43879W        W16205  30.027   3.201  14.326
43880W        W16206   0.623  15.962  13.078
43881W        W16207   1.850  42.164  12.896
43882W        W16208   4.085  19.634   4.638
43883W        W16209  25.610   8.956   3.445
43884W        W16210  28.677  31.194   3.804
43885W        W16211  32.998  29.115  13.741
43886W        W16212  37.759  22.825   4.205
43887W        W16213  30.397  10.151   1.004
43888W        W16214  23.568  27.760  13.384
43889W        W16215   4.313  36.575   3.402
43890W        W16216  43.702  36.017   2.278
43891W        W16217  15.823  16.223   1.321
43892W        W16218  26.000  19.779   2.799
43893W        W16219   2.670  13.084  14.744
43894W        W16220  30.825  40.034   3.215
43895W        W16221  23.669   1.002   0.852
43896W        W16222  14.596  17.569   4.692
43897W        W16223   8.862   2.967  12.935
43898W        W16224  20.445  36.067  11.373
43899W        W16225  38.126  30.556   4.492
43900W        W16226  18.266  40.503  14.590
43901W        W16227  14.573  27.967   4.116
43902W        W16228  30.368  14.560  10.562
43903W        W16229  27.213  12.262   0.664
43904W        W16230  41.677   7.439  13.561
43905W        W16231  29.375  43.939  13.309
43906W        W16232   3.460  30.955  14.969
43907W        W16233   3.674  25.611   0.171
43908W        W16234  18.205  19.291  11.161
43909W        W16235  41.738  41.033  14.881
43910W        W16236  33.394   2.253   2.672
43911W        W16237  24.409  44.982   0.933
43912W        W16238  29.912  34.714  13.066
43913W        W16239  38.022  12.005  14.185
43914W        W16240   2.423  39.446   2.821
43915W        W16241  24.675   8.678  13.353
43916W        W16242   5.128  37.963  11.016
43917W        W16243  21.663  16.355  11.886
43918W        W16244   3.181   9.564   3.994
43919W        W16245   5.267  27.564   1.563
43920W        W16246  14.902  18.149  14.611
43921W        W16247  25.102  14.394  11.865
43922W        W16248  21.753   9.857  11.104
43923W        W16249  25.438  38.621  12.913
43924W        W16250  25.623  16.079  11.660
43925W        W16251  11.426  34.808  12.500
43926W        W16252  22.249  18.329  12.569
43927W        W16253  36.523  41.629   4.678
43928W        W16254   1.866   4.246  12.396
43929W        W16255   1.380  38.096  10.652
43930W        W16256  41.757  12.310   3.402
43931W        W16257  42.349  40.907  12.013
43932W        W16258  22.522  42.232  13.903
43933W        W16259  32.978  33.438   0.810
43934W        W16260  24.767  22.672  14.828
43935W        W16261   6.220   0.700   2.622
43936W        W16262  42.550   2.748   0.882
43937W        W16263  14.076  33.173  13.153
43938W        W16264   4.736  38.311  10.959
43939W        W16265  12.114  39.974  11.609
43940W        W16266   4.239  29.168  10.653
43941W        W16267  32.434  35.684   2.133
43942W        W16268  13.673  26.512   2.332
43943W        W16269  40.940  33.005   4.052
43944W        W16270  26.587  15.996  14.545
43945W        W16271   2.851  27.440  12.899
43946W        W16272   6.412   8.744  12.015
43947W        W16273  37.470   5.320   4.355
43948W        W16274   6.183  44.748  11.449
43949W        W16275  44.504  27.864  14.920
43950W        W16276  21.992  29.390   1.791
43951W        W16277   5.648  35.886  13.445
43952W        W16278  38.962  28.078  14.330
43953W        W16279  27.956  37.511   1.802
43954W        W16280  16.564   4.751  12.572
43955W        W16281   4.141  41.467  10.469
43956W        W16282   6.368  16.859  14.577
43957W        W16283  18.534  41.319  12.987
43958W        W16284  38.586   7.160  14.511
43959W        W16285  24.809  10.737   0.829
43960W        W16286   7.153  38.532   4.839
43961W        W16287  40.514  42.411  12.457
43962W        W16288  26.111  44.449  11.906
43963W        W16289  20.169  31.579   2.378
43964W        W16290   8.331   3.034  13.383
43965W        W16291  11.376  42.533   0.799
43966W        W16292  42.351  30.977   0.737
43967W        W16293   0.502  25.831   4.145
43968W        W16294  18.200   1.407  13.332
43969W        W16295  15.517  14.116   3.723
43970W        W16296  19.456  24.726  11.048
43971W        W16297  21.188  22.966  14.389
43972W        W16298  30.423  27.943  14.931
43973W        W16299  22.756  28.523  14.993
43974W        W16300  37.909  10.458   9.853
43975W        W16301  30.455  23.822   1.508
43976W        W16302   2.747   6.701   0.241
43977W        W16303   2.042  34.501   1.355
43978W        W16304  26.716   0.345  13.418
43979W        W16305   0.840  20.930   1.851
43980W        W16306  44.403  31.884   2.731
43981W        W16307   3.271  17.870   4.714
43982W        W16308  25.631  15.914  14.362
43983W        W16309   2.345  11.238  11.181
43984W        W16310  39.063  40.557  11.525
43985W        W16311   7.777  19.061  12.533
43986W        W16312   0.410  43.426   1.146
43987W        W16313   1.287  27.407   4.982
43988W        W16314  20.270   4.017   4.180
43989W        W16315  19.761  10.351  10.237
43990W        W16316  25.982  42.899  11.708
43991W        W16317  38.866  28.884  11.697
43992W        W16318  43.898  41.501  10.725
43993W        W16319  19.295  36.002  10.661
43994W        W16320   3.805  34.016   2.891
43995W        W16321   2.312  20.500  10.611
43996W        W16322   1.260   5.380   4.393
43997W        W16323  12.768  24.086   3.624
43998W        W16324  35.853  29.898  11.441
43999W        W16325  15.923  39.861  12.378
44000W        W16326  37.321  21.041   2.199
44001W        W16327   4.484   9.869   5.230
44002W        W16328  14.853   3.916  11.534
44003W        W16329  40.848  39.863   0.382
44004W        W16330  24.180   1.236  12.992
44005W        W16331  24.210   1.299   1.263
44006W        W16332  12.665   6.873   4.315
44007W        W16333  19.886  28.616   1.981
44008W        W16334  32.630  12.940   0.150
44009W        W16335  34.545  37.119  11.638
44010W        W16336  15.232  33.184  13.895
44011W        W16337  39.495  10.876   5.068
44012W        W16338   5.993  23.341  10.366
44013W        W16339  13.195  26.963  12.310
44014W        W16340   8.948  32.440   1.265
44015W        W16341   8.711   2.885  13.926
44016W        W16342  16.722  40.769   3.900
44017W        W16343   8.890   5.418  14.669
44018W        W16344  41.856   0.105   0.804
44019W        W16345  10.233  40.859  10.533
44020W        W16346   6.696  21.319   4.072
44021W        W16347  18.101  20.038  14.961
44022W        W16348  11.322  44.895  14.283
44023W        W16349  41.005   7.985  13.550
44024W        W16350   0.236  12.244   2.797
44025W        W16351  21.550  34.452   4.682
44026W        W16352  17.263   7.349  14.319
44027W        W16353   1.723  33.426   4.833
44028W        W16354  14.261  26.704  13.698
44029W        W16355   6.789  34.586   2.611
44030W        W16356   6.436   8.560  13.937
44031W        W16357  34.425  22.606   2.684
44032W        W16358  27.891  38.402  12.513
44033W        W16359   8.497  23.580  11.401
44034W        W16360  13.833  26.225   3.899
44035W        W16361  25.967  42.402   3.243
44036W        W16362  38.836  22.201   3.401
44037W        W16363   4.078   9.686   4.958
44038W        W16364  43.195   7.095   1.430
44039W        W16365  44.005  17.469   0.768
44040W        W16366   3.151  37.475   4.116
44041W        W16367   8.888  26.092  12.910
44042W        W16368   6.154  26.095  11.633
44043W        W16369  16.063  28.649   0.380
44044W        W16370  13.868  31.621   4.400
44045W        W16371  31.139  40.769   2.733
44046W        W16372  31.663  43.323   1.857
44047W        W16373  18.336  21.304   1.604
44048W        W16374  23.067  26.694  14.952
44049W        W16375  35.878   7.223  10.382
44050W        W16376  12.160  41.778   3.691
44051W        W16377  12.264  39.367   4.705
44052W        W16378  30.623  36.309   1.694
44053W        W16379  15.561   1.827   2.803
44054W        W16380  26.936  28.590   2.941
44055W        W16381   8.482  10.290   1.861
44056W        W16382   7.623  16.370   2.237
44057W        W16383  19.640  28.477   1.517
44058W        W16384  17.134   3.325  10.263
44059W        W16385  11.367  22.707   4.865
44060W        W16386  21.990  23.800  13.739
44061W        W16387  30.631  20.050  11.909
44062W        W16388  16.827   7.867   4.198
44063W        W16389   4.494  10.249   3.300
44064W        W16390  37.472  32.156   2.786
44065W        W16391  23.199  33.875   3.313
44066W        W16392   3.501  21.609   5.538
44067W        W16393  10.995  28.806   1.816
44068W        W16394  10.146  32.599  14.380
44069W        W16395  26.025  19.151  13.106
44070W        W16396  10.183  30.866   0.410
44071W        W16397  22.127  35.363   0.464
44072W        W16398  13.086  31.187   2.418
44073W        W16399   4.814  36.778  13.851
44074W        W16400  43.805   0.923  13.571
44075W        W16401  32.642  43.760  11.664
44076W        W16402   8.261  37.616   0.876
44077W        W16403  29.984  27.082   2.940
44078W        W16404  29.664  19.425  13.496
44079W        W16405  15.603  43.269  14.348
44080W        W16406  31.861  37.530   2.233
44081W        W16407  26.942  26.164  10.559
44082W        W16408  38.376  11.157   3.760
44083W        W16409   2.852  43.892   3.887
44084W        W16410  10.650  33.921   3.839
44085W        W16411   8.828  17.147  12.010
44086W        W16412  11.449  36.349  13.393
44087W        W16413  41.757  33.486   2.330
44088W        W16414  39.530  36.861  13.569
44089W        W16415  42.731  18.985  10.933
44090W        W16416  26.189  18.955   4.777
44091W        W16417  32.169   9.823  10.712
44092W        W16418  42.840   2.891  11.146
44093W        W16419   2.137  36.404  14.222
44094W        W16420  13.124  34.608   0.314
44095W        W16421   4.835  42.892  12.943
44096W        W16422  28.182  17.401   0.857
44097W        W16423  24.789  35.971  13.446
44098W        W16424  32.461  31.440   0.309
44099W        W16425  26.691   4.183  14.752
44100W        W16426   5.856   3.478  13.145
44101W        W16427  18.386   7.313   1.360
44102W        W16428  17.363  13.698   5.054
44103W        W16429  25.899  41.894  12.051
44104W        W16430  36.184   6.662  14.495
44105W        W16431   8.343  38.560   4.222
44106W        W16432  37.961   8.750   0.894
44107W        W16433   7.107  34.422   1.701
44108W        W16434  35.056  38.916  13.869
44109W        W16435  36.758  20.324  12.897
44110W        W16436  21.245  23.047  12.892
44111W        W16437  15.151  18.011   3.612
44112W        W16438  22.568  11.814  10.704
44113W        W16439  13.130  26.752   0.849
44114W        W16440  42.048  28.155   5.128
44115W        W16441   0.734  38.884  10.618
44116W        W16442  41.627  17.279   3.216
44117W        W16443  37.442  40.959  12.566
44118W        W16444  15.366  30.638  11.926
44119W        W16445  32.392   7.682  12.957
44120W        W16446  35.963  24.440   0.847
44121W        W16447  23.076  14.236  11.138
44122W        W16448  19.452  40.268  13.967
44123W        W16449  19.991   1.737   4.399
44124W        W16450  11.659  24.984   1.352
44125W        W16451  38.887  29.294  13.503
44126W        W16452  16.526  13.073  13.425
44127W        W16453   2.701   8.323  11.981
44128W        W16454  19.644  24.838  12.025
44129W        W16455   0.957  11.619  12.023
44130W        W16456  15.215   8.207  11.721
44131W        W16457  28.946  40.254  13.843
44132W        W16458  40.485  29.420  10.431
44133W        W16459   1.918   2.305  14.264
44134W        W16460   9.820  13.674   0.727
44135W        W16461  41.482   6.057   1.813
44136W        W16462   8.425  13.179  13.922
44137W        W16463  24.794   9.917   1.978
44138W        W16464   6.164   9.346  13.402
44139W        W16465  22.249  11.151  13.246
44140W        W16466   5.249   8.278   4.821
44141W        W16467  34.996  12.341  13.349
44142W        W16468  40.032  17.610   2.881
44143W        W16469   5.173  21.258  10.683
44144W        W16470  26.068   7.492  12.485
44145W        W16471   6.155   5.025  10.934
44146W        W16472  15.785  16.582  13.514
44147W        W16473  15.185  23.029  11.811
44148W        W16474  28.669  34.672  13.825
44149W        W16475  20.761  26.578   0.514
44150W        W16476  14.761  31.658  14.253
44151W        W16477  33.308  42.946   5.117
44152W        W16478  25.125  10.529  14.052
44153W        W16479  28.192  11.506  12.612
44154W        W16480  10.155   1.494  11.575
44155W        W16481  14.862  36.810   4.016
44156W        W16482  39.671   7.779   2.218
44157W        W16483  17.816  38.376   1.362
44158W        W16484  14.123  40.923  13.601
44159W        W16485  23.830  11.583  12.480
44160W        W16486  42.522  21.463  13.088
44161W        W16487  12.537  10.308   3.722
44162W        W16488  20.395  24.199   0.779
44163W        W16489  36.650  17.761  11.057
44164W        W16490  24.933  13.334   1.945
44165W        W16491  40.279   6.264   2.445
44166W        W16492  27.994  16.069   2.328
44167W        W16493  39.742   3.721   3.257
44168W        W16494  27.615   1.951   3.476
44169W        W16495  28.212  26.507  12.810
44170W        W16496  37.502  43.495   3.534
44171W        W16497  15.657   0.267   3.851
44172W        W16498  14.129   8.323   4.103
44173W        W16499  20.824  11.655   0.077
44174W        W16500   8.196  21.109  11.178
44175W        W16501   8.764  35.413  11.461
44176W        W16502  42.261   9.287   0.789
44177W        W16503  23.540  12.347  12.289
44178W        W16504  31.070  44.537   4.616
44179W        W16505   4.951  10.874   4.537
44180W        W16506  39.536  38.545  11.970
44181W        W16507   0.863  29.557   2.108
44182W        W16508  29.110  34.548   3.159
44183W        W16509   6.986  25.262  11.104
44184W        W16510  19.319  30.441   1.806
44185W        W16511  29.646   7.496   0.774
44186W        W16512  38.401  31.871  12.952
44187W        W16513  37.942  24.736   0.770
44188W        W16514   8.465  38.925   4.556
44189W        W16515  19.711   2.168   4.225
44190W        W16516  23.754  43.982   2.265
44191W        W16517  28.858   9.440   4.381
44192W        W16518  43.317   0.952  12.194
44193W        W16519  13.624   3.436   2.262
44194W        W16520  12.134  27.423  14.341
44195W        W16521  13.057  34.399  14.849
44196W        W16522  33.569  27.584   4.055
44197W        W16523  14.249  33.683   0.312
44198W        W16524  38.356  35.292  12.843
44199W        W16525  27.177  43.462  11.855
44200W        W16526  24.242   1.338   2.060
44201W        W16527   8.089   9.297   0.549
44202W        W16528  26.691   9.592   2.315
44203W        W16529  21.241  15.829  12.536
44204W        W16530  15.839  24.922   2.947
44205W        W16531   7.260  15.575  12.476
44206W        W16532  43.585  32.732  14.536
44207W        W16533  16.188  27.928  10.897
44208W        W16534  31.852   6.972  14.307
44209W        W16535   7.150  32.162   0.261
44210W        W16536  23.607   7.975   3.175
44211W        W16537   9.496   2.822   3.212
44212W        W16538  40.432  41.385  13.811
44213W        W16539  20.914  11.807  14.068
44214W        W16540  17.191   0.935  10.060
44215W        W16541  18.367  14.189   0.267
44216W        W16542  22.234   0.886  12.547
44217W        W16543  14.727   1.888   3.352
44218W        W16544   5.801  39.695  13.102
44219W        W16545   0.058  25.266   5.045
44220W        W16546  34.016   1.096  11.206
44221W        W16547  30.932  25.494  13.840
44222W        W16548  41.819  13.097  12.650
44223W        W16549  37.206  22.191   3.600
44224W        W16550  43.594  19.227   1.488
44225W        W16551   4.907  28.166   4.509
44226W        W16552  10.870   7.584  11.081
44227W        W16553  32.784  26.765  12.315
44228W        W16554   9.775  16.657  11.711
44229W        W16555  36.501   2.980  14.331
44230W        W16556  40.421  14.659   2.690
44231W        W16557  10.001  34.809  11.459
44232W        W16558   3.334  23.880   5.623
44233W        W16559   1.789  17.335  14.905
44234W        W16560   1.329  35.556  13.443
44235W        W16561  39.502   5.318  13.976
44236W        W16562  34.603   9.399   1.402
44237W        W16563  14.567   8.272   1.445
44238W        W16564  41.022  32.552   3.274
44239W        W16565  43.070  33.090   2.737
44240W        W16566   6.555   9.858   0.776
44241W        W16567  24.536  15.367   2.154
44242W        W16568  27.518  25.438   9.680
44243W        W16569  40.981  13.669  12.015
44244W        W16570  24.233  11.831   4.730
44245W        W16571  30.792  36.824   0.445
44246W        W16572  16.332  22.503   0.572
44247W        W16573  21.682   5.945   0.928
44248W        W16574  13.893  26.766   1.350
44249W        W16575  21.726   4.890  14.969
44250W        W16576   0.413  32.149   4.052
44251W        W16577  19.081  25.412   3.748
44252W        W16578  25.609  32.061   1.333
44253W        W16579   7.432  43.649  11.450
44254W        W16580  36.990   6.871  12.543
44255W        W16581  10.853  23.951   4.565
44256W        W16582  27.736  25.610  11.604
44257W        W16583   5.194   6.365  10.201
44258W        W16584  21.680   8.338  13.997
44259W        W16585  44.431  38.494  14.892
44260W        W16586  21.404  33.159  12.230
44261W        W16587  13.903  26.700  14.057
44262W        W16588  15.587  23.991   3.923
44263W        W16589  33.005   2.538   0.611
44264W        W16590  35.025  24.280  10.596
44265W        W16591  14.298  42.536  12.900
44266W        W16592  29.481  42.280  12.452
44267W        W16593  22.544  20.201   9.929
44268W        W16594  36.513  17.317   0.982
44269W        W16595  35.389   9.879  13.895
44270W        W16596   5.325   7.254   4.521
44271W        W16597  20.280  23.687  13.415
44272W        W16598  16.651  36.376   3.800
44273W        W16599   1.438  11.122  14.477
44274W        W16600  18.484  41.386   0.927
44275W        W16601  30.963   8.603  11.578
44276W        W16602   2.907  30.007   3.102
44277W        W16603  38.926   9.788  14.965
44278W        W16604  12.505  30.608   1.345
44279W        W16605  26.540  39.031   3.714
44280W        W16606   4.945  36.408  12.457
44281W        W16607  18.140  13.057   4.501
44282W        W16608   6.259  15.677  10.787
44283W        W16609  16.068   3.120   2.850
44284W        W16610  44.899  36.890  10.633
44285W        W16611  14.577   5.832   2.760
44286W        W16612  33.193  25.636   2.588
44287W        W16613  27.180  32.534  13.055
44288W        W16614   8.881   4.839  13.934
44289W        W16615  28.056  24.730   2.770
44290W        W16616  40.107  33.824   0.301
44291W        W16617  20.206  19.193  12.138
44292W        W16618  21.537  36.939   0.421
44293W        W16619  35.114  21.747  14.927
44294W        W16620  33.524  14.858  11.534
44295W        W16621  17.145   5.707   3.183
44296W        W16622   7.921  33.468   3.170
44297W        W16623  39.100  10.337  12.008
44298W        W16624  12.424  35.666   0.961
44299W        W16625  38.430  40.676   2.155
44300W        W16626  42.428  28.435  13.318
44301W        W16627  20.572  43.977  14.353
44302W        W16628  32.550  37.048   1.543
44303W        W16629  37.312   9.838   1.879
44304W        W16630  13.526   1.793   1.182
44305W        W16631  29.327  19.096   1.831
44306W        W16632  23.966  40.785  13.980
44307W        W16633  20.052  12.316  12.126
44308W        W16634  33.084  27.198   4.206
44309W        W16635   4.696  21.063   0.460
44310W        W16636  35.965   1.748  12.586
44311W        W16637  16.448  40.655   1.716
44312W        W16638  32.950  27.220   0.938
44313W        W16639  36.624  20.708  14.816
44314W        W16640  11.701  10.553  12.304
44315W        W16641  17.097  33.083  13.882
44316W        W16642  32.904  42.705   4.771
44317W        W16643  40.263  15.169   1.812
44318W        W16644  13.730   4.703   3.281
44319W        W16645  10.101   9.804  10.676
44320W        W16646   2.470  25.814   4.122
44321W        W16647   6.771   3.700   4.799
44322W        W16648  16.408  19.342   2.783
44323W        W16649  34.531   1.231   1.431
44324W        W16650  16.784  23.349   1.986
44325W        W16651   4.873   1.777   4.310
44326W        W16652  28.170  18.132   2.021
44327W        W16653  34.926  22.281  14.088
44328W        W16654  28.433  34.137  12.570
44329W        W16655  25.404  36.968  10.795
44330W        W16656   8.932  21.346  12.647
44331W        W16657  40.545  20.031  10.729
44332W        W16658  23.730  38.796  11.180
44333W        W16659  43.842  41.328  12.846
44334W        W16660  39.634   6.202   4.657
44335W        W16661   3.974  37.897  12.468
44336W        W16662  29.344   1.257  10.792
44337W        W16663  42.806   6.657  11.136
44338W        W16664  16.116   8.695  13.425
44339W        W16665   0.039   3.407  13.049
44340W        W16666  42.639   8.979  11.045
44341W        W16667  17.539  27.044  12.460
44342W        W16668   7.285   3.862   2.401
44343W        W16669  10.629  31.950   1.909
44344W        W16670  25.950   7.861   1.226
44345W        W16671  42.006  30.671   2.912
44346W        W16672  24.518  37.076  12.806
44347W        W16673  42.305  27.966   2.697
44348W        W16674   2.247   1.880  14.047
44349W        W16675  44.359  18.572  13.963
44350W        W16676  41.247   3.029   2.167
44351W        W16677  41.843  23.805   2.132
44352W        W16678  14.657  37.866  12.408
44353W        W16679  39.005  23.146   4.312
44354W        W16680   0.375  29.886  11.853
44355W        W16681  29.102  27.622  13.987
44356W        W16682  17.629  36.319  14.844
44357W        W16683  20.686  41.889  14.270
44358W        W16684   1.577   0.349  13.361
44359W        W16685  39.770  23.953  11.143
44360W        W16686   1.925  30.671   3.060
44361W        W16687   8.832   8.851  12.923
44362W        W16688  23.616  14.016  12.433
44363W        W16689  27.666  11.086   1.459
44364W        W16690  26.597   5.280   1.317
44365W        W16691  42.276   3.135  12.003
44366W        W16692   0.302  42.315   4.086
44367W        W16693  31.879  16.179  14.921
44368W        W16694  16.319  25.499  12.526
44369W        W16695  39.465  11.164  12.121
44370W        W16696  33.463  36.048  13.910
44371W        W16697  17.215  30.943  12.934
44372W        W16698   3.644  30.444  14.892
44373W        W16699   9.630  44.163   2.706
44374W        W16700  14.381  26.550   9.892
44375W        W16701  37.421  40.071   4.354
44376W        W16702  25.430  39.981  11.833
44377W        W16703  26.278  26.428   5.531
44378W        W16704  22.250  20.510   3.629
44379W        W16705  39.882  17.639  12.779
44380W        W16706  16.834  29.328   1.475
44381W        W16707  38.532  33.589   3.341
44382W        W16708  29.403  29.493  12.425
44383W        W16709  15.993  35.450   0.366
44384W        W16710   7.634  32.427   4.078
44385W        W16711  16.742   7.751   1.131
44386W        W16712  13.414  22.720  13.560
44387W        W16713   7.338  12.451   0.385
44388W        W16714  42.550   1.412  12.950
44389W        W16715  27.965   0.260  12.671
44390W        W16716  12.174  16.703   0.638
44391W        W16717  33.791   2.776   3.436
44392W        W16718  29.914  17.171   3.160
44393W        W16719  21.636  13.866   2.317
44394W        W16720  20.480  15.143   2.389
44395W        W16721  21.788  11.849  11.945
44396W        W16722  10.155  31.729  11.677
44397W        W16723  25.137  25.667   4.055
44398W        W16724  39.056  29.460   0.377
44399W        W16725  26.716   8.111  12.464
44400W        W16726  10.325  43.942  14.965
44401W        W16727  10.366   2.115  12.205
44402W        W16728  10.311   1.418   2.132
44403W        W16729  20.719  19.281   3.380
44404W        W16730  40.517  37.109  13.995
44405W        W16731  35.584   3.831   1.187
44406W        W16732  41.377   5.836  10.729
44407W        W16733  15.744  11.648  12.647
44408W        W16734  30.578  26.568   3.689
44409W        W16735  36.314   2.120  13.199
44410W        W16736  13.694  44.187   2.745
44411W        W16737  31.065  33.843  13.473
44412W        W16738  41.688   3.384  10.204
44413W        W16739  28.585  19.991  14.734
44414W        W16740   2.853  36.186   3.150
44415W        W16741  32.901  40.404   3.680
44416W        W16742  27.072  10.841  14.990
44417W        W16743  15.150  13.147   4.229
44418W        W16744  29.889  10.357  12.588
44419W        W16745  43.662  26.882  12.096
44420W        W16746  21.745  36.986   9.412
44421W        W16747  41.649  25.358  13.666
44422W        W16748  12.183  35.911   2.348
44423W        W16749   4.807  32.502   0.643
44424W        W16750  38.879  30.095  14.210
44425W        W16751  25.798  38.864   4.133
44426W        W16752   3.259  11.178   0.062
44427W        W16753  19.602   9.888  10.700
44428W        W16754  20.612  20.466  10.623
44429W        W16755   0.082  38.660  13.956
44430W        W16756  22.916  32.589   3.339
44431W        W16757   8.576  14.968   0.920
44432W        W16758  12.277  20.204  10.729
44433W        W16759   4.441  39.822  11.436
44434W        W16760  28.181  39.948  12.523
44435W        W16761   5.156  22.277   2.732
44436W        W16762   5.698  23.203   4.812
44437W        W16763  34.382  10.418   1.329
44438W        W16764   6.800   4.399  13.273
44439W        W16765  24.000  15.543  10.153
44440W        W16766  10.945  22.659   1.501
44441W        W16767   7.362   5.715  13.866
44442W        W16768   6.371  38.020  12.625
44443W        W16769   5.277  30.480  12.040
44444W        W16770  24.967  33.374   1.769
44445W        W16771   5.974  15.285   1.350
44446W        W16772   3.289  22.600  13.505
44447W        W16773  33.862  16.209   1.910
44448W        W16774  29.801  11.555   4.629
44449W        W16775   5.701  21.262  10.735
44450W        W16776   6.293  38.406   0.973
44451W        W16777  19.779  33.283  13.902
44452W        W16778  29.537  12.828   3.308
44453W        W16779   0.046  43.937   3.602
44454W        W16780   3.165  21.833   2.869
44455W        W16781   0.507   7.155  10.853
44456W        W16782  25.991   4.281  13.541
44457W        W16783  27.192  14.351   3.671
44458W        W16784   2.669  31.457  12.883
44459W        W16785  25.701   1.813  13.394
44460W        W16786   0.857  21.444  14.516
44461W        W16787  36.627  21.735  12.474
44462W        W16788  21.244  42.052  14.790
44463W        W16789  33.690  27.042   0.035
44464W        W16790  12.798   7.276  12.000
44465W        W16791   4.346   8.610   0.559
44466W        W16792  14.214  41.474   2.202
44467W        W16793   5.816  37.185   1.233
44468W        W16794  32.679   3.464  12.459
44469W        W16795   3.639  39.055  13.044
44470W        W16796  28.509   4.859  12.142
44471W        W16797  37.646   1.850  12.399
44472W        W16798  22.966  32.645   1.526
44473W        W16799  22.254   2.426   2.840
44474W        W16800   0.923  20.126  10.455
44475W        W16801  44.179  22.037   2.323
44476W        W16802   0.082  18.257  11.529
44477W        W16803  34.329  28.958  11.340
44478W        W16804  40.852  37.488  14.828
44479W        W16805  22.629  27.779  11.068
44480W        W16806  13.743  35.681   1.808
44481W        W16807  20.656  35.841  14.808
44482W        W16808  22.765  43.261  14.030
44483W        W16809  33.917  36.318  11.562
44484W        W16810  41.768   3.056   1.462
44485W        W16811  12.765   0.447   3.367
44486W        W16812  34.965  30.417   0.726
44487W        W16813  27.693  23.049   1.211
44488W        W16814  35.924   0.266   0.017
44489W        W16815  15.034  43.405   2.353
44490W        W16816  17.509  39.322   3.505
44491W        W16817  10.087  43.926   2.217
44492W        W16818   4.713  27.637  13.532
44493W        W16819  34.910  14.077   0.888
44494W        W16820  15.655   2.713   4.699
44495W        W16821  12.203  39.886   4.563
44496W        W16822   1.790  27.425  11.608
44497W        W16823  11.192  18.124  13.877
44498W        W16824  13.090  26.810   4.676
44499W        W16825  31.273  33.577  12.983
44500W        W16826  12.284   4.731   1.288
44501W        W16827   9.977  24.784   0.905
44502W        W16828  20.810   1.939   2.735
44503W        W16829  36.493  29.457  13.600
44504W        W16830  11.342  42.089   3.258
44505W        W16831   4.615  18.423   4.107
44506W        W16832   4.666  16.222  13.810
44507W        W16833   2.914  33.999   0.842
44508W        W16834   0.300  13.676   0.549
44509W        W16835  41.428  43.230   0.748
44510W        W16836  14.126  21.489   2.672
44511W        W16837  10.450  18.190  14.536
44512W        W16838  41.942   2.475   2.611
44513W        W16839  19.951   6.256  12.523
44514W        W16840  30.864  29.135  12.875
44515W        W16841  25.661  23.953  14.830
44516W        W16842   0.275  32.035   4.544
44517W        W16843  35.137  19.754   3.805
44518W        W16844   1.128  25.613   1.607
44519W        W16845  36.577  33.671  10.777
44520W        W16846   1.532  20.833  11.462
44521W        W16847  31.692   4.536   0.982
44522W        W16848   4.329  23.473  10.275
44523W        W16849  15.009  21.993   4.325
44524W        W16850   4.758   7.960   2.818
44525W        W16851  14.835   1.956   4.802
44526W        W16852  34.927  33.656  13.377
44527W        W16853  27.629   0.013  13.424
44528W        W16854  24.619  37.423   0.354
44529W        W16855  23.061   0.316  12.748
44530W        W16856  16.287  30.408  13.336
44531W        W16857  15.313  18.061   2.281
44532W        W16858  40.243  29.631  12.122
44533W        W16859  11.716  34.927  13.363
44534W        W16860  16.139  26.163   4.801
44535W        W16861  27.139  13.586  14.470
44536W        W16862  42.401  24.730  12.373
44537W        W16863  24.561  17.275  14.900
44538W        W16864  20.347   7.712  11.118
44539W        W16865  19.968  40.391  13.888
44540W        W16866  16.789  39.109   1.969
44541W        W16867  10.086  20.892   0.823
44542W        W16868  27.592  17.380  11.355
44543W        W16869   3.102   3.799   2.776
44544W        W16870  32.017  16.222   3.255
44545W        W16871  33.759  33.977   3.683
44546W        W16872  17.674  30.922   2.218
44547W        W16873   4.324  24.273   3.377
44548W        W16874  41.472  35.020   4.211
44549W        W16875  33.576  40.550   3.163
44550W        W16876  36.721   2.972  10.691
44551W        W16877   5.250  32.624  10.755
44552W        W16878  26.956   0.969  12.991
44553W        W16879  15.646  12.854   3.147
44554W        W16880  21.084  11.811   2.715
44555W        W16881  34.823  41.486  14.975
44556W        W16882   1.641  10.192   3.868
44557W        W16883   1.848   2.243  12.755
44558W        W16884  24.041   0.013  10.699
44559W        W16885  26.110  34.785  10.975
44560W        W16886  39.883  10.531  10.694
44561W        W16887  32.745  28.420  11.640
44562W        W16888  34.010  30.609   4.550
44563W        W16889   7.418  14.148   1.992
44564W        W16890  19.523   5.950  14.608
44565W        W16891  33.946  43.778  14.467
44566W        W16892  25.967  31.526   0.942
44567W        W16893  12.804  13.213   3.768
44568W        W16894  37.560  23.144   3.810
44569W        W16895  20.426  14.052   5.121
44570W        W16896  34.664  23.690   2.715
44571W        W16897  38.113  11.742  11.441
44572W        W16898   8.646  19.623  14.607
44573W        W16899  35.793  12.437   4.207
44574W        W16900   5.162  14.358  14.768
44575W        W16901   9.692  11.790  14.567
44576W        W16902  44.277  32.739   5.149
44577W        W16903  27.070  41.233   2.833
44578W        W16904  29.497   3.528   5.170
44579W        W16905  42.281   8.184  14.276
44580W        W16906  18.572  35.228   0.326
44581W        W16907   1.155  28.996   3.024
44582W        W16908  27.184  17.835  12.871
44583W        W16909  26.272   0.340   1.317
44584W        W16910   6.540  43.579   1.309
44585W        W16911  22.594  25.509  13.048
44586W        W16912  44.241  12.702   4.819
44587W        W16913  34.602   7.904   0.238
44588W        W16914  30.055  33.153   3.974
44589W        W16915   0.828  20.715   2.340
44590W        W16916   3.464  12.309  14.080
44591W        W16917  35.829   5.314  12.825
44592W        W16918   0.822   4.960   3.713
44593W        W16919   6.363   7.717   0.903
44594W        W16920  20.297  30.070  14.827
44595W        W16921  21.821  21.288   3.567
44596W        W16922  39.054  33.147  10.783
44597W        W16923  32.859  43.516  12.090
44598W        W16924  36.741  20.200  14.832
44599W        W16925   8.244  11.345   1.372
44600W        W16926   8.607  18.341   0.255
44601W        W16927  40.811  19.040  14.464
44602W        W16928  24.893  44.309   1.344
44603W        W16929  29.672  28.539  11.888
44604W        W16930  24.269   2.962  13.455
44605W        W16931  17.366  29.368  13.362
44606W        W16932   1.265  19.621   1.538
44607W        W16933  12.094  30.424   4.299
44608W        W16934  11.913  39.105  11.675
44609W        W16935   5.734  22.588  12.323
44610W        W16936  33.473  28.422   2.215
44611W        W16937  37.117   8.596   2.148
44612W        W16938  16.076   1.318   0.791
44613W        W16939  17.297  41.864  12.023
44614W        W16940   4.627  33.615   0.294
44615W        W16941   5.434  31.158  11.519
44616W        W16942   4.768  42.448  12.647
44617W        W16943   9.557   1.309   4.045
44618W        W16944   0.492   6.132  12.877
44619W        W16945  14.945  40.951  14.040
44620W        W16946  35.518  25.246  13.310
44621W        W16947   2.767  32.592   2.634
44622W        W16948  39.553  22.045   3.619
44623W        W16949   6.513   0.941  14.736
44624W        W16950  38.825  29.480  12.086
44625W        W16951  16.372  16.949  11.630
44626W        W16952  40.087   0.462   4.588
44627W        W16953   8.819  14.741   2.774
44628W        W16954   1.225   9.454  10.676
44629W        W16955  12.138  19.627   0.767
44630W        W16956   5.837   0.755  10.823
44631W        W16957  25.506  20.721   1.907
44632W        W16958  19.212   9.202  14.019
44633W        W16959  43.787  20.807  13.627
44634W        W16960  20.110  28.950   2.746
44635W        W16961  37.845  38.195  13.729
44636W        W16962   4.374  21.090  13.585
44637W        W16963  29.059  15.952  14.517
44638W        W16964  21.456  37.962  13.829
44639W        W16965   1.020  12.179  13.929
44640W        W16966   0.001  36.394  12.580
44641W        W16967  22.007  29.958  11.143
44642W        W16968  29.655  35.650   5.078
44643W        W16969   9.267  40.478   4.684
44644W        W16970  36.340  22.668   0.679
44645W        W16971  41.531  27.198   0.058
44646W        W16972  21.068  40.615   5.113
44647W        W16973  37.473   8.775  12.054
44648W        W16974   8.638  28.536   3.136
44649W        W16975  39.849  29.745   2.166
44650W        W16976  29.927  13.601  12.468
44651W        W16977  37.592  30.536  13.389
44652W        W16978  15.183  29.225  12.377
44653W        W16979  38.420  31.088  10.860
44654W        W16980  43.728  35.540  12.438
44655W        W16981  44.771  33.544   2.303
44656W        W16982  30.101  22.000   1.987
44657W        W16983  12.832  24.759  11.075
44658W        W16984   1.763  38.670  11.175
44659W        W16985  15.055  42.107   1.632
44660W        W16986  28.495   5.269   4.143
44661W        W16987   5.806  29.874  12.564
44662W        W16988  39.611  39.701   3.622
44663W        W16989   8.887  34.058   2.153
44664W        W16990   1.885  24.362  13.710
44665W        W16991  34.819  39.943   3.116
44666W        W16992  43.740   4.606  11.143
44667W        W16993   2.016  28.572  13.618
44668W        W16994  16.278  42.433   1.017
44669W        W16995  15.245  14.621   0.147
44670W        W16996  21.017  10.298   1.299
44671W        W16997   2.673   8.174  14.987
44672W        W16998  40.300  28.962  11.609
44673W        W16999  27.153  36.126  11.462
44674W        W17000  42.443  26.015   1.891
44675W        W17001  42.814  34.703   4.261
44676W        W17002  19.028  15.853  10.536
44677W        W17003  35.951  29.387   4.592
44678W        W17004  38.531   3.619  10.746
44679W        W17005   9.884   4.346  14.784
44680W        W17006  33.111  36.228  12.568
44681W        W17007  36.003  27.742  13.927
44682W        W17008  11.646  30.211   4.149
44683W        W17009  33.581   0.476   1.413
44684W        W17010  12.430   2.944   0.336
44685W        W17011  27.233   0.331   1.982
44686W        W17012  15.563   4.320   3.351
44687W        W17013  27.209  24.850   1.902
44688W        W17014  37.912  23.312   4.364
44689W        W17015   2.306   0.286  11.513
44690W        W17016  13.774  31.357   0.540
44691W        W17017  33.822  39.016   0.297
44692W        W17018  21.096  44.499   2.832
44693W        W17019  32.840   1.509   3.652
44694W        W17020  32.434  16.309   1.294
44695W        W17021  10.306  33.665  14.631
44696W        W17022  27.024  37.829  10.567
44697W        W17023  38.514  36.936   0.812
44698W        W17024  39.960  15.873  12.029
44699W        W17025  24.105  34.520   0.974
44700W        W17026  33.887   2.588  11.124
44701W        W17027  26.496  23.327   4.783
44702W        W17028  17.512   6.727   0.982
44703W        W17029  18.672  19.030  13.011
44704W        W17030   1.584   0.503   2.257
44705W        W17031   4.392  37.064   1.879
44706W        W17032  32.875  21.111  10.753
44707W        W17033   9.655  20.514  12.040
44708W        W17034  10.626  28.884  11.685
44709W        W17035  14.823  26.073  10.795
44710W        W17036  24.070  43.835   4.750
44711W        W17037  13.890   2.805   4.604
44712W        W17038  28.500   5.811  13.885
44713W        W17039  14.875  31.955   4.764
44714W        W17040   4.870   4.377  14.478
44715W        W17041  17.840  24.585   4.737
44716W        W17042  28.052  25.543   2.314
44717W        W17043   2.862  21.737   1.981
44718W        W17044  38.527  30.509  14.762
44719W        W17045  30.523  37.556   1.198
44720W        W17046  39.234  42.543  10.604
44721W        W17047  25.509  38.439   3.585
44722W        W17048  34.815  22.512  11.727
44723W        W17049   2.533  35.789  11.584
44724W        W17050  22.392  44.024   2.773
44725W        W17051  18.232   0.484  12.905
44726W        W17052  39.833  41.369  14.319
44727W        W17053  44.459  40.131  11.649
44728W        W17054  19.553   4.043  14.338
44729W        W17055  19.609   6.477   3.409
44730W        W17056   0.273   7.323  12.030
44731W        W17057  12.228  29.036  11.226
44732W        W17058  17.663   1.344   4.451
44733W        W17059  22.117  28.611   1.159
44734W        W17060   1.437  22.574  14.471
44735W        W17061  36.231   1.475  13.795
44736W        W17062   3.538  10.546  14.273
44737W        W17063  16.151  32.968   1.945
44738W        W17064  29.088  22.318  14.576
44739W        W17065  15.628  23.172  14.798
44740W        W17066   1.748  37.602   0.680
44741W        W17067  12.765  13.420  12.201
44742W        W17068  13.039   6.873   2.149
44743W        W17069  11.718   3.810   4.564
44744W        W17070  30.487  25.118   2.393
44745W        W17071  39.780  10.224   1.418
44746W        W17072   1.616  44.741  11.543
44747W        W17073  31.918  30.229   0.800
44748W        W17074  24.587   9.236   4.905
44749W        W17075  39.835   7.889   4.537
44750W        W17076  24.231   9.174   3.570
44751W        W17077  37.879  36.844   1.475
44752W        W17078  40.113   2.789  11.459
44753W        W17079  10.130  18.706   2.370
44754W        W17080   6.440  33.240  11.997
44755W        W17081  24.221   1.287   0.378
44756W        W17082  33.613  27.762  10.325
44757W        W17083  25.647  24.582   1.964
44758W        W17084  17.711   1.299  13.978
44759W        W17085  39.800  38.849  14.046
44760W        W17086  14.165  36.353   4.617
44761W        W17087   3.358  33.937   2.582
44762W        W17088  20.682  44.796   0.804
44763W        W17089  38.587  22.619   3.207
44764W        W17090  23.943  39.711   3.480
44765W        W17091  28.247   5.989   3.883
44766W        W17092  42.217  11.544   2.859
44767W        W17093  28.174  19.699   3.337
44768W        W17094  27.404  27.575   4.056
44769W        W17095  35.346  31.542  13.404
44770W        W17096  18.307  16.946   0.612
44771W        W17097   0.057   7.661   3.260
44772W        W17098  41.785   3.944  10.523
44773W        W17099  27.483  32.587  10.601
44774W        W17100  29.865   2.768   4.136
44775W        W17101  28.241  21.424   5.001
44776W        W17102   1.250   9.965   3.211
44777W        W17103  10.949  41.970  10.738
44778W        W17104   0.819   5.877  13.554
44779W        W17105  16.648  30.830  14.335
44780W        W17106  27.661  24.682  12.516
44781W        W17107  43.014  43.291  14.459
44782W        W17108  41.252  10.156  11.074
44783W        W17109  43.964  31.362   0.331
44784W        W17110  37.851   0.353  11.616
44785W        W17111  31.582   6.672  13.974
44786W        W17112  15.785  36.075  11.145
44787W        W17113  34.500   6.668   1.641
44788W        W17114   5.428  28.223  14.845
44789W        W17115  23.475  10.129  14.855
44790W        W17116  44.218  13.305  13.656
44791W        W17117   7.944  41.200  10.688
44792W        W17118  37.425  23.439   4.204
44793W        W17119   4.451   1.999   0.760
44794W        W17120   6.249  36.095  11.641
44795W        W17121  15.410  37.560   1.850
44796W        W17122   4.680   7.247  12.523
44797W        W17123  44.876  26.453  14.946
44798W        W17124  16.620   1.948   3.884
44799W        W17125  13.905  12.663  14.370
44800W        W17126  13.079  12.143   2.861
44801W        W17127  17.672  32.015  13.894
44802W        W17128  40.999   1.852  10.583
44803W        W17129  15.831  17.310   1.168
44804W        W17130  41.053   5.716  13.542
44805W        W17131  30.447  30.657  11.524
44806W        W17132  42.508   7.817  13.539
44807W        W17133   4.644  16.198  10.896
44808W        W17134  14.081   4.431  14.496
44809W        W17135  15.336  21.015   2.874
44810W        W17136  31.535  16.607  12.653
44811W        W17137  19.307  19.807   2.366
44812W        W17138  29.467  19.320   1.372
44813W        W17139  33.968  13.887   0.936
44814W        W17140  20.969  41.574   3.213
44815W        W17141   9.116  42.373  11.374
44816W        W17142  17.150   0.287  13.620
44817W        W17143  29.453  32.055  13.356
44818W        W17144   0.810   9.911  14.220
44819W        W17145  37.865  28.419  12.659
44820W        W17146   1.327   9.583  12.054
44821W        W17147  37.093   9.505   4.569
44822W        W17148  15.218  21.333  13.795
44823W        W17149  32.696   1.915  11.666
44824W        W17150  18.491  15.602   1.419
44825W        W17151   4.164  14.095   2.381
44826W        W17152  36.920  11.260   4.159
44827W        W17153   6.006  17.746   1.514
44828W        W17154  20.572   1.691  14.111
44829W        W17155  26.384  40.920  12.057
44830W        W17156  15.931   1.698  14.917
44831W        W17157  27.886  25.615   3.283
44832W        W17158  35.416  26.087   2.669
44833W        W17159  19.573   3.474   0.538
44834W        W17160  27.552  15.880  13.435
44835W        W17161  34.065  11.524   2.307
44836W        W17162  28.078  35.707   4.372
44837W        W17163   9.738  33.542  14.772
44838W        W17164  20.764   0.590  11.657
44839W        W17165  34.808  44.229  13.977
44840W        W17166  18.515  38.932   1.732
44841W        W17167  37.484  20.101  12.414
44842W        W17168  17.617  44.812   3.154
44843W        W17169  34.647  10.821   2.667
44844W        W17170  21.944  15.279   0.422
44845W        W17171  41.519   4.993   0.705
44846W        W17172   1.660   7.368  14.587
44847W        W17173  28.792  35.877   3.017
44848W        W17174  42.686  27.046   1.386
44849W        W17175  42.081   6.427   3.827
44850W        W17176  33.560  15.992  10.175
44851W        W17177  35.522   2.715   4.602
44852W        W17178   7.431  31.549  14.520
44853W        W17179  19.084   5.654   1.938
44854W        W17180  17.302  39.877   0.248
44855W        W17181  35.140  23.121  12.599
44856W        W17182   0.400  32.082  13.859
44857W        W17183  10.379  31.970  14.086
44858W        W17184  28.436   2.016   1.434
44859W        W17185  17.914  22.640  11.197
44860W        W17186  39.029   6.741   2.379
44861W        W17187  11.823  11.314  11.083
44862W        W17188   6.697  22.377   4.241
44863W        W17189   3.488  16.616  11.600
44864W        W17190  33.827   5.460   2.864
44865W        W17191  22.176   4.178  12.555
44866W        W17192  44.987   1.114  11.779
44867W        W17193  30.735  39.107   4.145
44868W        W17194  36.522  19.112  13.313
44869W        W17195  15.699   3.384  11.297
44870W        W17196  25.972  14.542   4.240
44871W        W17197  18.428  42.024  13.325
44872W        W17198   6.263  40.430  11.557
44873W        W17199   4.242  40.759  14.820
44874W        W17200  34.406   9.113  13.462
44875W        W17201   7.316  31.302  11.929
44876W        W17202  14.772  44.822  14.081
44877W        W17203  18.016  26.221   1.291
44878W        W17204  38.866   8.605   4.927
44879W        W17205  43.459  39.868   4.160
44880W        W17206  24.400  13.297   2.862
44881W        W17207  20.932   0.756   1.309
44882W        W17208  11.718  10.223   2.465
44883W        W17209  40.061  13.578  12.419
44884W        W17210   5.485  16.824   0.972
44885W        W17211  10.798  19.524   2.571
44886W        W17212  20.009  21.528   1.864
44887W        W17213  24.242  41.440   1.801
44888W        W17214   0.509  32.330  12.017
44889W        W17215  20.069  28.436   4.442
44890W        W17216  34.377  23.296  12.449
44891W        W17217  25.359  19.805   1.168
44892W        W17218   5.239  35.111  10.189
44893W        W17219  38.651  42.389   9.659
44894W        W17220   7.831  20.210  13.534
44895W        W17221  39.364  38.287  10.125
44896W        W17222  28.377  12.725  10.431
44897W        W17223  35.388  32.063   2.677
44898W        W17224  39.583  16.603   2.390
44899W        W17225   3.227   4.461   0.321
44900W        W17226  12.107  16.372   2.183
44901W        W17227  37.977  15.198  11.182
44902W        W17228  31.171  38.827  13.094
44903W        W17229  39.497  15.924  13.448
44904W        W17230   2.403  27.187   3.700
44905W        W17231  17.290   8.788  12.142
44906W        W17232  30.769  26.955  14.115
44907W        W17233  29.014  37.259   2.432
44908W        W17234   6.886   1.799  13.763
44909W        W17235  19.031  36.961  12.519
44910W        W17236  28.420  10.796  11.782
44911W        W17237   5.946  27.449   4.502
44912W        W17238  16.831  24.096  14.032
44913W        W17239  10.811  24.540   4.345
44914W        W17240   3.880  14.261  13.338
44915W        W17241  12.914   0.899   4.893
44916W        W17242  41.981  22.261   2.321
44917W        W17243  19.677  34.895  11.240
44918W        W17244  34.473   7.253  10.622
44919W        W17245  26.853   4.707   3.244
44920W        W17246   9.371  36.503  13.603
44921W        W17247   2.898  22.238  12.762
44922W        W17248  22.525  37.399  11.196
44923W        W17249  20.092   3.923  13.372
44924W        W17250  22.826  25.139   4.996
44925W        W17251  43.564  42.410  11.122
44926W        W17252   6.767   5.318  13.858
44927W        W17253  25.108  15.710   5.192
44928W        W17254  26.543   6.679   2.433
44929W        W17255   0.500  37.428   0.820
44930W        W17256   0.498  15.137   1.909
44931W        W17257   7.811  13.926  11.075
44932W        W17258  37.164   2.719  10.810
44933W        W17259  39.451  32.207  14.604
44934W        W17260  32.005  43.017   4.561
44935W        W17261  16.830  28.089  13.476
44936W        W17262  40.893  40.389   1.995
44937W        W17263  19.490  43.418   3.336
44938W        W17264  31.928   4.771   1.762
44939W        W17265   5.149  16.181  14.564
44940W        W17266  43.270   4.623  10.936
44941W        W17267  34.167   0.708  12.962
44942W        W17268  35.619  23.034   1.897
44943W        W17269  30.130  35.600  11.609
44944W        W17270  16.871  31.455  11.636
44945W        W17271   3.218  12.118  14.523
44946W        W17272  41.217  18.713   4.561
44947W        W17273  32.858   9.306  11.023
44948W        W17274  26.930  27.299   2.338
44949W        W17275  15.799   5.983  12.839
44950W        W17276  40.274  17.702   2.418
44951W        W17277  31.469  19.305   3.744
44952W        W17278  17.258   2.728  14.048
44953W        W17279  43.176  23.083   3.795
44954W        W17280  35.341   1.268   2.859
44955W        W17281  38.532  36.615  13.471
44956W        W17282   1.822  20.533   0.809
44957W        W17283  32.514  18.782  12.824
44958W        W17284  37.845   6.685   0.770
44959W        W17285  23.350  38.650  10.294
44960W        W17286  27.837  42.943  11.944
44961W        W17287  35.151  39.176  10.334
44962W        W17288  31.588  11.730  11.561
44963W        W17289  18.489  14.742   2.726
44964W        W17290  15.806  19.093  14.422
44965W        W17291  44.630   0.482   1.272
44966W        W17292  33.724   6.437   4.587
44967W        W17293  16.258  34.994  11.590
44968W        W17294   9.673  20.578   0.862
44969W        W17295  38.958  41.261   0.905
44970W        W17296  33.452  25.627   3.840
44971W        W17297  22.168  21.928   3.773
44972W        W17298  13.784  44.155   1.971
44973W        W17299  19.870  34.933  12.112
44974W        W17300  30.381  41.978  12.508
44975W        W17301   0.493  21.181  10.740
44976W        W17302  37.374   0.253   1.792
44977W        W17303   5.002  43.891   1.093
44978W        W17304  27.615  14.388  13.550
44979W        W17305  37.695  31.728   5.148
44980W        W17306  28.866  18.640   0.561
44981W        W17307  35.504   4.557  13.807
44982W        W17308  22.768  41.889  14.324
44983W        W17309  23.942  10.781   0.297
44984W        W17310  15.807  34.643  11.046
44985W        W17311  41.871  20.139   1.332
44986W        W17312  29.571  11.355   4.187
44987W        W17313  43.337  28.223  10.239
44988W        W17314  22.166  44.256  13.912
44989W        W17315   2.952  41.074   2.306
44990W        W17316  21.080   2.807   3.194
44991W        W17317  14.559   3.047   9.851
44992W        W17318  13.389   0.927   4.639
44993W        W17319  38.613  19.558  14.065
44994W        W17320  19.327  33.624   3.121
44995W        W17321   3.330  14.465  11.594
44996W        W17322  39.770  15.087  14.404
44997W        W17323  43.633  42.871   2.784
44998W        W17324  12.424   7.442   1.638
44999W        W17325  35.102  29.687   1.306
45000W        W17326  42.384  14.263  14.921
45001W        W17327  15.210  25.706  10.816
45002W        W17328  35.848  37.554   4.543
45003W        W17329   2.228   6.396  14.952
45004W        W17330  15.226  36.827   2.191
45005W        W17331  21.763  36.011   0.542
45006W        W17332   8.412   1.366  14.240
45007W        W17333  31.791  43.695  14.878
45008W        W17334  39.450  39.087  14.381
45009W        W17335  15.984  11.268  13.548
45010W        W17336  37.960   2.081  10.892
45011W        W17337  12.836  35.997   3.375
45012W        W17338  26.944   2.797  14.367
45013W        W17339  19.554  25.196   2.266
45014W        W17340   4.208  11.606   3.316
45015W        W17341  21.518  31.172  12.872
45016W        W17342  35.112  11.872   4.161
45017W        W17343  31.025  31.669  12.042
45018W        W17344  23.054   7.489  10.754
45019W        W17345  24.063  43.991  10.720
45020W        W17346  22.753  14.749   1.818
45021W        W17347  24.435  26.172  10.404
45022W        W17348   2.054  12.040   4.135
45023W        W17349  21.774   6.167   2.244
45024W        W17350  14.317  12.776  14.040
45025W        W17351  33.788  13.330   0.959
45026W        W17352  31.388  29.074  13.871
45027W        W17353   9.670  38.943   3.235
45028W        W17354  23.914  38.317  10.548
45029W        W17355   2.784  36.181  13.596
45030W        W17356  33.504  34.272   0.113
45031W        W17357  10.755  40.042   0.934
45032W        W17358   3.919  28.498  14.002
45033W        W17359  13.303  39.681   0.748
45034W        W17360  22.699  28.453   1.994
45035W        W17361  10.189  28.028   4.061
45036W        W17362  43.990  24.510   1.444
45037W        W17363  39.880   4.840   4.831
45038W        W17364  33.999  24.463  11.523
45039W        W17365  10.128  15.821  11.216
45040W        W17366   6.923  30.974   0.351
45041W        W17367   4.445  16.289   1.802
45042W        W17368   7.815  39.617   1.930
45043W        W17369  37.476  19.362   4.418
45044W        W17370  19.556  19.034  14.355
45045W        W17371  38.916   8.901   2.677
45046W        W17372  10.439   7.019   2.810
45047W        W17373   8.816  39.068  12.895
45048W        W17374  41.897  32.701  14.049
45049W        W17375   5.770   8.157  13.033
45050W        W17376  44.184  10.700  13.498
45051W        W17377  38.535   0.503  13.781
45052W        W17378  14.114  33.777   3.776
45053W        W17379  19.432   5.332  14.044
45054W        W17380  12.891  31.065   3.091
45055W        W17381  44.183  33.341   3.555
45056W        W17382  30.560  25.996   2.306
45057W        W17383   8.487  29.093  14.782
45058W        W17384  42.868  24.490   2.725
45059W        W17385   7.896  26.591  13.494
45060W        W17386  15.731  11.139  10.871
45061W        W17387  15.694  30.422  11.559
45062W        W17388   6.798   9.849  14.140
45063W        W17389  27.568  40.350  11.875
45064W        W17390  38.616  18.516  11.423
45065W        W17391  32.301  11.121   2.613
45066W        W17392  10.844  18.990  13.899
45067W        W17393  21.485   1.739   1.368
45068W        W17394   8.708  12.055   1.332
45069W        W17395   9.191  27.118   4.342
45070W        W17396  12.732  26.423  13.481
45071W        W17397  15.151  20.207  10.522
45072W        W17398  22.051  22.034   1.403
45073W        W17399  35.623  31.623   2.842
45074W        W17400  27.035  31.363  14.010
45075W        W17401  42.487  42.331  11.451
45076W        W17402   0.377   0.866  11.988
45077W        W17403  26.620   0.061   3.218
45078W        W17404  12.227   4.134  14.369
45079W        W17405  19.067  21.741   4.752
45080W        W17406  43.227  35.943  14.026
45081W        W17407  19.429  32.532   5.025
45082W        W17408  12.330  31.514   1.297
45083W        W17409   2.210  33.718   3.557
45084W        W17410  15.625  37.301  12.353
45085W        W17411  10.006  30.760  12.004
45086W        W17412   7.711  42.822  12.202
45087W        W17413   5.225  23.475  13.999
45088W        W17414  21.539  34.952  10.705
45089W        W17415  14.533  44.076  14.751
45090W        W17416  11.017  34.573   5.619
45091W        W17417  16.796  39.632  10.895
45092W        W17418  37.516  21.650   4.550
45093W        W17419  32.912  36.514   1.758
45094W        W17420   5.033  34.938   2.149
45095W        W17421  20.048   5.918   0.921
45096W        W17422  33.320  27.634   1.414
45097W        W17423   4.900  36.027  12.844
45098W        W17424  42.712  23.270  10.792
45099W        W17425  41.400  42.411  13.855
45100W        W17426  14.777   5.469   2.436
45101W        W17427  36.873  17.015   1.336
45102W        W17428  10.297  23.102   2.277
45103W        W17429  15.300  22.531   1.221
45104W        W17430  44.237   5.248   2.632
45105W        W17431  16.057  40.261  10.601
45106W        W17432  23.649  13.959  14.369
45107W        W17433  28.568   2.908   2.752
45108W        W17434  44.815  35.543   0.531
45109W        W17435  10.344  12.875  14.414
45110W        W17436  12.567  35.550   0.441
45111W        W17437  43.798   8.184   2.281
45112W        W17438  22.295  10.740  13.569
45113W        W17439   4.259   5.785  14.702
45114W        W17440  17.656   2.155   2.896
45115W        W17441  34.376  14.563  13.401
45116W        W17442  29.518  44.958  14.881
45117W        W17443  23.781   9.707   4.650
45118W        W17444  32.280  26.475  11.482
45119W        W17445  31.438  41.301  12.910
45120W        W17446   2.359  17.551  10.363
45121W        W17447   1.125  19.981   1.879
45122W        W17448  17.657  10.336   4.228
45123W        W17449  34.136  23.666  13.995
45124W        W17450   3.329  13.176   0.853
45125W        W17451  30.980  44.048  13.550
45126W        W17452   7.864  14.711  12.214
45127W        W17453  25.762  14.086  13.795
45128W        W17454  22.660  36.868   4.587
45129W        W17455  25.773  13.118  12.345
45130W        W17456  41.968   9.479   2.156
45131W        W17457  31.348  40.738   0.760
45132W        W17458  25.184  26.107   0.394
45133W        W17459  29.917   2.173   1.503
45134W        W17460  40.979  35.499   3.447
45135W        W17461  28.362  21.006  10.916
45136W        W17462  32.179  16.091   0.348
45137W        W17463   8.453  16.491  11.609
45138W        W17464  20.501  24.178   1.856
45139W        W17465  21.302  16.866   0.054
45140W        W17466   5.834  15.340  10.608
45141W        W17467   2.306  10.715  13.752
45142W        W17468  28.496  18.527  14.680
45143W        W17469  36.873  22.537  12.902
45144W        W17470  44.150  11.640  11.150
45145W        W17471  37.867  35.952   0.468
45146W        W17472  18.593   5.180   3.577
45147W        W17473   0.053  22.702   3.251
45148W        W17474  37.362  39.309  13.505
45149W        W17475   4.422  30.662   2.108
45150W        W17476  13.436  14.406   3.860
45151W        W17477  29.663  43.415   3.335
45152W        W17478   3.911   9.933   3.696
45153W        W17479  17.561  31.528  14.027
45154W        W17480  41.052  14.693   1.717
45155W        W17481  13.378  24.294   2.962
45156W        W17482   8.685  41.232   0.833
45157W        W17483  22.441  38.058   3.483
45158W        W17484  20.603  18.025  12.428
45159W        W17485  31.969  21.515   1.790
45160W        W17486   8.392  37.637  11.072
45161W        W17487  26.455  24.725  10.473
45162W        W17488  28.594  15.799   0.418
45163W        W17489   8.667  38.997   3.398
45164W        W17490  39.297  10.474  11.135
45165W        W17491   9.846  19.767  11.686
45166W        W17492  13.745   5.639   4.571
45167W        W17493  28.622   1.467   1.230
45168W        W17494  15.077  44.384  12.055
45169W        W17495  16.231  41.236  12.392
45170W        W17496  15.779  14.081   2.274
45171W        W17497  32.668  42.907  14.364
45172W        W17498  43.598  27.933  11.009
45173W        W17499  37.003  26.727   3.282
45174W        W17500  33.559  28.711   2.650
45175W        W17501   6.171  36.029   0.765
45176W        W17502   4.251  13.508   3.372
45177W        W17503  30.317  10.314  10.480
45178W        W17504   9.101  24.196  11.151
45179W        W17505  37.801  15.173  12.839
45180W        W17506  21.563   4.181  13.360
45181W        W17507  16.737  22.528  13.140
45182W        W17508  37.899   5.246  12.331
45183W        W17509   0.031   1.575  11.581
45184W        W17510   0.501  34.533   4.142
45185W        W17511   0.001  33.505   1.853
45186W        W17512  20.223  22.071   0.973
45187W        W17513  43.249   2.723   2.873
45188W        W17514   1.111  12.615   2.826
45189W        W17515  41.735  42.536  11.883
45190W        W17516  16.714   0.023   0.217
45191W        W17517  14.176  23.263   1.737
45192W        W17518  24.954   3.065   3.779
45193W        W17519  15.738  12.141  10.717
45194W        W17520  42.589  25.180  13.081
45195W        W17521  30.381  18.204   1.936
45196W        W17522  20.738  10.340  10.958
45197W        W17523   7.703  31.903   2.855
45198W        W17524  38.829  43.936  10.518
45199W        W17525  26.964  28.834   3.710
45200W        W17526   1.302  21.346  11.652
45201W        W17527  12.122  37.023  14.744
45202W        W17528   0.867  22.097   5.007
45203W        W17529  42.799   7.352   4.745
45204W        W17530   2.948   0.452   2.160
45205W        W17531  22.586   8.951  13.120
45206W        W17532  25.252  36.460   1.770
45207W        W17533   3.658  38.882   1.423
45208W        W17534  39.096  21.790   3.626
45209W        W17535  16.495  32.185   0.264
45210W        W17536  26.075  32.893   0.053
45211W        W17537  34.847  20.189  14.612
45212W        W17538  11.240  31.039   0.510
45213W        W17539  15.082  21.335   3.178
45214W        W17540  30.715  43.945   2.309
45215W        W17541  11.803   1.276  10.620
45216W        W17542  14.269  12.772  10.789
45217W        W17543  16.726  18.340   0.518
45218W        W17544  11.178  39.794  11.852
45219W        W17545  14.923  33.500  12.228
45220W        W17546   8.383  32.536  10.719
45221W        W17547   4.980  27.808  11.178
45222W        W17548  39.263  10.654  12.410
45223W        W17549  38.655  27.105   2.582
45224W        W17550   1.242  10.895   4.696
45225W        W17551  11.925  33.051  14.561
45226W        W17552  24.112   9.118  14.700
45227W        W17553  39.229  19.704   1.723
45228W        W17554  31.496  15.735  12.303
45229W        W17555  10.179  17.155  12.377
45230W        W17556  42.183  43.824   1.208
45231W        W17557  42.105  16.568   0.267
45232W        W17558  21.753  40.798   1.786
45233W        W17559  35.623  19.517   0.218
45234W        W17560   8.403  29.677   3.168
45235W        W17561  35.439  29.122  12.899
45236W        W17562   9.552  25.176   3.532
45237W        W17563  28.368  16.084  12.033
45238W        W17564  10.342   3.140   3.810
45239W        W17565   3.385  42.004  12.921
45240W        W17566  15.669  17.611   1.948
45241W        W17567  41.856   7.969   2.631
45242W        W17568  10.192  32.766   1.755
45243W        W17569  35.434  15.406   2.360
45244W        W17570  34.803   8.843  13.240
45245W        W17571   4.990   8.240  11.283
45246W        W17572  43.530  44.095   0.703
45247W        W17573   8.718  29.476   3.529
45248W        W17574  16.181  10.383  10.500
45249W        W17575   6.287  21.587   1.709
45250W        W17576  43.015  35.750   4.167
45251W        W17577  29.488   9.604   4.249
45252W        W17578  39.495   2.367   1.433
45253W        W17579  14.599  44.247   0.261
45254W        W17580   0.166  33.509   3.791
45255W        W17581  43.156   2.217  13.622
45256W        W17582  12.607  26.216  12.450
45257W        W17583   1.190  40.436  11.007
45258W        W17584  28.404  35.900  14.218
45259W        W17585  22.919  14.133   2.790
45260W        W17586  10.848  27.860   3.606
45261W        W17587  21.643   4.246   2.632
45262W        W17588   0.801  19.001   1.066
45263W        W17589  38.424   9.177   3.846
45264W        W17590  11.923   8.207   0.384
45265W        W17591   0.506   4.672  10.665
45266W        W17592  31.373  26.210  14.560
45267W        W17593  20.598  16.604   1.305
45268W        W17594   4.396  10.900   0.327
45269W        W17595  12.070  30.933   2.865
45270W        W17596  13.459  24.722   2.655
45271W        W17597   7.461  19.530  14.005
45272W        W17598  23.564  26.184  12.499
45273W        W17599  38.815  22.619   5.054
45274W        W17600  23.995  25.782  13.105
45275W        W17601  17.156  21.284  14.876
45276W        W17602  12.408  32.127  11.454
45277W        W17603  12.867  21.459   1.286
45278W        W17604   6.229  27.738  13.023
45279W        W17605  35.952  25.027  12.055
45280W        W17606  23.995  12.083  14.395
45281W        W17607  41.508  14.825  11.558
45282W        W17608  37.439  11.597  10.141
45283W        W17609  20.235  34.342   1.398
45284W        W17610  19.076  36.547  13.961
45285W        W17611  33.219   9.126  14.319
45286W        W17612   8.588  17.569   2.058
45287W        W17613  38.943  42.797   1.157
45288W        W17614  13.138  25.063   0.859
45289W        W17615  23.299  22.461   2.373
45290W        W17616  20.635  38.449  13.817
45291W        W17617  11.912   2.900   0.479
45292W        W17618  29.929  39.963  11.953
45293W        W17619  34.871  15.250   1.851
45294W        W17620   6.598  30.511  14.054
45295W        W17621  22.769  23.693   5.038
45296W        W17622  17.671  24.289  13.858
45297W        W17623   9.430   7.895   1.161
45298W        W17624  18.753  13.309   0.076
45299W        W17625   4.727  28.425  10.538
45300W        W17626  24.261  24.993  13.373
45301W        W17627   4.270  23.697  13.374
45302W        W17628  18.308  35.546   3.774
45303W        W17629  24.483  24.922   4.261
45304W        W17630  17.679  14.228  14.853
45305W        W17631  33.995  18.789   5.064
45306W        W17632  44.364  39.457   1.863
45307W        W17633  24.540  19.833  12.552
45308W        W17634  43.893  36.651  12.308
45309W        W17635  28.862  17.684   0.962
45310W        W17636  12.180  23.532  12.954
45311W        W17637  13.299  29.702  11.105
45312W        W17638   1.824  20.711   4.653
45313W        W17639   6.650  31.399   0.330
45314W        W17640  40.509   0.994  10.704
45315W        W17641  27.958  20.449   1.895
45316W        W17642  24.752   7.717   2.145
45317W        W17643   0.460   3.513  11.365
45318W        W17644  36.743  16.206   1.333
45319W        W17645   6.672  17.828   1.886
45320W        W17646   0.091  23.148   0.157
45321W        W17647  14.272  10.358   4.126
45322W        W17648  22.691  40.521   3.000
45323W        W17649  38.850  42.448  13.337
45324W        W17650  22.911  27.953  14.583
45325W        W17651  13.574  24.406  13.995
45326W        W17652  18.905  13.012  12.666
45327W        W17653  33.620  22.961   4.258
45328W        W17654   8.659  30.632   3.182
45329W        W17655   9.946  15.701  14.110
45330W        W17656   1.812  36.403  10.717
45331W        W17657  41.246  44.738  12.838
45332W        W17658  12.644  26.812   0.409
45333W        W17659  14.927   4.578   2.323
45334W        W17660  23.143   8.348   1.384
45335W        W17661  41.115  29.963  13.393
45336W        W17662  10.732  43.565  10.628
45337W        W17663  30.138  14.733  12.565
45338W        W17664  10.731  44.428  12.677
45339W        W17665  41.428  25.652   4.574
45340W        W17666  31.834  38.283   0.533
45341W        W17667   3.656  15.710  11.094
45342W        W17668  30.181   8.311  14.350
45343W        W17669  16.182  36.079  14.330
45344W        W17670  13.197  44.661  12.451
45345W        W17671  28.987  44.917   1.923
45346W        W17672   0.567   1.053   4.151
45347W        W17673  23.610  19.070  12.992
45348W        W17674  28.950  41.290   3.871
45349W        W17675   9.899  21.762   2.901
45350W        W17676  21.687  18.525  14.413
45351W        W17677  41.516   8.363   2.524
45352W        W17678   2.765  16.307  12.588
45353W        W17679   5.499  39.825   1.875
45354W        W17680  33.700  14.349   1.748
45355W        W17681  40.118  11.773  13.538
45356W        W17682  20.915  31.413  13.857
45357W        W17683  30.430   1.207  10.685
45358W        W17684  38.631   3.667  14.035
45359W        W17685  18.038  26.549   2.314
45360W        W17686  15.599  16.784  13.961
45361W        W17687  44.408  35.795   0.885
45362W        W17688  29.391   1.211  11.570
45363W        W17689  41.384   9.384   4.292
45364W        W17690  23.667  41.364   4.462
45365W        W17691   8.235   6.963   1.003
45366W        W17692  16.509  13.157  14.874
45367W        W17693  34.096  37.983  14.785
45368W        W17694  40.296  18.963   1.955
45369W        W17695  40.522  39.772   2.638
45370W        W17696  21.552  34.918   1.676
45371W        W17697  33.089  12.722   4.963
45372W        W17698  44.320  21.611   4.668
45373W        W17699  32.989  42.319  14.847
45374W        W17700  19.681  26.421  13.764
45375W        W17701  31.456  33.517   2.160
45376W        W17702  17.780   6.717   1.422
45377W        W17703  42.371  22.241  11.682
45378W        W17704  13.813  18.875   1.374
45379W        W17705  21.054  37.651  13.984
45380W        W17706  43.932  12.116  14.034
45381W        W17707  26.169   8.944   4.675
45382W        W17708   6.189  31.022  11.073
45383W        W17709   3.513  38.141   0.714
45384W        W17710  17.564   2.029  12.644
45385W        W17711  24.687  22.095   3.513
45386W        W17712  43.359  16.140  13.913
45387W        W17713   3.721  17.675  10.961
45388W        W17714  30.348  19.432  11.229
45389W        W17715  27.505  19.261   4.655
45390W        W17716  31.823  16.612  14.459
45391W        W17717   8.675   9.756  13.073
45392W        W17718  29.192  38.396   1.479
45393W        W17719  15.649  40.562  12.865
45394W        W17720   2.744  36.454   2.261
45395W        W17721  33.029  31.186  12.051
45396W        W17722  28.695   4.192  13.852
45397W        W17723  37.930  14.625  14.345
45398W        W17724   2.442  33.895   2.219
45399W        W17725  43.475  16.773  14.334
45400W        W17726  30.918  31.338  11.670
45401W        W17727  20.122   8.336   1.894
45402W        W17728   2.887  13.117  14.257
45403W        W17729  27.385   3.447  11.309
45404W        W17730  35.539   6.867   0.120
45405W        W17731  32.594  40.172  14.415
45406W        W17732  35.930   7.441  14.943
45407W        W17733  22.126  15.626  10.649
45408W        W17734  15.790  27.027   1.293
45409W        W17735  44.868   8.871  11.580
45410W        W17736   3.160  36.172  11.035
45411W        W17737  38.882  22.724   4.561
45412W        W17738  13.360   2.949  14.481
45413W        W17739  30.641  32.496  14.259
45414W        W17740  27.121  39.387  11.219
45415W        W17741  43.695  15.119  13.359
45416W        W17742   0.985   0.951   3.347
45417W        W17743  16.791  31.665  14.682
45418W        W17744  41.390  24.663   0.329
45419W        W17745  31.583   7.739   3.302
45420W        W17746   8.360  34.898   3.247
45421W        W17747  29.398  28.921  12.954
45422W        W17748  21.639  13.841   1.341
45423W        W17749  28.375  33.186  13.388
45424W        W17750  24.856  32.190   4.089
45425W        W17751  44.489  30.030  13.061
45426W        W17752   9.766  14.385  11.983
45427W        W17753  21.093  10.585  13.456
45428W        W17754   0.510  19.203  13.850
45429W        W17755  26.666  18.123  11.275
45430W        W17756  19.686  22.970   2.483
45431W        W17757  18.769  29.991  13.918
45432W        W17758  30.582  30.908   2.142
45433W        W17759  29.104  40.066   0.513
45434W        W17760  35.076  17.987  10.241
45435W        W17761   3.096  34.457  11.941
45436W        W17762  33.823  31.543   1.538
45437W        W17763  28.279  22.990   4.843
45438W        W17764  16.096   3.960  12.518
45439W        W17765  40.908  13.007  14.933
45440W        W17766  25.414  44.997   0.745
45441W        W17767  32.692  44.887   4.934
45442W        W17768  42.310  35.920   2.201
45443W        W17769  37.165  32.972  12.253
45444W        W17770  19.260  26.650   4.209
45445W        W17771  29.877  12.767  13.770
45446W        W17772  34.425  20.337  10.942
45447W        W17773  34.085  21.543   3.207
45448W        W17774  23.450   7.342  12.936
45449W        W17775  36.465   6.956  11.077
45450W        W17776   6.928   0.007   4.327
45451W        W17777  25.049  28.571  14.757
45452W        W17778  32.957  29.847  14.159
45453W        W17779  28.460  42.756   1.307
45454W        W17780  32.955   7.662  11.538
45455W        W17781  17.117   0.733   1.386
45456W        W17782  40.611   3.368   2.246
45457W        W17783   4.907  21.201   5.156
45458W        W17784   2.294  10.129  13.293
45459W        W17785   0.683   3.887  13.356
45460W        W17786   7.175  29.070  12.383
45461W        W17787   7.277  42.377   3.166
45462W        W17788  38.873  16.681  12.188
45463W        W17789   0.904  25.499   4.839
45464W        W17790  17.040  18.041  12.395
45465W        W17791  27.471  26.945   3.762
45466W        W17792  15.551  42.291   3.272
45467W        W17793   4.944  36.054   1.298
45468W        W17794  19.824  43.500   0.701
45469W        W17795  28.136  14.256   2.671
45470W        W17796  27.919  25.648   0.403
45471W        W17797  10.144   4.131   0.185
45472W        W17798   5.462  15.429  12.971
45473W        W17799  26.128  37.061   1.688
45474W        W17800  31.183  41.204  13.820
45475W        W17801   9.530  18.190   5.015
45476W        W17802   7.198  19.243  11.118
45477W        W17803  17.058  22.737   2.384
45478W        W17804  41.883  23.266   1.493
45479W        W17805   0.781   2.689   0.428
45480W        W17806  13.677  20.836   1.882
45481W        W17807  13.298  44.707   2.375
45482W        W17808   9.196  25.174   0.905
45483W        W17809   9.302  26.478   4.128
45484W        W17810  21.312  30.695  14.437
45485W        W17811  39.758   3.333  13.532
45486W        W17812  17.671  22.483  14.488
45487W        W17813  40.089  14.517  13.394
45488W        W17814  36.590   3.699  13.828
45489W        W17815   8.538   9.780  11.547
45490W        W17816  13.654  42.367   2.637
45491W        W17817  30.633  28.363  12.077
45492W        W17818  21.600  21.342  12.536
45493W        W17819  32.401   9.657   0.759
45494W        W17820   9.101   1.522   2.269
45495W        W17821  21.686  34.586  13.429
45496W        W17822  25.001  17.493  13.891
45497W        W17823  41.499  25.565   3.262
45498W        W17824  10.402   2.779  13.395
45499W        W17825  16.946  27.572   0.030
45500W        W17826  19.605  21.947   3.208
45501W        W17827  27.881  42.637  11.522
45502W        W17828  42.323  15.504   2.126
45503W        W17829  23.648   1.364   4.626
45504W        W17830  30.921  20.983  14.800
45505W        W17831  28.586  42.219  11.084
45506W        W17832  28.205   2.208   1.855
45507W        W17833   3.928  35.254   0.294
45508W        W17834  26.971  26.865   3.674
45509W        W17835  40.482  13.231  14.754
45510W        W17836  19.128  26.284  12.068
45511W        W17837  20.976  42.117  11.203
45512W        W17838  44.923   8.423   2.920
45513W        W17839  25.003  31.700   4.758
45514W        W17840  31.762   7.956   1.449
45515W        W17841  11.409  36.573  12.018
45516W        W17842  34.958  34.948  12.823
45517W        W17843  20.975  17.811   0.163
45518W        W17844  28.797   2.427   2.648
45519W        W17845  29.282  11.748   1.847
45520W        W17846  27.462   2.769  11.183
45521W        W17847  28.578  11.164   1.974
45522W        W17848  13.388  16.557  11.205
45523W        W17849   1.645  44.437   2.870
45524W        W17850  38.967  15.756   1.630
45525W        W17851  26.890  24.777  14.557
45526W        W17852  11.347   5.403  10.641
45527W        W17853  33.176   8.153  11.518
45528W        W17854  11.096  13.127  12.085
45529W        W17855  30.056  15.810   4.319
45530W        W17856  13.833  20.159  12.604
45531W        W17857  44.403  38.442   1.765
45532W        W17858  30.023   1.790  14.735
45533W        W17859  16.581  19.460  13.917
45534W        W17860  39.283  20.804   1.182
45535W        W17861   9.663   2.284  12.976
45536W        W17862   7.269   2.860  10.760
45537W        W17863  34.425  21.429   0.029
45538W        W17864   2.954  14.284   1.268
45539W        W17865   3.816   7.701  14.993
45540W        W17866   6.439  10.106  14.896
45541W        W17867  37.627   2.061  10.447
45542W        W17868  43.556   3.888   0.848
45543W        W17869  19.543  12.276  14.826
45544W        W17870  36.622  40.168   1.281
45545W        W17871  41.097  31.740   3.580
45546W        W17872  43.813  14.575   0.922
45547W        W17873   4.378  38.952  11.554
45548W        W17874  41.732  28.024   1.586
45549W        W17875  12.886  27.542   4.196
45550W        W17876  40.277   2.895   0.212
45551W        W17877  44.410  35.523  13.575
45552W        W17878  32.418  26.816  14.028
45553W        W17879  23.625   7.852   4.600
45554W        W17880   9.556  13.220   0.640
45555W        W17881  11.347  36.466  14.873
45556W        W17882  33.918   4.274   0.480
45557W        W17883  18.858  31.068  14.857
45558W        W17884  31.350  29.988   0.035
45559W        W17885  19.673  20.729   1.427
45560W        W17886  26.570  35.961  12.118
45561W        W17887  12.428  21.244   4.654
45562W        W17888  36.554  10.297   0.782
45563W        W17889  23.963   7.446  11.671
45564W        W17890   6.010  27.221   1.266
45565W        W17891  25.723  30.945   3.934
45566W        W17892   7.175   3.409   3.003
45567W        W17893  43.875  34.228   4.773
45568W        W17894  33.914   1.679  13.932
45569W        W17895  37.864   6.673  12.629
45570W        W17896  33.498  28.403  12.936
45571W        W17897  37.031  14.290  12.531
45572W        W17898  13.717   5.182   1.320
45573W        W17899  43.454  13.095  13.064
45574W        W17900  13.278  40.297  11.122
45575W        W17901  21.797   8.334   1.984
45576W        W17902  18.658   4.853  14.428
45577W        W17903   0.740  17.062  13.814
45578W        W17904  21.476  13.762  10.493
45579W        W17905  37.399  23.685   1.806
45580W        W17906  24.957   0.456   3.778
45581W        W17907  17.845  13.132  13.877
45582W        W17908  44.899  29.493  14.016
45583W        W17909  26.018  25.922  10.932
45584W        W17910   2.455  42.109   4.051
45585W        W17911   5.322  22.437  12.637
45586W        W17912  41.354  29.614   4.426
45587W        W17913  44.023  21.191  12.383
45588W        W17914  42.920  37.069  12.395
45589W        W17915   5.253  38.306   4.661
45590W        W17916  11.154  15.803  14.272
45591W        W17917  11.122  25.629  11.092
45592W        W17918  29.105  26.924   1.947
45593W        W17919  27.243  32.869   4.330
45594W        W17920   4.212  28.571  13.562
45595W        W17921   9.913  17.266   1.133
45596W        W17922  24.624   4.922  14.456
45597W        W17923  32.703   9.197   1.647
45598W        W17924  12.249  13.574   1.926
45599W        W17925  26.101  25.242   4.873
45600W        W17926   7.913  29.904   0.919
45601W        W17927   1.397  35.459  10.693
45602W        W17928  36.427  21.074   4.710
45603W        W17929  39.324   2.384  11.100
45604W        W17930  42.306  15.851  13.019
45605W        W17931  15.618  17.714   0.886
45606W        W17932  32.053  22.769  14.324
45607W        W17933  35.590  35.516   9.967
45608W        W17934  22.031  16.250  14.215
45609W        W17935  34.325  27.248   3.752
45610W        W17936   4.930  12.710   9.930
45611W        W17937  22.119  26.181   2.091
45612W        W17938  16.618  11.889  13.208
45613W        W17939  30.454   9.136   1.141
45614W        W17940  14.288  35.571   3.183
45615W        W17941  29.592  14.632  12.053
45616W        W17942  11.512  23.113  14.021
45617W        W17943  39.491  32.073  11.692
45618W        W17944  39.255   8.134  12.576
45619W        W17945  44.769  35.594   2.885
45620W        W17946  23.249  11.308   4.138
45621W        W17947  27.634  19.114   3.651
45622W        W17948  42.949  14.019  13.014
45623W        W17949  13.570  41.254   0.441
45624W        W17950  38.388  25.630   2.335
45625W        W17951  38.529  44.394  11.917
45626W        W17952   6.710  24.405  12.374
45627W        W17953  40.342  16.776  14.477
45628W        W17954  42.598  16.938  13.001
45629W        W17955  10.253   3.931   2.205
45630W        W17956  35.878  22.142  13.975
45631W        W17957  39.844   4.766   2.269
45632W        W17958  25.315  23.589  11.556
45633W        W17959  44.518   4.223   0.852
45634W        W17960  20.185  33.828   1.331
45635W        W17961  29.187   4.659  13.916
45636W        W17962  30.861   8.919   3.345
45637W        W17963  18.099  27.115   1.447
45638W        W17964  22.688  37.857   1.271
45639W        W17965  34.885   4.633  14.635
45640W        W17966  43.827  37.630  13.359
45641W        W17967  41.563  25.082  11.312
45642W        W17968  27.061   2.753  11.902
45643W        W17969  37.406   7.825  10.498
45644W        W17970  16.587  31.746  11.962
45645W        W17971  19.663  38.536  11.672
45646W        W17972  33.386  24.630  11.186
45647W        W17973  12.084   5.614  13.440
45648W        W17974  25.047   7.174   0.446
45649W        W17975  19.669  18.783   3.827
45650W        W17976   8.809  38.367   0.653
45651W        W17977  25.980  24.740   3.209
45652W        W17978   9.659  43.280   0.436
45653W        W17979  42.200  21.020  11.095
45654W        W17980   5.847  15.853   1.402
45655W        W17981  30.000   6.184   2.212
45656W        W17982  33.528   6.405  10.591
45657W        W17983   4.364   2.709   0.237
45658W        W17984  12.777   0.473   2.831
45659W        W17985  27.568  36.557   4.565
45660W        W17986  36.919   2.248   0.510
45661W        W17987  39.401  32.346   1.094
45662W        W17988  10.927  12.771  11.213
45663W        W17989  16.563  28.887  14.056
45664W        W17990   7.912  28.934  13.421
45665W        W17991  21.246  28.973  11.595
45666W        W17992  32.167  10.726   2.890
45667W        W17993  38.012  37.322  13.617
45668W        W17994  17.308  18.622  13.014
45669W        W17995  14.131  17.834   1.252
45670W        W17996  42.989  18.250   1.707
45671W        W17997  10.308  39.070   5.031
45672W        W17998  31.722  35.526  12.557
45673W        W17999   9.920  18.171  13.410
45674W        W18000   4.419  13.265  11.919
45675W        W18001  24.007  32.961  13.937
45676W        W18002  44.851  10.704  10.776
45677W        W18003  40.018  23.696  10.761
45678W        W18004  29.770  25.039  14.445
45679W        W18005  44.598  35.892  10.726
45680W        W18006  31.362  43.982   3.746
45681W        W18007   1.260  29.548  14.374
45682W        W18008  23.186  40.045  10.455
45683W        W18009   5.858  16.624   3.693
45684W        W18010   8.329  36.654   2.903
45685W        W18011  10.038   7.806   3.355
45686W        W18012  41.900  42.527  14.063
45687W        W18013  43.245  35.482   2.898
45688W        W18014   3.006  15.578  14.254
45689W        W18015   7.880  38.526   2.787
45690W        W18016   1.918  36.953  12.398
45691W        W18017   0.141  27.497   0.147
45692W        W18018  31.910  31.665   4.319
45693W        W18019  21.501   7.423   1.585
45694W        W18020   8.847  22.966   4.579
45695W        W18021   1.184   9.944   5.575
45696W        W18022  24.919  25.032   0.649
45697W        W18023  14.119   0.718  13.127
45698W        W18024   7.311  40.925  13.068
45699W        W18025  24.455  35.845   2.450
45700W        W18026  37.765  12.326   2.709
45701W        W18027  13.061   2.898   3.947
45702W        W18028  30.796  28.960  11.543
45703W        W18029  10.178  41.173   3.192
45704W        W18030  10.675  36.458  13.792
45705W        W18031  17.999  19.529  11.643
45706W        W18032  27.585  20.282   3.582
45707W        W18033  17.618  15.220   4.565
45708W        W18034   0.428  29.455   2.364
45709W        W18035  38.867  13.723  12.515
45710W        W18036   3.122  25.150   3.652
45711W        W18037  25.985  26.743  13.339
45712W        W18038   9.664   4.339  13.050
45713W        W18039  41.998  40.425  10.737
45714W        W18040  42.420   6.760   0.718
45715W        W18041   0.942  14.989  13.101
45716W        W18042  22.985  28.725  11.953
45717W        W18043  10.012  15.627  13.144
45718W        W18044  41.378  38.963  11.735
45719W        W18045  25.891  23.703   0.225
45720W        W18046   9.679   6.819   2.482
45721W        W18047   7.820   9.915  14.429
45722W        W18048   9.880  29.324   0.645
45723W        W18049   0.459  21.365   1.276
45724W        W18050   2.691   3.242  11.384
45725W        W18051   5.929   1.500  12.916
45726W        W18052  15.861  13.767  13.822
45727W        W18053  29.006   3.726   1.385
45728W        W18054  16.570  35.489  11.859
45729W        W18055  22.671  39.422  13.391
45730W        W18056  32.391  24.382   4.254
45731W        W18057  37.656  42.020   0.356
45732W        W18058  33.890  11.568  10.508
45733W        W18059   6.767  21.094   4.540
45734W        W18060  24.240  21.785  13.445
45735W        W18061  29.428  17.217   3.317
45736W        W18062  14.288  33.500   4.211
45737W        W18063  13.866  43.618  11.988
45738W        W18064  14.387  28.439   4.299
45739W        W18065  22.935  12.597  11.212
45740W        W18066  44.775  43.489  10.631
45741W        W18067  32.596  32.854   4.600
45742W        W18068  30.624  34.811   3.494
45743W        W18069  18.264  28.265  13.367
45744W        W18070  24.538  11.678   2.270
45745W        W18071  44.294  17.242  14.576
45746W        W18072  22.457  25.723  14.003
45747W        W18073   6.807  44.775  12.907
45748W        W18074  14.846  44.802  13.572
45749W        W18075  22.241  15.546   3.229
45750W        W18076  37.969  28.464  10.271
45751W        W18077   8.167  14.769  11.791
45752W        W18078   2.308  18.137   4.695
45753W        W18079  34.036  26.630   1.262
45754W        W18080   8.443  25.439   2.617
45755W        W18081  34.512   7.408   0.020
45756W        W18082  23.105  24.045   1.676
45757W        W18083  32.390  13.930   4.149
45758W        W18084  24.913  34.104   4.532
45759W        W18085  14.388  32.994   4.076
45760W        W18086  10.585  16.637   0.259
45761W        W18087  19.572  38.972  11.908
45762W        W18088  17.753   7.420  13.131
45763W        W18089  23.215  29.505   1.301
45764W        W18090   4.455  24.117   2.839
45765W        W18091   7.767  17.230  14.465
45766W        W18092  27.241  27.435   1.136
45767W        W18093  32.152  19.607   3.680
45768W        W18094   9.686  29.810   3.711
45769W        W18095  34.948   2.701   0.769
45770W        W18096  33.394  14.187   1.352
45771W        W18097   1.327  11.363  14.949
45772W        W18098   4.794  35.846   4.107
45773W        W18099   1.742  17.314   0.850
45774W        W18100  33.003  32.408   3.944
45775W        W18101  25.589  17.717   0.150
45776W        W18102  43.265  27.179  13.779
45777W        W18103   1.507  14.144  12.930
45778W        W18104  40.112  21.957   4.339
45779W        W18105   9.879  30.592   3.156
45780W        W18106  44.497   8.637   4.565
45781W        W18107  19.842   7.088  14.006
45782W        W18108  40.157  11.994   4.169
45783W        W18109  14.473  34.330  10.598
45784W        W18110   2.144  34.773  12.205
45785W        W18111  41.801   6.478  14.936
45786W        W18112  14.756   9.674   2.342
45787W        W18113  10.768  27.085   2.688
45788W        W18114  35.586   0.516  13.946
45789W        W18115  18.739  16.613   4.367
45790W        W18116   4.682  29.359   4.292
45791W        W18117  25.053  20.103  11.366
45792W        W18118  29.731  27.957   2.733
45793W        W18119  37.128  17.975   2.481
45794W        W18120  24.724  15.552   0.355
45795W        W18121  37.052  19.714   0.500
45796W        W18122  32.642  19.721   3.751
45797W        W18123  36.106  12.301  13.946
45798W        W18124  40.856  18.044   3.287
45799W        W18125  42.921  12.844  11.495
45800W        W18126   0.915   6.951  11.611
45801W        W18127   6.021  34.311   3.755
45802W        W18128  34.364  34.457   4.255
45803W        W18129  40.988  10.863   0.927
45804W        W18130   0.027  34.857   2.704
45805W        W18131  39.587  20.349   1.219
45806W        W18132  19.599  38.944  14.320
45807W        W18133   0.796   2.398   2.114
45808W        W18134  35.683  39.975  13.601
45809W        W18135  27.177  28.280  12.608
45810W        W18136  12.666  26.797  10.142
45811W        W18137  35.358  42.031   0.832
45812W        W18138  39.106  35.824   2.288
45813W        W18139  26.602  42.861  14.329
45814W        W18140  31.885   9.826   1.637
45815W        W18141  44.765  33.520   1.381
45816W        W18142   4.612   4.481   0.978
45817W        W18143   2.337  23.824  11.083
45818W        W18144  19.109   5.429   1.457
45819W        W18145  17.776  15.950  13.819
45820W        W18146  43.347  37.515  13.509
45821W        W18147   4.390  38.025   3.679
45822W        W18148  12.617  29.410   3.847
45823W        W18149  18.258  30.958  12.416
45824W        W18150  33.362  12.134   3.764
45825W        W18151  15.026  24.554  13.979
45826W        W18152  32.447  39.395   0.976
45827W        W18153   6.846  44.678   0.863
45828W        W18154  28.008  42.320  14.208
45829W        W18155  44.805  26.801  11.457
45830W        W18156  41.966   4.989   3.238
45831W        W18157   5.246  10.089  12.364
45832W        W18158  18.976  31.041   1.180
45833W        W18159   4.797  21.640  12.980
45834W        W18160   5.757  26.428  11.481
45835W        W18161  29.274  25.711   2.500
45836W        W18162  10.153  44.596   5.017
45837W        W18163   4.348  38.590   3.518
45838W        W18164  13.973   7.263   0.904
45839W        W18165   6.024   7.431  13.789
45840W        W18166   8.092  14.213   1.287
45841W        W18167  33.520  22.247   1.321
45842W        W18168  20.831   3.777   2.337
45843W        W18169  38.551  27.664  11.149
45844W        W18170  36.380  38.784   2.387
45845W        W18171  19.674  13.335  10.696
45846W        W18172  23.550   1.553  11.089
45847W        W18173  21.769  32.076  14.718
45848W        W18174   2.893  29.870   1.628
45849W        W18175  41.833  25.508   4.248
45850W        W18176   4.705  44.891   0.517
45851W        W18177  38.995   8.873   1.750
45852W        W18178  20.740  19.856   0.791
45853W        W18179   5.624  25.137  10.759
45854W        W18180   2.341  44.549  13.709
45855W        W18181  37.262   6.767  13.457
45856W        W18182  37.761  18.726   5.022
45857W        W18183  44.157   0.115  10.043
45858W        W18184  11.850   0.586  14.799
45859W        W18185  35.964  24.501  12.002
45860W        W18186   5.752  23.903   1.932
45861W        W18187  41.918   9.121  11.519
45862W        W18188  17.835  32.562   1.251
45863W        W18189  26.143  35.873   0.671
45864W        W18190  12.360  11.711   3.996
45865W        W18191  18.842   7.318  13.871
45866W        W18192  15.445  18.728   4.144
45867W        W18193  32.419  37.898  11.890
45868W        W18194  15.307  39.950   1.448
45869W        W18195  26.488  36.391  13.067
45870W        W18196  37.300  27.106  11.599
45871W        W18197  38.399  28.834   1.211
45872W        W18198  16.732  11.245   2.802
45873W        W18199  42.940   9.655  10.587
45874W        W18200   4.242  42.287  14.884
45875W        W18201   7.259  37.045   3.734
45876W        W18202  23.556  27.241  13.385
45877W        W18203  43.443   7.152   3.632
45878W        W18204   2.298  18.229   2.297
45879W        W18205  36.011  28.132   2.875
45880W        W18206  37.333  26.574  14.377
45881W        W18207  33.341   6.221  11.041
45882W        W18208  24.469   0.721  13.902
45883W        W18209  16.099  10.093   4.057
45884W        W18210  34.309  14.218  14.440
45885W        W18211  42.436  15.270   2.902
45886W        W18212  26.552  42.074  12.466
45887W        W18213  44.840  37.407  14.999
45888W        W18214  15.288  35.933   3.798
45889W        W18215  16.358   6.764  10.930
45890W        W18216  29.156  41.828  13.113
45891W        W18217   8.575  14.793  12.813
45892W        W18218   7.328  23.600  11.553
45893W        W18219  42.575  30.607  12.406
45894W        W18220  44.476   8.839   3.735
45895W        W18221  11.844  11.398   1.230
45896W        W18222   7.286   3.309  14.338
45897W        W18223  11.681  40.869  14.384
45898W        W18224  23.137   7.214  13.862
45899W        W18225  31.492  40.797  13.792
45900W        W18226  44.964  31.770  11.450
45901W        W18227   4.836   6.483  14.829
45902W        W18228  19.089  32.154   1.012
45903W        W18229   0.942   3.304  11.099
45904W        W18230  16.534  29.532   4.168
45905W        W18231  29.403   5.374   4.736
45906W        W18232   2.432  23.059   0.242
45907W        W18233  38.623  21.164   2.023
45908W        W18234   5.848   6.871   2.788
45909W        W18235   5.247   9.604  12.493
45910W        W18236  16.277  29.477  12.454
45911W        W18237  37.420  23.661  11.857
45912W        W18238  35.859  13.683   3.756
45913W        W18239  20.216  29.712   1.222
45914W        W18240  31.041  18.867   2.292
45915W        W18241  13.475  24.455   0.322
45916W        W18242  24.735   8.266  14.041
45917W        W18243  31.149  17.789  11.864
45918W        W18244  36.652   0.183  11.042
45919W        W18245  40.900   8.599   4.814
45920W        W18246  18.844   8.648   4.491
45921W        W18247   0.269  35.078   2.266
45922W        W18248  43.565  41.367   1.465
45923W        W18249   9.783  41.052  12.044
45924W        W18250  27.579   8.359   3.212
45925W        W18251   1.801  19.329  13.019
45926W        W18252  16.080  44.553   1.312
45927W        W18253  20.135  37.334  14.802
45928W        W18254  26.715  28.989   0.227
45929W        W18255   6.952  17.591  13.507
45930W        W18256  27.999   5.704  10.299
45931W        W18257  23.651   9.380   2.956
45932W        W18258  34.344  30.961   0.362
45933W        W18259   5.940  29.104   1.712
45934W        W18260   6.589   3.452  11.597
45935W        W18261  25.947   8.217  14.389
45936W        W18262  32.674   0.045  13.583
45937W        W18263  36.518   0.422  11.493
45938W        W18264  25.071  13.448   0.562
45939W        W18265  22.333  20.500   3.119
45940W        W18266  16.531   5.205   0.419
45941W        W18267  13.058  27.037  13.957
45942W        W18268  38.513   5.147  14.048
45943W        W18269  43.509  43.756  13.481
45944W        W18270  13.110  37.988  13.514
45945W        W18271   3.877  23.057   0.847
45946W        W18272  13.800  11.115  10.706
45947W        W18273  35.330   7.365   3.935
45948W        W18274  44.378  41.155   2.414
45949W        W18275   7.873   2.736  12.718
45950W        W18276   0.225  35.503  12.668
45951W        W18277  18.347   9.252   1.022
45952W        W18278  20.292  11.921   3.382
45953W        W18279   8.398  17.116   2.784
45954W        W18280  33.053  24.077   3.340
45955W        W18281  29.461  35.885  11.133
45956W        W18282  31.559  40.939  11.135
45957W        W18283  23.432  26.174  11.132
45958W        W18284  11.671  18.328   3.775
45959W        W18285  28.125  10.614   3.293
45960W        W18286  14.290  44.153  14.288
45961W        W18287  15.649  33.899   0.468
45962W        W18288   4.275   2.767   1.630
45963W        W18289  25.698  21.175  12.918
45964W        W18290  34.078   9.299   1.444
45965W        W18291  14.820  19.041  12.068
45966W        W18292  26.656   7.686  12.135
45967W        W18293   9.889  44.555  12.545
45968W        W18294  38.812   1.943  11.591
45969W        W18295  27.560  27.405   3.582
45970W        W18296   4.196  26.882   1.726
45971W        W18297  35.040  40.017   3.585
45972W        W18298   0.720  29.623  13.774
45973W        W18299  37.097  10.225  14.893
45974W        W18300   1.405  42.436   0.831
45975W        W18301  14.290  40.030  10.454
45976W        W18302   2.597  28.527  11.944
45977W        W18303  15.645  21.502  13.567
45978W        W18304   7.723   1.729   3.234
45979W        W18305  29.896   3.868  14.879
45980W        W18306  16.982  42.613   5.151
45981W        W18307   7.946  36.448   3.239
45982W        W18308  39.085  18.517  13.941
45983W        W18309  15.663   6.775  11.473
45984W        W18310  41.347  11.282  13.224
45985W        W18311  12.614  12.042   2.144
45986W        W18312  29.683   7.134  13.501
45987W        W18313  22.664  19.067   4.664
45988W        W18314  25.096  38.964  11.521
45989W        W18315  42.565  12.211  13.771
45990W        W18316  19.669  30.157   4.592
45991W        W18317  19.643   2.848  13.066
45992W        W18318   5.353  21.825   0.709
45993W        W18319  29.637  24.485   0.032
45994W        W18320  36.553  11.032   3.419
45995W        W18321   2.784  23.072  12.576
45996W        W18322  21.243  18.985   4.072
45997W        W18323  10.193  27.120  12.021
45998W        W18324  36.589   8.516   3.275
45999W        W18325  21.319   2.743   3.648
46000W        W18326  14.968  12.196  13.045
46001W        W18327  13.439   7.880  11.892
46002W        W18328  36.020  42.500   3.233
46003W        W18329  20.506  31.100   4.214
46004W        W18330  43.222  37.561  14.931
46005W        W18331   2.972   0.345  13.505
46006W        W18332  14.880   7.204  12.928
46007W        W18333   0.045  23.456  11.047
46008W        W18334   2.237  24.150  13.396
46009W        W18335   1.964   4.054  14.235
46010W        W18336  44.484   1.691   4.207
46011W        W18337   4.282  43.420  14.518
46012W        W18338  15.244   2.481   3.769
46013W        W18339  20.548   1.747   3.156
46014W        W18340  15.547  37.774   0.435
46015W        W18341  21.722   2.784   2.347
46016W        W18342   4.499  11.124   2.361
46017W        W18343   3.796  32.274  11.139
46018W        W18344  41.020   6.411   3.682
46019W        W18345  19.648  28.241   4.031
46020W        W18346  30.920  26.231  12.508
46021W        W18347  25.187  13.911  13.021
46022W        W18348  30.052  24.590   0.360
46023W        W18349  12.348  33.926   3.749
46024W        W18350   8.216  14.539  13.139
46025W        W18351   1.567  20.294   4.036
46026W        W18352   7.145  21.548   4.204
46027W        W18353  35.146  44.498  12.131
46028W        W18354   8.563  44.463  13.873
46029W        W18355  12.822  19.875   0.871
46030W        W18356  20.709   0.578   3.739
46031W        W18357   4.576  42.626   0.939
46032W        W18358  44.405  40.231   5.004
46033W        W18359  36.448  34.821   3.664
46034W        W18360  22.691  44.354  10.446
46035W        W18361   4.271  22.711   1.702
46036W        W18362  30.053  36.138   3.144
46037W        W18363  41.907  19.319  14.872
46038W        W18364  14.820  22.632   3.280
46039W        W18365  21.573  13.193  12.172
46040W        W18366  33.546  14.157   3.855
46041W        W18367  17.890   3.462   4.100
46042W        W18368   2.215  42.776   3.281
46043W        W18369  42.028   0.311   0.314
46044W        W18370  20.777  27.650  12.777
46045W        W18371  12.741  28.419  11.497
46046W        W18372  39.378  32.942   4.747
46047W        W18373   5.385  22.434  10.323
46048W        W18374  10.834  30.142   3.189
46049W        W18375  24.909  16.745  11.956
46050W        W18376  17.831  28.601  12.679
46051W        W18377  32.924  40.191  12.990
46052W        W18378  34.440   2.353  13.122
46053W        W18379   2.517  44.744   0.119
46054W        W18380  12.214  16.418  12.569
46055W        W18381  30.966   8.268   2.174
46056W        W18382  18.128   1.271  10.876
46057W        W18383   2.256  40.902   4.713
46058W        W18384  43.385  10.175  12.391
46059W        W18385  32.405  14.251  12.780
46060W        W18386  28.575  20.141   4.674
46061W        W18387  44.471  24.441   2.670
46062W        W18388  30.863  39.951  14.413
46063W        W18389  39.277  15.129  14.537
46064W        W18390  33.721   0.455   1.916
46065W        W18391  35.774  11.429   3.282
46066W        W18392   1.294  22.215   0.389
46067W        W18393  44.086  39.893   1.969
46068W        W18394  43.039  25.750   1.315
46069W        W18395  39.138  35.735  11.982
46070W        W18396  26.913  10.227  14.261
46071W        W18397  19.216  40.853  13.276
46072W        W18398  18.727  26.209  12.357
46073W        W18399  25.865  41.458  10.971
46074W        W18400  22.359  35.505  12.858
46075W        W18401  44.653  34.986   4.109
46076W        W18402   2.346  37.227   2.472
46077W        W18403  30.502  34.120   0.597
46078W        W18404  37.725  30.113   2.803
46079W        W18405  36.898   5.663   3.144
46080W        W18406  16.621  44.770  11.652
46081W        W18407  29.950  43.523  10.638
46082W        W18408  28.089  29.931  13.931
46083W        W18409  24.258  34.464  14.939
46084W        W18410  27.447  39.902  11.101
46085W        W18411   5.731   2.628  12.011
46086W        W18412  20.629  43.877  12.752
46087W        W18413  37.790  30.053   4.638
46088W        W18414   0.383  42.507  11.447
46089W        W18415  17.599  16.046   2.722
46090W        W18416  24.736  24.898  12.464
46091W        W18417  25.964  12.377  11.811
46092W        W18418   4.410  15.281   3.648
46093W        W18419  24.701  17.393   3.619
46094W        W18420  39.077  16.690   2.352
46095W        W18421  22.072   2.491   0.043
46096W        W18422  35.477  36.624  11.653
46097W        W18423  17.652  42.835   2.876
46098W        W18424   6.507  18.128   4.061
46099W        W18425  39.858  35.723   1.126
46100W        W18426  44.450   9.715  13.455
46101W        W18427  21.676  43.176   0.544
46102W        W18428  36.584  34.010   5.480
46103W        W18429   8.468  30.865   2.291
46104W        W18430  35.384   3.694  11.641
46105W        W18431  38.437  13.733  13.499
46106W        W18432   2.519   0.764  11.600
46107W        W18433   6.232  26.734  12.994
46108W        W18434   5.155  39.744   1.502
46109W        W18435   4.839  28.047  12.079
46110W        W18436  25.376   5.394   0.923
46111W        W18437  31.407  33.059   1.828
46112W        W18438  20.048  39.679  11.316
46113W        W18439   0.000  30.202   0.476
46114W        W18440   1.327  41.878  11.191
46115W        W18441   6.349  28.925   3.741
46116W        W18442  19.004  36.162  11.067
46117W        W18443  35.015   5.971  11.573
46118W        W18444  12.228  16.841  12.880
46119W        W18445   0.735  12.134   2.898
46120W        W18446  36.917  10.010   4.525
46121W        W18447  10.120  41.056  12.588
46122W        W18448  43.359  21.290  10.544
46123W        W18449  29.322  21.290   2.218
46124W        W18450  25.611  11.511   1.766
46125W        W18451   7.206  41.513  10.653
46126W        W18452   7.770  29.423  12.486
46127W        W18453  19.290   8.121  12.180
46128W        W18454  19.598  37.318  14.824
46129W        W18455  24.588   6.945   3.297
46130W        W18456   7.408  10.646   3.665
46131W        W18457  17.787   3.487  13.803
46132W        W18458   0.489  36.857   4.653
46133W        W18459  25.458  25.468  14.420
46134W        W18460  26.687  22.538  14.010
46135W        W18461   4.884  15.016   3.583
46136W        W18462   6.943  22.583   4.658
46137W        W18463  29.894  34.680   1.194
46138W        W18464   8.624  16.317  14.842
46139W        W18465  12.498   6.823   1.307
46140W        W18466  24.209  35.404   2.472
46141W        W18467  22.186  16.663   2.228
46142W        W18468  34.640  15.559  13.369
46143W        W18469  40.766   8.427  12.340
46144W        W18470  12.109  24.578  10.238
46145W        W18471  28.537  36.813  14.633
46146W        W18472  20.512   5.354  13.892
46147W        W18473  14.268  26.518   4.086
46148W        W18474  35.108   1.261   0.266
46149W        W18475  10.144  42.816   0.038
46150W        W18476   4.906  10.345   4.100
46151W        W18477  18.549  18.638   1.491
46152W        W18478  25.869  37.058  10.550
46153W        W18479  44.254  28.519  13.047
46154W        W18480  12.603  42.891  13.948
46155W        W18481  18.300  20.142   2.722
46156W        W18482  35.103   4.135  13.352
46157W        W18483  36.102  14.714  14.055
46158W        W18484  19.568  37.063   3.556
46159W        W18485  14.212  38.852   3.339
46160W        W18486  23.873  35.087   4.663
46161W        W18487  14.627   4.973   1.642
46162W        W18488  11.293  42.008   2.709
46163W        W18489  44.992   1.431   3.607
46164W        W18490  33.599  20.057  11.258
46165W        W18491  11.912  10.259  10.359
46166W        W18492  15.889  35.479   2.692
46167W        W18493  41.792  28.007   2.564
46168W        W18494  36.514  10.265  10.902
46169W        W18495  34.405  31.749  13.651
46170W        W18496   2.524  10.847   1.486
46171W        W18497  38.208  43.033   5.064
46172W        W18498  17.525  35.589  12.101
46173W        W18499  11.744  32.637  11.423
46174W        W18500  31.214  11.293  12.859
46175W        W18501  33.430   4.735   3.418
46176W        W18502  44.813   6.781  14.503
46177W        W18503  40.426  18.228   0.734
46178W        W18504  28.638   9.193   3.113
46179W        W18505  11.190  24.749  11.658
46180W        W18506   9.589  28.084  10.707
46181W        W18507  39.094  13.548  12.966
46182W        W18508  33.820  39.420   2.395
46183W        W18509  40.604  28.028   4.552
46184W        W18510  44.832  12.649  13.643
46185W        W18511  18.537  33.984  14.881
46186W        W18512  14.139  11.409  12.181
46187W        W18513   2.003  34.721   2.288
46188W        W18514  44.008  18.360   3.217
46189W        W18515  16.297  30.496  14.217
46190W        W18516  38.479  37.292   4.625
46191W        W18517  21.412   3.928   4.222
46192W        W18518   1.671  11.178   4.792
46193W        W18519  26.580  16.994  10.623
46194W        W18520   0.419   1.814  13.806
46195W        W18521  28.965  23.155   1.520
46196W        W18522  24.953  21.480   2.697
46197W        W18523  44.813   5.169   3.762
46198W        W18524  38.016   2.924  13.249
46199W        W18525  44.514  30.390  11.816
46200W        W18526  23.275   8.238  13.549
46201W        W18527  25.627   1.855  14.225
46202W        W18528  16.367   3.978   3.678
46203W        W18529   6.750  38.634   0.947
46204W        W18530   6.848   3.876  13.228
46205W        W18531  26.577  29.645   2.899
46206W        W18532  35.487  22.152  11.912
46207W        W18533  10.774  25.431   1.234
46208W        W18534  37.010  10.219  10.609
46209W        W18535  40.833  34.006  14.109
46210W        W18536  18.786  44.904  11.533
46211W        W18537   8.638   9.541  10.761
46212W        W18538  23.518  30.036  11.031
46213W        W18539  23.790  28.661  11.203
46214W        W18540   1.431   3.775  13.531
46215W        W18541  33.269  18.068   1.833
46216W        W18542  32.959  27.693  12.160
46217W        W18543   9.228   8.475  13.009
46218W        W18544  36.790  10.510   1.220
46219W        W18545   5.503   7.665   3.203
46220W        W18546  40.274  18.470   2.798
46221W        W18547  24.978  24.600   0.309
46222W        W18548  32.557  19.505  13.479
46223W        W18549   7.894  30.925   1.366
46224W        W18550   6.828   3.805   3.872
46225W        W18551   4.344  30.155   3.910
46226W        W18552  10.128  34.057  13.878
46227W        W18553  13.602  34.792   0.393
46228W        W18554  10.117  24.259  10.974
46229W        W18555  25.037  44.029   2.845
46230W        W18556   1.700  11.639   5.606
46231W        W18557  40.749  14.106  11.527
46232W        W18558   1.960  26.208  12.440
46233W        W18559   4.679  32.635   2.792
46234W        W18560  26.767  33.163  13.918
46235W        W18561  40.579  40.238   4.211
46236W        W18562  29.584   0.771  10.598
46237W        W18563  16.304  26.967  13.393
46238W        W18564  41.142   3.772  13.242
46239W        W18565  16.855  40.304  14.116
46240W        W18566  26.119  11.170  12.360
46241W        W18567   1.711  26.482   2.366
46242W        W18568  33.282   3.451  13.852
46243W        W18569  43.471  43.475  12.338
46244W        W18570  12.919  34.036  11.173
46245W        W18571  25.470  38.923   3.749
46246W        W18572   8.953  21.165   0.799
46247W        W18573  30.057   8.809  10.649
46248W        W18574   5.948  21.362   0.971
46249W        W18575   1.409  10.404  12.805
46250W        W18576  34.985  10.585  14.551
46251W        W18577  10.400  17.718   3.213
46252W        W18578  28.178  44.952  11.029
46253W        W18579   6.458  23.214  11.448
46254W        W18580  13.092  28.697  13.595
46255W        W18581  17.098  36.087   3.110
46256W        W18582  26.192  23.762   4.901
46257W        W18583   2.686  26.925  12.810
46258W        W18584  35.284  11.303   3.262
46259W        W18585   5.764   1.254   4.693
46260W        W18586  19.889  28.097   3.183
46261W        W18587  21.768  19.343  13.787
46262W        W18588  27.024  37.470   1.340
46263W        W18589  25.194  28.168   0.165
46264W        W18590   4.133  14.071   4.582
46265W        W18591  13.356  38.851   3.326
46266W        W18592  26.298  16.679   1.023
46267W        W18593  40.384  28.584  10.760
46268W        W18594  15.028  20.835  13.899
46269W        W18595  19.826  26.757  12.381
46270W        W18596  21.693  21.426  11.294
46271W        W18597  34.884  44.531   5.051
46272W        W18598  26.018  40.682   0.397
46273W        W18599  16.293  13.993   3.253
46274W        W18600  38.092   3.969   4.077
46275W        W18601  28.513  10.349  12.140
46276W        W18602  30.938  38.520   1.041
46277W        W18603   0.032  20.728  14.407
46278W        W18604  31.620  20.972   0.341
46279W        W18605  42.795  10.415  13.739
46280W        W18606  36.254  29.167  11.280
46281W        W18607  18.496   5.410  12.698
46282W        W18608  22.214  34.087   3.464
46283W        W18609  20.483  31.676  14.849
46284W        W18610   2.425  44.397  12.793
46285W        W18611  15.824  17.913   4.748
46286W        W18612   9.406  13.594   3.202
46287W        W18613  39.812  43.286   4.512
46288W        W18614  29.886  39.456   0.753
46289W        W18615  16.705  38.608   0.817
46290W        W18616  17.021  39.394   0.971
46291W        W18617   6.444  15.233  12.403
46292W        W18618  18.593  33.662  12.111
46293W        W18619  37.611  44.969   0.917
46294W        W18620   6.671   9.189  11.974
46295W        W18621   2.304   9.576  13.552
46296W        W18622   7.896  33.380   0.375
46297W        W18623  23.693  21.147  14.057
46298W        W18624  12.864   4.585   4.585
46299W        W18625  20.265  30.745  13.913
46300W        W18626  30.306  40.469   4.411
46301W        W18627  12.907   2.524   1.949
46302W        W18628  20.192   2.418  11.621
46303W        W18629   5.496   5.246  11.691
46304W        W18630  16.493  15.239   0.013
46305W        W18631  33.091  35.401   4.758
46306W        W18632  33.159  31.342  13.620
46307W        W18633  33.953   0.359   3.363
46308W        W18634  32.959  42.403   1.243
46309W        W18635  20.122  35.303   4.312
46310W        W18636  29.945   5.457   2.729
46311W        W18637  29.634  42.305  11.182
46312W        W18638   0.737  33.938  13.496
46313W        W18639  36.871  17.608   3.151
46314W        W18640  15.603  21.414   3.112
46315W        W18641  15.598  26.685   2.623
46316W        W18642  10.050  32.321   0.778
46317W        W18643  23.631  24.978  11.700
46318W        W18644  19.959   6.338  11.722
46319W        W18645  19.024  12.248   3.894
46320W        W18646  16.215  29.275  14.029
46321W        W18647   8.748   9.264   1.986
46322W        W18648   9.212  17.083   2.221
46323W        W18649  32.451  19.878   1.878
46324W        W18650  44.114  14.859   2.487
46325W        W18651  32.203  35.650  12.424
46326W        W18652  27.209  36.937   4.619
46327W        W18653  11.254  19.628  13.015
46328W        W18654  22.508  20.380  10.444
46329W        W18655  40.869  14.838   2.192
46330W        W18656   6.971  26.610   0.977
46331W        W18657  25.894  36.553  10.631
46332W        W18658  37.494  40.541  10.771
46333W        W18659   6.243  22.537  10.645
46334W        W18660  33.469  29.926   3.321
46335W        W18661  34.556   8.420   2.321
46336W        W18662  34.873  12.922  14.816
46337W        W18663  21.980  43.364  13.419
46338W        W18664  16.853  13.369   1.214
46339W        W18665   1.784  38.581  14.808
46340W        W18666  29.446  30.182  13.415
46341W        W18667  35.576  10.453   9.988
46342W        W18668   4.752  19.617   2.877
46343W        W18669  18.840  43.343   4.152
46344W        W18670  12.925   0.111  12.427
46345W        W18671  16.526  22.575   1.059
46346W        W18672   7.414   5.057   2.928
46347W        W18673  28.564  44.289  11.442
46348W        W18674   7.809  19.899   5.058
46349W        W18675  13.235   2.180   2.185
46350W        W18676  17.323   0.411  12.608
46351W        W18677  41.989  28.605   4.824
46352W        W18678  17.846  14.233  12.036
46353W        W18679  21.058  14.292   1.329
46354W        W18680   1.745   2.776  10.935
46355W        W18681  22.096  41.933   3.544
46356W        W18682   5.983  12.333  11.210
46357W        W18683   4.929  44.471   0.714
46358W        W18684  17.112  11.389   1.270
46359W        W18685  17.619  16.898  12.860
46360W        W18686  34.760   8.189  14.501
46361W        W18687  28.001  27.539  10.225
46362W        W18688  20.179  37.778   3.371
46363W        W18689   5.171   7.225  10.558
46364W        W18690  21.986   6.898  13.020
46365W        W18691  30.644  29.937  12.052
46366W        W18692  16.750  36.582  13.057
46367W        W18693  12.468  16.397  11.050
46368W        W18694   5.452   1.236  12.898
46369W        W18695  24.147  37.630  10.121
46370W        W18696  22.573  10.751   0.969
46371W        W18697  29.037  20.967  11.997
46372W        W18698  44.369  18.619  11.261
46373W        W18699  34.127  36.419  10.214
46374W        W18700  32.473  28.596  11.222
46375W        W18701  15.814  25.125  12.847
46376W        W18702  23.533  32.582  13.613
46377W        W18703   7.536   9.696   1.166
46378W        W18704  42.355  18.518   2.916
46379W        W18705   4.483   3.483   4.579
46380W        W18706  17.963  31.147   2.591
46381W        W18707  21.727   6.519   0.010
46382W        W18708  10.922  33.865  11.100
46383W        W18709   9.586  24.538  13.886
46384W        W18710  18.518  32.483   4.679
46385W        W18711  27.225  27.580  14.016
46386W        W18712  21.550   6.459  14.001
46387W        W18713  35.450  41.769   4.324
46388W        W18714  18.269  20.309  12.895
46389W        W18715  16.410   7.812   3.751
46390W        W18716  12.279  17.193   0.825
46391W        W18717   3.638  23.497  11.437
46392W        W18718   5.701  13.562  12.030
46393W        W18719  15.111  16.982  14.005
46394W        W18720   0.023  22.349   3.796
46395W        W18721  18.310  26.655   1.312
46396W        W18722  18.176   8.450  11.094
46397W        W18723  43.252  14.675   0.381
46398W        W18724  15.256  39.521   1.180
46399W        W18725  32.484  10.416   4.127
46400W        W18726  41.312  12.572  13.258
46401W        W18727  24.097  33.538  14.153
46402W        W18728  12.125  30.407   3.064
46403W        W18729  30.215  17.278   0.737
46404W        W18730  22.693  10.240   0.518
46405W        W18731  27.722  44.399  10.445
46406W        W18732  34.019   0.980   4.194
46407W        W18733  38.077  44.231   3.022
46408W        W18734  21.147  16.021   1.884
46409W        W18735  29.608   5.671   1.367
46410W        W18736   2.262  10.865  12.454
46411W        W18737  11.846  33.113   2.806
46412W        W18738  30.839  22.454   1.925
46413W        W18739  13.326  11.332   2.297
46414W        W18740  10.863  17.557  12.093
46415W        W18741   9.910  16.859   4.073
46416W        W18742  12.355  30.566   2.108
46417W        W18743   8.970  21.570  13.908
46418W        W18744  18.391  26.479  12.615
46419W        W18745   9.787  36.929   0.364
46420W        W18746   2.916  26.420  11.981
46421W        W18747  21.512  15.843  14.919
46422W        W18748  39.400  14.865  14.997
46423W        W18749  25.033  34.326   1.851
46424W        W18750   0.298  16.147   2.749
46425W        W18751  29.098  19.558  10.982
46426W        W18752  33.653  28.243   0.963
46427W        W18753  19.718   4.450  12.565
46428W        W18754  25.767  25.734  11.747
46429W        W18755  15.746  10.466   1.301
46430W        W18756  33.335  25.006  11.551
46431W        W18757  44.075  35.398   1.009
46432W        W18758  19.155  15.276  14.016
46433W        W18759  30.677   1.333  11.148
46434W        W18760  38.804  37.383  14.376
46435W        W18761  24.336  30.401  10.192
46436W        W18762  14.180  13.335   1.374
46437W        W18763   0.490  20.565   1.928
46438W        W18764  38.414  33.800   1.807
46439W        W18765  36.468  23.278   3.423
46440W        W18766  19.197  43.040  10.966
46441W        W18767  30.511  34.943  14.843
46442W        W18768  39.868  21.636   4.821
46443W        W18769  18.013  15.068   0.599
46444W        W18770  40.784  34.000  14.634
46445W        W18771   0.449  27.029   4.554
46446W        W18772  30.439   9.217  13.904
46447W        W18773  12.619  31.312   4.081
46448W        W18774  12.842  35.426   4.574
46449W        W18775  24.237   2.452  13.391
46450W        W18776  40.885   5.267   4.115
46451W        W18777  22.508  28.133   4.167
46452W        W18778  35.496   2.345  11.193
46453W        W18779  39.584  36.978   2.794
46454W        W18780  22.188  37.549  10.438
46455W        W18781  10.447  23.179   0.824
46456W        W18782  10.135  13.648   4.350
46457W        W18783  10.693  23.542   2.163
46458W        W18784  14.435  24.891   4.700
46459W        W18785  22.642  24.295  10.766
46460W        W18786  18.091  22.779  14.429
46461W        W18787  10.418   5.378   0.784
46462W        W18788  12.787  22.245   4.039
46463W        W18789  43.859  17.167  14.302
46464W        W18790  42.797  27.714   2.355
46465W        W18791  15.071  23.244  13.929
46466W        W18792   2.919  18.542   1.709
46467W        W18793  37.972   9.736   0.103
46468W        W18794  37.577  23.820   0.776
46469W        W18795  42.443  22.255  10.687
46470W        W18796   3.023  41.122   3.202
46471W        W18797  26.119   9.298   1.491
46472W        W18798   1.218  18.473  13.929
46473W        W18799  10.863  33.313  13.825
46474W        W18800  25.085  11.167   4.373
46475W        W18801  28.962  32.377  14.043
46476W        W18802   3.463  20.539  13.340
46477W        W18803  18.365  43.061   0.792
46478W        W18804   8.827  19.600   0.817
46479W        W18805  12.374   5.523   0.915
46480W        W18806  18.480  31.902  10.362
46481W        W18807  31.990  18.034   3.699
46482W        W18808  21.738  12.393  14.754
46483W        W18809  13.288  10.901   0.417
46484W        W18810  22.627  41.265   4.170
46485W        W18811  28.689  26.593  13.117
46486W        W18812  38.770  37.541   0.797
46487W        W18813   4.791   2.673  11.075
46488W        W18814  38.542  24.607  14.725
46489W        W18815  39.164  38.452  11.373
46490W        W18816  33.109  36.916  11.230
46491W        W18817  26.506  41.272   4.937
46492W        W18818  36.882  29.573  11.998
46493W        W18819  33.835  34.637  13.171
46494W        W18820   6.130  22.332   4.775
46495W        W18821  43.794  35.592   1.386
46496W        W18822  21.737   1.302   1.492
46497W        W18823  40.014  28.077   0.298
46498W        W18824  28.594  13.260   0.731
46499W        W18825  18.525  14.575  13.517
46500W        W18826  18.425  21.596  12.558
46501W        W18827   3.691  16.516  12.071
46502W        W18828  33.476  18.537   0.825
46503W        W18829  40.712   3.294   1.069
46504W        W18830   1.302  40.950  13.071
46505W        W18831  42.281  24.606  14.044
46506W        W18832  22.680  11.770   3.680
46507W        W18833  32.208  35.249   3.305
46508W        W18834  16.732  13.211   3.055
46509W        W18835  16.118  10.595  11.193
46510W        W18836  35.680  22.688  11.288
46511W        W18837  43.518  42.963  13.859
46512W        W18838  17.346  11.605  12.910
46513W        W18839   7.177   6.856   2.483
46514W        W18840  37.091  30.589   1.742
46515W        W18841   4.403  31.480   4.175
46516W        W18842   5.771  13.797   1.375
46517W        W18843  26.491  39.021   4.609
46518W        W18844  28.573   0.439  13.469
46519W        W18845  26.988  31.047   1.891
46520W        W18846  12.378   2.806   4.581
46521W        W18847  10.782  35.963   4.490
46522W        W18848  34.898  31.677   4.097
46523W        W18849  24.703  25.259  13.416
46524W        W18850  25.545   1.891   4.919
46525W        W18851  21.547  26.013  12.450
46526W        W18852  37.986   6.927  10.555
46527W        W18853  17.150  28.501   2.713
46528W        W18854  11.715  32.401   4.938
46529W        W18855  31.957  19.276   0.386
46530W        W18856  31.505  23.585  12.169
46531W        W18857  37.619  32.652   2.621
46532W        W18858   4.325  44.001  12.613
46533W        W18859  31.941   0.656   0.866
46534W        W18860  21.206  27.096   5.010
46535W        W18861  16.551  23.583   4.107
46536W        W18862  14.243  14.610  11.175
46537W        W18863  22.102  11.173  12.748
46538W        W18864  28.198  32.961   4.137
46539W        W18865  26.424  37.635   1.311
46540W        W18866   1.502   2.432  10.668
46541W        W18867   2.877  17.108   4.365
46542W        W18868   1.287  41.916  10.677
46543W        W18869   1.486  10.494  10.871
46544W        W18870  13.433  17.527   1.504
46545W        W18871   5.437  43.376  11.355
46546W        W18872   9.638   0.068  13.767
46547W        W18873   6.010  20.835  10.607
46548W        W18874  24.215  17.682   9.737
46549W        W18875  23.944  33.488   1.946
46550W        W18876  19.651   6.744  11.851
46551W        W18877  22.388  15.809  12.839
46552W        W18878  40.864  39.868  13.869
46553W        W18879  38.236  18.660  13.663
46554W        W18880  42.937  36.269  13.184
46555W        W18881  39.457  33.625  12.079
46556W        W18882  23.747   1.481  11.995
46557W        W18883   5.129   8.531  12.303
46558W        W18884  30.712  23.521   4.516
46559W        W18885  37.446  13.609   9.986
46560W        W18886  36.792  35.444  11.207
46561W        W18887  25.039  24.071  12.476
46562W        W18888  36.274   2.380  10.668
46563W        W18889  38.333  27.905   2.375
46564W        W18890  28.433   9.708   1.689
46565W        W18891   8.379   3.715   1.632
46566W        W18892   0.231  13.685  12.991
46567W        W18893  27.608   3.461   4.403
46568W        W18894  26.006   9.904  12.123
46569W        W18895   4.806  26.288   0.253
46570W        W18896  23.042  41.221  13.481
46571W        W18897  25.601  38.394   4.079
46572W        W18898  42.349  28.207   3.182
46573W        W18899  43.950  11.619  13.897
46574W        W18900  30.191   9.856  14.863
46575W        W18901  34.613  42.413   3.623
46576W        W18902  37.033  23.797  11.568
46577W        W18903  14.762  15.099  13.299
46578W        W18904  31.574  34.900   2.204
46579W        W18905  35.098   2.846   1.809
46580W        W18906  44.915  22.471  11.947
46581W        W18907  17.819  14.853   4.902
46582W        W18908  42.265  40.500   3.936
46583W        W18909  21.625  26.253   4.749
46584W        W18910   3.675  11.432  13.441
46585W        W18911   4.745  12.257  14.358
46586W        W18912  43.860  19.695   0.186
46587W        W18913  24.472  36.077   2.902
46588W        W18914   0.287  44.820  12.025
46589W        W18915  10.875  10.687   3.163
46590W        W18916   1.231   6.632   4.609
46591W        W18917  32.163   6.457  14.008
46592W        W18918  18.781  14.571  10.417
46593W        W18919   8.669  44.926  12.922
46594W        W18920   9.165  23.464   1.328
46595W        W18921  43.163   8.886   1.664
46596W        W18922  23.438  28.053  14.738
46597W        W18923  22.754  14.312   3.705
46598W        W18924  33.086  44.815  13.775
46599W        W18925  28.525  38.967  10.904
46600W        W18926   3.676  25.262   2.091
46601W        W18927   7.101   3.492  11.594
46602W        W18928  31.026  37.947  13.129
46603W        W18929   2.672  29.020   5.171
46604W        W18930   6.642  39.412   0.523
46605W        W18931  15.624  42.517  14.038
46606W        W18932  20.029  38.385  10.769
46607W        W18933   7.853   4.500   1.314
46608W        W18934   4.169  13.377   0.467
46609W        W18935  41.354   5.354  14.274
46610W        W18936  13.165   8.799  13.360
46611W        W18937  32.074  33.963  10.443
46612W        W18938  35.781  38.062  11.102
46613W        W18939  22.145  33.138   4.192
46614W        W18940   8.630  38.754  13.911
46615W        W18941  28.086  18.641  10.242
46616W        W18942  29.517   7.581  11.548
46617W        W18943  24.843  31.465  13.420
46618W        W18944   7.847  34.893   1.622
46619W        W18945   1.888   7.154   1.089
46620W        W18946  36.360  26.177   2.943
46621W        W18947  29.371  25.157  12.109
46622W        W18948  31.885  39.497   1.714
46623W        W18949   1.793  27.968   4.563
46624W        W18950  34.503  27.670   3.474
46625W        W18951  26.256   4.191   0.037
46626W        W18952  24.064   0.400  12.611
46627W        W18953  34.540   9.749   2.815
46628W        W18954  40.850   2.402  14.999
46629W        W18955  16.627  19.794   2.918
46630W        W18956  31.553  40.090  13.119
46631W        W18957  35.289   4.320   0.405
46632W        W18958   2.203  15.587  12.999
46633W        W18959  34.456  25.654   4.227
46634W        W18960  26.422  16.642   5.037
46635W        W18961  41.849  24.938  13.458
46636W        W18962  37.517   1.071   2.924
46637W        W18963  19.238  23.349   4.567
46638W        W18964  20.703  16.804   2.355
46639W        W18965  31.582  34.135   1.211
46640W        W18966  31.415  31.451  11.708
46641W        W18967  36.073  11.697  14.318
46642W        W18968  37.773  24.452  11.228
46643W        W18969   6.774  31.278   0.817
46644W        W18970  35.721  12.086  12.474
46645W        W18971  18.093  22.966   0.514
46646W        W18972  34.648  37.917  13.418
46647W        W18973  43.955  13.736  12.578
46648W        W18974  15.846  16.729   2.115
46649W        W18975  40.372  17.580  12.977
46650W        W18976  33.476  19.804  11.702
46651W        W18977   2.239  32.938   1.307
46652W        W18978   9.972  43.749   2.724
46653W        W18979  42.883   2.739  12.440
46654W        W18980  17.593   1.806   4.196
46655W        W18981  13.570  44.308  13.167
46656W        W18982  14.272   6.279   4.537
46657W        W18983  15.886   5.229   4.057
46658W        W18984   9.350   6.116   3.326
46659W        W18985  10.754   1.718   4.580
46660W        W18986   8.931   4.248  13.409
46661W        W18987  31.661  13.181  13.062
46662W        W18988  28.557  32.609  14.835
46663W        W18989  22.220  10.606  11.152
46664W        W18990  17.402  35.316  12.525
46665W        W18991  33.648  20.213   4.120
46666W        W18992  24.096  18.083  12.589
46667W        W18993  25.614   9.266  14.351
46668W        W18994  33.145  17.103  12.879
46669W        W18995   6.652  16.597   4.630
46670W        W18996  37.301   1.279  13.723
46671W        W18997   8.416   3.905  14.862
46672W        W18998  23.109  33.763  14.273
46673W        W18999  19.020  29.191  13.998
46674W        W19000   1.285  14.304   1.712
46675W        W19001  31.662  25.122   3.163
46676W        W19002  34.818  12.310   2.614
46677W        W19003  24.542  10.206  10.187
46678W        W19004  32.901  16.294   0.968
46679W        W19005  28.990   5.851  13.109
46680W        W19006  36.336  31.234  13.303
46681W        W19007   0.762  42.792   1.797
46682W        W19008  20.135  39.506  10.839
46683W        W19009  37.898   6.640  14.913
46684W        W19010  17.167   8.791   2.245
46685W        W19011  30.887  20.342  11.593
46686W        W19012   2.031  22.654  12.313
46687W        W19013  36.613   4.652   0.215
46688W        W19014   5.814  24.700   0.513
46689W        W19015  20.326   1.788  12.463
46690W        W19016  12.492   9.124   1.465
46691W        W19017  19.000  11.336  12.082
46692W        W19018   9.316  26.903  12.615
46693W        W19019  25.426  44.804   1.729
46694W        W19020  19.463  26.017  10.895
46695W        W19021  12.191   4.512  12.968
46696W        W19022  16.575   1.007  10.606
46697W        W19023  43.826  44.983   3.148
46698W        W19024  32.072  20.369  12.849
46699W        W19025  35.979   9.954  14.883
46700W        W19026  41.375   6.322  12.053
46701W        W19027   2.892   0.281   3.555
46702W        W19028  37.356   3.392  14.362
46703W        W19029   8.399  32.597   3.802
46704W        W19030  23.117  40.343   1.726
46705W        W19031  12.163  22.221  10.669
46706W        W19032  23.673  42.298  11.574
46707W        W19033  10.743   0.030  13.519
46708W        W19034  32.080  28.636   4.474
46709W        W19035  27.653  38.529  13.263
46710W        W19036  31.002   9.981   2.705
46711W        W19037   9.801  27.687  13.481
46712W        W19038   7.988  34.468   0.855
46713W        W19039  28.630  18.628  12.253
46714W        W19040  43.119  18.542   0.836
46715W        W19041  15.297  21.718   2.208
46716W        W19042  27.662  34.935  14.505
46717W        W19043   3.703  31.452   1.274
46718W        W19044  10.202   8.278   4.176
46719W        W19045  32.882   2.877   3.283
46720W        W19046  10.601  26.459   3.310
46721W        W19047  38.600  34.599  11.496
46722W        W19048   2.210  24.402   1.416
46723W        W19049  22.607  17.107  10.990
46724W        W19050  41.466  41.866   3.889
46725W        W19051  42.416   2.947  12.652
46726W        W19052  40.758  29.678  12.105
46727W        W19053   6.949  28.849  13.400
46728W        W19054  39.136  35.517  14.350
46729W        W19055  26.746  11.119  12.886
46730W        W19056  31.604  25.219  13.759
46731W        W19057  36.792  14.361   2.366
46732W        W19058  27.461  19.091   1.343
46733W        W19059  10.412  34.548  13.037
46734W        W19060   8.884  29.277   0.861
46735W        W19061  29.659   6.425  14.253
46736W        W19062  13.300  34.850  14.826
46737W        W19063  26.114  44.182   2.940
46738W        W19064  13.696  33.100  14.454
46739W        W19065  17.093   4.896  10.257
46740W        W19066  16.681  13.589   2.706
46741W        W19067  29.507  25.788  11.436
46742W        W19068  33.621   7.196   4.685
46743W        W19069  41.539  28.697   2.742
46744W        W19070   9.736  35.867  10.664
46745W        W19071  36.214  33.327  10.592
46746W        W19072  42.383  31.122   4.541
46747W        W19073  16.681  12.056  14.029
46748W        W19074  30.577  38.170   1.227
46749W        W19075  44.503   7.162   1.970
46750W        W19076  36.681  15.496   1.631
46751W        W19077  22.415   5.814   3.949
46752W        W19078  13.324  33.447   5.101
46753W        W19079  22.040  21.984  13.871
46754W        W19080  13.931  41.462   4.933
46755W        W19081   0.262  12.583  14.386
46756W        W19082  23.782  21.699   0.251
46757W        W19083  21.821  15.754   0.908
46758W        W19084   6.216  26.557  12.481
46759W        W19085  20.077  22.077   3.336
46760W        W19086  18.082   6.272  13.861
46761W        W19087   1.011   0.916   2.809
46762W        W19088  23.108   0.388  10.955
46763W        W19089   8.149   9.758   1.840
46764W        W19090  29.830   5.887   0.017
46765W        W19091   9.041   4.324  11.273
46766W        W19092  13.325  12.367   1.463
46767W        W19093   8.007  38.746   2.297
46768W        W19094   4.321  12.555   3.000
46769W        W19095  42.492  14.993  12.663
46770W        W19096  40.196   3.759  10.651
46771W        W19097  19.817  33.483   3.253
46772W        W19098  38.403  26.732   3.787
46773W        W19099  11.428  13.679  11.204
46774W        W19100  14.100   2.192  11.032
46775W        W19101  37.453  14.772   0.088
46776W        W19102  28.145  18.084   0.301
46777W        W19103  33.464  39.975  14.054
46778W        W19104  39.429  43.857  12.055
46779W        W19105  21.686  20.047  11.998
46780W        W19106  10.846  41.841   1.370
46781W        W19107  32.641   5.187  12.620
46782W        W19108  10.512  31.519  13.364
46783W        W19109   6.258   0.600  10.187
46784W        W19110  44.454  15.738  12.882
46785W        W19111  16.865  37.510   1.458
46786W        W19112  40.343  31.615   4.785
46787W        W19113   4.189  23.147   0.429
46788W        W19114  12.741  34.449  12.933
46789W        W19115   2.945  41.566  14.832
46790W        W19116   4.212   1.515   0.653
46791W        W19117  24.741  33.556  14.917
46792W        W19118  16.992   1.220  14.332
46793W        W19119   6.247  26.550  10.700
46794W        W19120  21.628  13.559   4.062
46795W        W19121   0.928   2.550  11.510
46796W        W19122  29.280  33.423   5.027
46797W        W19123  11.042   1.355   0.315
46798W        W19124  16.080  28.153   2.391
46799W        W19125  25.089  42.848  11.683
46800W        W19126   4.342  18.551   0.546
46801W        W19127  22.196   1.359  11.148
46802W        W19128  13.389  39.827   2.940
46803W        W19129   7.711   6.779   1.766
46804W        W19130  18.258   4.411  13.415
46805W        W19131  15.226  16.818  11.415
46806W        W19132  39.516  16.738   0.908
46807W        W19133  17.129  38.803   4.564
46808W        W19134   6.913  28.423   3.821
46809W        W19135  21.085  42.589   1.139
46810W        W19136  11.870  19.848   3.064
46811W        W19137   0.834   3.492  12.972
46812W        W19138  16.589  19.554  14.905
46813W        W19139  36.591  34.556   2.653
46814W        W19140  33.962  26.964  14.084
46815W        W19141  22.187  12.085  13.515
46816W        W19142  42.458  43.502   2.680
46817W        W19143  30.941  38.300   1.571
46818W        W19144  11.515  41.996  12.567
46819W        W19145  13.849  30.704   2.200
46820W        W19146  19.803  16.191  13.820
46821W        W19147  35.090  39.861  12.441
46822W        W19148  23.996  36.213   3.065
46823W        W19149  10.654  10.363   0.644
46824W        W19150  35.139  26.181   2.253
46825W        W19151   0.024  11.794  11.695
46826W        W19152   1.290  30.965  10.723
46827W        W19153  37.060  15.860   3.224
46828W        W19154  23.600  16.090  13.514
46829W        W19155  31.082  13.371  11.525
46830W        W19156   7.693   5.947   3.762
46831W        W19157  29.974  33.285   2.644
46832W        W19158  21.211  33.552   4.989
46833W        W19159  44.234  21.280  12.868
46834W        W19160  28.879  44.455   2.144
46835W        W19161   5.287   2.859   4.874
46836W        W19162   3.964  28.531  13.031
46837W        W19163  40.023  21.133  12.375
46838W        W19164  17.052  34.405  14.737
46839W        W19165  36.557  15.096  14.458
46840W        W19166  13.790   6.276  10.694
46841W        W19167   4.093  40.907  11.325
46842W        W19168  22.479  42.877  14.468
46843W        W19169  34.989  41.497  11.265
46844W        W19170  16.742   4.981   2.115
46845W        W19171   8.136  29.620   1.289
46846W        W19172  36.623  33.216  13.175
46847W        W19173  38.765   9.344  13.827
46848W        W19174   1.681  17.577  12.661
46849W        W19175  40.884  44.809  13.195
46850W        W19176   1.937  43.801   0.841
46851W        W19177  33.531   7.414   0.411
46852W        W19178  33.659   3.357  11.554
46853W        W19179  40.365   7.191   2.421
46854W        W19180  31.560   2.257   0.534
46855W        W19181  34.526  22.261  10.710
46856W        W19182  37.193  15.677   1.764
46857W        W19183  20.503  41.621  11.938
46858W        W19184  17.277  39.394   0.508
46859W        W19185  21.741  27.432   1.394
46860W        W19186  23.983  10.453   3.173
46861W        W19187  18.536   3.534   0.801
46862W        W19188  19.472  23.115   2.943
46863W        W19189  25.184  39.395   5.053
46864W        W19190  12.300  29.923  11.070
46865W        W19191  33.956   2.058  14.833
46866W        W19192   1.609  19.842   1.844
46867W        W19193  40.728  19.444   0.461
46868W        W19194  28.097   5.981   4.762
46869W        W19195  25.024  27.182  14.379
46870W        W19196  43.801  30.494  13.022
46871W        W19197  12.332  29.616   1.011
46872W        W19198  42.138  12.778   4.947
46873W        W19199  31.336   6.396  13.447
46874W        W19200   2.747  27.677  11.157
46875W        W19201  10.045   4.715   1.926
46876W        W19202  26.648   5.715  14.980
46877W        W19203  37.267   1.480  12.475
46878W        W19204   1.234  11.816   0.827
46879W        W19205  44.703  17.055  14.820
46880W        W19206   3.729  11.451  12.518
46881W        W19207  10.832  13.815  13.277
46882W        W19208  41.066  17.202   2.160
46883W        W19209  22.049   4.982  13.519
46884W        W19210  27.610  26.963  13.752
46885W        W19211  13.334  25.050  11.880
46886W        W19212  21.183  11.789   3.842
46887W        W19213   3.526  20.822  13.771
46888W        W19214  20.094   9.743  10.949
46889W        W19215   9.620   1.211  12.953
46890W        W19216  21.598  41.861   4.924
46891W        W19217  31.355  30.428  14.350
46892W        W19218  30.635  28.051  11.227
46893W        W19219  31.916  30.895  12.917
46894W        W19220  39.948  42.146  14.312
46895W        W19221  38.766  31.946   4.587
46896W        W19222  41.006  37.330   0.328
46897W        W19223   5.174  36.653  10.647
46898W        W19224  19.283  35.184  11.100
46899W        W19225  21.955  18.677  11.065
46900W        W19226   1.597   4.329   0.178
46901W        W19227  27.894  28.990  11.667
46902W        W19228  33.780  40.294   1.454
46903W        W19229  22.098  26.189  14.761
46904W        W19230  38.804   1.245   1.870
46905W        W19231  39.737  37.102   4.479
46906W        W19232  26.654  29.922  14.988
46907W        W19233  38.319  28.640  14.318
46908W        W19234  17.808  37.425   0.450
46909W        W19235  37.447  20.263   4.939
46910W        W19236  22.235  28.509   4.364
46911W        W19237   9.160   0.671  14.943
46912W        W19238  12.658   2.869   2.245
46913W        W19239  29.576  19.328  10.931
46914W        W19240  25.221  18.677  12.083
46915W        W19241   6.639  28.223   4.297
46916W        W19242  41.954  34.521   0.962
46917W        W19243  14.634  16.343  12.039
46918W        W19244  22.489  28.050  14.872
46919W        W19245  30.875  32.588   3.785
46920W        W19246   8.678  13.088  11.147
46921W        W19247  20.593  17.554   3.840
46922W        W19248  32.473  31.400   1.418
46923W        W19249  23.173  27.532  13.898
46924W        W19250  20.062  16.069   3.252
46925W        W19251   3.785  22.564  11.100
46926W        W19252   9.244   1.967   1.258
46927W        W19253  23.034  35.454   4.903
46928W        W19254  37.416  14.206  13.308
46929W        W19255   7.438  10.282   1.832
46930W        W19256  27.083  40.783  13.893
46931W        W19257  17.786  32.076   2.959
46932W        W19258  32.830   6.859   0.916
46933W        W19259  28.966  23.742  14.536
46934W        W19260  12.452  43.785   3.157
46935W        W19261  16.094  14.325  10.090
46936W        W19262  32.886  37.877   0.465
46937W        W19263  10.861   4.802   0.473
46938W        W19264   6.843  36.335   4.651
46939W        W19265   7.296   4.034  14.501
46940W        W19266  28.826   6.235   2.304
46941W        W19267  44.457  18.616  13.071
46942W        W19268  16.304  18.649  11.125
46943W        W19269  44.930  15.771  13.107
46944W        W19270  16.603  21.023  12.056
46945W        W19271  26.073  15.282  12.148
46946W        W19272  22.242  30.946   1.896
46947W        W19273   4.850   9.580   3.691
46948W        W19274   2.404  36.592   0.715
46949W        W19275   5.407  31.368   4.152
46950W        W19276  27.825  18.739  10.672
46951W        W19277  30.100   6.919   3.807
46952W        W19278  36.854   7.929   1.782
46953W        W19279  41.971  34.912   4.287
46954W        W19280   0.896  40.921  10.798
46955W        W19281   9.336  10.537   2.844
46956W        W19282  12.189   2.441   4.075
46957W        W19283  12.321  18.544  13.987
46958W        W19284  16.793  34.162   0.719
46959W        W19285  22.130  16.214  12.090
46960W        W19286   3.729  37.446   4.043
46961W        W19287  42.900   9.991   1.046
46962W        W19288  44.950   4.193   2.983
46963W        W19289  39.931  34.169  13.605
46964W        W19290  28.473  12.187   4.749
46965W        W19291  41.970  21.259   5.020
46966W        W19292  11.661  28.141  11.311
46967W        W19293  18.066  22.109   4.897
46968W        W19294  11.640  15.332   0.274
46969W        W19295  21.595  40.885   0.724
46970W        W19296   5.300  10.814  14.519
46971W        W19297  26.154  26.613   5.073
46972W        W19298  13.567  32.012   4.594
46973W        W19299  25.320  23.536  12.298
46974W        W19300  20.926  16.822   0.430
46975W        W19301  36.396  40.360  14.807
46976W        W19302  24.231  15.126   3.516
46977W        W19303  12.527  14.143   3.654
46978W        W19304  25.680  35.133   0.850
46979W        W19305  27.898  11.237  11.180
46980W        W19306  31.932  26.550   3.164
46981W        W19307   5.447   9.776  12.012
46982W        W19308  30.641  16.977   0.750
46983W        W19309  26.719  11.323   2.197
46984W        W19310   1.321  20.418  11.196
46985W        W19311  41.987  26.107  13.951
46986W        W19312  27.086  29.061  10.348
46987W        W19313  43.077   1.900   0.244
46988W        W19314  31.628  42.659  12.855
46989W        W19315  32.342   9.299  11.150
46990W        W19316   5.917  24.677  14.542
46991W        W19317   0.648  30.958   1.879
46992W        W19318  28.916  40.174  12.979
46993W        W19319  12.640   8.795  12.992
46994W        W19320   7.651   5.184  14.376
46995W        W19321  22.249  42.788   0.070
46996W        W19322  21.589  14.654   2.733
46997W        W19323  33.704   3.215   1.279
46998W        W19324  30.132  26.166   5.113
46999W        W19325  42.956   6.856  13.518
47000W        W19326   5.319   6.724   4.413
47001W        W19327  35.927  44.383   1.885
47002W        W19328  37.526  36.206   4.359
47003W        W19329   4.652   7.383  12.014
47004W        W19330   1.859  19.279   2.657
47005W        W19331  43.745  16.796   4.659
47006W        W19332  16.170   5.151  11.735
47007W        W19333  26.005  21.970  10.547
47008W        W19334  35.346  40.213   0.883
47009W        W19335   2.749  44.711   1.122
47010W        W19336  35.141  14.780  14.341
47011W        W19337  31.359  28.672   3.257
47012W        W19338   4.982  10.833  11.590
47013W        W19339   3.990  44.961  13.443
47014W        W19340   7.416  43.669   5.015
47015W        W19341  16.134  38.366   1.798
47016W        W19342   1.420  28.979   1.730
47017W        W19343  19.512  13.934   3.275
47018W        W19344  14.843  33.506   1.663
47019W        W19345  42.316  19.622  14.775
47020W        W19346  41.052  12.206   1.198
47021W        W19347   4.717  14.040  14.893
47022W        W19348   5.438  14.993   3.625
47023W        W19349   8.449   6.897  13.449
47024W        W19350  18.299  13.668   1.366
47025W        W19351  42.515  27.694  13.373
47026W        W19352  35.851  35.627   4.120
47027W        W19353  21.980   6.676   4.244
47028W        W19354  34.969   2.849  12.643
47029W        W19355   5.093  12.942  12.547
47030W        W19356  36.882  13.855   2.341
47031W        W19357  38.788  19.455  13.590
47032W        W19358  27.119  27.262  12.500
47033W        W19359   2.206   9.404   3.712
47034W        W19360  26.947  13.227   0.282
47035W        W19361   3.620  41.559   4.381
47036W        W19362  25.340  17.070  11.915
47037W        W19363  26.521  11.024   1.827
47038W        W19364  12.456  37.296  14.482
47039W        W19365  15.964  20.858  11.500
47040W        W19366  14.658  17.513  12.838
47041W        W19367  12.124   1.792   2.658
47042W        W19368  17.149  34.673   3.853
47043W        W19369   2.991  30.619   0.505
47044W        W19370  18.164  11.158   0.728
47045W        W19371  42.192  40.827   2.824
47046W        W19372   4.727  10.643   2.428
47047W        W19373  40.954  25.385  12.894
47048W        W19374   9.270  16.936   0.431
47049W        W19375   1.537  35.242   2.882
47050W        W19376  16.968  39.981   1.700
47051W        W19377   3.482   6.381   1.354
47052W        W19378  22.123   3.239  11.461
47053W        W19379  29.961   6.029  13.125
47054W        W19380  10.125  10.367   4.101
47055W        W19381  25.744  22.427  13.956
47056W        W19382  21.785  36.032  12.024
47057W        W19383  17.856  19.185  13.442
47058W        W19384  34.094   9.786   4.109
47059W        W19385  44.848  25.735  11.518
47060W        W19386   2.239  18.619   3.927
47061W        W19387  10.153  44.213   2.664
47062W        W19388  15.312  23.397  13.475
47063W        W19389   4.951  35.387   3.382
47064W        W19390  17.858  27.975  11.596
47065W        W19391  15.526  13.918  11.146
47066W        W19392   4.340  33.909   2.354
47067W        W19393   2.704  27.102   1.666
47068W        W19394  44.431  42.019  10.201
47069W        W19395   4.424  30.188   2.675
47070W        W19396  32.348  30.607   3.375
47071W        W19397  16.624   0.683   1.501
47072W        W19398  15.516  10.659   3.694
47073W        W19399  19.463  21.809  11.489
47074W        W19400   9.877  24.533   1.809
47075W        W19401  23.505   0.394   3.619
47076W        W19402  40.345  35.779   1.380
47077W        W19403  18.109  42.184  11.487
47078W        W19404  39.080  43.042  13.937
47079W        W19405   5.082  29.020   4.242
47080W        W19406  24.302  38.416  13.856
47081W        W19407  16.421  25.715   3.547
47082W        W19408  30.910  21.175   2.409
47083W        W19409   1.172  33.020  14.380
47084W        W19410  12.855  41.793   3.774
47085W        W19411  43.828  12.876  11.961
47086W        W19412   0.977  13.897  10.698
47087W        W19413  27.437   1.225  13.058
47088W        W19414  22.029  13.148  10.453
47089W        W19415  29.960  43.640   0.712
47090W        W19416  24.498  14.463  10.145
47091W        W19417   9.882  11.792   0.442
47092W        W19418   1.010  17.775   2.146
47093W        W19419  29.610  16.103   4.798
47094W        W19420  20.267  41.174  11.594
47095W        W19421  27.746  16.278   4.094
47096W        W19422   6.207   1.501  10.765
47097W        W19423   5.721  39.755   3.727
47098W        W19424  19.784  19.499  14.483
47099W        W19425  24.788   5.426  14.400
47100W        W19426   5.830   7.892   2.180
47101W        W19427  38.278  17.109   2.680
47102W        W19428  44.507  29.056   3.852
47103W        W19429   8.656   2.895  11.099
47104W        W19430  31.914   8.752  14.478
47105W        W19431  36.698  11.276  13.459
47106W        W19432  41.111   9.628  12.027
47107W        W19433  10.341  17.058  12.863
47108W        W19434  42.279  16.469  12.495
47109W        W19435  16.697  35.867   3.890
47110W        W19436  21.364  38.999   2.138
47111W        W19437  32.887  31.737  13.985
47112W        W19438   3.621   0.122   2.743
47113W        W19439  21.450  17.716   2.267
47114W        W19440  30.977   7.894  14.522
47115W        W19441  41.545  32.451   1.488
47116W        W19442  16.510  42.560  14.539
47117W        W19443  12.382  23.652  14.294
47118W        W19444  12.553  24.769  13.923
47119W        W19445  13.178  43.522  10.785
47120W        W19446  11.704  17.270   3.771
47121W        W19447  39.914  41.559   1.283
47122W        W19448  29.489  41.978  10.798
47123W        W19449   9.109  33.931  10.701
47124W        W19450  35.519   9.463   3.280
47125W        W19451  31.413   2.241  10.572
47126W        W19452  38.896  16.876   4.616
47127W        W19453  30.604  36.571   1.266
47128W        W19454  23.174  25.058  11.904
47129W        W19455   8.268  20.453   2.221
47130W        W19456  24.108  41.022   1.527
47131W        W19457  36.553   5.381  14.768
47132W        W19458  27.973  28.484   0.940
47133W        W19459   8.388  24.466   4.948
47134W        W19460  41.644  25.636  11.070
47135W        W19461  29.930  28.002   1.846
47136W        W19462  11.675  22.380   2.179
47137W        W19463   4.538  43.206  12.372
47138W        W19464  32.409  41.556  13.120
47139W        W19465  17.322  18.367  12.053
47140W        W19466  12.223  20.679   4.971
47141W        W19467  11.349  20.617  10.718
47142W        W19468  10.315  16.925  14.913
47143W        W19469  14.088   0.383   0.904
47144W        W19470  18.415   3.440   4.117
47145W        W19471   0.385  36.104   2.267
47146W        W19472   0.005  39.938  13.091
47147W        W19473  10.908  34.831   1.192
47148W        W19474  12.164  24.437  11.551
47149W        W19475  39.756  12.526  11.540
47150W        W19476  17.370  27.166  11.968
47151W        W19477  38.816  32.790   0.428
47152W        W19478  18.747  22.660   2.326
47153W        W19479  19.581  27.393   2.801
47154W        W19480  35.659  21.969   4.346
47155W        W19481   6.624  21.763  11.699
47156W        W19482   5.217  18.939  13.186
47157W        W19483  28.092  44.802  12.408
47158W        W19484  13.418  40.037  12.820
47159W        W19485  24.052  36.212  14.626
47160W        W19486  13.821  33.390   0.466
47161W        W19487   7.218  42.162   5.098
47162W        W19488  44.724  38.578   1.311
47163W        W19489  14.296  33.491  10.368
47164W        W19490  24.752  43.592  12.169
47165W        W19491  27.430  43.980  14.507
47166W        W19492   6.728   0.747  11.871
47167W        W19493  28.336  36.957   3.156
47168W        W19494  14.105  31.422  11.098
47169W        W19495   4.045  16.895   0.195
47170W        W19496   1.089  28.032   1.495
47171W        W19497  40.799   7.851   0.834
47172W        W19498   9.814  35.410  14.792
47173W        W19499  32.133  20.576  11.506
47174W        W19500  15.702   2.805  10.557
47175W        W19501   4.689   0.474   4.157
47176W        W19502  40.455  19.254   4.751
47177W        W19503  16.532   8.321   2.299
47178W        W19504  18.703   4.067  12.447
47179W        W19505  41.960  26.687   0.830
47180W        W19506  40.268  43.129  14.407
47181W        W19507  44.343  29.489  13.427
47182W        W19508  23.631  24.757   0.835
47183W        W19509  32.363  30.656  14.384
47184W        W19510  15.896  19.239   2.717
47185W        W19511  11.953  36.537  14.957
47186W        W19512   3.805  20.706  10.617
47187W        W19513   2.621  18.212  13.435
47188W        W19514  42.574   7.040  14.750
47189W        W19515  43.251  37.883  11.131
47190W        W19516  14.787  20.480   4.796
47191W        W19517  41.528  16.395  11.982
47192W        W19518  11.704  30.964  13.870
47193W        W19519  28.629   8.320   0.145
47194W        W19520   1.451  10.377   5.478
47195W        W19521  20.984  35.565   0.369
47196W        W19522  35.948  24.784  12.501
47197W        W19523  24.386  30.974  14.201
47198W        W19524  35.291  19.201  11.611
47199W        W19525   1.108  42.864   1.428
47200W        W19526  23.519  42.276  13.902
47201W        W19527  40.100  30.615   1.540
47202W        W19528  31.739   3.330  10.017
47203W        W19529  18.868   1.914  13.853
47204W        W19530  31.470   5.845  12.016
47205W        W19531  21.144  34.042   1.818
47206W        W19532  22.009  30.418   0.354
47207W        W19533   4.969   0.594   9.858
47208W        W19534  22.073  12.706  10.728
47209W        W19535  40.005   2.782   1.176
47210W        W19536  22.880  21.730   1.035
47211W        W19537  24.601  25.659  14.495
47212W        W19538   0.595  44.325  12.571
47213W        W19539  41.785  12.746   3.734
47214W        W19540  27.908   8.079  12.970
47215W        W19541  44.378  40.335   1.380
47216W        W19542  39.948   5.891  14.682
47217W        W19543  36.551   7.211  10.628
47218W        W19544  25.189  18.017   1.826
47219W        W19545   9.373  28.538   4.160
47220W        W19546   4.830  35.666   0.371
47221W        W19547   6.514   6.720  11.067
47222W        W19548  39.267  16.698   2.831
47223W        W19549   9.341  18.395   0.485
47224W        W19550   1.965  32.912   2.887
47225W        W19551  12.240  12.400   2.241
47226W        W19552  23.100  37.581   1.405
47227W        W19553  32.064  43.250  14.844
47228W        W19554  43.795  36.930   1.893
47229W        W19555  40.461   5.784  14.834
47230W        W19556  11.774   8.736   3.629
47231W        W19557  17.991   3.906   1.871
47232W        W19558  29.418  39.084   0.302
47233W        W19559  34.550  44.533   2.405
47234W        W19560   5.471  12.294   3.808
47235W        W19561  11.974  16.688   0.127
47236W        W19562  21.732  37.542  11.106
47237W        W19563  24.177   0.522  10.688
47238W        W19564  34.961  23.542  14.597
47239W        W19565  10.322  32.883  13.984
47240W        W19566   2.669   8.840   1.757
47241W        W19567  42.973  17.752  12.980
47242W        W19568  22.626   6.251   0.486
47243W        W19569  14.382  22.781  13.423
47244W        W19570  21.750  31.610  10.695
47245W        W19571   5.677  44.146  13.523
47246W        W19572   9.487   7.896   2.209
47247W        W19573   5.362  28.941   4.686
47248W        W19574  14.866  34.468  13.060
47249W        W19575  31.132  35.072   4.679
47250W        W19576   9.863   2.659   4.398
47251W        W19577  10.317   3.874  12.764
47252W        W19578  27.664  25.250  10.175
47253W        W19579  27.143  42.952  11.223
47254W        W19580  32.932  31.072  10.841
47255W        W19581  26.135  43.922  13.589
47256W        W19582  11.111  33.903  13.889
47257W        W19583  27.543  36.715  13.382
47258W        W19584  39.991   0.682  14.161
47259W        W19585  23.634  18.723   4.589
47260W        W19586  35.323  39.219   0.918
47261W        W19587  19.806  22.310  11.294
47262W        W19588  30.019   0.047  11.584
47263W        W19589  25.283  44.327  10.774
47264W        W19590  11.804  25.204  14.394
47265W        W19591  31.919  33.454  12.866
47266W        W19592  31.615   5.826   2.168
47267W        W19593  17.656  13.265   4.666
47268W        W19594  43.546  41.020   0.226
47269W        W19595  24.390  24.290   3.655
47270W        W19596  26.932  42.991  11.722
47271W        W19597   6.460  23.728  12.420
47272W        W19598  28.468   3.252  12.821
47273W        W19599  13.078  13.332  12.609
47274W        W19600  11.223  18.581   3.766
47275W        W19601  36.386  29.779   0.626
47276W        W19602  37.100  31.418  13.677
47277W        W19603   5.274  21.679  11.473
47278W        W19604  31.926  38.834  12.598
47279W        W19605  18.195  34.620   1.792
47280W        W19606  30.935  28.767  10.260
47281W        W19607  17.749  37.317   3.938
47282W        W19608  31.401  37.549  10.588
47283W        W19609  20.850  29.495  12.138
47284W        W19610  42.260   3.183   3.609
47285W        W19611  11.292  27.154   4.604
47286W        W19612   9.257   1.735  14.391
47287W        W19613   8.808  22.303  14.360
47288W        W19614   5.222  24.976   3.351
47289W        W19615  24.036   1.366  11.140
47290W        W19616  37.460  29.468   0.318
47291W        W19617   9.258   1.324  10.568
47292W        W19618  18.235  10.948   2.291
47293W        W19619   1.352  34.524   3.391
47294W        W19620   3.014   7.718   1.150
47295W        W19621  37.091  13.823  11.618
47296W        W19622  27.958  15.237  14.287
47297W        W19623  24.303   8.809   1.868
47298W        W19624  25.057  17.198   1.300
47299W        W19625  27.602  40.437   3.595
47300W        W19626  11.375  28.650   0.771
47301W        W19627  30.192  14.093  10.721
47302W        W19628  21.723  40.589  13.755
47303W        W19629  37.309   3.909   3.866
47304W        W19630  23.610   7.446  12.468
47305W        W19631  11.218  25.988   5.514
47306W        W19632  41.854  39.467   2.138
47307W        W19633  40.874   2.468   2.861
47308W        W19634   9.191  26.641  11.282
47309W        W19635  11.363   4.351  11.567
47310W        W19636  42.468  27.922  11.145
47311W        W19637   6.639  16.108  11.690
47312W        W19638  15.103  20.657   3.842
47313W        W19639  30.937  44.943   0.246
47314W        W19640  18.972  42.818   4.080
47315W        W19641  33.171   4.353  13.890
47316W        W19642  27.150  24.879  13.453
47317W        W19643   2.446   4.186  14.437
47318W        W19644  30.960  13.689   0.908
47319W        W19645  41.017  17.735   0.006
47320W        W19646  10.820   9.622  12.083
47321W        W19647  26.028   9.554  10.997
47322W        W19648  21.937  40.345  11.310
47323W        W19649  43.943   5.976  12.003
47324W        W19650  20.561  30.549  13.541
47325W        W19651  18.966  11.361  14.774
47326W        W19652   2.709  12.254  10.081
47327W        W19653  27.478  14.742   1.896
47328W        W19654  21.059  27.913  13.848
47329W        W19655  11.987  30.458   1.218
47330W        W19656  27.699  19.438  12.027
47331W        W19657  12.430  24.414   1.918
47332W        W19658  32.564   6.921   0.481
47333W        W19659  28.850  30.056  10.723
47334W        W19660  31.577  21.491  10.631
47335W        W19661  22.257  23.694  14.508
47336W        W19662  41.255  43.847  12.041
47337W        W19663  28.096  28.750   9.832
47338W        W19664  35.541  14.490  11.525
47339W        W19665   6.510  32.270   3.397
47340W        W19666   9.344  27.609  11.387
47341W        W19667  16.538  41.056   0.439
47342W        W19668   4.211  40.448   2.267
47343W        W19669  22.412  22.775  12.058
47344W        W19670  18.269  12.236   1.754
47345W        W19671  30.407   6.937  11.067
47346W        W19672  33.624  41.546  11.248
47347W        W19673   7.448  27.604   0.960
47348W        W19674  34.914  14.957  11.030
47349W        W19675  19.431  11.755   4.951
47350W        W19676  42.890  37.512  12.666
47351W        W19677  33.363  13.092   2.305
47352W        W19678   8.493  40.600  12.073
47353W        W19679  39.401  39.790  11.503
47354W        W19680   2.002  42.376   1.931
47355W        W19681  44.843  43.238  14.683
47356W        W19682  33.525  14.746   0.807
47357W        W19683   1.454  22.323   3.126
47358W        W19684   2.922  21.767   3.701
47359W        W19685   2.011   0.307   1.990
47360W        W19686  23.307  24.046  12.102
47361W        W19687  42.293  26.057   4.284
47362W        W19688  34.458  17.363  13.915
47363W        W19689  43.824   9.621   2.126
47364W        W19690   9.229  40.233   1.317
47365W        W19691  31.058   2.066   0.423
47366W        W19692   4.801  38.347   1.605
47367W        W19693  30.172  43.372  12.037
47368W        W19694  29.043  42.315   2.790
47369W        W19695  38.811  24.145  12.046
47370W        W19696   9.636  44.040   1.869
47371W        W19697  37.382  33.012  13.997
47372W        W19698  24.694  16.271   3.168
47373W        W19699  24.215  21.327  12.109
47374W        W19700  16.353  28.005  12.635
47375W        W19701  27.638  12.429  14.058
47376W        W19702  43.861  33.639   3.812
47377W        W19703  17.693  11.281  14.299
47378W        W19704  42.929  35.025   4.664
47379W        W19705  30.495  14.101   4.119
47380W        W19706  34.588  42.077  14.322
47381W        W19707  42.560  38.910  13.962
47382W        W19708  38.978  42.039   3.617
47383W        W19709  39.475  19.508   0.797
47384W        W19710  34.810  21.268   4.398
47385W        W19711   1.852  29.383   2.399
47386W        W19712   2.264  34.213   1.780
47387W        W19713  11.733  18.095   2.712
47388W        W19714  14.641   9.248   4.649
47389W        W19715  44.255   7.115   4.636
47390W        W19716  23.932   2.287   4.224
47391W        W19717  14.197   0.851   2.167
47392W        W19718  10.906  13.615  11.060
47393W        W19719  40.934  35.294   2.479
47394W        W19720  19.242  41.524   3.407
47395W        W19721   5.154  36.650   4.104
47396W        W19722  36.974  24.231   0.269
47397W        W19723   6.778   3.192  12.981
47398W        W19724   7.317  20.146  14.362
47399W        W19725  35.728  40.273   4.977
47400W        W19726   4.957  16.246   1.741
47401W        W19727  28.499  16.733   2.894
47402W        W19728  44.418  27.601  13.134
47403W        W19729  17.675   1.274  11.142
47404W        W19730  25.717  42.294   0.922
47405W        W19731  37.885  29.117  13.228
47406W        W19732  25.083  31.868  14.813
47407W        W19733  28.019  34.949  10.426
47408W        W19734  40.402  33.871  11.869
47409W        W19735  17.169   7.683   4.966
47410W        W19736  17.835  43.983   2.758
47411W        W19737   1.217  22.000  13.518
47412W        W19738  28.149  23.171  14.430
47413W        W19739  33.155   0.337   1.170
47414W        W19740  38.385   9.155  14.119
47415W        W19741  40.251  36.915   0.289
47416W        W19742  34.318  43.012  10.630
47417W        W19743  43.001  13.195  12.828
47418W        W19744  24.901  10.152   0.892
47419W        W19745  21.245  20.619  14.519
47420W        W19746  18.569  37.164   3.336
47421W        W19747  44.853  32.680   1.381
47422W        W19748  43.430   3.375  13.529
47423W        W19749   2.820  37.364   3.722
47424W        W19750  38.737  44.870  12.083
47425W        W19751  34.479  28.896   0.393
47426W        W19752  16.348  40.969   2.643
47427W        W19753  27.494   1.143  10.883
47428W        W19754   5.224  21.800   1.745
47429W        W19755  38.744   8.149  12.522
47430W        W19756  18.691   9.537  14.867
47431W        W19757  19.973   7.636   0.248
47432W        W19758   6.857  26.858   4.532
47433W        W19759  28.356  34.356   4.184
47434W        W19760   1.875  30.372  12.354
47435W        W19761   9.606   0.343  12.919
47436W        W19762  30.973  36.144   4.562
47437W        W19763  44.929  18.028   2.743
47438W        W19764  43.307   0.099   1.316
47439W        W19765   8.180   1.325  11.628
47440W        W19766  21.095  24.363   3.627
47441W        W19767   0.834  23.798  11.707
47442W        W19768  40.713  30.599  14.956
47443W        W19769  39.109  18.770  12.489
47444W        W19770  29.965  33.889  14.324
47445W        W19771  33.357  33.775   2.265
47446W        W19772  20.825  14.171  12.588
47447W        W19773  40.834   1.852   4.084
47448W        W19774   7.860  37.566  12.643
47449W        W19775  16.544   5.892  10.769
47450W        W19776  44.452  18.629   3.225
47451W        W19777  15.766  44.471   3.312
47452W        W19778  21.803  17.905   3.161
47453W        W19779   7.128  21.115   3.837
47454W        W19780  25.038   9.242   3.929
47455W        W19781  21.085  27.710  11.899
47456W        W19782  33.300  39.875   4.878
47457W        W19783  13.816  35.650  13.730
47458W        W19784  16.666  19.060  14.703
47459W        W19785  15.682  29.993   1.730
47460W        W19786  20.105  42.956   3.926
47461W        W19787  30.460  30.168   3.795
47462W        W19788   0.426  42.116   0.910
47463W        W19789  40.291  13.781   4.243
47464W        W19790  32.874  37.477   3.684
47465W        W19791  20.834   7.439   1.099
47466W        W19792  40.822  22.513   0.308
47467W        W19793  15.639  44.690  14.512
47468W        W19794  12.734  15.132   3.634
47469W        W19795  10.741  17.833  12.518
47470W        W19796  40.415  38.952   3.724
47471W        W19797  15.126  11.071   1.919
47472W        W19798  27.529  24.000  13.485
47473W        W19799  29.469   4.674  11.187
47474W        W19800  35.894  34.905  11.451
47475W        W19801  19.009   5.598  11.777
47476W        W19802  44.576  20.814   1.438
47477W        W19803   3.142  31.001   4.089
47478W        W19804  26.709  28.542   2.115
47479W        W19805  39.019   4.886  10.783
47480W        W19806   8.364  24.454   3.961
47481W        W19807  34.633  26.133   0.193
47482W        W19808  36.579  31.538   4.226
47483W        W19809  10.462  20.190  12.048
47484W        W19810  44.767  25.120   4.596
47485W        W19811  11.221   9.656   4.553
47486W        W19812  26.967  29.601   4.274
47487W        W19813   7.359  13.890   1.266
47488W        W19814  37.535  27.527  11.424
47489W        W19815  42.804  27.567   1.455
47490W        W19816   8.640  36.806   1.867
47491W        W19817  16.827  33.161   0.696
47492W        W19818  29.269  25.264   2.767
47493W        W19819  14.768  10.553  14.428
47494W        W19820  13.209   5.910  11.157
47495W        W19821  11.952  15.045  14.867
47496W        W19822  13.061   7.745   4.587
47497W        W19823   1.683  19.089   3.884
47498W        W19824  13.743  19.592  10.553
47499W        W19825   9.545  26.943   3.095
47500W        W19826  38.959  39.112  13.278
47501W        W19827  17.551   6.884  11.576
47502W        W19828   2.130  14.285  11.056
47503W        W19829  16.492  17.178  14.871
47504W        W19830  42.322  13.903  13.071
47505W        W19831  18.624  31.865  12.410
47506W        W19832   3.891   7.387   5.062
47507W        W19833  17.604  34.992   2.300
47508W        W19834  19.541   0.709  13.875
47509W        W19835   6.332  41.761   1.707
47510W        W19836  14.164   2.403  14.308
47511W        W19837  21.548  25.404  12.994
47512W        W19838  15.826  33.598  12.758
47513W        W19839  43.887  41.884  12.005
47514W        W19840  23.141   7.444   2.693
47515W        W19841  43.754  16.555  12.409
47516W        W19842  32.730  43.970   4.066
47517W        W19843  38.121  36.954  12.400
47518W        W19844   2.024  30.515   3.553
47519W        W19845  38.962  20.241   3.603
47520W        W19846   9.933  23.616   4.417
47521W        W19847  15.056   7.861  14.904
47522W        W19848  25.266  43.525  12.161
47523W        W19849   2.564   0.326   1.719
47524W        W19850  43.709  11.427  10.993
47525W        W19851  17.064  33.878  12.992
47526W        W19852  35.459  34.941   1.720
47527W        W19853  42.777  23.643   0.440
47528W        W19854  31.673  41.949   1.479
47529W        W19855   0.682  40.480   1.319
47530W        W19856  21.459  12.385   3.614
47531W        W19857  42.706  21.753   0.306
47532W        W19858  23.124  40.499   2.740
47533W        W19859  33.131  10.638  10.930
47534W        W19860  18.323   5.858  13.591
47535W        W19861  17.795  40.394  14.786
47536W        W19862  35.231  33.834   1.908
47537W        W19863  34.437  27.948   0.412
47538W        W19864  15.758   0.807   1.736
47539W        W19865  15.099   1.003   0.019
47540W        W19866   8.691  23.515  10.418
47541W        W19867  30.871  27.565   2.227
47542W        W19868  34.918   4.137   3.059
47543W        W19869   1.951   3.880   1.955
47544W        W19870  42.745  42.862  14.353
47545W        W19871  30.988   3.063  12.859
47546W        W19872  18.492   0.413   3.829
47547W        W19873  15.157  42.751  13.143
47548W        W19874  39.887  15.603  12.486
47549W        W19875  20.943  12.853   4.497
47550W        W19876  30.082   7.877  13.581
47551W        W19877   7.772  33.840   1.365
47552W        W19878  43.146  34.604   1.699
47553W        W19879  35.485  19.801   2.318
47554W        W19880   2.243  43.817  14.883
47555W        W19881  21.314  29.838   3.821
47556W        W19882  14.730   5.185  14.796
47557W        W19883  36.039   1.463   2.576
47558W        W19884  17.789  36.856  13.073
47559W        W19885  38.391  12.089  10.223
47560W        W19886  11.642  22.181  14.533
47561W        W19887  16.627  27.998  14.991
47562W        W19888   1.279   8.220  10.641
47563W        W19889  35.116  21.069   3.439
47564W        W19890  10.917  39.817  10.900
47565W        W19891   4.940  34.515  11.956
47566W        W19892  25.315  28.243   2.801
47567W        W19893  26.152  36.552   1.795
47568W        W19894   8.364   9.813   3.174
47569W        W19895  22.828  44.366   2.426
47570W        W19896  19.743  42.250   3.401
47571W        W19897  41.864  27.123   1.438
47572W        W19898   6.171   0.733   1.622
47573W        W19899  15.827  13.671   0.778
47574W        W19900   5.395  40.919  11.657
47575W        W19901  43.270  35.058   3.816
47576W        W19902  39.568  20.638  10.886
47577W        W19903  14.310  23.306  13.485
47578W        W19904  23.060  43.982  13.726
47579W        W19905  36.968   3.706  12.037
47580W        W19906  41.450  16.170   0.441
47581W        W19907  19.568  11.846   0.178
47582W        W19908   9.249  33.638   1.979
47583W        W19909  38.872   7.741   0.014
47584W        W19910  43.999  22.299  14.793
47585W        W19911  27.486  20.777   1.779
47586W        W19912  24.078  39.454   5.639
47587W        W19913  18.030  40.592   0.490
47588W        W19914   0.973  34.808  10.292
47589W        W19915  12.865  18.589   2.180
47590W        W19916  41.816  13.853  12.962
47591W        W19917  31.155  41.361  10.601
47592W        W19918  34.875   8.811   3.247
47593W        W19919  17.923  39.074  10.684
47594W        W19920  25.642  40.033   0.083
47595W        W19921   8.873  30.525  13.486
47596W        W19922  17.866  30.159   2.971
47597W        W19923  39.097  34.052   0.748
47598W        W19924  13.843  31.632   1.463
47599W        W19925   3.962  25.411  14.246
47600W        W19926   5.302   6.689   2.475
47601W        W19927   1.094  10.294   2.634
47602W        W19928  38.080  30.642  11.573
47603W        W19929  14.807  12.892   0.187
47604W        W19930  11.149  38.006   2.283
47605W        W19931  44.987   0.095   1.823
47606W        W19932   1.907  21.998   4.202
47607W        W19933  39.429  35.522  12.620
47608W        W19934   5.263   8.004  13.042
47609W        W19935  23.470  36.950   3.259
47610W        W19936   1.315  31.926  11.917
47611W        W19937  31.962  37.341  10.374
47612W        W19938  14.570   8.971  13.388
47613W        W19939  20.209  11.061  12.501
47614W        W19940  14.661  29.996   1.538
47615W        W19941  34.568  39.357  14.420
47616W        W19942  26.467   0.882  13.935
47617W        W19943  17.321  13.824  13.017
47618W        W19944  11.104  16.740  10.721
47619W        W19945  35.448  44.260   1.702
47620W        W19946  25.748   5.834   1.164
47621W        W19947  18.909  28.593   1.954
47622W        W19948  28.952   0.892   4.272
47623W        W19949  17.990   2.366   1.224
47624W        W19950  39.749  20.156  11.609
47625W        W19951  42.521   2.461  12.685
47626W        W19952  13.236  39.589  14.827
47627W        W19953   8.270  13.944   2.593
47628W        W19954   4.364  40.373   1.760
47629W        W19955  13.727   3.360  11.929
47630W        W19956   1.489  13.326  13.965
47631W        W19957  32.705  39.453  13.618
47632W        W19958  31.201  17.127   3.796
47633W        W19959  35.836  43.816   3.163
47634W        W19960  37.543  38.639  11.974
47635W        W19961  12.352  10.866   3.411
47636W        W19962  37.930  22.519  14.786
47637W        W19963  44.917   8.452  10.351
47638W        W19964  25.938  21.203   2.350
47639W        W19965   5.906  33.690  13.942
47640W        W19966  24.702  24.308  11.002
47641W        W19967  20.571  31.154   1.211
47642W        W19968  40.765  12.134  13.781
47643W        W19969   2.417  11.731  11.443
47644W        W19970   0.697   3.025   3.754
47645W        W19971  41.314  26.179   0.221
47646W        W19972  20.701  34.405   4.861
47647W        W19973  28.147  42.451   3.999
47648W        W19974  42.903  35.775  13.080
47649W        W19975  34.265   4.502   4.905
47650W        W19976  40.065  10.287   0.972
47651W        W19977  13.420   0.475  10.241
47652W        W19978  32.553  36.815   3.830
47653W        W19979   0.472  41.353  14.351
47654W        W19980  37.067   4.416   1.168
47655W        W19981  38.555  13.127  10.535
47656W        W19982  29.347   5.055   5.123
47657W        W19983  11.665  28.403   4.169
47658W        W19984  14.285  16.472  11.659
47659W        W19985  35.587  31.653   3.737
47660W        W19986   3.383  42.271   2.394
47661W        W19987  40.316   2.433   1.882
47662W        W19988  19.812  20.324  13.392
47663W        W19989   6.964  23.240  14.668
47664W        W19990  16.303  36.041  11.153
47665W        W19991  31.846   6.182   2.922
47666W        W19992   6.836   3.926  10.908
47667W        W19993   7.146   1.730   1.883
47668W        W19994  36.041  20.062   3.110
47669W        W19995  16.702  30.560   3.087
47670W        W19996   0.445  11.122   3.348
47671W        W19997  16.208  34.998   2.335
47672W        W19998  32.369   4.104   0.603
47673W        W19999  29.718  27.617   1.536
47674W        W20000  28.965  19.529  12.940
47675W        W20001  41.822  10.315   4.197
47676W        W20002   4.499  40.827  14.370
47677W        W20003  27.501  24.037   1.959
47678W        W20004  22.616   4.751   3.027
47679W        W20005   7.400  44.763   4.162
47680W        W20006  23.510  18.728   3.256
47681W        W20007  25.022  20.213   5.004
47682W        W20008  19.230   7.708   4.656
47683W        W20009  14.220   0.532   0.321
47684W        W20010  40.771  30.405   0.430
47685W        W20011  25.932  22.581   5.356
47686W        W20012  14.086  34.629   0.999
47687W        W20013  38.777   1.623  11.174
47688W        W20014  28.743   9.707  10.967
47689W        W20015  13.192  39.913   9.950
47690W        W20016   6.348   9.356  12.439
47691W        W20017  19.649   4.443   3.274
47692W        W20018  41.541   0.032   3.772
47693W        W20019   7.817  21.486   4.831
47694W        W20020  42.997  32.047  10.577
47695W        W20021   5.958  21.784  10.675
47696W        W20022   6.367   9.026  13.012
47697W        W20023  37.891   1.429   1.259
47698W        W20024  17.664  32.199   4.939
47699W        W20025  41.908  44.029   2.368
47700W        W20026   2.881  28.884   2.479
47701W        W20027  34.866  10.688   4.896
47702W        W20028  43.331  17.322   0.485
47703W        W20029  24.448  31.893   3.191
47704W        W20030  37.523   4.894   3.574
47705W        W20031  13.617   6.197   2.369
47706W        W20032  31.105  32.357   1.956
47707W        W20033  31.966  22.251  13.449
47708W        W20034  17.552  14.473   2.454
47709W        W20035  10.781   6.240   2.402
47710W        W20036  16.279   0.984  11.043
47711W        W20037   6.689  27.709  11.141
47712W        W20038  17.211   1.407   4.194
47713W        W20039  15.570  41.912  12.837
47714W        W20040   8.936  24.036   1.172
47715W        W20041  14.259  17.405  13.527
47716W        W20042  17.734   9.737  13.371
47717W        W20043  21.270  29.848   2.229
47718W        W20044   5.333  25.182  13.567
47719W        W20045  20.288  21.102  13.094
47720W        W20046  18.296   0.894  13.459
47721W        W20047  14.066  16.475   0.796
47722W        W20048  33.350   6.353   2.906
47723W        W20049  43.089  19.059  13.757
47724W        W20050  34.605  19.748   3.764
47725W        W20051   9.849  22.584  14.537
47726W        W20052  41.549  10.682  12.422
47727W        W20053   3.512  13.836  13.996
47728W        W20054  19.159   1.349  11.832
47729W        W20055   4.266  35.713  12.480
47730W        W20056   0.996  20.602  13.944
47731W        W20057  24.639  31.995   3.674
47732W        W20058  29.456  12.796   4.250
47733W        W20059  35.864  14.253  10.959
47734W        W20060  20.534  23.305   0.422
47735W        W20061  30.521  18.370  11.432
47736W        W20062  36.943  18.200  13.291
47737W        W20063  33.869  20.676   0.321
47738W        W20064  23.533  24.997  11.208
47739W        W20065  21.639  42.487  13.881
47740W        W20066   8.994   8.391  13.615
47741W        W20067  13.637  41.444  10.576
47742W        W20068  32.510  21.895  14.909
47743W        W20069  14.333   0.681  12.209
47744W        W20070  33.343   9.151   3.294
47745W        W20071  28.252   7.875   2.300
47746W        W20072  26.589  25.330  11.284
47747W        W20073  34.276   6.729  13.331
47748W        W20074  27.410  32.413  12.594
47749W        W20075  14.823  39.731   1.395
47750W        W20076   5.496  37.945  13.862
47751W        W20077  13.581  20.655  13.418
47752W        W20078  18.772  12.101   2.695
47753W        W20079  37.628  19.194  12.435
47754W        W20080  26.369  15.149  12.606
47755W        W20081  44.791  33.140   4.097
47756W        W20082  28.766  28.945   3.390
47757W        W20083  34.904  15.381  14.644
47758W        W20084   2.821   1.388   0.506
47759W        W20085  10.768  16.168  11.648
47760W        W20086  20.057   6.940  13.071
47761W        W20087  24.708   1.775   3.091
47762W        W20088  26.706  24.614  13.661
47763W        W20089   1.801  13.557   3.535
47764W        W20090  28.208  11.098  14.508
47765W        W20091  23.673  38.479  12.552
47766W        W20092  37.117   0.905   0.740
47767W        W20093  29.994  33.215  12.910
47768W        W20094  41.319  38.350   1.883
47769W        W20095  16.391  40.552  14.026
47770W        W20096  16.622  11.874  12.445
47771W        W20097  17.872  27.201  12.030
47772W        W20098  33.263  11.679  11.228
47773W        W20099  38.087  28.601   3.268
47774W        W20100  30.576  37.652  14.450
47775W        W20101  21.936  24.507  12.986
47776W        W20102  19.554  18.396   1.892
47777W        W20103   5.817   1.866  11.548
47778W        W20104  23.556  31.389   1.352
47779W        W20105  20.132  31.601  13.474
47780W        W20106  15.166  12.824   3.333
47781W        W20107  38.439  35.932   1.796
47782W        W20108   2.097  29.696  13.533
47783W        W20109   5.480  15.378   1.333
47784W        W20110   6.348  41.507   2.582
47785W        W20111   7.009  36.440  14.494
47786W        W20112  13.159  25.078  10.840
47787W        W20113  24.547  20.119  11.282
47788W        W20114  33.122   6.709   3.697
47789W        W20115   6.482  29.208   0.087
47790W        W20116  12.535   8.855   0.760
47791W        W20117  24.254  22.731   2.933
47792W        W20118   3.998  20.045   2.843
47793W        W20119  13.741  12.291  14.734
47794W        W20120   5.806  36.525   4.633
47795W        W20121  21.703  38.102  12.493
47796W        W20122  15.127  19.755  13.983
47797W        W20123  38.961   6.687   1.840
47798W        W20124  30.596  44.647  13.066
47799W        W20125  28.328  21.012   1.291
47800W        W20126  10.369   4.933  14.106
47801W        W20127   9.631   0.917  13.549
47802W        W20128   8.448  31.937   4.215
47803W        W20129   8.896  38.421  11.458
47804W        W20130   0.008  32.411  14.066
47805W        W20131  29.718  37.105   2.193
47806W        W20132  21.570  30.599  10.753
47807W        W20133  44.192  35.018  11.683
47808W        W20134  20.233  30.902   0.292
47809W        W20135  37.108  34.918   0.883
47810W        W20136  13.868  22.505  10.831
47811W        W20137  14.061  38.860  11.070
47812W        W20138   9.234  14.166  11.189
47813W        W20139  25.193  12.107  11.499
47814W        W20140   1.439  43.893  12.602
47815W        W20141  14.848  38.015   1.869
47816W        W20142  13.623  30.426   0.416
47817W        W20143   9.640  22.078   4.766
47818W        W20144  30.554  41.307   3.318
47819W        W20145  37.965  43.793   1.307
47820W        W20146  27.919  14.874  10.704
47821W        W20147   8.907   6.411   2.628
47822W        W20148   5.669  21.390  11.576
47823W        W20149  30.365  13.067   4.553
47824W        W20150  34.354  36.158   9.581
47825W        W20151  23.245  22.558  11.215
47826W        W20152  25.711  21.404  14.079
47827W        W20153  23.532  25.351  12.125
47828W        W20154  18.863  19.742   0.852
47829W        W20155  44.328  22.124  10.148
47830W        W20156  27.532  21.934  10.966
47831W        W20157  31.265   4.869  11.598
47832W        W20158  16.059  14.277   2.912
47833W        W20159  24.416  22.359  13.501
47834W        W20160  40.622   5.165   0.868
47835W        W20161  44.672  28.361  14.795
47836W        W20162  41.257  20.041   4.598
47837W        W20163  39.631  25.910   2.352
47838W        W20164  16.247  11.475   0.420
47839W        W20165  13.561  25.574   2.583
47840W        W20166  15.753  35.607  11.487
47841W        W20167  18.680  32.907   4.397
47842W        W20168   8.439  43.512   2.277
47843W        W20169  20.649  12.316  13.941
47844W        W20170   1.373  34.592  12.894
47845W        W20171  40.926   7.173   2.325
47846W        W20172  27.896  29.027   2.862
47847W        W20173  14.570  18.922   2.736
47848W        W20174  44.284  27.943   3.221
47849W        W20175   7.284  40.937   3.185
47850W        W20176  18.236  27.655   3.630
47851W        W20177  43.456  27.144  11.279
47852W        W20178  16.115  43.710  10.669
47853W        W20179  25.999  24.370  14.886
47854W        W20180   7.998  14.071  13.319
47855W        W20181  42.958  24.293  10.753
47856W        W20182  25.086  38.263   3.310
47857W        W20183  23.561  43.534   1.244
47858W        W20184   2.530  16.029   4.870
47859W        W20185  19.569   4.517  11.044
47860W        W20186  15.799  44.440   2.163
47861W        W20187  38.365  31.950  10.346
47862W        W20188  42.448  43.005   3.895
47863W        W20189  31.935  31.934  13.583
47864W        W20190  24.331   3.137   0.267
47865W        W20191  44.032   5.257  12.313
47866W        W20192  24.487   6.537   1.973
47867W        W20193  12.279  31.839  14.016
47868W        W20194  33.038  40.918   4.015
47869W        W20195   6.480  39.512   2.914
47870W        W20196  18.738  34.397   0.132
47871W        W20197  37.104  13.161  14.277
47872W        W20198  16.073  34.019   1.364
47873W        W20199  17.119  34.535  13.773
47874W        W20200  35.107   0.745   0.269
47875W        W20201  10.710   1.347  13.824
47876W        W20202  16.271  19.814   1.186
47877W        W20203  35.368  39.967  14.022
47878W        W20204  40.738  31.431   1.789
47879W        W20205  22.770   2.759   1.729
47880W        W20206  15.256   6.821   3.602
47881W        W20207  22.719  36.278   1.460
47882W        W20208  37.001  15.757   1.252
47883W        W20209  37.203  15.285   0.163
47884W        W20210  11.395  17.815   4.198
47885W        W20211  17.300   1.824   2.650
47886W        W20212  19.789   2.179  10.990
47887W        W20213   0.821  42.311   4.120
47888W        W20214  43.324  13.188   4.587
47889W        W20215  36.405  41.406   1.353
47890W        W20216  20.960  16.747  10.821
47891W        W20217  12.895  26.120  14.275
47892W        W20218  15.761  42.368   1.022
47893W        W20219  28.474  13.815  12.459
47894W        W20220  39.255  39.489   0.625
47895W        W20221  10.814  16.042  13.551
47896W        W20222  43.687  28.610  11.424
47897W        W20223   0.208  36.941  11.066
47898W        W20224  21.000  26.553  11.043
47899W        W20225   8.514   4.232   4.529
47900W        W20226   7.739   5.651   2.253
47901W        W20227  32.506   5.000  14.889
47902W        W20228   2.775   7.398  12.418
47903W        W20229  38.179  30.606  14.089
47904W        W20230   6.503  22.044   1.817
47905W        W20231  34.589  35.795  14.452
47906W        W20232   8.329  40.638   2.466
47907W        W20233   7.717  31.426   4.285
47908W        W20234  23.133   3.979   3.240
47909W        W20235  38.427  24.111   4.353
47910W        W20236  44.322  31.240   1.757
47911W        W20237  11.130  13.777  14.216
47912W        W20238  26.933  21.133   0.276
47913W        W20239  42.221   2.764   2.240
47914W        W20240  35.358  31.142  10.510
47915W        W20241   1.412  13.341   2.930
47916W        W20242   3.118   1.831   2.337
47917W        W20243   6.972  14.292  12.119
47918W        W20244  39.272  44.501   0.443
47919W        W20245   8.886  28.620   4.059
47920W        W20246   9.438  16.855  10.953
47921W        W20247  30.637  32.092   2.033
47922W        W20248  16.683  29.152   1.956
47923W        W20249  42.327  23.560  13.923
47924W        W20250  37.575  25.492   0.756
47925W        W20251   6.127  36.003   4.598
47926W        W20252  21.785  13.629   3.222
47927W        W20253  43.237   4.718   4.792
47928W        W20254  27.577  16.093   2.690
47929W        W20255   4.250   0.830  11.695
47930W        W20256  17.800  21.067   3.215
47931W        W20257  25.246   7.533  12.027
47932W        W20258   0.520  19.648  12.976
47933W        W20259  34.984  26.662   4.679
47934W        W20260  30.233  29.926  13.010
47935W        W20261  34.676   2.826  10.804
47936W        W20262  30.693   0.883  13.600
47937W        W20263  41.846  34.626   0.477
47938W        W20264  23.957  31.718   0.366
47939W        W20265  12.573  41.522  12.969
47940W        W20266   5.152  21.935  12.527
47941W        W20267  25.561  36.099   0.484
47942W        W20268  41.297  10.379   4.087
47943W        W20269   3.277  44.408   3.848
47944W        W20270  17.104   9.789   2.775
47945W        W20271  41.310  33.903  11.190
47946W        W20272  43.776  13.531  13.913
47947W        W20273  38.327  39.445   0.765
47948W        W20274   2.485   2.219  12.579
47949W        W20275  17.760  20.040   1.338
47950W        W20276  25.683  20.226  10.261
47951W        W20277  19.921  23.440  13.085
47952W        W20278  29.591  44.460  14.770
47953W        W20279  20.860  19.626   3.740
47954W        W20280  21.495  27.065   0.446
47955W        W20281  25.711  29.211   3.810
47956W        W20282  42.942  39.997   4.252
47957W        W20283  26.718  22.676   2.125
47958W        W20284  39.017   7.440  14.629
47959W        W20285  29.917  33.720  12.836
47960W        W20286  13.683  10.631   3.197
47961W        W20287  25.703   5.735   1.710
47962W        W20288  13.236  14.593   3.393
47963W        W20289  16.147   7.240  10.852
47964W        W20290  18.020  14.348  12.944
47965W        W20291  30.440  36.933  14.000
47966W        W20292  24.471   3.426   1.344
47967W        W20293   8.103   6.444   2.304
47968W        W20294  23.109  41.747  11.851
47969W        W20295  13.800  44.101  12.098
47970W        W20296  22.387  40.510   1.780
47971W        W20297  38.826  32.039  14.062
47972W        W20298   1.247  37.952  11.597
47973W        W20299   1.393  44.863   4.269
47974W        W20300  42.809  24.605  14.071
47975W        W20301   4.674   6.715   0.255
47976W        W20302  30.201  36.329   0.010
47977W        W20303  14.250  19.678   1.421
47978W        W20304  18.759   2.260   4.647
47979W        W20305  16.549   2.484  11.631
47980W        W20306  40.712  24.262  11.110
47981W        W20307  28.979  30.666   4.131
47982W        W20308  10.647  26.789   4.096
47983W        W20309  21.060  24.834   0.339
47984W        W20310  30.954  24.388   4.039
47985W        W20311  34.380  17.146  10.428
47986W        W20312  28.133   5.332  12.844
47987W        W20313  17.019  39.969  11.525
47988W        W20314   5.472  20.496   4.278
47989W        W20315   6.760  32.777  13.366
47990W        W20316   3.863   3.773  12.659
47991W        W20317  38.361  33.952   4.778
47992W        W20318  43.354  39.503  12.061
47993W        W20319   0.731  20.218   0.996
47994W        W20320  40.832  13.692   1.348
47995W        W20321  21.317  37.859   0.111
47996W        W20322  35.337  36.631   2.733
47997W        W20323  41.451   2.227  14.412
47998W        W20324   1.001  22.644   3.946
47999W        W20325  34.016  29.151   0.227
48000W        W20326  14.780  44.383   1.212
48001W        W20327  11.599   5.617  10.196
48002W        W20328   4.351  33.892  14.014
48003W        W20329  18.290  26.006  11.484
48004W        W20330  37.399  36.166  12.526
48005W        W20331  22.694  40.099  14.848
48006W        W20332  35.836  43.339  11.075
48007W        W20333   0.348  18.632   2.639
48008W        W20334  44.893  35.302   1.462
48009W        W20335  18.268  11.450   2.497
48010W        W20336  43.197  18.512  12.535
48011W        W20337  11.211  37.716   0.975
48012W        W20338  29.634  44.328   2.700
48013W        W20339  43.048  18.193  11.933
48014W        W20340  42.865  24.613  13.547
48015W        W20341  15.738   5.817   3.278
48016W        W20342  34.627  22.665  13.313
48017W        W20343  36.920  22.971  11.997
48018W        W20344  26.161  17.821  14.463
48019W        W20345  40.562   7.455   1.115
48020W        W20346  11.547  10.174   4.567
48021W        W20347  39.327  25.639   4.368
48022W        W20348  19.183  11.486   4.574
48023W        W20349  31.821  27.688   3.253
48024W        W20350  17.026  38.446  13.827
48025W        W20351   5.189   9.967   1.220
48026W        W20352  26.191  35.834   3.836
48027W        W20353  36.769  30.027   3.720
48028W        W20354   7.220  28.379  11.188
48029W        W20355  21.651  28.562  11.730
48030W        W20356   2.515   4.625   5.581
48031W        W20357  25.972  10.840  10.941
48032W        W20358   0.008  12.395   1.435
48033W        W20359  31.061  29.398  11.634
48034W        W20360  18.513  25.985  10.634
48035W        W20361   1.011   9.950   1.274
48036W        W20362  39.147  18.834   1.264
48037W        W20363   4.949  37.489  10.881
48038W        W20364  26.839  36.952   4.142
48039W        W20365  26.422   0.891  13.005
48040W        W20366  44.468  10.394  14.820
48041W        W20367  14.533  16.786   4.311
48042W        W20368  13.803  42.789  11.396
48043W        W20369  40.347  22.811   1.703
48044W        W20370  31.092   3.334   3.595
48045W        W20371  11.258  24.304   4.536
48046W        W20372  40.463  11.743   3.154
48047W        W20373   8.466  29.642  13.527
48048W        W20374  31.950  32.364   5.024
48049W        W20375  10.390  23.552   2.597
48050W        W20376   7.366  43.066   3.422
48051W        W20377   1.698  12.307   1.903
48052W        W20378   0.586  42.759   4.128
48053W        W20379  39.318  29.852  14.032
48054W        W20380   7.894  20.089  13.012
48055W        W20381   4.740  40.286   3.679
48056W        W20382  18.570   2.337  13.065
48057W        W20383  12.875  25.015  13.595
48058W        W20384  26.219  26.409  12.984
48059W        W20385  35.311  37.464   4.612
48060W        W20386  14.015  24.742   0.547
48061W        W20387  11.617  16.163   1.250
48062W        W20388  44.673   1.669   5.063
48063W        W20389  40.657  16.919  14.874
48064W        W20390  31.647  36.369   4.456
48065W        W20391   4.958  29.249  11.680
48066W        W20392   9.586  23.084  14.891
48067W        W20393  37.366  33.015  14.573
48068W        W20394  25.966  19.045  10.627
48069W        W20395  15.646  25.076  14.417
48070W        W20396  43.272  24.129   0.868
48071W        W20397   3.187  34.552  13.751
48072W        W20398  33.699   5.453   0.872
48073W        W20399  35.348   6.422  12.892
48074W        W20400  15.394  24.281  10.545
48075W        W20401  35.811  28.956  11.019
48076W        W20402  10.667  10.728  12.326
48077W        W20403  35.945  42.464  13.361
48078W        W20404   5.893  41.760  10.768
48079W        W20405  32.443  39.818  13.364
48080W        W20406  28.148  27.481  14.480
48081W        W20407   6.411  21.477  12.055
48082W        W20408  18.692  42.729   0.536
48083W        W20409  28.868  29.853  14.725
48084W        W20410   4.890   4.623   4.596
48085W        W20411  14.573  21.253   3.289
48086W        W20412   2.804  31.122  11.890
48087W        W20413  34.925  38.909  14.407
48088W        W20414  37.126  37.038   4.898
48089W        W20415  24.879  37.991   5.649
48090W        W20416   6.896   5.455  10.406
48091W        W20417  20.547   6.648   3.193
48092W        W20418  24.781   1.773  14.824
48093W        W20419  16.038  17.852   1.153
48094W        W20420  42.409  16.096  10.865
48095W        W20421  33.466  17.758  13.873
48096W        W20422   5.778  32.883  12.509
48097W        W20423  36.384  20.718   1.350
48098W        W20424  17.021  12.103   2.883
48099W        W20425  18.284  34.119  14.314
48100W        W20426  22.927  25.428   1.697
48101W        W20427  17.055  39.081   3.693
48102W        W20428   3.854   8.305  14.355
48103W        W20429   5.479  27.604   3.292
48104W        W20430   7.447  19.236  12.905
48105W        W20431  25.550  38.268  11.208
48106W        W20432  21.533  16.849  10.644
48107W        W20433  38.948  42.941  13.120
48108W        W20434  25.101  22.468  10.663
48109W        W20435  16.619  17.946   2.834
48110W        W20436  22.983  17.346   2.323
48111W        W20437  21.035  34.842   4.059
48112W        W20438  14.607   1.475  14.386
48113W        W20439  25.593  37.119  13.988
48114W        W20440  37.414  42.492  12.575
48115W        W20441   6.665   6.395  12.067
48116W        W20442  18.285   9.751   2.217
48117W        W20443  19.595   6.240   0.441
48118W        W20444   9.742  36.617   0.999
48119W        W20445   9.204   8.862   1.492
48120W        W20446  28.635  13.859   1.899
48121W        W20447  15.051  35.845  13.403
48122W        W20448   7.119  22.539  10.795
48123W        W20449   9.262  44.711   0.921
48124W        W20450  23.229  29.041   1.515
48125W        W20451  14.219   5.791   0.093
48126W        W20452  11.347   5.065   2.360
48127W        W20453  44.821  44.742   3.276
48128W        W20454  17.246   7.230   5.230
48129W        W20455  32.778  34.523   3.216
48130W        W20456   7.431  40.689  14.430
48131W        W20457  16.867  24.404   1.313
48132W        W20458  29.192   1.771   0.383
48133W        W20459  28.361  23.496  10.496
48134W        W20460  19.215  17.606   1.535
48135W        W20461  39.228  42.595   4.474
48136W        W20462  28.868   1.375  13.935
48137W        W20463  36.470  37.007   1.446
48138W        W20464  35.881  17.631   1.426
48139W        W20465  23.187  15.174  13.103
48140W        W20466   8.408  25.474  11.724
48141W        W20467  30.340  33.611   2.779
48142W        W20468  29.100  34.862  11.186
48143W        W20469  12.275  20.231   1.647
48144W        W20470  26.432  31.052  14.732
48145W        W20471   1.309  27.950   4.819
48146W        W20472   2.684  10.347  10.708
48147W        W20473  43.315  31.014  12.803
48148W        W20474  21.116  32.452   2.854
48149W        W20475   6.013  43.173  13.537
48150W        W20476  20.069  40.309   4.971
48151W        W20477  17.088   8.249   3.152
48152W        W20478   0.110  27.985   1.389
48153W        W20479  26.506  39.315  12.880
48154W        W20480  15.643  41.639  13.973
48155W        W20481  14.820  32.906  13.740
48156W        W20482  18.424  38.825   3.596
48157W        W20483  16.253  13.337   2.575
48158W        W20484   7.001  39.077   2.429
48159W        W20485  38.057  10.638   2.500
48160W        W20486   8.402  20.026   3.932
48161W        W20487  11.206  37.848   3.400
48162W        W20488  23.176  41.081  12.999
48163W        W20489  13.726  13.706  13.812
48164W        W20490  23.581   1.319   4.114
48165W        W20491  13.697  38.306  12.980
48166W        W20492  44.569  11.442   5.085
48167W        W20493  14.590  35.390   4.140
48168W        W20494  17.802   6.139  13.390
48169W        W20495  39.153  24.608  11.100
48170W        W20496  21.165  14.369  13.891
48171W        W20497  22.094   8.420   0.626
48172W        W20498  18.756  34.482  14.621
48173W        W20499  14.070  25.505   3.368
48174W        W20500  21.688  22.814  11.849
48175W        W20501  31.226  43.074   3.223
48176W        W20502  13.241  42.617   1.797
48177W        W20503  37.613  26.128  13.993
48178W        W20504  40.543  13.656   2.422
48179W        W20505  26.119  34.925  12.833
48180W        W20506  34.014  33.112  14.525
48181W        W20507   8.919  18.522  11.753
48182W        W20508   7.792   9.963  11.110
48183W        W20509   3.920  41.340  11.015
48184W        W20510   7.920  33.097   2.196
48185W        W20511  15.460  34.847   1.344
48186W        W20512  22.786   9.881   1.431
48187W        W20513  15.641  39.098  12.961
48188W        W20514  42.499  30.937  13.789
48189W        W20515  44.257  22.515   2.175
48190W        W20516  43.516   8.780   4.453
48191W        W20517  24.387  35.047   4.564
48192W        W20518  12.245  21.482  12.844
48193W        W20519   0.756  20.682  14.862
48194W        W20520  14.325  30.644  10.805
48195W        W20521   1.828  42.967   4.808
48196W        W20522   5.418  41.883  14.922
48197W        W20523   5.486  28.996   1.959
48198W        W20524  23.426  26.402   2.916
48199W        W20525   3.400  30.212   3.834
48200W        W20526  10.624  43.520   3.300
48201W        W20527   3.366  17.579   4.324
48202W        W20528  17.888  32.345  14.553
48203W        W20529  26.117  33.384   4.572
48204W        W20530  29.891   5.280   4.618
48205W        W20531   2.158  30.573  10.643
48206W        W20532   6.253  12.844  12.410
48207W        W20533  26.060   5.763   3.779
48208W        W20534  13.596  18.762   4.182
48209W        W20535   3.351  29.742  13.919
48210W        W20536  42.275  23.973   3.174
48211W        W20537  33.813  21.637  12.022
48212W        W20538   0.976  26.099   4.229
48213W        W20539  26.876  32.172   0.538
48214W        W20540  41.237  15.139   1.927
48215W        W20541  42.285  28.730   4.088
48216W        W20542  29.546  16.608  12.836
48217W        W20543  36.064  10.495  10.762
48218W        W20544  33.193  19.499  12.506
48219W        W20545  30.919  33.714   1.317
48220W        W20546  17.827  13.601   1.131
48221W        W20547  29.481  37.231   2.645
48222W        W20548  30.476  44.767   3.383
48223W        W20549  41.425  10.157   2.711
48224W        W20550  24.280   2.923  10.756
48225W        W20551  20.321  37.563  11.117
48226W        W20552  27.042  20.802   1.464
48227W        W20553  36.946  39.567   0.682
48228W        W20554  31.057   5.714   2.891
48229W        W20555  33.916  17.328  13.466
48230W        W20556  21.594   1.127  13.772
48231W        W20557   8.195  31.510  11.032
48232W        W20558  33.488  42.721  11.900
48233W        W20559  18.340  44.525   0.700
48234W        W20560  15.794  26.459  14.673
48235W        W20561  18.758  42.425   1.853
48236W        W20562  37.070  17.596   0.760
48237W        W20563  29.313  25.081  13.480
48238W        W20564  16.615  29.121  12.155
48239W        W20565   3.733  38.461  12.410
48240W        W20566  42.409  44.108  10.692
48241W        W20567   9.815  28.869   3.979
48242W        W20568   5.036  24.055   0.278
48243W        W20569   2.265  21.698   5.077
48244W        W20570  42.390   6.424   1.312
48245W        W20571  14.132  16.212  12.091
48246W        W20572  40.001  39.166   1.604
48247W        W20573  24.124  42.850   3.989
48248W        W20574  34.261  33.938   3.729
48249W        W20575  18.220  43.100  13.930
48250W        W20576  18.310  36.614   0.961
48251W        W20577   1.524   1.951  13.066
48252W        W20578   9.376  17.990  14.209
48253W        W20579  34.521  36.305   0.346
48254W        W20580   9.810  35.339   2.433
48255W        W20581  14.584  36.291  12.521
48256W        W20582  30.934   5.898   3.355
48257W        W20583  36.482  23.244  12.029
48258W        W20584  21.051   7.782   2.381
48259W        W20585  14.284  26.828   3.645
48260W        W20586  43.844   2.392   5.007
48261W        W20587  32.962  32.432  11.023
48262W        W20588   9.795  39.257  13.469
48263W        W20589  26.701  18.670  13.932
48264W        W20590  13.880  21.149  13.358
48265W        W20591  24.191  38.592   5.059
48266W        W20592   2.387  11.655   4.049
48267W        W20593  10.762   0.236   2.466
48268W        W20594  36.509  13.402  12.184
48269W        W20595  36.622  21.047   1.761
48270W        W20596   6.758   1.705  14.714
48271W        W20597  37.862  16.230  14.823
48272W        W20598  29.663   3.786  12.941
48273W        W20599  32.108  13.278  12.411
48274W        W20600   6.020  24.962  12.036
48275W        W20601  35.057   6.733   0.257
48276W        W20602   8.882   1.671  10.629
48277W        W20603   0.063  44.317  14.755
48278W        W20604  35.149  37.805  13.508
48279W        W20605   6.865  15.710   4.057
48280W        W20606   7.343  13.916   3.213
48281W        W20607   2.207  19.650   2.818
48282W        W20608  21.350   5.452  13.104
48283W        W20609  42.534   7.725   0.928
48284W        W20610  18.619  18.284  13.534
48285W        W20611  24.118  16.843   0.377
48286W        W20612   4.691  41.967  12.503
48287W        W20613   8.698  43.407   0.354
48288W        W20614  16.067  43.528   1.510
48289W        W20615  12.408  44.945   3.946
48290W        W20616  38.106   3.290  12.878
48291W        W20617   5.906  10.930  11.553
48292W        W20618   5.430  32.459  11.660
48293W        W20619  26.158  38.176  13.392
48294W        W20620  27.647   1.789   2.960
48295W        W20621  20.445  16.792   0.750
48296W        W20622  36.034  37.097  12.436
48297W        W20623  11.733  38.142  12.666
48298W        W20624  41.492  20.681  11.624
48299W        W20625  30.850  11.780  10.299
48300W        W20626  22.976  26.004  11.955
48301W        W20627  10.068  14.637   3.767
48302W        W20628  28.462  28.458   2.448
48303W        W20629  13.367  14.721   0.438
48304W        W20630  16.071  20.862   0.247
48305W        W20631   6.508   7.851  10.821
48306W        W20632  21.958  35.835   4.110
48307W        W20633  20.647   6.332   3.573
48308W        W20634  10.440  40.240   0.469
48309W        W20635  10.071  12.580   0.839
48310W        W20636  39.127  43.939   0.357
48311W        W20637  22.621  24.588   0.674
48312W        W20638  29.933  19.567   3.723
48313W        W20639  43.235  18.237   2.175
48314W        W20640  34.078  30.153   4.322
48315W        W20641  44.900  39.078  12.604
48316W        W20642  32.183  29.014  12.244
48317W        W20643   6.585   4.313  10.671
48318W        W20644  11.288  19.252  13.942
48319W        W20645  25.652   3.125   4.329
48320W        W20646   2.291  22.386  11.156
48321W        W20647  28.669   2.533  12.435
48322W        W20648  27.001  40.061  13.456
48323W        W20649  12.639   0.403   4.866
48324W        W20650  23.674  15.171  12.964
48325W        W20651  32.865   5.200   4.171
48326W        W20652  44.299  28.536  14.459
48327W        W20653  18.031   9.434   2.530
48328W        W20654  29.984  40.542   0.243
48329W        W20655  39.898  24.662  11.553
48330W        W20656  39.968  44.402  13.354
48331W        W20657  32.854  42.030  14.395
48332W        W20658  36.477   8.924  11.993
48333W        W20659  37.657  12.164  14.995
48334W        W20660  44.223   7.641   1.358
48335W        W20661  42.492  30.574  14.852
48336W        W20662  20.114  10.200  11.645
48337W        W20663  40.572  38.809  12.577
48338W        W20664  34.884  37.993   1.844
48339W        W20665  43.051   1.258  12.598
48340W        W20666  22.838  29.893   5.018
48341W        W20667  23.459   8.942   2.192
48342W        W20668  37.091  19.329  10.629
48343W        W20669  30.084  36.930  11.238
48344W        W20670   9.138  43.114  12.999
48345W        W20671  41.425   9.346  13.299
48346W        W20672  38.053  42.857  12.839
48347W        W20673  14.882   4.769   3.626
48348W        W20674  23.248  11.738   3.582
48349W        W20675  41.778   4.956   2.770
48350W        W20676  10.856  16.269  12.512
48351W        W20677  26.888  13.743  13.497
48352W        W20678  22.638  38.984   2.596
48353W        W20679   1.642  33.579   1.676
48354W        W20680   0.227  29.543  13.631
48355W        W20681  10.471  39.923   0.043
48356W        W20682  27.914  34.463  13.370
48357W        W20683  30.621  10.682   0.277
48358W        W20684  31.150  38.058  12.635
48359W        W20685  37.421  39.065   4.204
48360W        W20686  39.084   5.865   2.141
48361W        W20687  11.714   0.371   4.624
48362W        W20688  11.741   2.143  11.036
48363W        W20689  14.757   1.543   2.417
48364W        W20690  22.305  14.076   3.747
48365W        W20691  34.523  35.273   0.165
48366W        W20692   1.553  21.445   2.174
48367W        W20693  16.638  40.533   0.447
48368W        W20694  39.011  31.935  14.533
48369W        W20695  17.258  12.993  10.921
48370W        W20696  44.847  13.947   0.791
48371W        W20697  21.203  42.493  10.852
48372W        W20698  20.008  16.833   3.660
48373W        W20699  36.451  18.988   0.238
48374W        W20700  17.006  27.724   2.337
48375W        W20701  30.692  37.873   0.819
48376W        W20702  31.285  19.045  11.123
48377W        W20703  24.155  24.178  11.573
48378W        W20704   7.843   4.249   3.152
48379W        W20705  12.668  11.812   1.204
48380W        W20706   1.387  25.221   3.195
48381W        W20707  28.489  38.343   0.923
48382W        W20708  34.283  33.008   3.855
48383W        W20709  29.052  12.084  12.651
48384W        W20710   0.993  13.203   4.075
48385W        W20711  19.227  21.866   0.782
48386W        W20712  30.656  43.318   1.770
48387W        W20713   3.128   8.343  10.773
48388W        W20714  30.597   6.669   3.830
48389W        W20715  43.552  35.381  11.227
48390W        W20716  30.156  27.153   0.061
48391W        W20717  12.265  27.637  11.535
48392W        W20718  12.458  44.893   1.626
48393W        W20719  40.942  17.671  13.699
48394W        W20720  17.332  13.671  10.555
48395W        W20721   4.165  25.522   4.576
48396W        W20722  35.605  40.509   4.555
48397W        W20723   3.710  37.925   2.399
48398W        W20724  13.637  23.719  13.312
48399W        W20725  36.398  23.127   0.338
48400W        W20726  31.501  31.895  10.550
48401W        W20727   8.666   2.744  11.957
48402W        W20728  41.570  30.915  13.365
48403W        W20729  19.205  18.876  13.504
48404W        W20730  22.330  34.518  14.933
48405W        W20731  22.244  24.694   2.146
48406W        W20732  30.973  26.755  12.582
48407W        W20733   7.952   0.042  14.536
48408W        W20734   9.935  26.940  14.801
48409W        W20735  28.498  28.965  13.820
48410W        W20736  35.507  16.081  10.455
48411W        W20737  35.075  20.086   3.081
48412W        W20738   9.029  41.532  13.067
48413W        W20739  41.507  13.684  12.079
48414W        W20740   0.276  41.448   1.303
48415W        W20741  24.258  32.712   0.251
48416W        W20742  19.782  27.580  12.944
48417W        W20743  42.761  33.458   4.699
48418W        W20744  44.449  10.060   4.534
48419W        W20745  10.839  32.003   4.624
48420W        W20746  31.778  38.300  13.425
48421W        W20747  12.453  27.916  11.036
48422W        W20748  41.910  33.468   1.732
48423W        W20749  35.426  22.159  14.907
48424W        W20750  44.770  27.636  11.948
48425W        W20751  22.271  20.281   4.132
48426W        W20752  18.843  39.821  11.083
48427W        W20753  16.084   2.628   0.411
48428W        W20754  31.984  19.970  10.783
48429W        W20755  20.160  38.925  10.761
48430W        W20756  43.180  38.623  11.404
48431W        W20757  29.646  17.602  13.911
48432W        W20758  43.996  15.083  12.936
48433W        W20759  43.768  33.386   2.317
48434W        W20760  27.786  13.523  11.052
48435W        W20761  13.803  32.080   4.147
48436W        W20762  27.630  15.545   1.850
48437W        W20763  17.305  17.547  12.387
48438W        W20764  33.360   2.330   1.415
48439W        W20765   7.387  37.626  14.305
48440W        W20766  10.381  16.219  13.335
48441W        W20767  22.041  25.449   1.711
48442W        W20768  44.897  36.471   3.940
48443W        W20769  38.269  22.655  11.628
48444W        W20770  32.383  25.415  14.878
48445W        W20771  16.122  20.609   3.105
48446W        W20772  39.357  16.129   4.612
48447W        W20773  23.019  27.422   2.793
48448W        W20774   9.157   2.726  14.919
48449W        W20775   0.007   1.417  13.194
48450W        W20776  38.771  23.246  11.089
48451W        W20777  10.401  43.983  13.544
48452W        W20778  28.906  41.830  14.908
48453W        W20779   8.933  28.057  11.560
48454W        W20780   8.831   0.378   2.361
48455W        W20781  12.263  41.398  11.609
48456W        W20782   7.045  21.429  13.431
48457W        W20783   4.324  27.910  11.945
48458W        W20784  15.798   3.836  12.077
48459W        W20785   0.632  39.856  11.538
48460W        W20786  37.023  13.623  10.574
48461W        W20787  37.826  23.666   2.389
48462W        W20788  22.109  38.949   0.188
48463W        W20789  22.507   3.150   1.488
48464W        W20790  38.893   4.182   4.864
48465W        W20791  27.032  11.293  11.924
48466W        W20792  26.025   3.808   3.394
48467W        W20793   8.707  11.890  14.462
48468W        W20794  30.331  20.770  11.139
48469W        W20795  29.178  11.926   3.211
48470W        W20796  33.655   1.835   0.185
48471W        W20797  35.916   0.331   1.460
48472W        W20798  40.338  15.175  11.485
48473W        W20799  41.512  35.416  10.776
48474W        W20800  33.931  44.543  11.528
48475W        W20801  32.009  33.189  13.963
48476W        W20802  33.866  20.264  13.168
48477W        W20803  43.957  34.405   3.352
48478W        W20804  28.994  15.170   3.577
48479W        W20805   9.334  32.982  13.081
48480W        W20806  24.973   0.402   1.797
48481W        W20807   6.125  13.573  14.229
48482W        W20808   4.110  30.974   2.917
48483W        W20809   6.454  19.735  13.859
48484W        W20810   1.193  43.195   3.770
48485W        W20811  30.081  13.777   4.027
48486W        W20812   3.266   6.180   3.671
48487W        W20813   5.668  33.540   2.120
48488W        W20814  11.909  42.035   4.174
48489W        W20815   1.126  21.935   1.802
48490W        W20816  40.811  43.416  12.703
48491W        W20817  39.328  35.144   1.412
48492W        W20818  13.622  11.056  11.551
48493W        W20819  15.192  37.795  13.019
48494W        W20820  23.370  28.841  12.848
48495W        W20821  14.913  12.402   3.128
48496W        W20822  10.093  44.280   1.820
48497W        W20823  12.746  34.934   4.438
48498W        W20824  28.560  33.939  14.464
48499W        W20825  25.985  10.053  14.523
48500W        W20826   5.674  28.461  12.538
48501W        W20827   1.906  13.260   2.743
48502W        W20828   5.503  11.247   5.064
48503W        W20829   3.100  10.778  12.416
48504W        W20830  23.961  24.982  14.726
48505W        W20831   6.689  17.006  10.043
48506W        W20832  11.291  13.479   0.719
48507W        W20833  42.264   9.353  11.004
48508W        W20834  23.473  43.503   0.262
48509W        W20835  28.858  37.024   0.972
48510W        W20836   5.752  17.388  11.608
48511W        W20837  23.051  31.597   1.758
48512W        W20838  44.524  36.518   2.143
48513W        W20839  41.483  32.959  13.856
48514W        W20840   4.287  33.711  13.119
48515W        W20841  11.263  34.885   0.557
48516W        W20842  15.533  17.199  12.518
48517W        W20843  32.680  18.336  11.094
48518W        W20844  41.493  42.410   2.175
48519W        W20845   4.851  32.574   3.258
48520W        W20846  27.476  17.680   0.111
48521W        W20847  43.968  11.814  11.994
48522W        W20848  24.174  42.838   1.212
48523W        W20849  11.789  10.681  12.791
48524W        W20850   4.012  38.607   3.091
48525W        W20851  12.018  40.113  12.094
48526W        W20852  22.105   8.727   3.335
48527W        W20853  12.742   6.797  12.558
48528W        W20854  44.237  33.025   1.623
48529W        W20855  28.189  30.575   2.431
48530W        W20856   8.287  16.157   4.428
48531W        W20857   8.838  16.656   3.235
48532W        W20858  40.852  27.506   4.550
48533W        W20859  43.340  16.097   1.678
48534W        W20860  11.852   9.799   2.159
48535W        W20861   7.172   3.047   4.008
48536W        W20862  32.926  13.115  11.422
48537W        W20863  21.518   9.313   0.685
48538W        W20864  11.388  20.904   5.042
48539W        W20865  13.608  30.742   9.992
48540W        W20866  13.237  12.308  10.782
48541W        W20867  38.045  23.544   0.806
48542W        W20868  27.521  28.734  11.908
48543W        W20869  11.407  37.553  14.023
48544W        W20870  32.354  28.190   3.726
48545W        W20871   9.348  35.545  12.629
48546W        W20872  27.177  37.882  12.819
48547W        W20873  25.918  14.920  12.530
48548W        W20874  30.939  19.801  10.816
48549W        W20875   3.875  27.890   2.590
48550W        W20876  39.167  19.301   4.141
48551W        W20877  33.329   1.897   1.670
48552W        W20878  38.887  27.162  14.228
48553W        W20879  12.756   9.696  10.694
48554W        W20880  29.398   7.920  14.482
48555W        W20881  21.489   4.654   4.641
48556W        W20882   1.775  25.574   3.244
48557W        W20883   1.677  25.544   1.597
48558W        W20884  17.244  21.269  10.689
48559W        W20885  23.048   8.597  12.354
48560W        W20886  14.806  14.998   4.329
48561W        W20887   9.844  27.943  11.121
48562W        W20888  14.328  13.867  14.600
48563W        W20889   0.981  32.170   1.337
48564W        W20890  14.661   8.726   4.531
48565W        W20891  34.415  23.546   2.269
48566W        W20892   9.694  13.937  13.957
48567W        W20893  36.154  37.977  12.048
48568W        W20894  25.043  26.712  13.473
48569W        W20895  17.051   3.458  12.489
48570W        W20896  34.096   1.594  11.078
48571W        W20897   2.489  34.382  11.545
48572W        W20898  25.047  37.403  11.950
48573W        W20899  44.233  44.569  14.325
48574W        W20900  40.641  36.461   2.437
48575W        W20901  10.200   5.206   3.700
48576W        W20902  21.491   4.630  13.099
48577W        W20903   2.421  22.224   3.223
48578W        W20904  31.934  24.750   4.675
48579W        W20905   7.765  33.980   4.082
48580W        W20906   7.891  43.837  11.368
48581W        W20907   6.843  44.454  11.060
48582W        W20908  30.867  21.296  13.417
48583W        W20909  22.293  34.151   4.316
48584W        W20910  33.371  23.755   2.261
48585W        W20911  15.381  44.947   4.615
48586W        W20912  41.934  10.874  13.318
48587W        W20913  13.713   7.155  10.556
48588W        W20914  38.029   9.504  10.659
48589W        W20915  10.210  17.757  14.056
48590W        W20916  28.824  40.091   3.380
48591W        W20917  44.953  10.541   4.079
48592W        W20918   6.931  37.017  11.603
48593W        W20919  22.489  25.193   4.084
48594W        W20920  35.328  10.321  11.643
48595W        W20921  26.415  44.235   0.385
48596W        W20922  15.528  40.893  11.132
48597W        W20923   5.043   4.468   1.759
48598W        W20924  29.927   3.618   0.355
48599W        W20925  33.194  30.402  14.894
48600W        W20926  17.661  28.673  11.021
48601W        W20927  44.413  29.983  13.576
48602W        W20928  14.719  16.253  11.471
48603W        W20929  22.462   9.719   1.837
48604W        W20930  39.342   7.351  12.313
48605W        W20931  43.566  38.806  13.824
48606W        W20932  38.418  42.783  10.397
48607W        W20933   2.925  29.070  10.724
48608W        W20934   4.199  22.645  13.377
48609W        W20935  17.792  31.709   0.890
48610W        W20936   9.319  41.287  12.217
48611W        W20937  38.333   1.073  11.956
48612W        W20938  18.425  26.040  11.995
48613W        W20939  40.843  40.816   4.964
48614W        W20940  21.904  37.147   4.037
48615W        W20941  14.192   5.517   3.394
48616W        W20942   9.835  17.786   2.926
48617W        W20943  26.490   9.097  13.062
48618W        W20944  10.444  27.590   4.212
48619W        W20945  23.601  42.273   1.755
48620W        W20946   4.925  30.529  10.886
48621W        W20947   9.473  30.373   2.271
48622W        W20948  34.814   4.889   3.664
48623W        W20949  14.239  31.205  12.025
48624W        W20950  18.692  35.900  11.979
48625W        W20951  40.806  37.950  12.596
48626W        W20952   9.284  34.097  12.169
48627W        W20953  44.702  11.801   0.880
48628W        W20954   3.393   9.327  14.679
48629W        W20955   4.491  23.260   0.821
48630W        W20956  43.876  17.650   0.279
48631W        W20957  28.707  15.060  14.934
48632W        W20958   6.095  30.458  13.966
48633W        W20959   8.751  17.334  14.473
48634W        W20960  28.168  19.789   5.071
48635W        W20961   3.035   9.314   3.456
48636W        W20962  18.121   5.186  14.525
48637W        W20963  27.907  16.336   3.602
48638W        W20964  11.298  12.318  10.749
48639W        W20965  10.243  37.093   4.138
48640W        W20966  21.856   1.223  10.462
48641W        W20967  28.655  32.827   2.418
48642W        W20968  43.799  28.683  14.463
48643W        W20969  17.823   0.321   2.466
48644W        W20970  23.439   3.241  10.770
48645W        W20971  15.252  36.433   9.913
48646W        W20972   4.310   4.803   9.960
48647W        W20973  40.415  27.997  10.689
48648W        W20974   9.627  35.330  13.833
48649W        W20975  10.759  29.208  10.857
48650W        W20976  25.934  34.040   3.391
48651W        W20977  37.072  11.887   2.390
48652W        W20978  17.099   5.748   0.834
48653W        W20979  40.881  14.106   0.762
48654W        W20980  15.124  28.879   0.678
48655W        W20981  14.321  35.941   2.802
48656W        W20982  27.027  16.064  10.938
48657W        W20983   6.216  20.464  10.992
48658W        W20984  20.509  26.443   0.977
48659W        W20985  27.116   1.810   0.729
48660W        W20986   9.547  11.814   1.757
48661W        W20987  24.685   9.248  14.090
48662W        W20988  36.005  34.884  12.351
48663W        W20989  39.308  20.679   4.635
48664W        W20990  44.804   1.019   2.732
48665W        W20991  42.337  44.955   0.095
48666W        W20992  10.695  14.300   4.114
48667W        W20993   1.251  15.262  11.318
48668W        W20994  44.268   1.885   3.735
48669W        W20995  10.866   1.547   0.849
48670W        W20996  28.546  11.272   4.558
48671W        W20997  16.745  15.317   0.900
48672W        W20998  35.664  38.874  12.260
48673W        W20999  39.606  42.761   3.686
48674W        W21000  27.225  30.727  12.949
48675W        W21001   6.936  20.159   1.189
48676W        W21002  29.167  39.888  12.436
48677W        W21003  22.057  40.683  14.493
48678W        W21004  14.091   6.833  12.942
48679W        W21005  39.885  24.048   3.203
48680W        W21006   0.879  42.838   2.799
48681W        W21007   2.672  11.745  10.213
48682W        W21008  21.082   5.447  12.647
48683W        W21009   9.059  41.274   2.816
48684W        W21010   6.803  20.774  11.574
48685W        W21011  16.672  15.623  11.975
48686W        W21012  37.316   3.237   2.378
48687W        W21013   4.106  36.219  12.380
48688W        W21014  44.193  21.248   5.033
48689W        W21015   1.808   2.774  14.523
48690W        W21016  36.017  33.568   1.859
48691W        W21017   4.425  23.207  14.981
48692W        W21018  17.847  26.465  13.325
48693W        W21019   5.489   6.326  12.568
48694W        W21020  41.423  34.051   2.754
48695W        W21021  36.169  21.631  14.894
48696W        W21022  39.982  17.850   0.277
48697W        W21023  34.918   8.822   1.665
48698W        W21024  22.630  43.720   3.760
48699W        W21025  24.862  13.864   0.824
48700W        W21026  26.475   6.316  12.375
48701W        W21027  32.480  23.110   2.966
48702W        W21028  17.089   9.790   3.337
48703W        W21029  38.955  32.646  10.817
48704W        W21030  26.915  11.770  10.590
48705W        W21031  28.160  24.515  11.335
48706W        W21032   1.812  11.475   9.878
48707W        W21033  21.261  43.446  10.441
48708W        W21034   1.182  34.927  11.540
48709W        W21035  24.034  20.060  11.117
48710W        W21036  24.037  23.081   2.095
48711W        W21037  26.804  27.740  14.247
48712W        W21038  10.515  27.325  10.009
48713W        W21039   9.313  36.005  12.993
48714W        W21040   1.783   3.838   0.937
48715W        W21041  42.356   2.679  11.236
48716W        W21042  28.199  26.032   3.335
48717W        W21043   9.912  31.612  10.677
48718W        W21044   6.595  20.209   2.139
48719W        W21045  13.735  27.092  14.830
48720W        W21046  33.024  19.979  12.451
48721W        W21047  33.130  21.051   3.819
48722W        W21048  37.606  18.036  14.843
48723W        W21049  14.064   7.819  10.539
48724W        W21050  41.703  22.357  14.998
48725W        W21051  40.786   5.266   4.647
48726W        W21052  34.126  39.437   0.401
48727W        W21053   9.563  16.771  13.559
48728W        W21054  26.676  38.321   1.753
48729W        W21055  26.480  41.448   0.734
48730W        W21056  31.683  18.127  11.062
48731W        W21057  13.976   9.114   1.943
48732W        W21058   6.651  23.924   4.819
48733W        W21059  20.593  13.818  14.762
48734W        W21060   7.198  31.089  13.854
48735W        W21061  10.207  36.515   5.054
48736W        W21062   0.757  15.217  12.680
48737W        W21063  10.349  24.166   3.143
48738W        W21064  21.728  32.488  11.191
48739W        W21065   4.348  37.360  11.118
48740W        W21066   6.799   4.185  14.717
48741W        W21067  14.368  32.412  13.970
48742W        W21068  12.902   8.313  11.380
48743W        W21069  17.314  23.179   2.262
48744W        W21070  20.148  26.643  10.829
48745W        W21071  27.673  43.255   2.227
48746W        W21072   5.611   8.311  12.127
48747W        W21073  23.390  11.501  14.070
48748W        W21074  39.913  13.589  13.316
48749W        W21075  38.372   4.835  12.000
48750W        W21076  31.065   3.343   0.721
48751W        W21077   0.982  29.451   1.060
48752W        W21078   3.743  21.278  12.414
48753W        W21079  14.312   7.281  11.713
48754W        W21080  42.944  39.563  11.103
48755W        W21081   5.332  25.527  11.496
48756W        W21082  25.199   1.785   3.324
48757W        W21083  34.864  32.537  13.548
48758W        W21084  19.297  24.146   4.140
48759W        W21085  11.448  24.963   1.847
48760W        W21086  34.713  17.100   1.866
48761W        W21087   4.224   9.592  10.152
48762W        W21088  38.831  42.268  14.915
48763W        W21089  31.038  25.449   1.217
48764W        W21090  40.126  19.169  11.647
48765W        W21091  33.030  35.433   9.531
48766W        W21092   4.540  41.399   1.966
48767W        W21093  41.848  39.607   4.042
48768W        W21094   0.920  16.350  12.912
48769W        W21095   5.923  20.024  11.616
48770W        W21096   7.716   2.255  14.839
48771W        W21097  28.857  31.601  12.788
48772W        W21098  37.884  38.944   2.224
48773W        W21099  44.091  32.867   0.307
48774W        W21100   5.656   7.146   3.216
48775W        W21101  13.330  11.786  12.686
48776W        W21102   3.003  26.467  14.393
48777W        W21103  23.008  38.890   3.534
48778W        W21104   0.339  34.418  11.520
48779W        W21105  10.849  43.375   3.736
48780W        W21106   5.805   3.676  12.048
48781W        W21107  17.832  16.760   0.594
48782W        W21108   2.785   4.155   9.757
48783W        W21109  42.917  14.679   0.783
48784W        W21110  33.444  35.934  14.967
48785W        W21111   5.334  44.709   1.928
48786W        W21112  40.811  20.128   3.699
48787W        W21113   0.312   6.094   1.773
48788W        W21114  38.388   2.804   4.254
48789W        W21115  41.745   9.744   1.462
48790W        W21116  43.091  25.101   4.783
48791W        W21117  34.834  19.558   1.774
48792W        W21118  38.419  15.393  14.548
48793W        W21119   6.915   8.749   3.718
48794W        W21120  34.838   8.343   1.892
48795W        W21121  41.663  22.304  10.265
48796W        W21122  10.235  21.578  11.934
48797W        W21123   4.690  25.191  12.593
48798W        W21124  16.671  39.753   3.856
48799W        W21125  14.672  35.433   1.494
48800W        W21126  18.141   6.353  11.200
48801W        W21127  35.161  36.477   1.358
48802W        W21128  34.061  28.941  14.746
48803W        W21129   4.803   9.229   4.534
48804W        W21130  37.777   8.193  11.006
48805W        W21131   6.931  41.677   0.281
48806W        W21132   4.730  40.410   2.263
48807W        W21133  38.392   7.961   0.824
48808W        W21134  26.740  35.771   2.101
48809W        W21135  32.862  37.080  14.441
48810W        W21136  44.078   7.747   2.208
48811W        W21137  39.870  27.409  13.502
48812W        W21138  25.539  12.194   4.683
48813W        W21139  24.993  33.070   1.309
48814W        W21140  30.121  40.920   4.679
48815W        W21141  42.773  15.508   0.402
48816W        W21142  23.590  18.028  11.565
48817W        W21143   8.415  27.185  14.767
48818W        W21144  28.183  22.045   0.674
48819W        W21145  24.227  32.099  14.442
48820W        W21146  11.270  11.925   0.030
48821W        W21147  40.234  22.740  13.586
48822W        W21148   0.947  38.986   2.318
48823W        W21149  26.588   6.756  11.592
48824W        W21150   7.883   3.801   1.778
48825W        W21151  28.194  18.546   4.132
48826W        W21152  27.039  34.829   3.170
48827W        W21153  23.568  30.224  13.381
48828W        W21154  38.076  32.707  10.972
48829W        W21155  40.083  12.677  13.843
48830W        W21156  12.757  22.497  13.855
48831W        W21157  43.813  16.154  14.934
48832W        W21158  17.518   4.374  11.160
48833W        W21159  22.755  12.715  12.537
48834W        W21160  19.665  35.584   3.224
48835W        W21161  39.977  27.394   4.095
48836W        W21162   4.985  17.172   4.442
48837W        W21163  38.856   0.492   1.040
48838W        W21164  44.155   2.293   4.613
48839W        W21165  28.981  41.852  13.576
48840W        W21166  37.284  15.600  13.960
48841W        W21167  36.477  12.682   2.412
48842W        W21168   3.370  26.429  11.428
48843W        W21169  25.644  18.741  14.536
48844W        W21170  21.898   7.112  11.998
48845W        W21171  16.947  42.766  12.040
48846W        W21172   6.828  36.646  13.925
48847W        W21173  11.189  32.020  12.427
48848W        W21174   2.721  36.457  12.790
48849W        W21175  22.465   8.958   2.288
48850W        W21176  43.982  21.650   3.255
48851W        W21177  27.645   0.974   1.001
48852W        W21178   7.542  12.366  11.994
48853W        W21179  31.118   6.188   1.180
48854W        W21180  20.737   0.780   2.233
48855W        W21181  22.681  11.842   5.195
48856W        W21182  17.163  40.765  13.321
48857W        W21183  29.122   2.733   2.914
48858W        W21184  38.374  10.614  10.096
48859W        W21185   1.443   6.173  13.841
48860W        W21186   7.843  19.639  11.034
48861W        W21187  28.502  28.342   5.042
48862W        W21188   4.268  23.149   4.379
48863W        W21189  14.991   4.973   9.903
48864W        W21190   7.177  30.573   4.011
48865W        W21191   5.782   6.046  12.231
48866W        W21192  37.017  29.764  12.447
48867W        W21193  10.769  29.409  13.997
48868W        W21194  23.987  25.154   4.098
48869W        W21195   3.695   9.780   3.256
48870W        W21196  33.512  14.605   3.600
48871W        W21197  27.298  14.225  10.640
48872W        W21198   9.339  14.545   4.170
48873W        W21199  42.220   5.110   3.659
48874W        W21200  40.805  43.343   4.192
48875W        W21201  25.962   3.488  10.360
48876W        W21202   8.271  30.448  12.998
48877W        W21203  12.572  11.315   3.250
48878W        W21204  44.224  11.861   4.623
48879W        W21205   8.368  21.901  13.912
48880W        W21206   8.134  25.122   4.365
48881W        W21207  36.649  32.083   0.891
48882W        W21208  32.744  14.694   4.282
48883W        W21209   7.319  40.366  14.857
48884W        W21210  35.670   1.950   4.433
48885W        W21211  34.124   8.208  11.705
48886W        W21212  35.808  43.428  11.898
48887W        W21213  10.047  17.753   1.940
48888W        W21214  24.163   7.507  10.318
48889W        W21215   3.628  29.026   2.725
48890W        W21216  20.746   0.174  12.967
48891W        W21217  42.856  24.553   0.957
48892W        W21218  14.946  28.740   2.685
48893W        W21219   9.621  12.325   4.173
48894W        W21220   1.333  14.151   1.214
48895W        W21221  24.110  35.986  11.523
48896W        W21222  29.464  11.131   4.644
48897W        W21223  25.809  37.173   4.052
48898W        W21224  12.612  24.086  14.505
48899W        W21225  21.591  12.740   3.240
48900W        W21226   7.780   6.930   1.276
48901W        W21227  12.816  20.866  13.973
48902W        W21228  20.057  20.855  13.918
48903W        W21229  11.685   2.948  12.407
48904W        W21230   5.497  25.001  14.517
48905W        W21231  34.464  40.505   3.999
48906W        W21232  35.520   1.954   0.745
48907W        W21233  37.900  12.582   3.611
48908W        W21234  18.012  30.989   0.179
48909W        W21235  19.999  38.732   1.009
48910W        W21236  15.361   0.512   1.253
48911W        W21237  22.095  40.965   4.984
48912W        W21238  25.687  15.074   2.791
48913W        W21239  13.666   0.381  10.715
48914W        W21240  22.425   4.720   2.536
48915W        W21241  33.442  10.813   1.149
48916W        W21242   1.272  26.615  14.844
48917W        W21243  28.971  14.590   0.904
48918W        W21244   1.477  29.397  10.667
48919W        W21245   0.255  38.194  13.561
48920W        W21246  13.884  37.955  13.942
48921W        W21247  17.623  13.184   2.879
48922W        W21248  19.089  23.784   3.356
48923W        W21249  17.109  35.418   3.243
48924W        W21250  41.979  42.350  14.531
48925W        W21251   9.524   9.448  11.502
48926W        W21252  40.726  41.421   1.269
48927W        W21253  12.749  34.596  14.214
48928W        W21254  15.595  29.915  11.617
48929W        W21255   5.892  16.785  13.908
48930W        W21256   5.479   4.278  11.421
48931W        W21257  29.814  28.474  12.392
48932W        W21258  21.753   4.833  11.545
48933W        W21259   4.499  28.698  14.864
48934W        W21260  29.231  43.932  11.315
48935W        W21261  37.962  44.178  10.990
48936W        W21262   0.198  22.207   0.656
48937W        W21263  12.949   8.430  14.498
48938W        W21264  20.925  38.445   0.830
48939W        W21265  39.377   5.785   4.855
48940W        W21266  20.503  22.503   0.971
48941W        W21267  29.933  11.246   2.368
48942W        W21268   9.188  15.067  14.492
48943W        W21269  18.174   4.368   1.236
48944W        W21270  26.636  27.555  10.702
48945W        W21271  26.614   8.584  14.857
48946W        W21272  36.856  40.833   3.576
48947W        W21273   4.502  29.041  14.465
48948W        W21274  42.932  37.652   9.832
48949W        W21275  33.514  40.273  12.385
48950W        W21276  19.758  31.724   4.541
48951W        W21277  30.253  12.903  11.546
48952W        W21278  13.114   3.215   1.303
48953W        W21279  23.181  28.510   0.316
48954W        W21280  17.675  20.056  12.010
48955W        W21281  33.456   5.820   3.614
48956W        W21282   0.166  22.086  13.451
48957W        W21283  27.087   2.742  10.389
48958W        W21284  25.077   8.634   3.255
48959W        W21285  22.064  39.295  12.552
48960W        W21286  36.107   8.907  10.792
48961W        W21287  10.886   1.783   1.304
48962W        W21288  13.874   3.795   3.751
48963W        W21289  10.854   2.462  14.384
48964W        W21290   6.511  24.828  10.365
48965W        W21291   6.018  14.600   2.632
48966W        W21292   4.751  36.150   5.090
48967W        W21293   5.694   9.877   1.398
48968W        W21294  10.248  41.550  14.412
48969W        W21295  11.738   7.198   0.324
48970W        W21296  19.355   8.983  14.910
48971W        W21297  14.634  36.876  13.429
48972W        W21298  44.379   2.306  10.633
48973W        W21299  36.243  32.385  10.621
48974W        W21300   1.730  10.776  12.974
48975W        W21301  17.825  17.257   0.442
48976W        W21302  39.666  27.148   2.839
48977W        W21303  22.697  24.697   3.718
48978W        W21304  33.951  40.413  13.499
48979W        W21305  28.594  36.008  12.131
48980W        W21306   0.210   8.784  14.559
48981W        W21307  10.425  24.825   5.049
48982W        W21308  27.101   9.743   1.984
48983W        W21309  28.179  22.444   2.405
48984W        W21310   4.749  26.495  11.224
48985W        W21311  36.588   4.793  12.501
48986W        W21312  18.825   2.360   0.601
48987W        W21313   7.975   0.576  14.852
48988W        W21314  44.237  30.057  12.564
48989W        W21315   1.834  17.018  14.478
48990W        W21316  17.078  15.072  13.521
48991W        W21317   1.111  38.439  14.556
48992W        W21318  28.072  12.571  11.314
48993W        W21319  35.869   4.267   2.629
48994W        W21320   7.882  31.961  10.674
48995W        W21321  23.684  29.918   2.092
48996W        W21322  25.961   2.403   3.374
48997W        W21323   1.757  31.207  13.281
48998W        W21324  40.364   2.235  14.897
48999W        W21325   1.340  23.292  11.035
49000W        W21326  34.994   0.962   2.150
49001W        W21327  40.332  26.017  12.694
49002W        W21328  25.609  14.275  11.933
49003W        W21329   6.301   8.463  14.827
49004W        W21330  23.537  44.005   4.600
49005W        W21331  26.645  43.885   2.317
49006W        W21332  13.602  33.024   0.807
49007W        W21333  35.620  13.667   0.439
49008W        W21334  28.113  15.023   0.871
49009W        W21335  14.702  16.620   4.781
49010W        W21336   0.957  35.599  10.459
49011W        W21337  20.265  32.138  11.195
49012W        W21338  10.173  20.076  13.228
49013W        W21339  19.901   5.288  10.598
49014W        W21340  25.274  13.150  12.490
49015W        W21341  27.975  35.475  12.579
49016W        W21342  44.133  43.304  12.870
49017W        W21343  26.536  39.305   0.520
49018W        W21344  13.526  14.798   2.742
49019W        W21345  40.919  16.689   0.832
49020W        W21346  18.305  13.378  14.829
49021W        W21347  11.573  41.636   4.192
49022W        W21348  22.648   3.423   2.829
49023W        W21349   1.822  15.960   3.344
49024W        W21350  37.763   0.323   1.344
49025W        W21351  26.548   4.912  13.044
49026W        W21352  38.862  14.647  13.266
49027W        W21353  30.165  29.244  11.739
49028W        W21354  26.435  10.088  11.927
49029W        W21355  17.589  33.323   2.072
49030W        W21356  28.428   4.832  13.502
49031W        W21357  30.427  26.125  11.313
49032W        W21358  31.046   1.547   0.371
49033W        W21359  20.100  36.926   3.226
49034W        W21360  43.061  29.453  10.787
49035W        W21361  14.393  21.050  11.382
49036W        W21362  12.073  40.165   1.395
49037W        W21363   8.854  36.591   1.148
49038W        W21364   4.762  44.509  12.007
49039W        W21365  12.666  29.190  12.885
49040W        W21366  35.305   7.803  12.917
49041W        W21367  11.377  28.336  12.046
49042W        W21368  24.966   6.107   1.333
49043W        W21369   5.357  43.239  11.831
49044W        W21370  22.671  19.116   2.387
49045W        W21371  21.642   5.208  14.571
49046W        W21372   8.466  43.424  14.881
49047W        W21373  15.723  23.244  12.995
49048W        W21374   8.675  14.018   3.177
49049W        W21375   6.185  11.211   1.395
49050W        W21376  12.749  32.689  14.861
49051W        W21377  35.939  42.843  12.110
49052W        W21378  34.018   0.965   3.216
49053W        W21379  15.779  33.561   0.843
49054W        W21380  31.143  21.009   1.063
49055W        W21381   1.734  23.518   0.834
49056W        W21382  29.184  44.388  13.977
49057W        W21383  22.456   0.898  11.187
49058W        W21384  17.212  34.811  12.588
49059W        W21385  26.463  12.230  14.986
49060W        W21386  33.486   7.471  10.650
49061W        W21387   2.645  36.426   0.262
49062W        W21388  40.279  40.571   0.510
49063W        W21389  18.290  25.973  12.538
49064W        W21390   2.017  17.764  13.979
49065W        W21391   2.177   3.450   2.148
49066W        W21392  43.450   7.203   2.827
49067W        W21393  18.180  29.176  10.718
49068W        W21394  22.848  18.335  11.924
49069W        W21395  40.852   8.388   3.274
49070W        W21396  24.624  25.404   2.885
49071W        W21397  12.768  20.808   3.314
49072W        W21398  28.054  17.240  12.403
49073W        W21399  17.524  28.705   3.948
49074W        W21400  11.806  44.026   3.746
49075W        W21401  29.394   4.421  12.052
49076W        W21402   2.648  32.568  10.705
49077W        W21403  42.659  43.949  13.784
49078W        W21404  42.508  11.218   3.125
49079W        W21405   0.826   5.283   2.850
49080W        W21406  16.310  38.813   9.999
49081W        W21407  24.223  40.919  11.650
49082W        W21408  16.557   0.948  13.577
49083W        W21409  38.788  33.400   1.718
49084W        W21410   9.387   8.161   4.857
49085W        W21411  39.511   8.837   1.650
49086W        W21412  30.937  17.849  14.004
49087W        W21413  18.175   7.139   0.901
49088W        W21414  29.047  15.647  14.932
49089W        W21415   7.354  25.187  11.577
49090W        W21416  13.215  39.566  11.639
49091W        W21417  14.031  22.169   3.308
49092W        W21418  19.156  38.545  11.844
49093W        W21419  25.985  10.256   4.201
49094W        W21420  40.206  20.060   2.823
49095W        W21421  15.289  20.174   3.081
49096W        W21422  44.165  32.615  12.506
49097W        W21423  19.275  19.555  10.679
49098W        W21424  22.127  26.410  13.974
49099W        W21425  44.107  42.381  11.988
49100W        W21426  19.228  10.183  12.667
49101W        W21427  32.696  14.666   2.276
49102W        W21428  39.939  37.385   2.496
49103W        W21429  20.505  41.533  12.763
49104W        W21430  24.301  28.231  12.053
49105W        W21431  43.915  34.479  10.937
49106W        W21432  38.300  30.342  12.000
49107W        W21433  37.520  16.778   5.015
49108W        W21434  26.890  22.319   4.986
49109W        W21435   2.968   1.756   1.670
49110W        W21436   0.225  44.073  12.883
49111W        W21437  36.880  21.427   3.252
49112W        W21438   8.564  20.758  11.229
49113W        W21439  20.036  27.601   3.852
49114W        W21440  18.133  17.161  11.130
49115W        W21441   9.178   2.058  12.911
49116W        W21442  41.637  25.421  14.871
49117W        W21443  44.808   5.269   0.229
49118W        W21444   2.536   8.798  12.187
49119W        W21445  23.479  13.234   2.716
49120W        W21446  10.409  35.331  11.498
49121W        W21447  36.563  12.718  10.722
49122W        W21448  25.919  27.118   1.301
49123W        W21449  16.195  31.517   4.893
49124W        W21450  37.905  21.797   4.186
49125W        W21451   1.097  17.009  10.555
49126W        W21452  36.043  25.447   4.571
49127W        W21453  20.978  20.979  14.232
49128W        W21454  19.263   2.873  11.520
49129W        W21455  37.304  11.064   1.938
49130W        W21456  43.880   7.879   3.546
49131W        W21457  42.386  11.422  12.372
49132W        W21458  20.956  30.945   2.769
49133W        W21459  16.783  15.542  10.096
49134W        W21460  24.090   6.342   4.126
49135W        W21461  23.596  24.103  13.266
49136W        W21462  16.948  26.348  10.918
49137W        W21463   0.832   0.140   0.470
49138W        W21464  32.501  43.595  14.055
49139W        W21465  21.462  41.516   3.171
49140W        W21466   8.184   3.621   2.873
49141W        W21467   3.331  13.517   3.318
49142W        W21468  18.824  33.043   0.041
49143W        W21469  17.293   2.995   0.756
49144W        W21470  13.737  40.935   3.748
49145W        W21471   9.170  37.515   1.683
49146W        W21472  29.701  37.507  14.080
49147W        W21473  43.489  27.169   4.737
49148W        W21474  22.045  28.946   0.209
49149W        W21475  15.649  29.466  11.142
49150W        W21476  19.540  11.621   4.069
49151W        W21477  36.907  28.535   4.691
49152W        W21478  10.860  32.026  14.299
49153W        W21479  34.069  14.735  14.563
49154W        W21480  28.376  14.126   1.317
49155W        W21481  27.991  17.700  11.540
49156W        W21482  18.809  33.075  13.073
49157W        W21483  20.833  25.572  13.593
49158W        W21484  39.002  33.418  11.975
49159W        W21485  20.186  20.805   4.539
49160W        W21486   0.478   9.937  12.057
49161W        W21487  23.691  44.947   2.940
49162W        W21488  24.611   2.008   1.655
49163W        W21489  30.425  22.725   1.755
49164W        W21490  15.658  28.490   1.340
49165W        W21491   8.136  22.369  13.944
49166W        W21492  22.126   9.231   1.466
49167W        W21493  35.917  18.262   4.551
49168W        W21494  17.198  11.406   4.400
49169W        W21495  12.849  13.591  14.408
49170W        W21496  16.152  29.942  14.979
49171W        W21497  20.510  12.120  13.017
49172W        W21498   4.608  32.934   1.404
49173W        W21499   8.825  29.122  14.365
49174W        W21500   5.284  16.627   4.524
49175W        W21501  15.559  19.358   1.394
49176W        W21502  23.588  20.811   3.293
49177W        W21503   9.253   3.714  14.974
49178W        W21504  11.369  18.346   4.210
49179W        W21505   7.130  19.266  11.976
49180W        W21506   8.205   1.035  14.838
49181W        W21507  25.916  30.553  13.346
49182W        W21508  39.618  12.592   2.372
49183W        W21509  24.033  34.018  14.740
49184W        W21510   7.441  41.161  11.567
49185W        W21511  33.148  34.614   5.140
49186W        W21512   3.288  24.259   3.239
49187W        W21513  26.169  26.740  10.155
49188W        W21514  35.519  32.164  10.234
49189W        W21515   1.525  35.332  14.797
49190W        W21516  17.132  37.162  10.871
49191W        W21517   1.279  32.041   4.513
49192W        W21518  23.483   1.276  12.415
49193W        W21519  40.889  33.470   3.840
49194W        W21520  39.369  23.477  13.544
49195W        W21521  13.592  42.408  11.072
49196W        W21522  40.259  21.968  13.697
49197W        W21523  17.650   3.721   4.514
49198W        W21524  18.196  43.038  11.233
49199W        W21525   9.412   5.755  10.569
49200W        W21526  16.383   9.426   1.648
49201W        W21527  41.053  21.831  13.751
49202W        W21528  16.606  31.893  14.263
49203W        W21529   0.815  31.328   0.935
49204W        W21530  34.068   9.957  13.400
49205W        W21531  18.828   7.857  13.842
49206W        W21532  15.722   6.717  12.691
49207W        W21533   6.903   7.397  13.944
49208W        W21534  18.843  29.105   0.332
49209W        W21535   8.400  43.027   1.371
49210W        W21536  37.436  25.632  11.023
49211W        W21537  17.029  30.250   5.011
49212W        W21538  17.565  18.188  12.475
49213W        W21539  38.269  20.684   2.661
49214W        W21540   6.657  39.733  13.940
49215W        W21541  25.211  20.977  14.570
49216W        W21542   5.685  26.989   4.472
49217W        W21543  14.110  41.338  11.192
49218W        W21544  25.029  44.896   3.482
49219W        W21545  42.709   8.691   2.633
49220W        W21546  40.786   6.466   0.873
49221W        W21547  33.853  21.043   0.913
49222W        W21548   8.179  34.450  14.554
49223W        W21549  25.855   1.679  11.650
49224W        W21550   5.423  36.863  11.718
49225W        W21551  39.581  15.672   0.337
49226W        W21552  42.230  44.977  14.069
49227W        W21553  39.126  24.123   3.683
49228W        W21554   3.309  41.260  10.381
49229W        W21555  11.519   4.631   2.164
49230W        W21556  33.458   2.319   5.221
49231W        W21557   0.316   8.222  11.625
49232W        W21558  16.613  34.593   0.976
49233W        W21559  26.937  44.308   0.297
49234W        W21560  18.353  10.286   3.075
49235W        W21561   3.923  44.235   2.564
49236W        W21562  26.609   1.535   3.181
49237W        W21563   5.304  22.861  12.337
49238W        W21564  10.115  44.365  11.534
49239W        W21565   5.857   5.916  11.285
49240W        W21566  27.734  12.068   3.919
49241W        W21567  22.844  16.454  14.396
49242W        W21568   9.618  20.949   1.829
49243W        W21569  24.205  32.464  14.810
49244W        W21570  17.299  36.898   4.129
49245W        W21571  36.313  11.192   0.263
49246W        W21572  23.733  12.076  14.864
49247W        W21573  27.860  36.119   1.448
49248W        W21574  37.988  10.742  11.165
49249W        W21575  14.686  27.952  14.214
49250W        W21576  29.510   3.496   2.745
49251W        W21577  33.619  28.984   0.531
49252W        W21578   7.353   6.435   0.062
49253W        W21579  37.310  11.307  10.620
49254W        W21580  20.627  36.317  12.525
49255W        W21581   8.735  36.953  11.526
49256W        W21582   8.957  12.398   3.691
49257W        W21583  43.967  26.261   2.739
49258W        W21584  38.596  39.916   0.689
49259W        W21585   2.249   3.683  14.459
49260W        W21586  16.761  41.966   2.740
49261W        W21587  21.635  41.736   2.704
49262W        W21588  15.380  15.059   2.700
49263W        W21589  30.390  23.039   0.905
49264W        W21590  34.444   2.881   2.387
49265W        W21591   1.759   6.717  12.713
49266W        W21592   2.245  24.180   4.753
49267W        W21593  24.478  25.633   3.334
49268W        W21594  34.519  26.635   0.991
49269W        W21595  22.227  41.930  10.521
49270W        W21596  35.057   6.845  12.955
49271W        W21597   6.920   2.299  14.480
49272W        W21598  15.554   6.824  14.802
49273W        W21599  38.079  24.424   1.180
49274W        W21600  32.651  39.049   3.341
49275W        W21601  13.303  36.931   9.904
49276W        W21602  18.289   5.972   3.762
49277W        W21603  32.374  28.564   3.355
49278W        W21604  38.886  41.820   0.814
49279W        W21605   0.470  21.545   0.363
49280W        W21606   5.334  25.462  14.328
49281W        W21607  28.479  15.876  13.477
49282W        W21608  25.399  37.913   2.331
49283W        W21609  20.802  17.762  10.592
49284W        W21610  38.137   2.783  12.760
49285W        W21611  27.323   5.814   0.799
49286W        W21612  12.684  22.900   0.689
49287W        W21613   1.685  11.549   3.414
49288W        W21614  15.100  18.204  11.617
49289W        W21615  41.345  18.494  13.992
49290W        W21616  32.866  43.310  12.584
49291W        W21617   1.210  24.037  12.950
49292W        W21618  26.122  21.859  12.540
49293W        W21619   5.689  30.472   2.622
49294W        W21620  40.030   3.873  13.832
49295W        W21621  24.899   6.912   1.822
49296W        W21622  37.631  15.290   0.975
49297W        W21623   4.815  10.938   1.248
49298W        W21624  26.222  35.022  12.333
49299W        W21625  23.466  32.681  11.386
49300W        W21626  33.961  18.193  11.123
49301W        W21627   2.292   6.827   2.228
49302W        W21628  12.673  23.405   0.864
49303W        W21629   7.943  38.785   3.714
49304W        W21630  19.735   5.752   3.853
49305W        W21631  28.272  17.519  12.904
49306W        W21632   7.135  38.512   3.698
49307W        W21633   3.479  28.761  14.084
49308W        W21634  36.470  38.979  13.918
49309W        W21635   8.765  14.324  13.938
49310W        W21636   5.689   8.753   4.117
49311W        W21637  28.581   0.304  11.432
49312W        W21638  40.013  36.127  14.202
49313W        W21639  22.948   8.815   2.175
49314W        W21640  29.599   5.804   0.845
49315W        W21641  43.649   8.768  12.606
49316W        W21642  18.449  19.248  11.625
49317W        W21643  25.100   7.702  10.582
49318W        W21644  12.369   4.349   4.330
49319W        W21645  32.708  35.538   1.225
49320W        W21646  23.676  29.709  13.472
49321W        W21647  24.166  32.449   0.964
49322W        W21648  37.347   7.771  11.979
49323W        W21649  29.072   9.279   3.384
49324W        W21650   1.085  37.452  11.151
49325W        W21651  22.562  34.950  11.638
49326W        W21652   7.911   5.792   1.771
49327W        W21653  17.752  19.124   0.996
49328W        W21654  34.054  24.608   0.931
49329W        W21655   0.966  10.894   4.267
49330W        W21656  42.764  41.826   4.592
49331W        W21657  33.015  44.540  10.420
49332W        W21658  27.619  38.468  14.468
49333W        W21659  42.795  16.280  11.782
49334W        W21660   9.055  41.964   0.498
49335W        W21661  14.856   4.776  12.065
49336W        W21662  17.712  19.699   2.338
49337W        W21663  24.170  19.881  12.938
49338W        W21664  22.218   6.782  14.943
49339W        W21665  13.769   8.674   1.087
49340W        W21666  42.541   7.992   0.123
49341W        W21667  33.005  39.056  11.494
49342W        W21668  30.422  24.271  11.929
49343W        W21669  35.079   8.871   4.705
49344W        W21670  37.977  12.673   1.729
49345W        W21671  34.236  21.041   3.192
49346W        W21672  34.460  14.839   0.723
49347W        W21673  39.760  19.572  11.137
49348W        W21674   2.674  10.820   2.241
49349W        W21675  39.474  35.944  13.381
49350W        W21676  25.705   8.758  10.049
49351W        W21677  29.191  36.396  12.217
49352W        W21678  21.734  18.159   2.175
49353W        W21679   9.260  36.463  14.849
49354W        W21680  25.729  40.236   4.188
49355W        W21681  15.632  28.639  11.646
49356W        W21682  32.325  13.697  11.160
49357W        W21683  11.435  11.344   4.131
49358W        W21684  35.925  38.672  12.878
49359W        W21685   8.754  30.432  10.722
49360W        W21686   1.178  23.550   3.709
49361W        W21687  18.941  17.201   1.352
49362W        W21688  17.921  27.331  11.200
49363W        W21689   5.542  28.834   1.452
49364W        W21690  42.405  33.969   0.210
49365W        W21691  31.494   4.078   0.912
49366W        W21692  23.773   0.283   0.414
49367W        W21693  35.072  31.062   1.407
49368W        W21694   8.985  12.236  13.096
49369W        W21695  19.519  44.625   5.088
49370W        W21696  11.972   2.074   2.214
49371W        W21697   7.394  22.234  14.376
49372W        W21698  43.440  39.080   3.094
49373W        W21699  33.440  40.383   3.632
49374W        W21700  17.706  10.717   1.480
49375W        W21701  11.932  32.608  14.290
49376W        W21702  25.224  40.964  11.510
49377W        W21703  20.385  44.392  11.047
49378W        W21704  22.732  25.609  12.569
49379W        W21705  22.601  30.431   2.147
49380W        W21706  29.890  32.278  14.975
49381W        W21707  44.951  19.958  11.866
49382W        W21708  26.072   8.039   4.845
49383W        W21709  35.328  37.833   0.887
49384W        W21710  37.411  29.492  14.792
49385W        W21711  17.670  36.407  13.316
49386W        W21712  28.469  23.442  13.828
49387W        W21713  12.513  34.297  10.127
49388W        W21714  29.578  18.479  13.474
49389W        W21715  18.134  31.875  13.101
49390W        W21716  12.004  18.952   3.167
49391W        W21717   7.435   8.767  11.882
49392W        W21718  14.475  18.490   0.046
49393W        W21719   8.583  15.768   2.663
49394W        W21720   5.395  28.097  11.261
49395W        W21721  14.790  42.748  11.160
49396W        W21722  33.940  26.456   2.742
49397W        W21723  35.469  22.708   2.911
49398W        W21724   9.368  15.356  12.879
49399W        W21725  40.561  22.982  10.399
49400W        W21726  40.466  11.772   3.714
49401W        W21727   4.331  28.258   5.197
49402W        W21728   8.173   3.843  10.574
49403W        W21729   2.091  11.846   0.215
49404W        W21730   0.799   4.366   3.286
49405W        W21731  33.200  40.818   3.478
49406W        W21732  41.210  41.633   3.164
49407W        W21733  22.142  30.182   2.117
49408W        W21734  41.002  14.599  14.884
49409W        W21735   5.321  21.604  12.958
49410W        W21736  27.608   4.787   4.478
49411W        W21737  30.554   7.774   4.644
49412W        W21738  13.743  36.503  13.466
49413W        W21739  21.058  17.735  12.504
49414W        W21740  21.165  24.446  13.817
49415W        W21741  12.859  12.647  14.320
49416W        W21742  24.763  41.420   0.475
49417W        W21743   8.915  41.688   0.955
49418W        W21744  25.618  14.677   0.955
49419W        W21745  21.620   0.404   4.735
49420W        W21746  32.799  25.721   3.329
49421W        W21747  15.849  30.975  14.023
49422W        W21748  12.382  26.066  14.402
49423W        W21749  15.007  18.838  13.030
49424W        W21750   3.797  17.164   3.875
49425W        W21751  17.689  37.815  12.671
49426W        W21752  28.404   6.505   3.925
49427W        W21753  35.875  29.137  11.624
49428W        W21754  19.055  38.034   0.882
49429W        W21755  13.379  41.920   2.244
49430W        W21756  43.322  26.321  13.510
49431W        W21757  29.057  12.447  13.966
49432W        W21758  22.244   9.921  14.095
49433W        W21759  42.360  24.427   0.886
49434W        W21760  39.575  34.478  14.927
49435W        W21761   6.381  20.592   3.302
49436W        W21762  25.598  27.015  12.021
49437W        W21763  25.107  28.169  12.893
49438W        W21764  23.986  12.203   3.618
49439W        W21765  28.191  26.577  14.549
49440W        W21766   4.174  44.382   0.606
49441W        W21767  18.754  15.512  14.297
49442W        W21768  20.441  38.479  14.314
49443W        W21769  16.277   7.588  11.226
49444W        W21770  37.979  29.574   4.561
49445W        W21771  36.522  34.879   4.523
49446W        W21772  27.947  31.990   4.555
49447W        W21773  18.860  43.802   2.871
49448W        W21774  17.483  33.523   4.536
49449W        W21775  17.645  28.559   2.961
49450W        W21776  42.253  42.469  12.940
49451W        W21777  30.788  24.004   1.172
49452W        W21778  43.965  12.625  14.012
49453W        W21779  27.950   6.623  10.651
49454W        W21780  34.602  27.062   0.698
49455W        W21781  34.892   4.577   4.494
49456W        W21782  44.224  10.144  14.434
49457W        W21783   7.654  35.943   2.759
49458W        W21784  23.988  18.462   3.187
49459W        W21785   9.010  13.766   1.677
49460W        W21786  13.629  35.310   0.394
49461W        W21787  35.595  11.465   0.966
49462W        W21788  16.359   1.399  13.409
49463W        W21789  13.199  31.564  12.019
49464W        W21790  12.608  26.983  12.151
49465W        W21791   5.920  19.116   2.722
49466W        W21792  36.072  26.698   1.234
49467W        W21793  23.460  17.172  11.234
49468W        W21794  28.057  31.445   4.585
49469W        W21795  28.825   1.212  10.902
49470W        W21796   5.798  30.124   0.418
49471W        W21797  12.444  35.787  14.231
49472W        W21798  29.179  15.281  13.056
49473W        W21799  29.967  12.275  13.611
49474W        W21800  20.100  17.089   3.197
49475W        W21801   8.175  18.964  11.397
49476W        W21802  17.574  31.962  14.408
49477W        W21803  27.903   2.201  12.097
49478W        W21804  17.092   4.322   3.032
49479W        W21805  29.003  31.415  13.250
49480W        W21806  30.665  33.568   4.714
49481W        W21807  31.924   4.563  12.201
49482W        W21808   0.377  11.514   4.894
49483W        W21809  22.295   6.192   2.283
49484W        W21810   7.853   3.303   1.591
49485W        W21811  21.751  39.652   3.835
49486W        W21812  32.679  18.803  11.316
49487W        W21813  38.250  21.234  11.633
49488W        W21814  13.416  30.533  12.967
49489W        W21815  36.622  15.576   4.738
49490W        W21816  36.386  22.600   1.581
49491W        W21817  36.314  24.451  11.600
49492W        W21818  10.354   2.679   2.844
49493W        W21819  26.983  42.461  11.650
49494W        W21820  27.996  14.755   2.846
49495W        W21821  19.485  13.211  12.025
49496W        W21822  39.057  30.175  10.478
49497W        W21823  23.924  40.552   3.870
49498W        W21824  35.849   0.998  12.078
49499W        W21825  15.322  40.394   0.170
49500W        W21826  17.536  32.555   1.682
49501W        W21827  44.139  41.382  11.193
49502W        W21828  30.388  43.729   1.937
49503W        W21829   7.355  17.207  10.924
49504W        W21830  27.987   3.532   4.971
49505W        W21831   5.876  42.340   1.421
49506W        W21832   4.381  11.183  11.099
49507W        W21833  15.865  31.408   1.691
49508W        W21834  37.781  19.579   4.056
49509W        W21835  30.982  43.616   3.613
49510W        W21836  23.677  12.283   3.204
49511W        W21837  40.020  38.762   1.255
49512W        W21838   4.444  44.243  11.560
49513W        W21839  40.960   9.832   0.909
49514W        W21840  33.776  21.925   0.471
49515W        W21841   3.342  23.782  11.144
49516W        W21842   6.608   7.166   2.437
49517W        W21843  22.796  12.632   0.700
49518W        W21844  11.743  14.173   4.590
49519W        W21845  25.624   7.511   2.809
49520W        W21846  41.083  44.041  10.582
49521W        W21847  11.913  21.116   3.920
49522W        W21848   3.652  33.297   0.443
49523W        W21849  32.369  20.377   1.794
49524W        W21850  25.654  17.628   4.095
49525W        W21851   1.450  41.958   4.618
49526W        W21852  15.508  39.340   3.391
49527W        W21853   2.379   0.009  11.085
49528W        W21854   5.441  14.043   0.411
49529W        W21855  17.749   1.971   1.016
49530W        W21856   6.786   5.881   1.593
49531W        W21857   6.433  34.471   0.879
49532W        W21858   8.804  13.032  13.541
49533W        W21859  32.569  14.155  11.025
49534W        W21860  12.879  32.461   3.333
49535W        W21861  37.315   2.451   0.836
49536W        W21862   2.836  34.954   0.812
49537W        W21863   8.817  32.762  13.301
49538W        W21864   4.780  35.515  14.278
49539W        W21865  38.381  29.763  11.146
49540W        W21866  34.463  29.054  14.437
49541W        W21867  41.121  17.584  11.610
49542W        W21868   5.415  25.479   2.062
49543W        W21869   8.851  16.033  14.454
49544W        W21870  40.746  34.603   3.369
49545W        W21871  23.491   1.766   3.850
49546W        W21872  44.529  21.111  14.264
49547W        W21873  35.231   1.017   5.087
49548W        W21874  15.756  31.933  12.366
49549W        W21875  21.975  40.428  14.914
49550W        W21876  11.232  31.758  12.916
49551W        W21877  38.512   8.459  14.936
49552W        W21878  41.547  40.273  11.481
49553W        W21879   2.274  16.428  11.355
49554W        W21880  21.744  19.505   2.589
49555W        W21881  33.924  42.376  14.817
49556W        W21882  44.404  38.816  10.563
49557W        W21883  15.875  17.515   0.156
49558W        W21884  10.270  23.687   0.758
49559W        W21885   7.545   4.509   3.546
49560W        W21886  34.211   4.031   3.604
49561W        W21887   2.417   0.567   4.221
49562W        W21888  16.584  18.473   2.774
49563W        W21889  27.190   6.451   1.792
49564W        W21890  41.239  15.741  12.934
49565W        W21891  18.274  34.533  14.796
49566W        W21892  10.605  32.213   2.390
49567W        W21893   3.695  39.538   3.297
49568W        W21894  32.622  16.804   1.440
49569W        W21895  10.756  23.005  12.003
49570W        W21896  34.361  42.817   3.091
49571W        W21897   1.827  24.454  12.463
49572W        W21898  24.034  13.467  11.553
49573W        W21899  40.005  28.401  12.540
49574W        W21900  10.248  43.451  14.761
49575W        W21901  25.652  26.912   0.577
49576W        W21902   8.154  26.192   3.692
49577W        W21903  20.348  18.021  11.086
49578W        W21904  14.142  19.217  10.924
49579W        W21905   9.312  17.418   0.266
49580W        W21906  12.278  39.326   1.900
49581W        W21907  44.976   8.232   2.448
49582W        W21908   4.827  22.039   4.657
49583W        W21909  14.117   0.758   5.109
49584W        W21910   9.590  27.034  12.145
49585W        W21911   9.174  12.245   1.389
49586W        W21912  15.869  39.312  13.428
49587W        W21913  20.525  39.401   2.260
49588W        W21914  21.549  17.064   1.300
49589W        W21915  26.451  20.717  14.009
49590W        W21916  32.213  43.487  12.155
49591W        W21917  19.683   5.643  13.422
49592W        W21918  12.211   0.275   1.361
49593W        W21919  41.458   3.478  10.972
49594W        W21920  38.608   8.878   9.927
49595W        W21921  26.969  39.975   4.714
49596W        W21922   0.959  32.542  14.224
49597W        W21923   8.154   3.868   4.314
49598W        W21924  12.805  20.109  10.693
49599W        W21925  15.287  42.986  10.550
49600W        W21926  44.436  17.142  13.579
49601W        W21927  42.322  16.441  11.633
49602W        W21928  40.463  19.225   3.368
49603W        W21929   9.627   6.807  13.020
49604W        W21930   7.841  16.786   1.296
49605W        W21931   3.129  23.631  14.852
49606W        W21932   9.414  18.111   3.648
49607W        W21933  25.557  20.620   2.799
49608W        W21934  44.457  16.134   0.477
49609W        W21935  16.592  28.604   0.350
49610W        W21936   0.514  35.572  10.719
49611W        W21937  16.385  35.487   2.725
49612W        W21938   8.165   7.759   4.643
49613W        W21939  12.651  27.001  11.077
49614W        W21940  16.562   6.671  14.352
49615W        W21941  33.322   6.682  13.255
49616W        W21942  27.322   8.801   3.231
49617W        W21943  18.191  24.161  11.125
49618W        W21944  20.135  37.887  14.209
49619W        W21945  31.031  12.218  13.696
49620W        W21946  19.185  43.442   2.278
49621W        W21947  33.889  14.784   4.330
49622W        W21948  20.788  40.951   1.674
49623W        W21949  16.772  42.101  14.267
49624W        W21950  17.011  43.575  12.540
49625W        W21951   1.004   0.354   3.654
49626W        W21952   1.787   0.233  11.492
49627W        W21953  35.728   1.909   0.272
49628W        W21954  14.235  26.096   2.236
49629W        W21955  15.834  40.488   0.885
49630W        W21956  24.910  37.100   2.127
49631W        W21957  30.460   6.274   2.415
49632W        W21958   0.152  15.802   3.641
49633W        W21959  11.541   7.093  11.069
49634W        W21960  37.615  37.038  12.521
49635W        W21961  31.636   6.583  13.064
49636W        W21962   9.900  36.135   0.888
49637W        W21963  30.911  21.261   5.082
49638W        W21964  28.038   2.754   2.717
49639W        W21965  24.974   8.283   1.380
49640W        W21966   8.404  33.529   0.844
49641W        W21967  25.758  26.591  14.834
49642W        W21968  35.408   2.465   0.806
49643W        W21969  16.042  23.044   2.113
49644W        W21970  12.289  15.438  13.051
49645W        W21971  33.048  39.326   3.541
49646W        W21972  28.653   7.263  14.290
49647W        W21973   7.983  12.518  10.665
49648W        W21974  14.282  31.913  14.806
49649W        W21975   0.768  25.066   4.610
49650W        W21976  32.910   6.316  14.419
49651W        W21977  30.637  40.361   1.462
49652W        W21978   2.760  21.958  13.543
49653W        W21979  12.198   6.081   4.153
49654W        W21980  17.718  31.447  10.628
49655W        W21981  25.654  33.368  10.949
49656W        W21982  33.955  37.834   0.694
49657W        W21983  36.773  30.247   2.658
49658W        W21984  10.009  42.607   4.980
49659W        W21985   5.028   9.329   4.093
49660W        W21986  25.121  41.032   0.835
49661W        W21987  24.099  26.919   2.048
49662W        W21988  16.638  37.377  14.614
49663W        W21989  38.162  38.477  11.285
49664W        W21990  20.620  37.930  14.022
49665W        W21991  12.693   4.484  12.608
49666W        W21992   4.973  31.605  12.475
49667W        W21993  10.798  16.407   3.151
49668W        W21994  16.655  42.024  14.771
49669W        W21995  12.407  26.029   2.452
49670W        W21996  12.962  36.683   4.262
49671W        W21997  43.798  39.765  12.094
49672W        W21998  25.042   4.648  14.319
49673W        W21999   9.110   0.784   3.296
49674W        W22000  21.675  18.975  12.215
49675W        W22001  33.566  19.950  12.622
49676W        W22002  27.015  44.222   2.118
49677W        W22003  30.305  40.223   0.508
49678W        W22004  12.745  26.270  10.241
49679W        W22005  31.000  12.353  11.970
49680W        W22006  37.458  29.930  14.035
49681W        W22007  38.916  44.720  11.262
49682W        W22008  24.255  24.880  14.302
49683W        W22009  23.965  31.267  12.050
49684W        W22010   4.348  18.881   0.122
49685W        W22011  39.425  26.689   2.810
49686W        W22012  32.011  31.633   2.631
49687W        W22013  31.405  30.351   2.741
49688W        W22014  30.173  32.825  14.254
49689W        W22015  10.912  11.411  11.274
49690W        W22016  29.683  33.082  11.584
49691W        W22017  13.654   9.908   4.801
49692W        W22018   5.707  19.212   3.248
49693W        W22019  16.758  12.103  11.986
49694W        W22020  33.959  38.817   4.589
49695W        W22021  14.875  30.761  14.580
49696W        W22022  40.280   7.157   4.626
49697W        W22023  32.483  28.906  13.902
49698W        W22024  39.999  37.007   1.812
49699W        W22025  25.970   9.281  12.928
49700W        W22026  38.925   1.837  12.089
49701W        W22027  23.714   5.843  12.978
49702W        W22028   2.929  14.636   2.083
49703W        W22029  33.611  37.797  14.620
49704W        W22030   7.584  38.456  12.571
49705W        W22031   0.970   6.707   1.265
49706W        W22032   5.942  28.592  13.972
49707W        W22033  33.041  18.112   1.315
49708W        W22034  25.520   9.982  12.345
49709W        W22035  42.970   3.451  10.649
49710W        W22036  34.340  25.036   0.813
49711W        W22037  32.581   6.098   2.280
49712W        W22038  44.947  35.898  12.421
49713W        W22039  23.799   4.196  10.597
49714W        W22040  44.640  38.082   2.202
49715W        W22041  43.366  24.404   2.696
49716W        W22042  30.427  32.329   2.764
49717W        W22043  23.127  31.484   2.787
49718W        W22044  34.401  15.353   3.611
49719W        W22045  26.896  36.343  10.650
49720W        W22046   5.353  32.041   0.296
49721W        W22047  40.071  20.681   2.237
49722W        W22048  41.785  33.070   4.016
49723W        W22049  24.001  29.638  14.967
49724W        W22050  15.268  42.279  13.313
49725W        W22051  12.328  26.389   2.801
49726W        W22052  36.906  33.788   5.875
49727W        W22053  36.048   3.258   4.084
49728W        W22054  10.492  43.751   2.775
49729W        W22055  23.519  35.924   1.495
49730W        W22056   6.800  28.104   2.685
49731W        W22057  19.535  14.684   2.792
49732W        W22058   4.512  23.004   2.708
49733W        W22059  40.776  20.703  14.333
49734W        W22060  24.428  16.717   3.237
49735W        W22061   4.297  18.744  11.860
49736W        W22062  38.314   2.265  14.928
49737W        W22063  28.979  35.032   3.802
49738W        W22064  11.386   5.809   0.391
49739W        W22065  25.880  10.972  12.908
49740W        W22066  14.023  28.706   1.305
49741W        W22067  32.935   9.689   1.711
49742W        W22068  27.739  28.540  10.162
49743W        W22069  40.803  20.759  12.390
49744W        W22070  35.915   4.548   2.185
49745W        W22071  12.440   8.143   1.153
49746W        W22072  32.926   7.506   1.183
49747W        W22073   3.647  10.469   4.532
49748W        W22074   1.841  40.761  12.248
49749W        W22075  37.969  28.696   1.472
49750W        W22076  11.697  37.317  10.641
49751W        W22077  29.521  17.921   1.925
49752W        W22078  26.174  29.961   0.806
49753W        W22079  13.789  12.818   4.556
49754W        W22080  10.805   4.050  14.454
49755W        W22081  11.249  44.259  11.106
49756W        W22082   9.797  28.938   2.537
49757W        W22083   3.330  37.417  10.628
49758W        W22084   2.267   3.367  12.893
49759W        W22085  11.896   7.976  12.316
49760W        W22086  32.401  37.278   3.682
49761W        W22087  32.478  15.732  11.106
49762W        W22088  15.045  42.462   2.409
49763W        W22089  21.982  17.275  14.540
49764W        W22090  41.750  12.377   1.924
49765W        W22091  42.530   1.854  11.215
49766W        W22092  26.024   0.800   1.283
49767W        W22093  44.261  25.071   4.500
49768W        W22094  28.973  18.412  14.058
49769W        W22095   6.316  28.247  14.795
49770W        W22096   2.923  42.989  11.622
49771W        W22097  26.684  13.718   0.691
49772W        W22098  25.539  41.708  14.824
49773W        W22099   9.814  10.597   0.771
49774W        W22100  17.623  19.491   3.834
49775W        W22101   8.018  34.077   4.573
49776W        W22102   6.316  40.780  13.367
49777W        W22103   0.577   7.369  11.497
49778W        W22104  21.666   9.151  14.309
49779W        W22105  29.052  39.753   0.918
49780W        W22106  15.808  23.926  10.515
49781W        W22107   5.698  23.437   1.305
49782W        W22108  41.864   0.968   1.384
49783W        W22109  18.634   6.425   1.800
49784W        W22110  41.712  21.044   3.403
49785W        W22111  29.176  42.406   1.759
49786W        W22112  23.598  20.826   1.840
49787W        W22113  39.430  27.529   0.932
49788W        W22114   6.258  28.562  12.436
49789W        W22115  13.341  19.142   4.643
49790W        W22116  31.383   3.815   4.074
49791W        W22117  14.725  44.905  12.497
49792W        W22118  28.047  38.970   1.701
49793W        W22119  11.160   8.550   3.942
49794W        W22120  33.865  29.533   3.282
49795W        W22121  29.068  29.689  11.038
49796W        W22122  35.009  10.864   3.210
49797W        W22123  36.313   4.425   3.389
49798W        W22124  40.927  11.938   2.951
49799W        W22125  39.435  40.430  11.848
49800W        W22126  14.866  28.396   4.109
49801W        W22127  16.196  11.887  10.714
49802W        W22128  19.722  38.035  10.442
49803W        W22129  22.815  12.777   3.579
49804W        W22130  41.372  26.405   0.663
49805W        W22131  11.779   5.746  10.680
49806W        W22132  39.567  31.764  13.364
49807W        W22133  33.268   7.468   3.252
49808W        W22134  44.471  12.304   3.308
49809W        W22135  15.995  24.817   5.081
49810W        W22136  24.100  42.552  10.396
49811W        W22137   9.668  23.467  10.737
49812W        W22138  14.246  26.163   1.643
49813W        W22139  44.501  22.518  14.783
49814W        W22140  39.842  15.011   1.498
49815W        W22141  38.673  36.404   3.694
49816W        W22142  33.102  33.554  14.767
49817W        W22143  22.597  24.183   2.830
49818W        W22144  28.386  24.151  12.176
49819W        W22145  16.792  31.769  13.348
49820W        W22146  23.144   1.885   0.979
49821W        W22147   9.593   0.992  14.898
49822W        W22148  27.923  43.887  12.071
49823W        W22149  41.037  13.539  10.748
49824W        W22150  36.038  34.011  13.277
49825W        W22151   6.385  37.302  10.935
49826W        W22152  19.143  20.467  13.984
49827W        W22153  37.495  40.751  13.989
49828W        W22154  13.653  40.373  13.985
49829W        W22155  27.911   6.873   1.255
49830W        W22156  38.898  32.253   0.284
49831W        W22157  42.887  40.847  12.976
49832W        W22158   0.257  15.322   1.065
49833W        W22159  11.366  34.119  11.902
49834W        W22160  13.274   4.910   4.644
49835W        W22161  26.093  28.415   2.662
49836W        W22162  23.218  20.254  11.563
49837W        W22163  18.947  42.841  13.250
49838W        W22164  32.933  12.375   3.675
49839W        W22165   7.842  28.825   4.325
49840W        W22166   1.556   4.459   4.646
49841W        W22167   3.981   3.715   1.012
49842W        W22168  41.570   1.293   4.151
49843W        W22169  34.805  34.186  14.985
49844W        W22170   1.954  14.878  12.250
49845W        W22171  17.585  17.529   1.713
49846W        W22172  44.220   0.537  11.304
49847W        W22173  38.979  14.325   1.674
49848W        W22174  34.130  11.699   4.764
49849W        W22175  26.711   5.345  14.491
49850W        W22176  26.038  36.447  11.102
49851W        W22177   0.104   0.487  11.099
49852W        W22178   9.938  44.893  14.203
49853W        W22179  14.572  19.703  12.890
49854W        W22180  15.699  41.599  14.937
49855W        W22181  21.256  23.664  12.439
49856W        W22182  43.686  10.406   2.429
49857W        W22183  27.522   9.134   4.167
49858W        W22184  10.312   9.767  12.080
49859W        W22185  13.859  31.355  10.660
49860W        W22186  10.519   7.204  11.127
49861W        W22187  34.053  26.560   0.743
49862W        W22188   1.225  22.246  10.131
49863W        W22189   5.990  29.074  13.719
49864W        W22190  23.011  12.314  11.618
49865W        W22191  31.085  31.822  11.514
49866W        W22192  44.229  10.990   3.717
49867W        W22193  41.556   9.701   2.918
49868W        W22194   0.420  12.159   1.192
49869W        W22195  25.446  17.471  14.496
49870W        W22196  12.095  22.558  14.494
49871W        W22197   9.409  16.263  11.510
49872W        W22198  18.713  44.779   4.054
49873W        W22199  11.296  15.210  12.955
49874W        W22200  33.208   6.392   4.669
49875W        W22201  38.908  18.054  10.096
49876W        W22202  29.574  25.890   0.265
49877W        W22203   3.869   7.388  11.477
49878W        W22204  41.355  20.190   1.307
49879W        W22205  35.352  25.157  10.697
49880W        W22206  30.345  38.461  11.076
49881W        W22207  43.347  37.541  12.952
49882W        W22208  30.924  34.519   0.969
49883W        W22209  29.320  14.292  11.529
49884W        W22210  24.034  21.160   0.427
49885W        W22211  18.769  32.953   2.018
49886W        W22212  37.742  18.579  13.876
49887W        W22213  34.276  21.624   1.169
49888W        W22214   3.914  42.490   3.262
49889W        W22215  43.866  40.971  11.419
49890W        W22216  38.973   3.317  10.686
49891W        W22217  35.951  33.022  13.771
49892W        W22218  20.341  13.303   4.007
49893W        W22219  14.252  25.099  13.111
49894W        W22220  25.120  43.245   2.685
49895W        W22221  27.551  19.488   2.809
49896W        W22222  32.811   7.649   3.009
49897W        W22223  43.640  37.509  10.510
49898W        W22224  14.290   8.242   0.134
49899W        W22225  12.793  28.046   2.955
49900W        W22226  21.861  18.609  13.480
49901W        W22227   5.095   6.485   5.131
49902W        W22228  18.698  30.588   1.281
49903W        W22229  16.110   4.980  13.428
49904W        W22230  28.057  10.296   2.326
49905W        W22231  28.482   6.777  11.715
49906W        W22232  38.427  25.524   0.880
49907W        W22233  13.246  35.787   4.108
49908W        W22234  30.596  19.546   1.666
49909W        W22235  40.173  42.348   2.548
49910W        W22236  15.083  34.538  14.955
49911W        W22237  40.277  31.580  11.991
49912W        W22238   8.902   9.419  12.125
49913W        W22239  44.334  32.121   3.431
49914W        W22240  32.749  23.898   0.447
49915W        W22241  24.281  21.218   3.713
49916W        W22242  25.873  43.023  14.990
49917W        W22243  32.671  22.975   2.516
49918W        W22244  10.347  32.350   1.435
49919W        W22245   6.753  36.113  11.703
49920W        W22246  42.530  17.362   5.044
49921W        W22247  13.756  32.510   2.873
49922W        W22248  32.929  17.955  11.293
49923W        W22249  17.954  29.435   2.356
49924W        W22250  17.645  40.039   1.162
49925W        W22251  22.674  27.811   2.746
49926W        W22252  31.099  39.782   2.833
49927W        W22253  36.591  33.410   3.688
49928W        W22254   7.291   6.368  13.365
49929W        W22255  37.128  34.494  10.714
49930W        W22256  23.138  36.073   1.170
49931W        W22257  35.665  12.342  10.742
49932W        W22258  34.819  36.877   4.556
49933W        W22259   2.236   9.295  10.399
49934W        W22260  14.151   2.387   1.427
49935W        W22261  30.942  24.421  14.808
49936W        W22262   2.125  43.484  14.495
49937W        W22263  10.806  17.588   2.621
49938W        W22264  15.237  25.978  12.938
49939W        W22265  38.958  34.478  13.439
49940W        W22266  23.026   7.927   3.867
49941W        W22267   3.191  27.092  14.835
49942W        W22268  34.552  32.936   5.727
49943W        W22269  40.234  39.451   2.361
49944W        W22270   7.029  11.815  12.635
49945W        W22271  17.222  28.250   9.967
49946W        W22272  29.585   5.818  10.959
49947W        W22273  16.853  30.868  12.602
49948W        W22274  39.359  35.507   4.741
49949W        W22275   2.496  18.961   3.640
49950W        W22276   5.605  36.768  13.367
49951W        W22277  28.137  38.877  12.602
49952W        W22278  12.717  33.875  11.662
49953W        W22279  14.799   1.438   3.137
49954W        W22280   1.485  43.387  12.929
49955W        W22281  15.203  15.263   3.148
49956W        W22282  37.350  41.955  13.417
49957W        W22283  16.264  44.401  12.491
49958W        W22284  21.630  44.982   0.933
49959W        W22285  38.630  10.218  14.846
49960W        W22286  14.656  44.482   4.220
49961W        W22287  29.999  36.267   0.919
49962W        W22288  16.089   4.472   1.606
49963W        W22289   0.323  22.345   1.682
49964W        W22290  38.108  35.955  12.059
49965W        W22291  26.164   6.000   4.652
49966W        W22292  20.031   5.775  10.413
49967W        W22293  27.178  37.802   4.133
49968W        W22294  16.638  37.146  12.089
49969W        W22295   6.270  20.202  13.008
49970W        W22296  11.394  38.447  11.499
49971W        W22297  38.100  21.565   0.762
49972W        W22298  29.541   6.383  10.126
49973W        W22299   3.211  17.522  11.466
49974W        W22300  14.127   2.960  13.694
49975W        W22301  44.240  38.667   1.249
49976W        W22302  39.678  41.751   2.101
49977W        W22303  39.305  22.586  11.955
49978W        W22304  19.648   2.346   4.705
49979W        W22305  30.536  12.122  10.556
49980W        W22306  43.326  33.629  13.400
49981W        W22307  44.224   7.283   2.390
49982W        W22308  24.101  31.408  11.396
49983W        W22309   9.147  22.033  14.671
49984W        W22310  37.952   1.369  12.966
49985W        W22311  28.589  34.868   0.755
49986W        W22312  26.069  38.109   1.841
49987W        W22313  15.098  37.116  11.094
49988W        W22314  24.864  10.558   5.073
49989W        W22315   3.016  20.047  14.523
49990W        W22316   3.437  39.270   4.994
49991W        W22317  32.143  22.160  13.985
49992W        W22318  24.847  13.274  14.506
49993W        W22319  19.066   7.228   1.822
49994W        W22320  16.714   8.046  13.171
49995W        W22321  15.331  17.210   1.306
49996W        W22322  25.551  44.232  14.981
49997W        W22323  24.101  27.083   4.493
49998W        W22324  25.940  30.755  11.592
49999W        W22325  31.481  36.291   1.675
50000W        W22326  16.756  41.546   4.133
50001W        W22327  22.209  22.993   4.632
50002W        W22328   4.900  41.635   0.799
50003W        W22329  40.018  24.030   4.387
50004W        W22330  27.946  37.651  12.005
50005W        W22331   0.855  35.491   2.156
50006W        W22332   9.416  35.562  14.471
50007W        W22333   9.636  19.968   3.304
50008W        W22334   3.197  44.860   3.643
50009W        W22335   2.274  25.848  13.890
50010W        W22336   5.196  39.097   4.121
50011W        W22337  15.069  17.284   0.374
50012W        W22338  34.948   9.049  12.345
50013W        W22339  43.047  36.509  12.367
50014W        W22340  42.883  26.632  11.946
50015W        W22341   5.681   1.998   3.215
50016W        W22342   2.388  24.540  10.339
50017W        W22343  14.182   4.335   1.201
50018W        W22344  18.342   7.457  11.200
50019W        W22345   4.649  22.897   0.457
50020W        W22346  33.939  39.982  12.465
50021W        W22347  38.344  25.747  11.927
50022W        W22348  11.635  12.803  14.028
50023W        W22349   5.723  29.525  11.148
50024W        W22350   6.802   0.240  14.999
50025W        W22351   2.481  43.438  14.093
50026W        W22352  14.550  24.117   1.397
50027W        W22353  43.407  39.853   0.923
50028W        W22354  23.827  35.042   0.274
50029W        W22355   8.640  43.431  13.255
50030W        W22356  40.246   9.381  13.851
50031W        W22357   5.360  12.706   2.158
50032W        W22358  17.834  36.568  10.680
50033W        W22359  14.851  30.953   0.055
50034W        W22360  21.560  20.398   0.041
50035W        W22361  30.486  27.715   1.181
50036W        W22362   0.480  33.012   2.049
50037W        W22363  26.639  19.370   3.254
50038W        W22364  10.684   3.792   1.308
50039W        W22365  33.586  27.740   1.847
50040W        W22366  35.360   8.963  13.950
50041W        W22367  24.659   7.103   4.310
50042W        W22368  21.064   4.871   1.428
50043W        W22369  33.854  43.407  12.576
50044W        W22370  32.155   4.358   1.965
50045W        W22371  18.044  44.488  14.094
50046W        W22372  14.077   0.370  13.965
50047W        W22373   6.937  37.907  14.746
50048W        W22374  23.462   8.282   4.913
50049W        W22375  14.343  31.867   2.681
50050W        W22376  28.233   4.265   3.286
50051W        W22377   0.809  27.968  11.403
50052W        W22378  21.614  38.376  13.509
50053W        W22379   0.948  30.339   5.018
50054W        W22380  30.679  13.103  12.911
50055W        W22381   0.964  29.261  14.079
50056W        W22382  11.200  10.787   0.721
50057W        W22383  21.763  17.599  14.907
50058W        W22384  20.591  34.104   1.986
50059W        W22385  11.612  21.710  13.406
50060W        W22386  36.153  11.329  12.056
50061W        W22387   0.462  28.439   1.939
50062W        W22388  40.751   1.652  10.988
50063W        W22389  22.503  38.910   3.521
50064W        W22390  25.036  34.892  10.683
50065W        W22391  44.371  43.056   3.674
50066W        W22392  11.895   6.933  14.507
50067W        W22393  21.047  41.852   4.025
50068W        W22394  33.409  42.740   2.950
50069W        W22395  11.323  40.420   2.626
50070W        W22396  32.895  36.669   0.790
50071W        W22397  34.785  42.683  11.573
50072W        W22398  42.983   3.290   4.989
50073W        W22399  35.426  19.796   3.350
50074W        W22400  38.436  39.558  10.854
50075W        W22401  12.469  10.641   0.248
50076W        W22402  26.426  17.641   0.763
50077W        W22403  40.721  41.198  10.831
50078W        W22404  38.535   6.214   0.698
50079W        W22405  31.895  11.638   0.936
50080W        W22406   5.390   5.751   1.371
50081W        W22407   9.382  22.324  13.802
50082W        W22408  40.670  26.463   1.346
50083W        W22409  20.178  11.125   3.365
50084W        W22410  23.817  33.025  11.226
50085W        W22411  33.023   6.487  14.894
50086W        W22412  32.443  23.862   2.105
50087W        W22413   0.411  28.586   2.465
50088W        W22414   2.304   8.999   4.589
50089W        W22415  19.626  22.986   1.931
50090W        W22416  30.556   5.164   1.663
50091W        W22417  41.476   1.929  11.995
50092W        W22418   9.939  12.399   3.765
50093W        W22419  43.107  44.280  13.483
50094W        W22420  29.754  24.487  12.726
50095W        W22421   7.274  40.421  12.870
50096W        W22422  32.873  17.293   4.084
50097W        W22423  38.149   5.872   1.766
50098W        W22424   4.436  42.010  12.064
50099W        W22425  35.577  11.335  14.866
50100W        W22426  17.112  41.080  13.748
50101W        W22427  27.587   0.739  14.698
50102W        W22428  17.355  18.917  13.442
50103W        W22429  38.069   2.007  12.152
50104W        W22430  34.780  33.280  11.447
50105W        W22431   9.545   8.554  13.482
50106W        W22432  31.897  39.042   1.950
50107W        W22433   5.347  37.356  11.669
50108W        W22434   2.296  18.555  10.656
50109W        W22435  18.613  24.588   0.807
50110W        W22436  31.094  36.686  14.989
50111W        W22437  10.619  21.830  13.319
50112W        W22438   6.780  28.020  11.574
50113W        W22439   9.303   2.240   5.004
50114W        W22440  31.500  26.936  11.508
50115W        W22441  35.594  31.616  12.955
50116W        W22442  40.953  20.755  10.983
50117W        W22443  28.109  44.021   3.131
50118W        W22444  31.796  28.154   5.155
50119W        W22445   5.343  33.561   3.919
50120W        W22446   9.475   7.468   1.880
50121W        W22447   2.070  17.773   3.561
50122W        W22448  31.006  17.556   2.812
50123W        W22449   3.396   8.821   4.977
50124W        W22450  40.892   9.390   2.434
50125W        W22451  10.821  17.481  13.441
50126W        W22452  43.137  10.694   1.429
50127W        W22453  35.980  10.673   0.314
50128W        W22454  19.205   2.653   1.544
50129W        W22455  15.190  22.301  12.509
50130W        W22456  31.263  10.191   1.200
50131W        W22457   4.355  32.160   0.438
50132W        W22458   0.387   2.892  13.261
50133W        W22459   0.919  30.573  13.808
50134W        W22460   3.945  34.589  10.700
50135W        W22461   5.261  21.594  13.945
50136W        W22462  10.768  42.914   2.313
50137W        W22463  23.642   4.009  12.176
50138W        W22464   8.854  19.190   1.781
50139W        W22465   5.212   2.203  12.891
50140W        W22466   0.312  33.626   0.368
50141W        W22467  22.869   3.020   2.162
50142W        W22468  23.682  18.173   4.065
50143W        W22469  21.182  40.087   2.966
50144W        W22470  38.868  13.801   4.185
50145W        W22471  34.664   8.403   0.385
50146W        W22472  18.140  13.068  11.180
50147W        W22473  31.425  34.442  11.180
50148W        W22474   6.474  23.675   0.414
50149W        W22475  39.776   8.846  11.615
50150W        W22476  34.346  19.573   4.229
50151W        W22477  30.587  43.696  13.393
50152W        W22478   8.712   0.879  11.206
50153W        W22479  42.309  44.804   1.569
50154W        W22480  33.593   9.324   0.467
50155W        W22481  42.389  37.956   2.358
50156W        W22482   0.345  10.386   3.788
50157W        W22483  39.045  18.190   0.725
50158W        W22484  35.561   7.673  10.828
50159W        W22485  26.590   2.849   0.879
50160W        W22486  31.513  30.739   5.037
50161W        W22487  34.899   2.381   1.684
50162W        W22488  23.802   7.151  13.317
50163W        W22489  17.598  36.904  14.903
50164W        W22490  41.510  30.960   4.642
50165W        W22491   0.546  37.180  11.871
50166W        W22492  11.063  14.283   3.749
50167W        W22493  27.345  14.940  11.613
50168W        W22494  11.329   8.594   3.351
50169W        W22495  20.182  10.553  12.517
50170W        W22496   6.590  37.790  11.063
50171W        W22497  29.596  23.191   2.680
50172W        W22498  13.155  43.204   2.929
50173W        W22499   5.688  29.550  14.820
50174W        W22500  25.754   1.394   2.240
50175W        W22501  27.908  44.498   3.234
50176W        W22502   7.636   6.699  14.420
50177W        W22503  42.304  41.018   3.745
50178W        W22504  22.592  22.220  10.885
50179W        W22505  15.718  27.604  12.493
50180W        W22506  33.965  36.817  12.563
50181W        W22507  23.978  14.295  12.699
50182W        W22508  25.678  35.875  13.503
50183W        W22509  17.531  23.050   1.362
50184W        W22510  44.948  27.645  10.415
50185W        W22511   0.451  33.478  13.520
50186W        W22512  31.084   5.961   4.130
50187W        W22513  15.132  16.154   0.138
50188W        W22514  26.467  31.431   0.874
50189W        W22515  43.230   9.747  14.794
50190W        W22516  24.772  20.690  12.428
50191W        W22517  24.680  35.129   1.758
50192W        W22518  30.731  25.069  10.462
50193W        W22519  42.797   6.634   3.262
50194W        W22520  12.569  20.275  13.093
50195W        W22521  28.632  34.616   2.687
50196W        W22522  39.063  32.948   0.891
50197W        W22523  40.016   3.251  10.771
50198W        W22524   7.610  24.402  11.973
50199W        W22525   3.756   4.365   3.852
50200W        W22526   2.804   8.685  11.029
50201W        W22527   4.758  33.530  10.473
50202W        W22528   0.877  43.871  11.212
50203W        W22529   6.092   4.766   3.273
50204W        W22530  28.254  38.689   3.246
50205W        W22531  42.846  35.424   0.534
50206W        W22532  16.547  11.737   2.862
50207W        W22533  37.578  18.358   4.675
50208W        W22534  14.695  39.569  13.960
50209W        W22535   4.439  26.230   3.228
50210W        W22536  14.754  25.626  11.060
50211W        W22537   3.903  28.910  12.489
50212W        W22538  25.132  24.620  11.541
50213W        W22539  23.572  35.025  13.462
50214W        W22540  44.596  10.583  11.921
50215W        W22541  30.823  18.761   0.348
50216W        W22542  11.779   0.795  14.243
50217W        W22543  12.234  34.903   3.657
50218W        W22544  13.286   5.339  13.396
50219W        W22545  30.637  20.174   2.121
50220W        W22546  22.959  13.306   2.773
50221W        W22547  19.692  25.183  11.086
50222W        W22548  10.439  28.410  11.532
50223W        W22549   2.185  37.556   0.938
50224W        W22550  44.820  39.801   0.854
50225W        W22551  20.219  30.837  12.156
50226W        W22552  43.527  29.530  12.195
50227W        W22553  15.325  36.854   0.550
50228W        W22554  44.020   5.758  12.455
50229W        W22555  38.967  22.164  13.511
50230W        W22556  26.980  21.607  12.403
50231W        W22557  37.069  30.496   0.888
50232W        W22558   3.513  25.469  11.566
50233W        W22559   0.435   3.630   3.395
50234W        W22560  15.332   2.841  11.671
50235W        W22561  38.113  26.995  11.064
50236W        W22562  11.717  18.807   4.864
50237W        W22563  17.029  25.171  11.323
50238W        W22564  28.590  38.501  10.605
50239W        W22565   8.858  32.232   2.479
50240W        W22566  22.013  30.721  14.928
50241W        W22567   8.857  31.548  12.779
50242W        W22568  25.934   4.268   1.670
50243W        W22569  11.472  20.020  14.344
50244W        W22570  16.154   4.922   0.146
50245W        W22571  16.547  29.162  12.897
50246W        W22572   1.727   8.615  11.921
50247W        W22573  21.225   0.039  13.838
50248W        W22574  22.241  32.163  14.471
50249W        W22575   2.172  21.799  10.435
50250W        W22576   3.642  31.026   1.918
50251W        W22577  23.665  14.808   4.260
50252W        W22578  32.271  32.100  10.132
50253W        W22579   3.444  39.397   2.873
50254W        W22580  24.078  19.645  11.957
50255W        W22581  13.835   1.707   0.743
50256W        W22582  44.899  41.848  11.082
50257W        W22583  44.219  13.231   4.922
50258W        W22584  17.795  24.305  13.318
50259W        W22585   6.829  30.856   3.115
50260W        W22586   0.299  16.596   0.468
50261W        W22587   1.974  35.204   0.550
50262W        W22588  37.457  25.379  10.582
50263W        W22589  40.512  27.754  11.140
50264W        W22590  13.857   7.869  14.403
50265W        W22591  33.061  18.913   0.662
50266W        W22592  31.060  38.985   1.308
50267W        W22593  43.783   5.934   1.695
50268W        W22594  29.723  14.585  14.031
50269W        W22595   3.188  38.804  13.043
50270W        W22596  31.970  39.456  14.906
50271W        W22597  18.728   7.946  10.548
50272W        W22598  38.763   3.249  12.475
50273W        W22599  38.952   3.919  10.677
50274W        W22600  31.108  16.038   0.469
50275W        W22601  15.107  27.986  11.953
50276W        W22602  44.277  13.403  11.353
50277W        W22603   0.264  25.189   1.227
50278W        W22604  31.132  12.488   2.702
50279W        W22605   4.680   4.864   2.899
50280W        W22606  42.801   7.144   3.316
50281W        W22607  27.143  39.695   3.757
50282W        W22608  11.676  10.259   9.898
50283W        W22609  19.496  10.294   4.317
50284W        W22610   2.428  12.118   2.280
50285W        W22611  16.942  42.790  10.996
50286W        W22612  14.599  28.432   3.372
50287W        W22613  28.985  28.160  10.230
50288W        W22614  44.498  28.411   2.302
50289W        W22615  18.523  24.197   2.365
50290W        W22616  18.076  22.576   2.104
50291W        W22617  33.057  21.596   1.689
50292W        W22618  13.190  10.978  14.926
50293W        W22619   6.432  36.338   1.110
50294W        W22620  12.741  42.746   2.249
50295W        W22621  31.825  27.078  14.834
50296W        W22622   5.531  14.511   2.791
50297W        W22623  14.125  39.967  14.281
50298W        W22624  19.015  24.007  12.996
50299W        W22625  11.815  35.581   9.694
50300W        W22626   3.539  12.858   1.769
50301W        W22627  10.129  10.758   1.917
50302W        W22628  22.046  17.722  13.522
50303W        W22629  39.202  13.337  12.366
50304W        W22630  16.113  36.064   3.131
50305W        W22631  40.076  37.284  10.944
50306W        W22632  10.618  40.426   4.312
50307W        W22633  22.362   1.257   3.323
50308W        W22634  26.773  19.254   4.167
50309W        W22635  38.411  44.184  13.549
50310W        W22636  38.823  23.918  13.841
50311W        W22637  44.245  26.602   0.378
50312W        W22638  43.963  29.682   2.622
50313W        W22639  15.684  15.220   1.476
50314W        W22640  43.050  18.680   3.308
50315W        W22641  23.850  33.792  13.768
50316W        W22642  14.272  43.908   4.606
50317W        W22643   7.236  27.234   1.765
50318W        W22644   1.267   8.196  13.936
50319W        W22645  37.938  33.460   4.229
50320W        W22646  20.785  35.137  11.166
50321W        W22647   2.839  39.667  11.539
50322W        W22648  38.332  30.632  11.113
50323W        W22649  18.203  34.401   0.806
50324W        W22650  41.328   6.238   2.275
50325W        W22651  10.537  44.950  12.629
50326W        W22652  36.387  31.791   3.280
50327W        W22653   1.569  33.650   0.350
50328W        W22654  31.514  44.652  13.006
50329W        W22655   2.252  20.707  12.091
50330W        W22656  37.357  19.279  12.879
50331W        W22657  38.888  18.333  12.604
50332W        W22658  30.914  31.117   3.918
50333W        W22659  19.665  20.519   0.776
50334W        W22660  42.829  32.690  11.025
50335W        W22661  31.669  25.843   2.209
50336W        W22662  43.747  15.677   0.771
50337W        W22663   7.194  36.162   2.848
50338W        W22664  16.249  16.907  14.370
50339W        W22665  32.612   5.914   0.285
50340W        W22666  31.399  19.124   1.937
50341W        W22667   4.151   0.442  12.052
50342W        W22668  21.202   2.472   4.885
50343W        W22669  10.299   9.240  14.699
50344W        W22670  31.716  21.845   2.251
50345W        W22671  38.765  30.533   2.368
50346W        W22672   1.338  30.826  14.541
50347W        W22673  10.331  44.269   1.361
50348W        W22674  43.787  43.355  11.112
50349W        W22675  40.399  12.373  12.956
50350W        W22676  30.477   8.529   4.175
50351W        W22677  27.440  36.435   0.258
50352W        W22678  34.115  21.533  12.447
50353W        W22679  18.148  18.532  11.510
50354W        W22680  34.384  25.413   1.249
50355W        W22681   4.263  35.309  14.770
50356W        W22682   2.877  23.871   0.280
50357W        W22683  38.318   7.329   1.376
50358W        W22684  12.652   4.127   4.732
50359W        W22685  32.458   3.305  14.253
50360W        W22686  13.847   4.800  13.059
50361W        W22687  24.283  23.483   1.846
50362W        W22688  21.010  25.115   3.431
50363W        W22689  39.540  10.835  11.428
50364W        W22690  40.828  15.893  11.045
50365W        W22691  11.416  39.047  10.332
50366W        W22692  10.599  29.584   0.255
50367W        W22693   0.975  41.414  10.656
50368W        W22694  29.845  39.876  13.418
50369W        W22695   5.974  29.965  14.070
50370W        W22696   6.401  28.074   2.207
50371W        W22697  44.874   1.282   2.267
50372W        W22698  36.653  24.427  12.929
50373W        W22699  43.954  19.221  11.614
50374W        W22700  36.819  23.059  13.748
50375W        W22701  23.549  43.510   2.182
50376W        W22702  11.274  42.965  12.828
50377W        W22703  12.081  20.358   3.025
50378W        W22704  35.025  40.444   0.508
50379W        W22705  23.042  36.405   4.980
50380W        W22706  42.045  22.407  12.334
50381W        W22707  17.001  44.280  11.998
50382W        W22708  33.593   4.730   0.391
50383W        W22709  14.003   8.244   3.614
50384W        W22710  21.697  30.758   4.753
50385W        W22711  31.495  26.953   0.876
50386W        W22712  11.389  24.472   9.723
50387W        W22713  18.035  38.531  12.798
50388W        W22714  10.023  30.975  11.042
50389W        W22715   1.188   8.281   1.625
50390W        W22716  38.274  10.183   4.912
50391W        W22717   6.026  26.109   3.251
50392W        W22718  31.058  44.416  13.082
50393W        W22719   7.806  34.830   2.138
50394W        W22720  27.640  22.068   1.347
50395W        W22721  11.787   8.304   4.541
50396W        W22722  39.583  22.556   0.845
50397W        W22723  14.571  28.495  14.363
50398W        W22724  26.694   5.426   0.404
50399W        W22725  24.621  20.017  13.145
50400W        W22726  40.004  21.966   1.794
50401W        W22727  34.497  35.020  12.331
50402W        W22728  31.334  26.079   1.001
50403W        W22729  10.385  41.935  11.488
50404W        W22730  18.735  12.144   2.185
50405W        W22731  16.706  12.620  11.958
50406W        W22732  38.648  16.904  13.151
50407W        W22733   4.528   2.732   4.156
50408W        W22734   0.741   1.208  11.087
50409W        W22735  14.815  24.099  14.092
50410W        W22736  33.054   1.366   0.815
50411W        W22737  34.655   5.695   0.830
50412W        W22738  20.822  19.756  13.963
50413W        W22739  30.684  38.513   2.090
50414W        W22740   8.440  24.682   1.152
50415W        W22741   1.576  31.415  10.682
50416W        W22742   0.018  12.970  14.613
50417W        W22743  39.388  16.664   0.393
50418W        W22744  17.762  41.910  12.203
50419W        W22745  19.057  38.296  12.827
50420W        W22746   6.392  16.761  14.054
50421W        W22747  11.674  19.511  10.198
50422W        W22748  29.474  12.352   4.517
50423W        W22749   9.160  18.818  12.532
50424W        W22750   7.178  22.122   0.227
50425W        W22751  17.399  24.116   3.087
50426W        W22752  33.853  31.466  14.457
50427W        W22753  17.125   2.697  12.023
50428W        W22754  27.592   3.822  11.005
50429W        W22755  18.245  29.273  13.530
50430W        W22756  18.522  11.141   1.379
50431W        W22757  36.825   4.793   1.485
50432W        W22758  34.168   6.998   1.350
50433W        W22759  31.026  14.374  13.938
50434W        W22760  17.630  32.493  10.676
50435W        W22761  25.994  41.832  14.052
50436W        W22762  27.122  41.470   1.480
50437W        W22763  14.139  37.666   0.420
50438W        W22764  36.833  13.737   1.822
50439W        W22765  33.987  32.909  12.434
50440W        W22766  38.869  15.308  11.142
50441W        W22767   8.163  11.243   2.826
50442W        W22768   9.820  43.073  12.242
50443W        W22769  35.057  38.647   2.380
50444W        W22770   0.770  35.199   3.204
50445W        W22771  42.864   5.017  12.029
50446W        W22772  44.780  24.000   2.740
50447W        W22773  15.348   6.842  11.069
50448W        W22774   4.482   1.169  12.604
50449W        W22775  31.933  21.239  13.379
50450W        W22776  16.323  44.720  14.118
50451W        W22777  28.156  12.579   4.521
50452W        W22778   2.675  17.692   2.728
50453W        W22779  11.840  32.691   2.501
50454W        W22780   3.481   3.409  12.519
50455W        W22781  12.707  17.285   4.623
50456W        W22782  25.607  22.302   3.611
50457W        W22783  36.339  30.132   3.990
50458W        W22784  24.271  38.915  13.507
50459W        W22785  37.918  37.299   3.453
50460W        W22786   8.105  21.232  13.020
50461W        W22787  29.667   9.518   0.836
50462W        W22788  27.769  21.130   3.182
50463W        W22789  29.732  21.016   3.759
50464W        W22790  13.451  10.107   4.073
50465W        W22791  34.428  12.793  10.614
50466W        W22792  14.073   8.200  12.274
50467W        W22793  17.584  44.430   2.785
50468W        W22794  30.434  26.612  13.902
50469W        W22795  27.462  22.057  14.972
50470W        W22796  34.599  38.575   2.142
50471W        W22797  40.298  26.037   4.462
50472W        W22798  23.596  25.456   2.709
50473W        W22799  41.926   4.463   3.281
50474W        W22800   3.657   1.540  13.907
50475W        W22801  43.338  39.748   0.423
50476W        W22802  29.619  17.239  11.096
50477W        W22803   4.675  11.818   3.317
50478W        W22804  29.677  15.233  14.532
50479W        W22805  29.098  24.222  10.590
50480W        W22806  19.710  37.319  13.929
50481W        W22807  18.653   1.455  13.113
50482W        W22808   4.225  39.266   4.377
50483W        W22809  36.382  11.102  13.079
50484W        W22810   0.599  30.568  12.491
50485W        W22811   5.817  33.528   3.704
50486W        W22812  17.321  28.218   3.168
50487W        W22813   3.252   4.473   5.105
50488W        W22814  34.592  13.131   0.749
50489W        W22815  22.512  16.428  11.808
50490W        W22816   2.151  31.561   4.722
50491W        W22817   5.182   3.223   1.690
50492W        W22818   5.432   1.994   3.696
50493W        W22819  34.059  19.055   3.930
50494W        W22820  34.448   7.474   3.828
50495W        W22821  16.244  37.610   3.340
50496W        W22822   7.029  37.972  10.811
50497W        W22823  35.731  26.969  11.168
50498W        W22824  17.705   0.549  11.625
50499W        W22825   2.087  11.595   1.430
50500W        W22826  25.125  12.287   1.342
50501W        W22827   1.457  42.981  12.618
50502W        W22828   6.223   4.523  10.957
50503W        W22829  25.192  22.564  12.920
50504W        W22830  21.995  43.903  11.667
50505W        W22831  41.543   6.765   0.320
50506W        W22832  16.227  40.760  12.191
50507W        W22833  25.237   7.567   4.676
50508W        W22834  21.494  35.935  11.535
50509W        W22835   9.498  12.282  14.550
50510W        W22836   1.082  14.116   2.783
50511W        W22837  19.203  29.427   1.413
50512W        W22838  22.990  21.075   4.141
50513W        W22839  36.855  40.937   1.661
50514W        W22840  15.706  27.578  10.736
50515W        W22841   4.843  24.121  14.787
50516W        W22842  33.554  42.546  12.381
50517W        W22843   9.940  44.265  12.139
50518W        W22844  40.820  21.873  12.924
50519W        W22845  33.451  14.215   0.836
50520W        W22846  13.178  19.242  13.944
50521W        W22847  11.394  39.043  10.860
50522W        W22848  22.525  16.241  10.223
50523W        W22849  34.750   0.021   3.660
50524W        W22850  35.038  20.594   3.249
50525W        W22851  30.243  32.582   3.177
50526W        W22852  27.466  42.973  13.002
50527W        W22853   7.165  32.701   4.078
50528W        W22854  21.667  31.110  10.831
50529W        W22855  16.081  38.389   0.118
50530W        W22856  31.464   9.379  14.734
50531W        W22857  33.066   0.287   4.862
50532W        W22858  23.523  17.528  11.585
50533W        W22859  42.316  11.543   1.386
50534W        W22860  30.376  25.865   4.257
50535W        W22861  35.423  37.326  13.949
50536W        W22862  33.049  35.427  14.252
50537W        W22863   1.243  42.040  12.178
50538W        W22864  32.990   7.087  14.038
50539W        W22865  41.007  25.438   1.647
50540W        W22866  14.142  23.104  14.813
50541W        W22867   7.346  18.296   4.344
50542W        W22868   2.441  16.074  11.011
50543W        W22869  38.103  39.559   2.717
50544W        W22870   6.769  38.739  14.150
50545W        W22871  17.378  25.670   3.812
50546W        W22872  43.051   2.488   3.571
50547W        W22873   5.789   7.804  14.520
50548W        W22874  16.114   6.681   3.198
50549W        W22875   2.724  17.279  11.602
50550W        W22876  25.735  43.921  13.266
50551W        W22877  22.592   0.397   1.869
50552W        W22878  15.625  19.867   4.725
50553W        W22879   9.004  14.697  11.563
50554W        W22880  19.731  26.881   3.649
50555W        W22881  38.158   1.247   3.271
50556W        W22882   4.747  37.053  11.090
50557W        W22883  25.178   7.431   0.914
50558W        W22884  38.513  35.367   0.933
50559W        W22885   2.468   8.913  10.738
50560W        W22886   4.117   2.803   5.022
50561W        W22887  41.408   9.848  13.110
50562W        W22888  32.370  40.050  14.878
50563W        W22889  26.615  23.716   3.712
50564W        W22890  16.062  24.702  13.028
50565W        W22891  30.015   2.799  11.178
50566W        W22892  37.480  37.646  10.757
50567W        W22893  19.159  19.954  13.867
50568W        W22894   8.421  11.418   4.168
50569W        W22895  24.497  18.678   3.218
50570W        W22896  34.395   4.825   1.941
50571W        W22897  34.838  25.444  12.510
50572W        W22898  20.713  13.878   1.428
50573W        W22899  44.468  33.541  13.552
50574W        W22900  18.620   6.302  11.991
50575W        W22901  21.068   7.740   4.342
50576W        W22902  14.171  12.625   2.797
50577W        W22903  18.073  28.265  14.429
50578W        W22904  18.044  27.027   4.295
50579W        W22905  26.531  30.053  11.645
50580W        W22906  16.619   2.352  14.587
50581W        W22907  30.349   0.886  12.362
50582W        W22908   5.350  22.527  10.860
50583W        W22909  18.343  20.130   0.443
50584W        W22910  41.460   7.716   1.276
50585W        W22911  31.133  33.991  11.275
50586W        W22912  14.262  14.357   1.356
50587W        W22913  23.206  12.096   2.240
50588W        W22914   1.426  25.484   2.571
50589W        W22915  25.946  30.659   0.017
50590W        W22916  32.780   1.382  12.797
50591W        W22917  16.816   7.018   2.356
50592W        W22918  18.515  34.531  13.654
50593W        W22919   1.802  15.773   5.060
50594W        W22920  17.844  10.818   4.137
50595W        W22921  16.690  31.452  10.654
50596W        W22922  34.907  29.067   0.135
50597W        W22923  24.181  42.381  11.441
50598W        W22924   7.396  33.643   3.808
50599W        W22925   5.240   1.023  11.444
50600W        W22926   8.037   8.191   4.358
50601W        W22927  37.373  10.046  10.225
50602W        W22928  16.897   2.673   4.204
50603W        W22929  30.950  27.953   1.333
50604W        W22930  28.903  39.035   3.777
50605W        W22931  35.813  35.759   2.794
50606W        W22932  35.414  35.611  12.541
50607W        W22933  44.052   1.861   4.871
50608W        W22934   3.829   4.276  12.418
50609W        W22935  21.986  27.069   0.303
50610W        W22936  36.555   1.723  11.145
50611W        W22937  39.657   7.174  11.007
50612W        W22938   4.745  12.395  10.794
50613W        W22939   7.298  21.337   5.057
50614W        W22940   3.821  14.306   3.328
50615W        W22941   0.255  14.953   1.424
50616W        W22942   4.490  13.798   0.367
50617W        W22943  35.035  35.872  13.304
50618W        W22944  13.459  22.566  11.687
50619W        W22945  30.228  38.818   2.260
50620W        W22946  44.307  44.208  11.113
50621W        W22947   3.788  43.930  13.783
50622W        W22948  20.001  38.675  12.082
50623W        W22949  34.636   5.753  10.659
50624W        W22950  13.669   9.460  13.477
50625W        W22951   5.334   0.252  10.700
50626W        W22952   4.293  16.673  10.891
50627W        W22953  30.276  39.559   3.919
50628W        W22954  27.998  24.936  12.104
50629W        W22955  26.147  18.478   1.707
50630W        W22956  25.953  30.286   0.373
50631W        W22957  32.222  43.055   4.100
50632W        W22958  14.667  11.164   4.106
50633W        W22959  15.878  38.468  14.654
50634W        W22960  21.704   6.783  12.610
50635W        W22961  15.761  22.225  12.979
50636W        W22962   5.846  42.522   0.411
50637W        W22963  14.528  42.365   1.330
50638W        W22964  14.340  31.591   1.666
50639W        W22965  12.362  37.098   3.025
50640W        W22966   9.730  38.945   2.357
50641W        W22967   2.284  36.069  11.139
50642W        W22968  25.464   9.617   0.750
50643W        W22969   4.697  12.612  12.437
50644W        W22970  30.050   2.210  12.480
50645W        W22971  25.956  13.698  10.705
50646W        W22972   4.150  43.017   2.264
50647W        W22973   5.230  37.350  12.530
50648W        W22974  16.059  18.817  11.566
50649W        W22975  35.407  22.043  11.240
50650W        W22976  33.494  39.386   3.280
50651W        W22977  35.204  42.343  11.522
50652W        W22978  29.002  11.931   1.453
50653W        W22979   2.935   2.952  12.636
50654W        W22980   7.386  30.168  13.657
50655W        W22981  12.203   2.631  13.307
50656W        W22982   8.103  34.375   4.129
50657W        W22983  29.580  24.495   4.435
50658W        W22984  11.264  42.111   0.366
50659W        W22985  25.640  24.195  10.654
50660W        W22986  33.793   6.745  13.505
50661W        W22987  10.778  43.702  14.805
50662W        W22988  41.547  18.981  11.588
50663W        W22989   8.350  20.169  13.845
50664W        W22990  42.805  37.407  14.248
50665W        W22991  29.728  40.882  13.383
50666W        W22992  13.806  12.039  12.929
50667W        W22993   7.914  28.683  12.964
50668W        W22994   2.443   0.109   3.310
50669W        W22995   9.061  39.746   1.138
50670W        W22996   7.145  13.344  11.135
50671W        W22997  27.535  35.205  11.435
50672W        W22998   9.779  22.281  12.457
50673W        W22999  27.336  35.283   5.100
50674W        W23000  44.928  35.184  11.166
50675W        W23001   0.802   1.111  14.304
50676W        W23002  22.415  41.836   2.939
50677W        W23003  14.612  33.392   2.445
50678W        W23004   0.326  29.946   0.962
50679W        W23005  10.751   9.915  13.405
50680W        W23006  33.524   2.227  11.082
50681W        W23007  28.199  17.055  13.765
50682W        W23008  17.561  11.389  12.490
50683W        W23009  37.332  20.759   3.608
50684W        W23010  29.363  19.536  14.785
50685W        W23011  23.458  39.531   2.651
50686W        W23012  41.937   8.260   2.228
50687W        W23013   1.354  12.370  14.892
50688W        W23014  18.648  26.863  13.359
50689W        W23015  14.539   2.372  12.912
50690W        W23016   3.397   5.135  10.652
50691W        W23017   6.757  26.313   4.417
50692W        W23018  44.526  44.329   1.595
50693W        W23019  16.599  33.128  12.903
50694W        W23020  21.486  29.379   0.823
50695W        W23021  11.108  21.940  14.224
50696W        W23022  31.187   9.244   0.524
50697W        W23023  26.749  40.472   4.188
50698W        W23024  13.615  17.330   4.626
50699W        W23025  43.290  13.287  14.042
50700W        W23026  29.469  13.874  12.475
50701W        W23027  44.886   2.956  12.844
50702W        W23028  33.919  41.024  11.676
50703W        W23029  40.094  38.835  13.437
50704W        W23030   2.386  12.039  12.995
50705W        W23031  15.692  13.964   2.765
50706W        W23032  30.309  15.367   3.692
50707W        W23033   2.399  44.825  12.411
50708W        W23034  14.683  39.623   3.299
50709W        W23035   9.363  31.557  12.667
50710W        W23036  32.929  36.085  11.874
50711W        W23037   9.238  40.454   3.429
50712W        W23038  27.490  14.280   1.633
50713W        W23039   8.185  14.196  14.782
50714W        W23040  10.283  26.384  12.490
50715W        W23041  33.980   8.540  14.353
50716W        W23042  23.577   5.144   1.417
50717W        W23043   3.655  13.021   4.989
50718W        W23044  23.642  14.170  10.417
50719W        W23045  34.313  30.917   1.899
50720W        W23046  17.090  11.211   2.307
50721W        W23047  38.913  14.855  14.810
50722W        W23048  17.099   9.897   1.750
50723W        W23049  15.251  13.275  14.452
50724W        W23050   1.738  33.746   2.378
50725W        W23051  19.541  33.820   1.016
50726W        W23052  35.383  16.780   4.111
50727W        W23053   1.386  17.317   4.198
50728W        W23054   6.740  22.238  10.619
50729W        W23055  31.125   4.678  14.297
50730W        W23056  12.946   2.325  12.172
50731W        W23057  12.397  42.333   4.503
50732W        W23058   4.391  21.654  11.385
50733W        W23059  15.400  41.953  11.950
50734W        W23060  44.199  37.435  14.149
50735W        W23061  23.891   8.328   4.592
50736W        W23062   4.991  40.870   2.203
50737W        W23063  35.406   1.630   3.691
50738W        W23064   7.839  10.674   0.214
50739W        W23065  36.532  38.007  14.956
50740W        W23066  31.437  32.461   2.967
50741W        W23067  42.584  17.253   3.196
50742W        W23068  40.655   4.495  11.209
50743W        W23069  37.047  36.130  13.912
50744W        W23070  44.341  10.580   4.537
50745W        W23071  10.278  43.822   0.498
50746W        W23072  12.649   7.906  11.593
50747W        W23073   5.049  12.570   3.620
50748W        W23074   1.826  32.684   3.653
50749W        W23075   8.656   7.649   4.561
50750W        W23076  33.270  24.003   0.376
50751W        W23077  32.188  41.972   1.476
50752W        W23078  41.017  38.868   0.341
50753W        W23079  42.402  11.099   0.454
50754W        W23080  11.218  13.050   3.376
50755W        W23081  21.966   4.231   0.958
50756W        W23082   8.376  40.987   4.597
50757W        W23083  18.978  32.210  13.970
50758W        W23084  16.252  17.006   4.250
50759W        W23085  21.062  19.816   4.183
50760W        W23086  26.349  28.231   2.275
50761W        W23087  22.534  23.865  11.093
50762W        W23088  15.898  29.301   1.219
50763W        W23089   9.787  14.735  12.698
50764W        W23090  23.256  30.574  14.495
50765W        W23091  43.722  35.476   2.639
50766W        W23092  36.199  21.966  14.498
50767W        W23093   9.092   4.961   4.102
50768W        W23094  13.100   7.157  13.416
50769W        W23095  22.182  29.689  13.429
50770W        W23096   4.876  28.791  10.090
50771W        W23097  39.591  14.621  14.571
50772W        W23098  26.523  35.590  13.996
50773W        W23099  19.159   7.938   0.253
50774W        W23100   0.925   8.597  13.030
50775W        W23101  42.632  44.821   1.074
50776W        W23102  19.112  13.767  12.302
50777W        W23103  29.933   3.832  12.461
50778W        W23104   1.978  19.048  11.594
50779W        W23105  33.556  17.244  13.969
50780W        W23106  23.122  26.648   0.828
50781W        W23107  12.617   7.235   0.997
50782W        W23108   5.735  10.829   1.104
50783W        W23109  10.028  37.289  14.003
50784W        W23110   7.146  26.689  12.810
50785W        W23111  39.215  34.240   3.174
50786W        W23112   8.058  25.168  14.965
50787W        W23113  19.451   5.453  11.522
50788W        W23114  33.004  20.662  14.862
50789W        W23115  42.922   9.176   3.864
50790W        W23116  28.603  20.114   1.308
50791W        W23117  44.027  34.143   1.370
50792W        W23118   6.897  16.561  11.473
50793W        W23119   0.919  15.702  11.294
50794W        W23120   5.765  42.268   3.628
50795W        W23121  14.197  36.030   0.504
50796W        W23122  31.732  29.039  11.915
50797W        W23123  28.002  37.585   0.015
50798W        W23124   2.948   1.134   1.472
50799W        W23125   4.313   6.742  13.508
50800W        W23126  39.845  32.656  13.077
50801W        W23127  12.160  12.682  13.864
50802W        W23128  39.797  21.787  10.468
50803W        W23129  40.599   7.957  12.521
50804W        W23130  21.645  21.161  10.488
50805W        W23131   1.227  20.181  12.870
50806W        W23132  24.139  20.188  14.968
50807W        W23133  17.249  21.701   4.562
50808W        W23134  18.285  18.291   1.184
50809W        W23135  20.907  20.576  13.566
50810W        W23136  23.081  42.550  11.208
50811W        W23137  25.454  38.112  12.988
50812W        W23138  15.481  39.686  13.550
50813W        W23139  36.413  20.086   4.739
50814W        W23140  36.912  27.593   1.737
50815W        W23141  25.405  26.785   1.883
50816W        W23142  16.562  21.301  12.541
50817W        W23143  37.890  26.759  10.673
50818W        W23144  11.510   7.477  10.142
50819W        W23145   8.483   3.374  12.435
50820W        W23146  35.659  25.769   1.653
50821W        W23147  15.638  12.420  11.157
50822W        W23148  18.906   7.276   1.323
50823W        W23149  40.244  34.454   3.104
50824W        W23150  15.270  11.701   0.542
50825W        W23151  36.883  41.988   3.866
50826W        W23152  35.231  27.106  12.484
50827W        W23153  39.011  34.560   0.798
50828W        W23154  10.315  39.211   3.119
50829W        W23155  43.929  43.610  12.510
50830W        W23156  36.361  35.912  13.498
50831W        W23157   9.124   5.864  11.576
50832W        W23158   9.881   9.899  11.411
50833W        W23159  41.322  39.078   1.348
50834W        W23160  38.497  16.306   0.279
50835W        W23161  12.539  16.270   0.997
50836W        W23162  33.497  35.985  11.643
50837W        W23163  41.579  14.817   1.631
50838W        W23164  11.247  27.124   0.953
50839W        W23165  29.764  41.361   2.572
50840W        W23166  12.892   8.772  12.096
50841W        W23167  29.131  39.650   2.176
50842W        W23168  38.562  40.839  13.915
50843W        W23169  25.128  44.431   3.684
50844W        W23170   9.385  42.017  11.643
50845W        W23171  13.135  35.486   2.805
50846W        W23172  27.870  43.960  10.759
50847W        W23173  36.664   9.826  13.076
50848W        W23174  11.722   6.880   1.368
50849W        W23175  10.233  32.245  11.531
50850W        W23176  37.355  14.548   0.546
50851W        W23177  13.725  31.132   3.668
50852W        W23178   8.594  12.687  13.893
50853W        W23179  44.109  19.826  13.389
50854W        W23180  32.031   1.973  12.118
50855W        W23181  43.923  19.149  10.643
50856W        W23182  36.552  29.088  14.329
50857W        W23183  38.340  32.911  11.365
50858W        W23184   6.230  10.665   1.297
50859W        W23185  15.056   9.182  11.679
50860W        W23186  31.401  29.284   4.160
50861W        W23187  44.445  37.925   4.311
50862W        W23188  10.768  12.040  13.022
50863W        W23189  19.750  12.178   2.726
50864W        W23190  10.440  15.622  14.130
50865W        W23191   6.416   8.785  10.638
50866W        W23192  36.599  27.738  12.486
50867W        W23193  23.135  31.909  13.902
50868W        W23194   5.436   1.137   4.255
50869W        W23195   1.954  34.398  11.485
50870W        W23196   8.507  21.183  11.980
50871W        W23197  15.240  13.574   4.504
50872W        W23198  35.946   9.427   3.624
50873W        W23199  31.229  40.486   2.285
50874W        W23200  10.022  29.560   3.384
50875W        W23201   2.663  42.492  12.895
50876W        W23202  19.246   1.990  13.504
50877W        W23203  19.671  20.709  12.516
50878W        W23204  35.855   5.445  11.686
50879W        W23205   7.143  16.977  11.648
50880W        W23206  33.439  20.014   3.120
50881W        W23207  30.141  17.458   2.272
50882W        W23208  39.308  25.973  14.894
50883W        W23209  24.090   1.239  14.014
50884W        W23210  29.083  41.820   2.649
50885W        W23211  35.452  33.940  12.795
50886W        W23212  25.928  23.628  12.763
50887W        W23213  36.647  25.135   2.594
50888W        W23214   4.441  21.564  11.891
50889W        W23215   9.063  44.559  14.010
50890W        W23216  17.381  21.674  12.323
50891W        W23217  42.131   5.045   1.246
50892W        W23218  31.147  18.197  14.838
50893W        W23219   2.098  19.167  13.440
50894W        W23220  42.272  30.202  12.527
50895W        W23221  11.297  28.679  13.771
50896W        W23222  30.417  44.899  11.267
50897W        W23223  12.853  36.360  14.800
50898W        W23224  40.052  41.543   4.129
50899W        W23225  14.667  22.313  13.793
50900W        W23226  38.849  25.609  11.187
50901W        W23227  15.701  43.371  12.183
50902W        W23228  18.879   8.419  12.109
50903W        W23229  39.530  10.787  12.864
50904W        W23230   5.671  33.326  11.474
50905W        W23231   7.176   3.872   0.510
50906W        W23232   9.782  43.888  13.080
50907W        W23233   7.339  33.857  14.437
50908W        W23234  44.066  29.015   1.414
50909W        W23235  37.056  20.043  11.203
50910W        W23236   2.443  32.620  14.336
50911W        W23237  10.932   3.051  10.791
50912W        W23238   1.178  34.041   2.323
50913W        W23239  21.458  36.376   4.700
50914W        W23240  33.305  10.178  10.685
50915W        W23241   3.985  22.289   0.367
50916W        W23242  17.761  24.493   1.412
50917W        W23243  11.276  39.409   2.700
50918W        W23244  39.743  17.333   3.693
50919W        W23245  29.606  39.593  14.385
50920W        W23246  35.489   0.867  10.967
50921W        W23247  30.508  30.028   0.673
50922W        W23248   8.855  38.805  13.433
50923W        W23249  36.896   1.680  11.541
50924W        W23250   9.447  23.292   0.764
50925W        W23251  24.525  43.559   4.719
50926W        W23252  40.374  20.743   4.931
50927W        W23253  44.731   6.803   2.257
50928W        W23254  11.899  30.139   2.403
50929W        W23255   0.890  19.730  10.808
50930W        W23256   2.988  40.351  12.891
50931W        W23257  39.893  19.090   1.660
50932W        W23258  39.060   5.329  11.667
50933W        W23259  19.330  37.596   0.445
50934W        W23260  43.903   9.321   1.367
50935W        W23261  17.671   7.980   4.216
50936W        W23262   4.855   2.777   0.962
50937W        W23263   4.446  20.842  14.051
50938W        W23264   2.374   1.694  13.563
50939W        W23265  33.769  17.759   2.249
50940W        W23266   1.958  23.486  13.853
50941W        W23267  12.975  39.396   0.219
50942W        W23268   1.436  28.255   0.627
50943W        W23269  25.190  11.886  14.294
50944W        W23270  38.851   8.315   3.575
50945W        W23271  20.225  12.733   3.300
50946W        W23272   2.404  12.782   0.406
50947W        W23273  34.168  44.722   1.703
50948W        W23274  22.421  37.600   0.902
50949W        W23275  43.687  38.105   2.711
50950W        W23276  12.610  41.008   2.153
50951W        W23277   4.428  35.625   4.831
50952W        W23278   3.885  44.250   3.092
50953W        W23279   3.770  20.897   3.158
50954W        W23280  36.449  30.833   1.769
50955W        W23281  36.585  16.106  14.398
50956W        W23282  32.751   4.641  11.325
50957W        W23283  13.801  25.302  11.939
50958W        W23284  32.447  30.415   9.989
50959W        W23285  36.599  10.775   2.973
50960W        W23286   8.239   5.359  14.751
50961W        W23287  35.373   8.189   3.680
50962W        W23288   2.198  44.957   0.464
50963W        W23289  31.468  34.206   3.184
50964W        W23290  32.470   2.424   3.831
50965W        W23291  29.246  28.931  10.055
50966W        W23292   7.202  44.916  14.926
50967W        W23293  26.115   6.757  10.546
50968W        W23294  11.344   9.785   3.154
50969W        W23295  22.247  33.870   0.332
50970W        W23296  13.576   6.634  11.563
50971W        W23297  34.916   7.329   3.608
50972W        W23298  36.153   5.338   4.043
50973W        W23299  26.498  21.528  12.653
50974W        W23300   6.113  29.057   4.205
50975W        W23301  24.047  19.969   3.293
50976W        W23302  40.796  10.366   1.365
50977W        W23303  38.391  15.175   3.208
50978W        W23304  24.718   5.937  13.013
50979W        W23305   4.380   3.995   4.599
50980W        W23306  30.420  36.088  12.033
50981W        W23307  39.151  23.530  11.988
50982W        W23308   9.217   4.119  12.094
50983W        W23309   1.775  40.779  14.512
50984W        W23310  31.953  37.443  11.911
50985W        W23311   7.935  22.582  13.486
50986W        W23312  14.404  38.968  11.522
50987W        W23313  18.781  10.211  10.197
50988W        W23314   2.498  42.626   2.823
50989W        W23315  33.550  23.080  12.372
50990W        W23316  36.527  24.316  11.164
50991W        W23317  33.502  15.796   5.121
50992W        W23318  17.564   3.714   1.340
50993W        W23319  44.950  17.754   4.036
50994W        W23320  30.583   5.481  11.986
50995W        W23321  44.792  13.687   3.670
50996W        W23322  28.626  16.828  11.012
50997W        W23323  13.435   1.868  13.105
50998W        W23324  22.091  28.006   0.234
50999W        W23325  14.269  18.857  12.511
51000W        W23326  42.019  18.734  12.811
51001W        W23327  14.575  29.453   1.413
51002W        W23328  26.879  42.887   2.332
51003W        W23329  27.540  28.395   2.384
51004W        W23330  12.700  36.354  10.203
51005W        W23331  29.636  11.175   1.187
51006W        W23332  20.264   7.406  13.972
51007W        W23333   9.656  22.206  14.245
51008W        W23334  44.252  36.032  11.686
51009W        W23335  29.386  22.214   4.192
51010W        W23336  30.422  24.620  10.593
51011W        W23337  32.996   8.467  11.131
51012W        W23338  19.803  42.074   2.903
51013W        W23339  15.354  13.586   1.176
51014W        W23340  19.933   0.330  13.328
51015W        W23341  25.371   0.219  12.005
51016W        W23342  38.071  26.183  11.515
51017W        W23343   9.269   3.753   0.930
51018W        W23344  19.199  33.083  13.916
51019W        W23345   4.352  22.174   4.755
51020W        W23346   1.644  18.959   1.361
51021W        W23347  17.016  28.157  10.529
51022W        W23348  39.908  27.774  10.654
51023W        W23349   8.776  43.545  10.988
51024W        W23350   9.583  31.713  14.431
51025W        W23351   9.945  16.957  13.224
51026W        W23352  28.253  26.015   0.166
51027W        W23353  34.640  13.537   3.286
51028W        W23354  37.120  29.225  11.106
51029W        W23355  38.386   2.288  11.142
51030W        W23356  15.713  26.092   0.541
51031W        W23357   9.917   7.924  11.034
51032W        W23358   3.954  40.311  13.621
51033W        W23359  18.643  10.473  14.819
51034W        W23360   3.360  40.841  13.514
51035W        W23361   0.504   8.773  12.806
51036W        W23362   6.353  41.258   4.224
51037W        W23363   2.001  18.018  12.643
51038W        W23364  42.728   7.652  10.946
51039W        W23365  21.447  31.514   4.102
51040W        W23366   8.371  27.107  12.451
51041W        W23367  11.337  14.262   4.210
51042W        W23368  33.549  13.732   0.683
51043W        W23369   1.971  43.528  12.989
51044W        W23370  26.374  11.758   0.901
51045W        W23371   8.953   1.434  11.841
51046W        W23372  33.892  20.009   5.056
51047W        W23373   2.162  16.763  12.816
51048W        W23374   1.212  43.860  13.910
51049W        W23375  12.189  42.116   2.657
51050W        W23376  30.545  35.022   3.029
51051W        W23377   0.758  34.446  11.217
51052W        W23378  29.288  27.691   1.274
51053W        W23379   2.863  11.201  11.190
51054W        W23380  41.558  42.557  12.365
51055W        W23381   8.238   6.309  12.831
51056W        W23382   1.513  44.440   1.487
51057W        W23383  26.873  28.616   4.190
51058W        W23384   1.831  30.585   4.515
51059W        W23385  23.645  33.562  10.587
51060W        W23386  10.860   8.577  11.177
51061W        W23387   0.997  36.798   2.215
51062W        W23388  38.715   9.938   4.170
51063W        W23389  42.298  26.642  14.766
51064W        W23390  12.342   4.352   2.922
51065W        W23391   0.500  33.094   2.568
51066W        W23392  36.597  38.295   2.266
51067W        W23393  27.004  30.154   2.941
51068W        W23394  24.438  18.156   4.762
51069W        W23395  44.219  19.665   4.211
51070W        W23396  22.030  28.672   2.543
51071W        W23397  12.066   0.081   4.330
51072W        W23398  42.539  39.881  11.140
51073W        W23399   7.854  28.417   0.729
51074W        W23400  26.495   2.426   2.149
51075W        W23401  34.788  23.555   4.463
51076W        W23402  36.115  35.352   3.752
51077W        W23403  18.159  14.393  14.796
51078W        W23404   4.238  18.216   2.869
51079W        W23405  23.586  40.014  12.100
51080W        W23406  11.002  12.618  12.121
51081W        W23407   9.980  19.027  12.193
51082W        W23408  19.653  18.367  14.972
51083W        W23409  21.698   0.329   3.709
51084W        W23410  36.377  42.784  13.464
51085W        W23411  40.116  16.680   1.541
51086W        W23412  18.258  26.869  12.060
51087W        W23413  33.222  22.685  13.075
51088W        W23414  17.688  38.488  10.546
51089W        W23415  39.914  34.543   0.798
51090W        W23416  14.138  35.385  14.795
51091W        W23417  39.750  33.554  12.931
51092W        W23418  42.275  35.505  11.441
51093W        W23419  22.538  44.057  14.979
51094W        W23420  32.343  11.254   4.592
51095W        W23421   0.741  41.137   0.067
51096W        W23422  16.758  10.755   0.028
51097W        W23423   4.677  20.724   2.384
51098W        W23424  14.576  44.158   2.830
51099W        W23425  40.553  23.307   4.164
51100W        W23426  16.139   4.458   4.040
51101W        W23427   0.411  28.426  14.048
51102W        W23428  13.047   0.294   4.268
51103W        W23429  12.923  16.623   2.292
51104W        W23430   7.330   1.397  11.594
51105W        W23431  12.846   3.332  12.109
51106W        W23432   1.002   0.860   0.059
51107W        W23433  15.597  15.070  11.683
51108W        W23434  28.398  40.051  13.040
51109W        W23435   2.799  27.573  13.985
51110W        W23436  37.837  21.474  11.868
51111W        W23437   0.313   0.763  10.666
51112W        W23438  30.494  13.628  12.109
51113W        W23439  27.212  28.773  12.529
51114W        W23440  24.522  10.933  11.231
51115W        W23441  10.563  13.213   5.145
51116W        W23442  36.455   7.404   2.420
51117W        W23443   2.982  36.404   1.277
51118W        W23444  18.634  40.769  11.211
51119W        W23445  21.209  32.912  14.881
51120W        W23446  11.846   2.157   0.887
51121W        W23447  28.450  21.639   0.896
51122W        W23448   0.235   1.904  14.297
51123W        W23449   4.241  32.522  10.778
51124W        W23450  39.915  14.995  14.931
51125W        W23451  18.052  20.852  11.173
51126W        W23452   1.759   3.279  12.025
51127W        W23453  13.217   0.438  12.964
51128W        W23454  32.432  36.428   0.818
51129W        W23455   3.072   5.734   3.809
51130W        W23456  38.840  33.635  14.827
51131W        W23457   6.366  28.362   1.772
51132W        W23458  37.932  19.668   3.214
51133W        W23459  12.108  25.615   2.307
51134W        W23460  25.951   9.876  13.106
51135W        W23461  22.451  22.108   1.101
51136W        W23462  34.952  39.753  13.752
51137W        W23463  16.557  34.346   3.176
51138W        W23464  24.051  31.567   1.268
51139W        W23465  15.763  26.269   1.700
51140W        W23466   0.258  42.793   1.894
51141W        W23467  14.524  15.229   4.730
51142W        W23468   9.665  44.731   3.932
51143W        W23469  41.736  32.033  10.942
51144W        W23470  30.557  43.382   2.915
51145W        W23471   8.368   9.193  13.795
51146W        W23472  31.487  23.102  11.906
51147W        W23473  28.129  34.158  12.978
51148W        W23474  34.542  16.332  12.940
51149W        W23475  23.243  14.641   4.039
51150W        W23476  14.156  13.617  11.996
51151W        W23477  43.997  10.257   4.339
51152W        W23478  43.343   5.903   2.233
51153W        W23479  26.282  24.995   1.238
51154W        W23480  31.431  12.686   1.262
51155W        W23481  37.486  24.262   3.148
51156W        W23482  14.059  10.203   0.046
51157W        W23483  35.305  24.085  11.474
51158W        W23484  24.493  24.398   2.736
51159W        W23485  12.947  41.705   2.769
51160W        W23486   9.106   7.877   3.552
51161W        W23487  12.118  14.957  13.160
51162W        W23488  43.656  41.966   3.605
51163W        W23489   8.179  30.483   4.947
51164W        W23490  35.617  17.605   0.972
51165W        W23491  25.606   0.383  10.752
51166W        W23492  14.628  31.187  14.415
51167W        W23493  33.617   8.807  12.639
51168W        W23494  44.968  33.556  12.318
51169W        W23495  16.868  14.762   4.102
51170W        W23496  11.400  43.344  13.211
51171W        W23497  33.111  41.879  12.509
51172W        W23498  41.024  32.985   2.651
51173W        W23499  20.309   3.904   2.309
51174W        W23500  41.057  21.766  11.000
51175W        W23501   7.633  34.145   2.227
51176W        W23502  37.319  27.528  14.734
51177W        W23503  26.948  33.408  10.564
51178W        W23504  37.475   2.988   1.943
51179W        W23505   4.868  43.318   3.710
51180W        W23506  25.467  41.757  11.157
51181W        W23507  28.392   1.204  11.185
51182W        W23508  28.075   7.347   3.643
51183W        W23509   1.227  15.011   2.371
51184W        W23510  26.565   7.916   1.856
51185W        W23511  21.703  23.168   2.778
51186W        W23512   9.342   7.802   2.705
51187W        W23513  32.173  18.127   1.204
51188W        W23514  14.250   5.876  13.647
51189W        W23515  22.312  21.584   2.268
51190W        W23516  11.333  22.402   1.768
51191W        W23517   4.898  22.811  10.990
51192W        W23518  23.964  19.199   4.020
51193W        W23519   0.454  13.812  11.889
51194W        W23520  24.695  44.830   4.252
51195W        W23521  22.067  24.679   4.771
51196W        W23522  34.602  24.062  10.892
51197W        W23523  18.098  24.749  10.513
51198W        W23524  30.578  10.202  11.479
51199W        W23525   9.372  19.514   1.351
51200W        W23526  16.175  13.641   1.627
51201W        W23527  40.883  18.460   3.901
51202W        W23528   5.528  34.424   0.310
51203W        W23529  21.041   6.670  13.419
51204W        W23530  24.580   1.213  13.832
51205W        W23531  37.180  10.700   0.136
51206W        W23532  34.999  33.650   3.292
51207W        W23533  14.299   1.164  12.417
51208W        W23534   4.133  22.230   2.930
51209W        W23535  17.261   5.243  14.978
51210W        W23536  24.047  13.590   2.083
51211W        W23537  32.127  24.599  13.336
51212W        W23538  39.015   5.604   4.259
51213W        W23539  29.089  27.872  14.487
51214W        W23540  34.017  26.390  12.908
51215W        W23541  29.143  44.502  12.531
51216W        W23542  31.946  15.740  12.597
51217W        W23543  29.113  11.735  13.537
51218W        W23544  13.247  31.439   3.270
51219W        W23545  23.181  14.206  14.973
51220W        W23546  21.269  22.246   2.710
51221W        W23547   7.922   9.582   2.264
51222W        W23548  31.609   0.923   2.181
51223W        W23549  40.173  42.950  14.883
51224W        W23550   0.859   0.799   1.569
51225W        W23551  21.908  40.308   1.792
51226W        W23552  13.320   9.324   2.621
51227W        W23553  37.603  26.253  11.707
51228W        W23554  31.909  11.573   1.445
51229W        W23555  11.565  25.086  11.491
51230W        W23556   1.945  41.249   0.724
51231W        W23557  11.070  28.159  10.697
51232W        W23558  44.418  32.659  14.930
51233W        W23559  26.712  13.343  14.327
51234W        W23560   4.144  42.295   0.903
51235W        W23561  24.957  27.958   0.839
51236W        W23562  35.529  26.680   3.342
51237W        W23563  37.824  44.907  10.545
51238W        W23564  30.632  35.831   0.187
51239W        W23565   7.469  15.077  12.325
51240W        W23566  40.724  38.898   3.315
51241W        W23567   9.687  20.496   3.236
51242W        W23568  38.594  38.642  13.466
51243W        W23569  21.658  26.474  13.088
51244W        W23570  26.229  40.460   4.196
51245W        W23571  38.140  28.856  12.085
51246W        W23572  12.262  23.139  14.356
51247W        W23573  29.316  33.407  11.735
51248W        W23574  24.975  23.800  12.031
51249W        W23575  22.486  41.237   2.351
51250W        W23576  17.123  13.489   3.404
51251W        W23577   7.995   0.324  13.547
51252W        W23578   1.545  28.146   1.965
51253W        W23579   9.142  44.402  11.549
51254W        W23580  12.363  27.977  14.979
51255W        W23581  42.997  42.376  13.504
51256W        W23582   2.412   2.627  10.493
51257W        W23583  25.560  11.453   2.608
51258W        W23584  13.395  29.962   4.889
51259W        W23585  15.298   0.305  12.526
51260W        W23586  15.202   9.894  14.850
51261W        W23587   2.119  20.522   2.195
51262W        W23588  33.432  44.909  11.956
51263W        W23589  14.378  16.044  12.530
51264W        W23590  15.804   3.395   4.101
51265W        W23591  13.432  35.409   2.142
51266W        W23592   3.107  31.264   2.799
51267W        W23593  33.007  43.805  14.000
51268W        W23594   5.655  42.000  14.416
51269W        W23595   4.494  15.678  14.093
51270W        W23596  35.428   0.909   1.861
51271W        W23597  17.350  22.077  14.499
51272W        W23598  35.960  31.953  10.668
51273W        W23599   6.435  30.570  13.109
51274W        W23600  16.893  38.223   2.270
51275W        W23601   8.807  27.558  12.852
51276W        W23602  17.698  15.622  13.415
51277W        W23603  31.036   0.807  14.751
51278W        W23604  32.747   8.175  12.264
51279W        W23605  18.097  34.815  13.798
51280W        W23606  35.291  21.751   2.373
51281W        W23607  17.065  29.928   0.951
51282W        W23608   1.899  10.159  12.628
51283W        W23609  37.057  30.200  14.291
51284W        W23610  43.250  19.381  11.499
51285W        W23611  26.990  26.196  14.409
51286W        W23612  12.666  18.153   1.969
51287W        W23613  32.820  17.689   2.011
51288W        W23614   8.180  43.926   0.968
51289W        W23615  26.851  16.591  13.369
51290W        W23616  43.630  12.159  12.669
51291W        W23617   1.745  20.972   3.280
51292W        W23618  42.439  10.215   2.665
51293W        W23619  10.528  15.959  10.912
51294W        W23620  12.734  42.877  14.985
51295W        W23621  27.521  17.204  14.432
51296W        W23622  30.559   1.960   2.340
51297W        W23623  17.827  18.183  12.932
51298W        W23624  19.854  27.668  14.338
51299W        W23625  22.601  11.242  12.860
51300W        W23626  40.343   3.805   2.185
51301W        W23627  21.800  38.048   1.323
51302W        W23628  23.991   6.719  14.860
51303W        W23629  36.609   5.791   2.726
51304W        W23630  26.888  16.745   3.102
51305W        W23631   3.697  20.986   1.771
51306W        W23632  42.581  32.044  14.347
51307W        W23633  39.428   8.071  11.235
51308W        W23634   7.696   6.425  12.055
51309W        W23635  39.831  12.219  12.455
51310W        W23636  25.248  36.112  10.938
51311W        W23637  42.897  19.572  12.127
51312W        W23638  20.507  15.149   4.765
51313W        W23639  18.814   5.061  13.418
51314W        W23640  31.394  15.251   2.432
51315W        W23641   3.627  40.652  14.436
51316W        W23642  42.853   5.332   0.414
51317W        W23643   0.315  26.428   0.329
51318W        W23644  25.166  37.857   3.632
51319W        W23645  42.856  39.050  12.972
51320W        W23646   2.522  20.046  12.965
51321W        W23647   4.150  13.185  10.598
51322W        W23648  32.903  42.052   1.951
51323W        W23649  28.521  12.177  11.866
51324W        W23650  14.343  33.556   5.089
51325W        W23651   3.687  40.021   4.734
51326W        W23652  23.377  25.662   1.741
51327W        W23653  43.231  12.846   0.870
51328W        W23654  32.523  22.925  10.458
51329W        W23655  34.128  24.209  10.670
51330W        W23656  33.627   5.928  10.719
51331W        W23657  34.705  28.606   1.829
51332W        W23658  29.622  19.752   0.404
51333W        W23659  28.564  43.567  13.562
51334W        W23660   3.346  32.912   2.245
51335W        W23661   0.830  28.766  14.042
51336W        W23662   0.430  34.407   3.285
51337W        W23663  23.587  18.771   1.846
51338W        W23664   2.284  16.194   3.375
51339W        W23665  20.593  43.046  12.765
51340W        W23666  30.654  32.340  12.335
51341W        W23667  42.021  29.921   0.345
51342W        W23668  41.795  25.388  13.187
51343W        W23669  16.979   6.585   4.109
51344W        W23670  22.089  25.708   1.198
51345W        W23671  35.875  10.878   5.497
51346W        W23672  12.257  39.773  13.471
51347W        W23673   8.453  32.874  12.027
51348W        W23674   9.273  23.757   0.902
51349W        W23675  27.638  32.021  11.791
51350W        W23676   3.922  25.952   0.891
51351W        W23677   3.463  32.450   2.386
51352W        W23678  28.193   1.372  14.960
51353W        W23679  32.984   8.760   4.847
51354W        W23680  19.232  13.913  13.296
51355W        W23681  41.311  25.163   0.199
51356W        W23682  40.507  43.302   2.797
51357W        W23683   0.783   9.126   4.455
51358W        W23684   0.768  18.748  13.961
51359W        W23685  23.659  18.041   0.272
51360W        W23686  23.130   6.407  12.900
51361W        W23687   2.805  29.061   1.579
51362W        W23688   7.321   9.230  14.353
51363W        W23689  31.570  18.577  14.340
51364W        W23690  36.916  38.207   0.290
51365W        W23691  21.833  27.146  10.993
51366W        W23692   4.019  34.602  11.502
51367W        W23693  42.258  14.198  13.504
51368W        W23694   9.763  25.160  12.059
51369W        W23695  23.816  43.192   4.219
51370W        W23696   9.804   6.212  10.431
51371W        W23697  16.133  18.274  14.839
51372W        W23698  16.774  21.276  11.622
51373W        W23699  14.929  36.632   2.632
51374W        W23700  38.872  43.990   0.820
51375W        W23701   1.418  23.788  11.036
51376W        W23702  37.574   0.376   2.415
51377W        W23703  22.640  13.057  14.427
51378W        W23704  29.842  31.803   5.043
51379W        W23705   5.167   6.762   1.964
51380W        W23706   2.212  40.787  13.960
51381W        W23707  31.302  31.954   1.228
51382W        W23708  14.786  14.192   2.635
51383W        W23709  37.836   7.865   2.575
51384W        W23710  17.288  42.047  14.118
51385W        W23711  39.961  14.108  13.100
51386W        W23712  30.539  42.051   4.076
51387W        W23713  16.693   2.960  12.060
51388W        W23714   1.662  41.715  13.061
51389W        W23715   3.332  39.812  12.502
51390W        W23716  35.496   4.265   2.241
51391W        W23717   9.790  25.245  11.135
51392W        W23718  21.821  39.033   4.987
51393W        W23719  42.278  40.499   3.424
51394W        W23720   6.016  31.893  12.851
51395W        W23721   1.107   1.499  13.973
51396W        W23722  22.942  11.246   2.004
51397W        W23723  43.202  26.224   2.427
51398W        W23724   4.140  25.149   0.801
51399W        W23725  42.852   4.259   3.635
51400W        W23726  36.140  10.008  10.607
51401W        W23727  24.248  43.910  11.203
51402W        W23728  29.637  19.813   3.342
51403W        W23729  31.684  35.473  13.455
51404W        W23730  37.525  31.125   3.627
51405W        W23731  31.622   5.303   0.781
51406W        W23732  39.992  16.497   3.247
51407W        W23733  36.682   8.733  11.497
51408W        W23734   4.789  14.978   0.903
51409W        W23735  37.804  16.422   0.939
51410W        W23736   7.725  26.608   2.726
51411W        W23737   5.474  24.596  13.736
51412W        W23738  10.336  17.150   0.881
51413W        W23739   4.208  38.836  11.080
51414W        W23740   1.915   9.812  10.350
51415W        W23741  22.495  29.477  14.740
51416W        W23742  20.929   4.989  12.446
51417W        W23743  33.978  22.481  12.660
51418W        W23744  38.181   2.203  13.481
51419W        W23745  19.474  36.937  13.426
51420W        W23746  22.676  24.015  13.307
51421W        W23747   3.262   7.710  12.030
51422W        W23748   0.784  36.430  10.636
51423W        W23749  26.952  13.822   3.150
51424W        W23750  42.734  14.160   3.549
51425W        W23751   5.883  15.631   3.667
51426W        W23752  13.772  15.629   0.280
51427W        W23753  25.118  34.184  11.182
51428W        W23754  36.905  31.868  14.986
51429W        W23755  29.502  13.119   2.704
51430W        W23756  20.760  43.916  11.008
51431W        W23757  36.527  10.096  11.419
51432W        W23758  24.988  40.365   4.645
51433W        W23759   9.595  11.375  13.536
51434W        W23760  28.509  28.631   1.577
51435W        W23761  35.382   9.533   1.328
51436W        W23762  41.398   5.830  14.495
51437W        W23763  38.935  33.462   3.657
51438W        W23764   3.224  20.079   0.812
51439W        W23765  17.523  34.162  14.802
51440W        W23766  40.468  43.299   3.764
51441W        W23767  28.088  26.513   0.056
51442W        W23768   7.934  37.401   3.312
51443W        W23769   3.633  27.163   3.165
51444W        W23770  31.963  35.056   4.064
51445W        W23771   2.845  41.013  13.523
51446W        W23772  11.879   1.409   3.766
51447W        W23773  44.768   4.317   3.972
51448W        W23774  29.514  20.810   2.353
51449W        W23775  28.235  35.981   1.112
51450W        W23776   8.722  13.605   0.164
51451W        W23777  38.573   2.275  12.033
51452W        W23778  19.543  33.566  11.562
51453W        W23779   1.923  17.749   4.058
51454W        W23780  43.847   4.912   1.914
51455W        W23781   4.843  16.838  12.587
51456W        W23782  18.512  31.999   2.296
51457W        W23783  21.548  29.689   4.558
51458W        W23784   1.206   7.217  10.314
51459W        W23785   4.773  24.908   4.150
51460W        W23786  29.032  42.562   3.250
51461W        W23787  27.920  30.436   4.629
51462W        W23788  29.172  18.162  13.192
51463W        W23789  33.358  29.095   4.392
51464W        W23790  23.784   7.405   4.283
51465W        W23791  14.605  37.371  10.011
51466W        W23792  40.853  39.921  11.915
51467W        W23793  24.380   8.812   0.415
51468W        W23794  26.819  36.048   1.202
51469W        W23795  38.874  10.807   4.683
51470W        W23796  41.355  21.610   0.382
51471W        W23797  12.849  18.256   0.926
51472W        W23798   8.611   4.127   2.395
51473W        W23799  21.732  34.126  11.121
51474W        W23800   3.416   7.828   4.622
51475W        W23801  10.568  39.088  11.537
51476W        W23802  25.330  32.230   9.775
51477W        W23803  21.023  31.816   4.963
51478W        W23804  20.819  12.348   4.632
51479W        W23805  25.820  20.494  11.555
51480W        W23806  33.175  28.128   1.237
51481W        W23807  28.615   3.055  14.339
51482W        W23808  20.587  41.097  13.054
51483W        W23809  10.353  31.812   4.474
51484W        W23810   2.565  16.687   0.093
51485W        W23811  29.009  19.362   3.495
51486W        W23812   3.734   2.411  10.651
51487W        W23813  27.028  19.722   5.099
51488W        W23814  11.748  32.801  12.777
51489W        W23815   0.887  27.744  10.574
51490W        W23816  37.488  17.127   4.165
51491W        W23817   3.201  19.728   2.858
51492W        W23818  10.907  17.662   4.156
51493W        W23819  30.561  31.872  10.201
51494W        W23820   6.164  19.717  10.328
51495W        W23821  16.498  36.008  14.776
51496W        W23822  38.459  41.883   0.383
51497W        W23823  31.901  22.315   0.520
51498W        W23824  30.060  43.357   2.714
51499W        W23825   1.480  22.787   4.085
51500W        W23826  43.897  40.002   0.969
51501W        W23827  19.025  30.902  11.990
51502W        W23828  14.079  33.790   1.258
51503W        W23829  21.101  37.663   2.416
51504W        W23830  22.520  36.446   1.012
51505W        W23831   3.201  28.731  13.580
51506W        W23832  22.233  28.234   0.696
51507W        W23833  23.397  21.014   1.269
51508W        W23834  39.478  43.508  12.428
51509W        W23835   0.250  27.630  11.743
51510W        W23836  28.370  22.078  13.044
51511W        W23837  37.298  16.740   3.437
51512W        W23838  15.710  23.099  11.128
51513W        W23839   4.223  44.560   1.535
51514W        W23840  34.660  11.411   0.044
51515W        W23841  10.643  43.815   1.342
51516W        W23842   9.407  35.461  13.148
51517W        W23843   4.437  13.267  12.911
51518W        W23844   7.550  37.924   2.046
51519W        W23845  44.523  21.750  12.814
51520W        W23846   1.344  28.307   3.461
51521W        W23847  24.029  38.776   4.606
51522W        W23848   2.133  16.720   3.306
51523W        W23849  39.998   3.736  12.774
51524W        W23850  17.801  38.533  13.452
51525W        W23851  44.224   4.749   4.793
51526W        W23852   1.129   5.585  11.502
51527W        W23853  15.821   2.763   1.840
51528W        W23854  40.296  15.142   3.661
51529W        W23855  27.604  23.939  11.106
51530W        W23856  33.448   9.958   5.154
51531W        W23857  36.960  19.188  13.842
51532W        W23858  23.825   4.370   1.731
51533W        W23859   5.261  26.007  11.224
51534W        W23860  17.167  26.708  14.895
51535W        W23861   5.221   7.248  13.440
51536W        W23862  33.494  34.433  10.577
51537W        W23863  42.440  18.595  14.958
51538W        W23864  27.965  36.818   0.695
51539W        W23865  27.839  20.068   3.176
51540W        W23866  25.060  14.132  10.561
51541W        W23867  40.756  10.173  11.038
51542W        W23868  14.181  36.095  11.596
51543W        W23869  10.342  17.830   2.719
51544W        W23870  19.228  39.509  13.503
51545W        W23871  10.714  19.593   0.815
51546W        W23872   2.354  29.519   1.328
51547W        W23873   9.200   6.258   4.317
51548W        W23874  19.663   2.401  14.454
51549W        W23875  27.974  16.615  13.952
51550W        W23876  13.672  32.508  13.415
51551W        W23877  39.410   5.320   4.046
51552W        W23878  31.745  14.576   0.427
51553W        W23879  13.495  34.136   1.805
51554W        W23880   3.429  19.200  13.013
51555W        W23881  20.071  42.811  10.521
51556W        W23882  40.592   2.931  11.571
51557W        W23883  36.077   0.715   4.393
51558W        W23884  16.647   9.857   1.374
51559W        W23885  34.335  41.105   4.534
51560W        W23886  25.306  10.577   0.785
51561W        W23887  42.374  36.936   3.767
51562W        W23888  13.074  20.627   2.578
51563W        W23889   4.602  18.140   4.637
51564W        W23890   1.011  25.724  12.585
51565W        W23891  31.376  40.571  14.693
51566W        W23892   3.951   7.467  13.587
51567W        W23893  41.453   7.591   5.200
51568W        W23894  27.505   3.745   0.242
51569W        W23895  28.934  40.114  11.114
51570W        W23896  36.680   3.396  12.882
51571W        W23897   2.498  40.997   0.343
51572W        W23898   1.243   1.830   4.228
51573W        W23899  38.847   2.494   2.816
51574W        W23900   1.012  13.794   4.455
51575W        W23901  16.096  26.024   1.387
51576W        W23902   5.551  18.938  14.411
51577W        W23903  15.123  37.404  10.670
51578W        W23904  25.009   4.436  10.971
51579W        W23905  32.545  31.932  11.630
51580W        W23906  12.185  33.869  11.929
51581W        W23907  33.301  33.452   4.509
51582W        W23908  17.142   6.768  13.012
51583W        W23909  28.378  25.198  11.831
51584W        W23910  37.470  37.080  14.776
51585W        W23911   1.690   2.925   5.171
51586W        W23912   4.105   1.522  13.635
51587W        W23913  40.710  10.376  12.602
51588W        W23914   6.702  42.524   2.827
51589W        W23915  40.386  33.916   4.925
51590W        W23916  12.460   0.806  11.494
51591W        W23917  23.521  10.725  13.151
51592W        W23918  21.020   5.528  10.781
51593W        W23919   7.801  38.956  10.266
51594W        W23920  20.531   1.832   2.295
51595W        W23921  10.162  35.986  14.876
51596W        W23922  18.432  22.669   0.772
51597W        W23923   7.722  40.701  14.889
51598W        W23924  36.552   9.016   3.409
51599W        W23925  34.610  33.162   9.823
51600W        W23926  21.116  39.401  13.732
51601W        W23927  13.392  28.219  13.476
51602W        W23928  22.161  32.931  11.527
51603W        W23929  15.838   6.186   3.636
51604W        W23930  36.358  38.433   4.658
51605W        W23931  42.719  38.442   1.784
51606W        W23932  37.903  16.659  14.533
51607W        W23933  12.211  32.935  10.891
51608W        W23934  23.312  10.811   2.701
51609W        W23935  17.728   3.235  11.904
51610W        W23936  31.348  32.018  13.446
51611W        W23937  20.640  12.325   1.277
51612W        W23938  28.038  35.598  13.152
51613W        W23939  29.404  18.523   3.663
51614W        W23940  17.038  26.501  12.533
51615W        W23941  18.803  41.131   4.790
51616W        W23942  37.989   3.268   2.087
51617W        W23943  17.084  16.793   1.348
51618W        W23944  32.099  32.740   4.252
51619W        W23945   5.863   3.055  14.982
51620W        W23946  18.888   1.787  11.882
51621W        W23947  21.169   2.628   1.030
51622W        W23948  15.359  27.204  14.884
51623W        W23949   4.412  13.051   1.689
51624W        W23950   9.926  27.449   3.871
51625W        W23951  40.536   9.351   0.236
51626W        W23952  13.310  31.317  13.442
51627W        W23953  25.680   4.622   4.348
51628W        W23954  39.844  26.981  14.444
51629W        W23955   5.684  35.866  11.144
51630W        W23956   2.842   5.960  14.647
51631W        W23957  25.425  30.000   2.143
51632W        W23958  14.713  14.369   0.337
51633W        W23959  40.491  28.495   2.159
51634W        W23960  17.740  42.812   4.662
51635W        W23961  35.336  23.537  10.475
51636W        W23962  25.086   5.851  10.894
51637W        W23963  10.319  42.399   4.120
51638W        W23964  13.853  26.576  14.951
51639W        W23965  13.105  15.090  12.968
51640W        W23966  19.019  39.815  14.422
51641W        W23967  27.883  35.114   3.706
51642W        W23968  38.806  26.721  12.516
51643W        W23969  36.091  11.346  14.771
51644W        W23970   1.728  18.423  12.827
51645W        W23971  41.364  39.199  12.398
51646W        W23972  21.242  44.035  11.970
51647W        W23973  29.670  35.369   1.749
51648W        W23974   3.633  10.338   2.312
51649W        W23975  38.504  40.664  14.968
51650W        W23976  16.846  32.711   0.965
51651W        W23977   5.328   4.240   2.109
51652W        W23978  44.734  19.126   2.793
51653W        W23979  33.914   2.327   1.380
51654W        W23980  36.498  44.232  12.055
51655W        W23981  41.512  23.564  14.440
51656W        W23982  34.307   8.346   2.754
51657W        W23983  40.064  31.880  13.429
51658W        W23984  10.792  26.035  14.434
51659W        W23985  16.826  22.132  10.678
51660W        W23986   4.782  39.841  14.226
51661W        W23987  22.493  15.454  10.969
51662W        W23988   2.940  32.166   2.896
51663W        W23989  13.662  19.573   2.655
51664W        W23990  12.116  24.055   1.152
51665W        W23991  32.463  38.350   2.859
51666W        W23992   8.422   0.179  11.438
51667W        W23993  44.473  33.406   2.706
51668W        W23994  31.706  26.485   0.902
51669W        W23995  42.836  31.884  11.496
51670W        W23996   2.647  15.635  11.319
51671W        W23997  41.816   3.185   3.896
51672W        W23998   0.392  10.488   5.563
51673W        W23999  21.185  34.819   1.265
51674W        W24000  24.698  12.188   3.320
51675W        W24001   5.828  34.158  12.117
51676W        W24002  12.793  39.204  10.536
51677W        W24003  26.295   4.384  11.566
51678W        W24004  28.706   7.250   0.772
51679W        W24005  26.537   7.948   0.456
51680W        W24006  34.382  31.410  11.974
51681W        W24007  12.878  24.223   0.417
51682W        W24008  16.991  33.486   4.408
51683W        W24009   5.171  28.464   1.363
51684W        W24010  18.898  44.236   3.242
51685W        W24011  41.462  31.615  12.537
51686W        W24012  37.920  24.559  13.539
51687W        W24013  17.740  29.733   1.908
51688W        W24014  29.449  38.990   2.601
51689W        W24015  18.686  15.630  13.433
51690W        W24016  31.488   6.234  14.932
51691W        W24017  22.525  44.181  13.064
51692W        W24018  41.596  10.212  10.204
51693W        W24019   4.429  25.266  14.512
51694W        W24020  15.376  39.519  11.030
51695W        W24021  39.667  10.430   4.902
51696W        W24022  35.958  15.930  10.210
51697W        W24023  16.584  29.997   4.944
51698W        W24024  15.162   8.606  10.819
51699W        W24025   6.472  24.076   0.708
51700W        W24026  13.174   2.212   1.209
51701W        W24027  15.548  35.476  13.212
51702W        W24028  42.886  10.373  13.241
51703W        W24029   9.773  27.110   1.090
51704W        W24030   5.399  38.431  11.110
51705W        W24031  23.680  12.394  10.790
51706W        W24032  18.030   2.796  12.552
51707W        W24033  36.959   1.198   4.128
51708W        W24034  11.588  17.771  10.610
51709W        W24035  15.923  29.083   3.704
51710W        W24036   0.819  22.511   2.502
51711W        W24037  18.049  37.551  14.269
51712W        W24038  34.296  28.165   3.233
51713W        W24039  17.254  20.294  10.699
51714W        W24040  22.270  39.663   3.888
51715W        W24041   4.399  15.574   2.216
51716W        W24042  40.525   8.105   0.311
51717W        W24043   6.814   2.724  14.972
51718W        W24044   1.512  41.410  14.784
51719W        W24045  25.592  30.618   0.985
51720W        W24046   3.825  33.482  14.987
51721W        W24047  13.301  34.841  13.951
51722W        W24048  21.222   0.882   0.763
51723W        W24049   1.938  42.071   3.410
51724W        W24050  38.031  11.674  13.771
51725W        W24051  20.229  24.553   4.831
51726W        W24052  36.482   4.808   0.689
51727W        W24053  40.508   8.209  10.675
51728W        W24054   8.707  43.033  13.576
51729W        W24055   9.324  30.582  14.455
51730W        W24056  24.643  38.361   2.169
51731W        W24057  38.310  21.292  12.970
51732W        W24058   1.960  32.114  14.931
51733W        W24059  22.798  17.070   4.129
51734W        W24060  37.507  13.755  10.474
51735W        W24061  21.777  25.747   0.783
51736W        W24062   8.399  17.886   0.367
51737W        W24063  44.719   4.961   1.754
51738W        W24064   1.383   7.872   1.336
51739W        W24065  12.774  33.350   0.810
51740W        W24066  28.119  18.598   2.301
51741W        W24067  14.700   5.146  13.409
51742W        W24068   5.695  36.873  14.281
51743W        W24069   1.326   4.624   9.806
51744W        W24070  15.003  10.917  14.853
51745W        W24071  22.642  13.242  13.087
51746W        W24072  36.449  38.554   3.112
51747W        W24073  40.616  22.099   4.690
51748W        W24074   5.320   9.439   2.126
51749W        W24075  40.567   8.691  10.985
51750W        W24076  35.107  17.821  13.477
51751W        W24077  43.323  44.859   3.178
51752W        W24078  41.772  34.973  13.903
51753W        W24079  10.426   5.373  14.367
51754W        W24080  33.643   1.102  13.939
51755W        W24081  17.571  25.590  13.839
51756W        W24082  38.539   6.801   2.128
51757W        W24083  33.558   2.737   1.183
51758W        W24084  43.916  39.026  10.755
51759W        W24085  44.893   1.778  11.129
51760W        W24086  42.011  25.698   0.804
51761W        W24087   5.739  21.510   0.523
51762W        W24088  38.566  34.432   3.638
51763W        W24089   9.604  10.955  11.979
51764W        W24090  16.098   5.738   1.187
51765W        W24091   7.424  35.894  14.693
51766W        W24092  19.874   1.321  11.009
51767W        W24093   8.442  24.000   3.713
51768W        W24094  11.713  16.475   4.194
51769W        W24095   5.975  38.407   0.144
51770W        W24096  32.556  31.294  11.901
51771W        W24097  31.447  35.583   2.367
51772W        W24098  40.138   9.612   1.964
51773W        W24099  42.073  10.516  12.528
51774W        W24100   0.829  31.219  11.120
51775W        W24101   0.871  26.041  13.568
51776W        W24102  32.823   4.524   2.372
51777W        W24103  22.031  35.011   4.327
51778W        W24104   2.011   6.685  13.564
51779W        W24105  12.090  20.491  13.040
51780W        W24106   9.840  40.273  11.502
51781W        W24107  18.141  18.313  13.332
51782W        W24108  35.374  13.610   2.833
51783W        W24109  18.348   1.010   1.751
51784W        W24110  14.727  15.250   3.371
51785W        W24111   7.013  18.107   3.966
51786W        W24112  13.885  26.869  11.524
51787W        W24113  37.374   8.390  11.359
51788W        W24114   1.460  38.854   3.412
51789W        W24115  20.720  25.964  10.637
51790W        W24116  42.258  25.119  12.084
51791W        W24117   4.929   7.403   4.176
51792W        W24118  15.273  22.100  11.479
51793W        W24119  41.795  21.499  11.890
51794W        W24120  42.467  21.472   1.012
51795W        W24121  41.003  18.550   3.224
51796W        W24122  20.951  10.153   2.697
51797W        W24123  20.210   1.489   0.309
51798W        W24124  28.944  35.909   4.096
51799W        W24125  24.999  16.337  12.904
51800W        W24126   1.845  40.448   0.434
51801W        W24127  13.591  28.573  11.442
51802W        W24128  26.754   1.922  14.841
51803W        W24129  15.627   8.956  14.302
51804W        W24130  42.253  33.142  13.386
51805W        W24131  21.994  34.082  14.929
51806W        W24132  44.438  11.436   3.555
51807W        W24133  22.473  39.338  10.556
51808W        W24134  18.112  39.543  14.401
51809W        W24135  32.411   1.701  11.256
51810W        W24136  33.618  42.104   2.339
51811W        W24137  12.142  13.370  14.568
51812W        W24138  31.219  18.085   4.110
51813W        W24139   8.359   2.044   1.816
51814W        W24140   3.428  36.461   2.384
51815W        W24141  42.297  19.619  11.474
51816W        W24142  44.718  43.815   3.215
51817W        W24143  44.066   5.342  14.959
51818W        W24144  43.524   3.386   3.160
51819W        W24145  39.897  35.330  11.731
51820W        W24146  26.543  39.600   0.945
51821W        W24147  21.893   3.357   0.046
51822W        W24148  32.466  39.331  12.614
51823W        W24149  21.709   4.213  14.291
51824W        W24150  26.965   3.902  13.378
51825W        W24151  19.150   9.388  11.105
51826W        W24152   5.488  29.883   0.749
51827W        W24153  23.712   0.003  13.100
51828W        W24154  43.995  24.818   2.883
51829W        W24155   2.602  34.646  11.999
51830W        W24156  20.056  11.846  12.923
51831W        W24157  19.575  40.496  13.516
51832W        W24158  33.670  33.513  12.478
51833W        W24159  13.717  11.157  12.047
51834W        W24160  22.310  42.382   4.908
51835W        W24161  15.341  29.747  12.031
51836W        W24162   6.243  10.871  14.426
51837W        W24163  29.112  39.492  14.423
51838W        W24164  16.214  34.475  12.423
51839W        W24165  29.611  20.185  10.376
51840W        W24166  38.854  17.378   4.802
51841W        W24167  40.405  38.864  14.808
51842W        W24168  27.149  31.527   3.062
51843W        W24169  17.129   7.438   1.954
51844W        W24170  42.745  11.648  14.398
51845W        W24171   9.972  17.852  11.560
51846W        W24172  43.919  43.313  11.996
51847W        W24173  33.966  44.891  11.967
51848W        W24174  15.344   2.710   3.263
51849W        W24175   9.882  13.049  12.592
51850W        W24176  23.453  37.022  13.890
51851W        W24177  29.503   0.219  11.474
51852W        W24178  14.328  27.579  11.984
51853W        W24179  44.390  33.563   4.523
51854W        W24180  34.357  22.959  14.828
51855W        W24181  44.981  16.074  14.873
51856W        W24182  21.093  40.909  13.075
51857W        W24183   9.760   8.411  11.590
51858W        W24184  13.524  44.386   4.083
51859W        W24185  39.510  15.727   2.896
51860W        W24186   5.882  40.794   2.704
51861W        W24187  13.286  12.820  11.802
51862W        W24188  10.218   3.976   1.157
51863W        W24189  22.303   8.158   4.266
51864W        W24190  20.169   4.835  12.885
51865W        W24191  31.401   0.331  10.642
51866W        W24192   1.975  20.637  13.987
51867W        W24193  30.939  37.814   0.365
51868W        W24194  28.217   0.297   1.721
51869W        W24195   1.376  25.929   0.514
51870W        W24196  43.666  38.763  12.002
51871W        W24197  14.945  19.390  12.546
51872W        W24198   6.626  36.883  13.493
51873W        W24199  24.967   5.435  11.154
51874W        W24200  19.635  25.450  10.613
51875W        W24201  30.081   5.273  13.566
51876W        W24202  37.180  12.653  11.997
51877W        W24203  22.197  12.832   2.617
51878W        W24204   2.420  29.010   1.233
51879W        W24205  21.221  27.087  12.546
51880W        W24206  25.945  41.125   2.697
51881W        W24207  23.473  15.198   9.736
51882W        W24208  14.311  15.550  12.620
51883W        W24209   9.881  37.303  12.637
51884W        W24210  20.756  29.931   2.280
51885W        W24211   3.759  35.042   3.748
51886W        W24212  16.232  11.784  12.867
51887W        W24213  22.957  37.126  14.036
51888W        W24214  19.619  34.457  10.995
51889W        W24215  39.063  44.433  14.955
51890W        W24216  39.569  27.341  11.126
51891W        W24217  15.307  34.820  13.285
51892W        W24218  18.119  30.897   0.660
51893W        W24219  28.563  38.296   1.878
51894W        W24220   2.206  40.388   5.035
51895W        W24221  28.050  28.416   1.462
51896W        W24222  36.583  41.385  11.167
51897W        W24223  37.949  20.059  14.072
51898W        W24224  18.028  22.033   0.254
51899W        W24225  41.304  37.607  10.576
51900W        W24226  12.423  18.077  13.285
51901W        W24227   8.418  41.733  13.392
51902W        W24228  30.766  11.489  11.148
51903W        W24229   6.344  13.125   3.663
51904W        W24230  22.201  20.625  14.375
51905W        W24231   9.399  36.075  12.073
51906W        W24232   1.032  44.556  10.816
51907W        W24233  23.810  36.127  11.933
51908W        W24234  36.936  39.610   0.150
51909W        W24235  21.522  44.830  13.418
51910W        W24236  40.437  41.264   2.819
51911W        W24237  22.934  37.864  13.438
51912W        W24238  24.857  20.157  10.372
51913W        W24239  27.985  16.248   1.434
51914W        W24240   6.870   8.845  13.867
51915W        W24241   7.838  23.495   4.044
51916W        W24242  31.695  14.894   2.207
51917W        W24243  18.006  11.548   4.343
51918W        W24244  17.684  34.797   1.802
51919W        W24245  15.185  23.559   1.002
51920W        W24246   2.090  17.610  12.982
51921W        W24247  19.740   2.986   0.354
51922W        W24248  10.002   8.808  13.825
51923W        W24249   7.181  37.979   2.396
51924W        W24250  22.490  30.565  12.585
51925W        W24251  41.273  22.234  11.082
51926W        W24252  36.898  27.493   3.821
51927W        W24253  17.761  43.202  14.430
51928W        W24254  24.473  25.929  10.867
51929W        W24255   3.826  43.390   2.137
51930W        W24256  13.195  22.058  11.717
51931W        W24257  28.213  10.357  11.196
51932W        W24258  11.353  41.835   2.206
51933W        W24259  16.287  33.125  13.579
51934W        W24260  35.002  35.286  12.440
51935W        W24261  30.632  25.471  11.598
51936W        W24262  22.462  27.008   0.104
51937W        W24263  22.145  26.693  12.338
51938W        W24264  33.201  10.712   2.680
51939W        W24265  16.107   4.956   1.832
51940W        W24266  41.288   6.976   1.848
51941W        W24267  30.908  34.608  14.787
51942W        W24268  31.834  15.521  13.665
51943W        W24269  18.456  21.982  11.595
51944W        W24270   4.406   6.418   2.714
51945W        W24271  40.612  33.796  10.740
51946W        W24272  25.900  35.795   0.218
51947W        W24273  13.263   2.999   3.467
51948W        W24274  40.938  14.680   2.723
51949W        W24275  29.159  15.029  12.574
51950W        W24276  18.301   6.353  13.410
51951W        W24277  33.557  37.341   1.047
51952W        W24278  16.773  24.306  10.841
51953W        W24279  12.264  12.812   4.663
51954W        W24280  43.448   3.572   2.357
51955W        W24281  29.912  38.894  13.382
51956W        W24282  39.501  44.950  13.494
51957W        W24283  23.019  40.719  13.621
51958W        W24284  29.623   7.676  13.473
51959W        W24285  43.457   2.901   0.572
51960W        W24286   6.042  32.572   0.333
51961W        W24287  28.454   4.787   3.318
51962W        W24288  21.647  28.062   0.527
51963W        W24289  39.503   1.662   0.620
51964W        W24290   1.475  12.245   3.253
51965W        W24291   8.293  12.023   2.425
51966W        W24292  17.427  20.809   2.956
51967W        W24293   2.767  24.714  10.650
51968W        W24294  29.103  13.188   2.177
51969W        W24295  35.084   3.797   2.664
51970W        W24296   8.303  33.572   3.731
51971W        W24297  37.793  36.481  14.203
51972W        W24298  33.749  35.872   5.123
51973W        W24299  44.803  42.193  14.864
51974W        W24300  25.405  43.263  14.887
51975W        W24301   3.006  35.452   3.705
51976W        W24302   7.834  12.143   4.174
51977W        W24303   4.606   2.550  14.785
51978W        W24304  40.527  15.351   4.144
51979W        W24305  26.988  21.577   0.821
51980W        W24306   5.177  19.043   3.327
51981W        W24307  21.644  34.169  12.009
51982W        W24308  29.878   5.784  12.645
51983W        W24309  23.974  26.948  12.464
51984W        W24310  33.518   8.923   1.394
51985W        W24311   3.331  24.155  12.090
51986W        W24312  24.921  33.534   3.984
51987W        W24313  12.488  23.982   5.015
51988W        W24314  44.368  23.995   3.486
51989W        W24315  31.105   5.116   1.636
51990W        W24316   6.916  23.023   1.460
51991W        W24317   4.737  26.391  13.911
51992W        W24318   7.181   3.429   0.788
51993W        W24319  14.992  25.005  12.449
51994W        W24320  24.547  13.693  11.820
51995W        W24321  28.332   0.696  12.069
51996W        W24322  31.633  41.776   4.623
51997W        W24323  39.094  19.046   2.887
51998W        W24324  42.031  35.103  11.156
51999W        W24325  43.267  16.618   0.821
52000W        W24326  13.164  29.403   2.222
52001W        W24327   7.451   7.694   1.420
52002W        W24328  26.939   8.861  10.636
52003W        W24329  14.639  17.207  11.866
52004W        W24330  26.915  17.780   1.650
52005W        W24331  21.923  42.232  12.096
52006W        W24332  35.186  43.145  14.810
52007W        W24333  43.514   1.831  12.129
52008W        W24334  39.434  13.142  10.986
52009W        W24335  19.863  37.045  10.696
52010W        W24336  12.684   8.359  14.003
52011W        W24337   9.368  25.995  12.766
52012W        W24338  15.702  19.905  13.560
52013W        W24339  40.103  14.196   1.221
52014W        W24340   0.228   5.683  11.860
52015W        W24341  23.949  30.210  14.324
52016W        W24342  35.025   1.495   0.711
52017W        W24343  40.822   5.467   0.487
52018W        W24344  19.851   7.187   1.352
52019W        W24345  41.881  31.487   2.253
52020W        W24346   3.268  42.904  12.105
52021W        W24347   1.885  17.305   4.507
52022W        W24348  29.046  10.785   4.595
52023W        W24349  40.002  32.950  11.960
52024W        W24350  10.272   6.312  12.561
52025W        W24351  35.160  37.280  13.478
52026W        W24352   8.153   3.480  14.704
52027W        W24353  27.564  31.496  11.827
52028W        W24354  24.527  42.276  11.084
52029W        W24355   1.986  25.147   1.768
52030W        W24356  25.742  36.472  12.030
52031W        W24357   2.693  44.827   3.813
52032W        W24358  38.286  16.592   0.825
52033W        W24359  40.387  17.608  13.965
52034W        W24360   1.225  26.621   1.745
52035W        W24361   8.798  28.602  14.753
52036W        W24362  20.492   4.414   4.564
52037W        W24363  23.526  21.450   3.767
52038W        W24364  36.462  37.473  10.529
52039W        W24365  43.423  15.976  13.425
52040W        W24366  36.448  39.441   3.051
52041W        W24367  27.479   8.747  11.480
52042W        W24368  41.904  39.473   1.634
52043W        W24369  43.175  27.095   1.281
52044W        W24370  17.976   2.479  11.432
52045W        W24371  42.935  30.419   3.247
52046W        W24372  31.681  22.065   1.784
52047W        W24373  15.128  25.663   0.422
52048W        W24374  41.999  42.088  11.707
52049W        W24375  27.129  12.838  10.985
52050W        W24376  23.964  23.180  13.464
52051W        W24377   6.251  19.348  14.120
52052W        W24378  15.711  32.862   3.413
52053W        W24379  24.514  23.158  11.686
52054W        W24380  11.053   6.328   0.317
52055W        W24381   6.824  17.122  13.291
52056W        W24382  39.411  33.038  14.952
52057W        W24383  35.957  27.210   0.929
52058W        W24384  43.077   0.528   0.142
52059W        W24385  37.580   2.674   3.277
52060W        W24386  26.710  20.298   2.277
52061W        W24387   1.048  17.396  14.089
52062W        W24388  43.941  29.593  11.881
52063W        W24389  26.205  24.126   0.334
52064W        W24390   9.827  42.690   2.317
52065W        W24391  26.971  35.571  14.460
52066W        W24392  28.943  21.751   1.276
52067W        W24393  12.190  36.186  10.220
52068W        W24394  17.597  41.449   0.962
52069W        W24395  36.193   2.725   0.336
52070W        W24396  20.772  17.331  10.285
52071W        W24397  25.928  27.501   2.422
52072W        W24398  32.123  30.864   3.772
52073W        W24399  29.447  15.131   3.896
52074W        W24400  34.478  19.750  13.469
52075W        W24401  23.579  19.266  11.076
52076W        W24402  44.988  33.052  13.432
52077W        W24403  37.287  40.806  11.747
52078W        W24404  21.609  14.304  10.675
52079W        W24405  21.760  38.355  14.015
52080W        W24406  17.160   4.339   4.642
52081W        W24407   8.414  44.730   0.522
52082W        W24408  21.599   7.251   3.317
52083W        W24409  10.200   9.439   2.696
52084W        W24410   6.239   0.157  11.735
52085W        W24411  14.285  29.405   2.679
52086W        W24412  32.802  10.674  14.001
52087W        W24413  27.063  44.344  13.399
52088W        W24414  24.085  23.557   2.765
52089W        W24415   7.720  33.630   2.192
52090W        W24416  40.384  43.526   2.328
52091W        W24417  10.290  27.920   1.121
52092W        W24418  31.154   2.962  10.541
52093W        W24419  43.654  26.821   0.755
52094W        W24420  31.315  20.248   4.648
52095W        W24421  41.027  43.668   4.551
52096W        W24422  32.866  27.647   2.341
52097W        W24423  15.706  21.034  12.655
52098W        W24424  13.638  35.742   5.196
52099W        W24425  41.320  18.157  10.560
52100W        W24426  43.308  15.082   3.188
52101W        W24427  39.901  43.275   3.571
52102W        W24428   6.650  41.337  12.404
52103W        W24429  41.090   0.798  11.483
52104W        W24430  21.746  29.079  11.650
52105W        W24431  40.588  44.424  13.445
52106W        W24432   2.285   7.138  10.122
52107W        W24433  27.032  19.169   0.998
52108W        W24434  18.532  31.875   4.146
52109W        W24435  41.810   8.236   3.931
52110W        W24436  41.521  40.409  12.937
52111W        W24437  11.784  19.190   3.571
52112W        W24438  37.559  24.116  10.692
52113W        W24439  29.021  19.706  11.465
52114W        W24440  16.227  22.344  12.034
52115W        W24441  34.787   5.867   1.354
52116W        W24442   1.032   6.646  11.119
52117W        W24443  24.457  16.293   3.729
52118W        W24444   6.810  27.557   0.784
52119W        W24445  34.965  44.033   2.684
52120W        W24446  12.700  29.799  10.746
52121W        W24447  41.106  16.665  14.986
52122W        W24448  11.768  19.581  11.965
52123W        W24449  23.572  23.548  12.093
52124W        W24450  16.508  35.135  12.973
52125W        W24451  14.536   4.494   0.295
52126W        W24452  19.263  40.266  14.458
52127W        W24453  42.522  22.259   2.281
52128W        W24454  33.929  22.612  12.155
52129W        W24455   3.654  32.785  11.198
52130W        W24456  30.191  29.495  14.769
52131W        W24457  20.743   9.816  13.616
52132W        W24458   1.932  25.985   0.310
52133W        W24459  10.740  27.045   2.158
52134W        W24460  21.324  35.155  11.137
52135W        W24461  22.187  15.714   5.458
52136W        W24462   7.766  12.795   0.390
52137W        W24463  20.506  23.219  12.456
52138W        W24464  19.465  44.063  12.094
52139W        W24465   1.243  36.199  11.201
52140W        W24466  14.782  15.595   3.806
52141W        W24467  11.295  11.365  14.885
52142W        W24468  16.829  11.086   3.288
52143W        W24469   4.997  44.828  13.370
52144W        W24470  39.518  30.529   3.317
52145W        W24471  15.102  33.121  12.927
52146W        W24472   4.747  37.678   2.343
52147W        W24473  19.661   9.407  12.572
52148W        W24474  37.036   1.894  11.076
52149W        W24475  27.234   3.969  12.918
52150W        W24476  21.878   7.698  13.401
52151W        W24477  41.194  16.993  12.969
52152W        W24478  10.160  33.483  13.167
52153W        W24479  28.529  14.243  14.892
52154W        W24480  16.291  24.093  10.749
52155W        W24481  23.734  21.654  14.302
52156W        W24482  24.694  40.421   0.882
52157W        W24483   0.790  26.417   1.907
52158W        W24484   9.484  37.365   3.430
52159W        W24485  24.941   0.308   4.305
52160W        W24486  34.301  21.274   4.505
52161W        W24487  34.125  32.205   2.290
52162W        W24488   3.485  36.690  13.865
52163W        W24489   6.591   6.925  13.049
52164W        W24490  18.734  22.048   3.625
52165W        W24491  44.470   7.375  11.594
52166W        W24492  42.298  15.258   4.430
52167W        W24493  16.297  21.747  14.900
52168W        W24494   8.296  20.842   3.193
52169W        W24495  40.065  33.925  10.625
52170W        W24496   6.736  23.965  14.807
52171W        W24497  35.330  41.412   2.466
52172W        W24498  43.404  16.836   1.277
52173W        W24499  18.520  13.711   4.098
52174W        W24500  27.916  43.363   3.582
52175W        W24501  42.507  11.771   3.226
52176W        W24502   7.017  26.449  12.202
52177W        W24503  26.142  18.057   5.195
52178W        W24504  40.879  38.772   1.254
52179W        W24505  27.384  34.135  11.975
52180W        W24506  43.897  22.912   4.703
52181W        W24507   4.328  39.386  14.530
52182W        W24508  44.422  14.342  11.678
52183W        W24509  29.368  10.767   4.993
52184W        W24510  33.547  16.149  11.040
52185W        W24511   5.700  25.354  13.933
52186W        W24512  34.146  11.736   2.796
52187W        W24513  19.619  44.584   4.553
52188W        W24514  27.876   4.329  10.673
52189W        W24515  13.284  27.940  13.047
52190W        W24516  26.938  44.730  11.597
52191W        W24517   6.142  19.638   4.373
52192W        W24518   5.460  19.788  11.489
52193W        W24519  44.470  43.892  10.730
52194W        W24520   7.898   0.596  11.749
52195W        W24521  43.386  40.989   2.204
52196W        W24522   8.398  39.384  12.915
52197W        W24523  19.572  31.858  12.907
52198W        W24524  39.954  21.678   3.353
52199W        W24525  30.965  15.748  13.139
52200W        W24526  19.804  35.669   1.427
52201W        W24527  14.518  13.633  11.096
52202W        W24528  11.312  31.936  14.559
52203W        W24529  16.540  28.195  12.196
52204W        W24530  32.982  28.486   0.375
52205W        W24531  11.177  30.971  14.504
52206W        W24532  10.985   9.728  13.821
52207W        W24533  44.670  14.331   3.676
52208W        W24534  33.432  12.995  11.417
52209W        W24535  22.290  15.764   4.132
52210W        W24536  21.386  39.254   0.676
52211W        W24537  38.527  32.478  11.059
52212W        W24538  13.297  25.244  14.947
52213W        W24539   9.527  29.044  14.840
52214W        W24540  38.070  33.053  12.338
52215W        W24541  28.789   6.767  12.154
52216W        W24542  14.118   3.806   4.691
52217W        W24543  16.549   6.799  12.709
52218W        W24544  20.882   2.837  13.365
52219W        W24545   5.703  27.882   2.825
52220W        W24546   4.857  18.367  13.794
52221W        W24547  32.104   9.187   4.156
52222W        W24548  18.785  13.364   1.422
52223W        W24549   1.913  36.417   1.138
52224W        W24550   2.700   9.467  14.319
52225W        W24551  15.605  27.225  11.596
52226W        W24552  18.697  30.066  12.534
52227W        W24553  11.037  36.093   3.078
52228W        W24554  14.207  17.612  14.953
52229W        W24555  11.889  33.169   0.426
52230W        W24556  26.524  18.759   1.949
52231W        W24557  21.074  29.580  14.432
52232W        W24558  15.368   4.676  11.643
52233W        W24559  35.473  23.585  14.308
52234W        W24560  13.062  25.644   2.575
52235W        W24561  14.272  12.199  13.114
52236W        W24562  29.570  31.713   1.333
52237W        W24563  13.763  14.349   2.879
52238W        W24564  32.112  43.265  11.244
52239W        W24565   1.764  34.152   0.316
52240W        W24566  12.848  25.969   0.632
52241W        W24567   7.344   9.761   3.428
52242W        W24568  40.382   5.025  13.607
52243W        W24569  41.926  15.995  13.890
52244W        W24570  11.940  13.845  10.209
52245W        W24571   3.911  34.915   4.285
52246W        W24572  23.607  22.285   3.370
52247W        W24573  24.951  35.890   4.165
52248W        W24574  32.380  23.927   4.551
52249W        W24575  17.509  31.858   0.445
52250W        W24576   8.112  32.000   0.380
52251W        W24577  24.109   3.893  11.994
52252W        W24578  29.084  27.400   2.133
52253W        W24579  12.645  14.071  14.435
52254W        W24580   6.853   5.219   4.563
52255W        W24581  28.006   6.585  11.675
52256W        W24582  17.314   6.373   3.762
52257W        W24583  30.592  30.696  14.634
52258W        W24584  43.856  19.825  11.945
52259W        W24585  17.066  10.701   2.863
52260W        W24586  18.618  28.616   1.524
52261W        W24587   0.064  42.536  11.003
52262W        W24588  11.159   7.904   0.142
52263W        W24589   3.729   6.139  13.891
52264W        W24590   3.831  30.962  13.882
52265W        W24591  21.763  31.132   3.801
52266W        W24592   9.749  24.701   3.558
52267W        W24593  28.197   7.276  13.409
52268W        W24594  29.950   2.410   3.732
52269W        W24595  29.916  41.836  11.610
52270W        W24596  28.072  41.350   4.273
52271W        W24597  15.074   4.322  11.880
52272W        W24598  28.435  12.174   2.314
52273W        W24599   3.787  17.663   3.172
52274W        W24600  25.245  22.454  13.415
52275W        W24601  14.111  40.714   0.437
52276W        W24602  22.484  22.196   0.190
52277W        W24603  31.358   9.213  11.109
52278W        W24604  16.156  40.520   3.928
52279W        W24605   4.692  15.131  13.428
52280W        W24606   6.830  34.597  11.418
52281W        W24607  19.029  34.848  12.882
52282W        W24608  25.512  40.128   0.717
52283W        W24609   7.347  35.779  14.187
52284W        W24610   2.022   9.774  10.845
52285W        W24611  29.768   4.169   2.261
52286W        W24612  34.860  32.810   1.817
52287W        W24613  34.674  44.999   0.464
52288W        W24614   0.294  23.992  13.353
52289W        W24615   1.276  31.167  13.480
52290W        W24616  22.008  10.312   4.259
52291W        W24617  31.120  34.448  11.583
52292W        W24618  40.804  43.875   1.282
52293W        W24619  23.746  30.963   4.599
52294W        W24620  36.091  29.430   0.370
52295W        W24621   9.185   3.602  11.955
52296W        W24622  30.056  22.110   2.516
52297W        W24623  16.464  19.722   3.395
52298W        W24624  30.403   0.901   3.202
52299W        W24625  14.445  18.920  14.607
52300W        W24626  23.280  41.822  14.315
52301W        W24627  17.983  12.053   4.320
52302W        W24628  28.775   9.701   2.270
52303W        W24629   2.175  30.006   1.364
52304W        W24630  30.416  41.271   3.816
52305W        W24631  19.326  26.749  12.918
52306W        W24632  30.801  11.891   0.032
52307W        W24633  24.063  44.811   0.299
52308W        W24634   6.207  10.349  14.456
52309W        W24635  12.266  14.390   3.232
52310W        W24636  43.229  41.350  11.948
52311W        W24637  19.644  34.281   3.604
52312W        W24638  42.992  37.434   0.783
52313W        W24639   8.582   3.399   3.141
52314W        W24640  37.773   5.439  13.687
52315W        W24641  42.033  15.193  10.440
52316W        W24642   6.308  43.528   4.539
52317W        W24643  21.508   8.240   3.728
52318W        W24644   9.322   6.667  13.410
52319W        W24645  27.465  17.778  11.629
52320W        W24646   6.288  40.957   1.860
52321W        W24647  30.328  17.406  11.620
52322W        W24648   9.990  10.835  13.313
52323W        W24649  11.975  40.335  10.956
52324W        W24650  15.892  18.411  12.968
52325W        W24651   3.457   8.886  13.945
52326W        W24652  22.056  31.404  12.092
52327W        W24653  32.370  32.468   0.025
52328W        W24654  28.056  44.622   5.102
52329W        W24655  36.578   1.325   2.368
52330W        W24656   7.838  42.301  13.685
52331W        W24657  16.118  28.056   1.724
52332W        W24658  39.873  41.881   3.102
52333W        W24659   6.277  20.056  10.698
52334W        W24660  17.895   6.410   2.664
52335W        W24661  12.982  15.576   3.260
52336W        W24662  35.727  29.278  14.055
52337W        W24663  41.021   6.834   0.282
52338W        W24664  16.262  41.249  11.439
52339W        W24665  41.219  43.538  11.639
52340W        W24666  12.475  25.451  10.078
52341W        W24667  29.079  18.908  13.910
52342W        W24668  17.837  42.953   0.043
52343W        W24669   5.787  19.999   0.475
52344W        W24670   8.587  42.006  12.972
52345W        W24671   2.523  37.556  11.132
52346W        W24672  44.252  12.468   3.736
52347W        W24673   0.238  30.187   4.067
52348W        W24674  23.095   8.196   1.890
52349W        W24675  16.697  39.554   4.346
52350W        W24676  37.987  36.009  13.401
52351W        W24677  26.732  13.628  12.038
52352W        W24678  17.100  23.037   2.807
52353W        W24679  11.848  10.129  10.850
52354W        W24680  34.413  27.161  13.381
52355W        W24681  20.258  24.721   2.475
52356W        W24682  10.224   3.499   1.434
52357W        W24683  10.896   4.936   3.636
52358W        W24684  11.062  17.125  14.600
52359W        W24685  10.183  14.358  12.933
52360W        W24686  20.097   2.849   1.558
52361W        W24687   5.326  13.863  14.829
52362W        W24688  39.019   0.513  13.042
52363W        W24689  39.729  25.713  10.696
52364W        W24690  43.099  27.915  14.928
52365W        W24691   5.403  19.106   3.807
52366W        W24692  28.516  10.165  13.471
52367W        W24693  42.358  42.778   4.384
52368W        W24694  36.181  16.953   4.172
52369W        W24695  14.686  15.605  10.741
52370W        W24696  40.537   8.917  12.868
52371W        W24697  20.886  15.782  11.079
52372W        W24698  17.684   6.423  12.958
52373W        W24699  30.366  18.176  10.599
52374W        W24700   5.201  12.685  12.121
52375W        W24701  19.182   5.715   2.865
52376W        W24702  26.009  21.073  10.072
52377W        W24703   4.772   5.309   0.706
52378W        W24704  38.964  39.226   1.339
52379W        W24705  20.551   8.275   2.514
52380W        W24706   7.221  35.933  11.613
52381W        W24707  43.455  24.035   3.617
52382W        W24708  34.582  10.110   3.693
52383W        W24709  42.613  14.913   4.150
52384W        W24710  38.926  36.144  12.192
52385W        W24711  27.561  10.150   0.445
52386W        W24712  16.578   5.734   0.391
52387W        W24713  13.356  28.992   2.432
52388W        W24714  36.079  22.457  11.093
52389W        W24715  12.312  10.905  11.123
52390W        W24716  14.230   1.476  13.398
52391W        W24717  17.861   5.259   0.845
52392W        W24718  31.090  33.385   0.896
52393W        W24719  27.162  24.155   2.393
52394W        W24720   1.285  11.106   1.814
52395W        W24721  14.748   8.642   2.415
52396W        W24722  23.525  12.433  14.538
52397W        W24723  32.535   1.920   3.789
52398W        W24724  20.512  29.993  13.072
52399W        W24725  36.903  44.592   2.163
52400W        W24726  20.243  26.500   1.433
52401W        W24727  22.573  44.602  13.959
52402W        W24728  16.041  10.656   3.697
52403W        W24729  13.120   9.312  14.503
52404W        W24730  36.969  11.278   2.578
52405W        W24731  41.270  17.244  11.225
52406W        W24732   3.961  24.289   2.615
52407W        W24733  21.550   6.329  12.442
52408W        W24734  14.872   9.874  13.348
52409W        W24735  29.037   4.237   4.596
52410W        W24736  38.710  41.202  10.719
52411W        W24737  13.547  35.315  12.430
52412W        W24738  41.269  26.533   2.918
52413W        W24739  15.104  26.547  11.107
52414W        W24740  41.549  13.343   0.762
52415W        W24741  36.286  38.759   3.886
52416W        W24742  38.858   0.998   1.184
52417W        W24743  10.818  11.552  10.784
52418W        W24744  25.538  30.708  14.689
52419W        W24745   2.239  14.344  11.984
52420W        W24746  14.120   8.363  10.430
52421W        W24747  23.118  21.315  10.697
52422W        W24748   4.224  12.210   1.731
52423W        W24749   1.818  21.996   4.857
52424W        W24750   9.506  12.707   1.770
52425W        W24751  20.620  27.933  10.616
52426W        W24752   1.277   6.196   2.791
52427W        W24753   5.173  29.674  13.067
52428W        W24754  18.689  36.809   4.651
52429W        W24755  27.714  18.293   4.212
52430W        W24756  15.795  35.183  11.798
52431W        W24757   1.319  35.093  12.677
52432W        W24758  33.629  14.970   2.236
52433W        W24759  40.967  41.402  11.216
52434W        W24760  20.194  29.976  11.118
52435W        W24761  23.093  12.642   4.723
52436W        W24762  44.956   8.229   3.916
52437W        W24763  17.850   6.696  12.554
52438W        W24764  11.291  41.695   4.613
52439W        W24765  10.495  25.757   4.282
52440W        W24766   3.832  27.929  13.967
52441W        W24767  16.723   2.231  13.598
52442W        W24768  19.289  11.075  12.439
52443W        W24769   1.993  31.939  12.303
52444W        W24770  39.274  43.985  12.557
52445W        W24771  39.697  36.374  11.540
52446W        W24772  14.091   4.200   2.272
52447W        W24773  38.387  38.526  10.589
52448W        W24774   2.081  27.631  11.999
52449W        W24775  33.431  24.633   2.628
52450W        W24776  32.365  20.786   5.009
52451W        W24777  33.968   7.751  11.563
52452W        W24778  16.682  23.549  13.195
52453W        W24779  31.000  39.253   1.735
52454W        W24780  12.018  26.628  10.601
52455W        W24781  39.592  19.215  11.523
52456W        W24782  16.405  42.078  11.210
52457W        W24783   9.362  36.066  10.989
52458W        W24784  17.811  22.960  10.776
52459W        W24785  40.901  11.680   3.406
52460W        W24786  40.059  34.021   0.787
52461W        W24787  20.322  40.449  10.615
52462W        W24788   4.206  10.078  14.829
52463W        W24789  10.673  15.305   3.920
52464W        W24790   1.770  18.555  10.631
52465W        W24791  38.485  41.485  13.504
52466W        W24792  22.012  38.754  12.522
52467W        W24793  22.665  34.969   0.793
52468W        W24794  29.577  18.532   2.776
52469W        W24795   5.752  42.875  14.347
52470W        W24796  27.031  36.051  12.481
52471W        W24797  13.725  19.194  11.236
52472W        W24798   2.555   3.875  14.035
52473W        W24799  25.680  26.411  11.983
52474W        W24800  37.652  33.487  13.963
52475W        W24801   4.161  14.365  12.445
52476W        W24802  26.640  39.002   2.336
52477W        W24803   8.684   4.727  13.475
52478W        W24804  31.147  41.272   2.594
52479W        W24805   9.333  40.927  11.378
52480W        W24806   0.295  15.221  14.706
52481W        W24807   1.478  33.799  10.914
52482W        W24808   8.984   7.112   0.418
52483W        W24809  43.774  30.024  10.691
52484W        W24810  16.188  37.956   2.938
52485W        W24811  21.383  26.203  13.486
52486W        W24812   0.812  39.372  13.968
52487W        W24813   2.513  30.495   3.728
52488W        W24814  30.454  33.093   2.707
52489W        W24815   4.631   3.981   5.333
52490W        W24816  26.049  20.582  13.726
52491W        W24817  25.868  17.137  12.093
52492W        W24818  14.018  23.325   2.626
52493W        W24819  32.402  32.554   2.280
52494W        W24820  21.302  21.263   0.737
52495W        W24821   7.379  15.116  12.831
52496W        W24822  21.180  15.812  12.004
52497W        W24823  15.794   8.185   0.054
52498W        W24824  29.189   9.792  14.017
52499W        W24825   8.578  25.419  13.420
52500W        W24826  12.314  21.837   2.838
52501W        W24827   2.301  36.536   4.630
52502W        W24828   6.540  11.816   4.914
52503W        W24829  33.530  12.612  14.673
52504W        W24830  24.045  14.106   0.016
52505W        W24831  31.635  44.479  11.642
52506W        W24832  39.395  24.497  10.662
52507W        W24833  26.752  25.259  14.338
52508W        W24834   7.230  35.609   2.910
52509W        W24835  41.855  23.786   1.616
52510W        W24836  33.937   8.308   0.874
52511W        W24837  30.907  29.636   1.414
52512W        W24838  10.272  27.914  12.422
52513W        W24839  24.475   8.759   2.917
52514W        W24840  13.321  19.516  11.146
52515W        W24841   7.746  13.269  12.027
52516W        W24842  32.510  41.785   4.564
52517W        W24843   7.665  12.593   1.865
52518W        W24844  20.053  33.902   3.771
52519W        W24845  33.869  34.830  11.666
52520W        W24846  15.797   7.763  11.219
52521W        W24847  42.196  30.994   4.069
52522W        W24848  11.562  41.815   0.050
52523W        W24849   3.952  25.240   4.172
52524W        W24850   7.746  44.586  11.580
52525W        W24851  37.346  34.007   4.620
52526W        W24852  42.978  26.625   1.363
52527W        W24853  18.351  22.218   3.315
52528W        W24854   2.174  33.557   4.041
52529W        W24855  11.442   1.759   4.348
52530W        W24856  40.158  22.665  11.651
52531W        W24857  37.437  29.408  13.944
52532W        W24858  37.622  38.952  14.773
52533W        W24859  29.358  16.097  12.005
52534W        W24860  32.165  20.474  14.383
52535W        W24861  29.284   4.378   4.168
52536W        W24862  37.985  18.655   0.497
52537W        W24863   4.715  17.994  11.967
52538W        W24864  31.687  14.385   3.789
52539W        W24865  42.282  39.109  11.496
52540W        W24866  26.514  43.366   4.677
52541W        W24867   0.903  43.883   1.841
52542W        W24868   9.743  39.722  14.452
52543W        W24869  26.411  43.792  12.039
52544W        W24870  33.020  26.546   4.535
52545W        W24871  29.069  34.833   1.415
52546W        W24872  30.754  12.981  11.584
52547W        W24873  36.676  12.173   1.098
52548W        W24874   7.905  21.808  11.865
52549W        W24875  19.673   9.348   3.950
52550W        W24876   4.875  27.163  13.633
52551W        W24877  13.688  29.937   4.135
52552W        W24878  28.641  42.492  11.966
52553W        W24879  21.925  16.801   2.666
52554W        W24880  42.921  43.261   3.743
52555W        W24881  21.608  11.277  12.607
52556W        W24882  14.744  38.597   3.242
52557W        W24883   6.344  27.747  14.891
52558W        W24884  32.379  10.355   0.295
52559W        W24885   1.596  21.735  11.490
52560W        W24886  24.595  43.280  10.899
52561W        W24887  21.171   5.382  11.261
52562W        W24888  18.265  16.236  13.756
52563W        W24889   3.803  40.948   2.229
52564W        W24890  39.383   3.968   2.331
52565W        W24891  31.606  21.181  11.853
52566W        W24892  18.697  37.567   2.425
52567W        W24893  15.796  10.354   5.130
52568W        W24894  22.026  27.435   2.082
52569W        W24895   7.228  44.273  10.755
52570W        W24896  16.657   4.605   4.281
52571W        W24897  21.826  19.085  13.311
52572W        W24898  42.524  17.657  12.136
52573W        W24899   0.558  31.496  10.750
52574W        W24900   1.714  42.111  12.388
52575W        W24901  30.578  21.738  13.357
52576W        W24902  11.155  20.083  14.773
52577W        W24903  29.508  28.055   5.055
52578W        W24904  25.802  41.907  12.953
52579W        W24905  13.649   4.247  14.245
52580W        W24906  33.851  16.175   1.348
52581W        W24907  27.111  25.024  12.490
52582W        W24908   7.828  20.540   4.316
52583W        W24909   7.088  23.904  11.081
52584W        W24910  17.772  38.878  14.873
52585W        W24911  36.940  21.273   2.747
52586W        W24912   3.427  22.713   1.345
52587W        W24913   0.045  33.469   0.783
52588W        W24914  16.732  28.785   4.882
52589W        W24915  15.840  22.880  10.116
52590W        W24916  36.380  24.692  13.314
52591W        W24917   2.389  10.143   4.631
52592W        W24918  28.111  38.824  13.471
52593W        W24919   8.583  40.758   1.763
52594W        W24920  17.183  37.378   2.745
52595W        W24921  28.650  17.800  13.109
52596W        W24922   7.319  30.282  14.164
52597W        W24923  41.994   2.458  12.452
52598W        W24924  29.584  14.121  12.048
52599W        W24925  22.146  11.577  10.532
52600W        W24926  17.862  13.729  10.683
52601W        W24927   7.977  36.177  11.869
52602W        W24928  39.797  23.965  13.032
52603W        W24929  30.495   6.366  12.454
52604W        W24930  19.095   0.324  12.997
52605W        W24931   3.467  11.354  12.987
52606W        W24932  32.516  39.258  11.591
52607W        W24933   2.438  44.051  13.518
52608W        W24934  15.048  36.446   0.725
52609W        W24935  44.447  28.685   0.929
52610W        W24936  18.707  21.983   1.857
52611W        W24937  24.053   9.735  13.754
52612W        W24938  16.710  18.075   1.468
52613W        W24939  12.686   9.794  14.985
52614W        W24940  38.062   4.140  14.774
52615W        W24941   0.643  14.770   0.296
52616W        W24942  42.741   3.815  13.430
52617W        W24943   1.718  13.275  13.508
52618W        W24944   6.722  28.799   0.266
52619W        W24945  34.908  11.637   3.209
52620W        W24946  18.516  37.066  12.489
52621W        W24947  16.149  38.105   3.428
52622W        W24948   6.477  15.594   3.656
52623W        W24949  14.880   4.156  14.842
52624W        W24950   7.701   7.815   3.758
52625W        W24951   9.905   0.546   3.050
52626W        W24952  38.595   7.132  13.857
52627W        W24953  30.126  41.573   3.418
52628W        W24954  12.900  42.270  13.465
52629W        W24955   5.775   0.770   3.809
52630W        W24956  38.664  26.474   0.774
52631W        W24957   4.962   4.027  13.020
52632W        W24958  37.563  14.268  10.634
52633W        W24959  15.685   7.006  13.945
52634W        W24960  29.545  26.516   0.397
52635W        W24961   7.571   5.215  12.600
52636W        W24962  23.537  18.523  11.512
52637W        W24963  10.955  21.341  14.002
52638W        W24964  35.294  38.388  14.560
52639W        W24965  37.730   3.581   3.941
52640W        W24966  44.274  25.214   0.334
52641W        W24967  33.413  37.440  12.308
52642W        W24968  42.326  21.923  13.063
52643W        W24969  23.760  38.822  12.074
52644W        W24970   3.675  19.637   5.044
52645W        W24971   4.368  21.216  11.069
52646W        W24972  36.297  41.821  11.079
52647W        W24973  10.902   1.600   3.727
52648W        W24974   8.778   0.828   1.745
52649W        W24975  32.146  44.018   0.263
52650W        W24976   6.727  25.103   4.039
52651W        W24977   8.863  13.679   3.519
52652W        W24978  39.586  21.001   1.816
52653W        W24979  27.532  34.907  13.575
52654W        W24980  16.626  16.703  14.717
52655W        W24981  25.905  22.800   1.684
52656W        W24982   2.412  23.705  14.010
52657W        W24983  11.798   6.383   1.193
52658W        W24984  35.187  20.727  11.501
52659W        W24985  23.679  29.219  12.620
52660W        W24986  23.511   9.241  11.125
52661W        W24987  29.115  31.424  12.365
52662W        W24988  26.661  29.389  12.900
52663W        W24989  15.576  13.738  14.244
52664W        W24990  28.162  19.555   2.407
52665W        W24991  43.926  10.617   0.917
52666W        W24992  44.251  23.651   4.511
52667W        W24993  40.416  32.984  13.933
52668W        W24994  14.296  26.522  13.234
52669W        W24995  12.779   2.198   0.879
52670W        W24996  32.849  29.543   1.499
52671W        W24997  14.345  41.453   0.691
52672W        W24998   3.326  23.159  14.748
52673W        W24999  41.610  38.897   4.177
52674W        W25000  12.204  15.382   1.250
52675W        W25001  26.251  17.331   4.573
52676W        W25002   4.184  43.571  11.126
52677W        W25003  12.243  23.606  11.166
52678W        W25004  32.021  31.653   1.658
52679W        W25005   2.928  39.560  14.461
52680W        W25006  42.541  17.248  13.431
52681W        W25007  34.398  25.679  12.630
52682W        W25008  24.007  23.685   3.268
52683W        W25009  30.892  17.056   2.868
52684W        W25010  40.336  41.279   1.579
52685W        W25011   1.371   3.682  11.572
52686W        W25012  26.142  13.150   0.709
52687W        W25013  11.125  41.009   0.204
52688W        W25014  20.532   9.207   4.195
52689W        W25015  11.398  13.338  11.714
52690W        W25016  13.133   5.225   0.498
52691W        W25017  28.509  26.985   1.330
52692W        W25018   1.173  15.769   3.725
52693W        W25019  16.056  23.062  13.855
52694W        W25020  33.110  16.795  14.851
52695W        W25021  26.734  13.609  14.794
52696W        W25022   2.067  15.638  14.424
52697W        W25023  34.670   4.181  14.800
52698W        W25024  16.971   9.677   4.212
52699W        W25025  15.145   9.835  12.388
52700W        W25026   4.937  13.810   2.732
52701W        W25027  20.761  12.510   0.284
52702W        W25028  25.948  41.600   2.901
52703W        W25029  18.203  15.324   3.730
52704W        W25030  17.495  27.236  12.972
52705W        W25031  40.270  32.869   0.304
52706W        W25032   1.857  20.676  14.906
52707W        W25033  13.867  26.525   1.788
52708W        W25034  17.804   2.296   4.240
52709W        W25035  26.234  32.482   4.589
52710W        W25036   5.009  40.694  14.385
52711W        W25037  27.141  31.030  11.201
52712W        W25038  13.335   8.434   1.534
52713W        W25039   5.350  29.197   3.824
52714W        W25040  28.939   7.716  13.020
52715W        W25041   6.958  10.771   3.445
52716W        W25042  27.171   6.203  11.043
52717W        W25043  36.553  11.396   3.772
52718W        W25044  21.614   6.278  14.533
52719W        W25045  14.871  30.550  13.368
52720W        W25046  10.503   5.965   4.120
52721W        W25047  40.719   0.687  13.365
52722W        W25048  32.719  28.517  10.743
52723W        W25049  13.549  13.848   3.610
52724W        W25050   8.030  19.664   4.658
52725W        W25051   9.847  23.673  14.260
52726W        W25052   3.412   1.372   4.667
52727W        W25053  15.569  18.674   1.823
52728W        W25054  41.873  15.492   3.227
52729W        W25055  22.778  35.849  12.818
52730W        W25056  42.272  39.409   4.867
52731W        W25057  44.947  43.744   4.464
52732W        W25058   5.275  15.734  13.337
52733W        W25059  27.969  12.591   0.809
52734W        W25060  37.058  13.594  14.516
52735W        W25061  39.763  11.103   4.169
52736W        W25062  21.082  18.486   3.962
52737W        W25063  25.377  15.052  14.365
52738W        W25064  13.492   8.945   1.942
52739W        W25065  41.194   5.389   1.405
52740W        W25066  10.391  41.249   2.272
52741W        W25067  43.806  44.882  10.439
52742W        W25068   6.444  33.920  11.122
52743W        W25069  11.656  40.444   1.865
52744W        W25070  16.165  35.822   1.150
52745W        W25071  28.265  44.426  10.500
52746W        W25072  25.282  35.219  12.486
52747W        W25073  37.601  38.288   4.835
52748W        W25074  18.964  43.200   0.903
52749W        W25075  16.829  36.038   0.187
52750W        W25076  34.179   8.796  14.782
52751W        W25077   3.509   3.150   4.560
52752W        W25078  43.416  38.982  12.863
52753W        W25079   1.701   4.487   3.550
52754W        W25080  30.311  37.389   2.290
52755W        W25081  22.227   0.827  11.632
52756W        W25082  22.995  10.246  14.717
52757W        W25083   0.438   5.160  12.974
52758W        W25084   5.880  42.289   4.496
52759W        W25085  16.841  34.523   2.761
52760W        W25086  13.564   4.961  11.283
52761W        W25087  14.385  20.817  10.831
52762W        W25088  19.534   0.333   3.871
52763W        W25089  14.193  25.830   0.742
52764W        W25090  12.350  35.753   3.377
52765W        W25091   2.295  37.894  13.760
52766W        W25092  22.259  18.232  13.076
52767W        W25093  31.011  13.375   1.318
52768W        W25094  13.210  13.631  11.407
52769W        W25095   9.347  37.745   1.274
52770W        W25096  22.170  21.169   0.255
52771W        W25097   2.230  33.466   4.606
52772W        W25098  10.602  22.763  12.521
52773W        W25099  39.464  10.384   2.431
52774W        W25100  31.394  15.995   1.295
52775W        W25101  18.581  12.321  14.935
52776W        W25102  43.056  40.521   1.239
52777W        W25103   6.211  23.685  14.977
52778W        W25104  15.584  28.966  10.988
52779W        W25105  23.955   3.015  13.032
52780W        W25106  31.400  10.428   2.720
52781W        W25107  31.889  30.491   2.925
52782W        W25108  22.356   7.461   1.451
52783W        W25109  32.125  37.971   2.304
52784W        W25110  21.601  40.783  10.534
52785W        W25111  39.547  26.212  14.493
52786W        W25112  26.056  31.086   2.947
52787W        W25113  40.424   9.754   1.158
52788W        W25114   6.614  17.062   3.383
52789W        W25115   7.797  32.382   1.860
52790W        W25116  34.912   5.544   4.890
52791W        W25117   5.501  13.292  14.826
52792W        W25118  16.254  18.425   1.280
52793W        W25119  28.483  37.861   0.149
52794W        W25120   7.782  38.431  10.408
52795W        W25121  22.308   2.675  13.335
52796W        W25122   3.322   2.494  14.375
52797W        W25123  28.663  31.445   1.297
52798W        W25124  40.914  34.817   4.611
52799W        W25125  32.149  40.242  14.071
52800W        W25126  35.285  44.568  13.972
52801W        W25127  29.593  13.629   4.828
52802W        W25128  16.752  27.392   1.388
52803W        W25129  18.311  29.974  12.194
52804W        W25130  43.078  33.103  11.178
52805W        W25131  22.179   0.837   2.719
52806W        W25132  10.082  36.875  14.388
52807W        W25133  34.162   3.826  11.121
52808W        W25134  43.796  25.008  11.635
52809W        W25135  15.265  44.730  10.820
52810W        W25136   3.234  15.700  13.008
52811W        W25137  34.108  35.512   5.065
52812W        W25138   1.531  12.805   0.714
52813W        W25139  35.023  22.534  13.616
52814W        W25140  22.101  32.393  13.620
52815W        W25141  23.236  15.100   4.248
52816W        W25142  44.190  19.097  10.171
52817W        W25143  12.808  12.466   0.702
52818W        W25144  22.156  37.128   4.488
52819W        W25145  43.607  31.389  12.993
52820W        W25146  28.776  44.781  11.867
52821W        W25147   6.358  36.327   2.166
52822W        W25148  22.610  30.449   3.120
52823W        W25149   4.951  24.047   2.670
52824W        W25150  29.073  14.890   1.312
52825W        W25151  11.138  21.230   3.652
52826W        W25152  39.961  43.981   0.880
52827W        W25153  38.912  31.617  13.796
52828W        W25154   2.085  39.839  14.754
52829W        W25155  25.405  31.428   1.810
52830W        W25156  44.895  26.220  10.649
52831W        W25157  14.827  29.868  10.672
52832W        W25158  39.685  27.522  13.997
52833W        W25159   9.733  27.136   0.591
52834W        W25160  22.670  31.176   3.851
52835W        W25161  30.154   4.501   4.178
52836W        W25162   5.870  22.139  11.060
52837W        W25163  16.437   7.386   1.465
52838W        W25164  37.611  35.199  14.476
52839W        W25165  33.930   4.706   1.795
52840W        W25166  31.404  33.455  14.403
52841W        W25167  42.842  25.756  14.720
52842W        W25168  44.740  11.371  12.426
52843W        W25169  29.881  44.784   2.687
52844W        W25170   1.314  42.518  12.444
52845W        W25171  24.593  38.337   2.688
52846W        W25172  44.219  21.362   0.110
52847W        W25173  40.381  40.705   2.863
52848W        W25174  28.135  17.755  12.453
52849W        W25175  20.993  35.644  12.182
52850W        W25176  36.290  37.871   3.773
52851W        W25177  32.597  15.121   4.699
52852W        W25178  39.952  18.320   3.642
52853W        W25179  32.242   5.180  13.598
52854W        W25180  30.960  34.841  11.876
52855W        W25181  32.657  35.963  12.487
52856W        W25182  31.642  22.680  11.606
52857W        W25183  24.482  26.435   2.899
52858W        W25184  10.899  39.518   1.337
52859W        W25185   8.973  12.339  14.482
52860W        W25186   5.332  26.680   3.221
52861W        W25187  40.971   5.442  12.283
52862W        W25188  28.040  40.897   4.529
52863W        W25189  42.653  13.033  14.432
52864W        W25190  13.843  26.911   3.278
52865W        W25191  17.297  11.133   0.815
52866W        W25192  27.105  31.073   4.713
52867W        W25193  42.042  22.705  11.901
52868W        W25194  27.343  34.604   2.323
52869W        W25195  41.043  18.929  11.593
52870W        W25196  19.102  25.705   1.116
52871W        W25197  40.530  25.210   0.746
52872W        W25198  13.839  39.015   1.766
52873W        W25199   9.273  31.594  14.030
52874W        W25200  34.525  20.983   1.664
52875W        W25201   1.147  10.114   3.914
52876W        W25202   5.037  23.184   1.874
52877W        W25203  42.907   0.014  11.963
52878W        W25204  39.773  38.130   3.756
52879W        W25205  12.114  22.094   3.250
52880W        W25206  30.122  18.526   2.269
52881W        W25207  17.732  28.605  12.175
52882W        W25208  21.483  43.397  11.157
52883W        W25209  17.638  37.489   2.473
52884W        W25210  26.415  37.384   2.850
52885W        W25211  42.370  22.261  12.686
52886W        W25212  43.091   8.994   2.917
52887W        W25213  18.841  16.690  11.561
52888W        W25214  22.679   6.953  11.241
52889W        W25215  21.131   1.825  11.475
52890W        W25216  44.608  28.441  13.449
52891W        W25217  43.294  11.758   1.165
52892W        W25218  10.332  31.211  11.930
52893W        W25219   1.259  14.582  13.064
52894W        W25220  41.815   8.884  13.953
52895W        W25221  13.801  35.648  11.085
52896W        W25222  33.154  19.205  10.726
52897W        W25223   2.240  35.398  10.682
52898W        W25224  21.495   6.747  13.136
52899W        W25225  17.310  30.648  14.099
52900W        W25226   4.721  20.549   0.941
52901W        W25227  40.225  44.061   3.211
52902W        W25228  42.781  19.503   4.392
52903W        W25229  22.541  11.551   0.286
52904W        W25230  28.606  26.970   4.079
52905W        W25231  25.626  16.966   4.972
52906W        W25232  18.686  26.482  13.044
52907W        W25233   7.286   4.163  13.290
52908W        W25234  40.806   3.260   0.563
52909W        W25235  36.364  22.748   4.202
52910W        W25236  12.811  38.096   3.280
52911W        W25237  12.794  25.101  14.311
52912W        W25238  43.917  32.058  13.858
52913W        W25239   9.756  14.499   1.848
52914W        W25240  25.535  33.549  12.432
52915W        W25241  42.978  37.322   3.093
52916W        W25242  37.892   3.654   3.102
52917W        W25243  24.133  35.062  12.890
52918W        W25244  32.927  42.542   2.767
52919W        W25245   3.790  13.533   4.813
52920W        W25246  31.163  34.494   4.139
52921W        W25247  43.193   9.962  10.215
52922W        W25248  14.008  42.179   1.201
52923W        W25249  27.370  25.684  11.134
52924W        W25250  11.926   0.035   3.833
52925W        W25251  25.028  26.710   4.259
52926W        W25252  14.618  40.771   0.546
52927W        W25253  16.608  20.131  11.726
52928W        W25254  37.507   2.126   5.074
52929W        W25255  44.883  22.944  14.698
52930W        W25256  16.651  16.220   4.538
52931W        W25257   4.410   0.188   0.212
52932W        W25258  13.847  33.499   3.342
52933W        W25259  14.825  24.207  13.585
52934W        W25260   4.723  28.541  13.622
52935W        W25261   8.977  31.374   3.652
52936W        W25262  15.806  23.427  10.303
52937W        W25263  19.518   9.223  14.437
52938W        W25264  11.906  15.232   1.649
52939W        W25265   6.876   4.406   1.427
52940W        W25266  28.444  11.751  12.217
52941W        W25267   2.013  27.659  14.971
52942W        W25268   5.381  14.834  14.932
52943W        W25269   3.618   9.086   0.478
52944W        W25270  17.361  25.475   3.307
52945W        W25271  19.293   9.853   2.310
52946W        W25272  28.760  39.036  12.342
52947W        W25273  11.327  34.799  10.620
52948W        W25274  36.154  25.824  11.619
52949W        W25275  23.157  31.906   3.642
52950W        W25276  22.986   1.127   3.524
52951W        W25277  20.321  21.703   4.338
52952W        W25278  24.496  43.948   1.706
52953W        W25279  18.750   5.803  12.161
52954W        W25280  22.753  16.371   0.496
52955W        W25281  33.349   8.074  11.050
52956W        W25282  25.939  25.918  14.907
52957W        W25283  10.733  16.840  12.394
52958W        W25284   6.703  17.609   2.745
52959W        W25285   0.426  20.449  12.444
52960W        W25286  15.695  10.604  10.917
52961W        W25287  35.445  13.661  12.155
52962W        W25288  33.650  16.741  14.107
52963W        W25289  29.990  43.512   2.199
52964W        W25290  43.498  30.123  13.918
52965W        W25291  22.159  15.175   2.213
52966W        W25292   6.804  12.385   3.280
52967W        W25293  44.433  18.140   0.469
52968W        W25294  31.631  34.391   1.800
52969W        W25295  32.566   2.704  12.063
52970W        W25296  16.871  21.568  12.214
52971W        W25297  32.606   2.466   2.721
52972W        W25298   6.151  26.222   3.755
52973W        W25299   0.726  37.916   2.874
52974W        W25300  16.073  30.542  12.873
52975W        W25301  12.383  38.859   0.256
52976W        W25302  21.650  30.068   0.495
52977W        W25303   5.141  39.391  11.515
52978W        W25304  10.286  39.041  14.342
52979W        W25305   8.661   1.422  14.715
52980W        W25306  27.945  10.814  12.000
52981W        W25307  11.592  39.238   3.126
52982W        W25308   3.506  13.667  14.934
52983W        W25309   3.265  32.070  12.466
52984W        W25310  29.972  25.145   2.228
52985W        W25311  32.966  28.474  14.331
52986W        W25312  32.185  24.931  12.467
52987W        W25313   1.656  39.678   3.335
52988W        W25314  36.686  40.015  11.550
52989W        W25315   9.503   6.823   4.931
52990W        W25316  12.728   5.065  12.601
52991W        W25317  40.363  35.869  14.479
52992W        W25318   7.870  17.905   3.698
52993W        W25319  18.269  30.004  14.009
52994W        W25320  38.982  35.578   0.774
52995W        W25321  23.842  39.365  14.800
52996W        W25322  39.454   3.874   0.078
52997W        W25323  14.310   4.383  10.783
52998W        W25324  40.251  18.283  12.064
52999W        W25325   3.785   3.954   1.940
53000W        W25326  27.449  25.297   2.080
53001W        W25327  23.462  22.776   3.545
53002W        W25328   9.655   1.412  11.419
53003W        W25329  11.214  17.540   4.612
53004W        W25330  37.562  12.846   5.352
53005W        W25331  44.702   8.199  13.275
53006W        W25332  18.181  40.269  11.396
53007W        W25333  18.258  39.326   4.858
53008W        W25334  12.987  17.672   2.660
53009W        W25335   4.322  10.138   0.919
53010W        W25336   2.217  42.271  12.553
53011W        W25337  23.888  14.522  10.113
53012W        W25338  10.368  40.481  10.884
53013W        W25339  37.852   0.469   4.638
53014W        W25340   4.757   3.185  11.163
53015W        W25341  22.095   7.213   3.140
53016W        W25342  43.742  38.486   4.585
53017W        W25343  28.191  31.485  11.143
53018W        W25344   8.587  28.641  14.288
53019W        W25345   4.329  19.855   1.625
53020W        W25346  16.497   1.772   2.230
53021W        W25347  29.927  18.554  13.020
53022W        W25348  41.552  21.189   2.256
53023W        W25349   2.271   0.541   3.086
53024W        W25350  16.179  15.060  12.902
53025W        W25351  18.790  10.300  11.903
53026W        W25352  22.787  27.629  12.868
53027W        W25353  24.920  18.254  14.426
53028W        W25354   9.121  44.040   2.749
53029W        W25355  14.589  26.535  11.175
53030W        W25356  38.841   3.448  11.573
53031W        W25357  15.697  34.388  12.258
53032W        W25358  18.535  36.093   4.045
53033W        W25359  20.503  24.193   0.254
53034W        W25360  25.353  26.687   3.491
53035W        W25361  21.466  40.008  12.493
53036W        W25362  27.003   4.782  12.295
53037W        W25363   4.234  38.774  12.002
53038W        W25364  36.858  15.298  13.846
53039W        W25365  42.851   2.618  11.563
53040W        W25366   5.952  38.273  12.922
53041W        W25367  22.736  24.448   4.166
53042W        W25368  22.581  32.987   1.406
53043W        W25369  19.947  12.616   4.624
53044W        W25370   5.911  14.298   0.455
53045W        W25371  40.283  37.069   4.500
53046W        W25372  12.102  11.204  12.507
53047W        W25373  43.900  30.974   1.448
53048W        W25374  31.529  20.996  14.369
53049W        W25375  42.179  22.737  12.823
53050W        W25376  43.816  35.601   4.295
53051W        W25377  44.027  43.734  13.438
53052W        W25378  44.816  14.316  10.836
53053W        W25379  13.444   5.124  12.957
53054W        W25380  21.882  19.011   2.703
53055W        W25381  29.726  36.347   0.448
53056W        W25382  36.775   8.470   1.764
53057W        W25383   8.852   1.250   4.543
53058W        W25384  24.036  37.976   1.538
53059W        W25385  16.865  28.482  14.925
53060W        W25386  13.844   2.973   0.473
53061W        W25387   5.401  40.092   3.190
53062W        W25388  26.886  21.179  12.688
53063W        W25389  22.441  10.702   0.467
53064W        W25390  20.798  21.108   4.917
53065W        W25391   2.958   8.870  10.575
53066W        W25392  38.431  24.275  12.902
53067W        W25393  13.633  41.012   0.960
53068W        W25394  43.333  29.783   1.866
53069W        W25395  12.213  18.955   0.285
53070W        W25396   1.234  16.768   0.314
53071W        W25397   1.342  23.608   5.605
53072W        W25398   1.353  33.630   2.707
53073W        W25399  28.089  40.342   3.825
53074W        W25400  26.427   2.199  13.587
53075W        W25401   3.298  35.539   4.331
53076W        W25402  35.303  22.757  10.978
53077W        W25403  36.510  10.700  10.593
53078W        W25404  11.651   9.778   2.722
53079W        W25405  44.729  29.857  14.813
53080W        W25406  34.087  20.147  11.262
53081W        W25407  42.294  28.424  11.081
53082W        W25408  26.722  34.956  12.106
53083W        W25409  27.110  15.595  13.337
53084W        W25410  32.038  30.183  13.282
53085W        W25411   6.652  17.311   2.318
53086W        W25412   5.460  21.680  10.529
53087W        W25413  21.184   9.215  14.087
53088W        W25414  33.768  16.256   3.490
53089W        W25415   8.693  19.489  12.732
53090W        W25416   0.796  20.716  11.144
53091W        W25417  44.303  29.274  11.001
53092W        W25418  36.235  15.215   1.673
53093W        W25419   6.833  32.659   2.677
53094W        W25420  13.756  15.021   1.759
53095W        W25421   6.933  11.350   0.893
53096W        W25422  18.830  33.096   2.516
53097W        W25423  37.957  29.083   4.395
53098W        W25424   6.950  24.740  10.908
53099W        W25425   3.414  28.445   1.875
53100W        W25426  44.092  27.647  14.664
53101W        W25427   5.931  33.114   2.248
53102W        W25428  26.200  17.122  14.886
53103W        W25429  18.646   5.944   2.002
53104W        W25430   8.042  39.838  11.219
53105W        W25431  34.047   3.492   2.803
53106W        W25432  30.072  20.857   4.695
53107W        W25433  10.237  29.716  12.960
53108W        W25434  43.395  17.557   2.711
53109W        W25435  44.052  36.010  14.300
53110W        W25436  43.506  36.048   2.748
53111W        W25437  13.850   7.478  11.832
53112W        W25438  21.047   3.684   4.570
53113W        W25439  11.136   4.666   3.993
53114W        W25440  25.661  28.343   0.340
53115W        W25441   5.171  14.775  11.074
53116W        W25442  43.548  23.927  11.160
53117W        W25443  31.145  28.895   3.746
53118W        W25444  14.167   1.716  14.553
53119W        W25445  25.165   7.798  14.896
53120W        W25446  40.437  40.112  12.135
53121W        W25447  40.330  34.933   3.328
53122W        W25448  39.668   9.691  10.594
53123W        W25449  29.935  26.031   1.019
53124W        W25450  35.981   0.149   0.543
53125W        W25451  19.520  32.888   2.603
53126W        W25452  39.983  15.581   3.102
53127W        W25453   2.234  36.564  12.857
53128W        W25454  28.089   3.510  13.122
53129W        W25455   6.736  15.339  10.582
53130W        W25456  22.374  14.262   1.125
53131W        W25457  18.538  10.904   0.500
53132W        W25458  26.009   3.737  14.973
53133W        W25459  13.996  39.493  14.466
53134W        W25460  41.356   7.826  11.001
53135W        W25461  39.907  21.788  14.399
53136W        W25462  18.864  30.019   0.584
53137W        W25463  13.087  36.526  12.332
53138W        W25464   1.495   7.185   4.308
53139W        W25465  21.664  42.840  12.906
53140W        W25466  22.182  44.387   4.602
53141W        W25467  32.650  17.371  11.978
53142W        W25468  33.335  26.949  12.982
53143W        W25469   1.999   9.765  13.080
53144W        W25470  31.098  25.153  14.969
53145W        W25471  23.098  15.567  14.309
53146W        W25472   2.671  18.467   3.719
53147W        W25473  29.385  15.327  13.561
53148W        W25474  31.822  32.037   1.346
53149W        W25475  23.948   3.273  14.448
53150W        W25476   3.372  10.836  10.625
53151W        W25477  28.987  39.123  13.099
53152W        W25478  23.752   5.320  13.596
53153W        W25479  32.051  18.575   0.901
53154W        W25480  39.632  36.469  13.928
53155W        W25481  17.128  19.685   4.062
53156W        W25482  18.926  30.162  11.533
53157W        W25483  26.176  40.097  12.375
53158W        W25484  15.739  21.313  11.732
53159W        W25485   5.703   8.380   2.152
53160W        W25486  14.258  39.465  14.907
53161W        W25487  37.539  23.251  10.632
53162W        W25488  44.898   7.204   0.892
53163W        W25489  37.559  26.649  13.894
53164W        W25490  30.017  22.458  13.355
53165W        W25491  25.015  24.992   1.700
53166W        W25492  12.314  37.571  12.362
53167W        W25493  17.941  10.753  11.031
53168W        W25494  11.700  13.109  14.624
53169W        W25495  43.317   4.478  11.442
53170W        W25496  30.519  32.362  10.395
53171W        W25497  38.544  28.647  14.808
53172W        W25498   0.595  37.647  12.121
53173W        W25499  36.904  35.275  14.866
53174W        W25500   1.689  29.300   4.319
53175W        W25501  28.254  35.505  11.188
53176W        W25502  40.475  31.303   1.357
53177W        W25503  38.522  27.048   2.086
53178W        W25504  11.857  27.969  14.217
53179W        W25505  40.401  20.921   3.586
53180W        W25506   5.365  29.178  12.001
53181W        W25507  31.964  27.063  10.912
53182W        W25508  31.129   6.637  11.495
53183W        W25509   7.135  42.847  14.797
53184W        W25510  14.040  25.952  11.507
53185W        W25511  22.651   0.001  12.657
53186W        W25512   8.396  23.655   4.448
53187W        W25513  30.013  12.556  14.589
53188W        W25514   0.191   1.833  10.708
53189W        W25515  23.035  37.320  13.263
53190W        W25516  19.680   5.881  11.709
53191W        W25517  18.005   2.215   2.171
53192W        W25518   2.177  21.440  12.504
53193W        W25519  26.864  23.224  12.756
53194W        W25520  39.303  22.968   0.715
53195W        W25521  20.553  33.040   0.681
53196W        W25522   8.152  39.071   4.154
53197W        W25523   7.067   3.870  12.451
53198W        W25524   5.170  17.533  10.923
53199W        W25525  37.459   0.873   4.693
53200W        W25526   1.758   6.811   3.131
53201W        W25527  39.489  34.662  11.522
53202W        W25528   4.321  12.349   0.370
53203W        W25529  43.120   8.938  13.454
53204W        W25530  37.185  41.578   3.774
53205W        W25531  29.335  10.615   2.829
53206W        W25532   2.782  34.518   0.511
53207W        W25533  20.686  18.228   2.004
53208W        W25534  44.644   8.679  14.533
53209W        W25535  44.038   4.807   3.762
53210W        W25536  20.809   0.979  12.564
53211W        W25537   6.568  28.532   2.537
53212W        W25538  31.038   3.183  14.252
53213W        W25539   3.293  23.700   4.688
53214W        W25540  34.916  43.178  11.122
53215W        W25541  13.770  24.908   9.739
53216W        W25542   3.030  15.936   5.128
53217W        W25543  35.948   6.290   3.811
53218W        W25544  15.762  13.362  14.522
53219W        W25545   5.396  40.381  14.868
53220W        W25546  23.997   4.730  13.604
53221W        W25547  43.686  22.279  11.228
53222W        W25548  36.924  27.043  10.628
53223W        W25549  36.036  32.070  14.549
53224W        W25550  17.559   3.023   0.304
53225W        W25551   2.353  36.005  10.255
53226W        W25552  32.459  40.615   2.402
53227W        W25553  19.514   1.902   3.158
53228W        W25554  28.367   2.861  14.768
53229W        W25555  12.779  10.352  13.032
53230W        W25556  19.730   4.778  10.620
53231W        W25557   4.848  21.740   1.407
53232W        W25558  34.115  29.748   1.354
53233W        W25559  10.115  24.719  11.876
53234W        W25560  13.657  21.664  11.590
53235W        W25561  18.074  10.207   2.324
53236W        W25562  32.014   0.434   3.910
53237W        W25563  23.093   5.807  14.384
53238W        W25564  37.772  25.525  13.407
53239W        W25565  34.493  28.041  14.340
53240W        W25566  14.659  12.754  11.991
53241W        W25567  15.796  26.996  13.344
53242W        W25568  39.110   1.903   2.123
53243W        W25569  19.592  17.832   0.728
53244W        W25570  36.021  29.884  10.437
53245W        W25571  27.421  37.490   3.754
53246W        W25572  40.790  35.068   3.662
53247W        W25573  32.928  12.784  13.130
53248W        W25574  18.784  36.026  14.042
53249W        W25575  14.808  40.131   3.241
53250W        W25576  39.543  10.894   0.802
53251W        W25577  43.274  43.327  14.898
53252W        W25578  25.525  24.275  11.559
53253W        W25579  44.296   9.903  13.959
53254W        W25580  25.086  35.531  12.841
53255W        W25581  13.930  37.889   3.570
53256W        W25582  11.152   2.666   2.777
53257W        W25583  17.601  37.461  14.833
53258W        W25584  34.215  16.330   3.735
53259W        W25585   5.167   1.451   0.342
53260W        W25586  12.616  13.359   2.266
53261W        W25587  43.867  20.547   1.221
53262W        W25588  11.623  30.960   4.865
53263W        W25589  28.395  11.205  11.116
53264W        W25590  31.497  13.758   0.744
53265W        W25591  39.300  31.155   3.667
53266W        W25592  43.840  26.459  11.852
53267W        W25593   1.022   5.319  13.399
53268W        W25594  22.745  28.939  12.461
53269W        W25595  26.888  37.494   3.825
53270W        W25596  24.754  34.118  14.096
53271W        W25597  22.863  31.560  10.772
53272W        W25598  13.533  17.167   9.794
53273W        W25599  32.961  38.841   2.410
53274W        W25600   1.726  25.031  11.873
53275W        W25601   1.231   8.408  14.916
53276W        W25602  22.739  24.430   3.260
53277W        W25603   7.360  21.595  10.343
53278W        W25604  15.343  36.130   4.268
53279W        W25605  38.290  27.946  12.907
53280W        W25606  31.014  14.997   2.663
53281W        W25607  16.026  10.740   1.932
53282W        W25608  18.074   4.938   4.619
53283W        W25609  23.980  19.264   2.748
53284W        W25610   3.283   0.828  10.607
53285W        W25611   2.471   4.321  12.000
53286W        W25612  35.044  30.922   0.869
53287W        W25613  43.408  40.505   1.649
53288W        W25614  44.543  14.332  12.686
53289W        W25615   9.316  22.502   0.500
53290W        W25616  36.983   5.864  10.694
53291W        W25617  20.559  29.066  10.712
53292W        W25618  19.490   9.370   2.079
53293W        W25619  28.464  41.322  13.145
53294W        W25620   7.891  13.688   4.325
53295W        W25621  21.131  21.470  14.896
53296W        W25622  42.765  33.538  11.065
53297W        W25623   0.517  12.382  12.445
53298W        W25624  13.633  28.855   0.964
53299W        W25625  30.102  17.116   2.653
53300W        W25626   4.282   4.161  13.879
53301W        W25627  30.326  15.180   1.260
53302W        W25628  31.906  25.969   1.770
53303W        W25629  31.716  43.228   3.397
53304W        W25630  10.801  18.728  11.006
53305W        W25631  12.777  42.347   3.934
53306W        W25632  22.045   9.824  13.089
53307W        W25633   9.293  42.326  13.395
53308W        W25634  13.587  35.528  13.297
53309W        W25635  41.025  35.127   0.502
53310W        W25636  40.031  30.580   4.440
53311W        W25637  39.827  43.488   0.974
53312W        W25638  10.015   2.533  10.563
53313W        W25639  25.472  29.175  10.560
53314W        W25640  29.347  42.458   1.253
53315W        W25641  34.051  18.599  11.931
53316W        W25642  38.723   9.430   0.248
53317W        W25643  20.562  11.459   3.394
53318W        W25644  37.315  19.276   2.172
53319W        W25645  13.328  39.007   3.847
53320W        W25646  40.489  23.989  10.687
53321W        W25647   1.910  21.547  11.113
53322W        W25648  42.953  20.071  12.330
53323W        W25649   6.124  13.147   2.776
53324W        W25650   9.306  33.206   0.357
53325W        W25651   3.338  27.040   0.318
53326W        W25652  29.077  43.781  12.940
53327W        W25653  30.331  15.034  13.605
53328W        W25654  15.127  26.165   4.933
53329W        W25655   4.486  25.471  14.018
53330W        W25656  13.866  31.654  11.483
53331W        W25657  25.727  32.601   1.167
53332W        W25658  21.298  15.625   2.616
53333W        W25659   7.885  33.062  10.803
53334W        W25660  29.377  29.325   4.020
53335W        W25661  41.243  38.504  11.013
53336W        W25662  11.184  14.594  11.160
53337W        W25663  18.270   9.424   3.343
53338W        W25664  37.496   5.713   0.814
53339W        W25665  10.867  11.966   0.376
53340W        W25666  32.646  35.481  13.873
53341W        W25667  14.552  31.943   3.204
53342W        W25668  15.768  18.446   3.169
53343W        W25669  11.416  15.297  10.686
53344W        W25670  41.830  12.921  14.616
53345W        W25671  26.990  15.684   4.307
53346W        W25672  20.107  42.956  11.002
53347W        W25673  14.146  31.151   0.241
53348W        W25674  18.501  23.363  11.398
53349W        W25675   2.104   6.300  12.628
53350W        W25676   0.488  34.401  13.344
53351W        W25677  21.251  42.331   2.167
53352W        W25678  44.465   6.138  14.921
53353W        W25679  34.565  41.828   3.857
53354W        W25680  36.648  44.436   0.144
53355W        W25681  11.606  29.105   3.736
53356W        W25682  31.174  21.165   0.569
53357W        W25683  35.073  23.139   1.473
53358W        W25684  32.718   0.945  13.941
53359W        W25685  24.635  24.717  14.922
53360W        W25686  25.078  44.657  13.003
53361W        W25687  21.698   0.743   2.889
53362W        W25688  26.718  13.156  10.706
53363W        W25689  20.582  23.287  11.506
53364W        W25690  34.300  12.841  12.647
53365W        W25691  28.976  40.319   0.961
53366W        W25692  41.803   2.283   0.623
53367W        W25693  40.313  33.134   2.209
53368W        W25694  37.370  36.369  13.018
53369W        W25695   2.840  22.428  13.767
53370W        W25696  20.671  29.702   1.830
53371W        W25697  44.981  22.735   1.428
53372W        W25698   9.952  34.303  12.904
53373W        W25699  30.946   1.340  12.451
53374W        W25700   9.512  25.240   1.988
53375W        W25701  12.769  10.156   0.375
53376W        W25702  42.419  20.149  13.093
53377W        W25703  16.724   3.247   1.699
53378W        W25704  38.653  33.841   0.871
53379W        W25705  41.912   5.825  14.345
53380W        W25706  27.542  17.131  13.400
53381W        W25707  30.174  44.519   1.469
53382W        W25708   9.240  12.206   2.412
53383W        W25709  39.400  23.103  12.138
53384W        W25710  17.815  13.879  12.867
53385W        W25711   0.684   7.140   1.381
53386W        W25712  41.872  24.402   0.372
53387W        W25713   4.055  10.779  11.709
53388W        W25714   7.604   4.254  10.627
53389W        W25715  42.242  20.128   1.748
53390W        W25716  20.567  43.410  13.607
53391W        W25717  38.193  29.549  14.348
53392W        W25718  23.765  41.299   0.304
53393W        W25719   3.228  33.488   2.822
53394W        W25720   5.877   5.071  11.991
53395W        W25721  26.938  16.371  14.474
53396W        W25722   2.146  16.251  11.809
53397W        W25723   5.001   7.907   4.175
53398W        W25724  11.181  30.493  12.540
53399W        W25725  30.146  11.370   0.958
53400W        W25726  18.310   5.862  11.124
53401W        W25727   3.615  27.455   2.726
53402W        W25728  13.430   5.669  13.025
53403W        W25729  35.140  16.457  11.194
53404W        W25730  24.014   8.797  11.586
53405W        W25731   9.296  11.735  11.927
53406W        W25732   9.275  43.154   0.088
53407W        W25733  41.766  16.281   2.843
53408W        W25734  21.439  35.756   4.107
53409W        W25735  43.262  18.672   0.183
53410W        W25736   4.426  36.338   0.013
53411W        W25737  25.464  23.838  12.678
53412W        W25738  16.540   6.307   4.148
53413W        W25739  33.508  28.024  10.786
53414W        W25740  40.282  20.871  14.413
53415W        W25741  34.775  21.745   1.194
53416W        W25742  44.412  20.732  12.929
53417W        W25743  42.361  38.456  13.404
53418W        W25744  34.808  36.909  14.418
53419W        W25745  16.297  16.553  12.864
53420W        W25746  35.041  32.920  12.535
53421W        W25747   7.253  44.517  14.298
53422W        W25748  16.660  31.877   4.782
53423W        W25749  44.714  32.550   3.788
53424W        W25750  25.587  35.589   2.378
53425W        W25751   2.452  30.126  12.579
53426W        W25752  25.728  36.865  13.351
53427W        W25753  25.228  18.448   5.057
53428W        W25754   0.350  25.656   1.852
53429W        W25755   5.302  39.435  11.041
53430W        W25756  33.844  41.514  11.837
53431W        W25757  34.614  44.282   3.641
53432W        W25758  15.629  31.933   3.642
53433W        W25759  25.452  29.450   2.174
53434W        W25760  28.910   4.555  13.469
53435W        W25761   5.440  10.682   4.350
53436W        W25762  34.911  27.104   0.270
53437W        W25763  39.010  19.259   1.530
53438W        W25764  13.846  44.481   4.468
53439W        W25765  17.622   3.336   1.694
53440W        W25766   2.819   6.935  13.755
53441W        W25767  26.116  15.084  14.879
53442W        W25768  31.070  37.113   0.826
53443W        W25769  42.406  22.777  13.337
53444W        W25770  30.866   7.439  12.387
53445W        W25771  36.768  15.370  14.830
53446W        W25772   3.465  18.806   2.976
53447W        W25773  21.467  36.060   3.287
53448W        W25774  40.066  28.806   2.330
53449W        W25775  15.404   8.801   4.036
53450W        W25776  16.141   6.410  12.755
53451W        W25777  19.740  14.192   1.250
53452W        W25778  24.943  11.881  13.818
53453W        W25779  10.455  42.033   1.898
53454W        W25780  28.568  29.567  11.585
53455W        W25781  41.799   8.447  12.944
53456W        W25782  34.475  40.508  14.206
53457W        W25783  12.395  16.912  14.324
53458W        W25784   7.167  38.987   3.254
53459W        W25785  23.177   3.074  14.402
53460W        W25786  17.581   4.692   4.692
53461W        W25787  36.962  38.615   0.624
53462W        W25788  42.853   0.368  14.327
53463W        W25789  17.585  18.656   3.153
53464W        W25790   7.210  19.622  14.493
53465W        W25791  15.375  13.824   2.038
53466W        W25792  43.239  16.787   4.602
53467W        W25793  25.620  18.743   4.854
53468W        W25794  32.266  20.128   4.412
53469W        W25795  39.522  21.703  14.074
53470W        W25796  38.335  39.417  13.906
53471W        W25797  26.695  20.134   0.894
53472W        W25798   0.567   6.823  11.241
53473W        W25799  44.076   6.310  13.963
53474W        W25800  21.049  14.084  14.846
53475W        W25801  36.495  11.518   3.244
53476W        W25802  16.829  17.486  10.967
53477W        W25803  26.622  25.389   0.403
53478W        W25804  38.835  11.331  13.336
53479W        W25805  29.584  16.331  13.316
53480W        W25806   4.801  35.493  14.850
53481W        W25807  42.619  16.765   3.960
53482W        W25808  24.233  27.964   4.135
53483W        W25809  30.196  17.719   1.363
53484W        W25810  32.801   0.223  14.930
53485W        W25811  21.611   3.370  11.593
53486W        W25812  15.661   1.245  14.802
53487W        W25813  30.233  32.441  14.594
53488W        W25814  33.781  26.564  14.815
53489W        W25815  27.517  19.658   0.906
53490W        W25816  19.267  32.002  12.492
53491W        W25817  24.491  18.451   5.530
53492W        W25818  15.714  22.494  12.533
53493W        W25819  40.074   2.137  12.054
53494W        W25820   8.177  27.892   2.850
53495W        W25821   1.903  38.295  12.941
53496W        W25822  42.863   1.678  14.814
53497W        W25823  12.609  44.470   1.888
53498W        W25824  18.711  29.140  12.614
53499W        W25825   6.460  33.510   4.312
53500W        W25826  30.477  34.047  13.081
53501W        W25827  22.149  24.068   2.621
53502W        W25828  33.550  42.506   0.776
53503W        W25829  16.599   2.691   1.385
53504W        W25830   3.742   3.440   1.922
53505W        W25831   8.444  12.350  14.493
53506W        W25832  12.709  17.685  13.568
53507W        W25833  32.198  42.328  11.236
53508W        W25834  42.830  42.956   0.946
53509W        W25835  19.808   7.263  14.894
53510W        W25836  16.972  38.329  11.882
53511W        W25837  30.534   3.493  10.942
53512W        W25838  31.953  24.556  10.523
53513W        W25839  33.324  36.829  14.409
53514W        W25840  37.693  27.695   2.302
53515W        W25841  31.576   8.569  14.940
53516W        W25842  12.846  36.130   1.885
53517W        W25843  35.667  31.693  14.482
53518W        W25844  22.032  26.191   4.441
53519W        W25845  19.637  24.142   4.569
53520W        W25846  35.464  42.303   4.322
53521W        W25847  36.277   4.022   4.295
53522W        W25848  16.888   6.167   0.601
53523W        W25849  18.600  40.515  13.439
53524W        W25850  42.062   6.925  14.809
53525W        W25851   5.250  15.495  11.759
53526W        W25852  13.380   7.327   4.558
53527W        W25853  25.199  39.563   4.559
53528W        W25854  22.744  15.115  10.646
53529W        W25855  14.194   2.872  10.700
53530W        W25856   0.679  25.142  11.903
53531W        W25857  18.852  25.595  14.284
53532W        W25858  41.387  11.361  10.402
53533W        W25859  26.992  44.711  14.281
53534W        W25860   3.884  30.990   2.384
53535W        W25861  12.709  21.594   3.767
53536W        W25862  22.572  42.316   3.102
53537W        W25863  40.376  29.584   3.239
53538W        W25864   6.649  31.406   2.407
53539W        W25865   5.854  13.608   2.937
53540W        W25866  34.962  30.517   0.221
53541W        W25867  18.802  33.884  10.898
53542W        W25868  43.358  26.401  12.120
53543W        W25869   6.912  17.685   1.423
53544W        W25870  31.258  25.125   0.896
53545W        W25871  44.000  23.825   2.677
53546W        W25872   6.476  30.044  14.222
53547W        W25873  39.344  35.595   2.720
53548W        W25874  19.174  29.997   3.722
53549W        W25875  25.147  27.650  11.110
53550W        W25876  32.851   1.264   1.290
53551W        W25877   1.785   3.196  12.910
53552W        W25878  24.875  17.833  11.621
53553W        W25879  42.529   1.999  12.907
53554W        W25880  40.476  39.010  11.249
53555W        W25881  30.044  13.561   2.429
53556W        W25882  18.544  13.223   2.941
53557W        W25883   3.869  25.687  12.607
53558W        W25884  11.256  19.223   3.331
53559W        W25885  10.440  35.514   3.292
53560W        W25886  14.579  40.577   3.316
53561W        W25887  25.832  19.693  12.258
53562W        W25888  33.481  14.370  11.627
53563W        W25889  18.969  24.918   1.028
53564W        W25890  24.899  15.911  11.087
53565W        W25891  43.957  13.918   0.404
53566W        W25892  28.593   2.887   0.757
53567W        W25893  12.151  44.582   4.168
53568W        W25894   1.586  23.241   1.229
53569W        W25895  36.986   6.236  12.044
53570W        W25896   4.436  41.850  10.716
53571W        W25897  11.118  19.053  11.728
53572W        W25898  35.651  22.006   0.356
53573W        W25899  33.622  29.810   1.121
53574W        W25900  42.510  25.646   3.139
53575W        W25901  29.006  29.911  11.517
53576W        W25902   5.526  34.268  10.899
53577W        W25903   9.385  21.199   4.056
53578W        W25904  39.011   4.885   3.134
53579W        W25905   5.179  27.285  12.012
53580W        W25906  33.538  24.448  12.532
53581W        W25907   7.153  11.112   3.774
53582W        W25908   2.743   0.710   3.821
53583W        W25909  36.145  20.633  14.640
53584W        W25910   1.463  13.148   4.818
53585W        W25911  30.514  26.820   3.217
53586W        W25912   0.400  16.243   1.434
53587W        W25913  20.640  13.324  10.498
53588W        W25914  26.355  11.137   4.212
53589W        W25915  23.679   9.400   0.421
53590W        W25916  22.671  29.954  12.250
53591W        W25917  41.674  16.472  11.152
53592W        W25918   7.831   6.102  11.372
53593W        W25919  26.665  27.295  14.013
53594W        W25920  36.532  44.916   0.877
53595W        W25921   6.233  31.053  13.311
53596W        W25922  18.856  22.994   3.606
53597W        W25923  11.320   6.020  11.812
53598W        W25924   0.026   6.355   2.208
53599W        W25925  38.429  12.331  14.239
53600W        W25926  15.626  28.654   3.754
53601W        W25927  12.639   2.027   3.277
53602W        W25928  23.184   5.309   4.463
53603W        W25929  42.367   0.955  14.744
53604W        W25930  15.544  43.754   0.419
53605W        W25931  18.234  44.821   3.857
53606W        W25932  38.052   2.425  13.945
53607W        W25933  24.190  20.513  10.701
53608W        W25934  31.086  28.727  13.598
53609W        W25935   8.158  38.092  11.148
53610W        W25936  40.890  21.254  10.903
53611W        W25937  28.435  27.468   4.090
53612W        W25938  26.546  15.898   3.625
53613W        W25939  26.407  19.223  14.679
53614W        W25940  23.769  30.088   3.839
53615W        W25941  36.610  10.540   3.450
53616W        W25942  20.273  43.906   3.568
53617W        W25943  16.647  24.695   0.854
53618W        W25944  27.640  40.940  13.296
53619W        W25945   3.287   6.865   1.423
53620W        W25946  24.877  16.661  11.058
53621W        W25947  12.846  38.122  14.671
53622W        W25948  23.108   6.791  14.461
53623W        W25949  38.201  26.987   1.228
53624W        W25950  36.095  31.598   3.855
53625W        W25951  38.314  35.674   2.684
53626W        W25952  17.638  44.857   1.203
53627W        W25953  40.962  24.504   3.250
53628W        W25954  13.909  10.628  14.452
53629W        W25955   3.705  43.292   1.648
53630W        W25956  42.235   6.416  13.523
53631W        W25957  22.207   9.179  15.000
53632W        W25958  28.748  43.108  13.437
53633W        W25959  42.097  37.315   1.270
53634W        W25960  21.078  18.544  11.213
53635W        W25961  29.980   5.900   3.779
53636W        W25962  25.351   7.635   1.989
53637W        W25963  10.640  31.444   2.093
53638W        W25964  41.981  15.228  12.829
53639W        W25965  24.742   7.231  14.916
53640W        W25966  13.309  15.105  13.858
53641W        W25967  16.115   7.883  10.819
53642W        W25968  39.004  31.668   2.746
53643W        W25969  36.894  19.243   0.346
53644W        W25970  35.726  33.536   0.548
53645W        W25971   9.852  22.479   1.882
53646W        W25972  40.964  39.264  11.149
53647W        W25973  13.190  14.375   4.718
53648W        W25974   3.326   0.857   4.602
53649W        W25975  44.910  24.813   1.075
53650W        W25976   9.802  12.272   4.660
53651W        W25977  26.847  21.588  11.500
53652W        W25978  24.461  40.457  13.059
53653W        W25979  34.366   8.043   0.697
53654W        W25980  31.927  15.765  10.758
53655W        W25981   6.628  38.475   3.678
53656W        W25982  42.744  25.644  12.920
53657W        W25983  44.133  14.399   0.239
53658W        W25984  25.249  21.122   5.123
53659W        W25985  12.585   2.942   3.725
53660W        W25986  28.594  36.149  11.619
53661W        W25987  25.560  38.744   1.726
53662W        W25988   7.274   5.714  10.901
53663W        W25989  33.943  41.735  13.960
53664W        W25990  28.334  14.113  11.421
53665W        W25991   4.221  19.183   2.356
53666W        W25992  23.693  19.600  14.390
53667W        W25993  36.433   7.771  13.407
53668W        W25994  35.447  20.277   4.356
53669W        W25995  18.207  44.571  13.190
53670W        W25996  20.148   7.227  10.952
53671W        W25997  35.024  18.743  14.542
53672W        W25998  36.271  14.545   2.201
53673W        W25999  37.409  32.565  14.343
53674W        W26000  42.202  39.437   1.198
53675W        W26001  41.163  22.158   2.562
53676W        W26002   3.226  24.572   1.716
53677W        W26003  17.236  21.690   4.030
53678W        W26004   0.621  38.723  11.611
53679W        W26005  14.797  23.522   3.187
53680W        W26006  35.476  28.573  12.573
53681W        W26007  25.456  29.435  13.027
53682W        W26008  20.767   4.144   2.683
53683W        W26009  18.085  16.312  11.944
53684W        W26010  32.900  22.618   1.823
53685W        W26011  30.106  16.079  14.092
53686W        W26012  10.462  13.443  10.835
53687W        W26013   4.374  43.014   2.722
53688W        W26014  40.196  30.023  12.913
53689W        W26015  14.163  38.011   4.036
53690W        W26016  12.700   4.457   1.775
53691W        W26017  24.226  26.491   4.677
53692W        W26018   5.194  28.457   0.651
53693W        W26019  14.266  12.614  13.553
53694W        W26020  37.770   7.268   3.111
53695W        W26021   0.834  16.193   0.527
53696W        W26022  40.347  39.068  12.113
53697W        W26023   4.626  22.769  13.647
53698W        W26024   2.020   2.379  10.756
53699W        W26025  16.415  35.784  13.909
53700W        W26026  24.207   4.792  11.984
53701W        W26027  11.509  10.383   0.940
53702W        W26028  42.088  34.808  10.309
53703W        W26029  37.816   9.074  10.842
53704W        W26030   3.359  42.480   4.260
53705W        W26031  30.801  28.016  12.482
53706W        W26032   8.344  42.025   4.579
53707W        W26033  41.816  29.228  10.665
53708W        W26034  23.170   3.619  11.009
53709W        W26035  30.826  23.204   2.280
53710W        W26036   3.181  40.536  11.655
53711W        W26037  29.468  14.565   2.552
53712W        W26038  12.137  10.394  14.031
53713W        W26039  30.740   0.019  12.075
53714W        W26040  38.102  22.059  13.571
53715W        W26041  22.117  13.134   3.803
53716W        W26042  30.439  14.543   3.824
53717W        W26043  15.871  13.119   2.306
53718W        W26044  31.908   8.256  13.539
53719W        W26045  31.185  44.920  12.358
53720W        W26046   3.377  18.569  14.918
53721W        W26047  29.273  20.814  11.104
53722W        W26048  26.061  19.734   4.212
53723W        W26049  11.733  41.981  12.083
53724W        W26050  30.180  13.162   0.726
53725W        W26051   4.652  34.783   1.230
53726W        W26052  30.234   9.127  13.429
53727W        W26053  29.978  21.172  11.490
53728W        W26054  22.306  14.568   3.859
53729W        W26055  31.279  18.316   1.400
53730W        W26056   0.422   6.672  14.855
53731W        W26057  27.032  43.474   0.772
53732W        W26058  11.418  14.790  11.575
53733W        W26059   8.173  15.591  12.579
53734W        W26060  37.961  36.495  14.723
53735W        W26061  27.699  38.303   1.419
53736W        W26062  41.447  43.416  13.375
53737W        W26063  15.473  26.938  12.033
53738W        W26064  26.978  11.107  12.401
53739W        W26065  31.870  21.051  10.633
53740W        W26066  27.444  30.123   4.674
53741W        W26067  28.069  42.319   2.544
53742W        W26068  14.685  28.841  10.713
53743W        W26069   2.470  14.207  10.634
53744W        W26070   5.035  43.478  10.612
53745W        W26071  27.427  24.932   0.696
53746W        W26072  36.505  31.357  12.006
53747W        W26073   4.890  19.350  13.937
53748W        W26074  23.210  16.397   0.268
53749W        W26075   1.416  41.257   4.845
53750W        W26076   9.873   6.723   4.592
53751W        W26077  33.869  10.672  11.405
53752W        W26078   2.436  12.287   0.253
53753W        W26079  11.281  35.036  11.112
53754W        W26080  38.391  16.142   4.670
53755W        W26081   5.925   0.519   0.470
53756W        W26082  10.214  10.700  10.624
53757W        W26083  19.711  32.978   4.158
53758W        W26084  42.400  15.129  13.590
53759W        W26085  29.472  42.391  14.337
53760W        W26086  11.348  12.952   2.274
53761W        W26087  17.475   1.539   0.919
53762W        W26088  38.409   4.435   2.095
53763W        W26089  34.631  16.243  10.519
53764W        W26090  28.708  28.586  14.116
53765W        W26091  44.349   9.631   2.277
53766W        W26092  40.203   9.310   1.271
53767W        W26093  35.906  10.688  13.540
53768W        W26094   4.372  21.817   3.400
53769W        W26095  11.886   1.814  13.618
53770W        W26096   2.460  30.108   2.851
53771W        W26097  34.430  25.678   2.878
53772W        W26098  41.935  34.490  10.696
53773W        W26099  21.213  36.874  13.029
53774W        W26100  38.076  27.636   3.173
53775W        W26101  12.208  11.713   0.968
53776W        W26102  11.245  41.532  10.698
53777W        W26103  26.854  41.578   2.502
53778W        W26104  42.586   5.210  13.769
53779W        W26105  13.365  14.640  13.043
53780W        W26106  15.336  29.767   4.138
53781W        W26107  33.981  33.979  14.033
53782W        W26108  13.068  33.636  13.934
53783W        W26109  17.311   5.774  11.169
53784W        W26110  19.171  10.336   0.483
53785W        W26111  15.525  38.347   4.865
53786W        W26112  25.716  20.666  10.590
53787W        W26113  29.599  39.829  10.983
53788W        W26114  20.584   2.394   2.680
53789W        W26115  19.187   2.001   0.733
53790W        W26116  40.508   4.231  10.739
53791W        W26117  44.596  25.917  14.806
53792W        W26118  33.653  21.602  14.322
53793W        W26119  25.649  37.298  10.126
53794W        W26120  43.224  42.420   4.172
53795W        W26121   3.247  40.216   2.396
53796W        W26122   3.036  32.665  14.337
53797W        W26123  21.158  25.051   4.608
53798W        W26124  34.757  37.509  13.706
53799W        W26125  29.178  31.424  13.743
53800W        W26126   6.908  38.971   3.708
53801W        W26127  34.016  44.509  12.426
53802W        W26128  16.194  41.290   0.965
53803W        W26129  29.984   3.933  13.790
53804W        W26130  20.678  20.633   4.643
53805W        W26131  28.654   7.345  14.806
53806W        W26132  43.004  20.685   3.160
53807W        W26133  41.453  31.517  14.967
53808W        W26134  29.839  28.653  12.862
53809W        W26135  28.812  41.091  10.344
53810W        W26136  11.392  24.770   0.962
53811W        W26137  37.525  38.141  12.060
53812W        W26138  21.247  25.008  12.116
53813W        W26139  28.116  15.890   1.072
53814W        W26140  35.567   7.260   0.818
53815W        W26141  31.946  10.567   4.651
53816W        W26142  23.638  40.797  10.919
53817W        W26143  29.067  42.737   4.246
53818W        W26144  42.633  30.486  11.885
53819W        W26145  36.703  44.697  12.059
53820W        W26146  32.006  15.600  11.236
53821W        W26147  13.288  15.714   0.094
53822W        W26148   3.288  39.826  14.926
53823W        W26149  41.913  14.320   2.441
53824W        W26150   5.798  41.312   2.621
53825W        W26151  43.961  26.189  10.502
53826W        W26152  33.933   3.320   0.387
53827W        W26153  15.163   2.837   2.804
53828W        W26154   0.811  22.987  10.679
53829W        W26155  19.647  16.164  14.316
53830W        W26156  39.941  22.715   3.594
53831W        W26157  42.962  28.921   4.672
53832W        W26158  25.134  38.586  11.186
53833W        W26159   1.349  22.263   4.948
53834W        W26160   9.471   0.282   0.036
53835W        W26161  10.666  39.758  10.450
53836W        W26162  42.065   0.396   2.336
53837W        W26163   9.370  21.645   2.822
53838W        W26164  34.115  32.837   5.102
53839W        W26165  12.383  34.714   4.130
53840W        W26166  14.667  30.085  12.458
53841W        W26167  44.767   4.647  11.705
53842W        W26168  20.000  44.820  13.474
53843W        W26169  42.968  29.113  11.236
53844W        W26170  29.971  11.089   3.407
53845W        W26171  13.222  44.969   3.918
53846W        W26172  30.984  38.340   2.875
53847W        W26173  17.566  16.367   4.385
53848W        W26174  36.984  12.376  10.094
53849W        W26175  25.533  11.240  13.510
53850W        W26176  28.948   8.176   4.148
53851W        W26177  20.550  18.759   0.769
53852W        W26178  38.356  15.198   4.650
53853W        W26179  13.449  15.732   2.424
53854W        W26180  20.424  13.272   3.125
53855W        W26181  10.710  33.179   3.319
53856W        W26182  39.974  21.653   2.781
53857W        W26183  16.457  37.510  12.873
53858W        W26184  11.425   3.291  11.981
53859W        W26185  22.155  27.515  14.334
53860W        W26186  10.190  12.341   2.887
53861W        W26187  25.438  29.426   4.572
53862W        W26188  22.675  43.466   2.829
53863W        W26189   1.198  35.910  11.969
53864W        W26190  23.001  43.412  13.602
53865W        W26191   1.300   2.225   1.400
53866W        W26192   0.869  20.633  10.639
53867W        W26193  25.453  13.876   2.396
53868W        W26194   6.584  22.657  10.294
53869W        W26195  23.225  29.115  10.468
53870W        W26196  15.179  22.582   2.200
53871W        W26197  33.007   0.108  14.352
53872W        W26198  24.761  20.012   1.743
53873W        W26199  34.040  25.728   2.300
53874W        W26200   8.972  21.135  10.546
53875W        W26201  25.774  25.024   1.163
53876W        W26202  25.049   0.613  13.976
53877W        W26203  31.622  30.777   2.541
53878W        W26204  10.865  14.298   3.273
53879W        W26205  14.651  26.432  12.570
53880W        W26206  41.326  22.272   3.626
53881W        W26207  17.310  44.364   3.212
53882W        W26208  40.971  16.801   2.474
53883W        W26209  41.316  35.228   3.742
53884W        W26210  38.098  21.060  13.914
53885W        W26211   4.913  15.725   0.225
53886W        W26212  24.619   9.370  14.591
53887W        W26213   5.833   4.802  13.022
53888W        W26214  11.117  29.553   0.274
53889W        W26215   8.724  28.795   0.749
53890W        W26216  40.093  36.801  12.525
53891W        W26217  35.046  18.788   0.818
53892W        W26218  29.434  41.312   1.968
53893W        W26219  14.416  44.829  10.758
53894W        W26220  10.860  27.465   1.443
53895W        W26221  12.575  30.226  11.961
53896W        W26222  18.069   3.308   1.437
53897W        W26223  29.689  39.928  12.434
53898W        W26224  25.582  33.543  13.364
53899W        W26225  36.971  23.806  12.465
53900W        W26226  17.748  42.659   1.532
53901W        W26227   0.313   6.660  10.815
53902W        W26228  23.464  34.498  13.445
53903W        W26229  16.204  28.621  11.624
53904W        W26230  33.854  12.421   1.860
53905W        W26231  23.185  16.849  14.489
53906W        W26232  36.969  24.275   4.231
53907W        W26233  14.938  38.385  14.407
53908W        W26234  21.456  23.165   0.931
53909W        W26235  33.621  12.179   2.379
53910W        W26236  17.189   0.214  14.485
53911W        W26237  35.947  14.192  12.856
53912W        W26238  39.247   3.152  10.269
53913W        W26239  31.801  15.783   5.026
53914W        W26240  27.193  29.017   2.808
53915W        W26241  13.271  44.702  13.382
53916W        W26242  13.797  26.457  10.618
53917W        W26243  34.822  19.340  13.354
53918W        W26244   6.763   0.889  11.354
53919W        W26245  33.008  18.243  12.809
53920W        W26246  18.026   9.569   1.311
53921W        W26247  31.664  39.516  12.074
53922W        W26248  23.795  21.023   3.721
53923W        W26249   2.420   8.106  11.604
53924W        W26250  28.993  27.262   1.327
53925W        W26251   4.858   7.634  12.881
53926W        W26252   6.990   7.899   1.335
53927W        W26253   7.317  25.211   3.654
53928W        W26254  27.455   4.813  14.498
53929W        W26255  40.648  23.491   3.668
53930W        W26256   4.690  17.081   3.385
53931W        W26257   9.713   2.733   1.310
53932W        W26258  33.511   1.927   4.117
53933W        W26259  42.898  28.311  13.084
53934W        W26260   3.926  30.895  11.471
53935W        W26261  35.879  43.933   2.123
53936W        W26262   0.721   8.089   0.333
53937W        W26263  43.842   4.741  11.619
53938W        W26264  24.149  35.422  10.577
53939W        W26265  28.067  19.347   2.944
53940W        W26266  17.478  24.237   1.768
53941W        W26267   8.633  43.549   4.152
53942W        W26268  30.583  31.204  14.676
53943W        W26269  22.315   3.940   3.637
53944W        W26270   4.671  13.717  12.051
53945W        W26271  30.736  32.033   3.827
53946W        W26272  29.376  33.596  14.908
53947W        W26273  33.112   8.057   1.248
53948W        W26274  38.078  31.487  13.208
53949W        W26275   5.306  23.888  14.833
53950W        W26276  13.225  25.671  13.548
53951W        W26277   2.311  35.464  14.253
53952W        W26278  12.207  32.966  11.997
53953W        W26279  23.203  16.291   3.128
53954W        W26280  31.193  38.741  10.149
53955W        W26281  43.897  32.451   2.243
53956W        W26282  42.802  38.641   4.603
53957W        W26283   6.512  30.688   2.303
53958W        W26284  18.570  32.437   3.291
53959W        W26285  30.535  15.504   5.101
53960W        W26286  24.883  19.772   0.850
53961W        W26287   9.313  28.969  11.033
53962W        W26288  36.209   6.337   1.698
53963W        W26289  43.883  40.097  12.459
53964W        W26290  31.661  43.810   4.144
53965W        W26291   7.796  41.897  14.001
53966W        W26292  44.046  31.863  11.942
53967W        W26293  22.655  36.021  10.778
53968W        W26294  25.605   4.269   3.655
53969W        W26295  37.425   1.268  12.912
53970W        W26296   6.243  33.673  10.712
53971W        W26297  16.780   2.973   0.959
53972W        W26298  37.634  11.971  13.833
53973W        W26299  17.959  43.012   4.239
53974W        W26300  29.035  23.264  14.770
53975W        W26301  24.327   7.499   4.986
53976W        W26302  30.136  39.112  12.336
53977W        W26303  23.560  27.878  10.744
53978W        W26304  44.274   0.633   0.383
53979W        W26305  27.920  22.089  12.764
53980W        W26306  22.914  33.725  13.478
53981W        W26307   4.253   7.652  14.195
53982W        W26308   4.314  33.326   2.397
53983W        W26309  40.695  42.749   3.624
53984W        W26310  32.676  21.640   1.368
53985W        W26311  23.706   9.799  12.580
53986W        W26312  28.213   2.298   0.028
53987W        W26313   9.914  42.394   0.281
53988W        W26314  39.442  24.902  13.271
53989W        W26315  13.271  23.606   0.821
53990W        W26316  17.634  38.817   0.432
53991W        W26317  12.378  35.241   3.267
53992W        W26318  24.826   9.192  11.651
53993W        W26319   2.682  23.711  11.617
53994W        W26320  34.468  39.400  10.853
53995W        W26321   1.862  32.577   0.931
53996W        W26322  44.803  40.592  13.917
53997W        W26323   0.026   2.229   2.374
53998W        W26324  22.244  36.900   2.198
53999W        W26325  30.622   0.785   0.570
54000W        W26326  35.096  12.626  11.582
54001W        W26327  29.082  27.660   3.182
54002W        W26328   7.321  23.625  12.364
54003W        W26329   8.721  27.714   0.149
54004W        W26330  44.338  18.333   0.948
54005W        W26331   0.544   6.295  11.118
54006W        W26332  27.619   3.287  13.343
54007W        W26333  43.575   2.639   1.899
54008W        W26334  41.040   9.831   2.908
54009W        W26335  13.798  15.554  12.771
54010W        W26336  16.323  17.571   0.838
54011W        W26337  36.585  19.472   2.606
54012W        W26338  28.508  13.097  13.408
54013W        W26339  32.890  26.198   4.179
54014W        W26340  27.183   0.351  10.956
54015W        W26341  36.361   1.714   3.309
54016W        W26342  25.734   9.829   3.426
54017W        W26343   6.794   9.695  11.086
54018W        W26344  34.899  25.384   4.146
54019W        W26345  15.060  27.670  14.955
54020W        W26346  14.898  19.332   1.887
54021W        W26347  21.289   9.244  14.940
54022W        W26348   7.845  11.943  14.320
54023W        W26349  33.606  17.698  11.082
54024W        W26350   6.400  39.120  11.985
54025W        W26351  24.612  24.741   0.947
54026W        W26352  16.320  19.109   3.232
54027W        W26353   7.092   7.630  12.047
54028W        W26354  41.264   0.089   4.198
54029W        W26355  40.686  31.099  14.854
54030W        W26356  15.301  12.686   4.387
54031W        W26357  10.867  35.135   0.767
54032W        W26358  10.151  28.179   1.560
54033W        W26359  33.164  10.864   4.512
54034W        W26360  43.252  38.527  11.881
54035W        W26361  21.829  24.486   2.417
54036W        W26362  28.133  10.623  13.019
54037W        W26363  18.985  40.829   3.841
54038W        W26364   1.947   9.515   1.394
54039W        W26365   7.618  25.480  14.017
54040W        W26366  20.959   4.026   1.853
54041W        W26367  21.135  33.316   1.329
54042W        W26368  42.289  32.015  14.786
54043W        W26369  15.397  11.488  11.896
54044W        W26370   3.194  11.438   1.915
54045W        W26371  16.356  28.267  11.282
54046W        W26372   3.439  14.258   2.923
54047W        W26373  27.909  22.171   0.254
54048W        W26374  20.321   6.301   3.963
54049W        W26375  11.698  14.747   3.721
54050W        W26376  42.175   1.373  11.998
54051W        W26377  19.464  25.118  12.414
54052W        W26378   6.326  20.545   4.200
54053W        W26379  37.987   3.452   2.583
54054W        W26380  32.610  31.388  12.390
54055W        W26381  40.279  24.547   2.180
54056W        W26382  30.397  16.230   1.233
54057W        W26383  28.956   0.247  14.361
54058W        W26384  29.975  32.522  11.781
54059W        W26385  20.601  36.551  12.077
54060W        W26386   8.850  39.126  14.241
54061W        W26387  32.674   7.364   0.731
54062W        W26388  13.285  19.704   4.110
54063W        W26389  14.792   2.749  14.978
54064W        W26390  21.161  32.332   1.469
54065W        W26391  44.329  29.531   3.929
54066W        W26392  42.547  15.350  11.518
54067W        W26393  41.397  40.334   2.782
54068W        W26394  33.222  33.916  10.604
54069W        W26395   0.902   6.418  14.905
54070W        W26396  12.537  10.322   0.851
54071W        W26397  29.895  42.229   2.783
54072W        W26398   4.819  42.366   1.463
54073W        W26399   8.877  26.208   0.063
54074W        W26400  18.204   8.966  11.058
54075W        W26401  31.448  39.404   1.947
54076W        W26402  35.075   3.031  11.065
54077W        W26403  12.668  13.922   1.909
54078W        W26404  30.867  43.097  14.841
54079W        W26405   4.265  30.122   0.059
54080W        W26406  21.236   6.892   1.419
54081W        W26407  24.412  34.439  12.519
54082W        W26408   8.884   2.333   0.709
54083W        W26409  24.562   3.687  13.477
54084W        W26410  22.594  16.207   0.959
54085W        W26411  18.346  26.130   1.692
54086W        W26412  17.190  37.494  12.669
54087W        W26413  11.261  20.416   2.666
54088W        W26414  37.937  21.636   0.267
54089W        W26415   3.284  27.406   4.521
54090W        W26416  42.501  34.898  11.222
54091W        W26417  25.943  21.678   1.290
54092W        W26418  39.574   6.768   3.701
54093W        W26419  41.572  43.805   2.023
54094W        W26420  31.942  34.270   3.337
54095W        W26421  26.460  35.198   4.666
54096W        W26422   4.299  18.037   1.373
54097W        W26423  12.183  44.267  14.991
54098W        W26424  39.957  43.711  12.553
54099W        W26425  18.587  42.540   3.832
54100W        W26426  20.136   6.855  14.965
54101W        W26427  27.428  25.679  13.013
54102W        W26428   7.932   8.755   2.273
54103W        W26429   6.900  10.720   4.397
54104W        W26430  31.143   3.330   4.110
54105W        W26431  18.827  44.880  13.888
54106W        W26432   7.421   8.203  12.479
54107W        W26433  29.010  40.356  10.666
54108W        W26434  10.890  14.570   2.528
54109W        W26435  20.173  38.990  14.348
54110W        W26436   6.541  21.354  11.153
54111W        W26437  10.529  18.503   3.308
54112W        W26438  19.435   0.330   9.966
54113W        W26439  21.187  37.034  14.499
54114W        W26440  12.159  22.961   1.827
54115W        W26441  25.514  35.932  14.885
54116W        W26442  18.515  41.523   4.628
54117W        W26443  22.066  27.206  12.379
54118W        W26444  30.620  36.053  13.818
54119W        W26445  19.700  29.442   1.747
54120W        W26446  21.861  37.409   9.673
54121W        W26447  36.983   6.065   3.423
54122W        W26448  37.118  27.694  12.389
54123W        W26449  42.022  31.637   1.352
54124W        W26450   4.491  26.096  12.489
54125W        W26451  11.578  14.212   3.742
54126W        W26452  11.250  40.564  14.332
54127W        W26453   1.875  32.110  12.786
54128W        W26454  44.762   2.754   1.099
54129W        W26455  39.079  25.685  12.461
54130W        W26456  43.079  29.700   2.809
54131W        W26457   0.236  29.700   3.886
54132W        W26458  11.358  16.496   4.685
54133W        W26459  13.018  27.087  12.784
54134W        W26460  34.492  28.120   3.742
54135W        W26461  29.901  14.758  14.492
54136W        W26462  33.214  16.330   4.191
54137W        W26463  34.431  33.313  11.069
54138W        W26464  35.844  33.568   0.031
54139W        W26465  40.271  41.045   3.263
54140W        W26466   2.359   5.674   2.277
54141W        W26467  10.264  43.226   4.535
54142W        W26468  20.978   9.191   2.737
54143W        W26469  39.949  29.252   3.250
54144W        W26470  41.478  15.570   1.268
54145W        W26471  42.837  38.347   4.099
54146W        W26472  32.043  24.658   1.519
54147W        W26473  15.232  26.092   0.722
54148W        W26474   1.300  37.458   0.428
54149W        W26475  27.150   1.277   1.480
54150W        W26476  13.059   8.786   0.736
54151W        W26477  22.488  17.982   1.462
54152W        W26478  40.907  44.405   1.001
54153W        W26479  40.363   8.513   1.433
54154W        W26480   6.721  41.229  12.905
54155W        W26481  15.565  17.989  11.517
54156W        W26482  29.128  31.884  13.975
54157W        W26483  15.023  41.537  10.682
54158W        W26484  33.929  14.402   0.793
54159W        W26485  10.386  23.507   1.237
54160W        W26486  22.108  27.673  12.086
54161W        W26487  26.656  27.704   9.872
54162W        W26488  29.293  22.929  11.106
54163W        W26489  38.828   3.955  11.626
54164W        W26490  27.030  36.047   1.751
54165W        W26491  36.024  14.355   0.909
54166W        W26492  19.878  27.199   2.418
54167W        W26493  27.719  16.719   1.320
54168W        W26494  30.359  16.630   4.725
54169W        W26495  26.759  14.131   4.619
54170W        W26496   4.975  36.663   0.587
54171W        W26497  36.618  43.037  13.850
54172W        W26498  43.392  23.696  11.580
54173W        W26499   0.521   6.804  13.417
54174W        W26500  28.299  41.442   0.300
54175W        W26501  32.557  43.393  14.530
54176W        W26502  10.422   4.368   1.919
54177W        W26503  31.860   6.018   4.588
54178W        W26504  12.281  27.045  10.713
54179W        W26505  24.747  12.304  11.628
54180W        W26506  15.784  39.738   0.490
54181W        W26507  14.840  15.211  13.803
54182W        W26508   5.278  22.714   1.866
54183W        W26509   7.400  39.036   1.310
54184W        W26510  26.953   4.466   2.760
54185W        W26511  17.662  24.130  12.830
54186W        W26512  27.694  26.039  11.935
54187W        W26513  38.370  25.715  11.053
54188W        W26514  13.708  30.533  13.550
54189W        W26515  33.543  25.677   2.933
54190W        W26516   0.286  22.037  12.360
54191W        W26517   8.086  19.979   2.320
54192W        W26518  28.264   4.254  11.039
54193W        W26519   3.408  38.889  11.417
54194W        W26520  16.785  42.385   4.694
54195W        W26521   6.627   4.901  11.155
54196W        W26522  35.719   1.379   1.798
54197W        W26523   3.420  22.432  13.033
54198W        W26524  10.912  26.033  11.478
54199W        W26525  21.130  43.324  12.404
54200W        W26526  32.148  41.482  12.452
54201W        W26527  18.175  25.725   1.289
54202W        W26528   5.727  32.460   3.071
54203W        W26529  40.372  12.255  10.604
54204W        W26530   6.280  40.126  11.991
54205W        W26531   3.211  10.054  13.343
54206W        W26532   9.953  11.615  14.964
54207W        W26533  38.163   4.983  10.179
54208W        W26534   2.388  39.004   5.035
54209W        W26535  18.227  42.803   1.261
54210W        W26536   8.232  17.875  13.843
54211W        W26537   7.994   1.227  12.095
54212W        W26538   3.855  29.366  11.568
54213W        W26539  24.466   8.193  12.103
54214W        W26540  27.180  19.144  12.986
54215W        W26541  14.314  24.276  10.546
54216W        W26542  16.935  42.016   4.093
54217W        W26543  19.497  30.950  10.503
54218W        W26544  39.369  27.657   3.704
54219W        W26545   6.284  31.189   0.661
54220W        W26546  28.153  29.467  13.681
54221W        W26547  26.378   8.027   3.624
54222W        W26548  30.970  14.354   4.083
54223W        W26549  14.717  30.607  12.489
54224W        W26550   1.403   0.536  14.909
54225W        W26551  26.112  13.640  12.887
54226W        W26552  12.307  28.827  12.972
54227W        W26553   3.450  12.069   1.349
54228W        W26554  40.482  22.770  13.129
54229W        W26555   8.360   2.058  13.458
54230W        W26556  31.625  14.311  12.489
54231W        W26557  15.839  33.502   2.755
54232W        W26558  37.938   9.625   1.708
54233W        W26559  12.817  22.318  11.951
54234W        W26560  17.004  11.345   3.927
54235W        W26561  20.542  27.076  11.584
54236W        W26562  40.204  32.920  11.485
54237W        W26563  28.606  18.510  10.268
54238W        W26564   8.911  19.121   2.275
54239W        W26565  34.397  43.874   1.119
54240W        W26566  24.660  17.887   1.740
54241W        W26567   0.721   2.140   0.629
54242W        W26568  40.307  16.357  12.325
54243W        W26569   6.773   0.993  10.343
54244W        W26570  33.378   8.820   0.426
54245W        W26571  27.423  24.091   2.839
54246W        W26572  19.091  35.610  14.015
54247W        W26573  10.052  24.751  10.418
54248W        W26574  32.103   6.903  12.362
54249W        W26575  19.740  15.660   0.453
54250W        W26576  27.419  39.475  12.443
54251W        W26577  14.730   0.733   0.729
54252W        W26578  38.845  37.627  13.487
54253W        W26579   9.356   3.529   1.409
54254W        W26580  41.480  30.681   4.185
54255W        W26581   3.877  38.951  11.675
54256W        W26582  32.585  14.077   3.421
54257W        W26583  18.134  23.123   1.907
54258W        W26584   6.519  17.390  11.130
54259W        W26585   9.717  40.872  10.583
54260W        W26586  43.803  15.556  10.521
54261W        W26587  42.421  13.029   3.008
54262W        W26588  32.510  31.255   0.795
54263W        W26589  20.187   0.998   0.414
54264W        W26590  18.296   4.381   2.745
54265W        W26591  29.193   9.159  13.331
54266W        W26592  22.041  32.939   3.729
54267W        W26593   5.338  39.617   3.404
54268W        W26594   7.189  16.519  13.003
54269W        W26595  31.128  19.356   2.405
54270W        W26596  37.515  19.774  11.153
54271W        W26597  28.220  17.704   2.356
54272W        W26598  35.129  31.887   3.660
54273W        W26599  35.993  15.194  10.662
54274W        W26600  12.219  10.092   2.566
54275W        W26601  31.864  42.838   1.380
54276W        W26602  27.418  24.651   1.466
54277W        W26603  38.807  21.182   0.314
54278W        W26604  27.555  12.649   2.392
54279W        W26605  10.587  13.575   4.732
54280W        W26606  29.170  43.774   3.954
54281W        W26607   9.909  33.936   4.119
54282W        W26608  15.729  40.998   0.818
54283W        W26609  15.737  29.322  10.653
54284W        W26610  42.943  25.933  14.230
54285W        W26611  26.483  38.928  13.619
54286W        W26612  22.736  36.887  12.061
54287W        W26613  34.042  15.625   2.671
54288W        W26614   9.249  33.222   4.254
54289W        W26615  11.668  42.403   3.913
54290W        W26616  19.744   8.298  12.063
54291W        W26617  19.330  28.790  13.989
54292W        W26618   9.814  38.570  12.064
54293W        W26619  43.426   8.857  12.136
54294W        W26620   9.088  10.638  12.607
54295W        W26621   6.837  12.792   4.742
54296W        W26622  32.414   2.323  14.402
54297W        W26623   4.434   8.050  11.469
54298W        W26624  44.264  35.583  10.494
54299W        W26625  15.348  38.136   0.770
54300W        W26626  12.777  41.323  11.644
54301W        W26627  21.933   2.356  12.440
54302W        W26628   5.118   9.859   4.030
54303W        W26629  27.517  27.025   4.773
54304W        W26630  23.406  25.102   3.591
54305W        W26631   9.517  25.474   1.502
54306W        W26632  19.478   2.400  13.278
54307W        W26633  22.575  33.536   3.282
54308W        W26634   8.793  41.549   4.135
54309W        W26635   8.688   1.967  14.704
54310W        W26636  10.957  40.346  11.107
54311W        W26637  23.049  28.592  10.704
54312W        W26638  22.761  40.295  11.140
54313W        W26639  21.159  39.620   2.754
54314W        W26640  42.091  17.715   1.803
54315W        W26641  24.046  11.842  12.945
54316W        W26642  18.470  13.049  14.447
54317W        W26643  16.194  33.366  14.057
54318W        W26644   2.939  28.658  11.032
54319W        W26645  32.280  32.944  14.839
54320W        W26646  41.208  15.123   1.406
54321W        W26647  20.332  39.315  12.483
54322W        W26648  44.318  21.723  11.071
54323W        W26649  10.818  36.826   1.860
54324W        W26650  18.700  41.810  12.946
54325W        W26651  28.430   5.332  12.412
54326W        W26652  25.652  42.021   4.579
54327W        W26653  26.074  12.652   0.053
54328W        W26654  33.701  24.043  11.403
54329W        W26655  18.145  30.995  13.425
54330W        W26656   3.305  38.950   0.989
54331W        W26657  39.594  20.172  12.538
54332W        W26658  24.456   1.782   0.340
54333W        W26659  25.059   3.768   0.760
54334W        W26660  11.598  44.343   0.854
54335W        W26661   2.333  15.631   2.246
54336W        W26662  32.641  22.147  12.191
54337W        W26663   7.196  36.987  12.632
54338W        W26664  10.245  29.603   2.554
54339W        W26665  25.322   4.674  12.433
54340W        W26666  22.291  43.253  13.816
54341W        W26667  18.576  17.520   2.880
54342W        W26668  34.906  23.041   0.496
54343W        W26669   6.736  41.741  13.034
54344W        W26670  22.057   1.239  14.484
54345W        W26671   1.382  42.837   4.564
54346W        W26672   9.115   9.308  10.720
54347W        W26673  36.381  30.031   1.502
54348W        W26674  16.582  37.065  12.587
54349W        W26675   3.360   2.683   4.304
54350W        W26676  44.035  44.628  12.228
54351W        W26677   2.765   0.972  10.402
54352W        W26678   9.471  15.800  13.144
54353W        W26679  13.702  11.418   0.577
54354W        W26680  42.530   9.243   1.747
54355W        W26681  29.130  22.334   5.028
54356W        W26682  43.656  43.219   3.194
54357W        W26683  40.684  23.126  13.447
54358W        W26684  34.789   4.790  11.193
54359W        W26685  17.827  23.400   3.687
54360W        W26686  39.799  27.026   1.775
54361W        W26687   2.427   9.910  14.516
54362W        W26688  41.956   4.423   4.103
54363W        W26689  40.433  17.723  14.476
54364W        W26690  28.502  40.019   3.764
54365W        W26691  17.022   8.158   1.398
54366W        W26692  17.807  10.202   0.744
54367W        W26693  32.538  34.908   1.640
54368W        W26694   1.820  33.466  14.201
54369W        W26695  36.629   0.032  13.788
54370W        W26696  29.508  42.771   3.762
54371W        W26697   0.951  39.293  12.454
54372W        W26698  34.480  22.715  14.209
54373W        W26699  31.428   8.893   4.284
54374W        W26700  11.674  39.069   3.656
54375W        W26701  16.640  40.433   3.189
54376W        W26702  32.232   6.783   3.678
54377W        W26703  10.931  30.466   2.336
54378W        W26704  27.203  15.708   0.482
54379W        W26705  39.971   5.490  14.144
54380W        W26706   8.315   7.499  10.461
54381W        W26707  43.729  15.624  14.780
54382W        W26708  11.743   8.373   0.875
54383W        W26709  41.402  15.841  11.885
54384W        W26710  24.574  28.450  14.266
54385W        W26711  26.440  29.992  12.136
54386W        W26712   8.068   4.402  10.305
54387W        W26713  24.451  10.287   4.213
54388W        W26714  20.547   6.197  14.030
54389W        W26715  25.675  34.083   2.800
54390W        W26716   5.060   6.558  11.169
54391W        W26717  36.796   1.028  11.891
54392W        W26718  14.195   6.776   4.696
54393W        W26719   7.288  16.483  12.496
54394W        W26720  22.448   1.848  11.066
54395W        W26721  19.408   0.859   1.434
54396W        W26722  38.372  43.474  12.450
54397W        W26723  18.237  30.575  13.779
54398W        W26724  12.636  19.584   4.878
54399W        W26725  38.621  21.090  13.923
54400W        W26726  33.904  13.709  11.967
54401W        W26727  35.933   2.911  13.035
54402W        W26728  28.769  31.979   2.860
54403W        W26729   7.790   1.303   2.964
54404W        W26730   1.736   0.503   1.411
54405W        W26731  15.309  31.829   4.498
54406W        W26732   2.034  42.304  11.088
54407W        W26733  23.142  43.318   2.440
54408W        W26734  11.709  44.907   3.388
54409W        W26735  27.415  30.638   4.707
54410W        W26736  14.113  34.573   5.039
54411W        W26737  12.775  22.082   4.565
54412W        W26738  33.348   0.301  14.784
54413W        W26739  10.943  25.914   5.059
54414W        W26740  23.286   7.182  13.380
54415W        W26741  39.105  11.766   4.131
54416W        W26742  28.670  19.240   4.760
54417W        W26743   7.917  23.488   2.676
54418W        W26744   1.322  36.803  12.862
54419W        W26745  41.791  26.735  14.949
54420W        W26746   0.363  31.487   1.138
54421W        W26747  19.273  11.374  11.194
54422W        W26748  14.658  43.772   2.491
54423W        W26749  40.093  32.395   1.990
54424W        W26750  29.155   0.975   0.738
54425W        W26751   1.477  37.951  12.498
54426W        W26752  39.854   4.640   1.739
54427W        W26753   8.281  11.627   0.928
54428W        W26754  38.950  11.611  12.413
54429W        W26755  15.712  16.634   4.516
54430W        W26756   4.639  27.075   1.963
54431W        W26757  31.302  11.910  14.828
54432W        W26758  29.214  26.033  12.074
54433W        W26759  23.102  32.972  12.965
54434W        W26760  22.168  26.425  12.871
54435W        W26761  35.283  19.496  13.478
54436W        W26762  44.427  36.307   4.077
54437W        W26763  22.679   4.311   1.694
54438W        W26764  16.350  18.162  13.959
54439W        W26765  26.162  41.806   1.407
54440W        W26766  44.300  17.678   4.636
54441W        W26767   3.581  14.104   5.104
54442W        W26768   9.874  22.810  12.025
54443W        W26769   1.256   6.909   3.148
54444W        W26770  11.228   8.387  12.835
54445W        W26771  36.292  38.776  13.465
54446W        W26772  12.351   8.680   4.258
54447W        W26773  36.825  21.972  11.236
54448W        W26774  23.989  35.444  12.117
54449W        W26775   4.714   2.809  13.900
54450W        W26776  16.350  43.458   4.813
54451W        W26777  20.747  14.597   4.157
54452W        W26778  43.976  10.264   3.836
54453W        W26779  41.700  26.087   2.200
54454W        W26780  43.974  36.543   3.470
54455W        W26781  22.244  18.586   0.825
54456W        W26782  31.418   1.720  10.990
54457W        W26783  37.689   6.393  11.629
54458W        W26784  23.116  32.063   0.494
54459W        W26785  42.439  41.504   1.940
54460W        W26786  44.999  44.552   1.859
54461W        W26787  37.795  33.391  14.455
54462W        W26788   2.889  14.517  11.868
54463W        W26789   8.295  15.389  13.434
54464W        W26790  24.430  28.130   2.123
54465W        W26791  35.552  18.944   0.843
54466W        W26792  39.077  29.962  12.131
54467W        W26793  11.266  18.065   4.643
54468W        W26794  11.248  14.305   1.494
54469W        W26795  24.692  24.709   3.692
54470W        W26796  28.375  21.488  10.716
54471W        W26797  32.307  35.361   0.257
54472W        W26798   5.615  38.388  12.519
54473W        W26799  32.941  37.182   0.784
54474W        W26800  20.799  22.581  10.723
54475W        W26801  11.764   5.001   3.099
54476W        W26802  36.682   6.281   3.780
54477W        W26803  13.093  12.670   2.731
54478W        W26804  16.648  27.587   0.477
54479W        W26805  16.697  44.846   4.884
54480W        W26806  12.409  30.654  14.540
54481W        W26807  26.074  27.693   3.196
54482W        W26808   0.467  18.001  10.420
54483W        W26809  35.036  30.067   1.677
54484W        W26810  32.983  27.566   0.489
54485W        W26811  41.392  35.466   2.277
54486W        W26812  28.803  14.258   2.166
54487W        W26813   8.080  39.599   4.119
54488W        W26814  17.959  40.345   4.407
54489W        W26815  10.634  34.055  14.817
54490W        W26816  32.393  29.967   1.709
54491W        W26817  38.465  37.024   1.987
54492W        W26818  11.842  24.779   0.721
54493W        W26819  31.376  19.668  13.776
54494W        W26820  25.205  38.288   4.418
54495W        W26821   8.793   3.464  14.835
54496W        W26822   5.277   6.737  12.025
54497W        W26823  23.201  25.389  14.393
54498W        W26824  28.439  28.393  12.336
54499W        W26825   9.016  17.769   1.135
54500W        W26826  37.666  40.678   3.581
54501W        W26827   0.854  26.379  13.163
54502W        W26828  21.820  33.584   0.086
54503W        W26829  28.068  40.882   2.673
54504W        W26830  40.470  28.201   0.542
54505W        W26831  23.672  41.042   1.263
54506W        W26832  39.565  39.613   2.862
54507W        W26833  30.522  18.090  13.403
54508W        W26834  17.185  12.071  13.104
54509W        W26835  36.621   8.987   1.228
54510W        W26836  43.994  22.146   1.859
54511W        W26837  32.871  16.295   2.984
54512W        W26838  12.927  43.720  11.589
54513W        W26839  21.128  12.085   3.343
54514W        W26840  34.171  33.019   0.095
54515W        W26841  30.458   9.701  12.424
54516W        W26842   8.041  10.206   4.989
54517W        W26843  29.972  25.559  12.948
54518W        W26844  42.418  10.318  11.436
54519W        W26845  21.436  39.478  10.212
54520W        W26846  37.971  33.129   4.664
54521W        W26847  24.266  18.126  11.007
54522W        W26848   2.024  15.065  10.780
54523W        W26849  25.581  21.128  10.390
54524W        W26850  24.740  13.694  12.892
54525W        W26851  17.648  31.187   4.550
54526W        W26852   3.821  16.687   0.760
54527W        W26853  44.431  29.760  11.010
54528W        W26854  20.462  41.605   3.185
54529W        W26855  20.669   1.129  11.963
54530W        W26856  16.592  39.661   0.827
54531W        W26857  12.544   7.117  13.419
54532W        W26858  20.176   1.957  13.839
54533W        W26859  18.267  41.284  14.644
54534W        W26860  37.025  20.684  14.470
54535W        W26861   0.798  10.673   2.442
54536W        W26862  41.509  21.862  13.554
54537W        W26863  36.392  13.189  11.161
54538W        W26864  30.884  39.507   2.154
54539W        W26865  17.824   1.273   3.020
54540W        W26866  38.069  39.820   1.083
54541W        W26867  33.572   5.839   4.109
54542W        W26868  26.480  29.932  13.917
54543W        W26869  39.484  20.056  12.048
54544W        W26870  42.960  28.647  14.725
54545W        W26871  40.350  34.175  10.977
54546W        W26872  43.009  12.939   3.277
54547W        W26873   3.260  35.573   2.399
54548W        W26874  19.223  29.140  11.797
54549W        W26875  37.401  32.006   0.090
54550W        W26876  18.536   4.740  13.094
54551W        W26877  29.466  39.490  12.586
54552W        W26878   9.381  32.570  12.119
54553W        W26879  15.147  38.211   2.277
54554W        W26880  39.732   0.881   2.725
54555W        W26881  42.001  15.006   0.257
54556W        W26882  36.093  37.949  12.569
54557W        W26883  14.364  20.665   2.304
54558W        W26884  12.669  16.452   3.446
54559W        W26885  21.418   1.493  12.149
54560W        W26886  14.100  30.638   0.312
54561W        W26887   9.588  32.448   4.723
54562W        W26888  27.031   6.740   3.902
54563W        W26889  17.245   3.733   2.370
54564W        W26890  35.608  23.910   4.301
54565W        W26891   3.614  24.111   4.662
54566W        W26892  29.711  23.531  13.858
54567W        W26893  24.106   0.253  11.610
54568W        W26894   2.997  32.076  11.994
54569W        W26895  26.187   2.506  13.263
54570W        W26896  31.639  26.177   0.017
54571W        W26897  14.146  27.233   9.637
54572W        W26898  23.470  33.090   4.508
54573W        W26899  28.430  44.544   1.245
54574W        W26900  43.332  18.288   4.616
54575W        W26901   0.876  10.842   2.969
54576W        W26902  28.711  29.115  14.817
54577W        W26903  12.386  44.038   0.603
54578W        W26904  35.134  32.567  13.993
54579W        W26905  25.421  37.384  11.158
54580W        W26906  17.162  22.755  12.926
54581W        W26907  10.046  39.773  13.840
54582W        W26908  37.056   0.752   0.237
54583W        W26909  33.571  41.967   0.800
54584W        W26910   3.893   7.270  13.043
54585W        W26911  16.807  28.528  11.254
54586W        W26912  36.420  37.970  13.971
54587W        W26913  32.057  42.299  13.868
54588W        W26914  25.220  22.125  11.477
54589W        W26915  10.620  41.321   2.738
54590W        W26916   9.411  30.863  10.617
54591W        W26917  37.103  20.976  10.628
54592W        W26918  40.155  13.781   3.723
54593W        W26919  22.739   0.964  12.505
54594W        W26920   5.800  34.149   1.896
54595W        W26921   6.214  35.158  13.953
54596W        W26922  36.002  28.556  12.340
54597W        W26923  34.404  36.776   1.946
54598W        W26924  17.529  30.239  14.443
54599W        W26925  12.174  33.715  12.411
54600W        W26926  25.204  11.921   0.380
54601W        W26927  11.134   2.878  11.816
54602W        W26928  31.588  23.766   1.831
54603W        W26929  24.776  18.278  13.461
54604W        W26930  40.566  43.435   1.167
54605W        W26931   8.201  27.399  12.058
54606W        W26932  22.048  20.606   0.948
54607W        W26933  29.459   2.265  10.701
54608W        W26934  41.902  19.596   3.409
54609W        W26935  43.486  23.978  14.034
54610W        W26936  29.225  16.103   3.991
54611W        W26937  23.932  25.062   3.589
54612W        W26938   5.396  35.934  12.873
54613W        W26939  42.483  16.345  12.967
54614W        W26940  22.110  13.538   1.727
54615W        W26941  33.710  18.195   3.647
54616W        W26942  37.375  35.469   2.447
54617W        W26943  22.829  22.804  13.954
54618W        W26944  10.765  11.453   0.371
54619W        W26945  28.842  31.514  11.942
54620W        W26946   3.215  11.626  10.254
54621W        W26947  31.009   5.356  12.843
54622W        W26948  31.160  23.517   2.769
54623W        W26949  30.541   0.037   4.306
54624W        W26950  23.364  43.693  13.376
54625W        W26951   3.443  11.079  14.320
54626W        W26952   3.679  16.655   3.177
54627W        W26953  21.660   9.222  10.711
54628W        W26954  25.163  19.021  12.477
54629W        W26955  21.039  18.553  13.006
54630W        W26956  36.922  43.421  12.160
54631W        W26957  27.394  17.312  12.762
54632W        W26958  36.850  32.883  14.498
54633W        W26959  33.335  41.844  14.366
54634W        W26960  17.062  17.979   0.290
54635W        W26961  27.339  26.901   2.873
54636W        W26962  44.445   2.931   2.185
54637W        W26963  20.722  41.240   2.890
54638W        W26964  30.644  43.515  11.360
54639W        W26965  16.008  12.274  11.620
54640W        W26966   7.358   9.321  11.231
54641W        W26967   1.248  39.385   4.774
54642W        W26968  12.147  26.591   3.254
54643W        W26969  43.786  23.413   4.534
54644W        W26970  13.789  31.824  14.208
54645W        W26971  25.376  39.745   1.048
54646W        W26972  15.184  11.758  14.365
54647W        W26973  28.257  31.033   2.194
54648W        W26974  37.012  30.651   2.892
54649W        W26975  31.365  40.538  11.945
54650W        W26976  39.817  16.842   1.966
54651W        W26977  25.236  34.335  12.842
54652W        W26978  14.633  18.046  11.415
54653W        W26979  22.199  16.412   9.847
54654W        W26980  14.088  31.141   1.601
54655W        W26981  17.705  14.548  12.500
54656W        W26982   6.456  39.110   1.740
54657W        W26983  38.493  25.919  14.482
54658W        W26984   4.727   4.359   5.002
54659W        W26985  34.593  42.266  13.452
54660W        W26986   0.917  19.208  14.163
54661W        W26987  34.164   6.367   0.815
54662W        W26988  16.579  37.939  11.161
54663W        W26989  39.168   5.418   0.828
54664W        W26990  20.851  28.255   1.409
54665W        W26991  11.702   3.744   3.160
54666W        W26992  32.643  14.582   3.227
54667W        W26993  32.129  35.492   3.789
54668W        W26994  23.338  12.633   1.436
54669W        W26995  17.746  32.752   4.924
54670W        W26996  35.418  33.544   5.874
54671W        W26997   8.791  13.813   2.570
54672W        W26998   1.923  21.757   2.407
54673W        W26999  13.045  23.287   4.573
54674W        W27000  36.315  23.943  13.961
54675W        W27001  28.543  31.682  12.366
54676W        W27002  16.573   8.563  14.437
54677W        W27003  41.051  33.648   0.465
54678W        W27004  31.902  24.805  12.003
54679W        W27005  22.602   8.706  14.461
54680W        W27006  17.770  37.155  14.435
54681W        W27007   6.836  20.571  14.868
54682W        W27008  14.827   4.967   0.288
54683W        W27009  21.094  40.634  14.939
54684W        W27010  30.172   1.390  11.107
54685W        W27011  39.388  16.561  10.858
54686W        W27012  34.008  18.502   0.659
54687W        W27013  26.518   6.945  10.234
54688W        W27014  44.041   0.491   3.183
54689W        W27015  27.598  43.745  14.937
54690W        W27016  22.265  31.429  11.594
54691W        W27017  22.711  10.872   3.727
54692W        W27018  18.589  43.842   4.144
54693W        W27019   1.364   4.933  11.011
54694W        W27020  37.286   8.843  13.930
54695W        W27021  38.685   2.235  13.550
54696W        W27022   3.470  24.621  14.350
54697W        W27023  31.597   0.677   1.286
54698W        W27024  12.118   9.848   0.882
54699W        W27025  32.369  12.107  14.784
54700W        W27026   6.700  10.213   2.212
54701W        W27027   2.824   5.834   2.454
54702W        W27028  19.669  20.129   3.540
54703W        W27029   9.517  39.525   1.886
54704W        W27030  41.991  34.926  14.355
54705W        W27031  29.471  18.136   1.448
54706W        W27032   8.284  25.282  12.830
54707W        W27033  29.536   0.198  10.587
54708W        W27034  43.010  37.131  13.388
54709W        W27035  43.416  37.563   1.065
54710W        W27036  32.501  31.846  12.551
54711W        W27037  33.509  41.575  14.851
54712W        W27038   2.368  25.170   2.769
54713W        W27039  25.490  27.985  13.178
54714W        W27040  20.997   5.382  11.748
54715W        W27041  41.288  14.756  12.021
54716W        W27042  12.374  32.431  13.396
54717W        W27043  16.387  24.537  11.098
54718W        W27044  21.916  28.545   4.772
54719W        W27045  10.713  27.235  13.304
54720W        W27046  25.510  30.490   3.898
54721W        W27047  14.252  10.943   2.358
54722W        W27048   2.393  23.229  14.245
54723W        W27049   9.745  26.533   3.379
54724W        W27050  11.635   1.594  11.974
54725W        W27051  10.901  26.051   3.372
54726W        W27052   0.949   4.800   1.293
54727W        W27053  20.433  28.585  12.439
54728W        W27054  29.388  12.835   0.777
54729W        W27055  22.145   7.789   3.934
54730W        W27056  23.202  20.057   3.324
54731W        W27057  34.132  30.163   4.835
54732W        W27058  25.162  21.280   2.193
54733W        W27059   7.426  38.912   4.592
54734W        W27060  24.423   0.296   4.556
54735W        W27061  31.761  15.875  11.637
54736W        W27062   5.602  21.107  12.001
54737W        W27063   1.938  35.596   4.477
54738W        W27064   5.935   9.662  12.133
54739W        W27065   7.089  43.773  14.818
54740W        W27066   5.611  25.654  12.536
54741W        W27067  25.078  13.273   3.405
54742W        W27068  41.518  23.229   0.683
54743W        W27069  10.840  33.129  12.832
54744W        W27070   1.285  11.241   2.859
54745W        W27071   4.792  17.654   4.573
54746W        W27072   3.917  13.128   3.503
54747W        W27073  42.977  34.794  12.912
54748W        W27074  43.931  41.035  13.259
54749W        W27075  14.789  10.348  10.731
54750W        W27076   9.684  26.713   0.274
54751W        W27077   6.761   9.869   3.215
54752W        W27078  32.493  28.709  14.460
54753W        W27079  36.019  19.630   4.292
54754W        W27080  35.835  15.318   1.976
54755W        W27081  15.034  26.026   1.206
54756W        W27082   6.705  36.113  13.971
54757W        W27083   5.393   4.273   3.105
54758W        W27084  14.745  40.011  13.130
54759W        W27085  14.093  42.481  11.068
54760W        W27086  34.539  31.499   3.726
54761W        W27087  18.625  36.363   1.758
54762W        W27088  24.958  27.966   1.377
54763W        W27089  29.572  40.813  12.342
54764W        W27090  28.543   3.841   3.302
54765W        W27091  26.605   8.189   3.190
54766W        W27092   1.322  12.306   3.736
54767W        W27093  22.645  35.501  10.725
54768W        W27094  43.525  44.035   3.745
54769W        W27095  14.087  42.770  14.125
54770W        W27096  25.928  18.101  11.100
54771W        W27097  33.535   9.650  11.658
54772W        W27098   6.191  20.223   2.525
54773W        W27099  39.295  42.922   4.090
54774W        W27100  26.159  16.154   0.466
54775W        W27101  26.427  26.337   2.768
54776W        W27102  43.013   3.700  12.426
54777W        W27103  23.165  22.013   4.675
54778W        W27104  27.943   7.890  14.439
54779W        W27105  23.541  24.994  13.935
54780W        W27106  18.611  38.860  13.992
54781W        W27107  31.383   5.912   1.717
54782W        W27108  12.803  16.551   4.021
54783W        W27109  21.246  28.908   0.795
54784W        W27110  32.021  35.650   1.860
54785W        W27111  39.200  29.769  14.525
54786W        W27112  31.559   9.635  11.847
54787W        W27113  27.024   8.340   2.127
54788W        W27114  37.976  44.442  12.008
54789W        W27115   1.220  16.794   4.173
54790W        W27116   0.082  15.360   1.704
54791W        W27117  34.461  37.758  10.735
54792W        W27118   1.287  33.557   2.176
54793W        W27119   0.298  36.971   0.997
54794W        W27120  37.786   6.755  13.354
54795W        W27121   6.784  28.547  11.546
54796W        W27122   1.913  22.259   3.738
54797W        W27123  17.727  36.825   4.852
54798W        W27124   1.757   0.595   4.665
54799W        W27125  21.646  42.013   2.263
54800W        W27126   6.492  18.282  12.529
54801W        W27127  43.880  31.728  13.299
54802W        W27128  30.456  39.486   0.860
54803W        W27129   2.234   2.199   1.838
54804W        W27130  26.927  10.862  13.451
54805W        W27131  42.409  19.361   4.759
54806W        W27132  24.699   6.785   0.643
54807W        W27133  23.164  37.594   9.727
54808W        W27134  19.700  25.537  12.671
54809W        W27135  15.339   3.543  10.889
54810W        W27136   1.538  19.367  11.428
54811W        W27137  43.458  15.868   3.725
54812W        W27138  10.839  44.294   1.290
54813W        W27139   0.417  18.207   2.893
54814W        W27140  29.423  32.178   5.048
54815W        W27141  15.545  25.968   2.142
54816W        W27142  42.922   9.627   2.362
54817W        W27143  36.749  11.143  10.666
54818W        W27144  14.577  24.721   2.421
54819W        W27145  11.408  31.154   3.991
54820W        W27146  41.836  42.177  13.705
54821W        W27147  32.402  29.400  10.309
54822W        W27148  26.722   7.693   0.014
54823W        W27149  17.595  37.518  13.490
54824W        W27150  30.741   6.515   1.362
54825W        W27151   3.933  14.368  14.285
54826W        W27152  40.254   9.368   3.789
54827W        W27153  17.868   7.260   4.581
54828W        W27154  11.846  34.034  14.373
54829W        W27155  10.323  33.987   0.445
54830W        W27156  43.852  38.726  12.535
54831W        W27157  39.961  28.973  13.363
54832W        W27158  35.784  44.311   4.863
54833W        W27159  31.569  12.618   4.281
54834W        W27160  29.389  36.969   0.774
54835W        W27161  26.236   8.426  12.601
54836W        W27162  22.087  19.198  11.122
54837W        W27163  10.808  36.969  13.798
54838W        W27164   1.858   6.940  14.853
54839W        W27165  34.975   4.723  12.517
54840W        W27166  16.562  31.086  11.387
54841W        W27167  26.186  27.878  14.845
54842W        W27168  31.697  35.168   4.992
54843W        W27169   3.619  11.343  10.088
54844W        W27170  13.237  29.888   2.383
54845W        W27171  39.821  29.082  14.251
54846W        W27172   5.466  20.348  13.427
54847W        W27173  31.826  39.333   2.792
54848W        W27174   3.777  16.251  12.543
54849W        W27175  22.065  41.384   0.643
54850W        W27176  16.136  35.556   2.258
54851W        W27177  24.169   5.752  12.395
54852W        W27178  13.349  25.607   2.109
54853W        W27179   3.248  20.467  10.633
54854W        W27180  32.637  12.265   1.359
54855W        W27181   1.311   5.724  13.601
54856W        W27182  20.885   4.246  11.980
54857W        W27183  29.556  37.691  10.724
54858W        W27184  36.317  24.028  13.023
54859W        W27185  37.905  29.979  14.368
54860W        W27186   2.889  30.376   0.938
54861W        W27187  13.072  37.047  12.508
54862W        W27188  36.279  22.309  13.559
54863W        W27189  25.041  43.915  11.921
54864W        W27190  40.283  22.609   0.385
54865W        W27191  34.796  39.814  12.020
54866W        W27192  31.466  16.661  10.458
54867W        W27193  38.793   8.588   3.126
54868W        W27194  32.900  14.943  12.037
54869W        W27195  36.329  41.794  11.929
54870W        W27196  29.546   3.702   4.095
54871W        W27197  22.796   7.446  12.090
54872W        W27198  41.978  20.057  13.880
54873W        W27199  29.716  38.909   2.168
54874W        W27200   2.388  26.661   3.696
54875W        W27201  34.783  15.061  12.611
54876W        W27202   1.842  29.939   0.367
54877W        W27203  21.832  35.914  13.359
54878W        W27204  17.256   0.017   4.329
54879W        W27205  32.841  31.169  12.824
54880W        W27206  36.296   0.893   3.103
54881W        W27207  34.602  35.099  11.385
54882W        W27208  29.321  44.087   4.521
54883W        W27209  12.258  15.328   3.782
54884W        W27210  30.491  36.537  12.947
54885W        W27211  25.185  19.261   2.345
54886W        W27212  21.091   6.215   1.762
54887W        W27213   9.215  10.156  10.207
54888W        W27214   7.269   7.628   3.552
54889W        W27215   8.843  39.251   1.880
54890W        W27216  30.001  27.643  11.452
54891W        W27217  33.621  33.628   0.192
54892W        W27218  12.795  16.328  12.494
54893W        W27219   1.277  21.269  12.552
54894W        W27220  31.636   2.885  12.680
54895W        W27221  22.553  33.543  11.465
54896W        W27222   8.922  30.099  12.856
54897W        W27223  19.503  33.238  14.350
54898W        W27224  29.078  35.603  14.093
54899W        W27225  28.606   8.297  13.410
54900W        W27226  44.523  35.678   2.358
54901W        W27227   9.271  41.009   4.619
54902W        W27228  12.679  24.297  11.235
54903W        W27229  28.137  21.258  13.848
54904W        W27230  18.085   0.351   0.078
54905W        W27231  39.472  41.319  11.189
54906W        W27232  35.345  17.596   3.229
54907W        W27233  19.276  33.077  13.394
54908W        W27234  29.690   5.420   0.186
54909W        W27235   2.476  26.573  10.699
54910W        W27236  25.717  12.496   3.378
54911W        W27237   0.993   2.832  11.926
54912W        W27238   9.848  29.511   1.873
54913W        W27239  24.514  26.157  14.371
54914W        W27240  26.004   7.793   3.891
54915W        W27241  29.727   7.761  10.703
54916W        W27242   6.238   1.807   1.497
54917W        W27243  22.218  12.628   4.048
54918W        W27244  40.090  20.568   1.227
54919W        W27245  41.213   5.875   3.606
54920W        W27246   4.793  30.502  12.811
54921W        W27247  18.710  26.704  10.986
54922W        W27248  44.996  12.102   2.368
54923W        W27249  35.056  35.576   1.397
54924W        W27250   8.329  26.710  11.488
54925W        W27251  21.841  44.306  11.997
54926W        W27252  37.871  13.713   0.904
54927W        W27253  28.793  34.574   3.963
54928W        W27254  26.913  38.017   2.215
54929W        W27255  13.002  39.739  13.019
54930W        W27256  36.200  34.017   5.039
54931W        W27257  10.751  30.959   2.816
54932W        W27258  14.688   6.879  14.298
54933W        W27259  18.450   5.391  10.512
54934W        W27260  28.945  30.692  11.044
54935W        W27261   6.945  29.638   0.860
54936W        W27262  36.248  28.483   5.052
54937W        W27263  23.278  15.673  12.033
54938W        W27264  37.424   5.218  14.446
54939W        W27265  32.969  34.420   2.197
54940W        W27266  16.792  43.388  14.429
54941W        W27267  11.288  37.413  14.505
54942W        W27268  11.189  22.337  11.495
54943W        W27269   3.841  22.716  11.815
54944W        W27270  42.957   4.327  10.656
54945W        W27271  20.214  13.150  10.766
54946W        W27272  43.385   4.827   0.724
54947W        W27273  40.545   3.366  10.729
54948W        W27274  32.439  33.636   2.253
54949W        W27275  37.787  19.054   0.243
54950W        W27276  11.697  27.035   3.109
54951W        W27277  25.145  37.856   4.146
54952W        W27278  32.338  37.410   4.632
54953W        W27279  32.330  16.582  14.440
54954W        W27280   2.755   2.252   4.615
54955W        W27281   0.832  12.295  10.864
54956W        W27282  41.891  44.131  12.832
54957W        W27283  23.490  22.221   0.374
54958W        W27284  36.842   8.369  12.628
54959W        W27285  10.027  36.525   2.375
54960W        W27286  43.443  14.590  10.871
54961W        W27287   8.377  18.510  11.532
54962W        W27288  36.988  42.310   1.700
54963W        W27289   6.425  11.334   0.957
54964W        W27290  37.601  40.516   3.043
54965W        W27291  13.781  41.280   2.752
54966W        W27292   5.399   5.647  11.149
54967W        W27293  15.389  14.806   0.606
54968W        W27294  20.008  34.469  13.313
54969W        W27295  31.184  15.648   2.189
54970W        W27296  11.706  31.846  13.197
54971W        W27297  43.923  13.263  12.830
54972W        W27298  24.515  39.791  10.675
54973W        W27299  21.023  15.341  11.871
54974W        W27300   9.344  10.888  12.959
54975W        W27301  42.015  40.895  11.604
54976W        W27302  38.170  26.289   0.720
54977W        W27303   3.436  16.650   2.697
54978W        W27304  29.130  35.440   2.304
54979W        W27305  35.428  42.959   1.234
54980W        W27306  20.037   8.656  13.269
54981W        W27307  39.823  11.748  14.967
54982W        W27308  25.276   0.838  11.623
54983W        W27309  28.357  10.487  14.368
54984W        W27310  36.408  23.526   2.463
54985W        W27311  43.795   4.313   4.324
54986W        W27312  17.370   0.772   0.334
54987W        W27313  30.902  11.741  14.551
54988W        W27314  29.108  14.339  12.006
54989W        W27315   1.069  15.038   4.890
54990W        W27316  20.002  21.148   2.256
54991W        W27317   3.935  10.896  11.223
54992W        W27318  29.919  40.037   1.838
54993W        W27319  13.122   6.328   3.235
54994W        W27320  28.827  36.004  13.900
54995W        W27321   8.340  26.594  10.353
54996W        W27322  37.395  36.571  12.103
54997W        W27323  31.008  12.365  14.900
54998W        W27324  15.145  35.596   1.590
54999W        W27325  30.517   7.852   0.662
55000W        W27326  18.999  27.148  12.622
55001W        W27327  38.084   1.491  12.108
55002W        W27328   7.108  20.610   1.926
55003W        W27329  20.539  27.601   1.879
55004W        W27330  21.791  43.301   2.942
55005W        W27331  33.455  25.158   2.867
55006W        W27332  44.324   9.271  10.156
55007W        W27333  24.492  14.760  14.819
55008W        W27334   7.454  14.857   4.212
55009W        W27335  38.887   7.987  13.585
55010W        W27336   6.333  31.016   0.191
55011W        W27337  20.776  11.060   2.520
55012W        W27338  43.409   6.678   2.769
55013W        W27339  28.699  22.699   0.270
55014W        W27340  35.051   6.114  10.696
55015W        W27341  33.184  24.166  14.063
55016W        W27342  17.543  22.771   2.699
55017W        W27343   8.637  42.502   2.849
55018W        W27344  36.628  11.259   4.647
55019W        W27345  34.403  11.659   3.326
55020W        W27346  36.736  17.995  12.343
55021W        W27347  16.836   5.591   2.794
55022W        W27348   0.852  33.066  12.966
55023W        W27349  10.822  16.824   3.520
55024W        W27350  37.540  19.943   0.412
55025W        W27351   1.351  23.628   3.040
55026W        W27352   5.311  12.856  10.803
55027W        W27353  40.402  15.874  14.808
55028W        W27354  22.035  21.537  10.476
55029W        W27355  42.537  36.411   2.354
55030W        W27356  33.715   9.208  14.457
55031W        W27357  43.225  38.024  13.404
55032W        W27358  36.295  39.475  13.916
55033W        W27359  30.483  26.848   4.210
55034W        W27360   4.340   2.752   3.355
55035W        W27361  22.564  17.861  13.474
55036W        W27362   1.485  24.669   2.292
55037W        W27363  29.921  11.639  14.951
55038W        W27364  10.552  12.813   1.713
55039W        W27365  29.521  32.528  12.527
55040W        W27366   0.391  26.628   2.421
55041W        W27367   7.360   9.146  12.626
55042W        W27368   2.151  25.963  11.902
55043W        W27369  39.333  34.551  10.679
55044W        W27370  34.594  11.600   1.942
55045W        W27371  16.278   6.371  11.760
55046W        W27372  31.048  13.650  10.680
55047W        W27373   5.258  24.960   4.297
55048W        W27374  22.039  36.351   0.834
55049W        W27375   7.627   5.286  13.884
55050W        W27376  36.377  25.456  13.965
55051W        W27377  20.592  12.563   4.213
55052W        W27378  43.184   7.857  10.725
55053W        W27379  37.367  15.432   3.162
55054W        W27380  21.057   9.281   0.422
55055W        W27381  22.443  27.163  14.088
55056W        W27382   0.009  38.145  12.566
55057W        W27383   9.199  42.913   0.872
55058W        W27384  28.625  29.469  13.981
55059W        W27385   6.212  42.020  12.446
55060W        W27386  41.395  34.585   4.511
55061W        W27387  34.435  22.204  14.391
55062W        W27388  22.212   1.343  11.673
55063W        W27389  39.205  25.971   3.325
55064W        W27390  41.421  32.079  11.346
55065W        W27391  30.642   0.206  14.390
55066W        W27392  10.302   2.909  12.836
55067W        W27393  24.981   1.846   0.311
55068W        W27394   7.459  40.902   0.307
55069W        W27395   3.709  38.941   2.838
55070W        W27396  18.314  11.864   4.658
55071W        W27397  15.125  38.468  13.926
55072W        W27398  31.420  27.932  12.496
55073W        W27399  34.002  17.844  14.980
55074W        W27400   4.331  28.926  12.173
55075W        W27401  35.774  41.288   2.714
55076W        W27402  12.411   5.923   0.589
55077W        W27403  11.172   9.628  14.310
55078W        W27404   8.188  29.500  10.707
55079W        W27405  41.361  29.102  13.315
55080W        W27406  15.386  19.064  14.744
55081W        W27407  43.823  33.481  11.149
55082W        W27408  40.013  30.881   0.661
55083W        W27409   5.284   2.863   2.911
55084W        W27410  31.568  40.306   4.178
55085W        W27411   9.949  34.809  12.982
55086W        W27412   1.423  17.535   4.663
55087W        W27413   4.276  35.365  12.074
55088W        W27414  32.927   0.994  13.478
55089W        W27415  25.237  22.169   3.275
55090W        W27416  43.808  13.373   1.730
55091W        W27417  10.443  11.195   4.168
55092W        W27418  18.079  24.850   0.902
55093W        W27419  34.379  25.323  11.078
55094W        W27420  15.153  19.802   3.428
55095W        W27421  20.060  40.543  13.375
55096W        W27422  38.843  31.437   3.715
55097W        W27423  20.616  38.142   1.741
55098W        W27424  24.538   6.872   3.824
55099W        W27425   6.200  13.802  14.711
55100W        W27426  34.042   6.253  10.691
55101W        W27427   5.437  29.530   3.114
55102W        W27428  38.884   5.203   3.915
55103W        W27429   3.958   9.724  13.789
55104W        W27430  31.889  24.116  13.415
55105W        W27431  24.138   9.298   0.180
55106W        W27432  30.015  23.958   3.639
55107W        W27433   9.854  19.794   2.598
55108W        W27434  10.826  10.659  13.809
55109W        W27435  17.072  44.354  13.001
55110W        W27436   0.549  44.405  13.430
55111W        W27437   5.896  41.330  13.059
55112W        W27438  26.594   0.418  11.649
55113W        W27439  32.155  34.511  14.713
55114W        W27440  29.483  34.184   3.694
55115W        W27441  30.293  25.260  13.345
55116W        W27442  15.801  40.376  14.961
55117W        W27443  17.803  42.231   3.738
55118W        W27444  10.110  17.107   3.271
55119W        W27445   6.900  30.338  14.436
55120W        W27446   7.622  24.606  12.440
55121W        W27447  42.480  41.576  10.558
55122W        W27448  42.152  28.545  13.784
55123W        W27449   5.783  10.310  12.912
55124W        W27450   2.818  39.417   4.606
55125W        W27451  38.343  28.438   2.843
55126W        W27452   4.319  41.487   2.472
55127W        W27453  33.431  22.464   5.014
55128W        W27454   5.353   0.042   0.416
55129W        W27455  23.155  17.419  12.316
55130W        W27456  23.566  35.815  14.964
55131W        W27457  41.604  37.506   1.188
55132W        W27458  41.929   9.320  14.222
55133W        W27459  10.838  14.318  12.511
55134W        W27460  21.145  27.956  10.681
55135W        W27461  40.923  39.329  12.621
55136W        W27462  41.969   9.775  10.938
55137W        W27463  15.237  10.733  13.247
55138W        W27464  11.194   6.506  11.607
55139W        W27465   5.802  17.222   0.852
55140W        W27466   0.643  19.047  10.848
55141W        W27467   3.471  32.538   4.914
55142W        W27468  18.257  43.974  12.433
55143W        W27469   5.729  15.022  14.362
55144W        W27470  29.410  29.956  14.862
55145W        W27471  42.440  44.333   4.098
55146W        W27472  18.691  40.022   4.823
55147W        W27473  30.586  16.144  14.297
55148W        W27474   3.015  24.613  14.064
55149W        W27475  35.835  20.636   2.836
55150W        W27476  38.810  21.788  12.027
55151W        W27477  25.030   0.447   0.887
55152W        W27478  44.996  31.030  13.830
55153W        W27479  24.680  17.779   0.818
55154W        W27480  10.848  21.676   3.610
55155W        W27481   2.947   4.742  13.123
55156W        W27482  26.557  33.006   2.678
55157W        W27483  37.530  32.438  14.840
55158W        W27484  15.378  25.270  13.623
55159W        W27485  13.826  44.620  11.647
55160W        W27486  15.317  44.897   3.762
55161W        W27487  40.816  13.909  12.898
55162W        W27488  34.642  13.506  13.810
55163W        W27489  16.353  28.419   0.775
55164W        W27490  37.468  22.500   1.301
55165W        W27491   4.688   2.409   2.764
55166W        W27492   6.259   3.774  11.415
55167W        W27493  16.137  35.856   0.650
55168W        W27494   4.703  33.626  12.808
55169W        W27495  32.599  13.510  14.410
55170W        W27496  22.099  10.133  11.357
55171W        W27497   4.525  44.557  12.667
55172W        W27498   4.219  10.898   1.971
55173W        W27499   2.243  43.091  12.160
55174W        W27500  41.160  30.603   3.331
55175W        W27501  42.226   9.995   0.532
55176W        W27502  10.075  35.529   2.008
55177W        W27503  22.099  28.380  12.920
55178W        W27504   5.507  22.731   0.455
55179W        W27505  15.754  35.034  13.394
55180W        W27506   7.426   8.376  14.577
55181W        W27507  21.290  25.669   0.612
55182W        W27508  42.713  23.522   2.670
55183W        W27509  21.045  33.079   0.845
55184W        W27510  16.113  44.328   1.778
55185W        W27511  24.292   3.003  12.474
55186W        W27512  22.845  34.099  10.100
55187W        W27513  12.512  26.109   9.819
55188W        W27514   4.865   6.402  11.983
55189W        W27515  19.852  10.082  14.272
55190W        W27516  11.046  25.594  14.478
55191W        W27517  31.169   6.915   3.174
55192W        W27518  32.018  39.445  11.538
55193W        W27519  36.647  23.054   4.653
55194W        W27520  12.069  39.527  14.469
55195W        W27521  32.457  24.469   1.240
55196W        W27522  16.204  33.394  11.531
55197W        W27523  15.781  26.750  12.878
55198W        W27524  17.974  31.594   4.543
55199W        W27525   2.697  35.938   1.376
55200W        W27526  30.495   1.053   2.700
55201W        W27527  31.787   6.255   1.896
55202W        W27528   2.283  43.394   0.981
55203W        W27529  24.280  20.155   1.903
55204W        W27530  41.459  29.226   1.695
55205W        W27531  33.621  32.341   0.020
55206W        W27532   7.474  29.777  11.770
55207W        W27533  13.096  12.809   4.681
55208W        W27534  35.319  40.959   4.644
55209W        W27535  42.417  16.729   1.343
55210W        W27536  20.315  10.219  14.467
55211W        W27537  40.853  39.319   1.267
55212W        W27538  32.454  18.692   4.190
55213W        W27539   0.159  37.592  11.016
55214W        W27540  26.926   9.796   4.747
55215W        W27541   2.700  17.820  11.556
55216W        W27542   0.522  30.743   4.740
55217W        W27543   8.678  27.073   3.668
55218W        W27544   3.829  41.371   3.939
55219W        W27545  10.682  13.877  10.634
55220W        W27546  38.190  10.028   1.970
55221W        W27547   4.525  38.554   3.009
55222W        W27548  15.822  34.126   4.009
55223W        W27549  36.644  19.719  14.324
55224W        W27550  10.274  41.516   0.469
55225W        W27551  20.283  26.859  13.592
55226W        W27552  25.289  32.817   4.566
55227W        W27553  16.694  21.604  10.529
55228W        W27554   7.567  30.447   0.605
55229W        W27555  18.684   4.173  11.933
55230W        W27556  28.426  34.510  11.497
55231W        W27557  43.482   0.644   2.771
55232W        W27558  13.583  31.639  13.758
55233W        W27559  20.670  23.920   4.223
55234W        W27560  42.903  41.889  10.605
55235W        W27561  39.533  26.953   2.373
55236W        W27562  39.074   7.430   0.388
55237W        W27563  25.108  44.404  11.224
55238W        W27564   7.574  10.672  11.497
55239W        W27565   3.774  16.103  14.851
55240W        W27566   2.657  43.019   3.157
55241W        W27567  28.988  27.603   4.619
55242W        W27568  36.974   8.891   3.122
55243W        W27569  44.025   1.210   0.843
55244W        W27570   7.396  41.754  13.429
55245W        W27571  22.244  21.071  10.696
55246W        W27572  33.524  10.662  10.591
55247W        W27573   6.458  14.762   4.333
55248W        W27574   5.554  22.534   2.304
55249W        W27575  19.770  29.910  11.569
55250W        W27576  20.166  32.095  14.414
55251W        W27577  21.235  26.671   1.413
55252W        W27578  39.290  11.625   0.325
55253W        W27579  26.395  13.335  11.139
55254W        W27580  18.844  16.316   1.274
55255W        W27581  12.660   3.795  10.918
55256W        W27582  25.927  30.087  12.096
55257W        W27583  21.631  10.753   0.853
55258W        W27584   4.862  22.679  14.535
55259W        W27585  30.842  28.858   2.735
55260W        W27586  25.726  12.418  12.826
55261W        W27587  23.535   4.105   1.408
55262W        W27588  22.617  33.599   0.697
55263W        W27589  22.001  42.861  10.830
55264W        W27590  31.880   1.021  11.613
55265W        W27591  35.969  35.264  10.214
55266W        W27592  18.656  17.124   4.577
55267W        W27593  13.212  44.612   0.344
55268W        W27594   9.463  19.080  12.146
55269W        W27595  20.245   5.788  13.896
55270W        W27596   4.432  12.641  10.109
55271W        W27597  32.408  27.051   1.402
55272W        W27598  43.104  12.727  11.034
55273W        W27599   6.619  39.122   1.034
55274W        W27600   3.361  14.032   3.375
55275W        W27601  25.488  27.893  13.682
55276W        W27602  11.896   4.894  12.181
55277W        W27603  27.721   6.288   4.546
55278W        W27604  27.139  30.874   0.834
55279W        W27605  44.846  41.985  10.580
55280W        W27606  42.505  13.551   0.431
55281W        W27607  42.281  24.684  11.381
55282W        W27608   7.238  20.938  13.944
55283W        W27609  39.810  14.883   3.748
55284W        W27610  31.675  14.184   3.277
55285W        W27611   9.695   3.475  10.612
55286W        W27612  33.032  17.229  13.874
55287W        W27613  40.111  11.103   1.401
55288W        W27614  11.138  14.655  11.989
55289W        W27615  35.102  38.482   4.783
55290W        W27616   8.352   9.091   3.790
55291W        W27617  17.617  42.483   4.253
55292W        W27618  31.101  41.343   0.691
55293W        W27619  14.737   6.435   3.596
55294W        W27620  35.349  37.987   0.392
55295W        W27621  30.966  19.728   9.886
55296W        W27622  12.603  39.779   0.253
55297W        W27623  31.909  36.416   2.753
55298W        W27624  25.972  30.068  13.941
55299W        W27625  42.906  38.529  13.082
55300W        W27626  22.585  35.290   5.164
55301W        W27627  30.447  30.867  11.032
55302W        W27628  12.882  14.798  13.909
55303W        W27629  25.567  34.868  13.484
55304W        W27630  10.397  44.579  13.570
55305W        W27631  12.449  33.408  12.092
55306W        W27632  42.810   4.467  13.846
55307W        W27633  38.553  15.565  11.912
55308W        W27634  29.703  17.196  12.548
55309W        W27635  35.099   7.294   1.841
55310W        W27636  43.433  43.154  10.518
55311W        W27637   9.964  21.344   1.514
55312W        W27638  35.063  25.245  12.081
55313W        W27639   2.011   0.412  11.057
55314W        W27640   9.850  30.719  14.380
55315W        W27641  20.696  37.647  13.002
55316W        W27642  23.111  41.510   2.764
55317W        W27643  31.019   2.502   1.790
55318W        W27644  22.311   2.920   1.924
55319W        W27645  27.327  21.364   0.502
55320W        W27646  20.639  15.577   2.149
55321W        W27647  11.800  21.672  14.710
55322W        W27648  19.321  20.189   2.697
55323W        W27649   3.693  13.742  13.035
55324W        W27650  14.299  26.722  12.189
55325W        W27651  31.461  32.488  12.068
55326W        W27652  13.114  37.520   1.836
55327W        W27653  35.205  43.824   1.405
55328W        W27654  37.124  43.241   3.263
55329W        W27655  42.420  24.122  13.803
55330W        W27656  10.900  27.987   2.664
55331W        W27657  36.971  42.546  11.136
55332W        W27658   5.369  25.752  13.882
55333W        W27659  19.685  30.493  13.842
55334W        W27660  26.199  29.475  10.897
55335W        W27661  39.629   0.077   4.760
55336W        W27662  12.425  43.527   4.047
55337W        W27663  29.630  11.759   0.370
55338W        W27664  28.942  18.346   3.812
55339W        W27665  37.993  21.296   4.217
55340W        W27666  20.131  39.018   4.099
55341W        W27667  12.377  37.879  11.806
55342W        W27668  37.722  32.494   1.336
55343W        W27669   7.198  17.793   4.326
55344W        W27670   3.771   4.248  14.840
55345W        W27671  40.738   0.829   2.719
55346W        W27672  16.605   3.761   1.699
55347W        W27673  39.852  36.903   2.285
55348W        W27674   8.018  31.115  13.294
55349W        W27675  11.288  25.690  14.929
55350W        W27676  12.709  24.752   1.286
55351W        W27677  18.503  14.219   4.167
55352W        W27678  37.875  39.766  12.476
55353W        W27679  32.574  44.052   1.265
55354W        W27680  29.933   1.905   2.540
55355W        W27681   8.892   8.472   1.603
55356W        W27682  35.604  36.375   0.324
55357W        W27683  42.439  40.594  12.819
55358W        W27684   2.857  10.571   9.891
55359W        W27685  16.814  43.816   2.654
55360W        W27686   7.109  16.602   4.897
55361W        W27687   6.582  29.341   1.099
55362W        W27688  10.134   6.172   2.847
55363W        W27689  29.968  13.219   3.679
55364W        W27690  31.572  21.574  12.384
55365W        W27691   2.880   2.397  10.521
55366W        W27692  40.641  24.572   2.542
55367W        W27693  16.279  41.919  14.399
55368W        W27694  21.995  12.669  14.366
55369W        W27695   0.139   3.020   2.643
55370W        W27696  24.211  28.587   1.970
55371W        W27697  18.163  26.207   0.328
55372W        W27698  21.681   6.210  11.013
55373W        W27699   5.357  34.661   1.846
55374W        W27700  17.025  24.173  14.785
55375W        W27701  25.451  42.943   0.313
55376W        W27702  40.980  27.309  13.927
55377W        W27703  36.866  29.689  11.076
55378W        W27704   2.334  10.362  12.418
55379W        W27705   6.958   0.470   1.420
55380W        W27706   8.027   6.138  12.399
55381W        W27707  10.699  32.152   3.263
55382W        W27708  10.136  19.920   5.126
55383W        W27709  25.664  34.832  10.667
55384W        W27710  44.968  27.537   1.160
55385W        W27711  17.645  31.072  14.826
55386W        W27712   6.174  33.386  14.515
55387W        W27713  14.886  22.758  13.882
55388W        W27714  39.475  25.080  11.467
55389W        W27715  20.012  24.201   0.430
55390W        W27716  15.896   4.722  11.602
55391W        W27717   4.758  43.686  14.719
55392W        W27718  24.484  39.112  13.084
55393W        W27719  43.530  40.467  12.467
55394W        W27720  24.036  30.079  11.120
55395W        W27721   9.225  33.457  10.601
55396W        W27722  38.603  28.335  11.072
55397W        W27723  20.168  35.965  12.607
55398W        W27724  33.948  17.046  10.031
55399W        W27725  22.283   6.297  11.802
55400W        W27726  14.860   9.443  12.617
55401W        W27727  26.085  42.906   1.603
55402W        W27728  12.352   6.385   0.330
55403W        W27729  13.144  28.488  13.121
55404W        W27730   5.553  13.692   0.778
55405W        W27731  15.591  14.649   3.612
55406W        W27732  42.066  25.142  14.878
55407W        W27733  11.146  29.153  12.473
55408W        W27734   3.474   0.047  13.344
55409W        W27735   1.248  17.277   1.746
55410W        W27736  44.441  34.505   0.652
55411W        W27737  27.480   9.474  10.791
55412W        W27738  12.243  34.144  12.805
55413W        W27739  34.477  32.823   4.741
55414W        W27740  20.719   2.735  10.609
55415W        W27741  42.180  15.972  12.528
55416W        W27742  39.369   9.085  11.143
55417W        W27743  22.087  44.200  14.779
55418W        W27744   1.757  34.328  14.801
55419W        W27745  24.730   8.965   0.851
55420W        W27746  21.107  44.392   0.948
55421W        W27747  14.249  13.686   2.817
55422W        W27748  19.330  32.261   0.548
55423W        W27749   6.367   4.274   1.343
55424W        W27750  20.168  43.903  13.008
55425W        W27751  22.413  37.005   3.177
55426W        W27752  43.812   3.505   2.725
55427W        W27753  38.773  10.997   2.872
55428W        W27754  25.204  11.795   1.860
55429W        W27755   7.370  30.070  13.143
55430W        W27756  44.192  22.038  13.488
55431W        W27757  28.729  34.909   3.271
55432W        W27758  15.069  19.714  11.583
55433W        W27759  12.533  31.030   0.229
55434W        W27760  26.647  28.500  12.903
55435W        W27761  16.128  18.289  11.550
55436W        W27762  33.640  30.702  14.955
55437W        W27763  30.136  38.899   1.271
55438W        W27764   9.484  44.393  13.460
55439W        W27765  29.680  38.840  10.131
55440W        W27766  10.785   4.347   4.155
55441W        W27767  13.077  18.261   4.151
55442W        W27768   8.318  14.360   3.361
55443W        W27769  39.272  22.534  10.719
55444W        W27770  18.766   0.873   3.820
55445W        W27771  17.571   5.263  14.535
55446W        W27772  11.299  29.168   0.590
55447W        W27773  35.468  15.288  10.532
55448W        W27774   5.025  26.753   2.011
55449W        W27775  23.631  33.992   1.948
55450W        W27776  25.134   2.418  13.148
55451W        W27777   3.459  33.055   4.524
55452W        W27778  17.785  42.299   4.759
55453W        W27779   3.061  27.448   0.479
55454W        W27780  15.189   5.498   3.239
55455W        W27781  39.885  32.409   0.899
55456W        W27782  37.074  17.328  14.263
55457W        W27783  14.767   9.456   1.457
55458W        W27784  16.532  13.836   2.279
55459W        W27785  14.928   1.711  10.334
55460W        W27786   8.734  36.059  11.068
55461W        W27787   3.697  14.205  14.980
55462W        W27788  34.596  20.484  12.745
55463W        W27789  32.084   6.103  11.174
55464W        W27790  39.022  39.887  10.281
55465W        W27791  19.754  12.394  11.377
55466W        W27792  26.092  37.542   1.903
55467W        W27793   2.281  17.337   2.654
55468W        W27794   3.760  43.584  10.619
55469W        W27795  32.425  19.661  14.519
55470W        W27796  35.288   9.364   0.831
55471W        W27797   8.772  29.610  12.815
55472W        W27798  40.474   6.174   3.621
55473W        W27799   9.774  37.934   1.812
55474W        W27800  23.508   2.744   0.393
55475W        W27801  17.565  20.534   4.100
55476W        W27802  25.425   5.617  14.309
55477W        W27803  24.125  39.442  11.605
55478W        W27804  27.154  43.788   4.184
55479W        W27805   7.565  11.676  11.573
55480W        W27806  20.649  36.165   3.649
55481W        W27807  26.426  25.507   1.442
55482W        W27808  23.269  37.846   3.286
55483W        W27809  42.341  19.225  11.170
55484W        W27810  12.809  26.509  11.042
55485W        W27811  26.481  42.465   4.530
55486W        W27812  33.472  15.240  14.314
55487W        W27813  30.002  44.206   0.529
55488W        W27814  44.411  14.280  14.782
55489W        W27815  19.874  14.864   1.823
55490W        W27816  10.539  11.550   4.560
55491W        W27817   1.396  16.322   2.789
55492W        W27818  17.990  14.243   1.018
55493W        W27819  17.373  21.309  13.522
55494W        W27820   4.745  44.769   0.019
55495W        W27821   3.251  32.604   2.831
55496W        W27822  33.269  33.620   2.755
55497W        W27823  25.599  15.151  11.927
55498W        W27824  25.582  21.565   4.471
55499W        W27825  10.592  39.048  12.432
55500W        W27826  15.889  10.811   4.156
55501W        W27827   1.605  41.880  14.561
55502W        W27828  32.891  35.621   1.832
55503W        W27829  28.330  19.924   0.474
55504W        W27830  21.457  29.118  11.155
55505W        W27831  22.630  29.072   2.519
55506W        W27832  20.162  20.865  14.411
55507W        W27833   3.466  44.008   5.137
55508W        W27834   8.900  30.212   0.623
55509W        W27835  28.779  31.939   1.949
55510W        W27836  13.836  28.439   0.730
55511W        W27837  41.207  31.055  14.890
55512W        W27838  23.164   1.623  13.105
55513W        W27839  39.867  34.053   1.264
55514W        W27840   6.910  19.246   1.213
55515W        W27841  37.553  17.636   4.163
55516W        W27842  10.779  30.102   0.291
55517W        W27843  29.983  28.898  12.134
55518W        W27844   7.091  13.778   3.665
55519W        W27845  24.685  29.482  10.677
55520W        W27846  24.968  40.839  14.231
55521W        W27847  19.821  25.762   0.143
55522W        W27848  13.302  24.570  10.936
55523W        W27849   5.200  35.071  11.690
55524W        W27850   6.344   6.314  10.696
55525W        W27851  21.412   2.936  13.105
55526W        W27852   9.629  26.242   0.886
55527W        W27853  28.696  25.921   0.455
55528W        W27854  39.049   3.438  14.898
55529W        W27855  43.810  35.848   1.818
55530W        W27856   9.195  12.878   5.064
55531W        W27857  17.388   7.337  12.771
55532W        W27858  24.687  38.375  13.508
55533W        W27859  10.356  27.019  10.683
55534W        W27860  38.019  29.934   3.281
55535W        W27861   1.816   3.394   4.981
55536W        W27862  29.465   6.118  12.466
55537W        W27863  17.296  33.057  12.079
55538W        W27864  14.612   0.128   2.384
55539W        W27865  24.131  25.591   2.872
55540W        W27866  23.749  20.691   2.801
55541W        W27867  21.656   5.702   3.559
55542W        W27868  30.203  33.388  14.306
55543W        W27869  33.062  29.807   3.698
55544W        W27870   5.250  30.108   3.710
55545W        W27871  23.759   9.704  11.102
55546W        W27872  32.397  26.124  14.536
55547W        W27873  35.334  12.741   0.051
55548W        W27874  10.668  19.808   1.301
55549W        W27875  18.583  30.995   0.863
55550W        W27876  32.620  22.162   2.608
55551W        W27877  17.121  30.978   3.704
55552W        W27878  22.077   2.021   1.903
55553W        W27879  24.473  31.927   0.333
55554W        W27880  12.324   2.489   2.317
55555W        W27881  29.410   7.347  10.622
55556W        W27882  24.922  40.456  11.161
55557W        W27883   7.390  34.151   3.754
55558W        W27884   0.373  28.921  13.865
55559W        W27885  38.434  43.937  11.136
55560W        W27886  17.729  15.733  11.597
55561W        W27887   2.869  40.101   1.894
55562W        W27888   5.188  19.812  12.392
55563W        W27889   6.639   7.254   3.823
55564W        W27890  22.602  41.362   2.864
55565W        W27891  34.955   2.277   4.303
55566W        W27892  17.850   0.351   1.455
55567W        W27893  41.361  28.585  12.060
55568W        W27894  25.118   6.416   0.902
55569W        W27895  38.266  11.134   2.784
55570W        W27896  29.082  33.659  12.966
55571W        W27897  35.417  16.649  12.604
55572W        W27898  25.156   2.176  14.946
55573W        W27899   1.819  10.350   5.128
55574W        W27900   2.823  33.652  10.513
55575W        W27901  26.184   9.099   0.596
55576W        W27902  25.689  10.177  13.878
55577W        W27903  26.551  13.266   4.192
55578W        W27904  42.948  32.259  14.830
55579W        W27905  23.585  40.396   1.518
55580W        W27906  28.072  35.029  14.815
55581W        W27907  22.267  38.591   1.152
55582W        W27908  37.278  33.460  14.339
55583W        W27909   8.439  13.456   2.708
55584W        W27910  13.203  18.974   0.237
55585W        W27911   5.654  10.168   0.350
55586W        W27912  34.041  44.305   0.372
55587W        W27913  27.586   9.191   0.478
55588W        W27914  29.995  19.491  12.929
55589W        W27915   1.960  20.488  10.168
55590W        W27916  42.751  26.210   0.482
55591W        W27917   5.995  30.938   2.782
55592W        W27918  36.449  41.751  13.509
55593W        W27919  23.760  44.995  14.916
55594W        W27920  11.747   8.298  10.561
55595W        W27921  26.630  15.098   2.684
55596W        W27922   8.127  44.361   1.773
55597W        W27923  35.964  21.288  11.424
55598W        W27924   4.152  38.778   0.342
55599W        W27925   2.596  28.893   2.031
55600W        W27926  30.226  26.612   2.845
55601W        W27927  23.071  19.125  13.807
55602W        W27928  28.396  41.458  14.281
55603W        W27929  18.515  19.672   2.619
55604W        W27930   8.837  29.019   3.737
55605W        W27931  25.261  42.805  14.205
55606W        W27932  32.078  20.977   0.910
55607W        W27933  26.220  37.529  14.472
55608W        W27934  19.619  13.759   4.283
55609W        W27935  39.089   6.472  14.346
55610W        W27936  34.191  15.284   0.806
55611W        W27937   4.423  15.693  12.160
55612W        W27938  36.138  37.020  14.867
55613W        W27939  27.966  35.617   9.969
55614W        W27940  14.771  23.773  10.357
55615W        W27941  39.288   4.853  14.784
55616W        W27942  42.520  42.864  14.840
55617W        W27943  26.315  22.029   1.222
55618W        W27944  19.800  35.393  11.475
55619W        W27945   3.814  28.991   0.028
55620W        W27946  28.421  10.713   1.735
55621W        W27947  33.141  41.755  11.136
55622W        W27948  29.579  26.183  13.195
55623W        W27949  33.082   9.319  12.821
55624W        W27950  34.229  41.781  12.981
55625W        W27951  31.376  20.037   0.307
55626W        W27952   1.719   6.085  12.374
55627W        W27953  43.921  32.444   4.631
55628W        W27954  15.320   1.374  13.417
55629W        W27955  26.670  15.572  14.243
55630W        W27956   3.795  28.022   3.569
55631W        W27957  28.202  32.575   4.488
55632W        W27958   1.732  10.740  11.876
55633W        W27959  43.291  36.507   2.832
55634W        W27960  40.971  39.337   3.207
55635W        W27961  16.321  33.574   1.222
55636W        W27962  39.995   8.821  12.588
55637W        W27963   5.757   0.312  12.421
55638W        W27964  27.124  10.358  13.442
55639W        W27965  13.416   0.509   1.751
55640W        W27966  33.978   0.454   4.209
55641W        W27967  42.520  17.644   3.812
55642W        W27968  38.103   8.316   0.206
55643W        W27969  12.704   6.238  14.784
55644W        W27970   2.156   7.353  13.973
55645W        W27971   8.370  38.579  13.419
55646W        W27972  22.471  38.317  14.421
55647W        W27973  26.788  38.098   4.980
55648W        W27974  43.982  22.658   3.832
55649W        W27975  36.429  22.077  12.167
55650W        W27976  40.777  18.941   0.340
55651W        W27977  10.330   5.968   3.277
55652W        W27978   3.772  31.475   2.188
55653W        W27979  32.693  44.367   3.207
55654W        W27980  13.819  17.484  11.005
55655W        W27981   5.925  27.961  12.154
55656W        W27982  21.792   2.695  13.388
55657W        W27983  11.103  13.688  12.851
55658W        W27984  26.669  30.095   0.718
55659W        W27985  26.064  23.062  13.532
55660W        W27986  15.090  41.445   3.185
55661W        W27987  33.603  21.129  12.089
55662W        W27988   6.927  37.108   4.822
55663W        W27989  40.948  42.460   1.448
55664W        W27990  34.858  14.723   3.387
55665W        W27991  12.023   3.874  13.572
55666W        W27992   3.179  23.710  13.286
55667W        W27993  15.294   8.615   0.412
55668W        W27994   0.481  14.261   0.101
55669W        W27995  31.170  26.424  12.934
55670W        W27996  17.745  35.791   1.800
55671W        W27997  17.677  23.922  10.481
55672W        W27998  11.987  19.544   0.090
55673W        W27999  23.151   3.857   1.163
55674W        W28000  30.868  15.240   2.186
55675W        W28001  13.886   3.829  14.445
55676W        W28002   9.117   1.192  14.840
55677W        W28003  26.015  24.874  14.758
55678W        W28004  36.447  19.289  11.953
55679W        W28005   6.254  18.083  12.947
55680W        W28006   9.402  19.411   3.202
55681W        W28007  15.331  43.837  10.772
55682W        W28008  32.344  29.557   1.325
55683W        W28009   4.250  14.016  10.768
55684W        W28010  13.396  26.951   2.195
55685W        W28011  14.680  34.959  12.956
55686W        W28012  37.107  38.276   2.220
55687W        W28013  10.329   9.649   4.510
55688W        W28014  19.149  10.796  13.283
55689W        W28015  12.984   5.250   4.927
55690W        W28016   8.619  27.745  11.999
55691W        W28017  37.500  24.069   2.151
55692W        W28018  22.378  29.571  11.853
55693W        W28019  18.581   6.294   0.348
55694W        W28020  24.596  42.772   1.518
55695W        W28021  42.377  44.370  10.232
55696W        W28022  38.286  17.169   1.308
55697W        W28023  44.647  42.563  13.465
55698W        W28024  16.977  38.968   5.010
55699W        W28025  27.245  12.806  11.974
55700W        W28026  13.606  39.614   3.356
55701W        W28027  33.987  34.567  14.315
55702W        W28028  36.817  26.008   1.179
55703W        W28029  17.614  43.407  13.000
55704W        W28030  43.899  28.442   0.973
55705W        W28031  40.533  36.168  14.086
55706W        W28032  11.145  30.445   4.733
55707W        W28033  39.300  30.820  11.199
55708W        W28034   6.299  29.504  13.935
55709W        W28035  12.965  24.876  14.731
55710W        W28036  41.426   0.878   4.472
55711W        W28037   1.448  16.986   4.601
55712W        W28038  14.331  19.507   1.924
55713W        W28039  23.387  16.076  13.038
55714W        W28040  27.640  33.493  10.852
55715W        W28041  31.825  35.105   3.590
55716W        W28042   8.817   3.882  11.360
55717W        W28043  26.560   0.399   4.395
55718W        W28044  42.300  17.151   3.654
55719W        W28045  12.005  14.511  13.375
55720W        W28046  34.176  37.041  11.996
55721W        W28047  26.889  19.530   3.715
55722W        W28048  19.786  28.692   3.805
55723W        W28049  17.184  22.600  14.445
55724W        W28050  31.384  38.071   0.298
55725W        W28051  12.819  21.290   2.389
55726W        W28052  11.828   7.268   2.710
55727W        W28053  44.430  38.368   0.837
55728W        W28054   1.241  32.756  10.856
55729W        W28055  42.407  32.863   0.396
55730W        W28056  18.322  29.216  14.470
55731W        W28057  27.280  38.782  10.253
55732W        W28058  10.248   0.109   1.611
55733W        W28059  41.004  42.088  11.589
55734W        W28060  26.499  39.812  14.594
55735W        W28061   9.419   3.984  13.951
55736W        W28062   0.976  40.530   1.736
55737W        W28063  21.753  23.547  13.280
55738W        W28064  24.627  11.581  12.072
55739W        W28065   6.991  28.391  10.696
55740W        W28066  31.995  38.325   2.644
55741W        W28067   0.986  35.425  11.934
55742W        W28068  13.435  42.717  10.274
55743W        W28069  39.600  25.220  12.866
55744W        W28070  30.003  33.848  14.858
55745W        W28071  28.454  13.161  11.932
55746W        W28072  14.896  19.547   0.343
55747W        W28073  37.029   1.431  13.310
55748W        W28074   8.122   9.934  10.641
55749W        W28075  36.051  31.946   4.548
55750W        W28076  24.374  37.080   1.363
55751W        W28077  12.579  25.300  12.485
55752W        W28078   5.162  20.344  14.777
55753W        W28079   9.835  30.095   4.131
55754W        W28080  33.921   7.332  12.511
55755W        W28081  11.165  37.099  12.878
55756W        W28082  34.276  23.414  12.938
55757W        W28083  29.028  10.274  11.900
55758W        W28084  29.241   7.191   0.090
55759W        W28085  34.696  38.780   2.887
55760W        W28086   2.344   0.922   0.783
55761W        W28087  39.386  18.633   2.243
55762W        W28088  18.063  37.669   2.725
55763W        W28089  17.640  18.289  13.980
55764W        W28090  38.852   9.447   4.115
55765W        W28091  38.118  26.078   2.349
55766W        W28092  26.890  16.845   3.594
55767W        W28093   7.460  24.054   1.826
55768W        W28094  25.984  15.693   0.636
55769W        W28095  44.908   6.847  12.588
55770W        W28096  34.258  22.655  10.884
55771W        W28097   5.331  16.696  13.896
55772W        W28098  37.435   2.783  11.987
55773W        W28099  42.538  30.595   1.497
55774W        W28100  43.546  13.758  12.250
55775W        W28101  26.208  40.971   3.103
55776W        W28102  41.140  24.533   1.294
55777W        W28103  30.499  23.543  12.531
55778W        W28104  38.406   3.691  11.745
55779W        W28105  15.707  13.823  14.783
55780W        W28106  33.678  23.541  14.181
55781W        W28107   1.162  37.732  12.895
55782W        W28108  26.236   7.389  11.996
55783W        W28109  37.350   5.925   3.061
55784W        W28110  17.099  12.698  14.415
55785W        W28111  44.896   5.302  13.780
55786W        W28112   0.092  42.764   4.285
55787W        W28113   2.967  21.545  12.013
55788W        W28114  31.790   5.426  14.384
55789W        W28115  35.834  12.117   2.733
55790W        W28116  44.815  29.243  13.513
55791W        W28117  18.118  25.696  14.757
55792W        W28118  36.566  13.308  14.386
55793W        W28119  19.997  41.470  11.880
55794W        W28120  31.579  10.190   3.879
55795W        W28121  28.675  37.442   3.229
55796W        W28122  39.132  32.352  10.413
55797W        W28123   6.520  29.681  13.469
55798W        W28124   8.759  11.765   2.415
55799W        W28125   1.755   6.114   1.875
55800W        W28126  42.642  41.811  13.921
55801W        W28127  40.470  39.006   5.171
55802W        W28128  20.871  19.554   0.389
55803W        W28129  33.833  26.484   3.245
55804W        W28130  27.703   8.666  14.283
55805W        W28131  38.271   8.737  11.979
55806W        W28132  19.106   1.928   2.230
55807W        W28133  22.249  25.533   4.812
55808W        W28134  39.032  37.338  12.554
55809W        W28135  39.259  33.633   1.688
55810W        W28136  20.731  37.288   3.126
55811W        W28137  31.508   2.197  13.762
55812W        W28138  44.870  43.219   3.754
55813W        W28139  31.374  36.972   3.077
55814W        W28140   8.758  38.529  10.592
55815W        W28141   4.594  26.115   0.739
55816W        W28142   2.205  38.844  11.013
55817W        W28143  44.304  14.758  10.851
55818W        W28144  44.664  27.014   2.420
55819W        W28145  14.614  35.859   5.085
55820W        W28146  44.392  12.100  11.911
55821W        W28147  30.360   9.583  12.928
55822W        W28148  22.755  21.748   3.088
55823W        W28149  10.348  20.950  10.594
55824W        W28150   6.300  37.207   1.534
55825W        W28151   3.183   1.992  14.463
55826W        W28152   3.243  14.680  13.026
55827W        W28153   3.357   4.193   4.677
55828W        W28154  37.987   1.268   2.767
55829W        W28155  36.508  44.042  11.576
55830W        W28156  36.790  25.102  14.106
55831W        W28157  27.633   4.831  10.736
55832W        W28158  22.157  23.198   2.509
55833W        W28159  29.584   4.292  12.893
55834W        W28160   0.814   4.753   0.791
55835W        W28161   5.183   4.978   3.303
55836W        W28162   8.926   5.632  10.700
55837W        W28163   1.210  22.105   2.703
55838W        W28164  39.350  23.670  13.054
55839W        W28165   6.171   4.064   2.715
55840W        W28166  34.815   9.722   2.097
55841W        W28167  42.332  15.051   2.419
55842W        W28168  38.362  23.239  14.823
55843W        W28169  30.395  20.277  11.500
55844W        W28170   2.915  44.863  14.735
55845W        W28171  21.224  41.560   1.200
55846W        W28172  32.087  25.013  14.976
55847W        W28173  24.199  27.695  12.939
55848W        W28174  24.509  22.740  14.382
55849W        W28175  38.616  32.360  10.547
55850W        W28176  33.892  41.481   1.429
55851W        W28177   9.298  13.647   0.816
55852W        W28178   9.657  10.193   3.958
55853W        W28179  37.978   3.445   0.246
55854W        W28180  44.366  28.940  13.414
55855W        W28181  18.900  39.876   1.715
55856W        W28182  16.983   9.324  13.426
55857W        W28183  24.707  44.400   2.663
55858W        W28184  35.385  17.090  14.801
55859W        W28185   4.677  42.422   3.804
55860W        W28186  34.069  37.795  11.548
55861W        W28187  29.625   0.392   2.080
55862W        W28188  42.060   8.734  12.614
55863W        W28189  12.564  19.590   3.601
55864W        W28190  21.700  25.173   2.789
55865W        W28191   9.766   7.940  12.495
55866W        W28192  42.574  16.117  11.343
55867W        W28193  16.238   8.192  13.387
55868W        W28194  31.996  23.547   0.002
55869W        W28195  21.833  29.650  11.988
55870W        W28196   2.704  13.785   1.319
55871W        W28197  16.657  19.569   3.834
55872W        W28198   9.971  42.613  11.058
55873W        W28199  19.545  14.211   2.369
55874W        W28200   2.861   9.902   3.477
55875W        W28201  27.207  27.185  11.127
55876W        W28202  33.892  43.245  13.950
55877W        W28203   3.706   1.554  14.865
55878W        W28204  11.529   2.277   2.429
55879W        W28205   4.199  36.600   3.995
55880W        W28206   2.218  39.456  12.817
55881W        W28207  34.681  11.376   1.440
55882W        W28208  14.249  22.470   2.934
55883W        W28209  32.410  31.311   2.746
55884W        W28210  28.444   2.310  13.543
55885W        W28211  29.895  13.130  13.397
55886W        W28212  15.669  40.813   1.775
55887W        W28213  34.533  42.014   4.362
55888W        W28214  41.388   1.317   1.785
55889W        W28215  38.291  37.518  11.583
55890W        W28216  30.475  39.032   0.297
55891W        W28217  24.771  44.340   4.050
55892W        W28218  41.408  24.375  13.884
55893W        W28219  10.233   1.862  10.402
55894W        W28220  25.927   6.355   2.637
55895W        W28221  32.593  13.706  12.895
55896W        W28222  25.297   6.102  14.339
55897W        W28223  31.120   6.924   1.834
55898W        W28224  26.856   8.636   3.348
55899W        W28225   6.969  10.556   3.920
55900W        W28226   9.197  19.734  10.634
55901W        W28227  28.146  12.363  14.140
55902W        W28228  15.405  13.326  13.954
55903W        W28229   6.224  21.090   3.351
55904W        W28230  40.286   6.167   0.857
55905W        W28231   5.525  14.947  11.676
55906W        W28232  42.935  44.345  13.970
55907W        W28233  35.977  34.029   0.323
55908W        W28234  36.151   9.871  12.998
55909W        W28235   7.956  37.657   1.503
55910W        W28236   9.323   6.431  12.547
55911W        W28237  20.778  21.279  12.938
55912W        W28238  27.531  41.287  14.632
55913W        W28239  41.395  20.444  14.869
55914W        W28240  23.012  16.620   5.244
55915W        W28241  43.236   6.352  13.576
55916W        W28242  18.585  33.003   1.018
55917W        W28243  21.987  35.792  11.583
55918W        W28244  26.759  16.906  12.386
55919W        W28245  39.577   0.320  13.082
55920W        W28246  43.998  24.262  11.207
55921W        W28247   4.675   3.427   1.630
55922W        W28248  31.061   7.249   3.568
55923W        W28249  17.143  19.540  11.808
55924W        W28250  15.087  28.150  11.058
55925W        W28251  41.952  23.440  10.244
55926W        W28252  31.978  19.701  10.316
55927W        W28253   2.680  12.194  11.998
55928W        W28254  14.611  31.535  12.949
55929W        W28255  41.559  40.387  14.262
55930W        W28256  19.271  17.374   2.474
55931W        W28257  37.991  16.005  10.503
55932W        W28258  40.026   1.699   2.217
55933W        W28259  12.745   2.256   0.368
55934W        W28260   3.902  17.592  12.884
55935W        W28261  35.911  18.231   0.293
55936W        W28262  33.504  36.934  14.923
55937W        W28263  44.875  28.957  13.935
55938W        W28264  29.130  21.695   3.799
55939W        W28265  26.068  42.858  10.693
55940W        W28266  26.664   4.456  12.785
55941W        W28267  25.721   8.873  13.411
55942W        W28268  14.097  18.053   1.741
55943W        W28269  28.112  35.763  10.792
55944W        W28270   5.647   3.282  11.622
55945W        W28271  30.702  37.064  14.982
55946W        W28272  12.272  35.416   1.407
55947W        W28273  42.252  30.209   4.553
55948W        W28274  15.667  12.918  10.240
55949W        W28275  32.395  40.023  11.084
55950W        W28276  31.035  25.434   1.726
55951W        W28277   5.542  14.722   4.176
55952W        W28278  27.008  24.752   4.682
55953W        W28279  28.966   6.850  10.793
55954W        W28280  21.207  31.619   3.248
55955W        W28281  21.949   0.474  11.894
55956W        W28282  20.769   0.090   3.538
55957W        W28283   4.751  11.740  14.367
55958W        W28284   5.816  25.574   4.377
55959W        W28285  44.913  44.038   1.803
55960W        W28286  43.288  33.765  11.931
55961W        W28287  43.901   3.864   4.082
55962W        W28288   1.709  32.509  10.676
55963W        W28289  29.190   3.337   4.541
55964W        W28290  17.265  16.230  12.990
55965W        W28291  39.224  22.802   1.189
55966W        W28292  20.723  23.463  10.730
55967W        W28293  43.762  26.597   1.745
55968W        W28294   1.567  41.813   3.168
55969W        W28295  25.108  14.227   4.802
55970W        W28296  17.288  25.495   1.873
55971W        W28297   7.833  31.556   2.349
55972W        W28298  10.375  21.242   2.253
55973W        W28299  21.721   6.758   1.332
55974W        W28300  31.853  14.784   4.071
55975W        W28301  32.872  27.072  12.794
55976W        W28302  30.631  25.216   1.451
55977W        W28303  29.516  15.059   2.677
55978W        W28304   9.662  24.090  12.440
55979W        W28305  24.700   3.391   2.786
55980W        W28306  12.450  24.504   0.343
55981W        W28307  27.946  42.191  12.379
55982W        W28308  19.526  17.772   4.706
55983W        W28309  31.948   2.906   3.179
55984W        W28310  44.473  11.110  11.033
55985W        W28311  29.546   4.826  12.964
55986W        W28312  37.820   3.243   4.655
55987W        W28313  39.236  25.544  14.007
55988W        W28314  33.095  19.721  10.731
55989W        W28315  11.260  10.695  13.538
55990W        W28316  25.054  24.482  13.298
55991W        W28317  20.087  17.850   2.564
55992W        W28318  15.703  18.187   0.266
55993W        W28319  23.968   1.059   4.348
55994W        W28320  38.110  20.102  12.484
55995W        W28321  30.536  11.662   1.196
55996W        W28322  14.687  37.708  13.685
55997W        W28323   3.667  20.675   2.196
55998W        W28324  26.918   0.423   0.907
55999W        W28325   7.917  18.105  12.496
56000W        W28326   5.333   9.730  13.477
56001W        W28327  14.656  15.056   1.859
56002W        W28328   9.766  20.781  14.454
56003W        W28329  36.441  40.365   0.809
56004W        W28330  22.735  38.161   1.727
56005W        W28331   0.408  18.061  11.903
56006W        W28332  21.596  34.531   3.404
56007W        W28333   8.230  23.581  12.334
56008W        W28334  29.845  10.599   4.828
56009W        W28335   7.840   9.254  13.641
56010W        W28336  14.688  30.900  12.073
56011W        W28337  19.770  34.619   1.361
56012W        W28338  27.911  14.775  12.047
56013W        W28339  41.331  40.312   4.641
56014W        W28340  38.258   5.714  11.473
56015W        W28341  43.989  20.874   4.593
56016W        W28342   9.364  27.393  12.467
56017W        W28343   4.285  42.490   0.444
56018W        W28344  20.629  24.735  14.333
56019W        W28345  10.702   0.416   4.373
56020W        W28346   2.288   1.681  14.983
56021W        W28347   3.215   3.731   3.281
56022W        W28348  32.412   0.721   9.719
56023W        W28349   7.637  38.421   4.710
56024W        W28350  23.128  17.890   5.036
56025W        W28351   5.415   2.834  11.596
56026W        W28352  20.655   4.445  11.567
56027W        W28353  27.462   7.461  12.539
56028W        W28354  23.198  23.976  12.934
56029W        W28355  12.879  23.730   0.519
56030W        W28356  21.654  37.417   2.721
56031W        W28357  30.284  24.237   1.256
56032W        W28358  36.282  12.665  11.132
56033W        W28359   7.389  27.324  14.041
56034W        W28360  10.758  26.183  12.374
56035W        W28361  15.338  31.856   2.732
56036W        W28362  29.183  25.673  10.476
56037W        W28363  43.422   9.398  10.700
56038W        W28364  17.719  35.367  13.469
56039W        W28365  33.326   5.152  11.929
56040W        W28366  44.682  37.360  12.872
56041W        W28367  30.984  20.264  13.494
56042W        W28368  37.444  11.858   3.617
56043W        W28369   6.753  15.558   0.250
56044W        W28370  42.982  23.576  14.773
56045W        W28371  13.022  33.774   3.168
56046W        W28372   5.980  27.791   3.254
56047W        W28373   5.857   6.254  10.466
56048W        W28374  40.493  16.120   0.263
56049W        W28375  35.359  31.985   3.188
56050W        W28376   9.421  20.793  13.897
56051W        W28377  37.980  15.112  14.535
56052W        W28378  28.892  21.943  11.767
56053W        W28379  44.775  29.410   5.130
56054W        W28380  32.512   6.644  12.538
56055W        W28381  15.126   4.839   2.752
56056W        W28382  29.463  33.861  12.120
56057W        W28383  36.974  38.096   0.803
56058W        W28384   8.448   0.916   4.528
56059W        W28385   3.041  32.839  10.919
56060W        W28386  11.370  34.089   2.346
56061W        W28387  22.162   7.235   0.787
56062W        W28388  28.386  25.504   3.294
56063W        W28389  10.268  40.933   2.681
56064W        W28390  38.689  22.589  13.320
56065W        W28391   3.266   4.376  12.375
56066W        W28392   8.436  40.521   0.471
56067W        W28393  43.898   6.198   0.390
56068W        W28394  25.553  10.119   2.007
56069W        W28395  10.601  37.967   2.248
56070W        W28396  10.901  36.974   2.755
56071W        W28397  21.127  12.238   0.966
56072W        W28398  31.017  16.536   3.635
56073W        W28399  10.275  40.568  11.385
56074W        W28400  38.386  35.106   1.419
56075W        W28401  15.522  22.535  11.723
56076W        W28402  38.582  34.072   4.096
56077W        W28403  28.017  43.393  10.718
56078W        W28404  15.567  20.427  13.526
56079W        W28405   6.679  27.349   1.647
56080W        W28406  43.018  39.801   1.718
56081W        W28407  19.768  29.117   2.139
56082W        W28408   6.944  29.310  14.316
56083W        W28409  31.175  13.069   1.808
56084W        W28410  43.069  25.966   3.837
56085W        W28411  14.113  15.195   0.339
56086W        W28412  44.886  23.080   1.857
56087W        W28413  43.078  32.091   4.078
56088W        W28414   9.376  30.907   2.349
56089W        W28415  29.054  29.113  10.881
56090W        W28416  29.202   7.239   0.627
56091W        W28417  14.210  19.752   3.791
56092W        W28418   8.212  30.188   1.211
56093W        W28419   9.246   5.100   3.281
56094W        W28420  11.374  23.792   1.328
56095W        W28421  44.332  31.170   4.792
56096W        W28422   9.353  43.299   2.100
56097W        W28423  15.745  38.977   0.909
56098W        W28424   3.970  32.086  10.686
56099W        W28425   0.281  36.479  14.184
56100W        W28426  22.977  29.571  10.433
56101W        W28427   7.938  32.436  12.349
56102W        W28428  39.843  33.751   2.789
56103W        W28429  39.340  21.025   4.237
56104W        W28430  14.016  20.737  14.443
56105W        W28431  33.943  14.355   3.401
56106W        W28432   4.799  32.104  12.579
56107W        W28433  25.246  33.419  11.583
56108W        W28434   0.482  25.168   1.691
56109W        W28435  33.474  31.097   3.825
56110W        W28436   2.447  35.037   0.021
56111W        W28437  13.793  27.548  11.911
56112W        W28438  29.548  20.150   3.716
56113W        W28439  26.070  32.102  13.335
56114W        W28440  23.717  15.844   2.334
56115W        W28441   8.344  42.934   2.281
56116W        W28442   0.939  24.551   1.047
56117W        W28443   3.675  13.203  13.541
56118W        W28444  37.507   4.953   2.729
56119W        W28445  27.503  22.955  12.488
56120W        W28446  37.468  41.196   2.272
56121W        W28447  10.272  10.415   1.010
56122W        W28448  25.618  32.041  14.867
56123W        W28449  41.898  30.983   2.094
56124W        W28450  15.379   4.811   2.297
56125W        W28451  34.432  37.425  14.302
56126W        W28452   2.829  19.957   4.433
56127W        W28453   3.270  20.989   3.080
56128W        W28454  16.718   3.567   1.215
56129W        W28455   9.256  32.705   4.233
56130W        W28456  26.949  19.108   2.914
56131W        W28457  25.599   5.914  11.566
56132W        W28458  42.460  37.176  12.592
56133W        W28459  25.200  15.525   4.714
56134W        W28460  20.059  10.578   2.255
56135W        W28461  11.783  16.126  12.705
56136W        W28462   7.656   1.442  12.413
56137W        W28463  23.619  44.878  12.058
56138W        W28464  23.073  20.173  14.870
56139W        W28465  40.522  28.425   3.299
56140W        W28466  30.117   7.552  14.970
56141W        W28467  41.372  33.075   4.375
56142W        W28468  32.125  33.251   4.249
56143W        W28469   3.995  24.002   3.040
56144W        W28470  42.971  41.537  10.982
56145W        W28471  18.138   1.401   4.034
56146W        W28472  22.435  10.349  13.885
56147W        W28473  21.298  43.265   2.805
56148W        W28474   4.833  35.168  13.845
56149W        W28475   4.425  22.473   5.150
56150W        W28476  18.627  35.902  13.378
56151W        W28477   2.430  10.105  11.428
56152W        W28478   3.890  21.009  11.029
56153W        W28479  39.086   4.309   1.326
56154W        W28480  35.593  17.209  12.861
56155W        W28481  41.380  31.497   4.596
56156W        W28482   8.200  26.631  12.460
56157W        W28483  11.792   4.505   1.316
56158W        W28484   3.985  34.483   3.162
56159W        W28485  43.286   5.749   1.080
56160W        W28486  33.643  33.947  12.780
56161W        W28487  41.435  17.995  14.809
56162W        W28488  34.298  21.787   2.033
56163W        W28489  37.868  20.127   2.907
56164W        W28490   4.180  39.881   4.659
56165W        W28491  23.899  29.679  12.994
56166W        W28492  39.479  24.702   0.190
56167W        W28493   9.083  23.464   0.447
56168W        W28494  43.673   3.066   4.421
56169W        W28495  17.999  33.036   2.676
56170W        W28496  34.096  25.188   3.604
56171W        W28497  36.261   9.688  11.593
56172W        W28498  24.082  26.966   0.991
56173W        W28499  33.124  14.154  10.907
56174W        W28500  27.458  40.270   0.054
56175W        W28501  43.049   2.365   1.180
56176W        W28502   1.809  21.492   3.325
56177W        W28503  37.968  33.630   3.726
56178W        W28504  12.912  35.359   0.785
56179W        W28505  39.967  26.242  11.554
56180W        W28506   4.851  26.173  10.376
56181W        W28507   8.862  22.175  10.699
56182W        W28508  40.239  24.685  13.036
56183W        W28509  29.577  38.538   0.029
56184W        W28510   4.640   1.565   0.937
56185W        W28511  14.073  19.647   4.561
56186W        W28512  41.978  32.034  12.944
56187W        W28513  15.262  32.226  11.980
56188W        W28514   7.161  35.068   4.898
56189W        W28515  35.094  42.145  13.319
56190W        W28516  44.045   2.023   1.373
56191W        W28517  32.426  37.015   0.472
56192W        W28518  27.254  11.284   0.264
56193W        W28519  15.208  43.177  12.316
56194W        W28520  11.421  25.670  12.070
56195W        W28521  32.855  39.785  11.066
56196W        W28522   6.815   8.456  14.308
56197W        W28523  15.320  24.918   3.138
56198W        W28524  13.362  34.487   4.128
56199W        W28525  11.805  27.550   2.914
56200W        W28526  44.844   1.806   0.832
56201W        W28527  27.163   6.953  11.866
56202W        W28528  19.289  37.952   4.620
56203W        W28529   2.309  22.557  13.132
56204W        W28530   4.319  35.130   0.983
56205W        W28531   0.378   6.949  11.703
56206W        W28532  20.549  12.629  12.885
56207W        W28533  27.475  44.011   2.445
56208W        W28534  24.083  38.438  13.386
56209W        W28535   5.679   5.111   4.135
56210W        W28536   3.412  12.335   2.236
56211W        W28537  36.579  35.502   5.038
56212W        W28538  37.017  38.371  14.264
56213W        W28539  42.841  14.644   3.653
56214W        W28540  31.535   4.733  12.507
56215W        W28541  20.227  19.620   0.806
56216W        W28542   1.650  39.100  14.814
56217W        W28543  28.346   3.363   3.294
56218W        W28544  39.214  43.981   3.414
56219W        W28545   9.813  27.195  14.362
56220W        W28546  35.087   8.746   3.755
56221W        W28547  10.784   8.437   4.285
56222W        W28548  33.690   6.877  10.685
56223W        W28549  23.574  24.253   4.680
56224W        W28550  29.046  22.579   4.191
56225W        W28551  30.125  16.914  11.637
56226W        W28552   7.179  43.579   0.270
56227W        W28553  39.546  40.118   2.783
56228W        W28554  38.861  27.368  11.421
56229W        W28555  28.892  37.229   9.998
56230W        W28556  15.746  32.523  11.658
56231W        W28557  32.139  25.250  10.323
56232W        W28558  19.868  26.682  14.194
56233W        W28559  27.534   2.612   2.741
56234W        W28560  26.566  37.177   0.412
56235W        W28561  44.425  10.261  10.664
56236W        W28562  21.451  20.733  10.748
56237W        W28563  39.017  40.785   0.665
56238W        W28564  37.979  15.277  13.326
56239W        W28565   5.375  39.398   4.529
56240W        W28566  15.346  22.213   4.625
56241W        W28567  30.533  14.833  12.274
56242W        W28568  42.422  40.375  11.028
56243W        W28569  20.817  21.530  13.455
56244W        W28570  43.717  14.752  12.138
56245W        W28571  36.436  29.735   0.111
56246W        W28572   7.809  19.233  11.628
56247W        W28573  31.453  40.457  10.443
56248W        W28574  38.359   8.655   0.504
56249W        W28575  38.586  18.607  14.062
56250W        W28576   5.992  29.494  14.399
56251W        W28577  38.054  13.358   0.279
56252W        W28578   9.707   1.755   1.405
56253W        W28579  26.132  20.644  14.416
56254W        W28580  13.817  13.645   2.150
56255W        W28581  16.636  31.366   4.657
56256W        W28582  19.259  44.685  11.487
56257W        W28583  35.824   9.515  11.419
56258W        W28584  31.451  43.096   2.752
56259W        W28585  44.943  40.359  14.368
56260W        W28586  11.301  19.183   0.999
56261W        W28587  42.586  42.114   0.315
56262W        W28588  22.271  29.957  11.559
56263W        W28589  37.027  41.161  10.993
56264W        W28590  43.517  23.659  12.107
56265W        W28591  30.339  27.397  11.891
56266W        W28592   6.227  30.188  11.445
56267W        W28593  14.295  34.767   2.816
56268W        W28594   5.719  20.591   1.313
56269W        W28595  30.729  13.932  14.707
56270W        W28596   6.890  19.715   0.929
56271W        W28597  15.467  35.500   0.309
56272W        W28598  22.485  33.220   3.722
56273W        W28599  16.107  43.489  13.126
56274W        W28600  17.824  24.065  11.477
56275W        W28601  36.568   5.197  10.568
56276W        W28602   3.601  42.149   0.529
56277W        W28603  26.213  24.294   3.308
56278W        W28604  15.724   8.914   4.756
56279W        W28605  32.896  33.478  12.797
56280W        W28606  29.867   0.513   0.807
56281W        W28607  18.903  35.595   2.430
56282W        W28608   3.868  23.575   0.783
56283W        W28609  35.654  11.090   0.315
56284W        W28610   3.179  43.922   2.282
56285W        W28611  12.232  23.781   2.126
56286W        W28612  42.223   7.396  12.665
56287W        W28613  16.858   7.752   2.907
56288W        W28614  25.452  42.329  12.985
56289W        W28615   8.146  26.981   1.732
56290W        W28616  27.479  10.343  10.512
56291W        W28617   1.221  12.880  14.864
56292W        W28618   6.061   4.441   3.715
56293W        W28619  36.942   7.982   0.312
56294W        W28620  35.353  12.407  14.268
56295W        W28621  44.964  16.540   2.822
56296W        W28622  22.392  17.589  13.894
56297W        W28623  29.718  41.946  14.362
56298W        W28624  27.535  43.995  12.543
56299W        W28625  22.491  28.611  12.082
56300W        W28626  44.806  31.443   1.703
56301W        W28627  40.414  33.922   1.197
56302W        W28628   4.524   3.005  10.748
56303W        W28629  14.330   1.227   1.225
56304W        W28630  10.383   0.835  13.085
56305W        W28631  26.060  31.645   2.282
56306W        W28632  41.048  16.260   4.243
56307W        W28633  27.128  14.362   2.642
56308W        W28634   2.811  35.075  10.469
56309W        W28635  24.555  44.240  13.933
56310W        W28636   3.918  19.452   4.173
56311W        W28637  41.793  44.487   4.574
56312W        W28638  11.405  10.641   3.193
56313W        W28639  12.236  24.143  11.120
56314W        W28640   0.292  12.897   2.490
56315W        W28641  26.220  38.482   0.209
56316W        W28642   0.548  38.148   4.178
56317W        W28643  36.393   3.173   1.389
56318W        W28644  39.307  34.474  11.950
56319W        W28645  11.335  42.566  12.494
56320W        W28646  14.793  28.052   3.668
56321W        W28647  31.193  21.905  15.000
56322W        W28648  31.116  42.584   3.168
56323W        W28649   1.965  37.964  13.337
56324W        W28650  22.455  36.990  13.974
56325W        W28651  13.149  41.434  10.337
56326W        W28652  20.088  30.391   2.806
56327W        W28653  17.218  35.982   1.714
56328W        W28654   9.952  37.826   4.667
56329W        W28655  23.383  24.038  14.011
56330W        W28656  19.730  40.223  13.040
56331W        W28657  38.719  10.475   5.041
56332W        W28658  20.915  28.683  10.655
56333W        W28659   4.393   4.456   3.724
56334W        W28660   8.603   8.265  13.964
56335W        W28661  28.634  39.507  11.065
56336W        W28662  15.793  35.441  14.723
56337W        W28663  25.247  17.019  14.727
56338W        W28664  30.548  36.568   2.700
56339W        W28665  23.541  23.113  12.382
56340W        W28666  37.285  38.057  11.131
56341W        W28667  32.113  12.074   3.691
56342W        W28668   8.180  26.932   4.433
56343W        W28669  15.238  32.089  11.046
56344W        W28670  43.781   0.497   0.333
56345W        W28671  26.635   3.440  12.903
56346W        W28672   8.363  38.093   3.371
56347W        W28673  43.750   6.453  13.530
56348W        W28674  17.119  14.243  12.515
56349W        W28675   5.984  13.734   0.484
56350W        W28676   7.749  38.949  12.616
56351W        W28677  22.872  20.006  13.414
56352W        W28678  29.921  16.373   1.406
56353W        W28679   3.213  21.523  14.515
56354W        W28680   8.675  19.575   2.170
56355W        W28681  11.766  21.615   0.744
56356W        W28682  41.042  23.691  13.373
56357W        W28683  27.392   4.706  13.598
56358W        W28684   8.352  38.858  14.995
56359W        W28685  26.291  26.028   0.707
56360W        W28686  17.816  42.207  11.024
56361W        W28687  25.072  26.322  13.911
56362W        W28688  21.528  19.254  14.263
56363W        W28689  12.208  42.777  12.468
56364W        W28690  26.678  16.606  11.453
56365W        W28691  41.124  16.683  14.026
56366W        W28692   9.664  16.594   4.900
56367W        W28693  36.833  40.402   0.462
56368W        W28694  39.571  11.194   2.932
56369W        W28695   8.105  28.207  13.078
56370W        W28696  16.350  16.869  12.430
56371W        W28697   6.424  27.610  13.928
56372W        W28698  35.816  18.242   2.739
56373W        W28699  44.922   8.321  14.251
56374W        W28700  20.215  42.055  14.947
56375W        W28701  29.684  41.105  10.466
56376W        W28702  31.070   9.271  12.908
56377W        W28703   2.306  21.471  11.775
56378W        W28704  26.708  30.882  13.002
56379W        W28705  20.086  41.960  11.941
56380W        W28706   6.076   0.973   0.680
56381W        W28707  43.162  22.763  13.069
56382W        W28708  15.559   5.098   1.819
56383W        W28709  11.155  34.187   3.802
56384W        W28710  15.990  43.979   0.206
56385W        W28711  21.211  26.957  14.066
56386W        W28712   2.711  37.121   4.161
56387W        W28713  21.994  20.850  13.498
56388W        W28714   3.194  14.687   0.281
56389W        W28715  17.059   3.064   4.546
56390W        W28716   0.822  21.692   4.274
56391W        W28717  28.366   5.744   1.923
56392W        W28718  27.704  26.226   5.398
56393W        W28719  35.520   5.871   2.755
56394W        W28720  11.608  37.047   4.126
56395W        W28721   6.534  27.823  13.449
56396W        W28722  30.630  24.263  12.440
56397W        W28723  16.128   5.980  12.405
56398W        W28724  40.616  16.364  11.012
56399W        W28725  38.403  20.715   1.152
56400W        W28726  39.335  17.157   0.676
56401W        W28727  14.204  36.646   0.758
56402W        W28728  31.799   8.429   3.224
56403W        W28729  31.896  35.915  13.742
56404W        W28730   9.877  16.705   1.208
56405W        W28731  31.161  23.472   1.935
56406W        W28732  38.569   0.266  14.255
56407W        W28733  17.325  43.007  12.823
56408W        W28734  29.600  38.939  12.155
56409W        W28735  19.214   1.710   4.160
56410W        W28736   9.883  12.253  13.396
56411W        W28737  18.836  32.082  14.773
56412W        W28738   7.289   3.535   3.865
56413W        W28739  37.768  14.247   0.397
56414W        W28740  41.554  31.977   2.792
56415W        W28741  40.827  38.038  14.835
56416W        W28742  21.623  29.662  13.066
56417W        W28743  19.130  21.232   3.403
56418W        W28744  26.200  42.893   3.307
56419W        W28745   3.268  21.223   1.627
56420W        W28746   6.383   4.965  13.975
56421W        W28747   6.369   7.208   0.968
56422W        W28748   8.806  33.442   1.673
56423W        W28749  29.127  30.207  11.121
56424W        W28750  13.842  30.974  12.250
56425W        W28751  30.650   7.892  14.141
56426W        W28752   0.547  25.108   0.807
56427W        W28753  33.775   8.384   3.593
56428W        W28754  17.082   1.249   3.716
56429W        W28755  30.601  37.439  13.972
56430W        W28756  17.208  44.788  13.380
56431W        W28757  28.473   9.626   0.631
56432W        W28758   9.505  26.925  13.744
56433W        W28759  15.260  20.819  11.914
56434W        W28760  10.738  21.152   4.604
56435W        W28761  41.366  32.588  13.446
56436W        W28762   4.315  31.412  11.927
56437W        W28763   4.903  25.410  13.009
56438W        W28764  26.166   4.588  11.122
56439W        W28765  27.181   0.354  14.991
56440W        W28766   5.132  43.324   4.569
56441W        W28767  27.976  20.382   0.505
56442W        W28768  30.541  44.215  13.339
56443W        W28769  38.622   8.703   2.280
56444W        W28770   6.991  32.958  11.176
56445W        W28771  33.570  14.832  12.827
56446W        W28772  29.897  41.266  13.034
56447W        W28773  25.516  25.296  11.035
56448W        W28774  33.058  29.060   1.554
56449W        W28775  30.546   7.802  12.274
56450W        W28776   0.129  44.398  10.793
56451W        W28777  42.381  27.755  10.454
56452W        W28778  43.438   0.039   3.654
56453W        W28779   3.375   3.835  10.262
56454W        W28780  25.552  33.115  14.902
56455W        W28781  32.441  40.937   2.934
56456W        W28782  43.916  35.541  11.595
56457W        W28783  21.472  19.804   2.283
56458W        W28784  19.759   0.954   4.685
56459W        W28785  33.499  18.159   3.170
56460W        W28786   0.881  25.108  10.385
56461W        W28787  20.116  29.847   4.701
56462W        W28788  40.072   3.778   4.712
56463W        W28789  10.883  19.018   2.640
56464W        W28790  40.648   2.961  12.804
56465W        W28791  34.886  38.097   3.196
56466W        W28792  14.717   5.250  10.686
56467W        W28793  38.922  15.825   4.645
56468W        W28794  31.856  28.933   2.724
56469W        W28795  37.476  36.582  14.604
56470W        W28796   8.617  16.649   4.609
56471W        W28797  29.968  41.528   1.514
56472W        W28798  31.996  37.754  12.819
56473W        W28799  26.043  18.594  10.908
56474W        W28800   5.408  27.940   4.548
56475W        W28801  12.799   8.779   0.267
56476W        W28802  37.340  40.791   1.669
56477W        W28803  39.114  41.993  11.444
56478W        W28804  21.760  43.964  12.580
56479W        W28805  15.458  35.464   3.962
56480W        W28806  16.649  26.283   2.387
56481W        W28807  24.555  25.155  10.557
56482W        W28808  23.206  36.354  13.529
56483W        W28809   2.472  19.516  12.823
56484W        W28810   5.540   4.608   1.795
56485W        W28811  39.144  44.816   2.777
56486W        W28812  11.570  15.086  11.971
56487W        W28813  15.686  36.571   4.568
56488W        W28814  10.504  41.705   4.834
56489W        W28815  37.831  40.923  14.493
56490W        W28816  16.169  29.516   0.767
56491W        W28817  14.959  19.244   2.688
56492W        W28818  18.655  30.599   5.025
56493W        W28819  15.632  32.935  12.063
56494W        W28820  36.562  10.121  14.900
56495W        W28821  40.502  39.768   1.835
56496W        W28822  40.332   3.459   5.049
56497W        W28823  38.325  28.796   1.867
56498W        W28824  19.486  11.810  12.025
56499W        W28825  32.447  30.656  14.890
56500W        W28826  19.168   2.490   0.994
56501W        W28827   8.180   5.912  13.517
56502W        W28828   7.351  17.650   0.302
56503W        W28829   7.293  34.880  14.477
56504W        W28830  28.982  32.590   1.866
56505W        W28831  43.517  30.668   4.402
56506W        W28832   1.197  31.328   1.716
56507W        W28833  22.813  44.201   5.089
56508W        W28834  19.168  11.607  13.371
56509W        W28835  17.108  42.365   3.307
56510W        W28836  34.585  32.668   4.203
56511W        W28837  28.085  42.037   1.039
56512W        W28838  21.566  28.459  14.689
56513W        W28839  19.184  19.711   0.440
56514W        W28840  23.584  36.558   2.222
56515W        W28841  14.186  36.191  10.208
56516W        W28842  40.347   7.156  14.253
56517W        W28843  10.395  23.551  13.385
56518W        W28844  34.827  42.856  10.694
56519W        W28845   8.119  25.165  13.388
56520W        W28846  27.185  21.458  13.308
56521W        W28847  11.738  16.800  13.062
56522W        W28848   3.835   5.789   0.742
56523W        W28849  34.091  40.428   0.035
56524W        W28850  43.275  13.812   2.894
56525W        W28851  11.898  29.714   2.114
56526W        W28852  41.810  21.902   4.156
56527W        W28853  29.230  23.474   1.860
56528W        W28854  21.286   1.257  12.605
56529W        W28855   3.968  15.381   3.401
56530W        W28856   6.581  12.031  14.420
56531W        W28857  20.361  10.338  12.081
56532W        W28858  10.820  25.547  11.619
56533W        W28859  29.680  20.163   4.912
56534W        W28860   5.909   2.717   2.312
56535W        W28861  43.697  35.072  11.603
56536W        W28862  13.803  31.162   4.675
56537W        W28863  25.387   6.599  14.378
56538W        W28864  28.063   9.299  10.016
56539W        W28865  17.259  27.204  14.819
56540W        W28866  11.568  33.588  12.974
56541W        W28867  42.365  23.922  14.291
56542W        W28868  38.537  10.948   0.547
56543W        W28869  39.760   9.857  12.471
56544W        W28870  20.767  16.047  13.755
56545W        W28871  24.255  15.679   3.155
56546W        W28872  15.245   9.417  14.005
56547W        W28873  25.018  35.227  11.962
56548W        W28874  10.948  12.247  14.349
56549W        W28875  29.060  35.896   4.616
56550W        W28876  43.275   5.020   2.711
56551W        W28877  18.046  17.265   2.306
56552W        W28878   8.709  39.112  12.198
56553W        W28879  11.584   3.385   2.814
56554W        W28880   8.846  22.448   1.845
56555W        W28881  41.368   2.756   3.115
56556W        W28882  17.692  40.891  14.831
56557W        W28883  24.669   5.031  12.819
56558W        W28884  33.958  22.154  11.159
56559W        W28885  13.321   3.451   1.758
56560W        W28886   8.364  42.806   3.403
56561W        W28887  20.478  25.034   0.834
56562W        W28888  26.471  30.895   4.655
56563W        W28889  25.656  25.257  12.488
56564W        W28890   3.355   9.846   0.908
56565W        W28891  17.767   7.479   4.130
56566W        W28892  31.128  44.834   0.735
56567W        W28893  12.345  41.909   3.118
56568W        W28894   5.229  42.758  11.996
56569W        W28895  28.026  31.075   1.319
56570W        W28896  12.026  40.884  12.521
56571W        W28897  22.477  11.074  11.909
56572W        W28898  27.897  33.055   3.136
56573W        W28899   6.399   8.912   1.763
56574W        W28900   5.671  42.252   2.739
56575W        W28901  14.330   3.291   1.601
56576W        W28902  17.870  35.589   2.731
56577W        W28903  20.296  40.015   3.206
56578W        W28904  32.650   2.924   0.530
56579W        W28905   4.195  20.661  14.472
56580W        W28906   7.254  24.599   4.483
56581W        W28907  24.162  41.460   5.207
56582W        W28908  40.621   6.349  11.487
56583W        W28909  20.622  42.049  12.855
56584W        W28910  16.297  33.329  14.574
56585W        W28911  27.735   7.645   0.839
56586W        W28912  18.634  36.887   3.783
56587W        W28913  30.738   2.127   4.116
56588W        W28914  33.915  17.261   3.978
56589W        W28915  26.918   3.951  12.511
56590W        W28916  33.528  35.402  12.442
56591W        W28917  39.243  11.331  10.950
56592W        W28918   5.356  26.919  14.453
56593W        W28919  38.927  27.588  11.893
56594W        W28920  28.955  20.238  14.424
56595W        W28921  25.165   1.923  14.467
56596W        W28922  20.115  40.948   0.474
56597W        W28923  38.301  28.387  13.829
56598W        W28924  43.311  25.516   3.712
56599W        W28925  11.164  44.992   1.215
56600W        W28926  35.844   8.156  10.833
56601W        W28927   9.075  21.004  13.053
56602W        W28928  27.976  20.199  13.354
56603W        W28929  38.641  43.803  14.459
56604W        W28930   0.121  38.331  13.065
56605W        W28931  25.850   9.697  12.622
56606W        W28932   6.484  41.408   2.082
56607W        W28933  25.954  14.509  10.637
56608W        W28934  17.652  19.546   1.479
56609W        W28935  16.168  30.981   2.600
56610W        W28936  37.143  35.927   2.375
56611W        W28937  22.283  29.569   1.392
56612W        W28938  17.692  37.305  10.325
56613W        W28939  23.002  22.864  11.533
56614W        W28940  40.372   3.683  11.962
56615W        W28941  10.119  33.585  13.671
56616W        W28942  26.103   3.399   4.243
56617W        W28943  41.151  44.061  13.789
56618W        W28944  19.538   7.720  11.512
56619W        W28945  23.814  27.727   3.342
56620W        W28946   3.665  15.883   4.592
56621W        W28947  34.725  16.755  11.039
56622W        W28948  39.734  34.366   3.125
56623W        W28949  10.125  28.567  11.937
56624W        W28950  40.388  27.167  11.185
56625W        W28951  33.625  29.149  12.447
56626W        W28952   4.124  20.036   4.938
56627W        W28953   9.651  39.687   0.408
56628W        W28954   4.181  12.336  10.611
56629W        W28955   1.337  29.094  11.480
56630W        W28956  44.334  33.472   4.030
56631W        W28957  41.465  36.430   0.712
56632W        W28958  13.976   0.104  13.519
56633W        W28959  17.251  18.566   4.896
56634W        W28960  32.795   5.190  14.463
56635W        W28961  43.705   6.849   2.125
56636W        W28962  38.957   2.741   1.780
56637W        W28963  13.225  43.793   0.803
56638W        W28964   4.401   1.990  12.463
56639W        W28965   7.192  37.243  13.980
56640W        W28966  41.235  35.266  11.764
56641W        W28967   5.437  12.175  11.203
56642W        W28968   8.788   8.816  13.862
56643W        W28969  31.574  41.392  10.884
56644W        W28970   2.327   4.209  10.635
56645W        W28971   4.405  40.448  10.681
56646W        W28972  37.015  39.730   3.762
56647W        W28973  14.392  36.042  12.953
56648W        W28974  43.107  41.881   0.358
56649W        W28975  33.868   4.359  14.604
56650W        W28976  37.492  21.465   4.077
56651W        W28977  15.786   0.360   0.234
56652W        W28978   5.204  24.178  14.409
56653W        W28979  17.359   9.311   0.848
56654W        W28980  33.001  35.387  13.278
56655W        W28981   5.935  42.026   4.045
56656W        W28982  43.899  38.251   0.008
56657W        W28983   3.314  27.101  14.313
56658W        W28984   6.343  28.849   1.938
56659W        W28985  35.494  24.963  13.775
56660W        W28986  44.820  10.654   0.750
56661W        W28987   6.455  25.551  12.905
56662W        W28988  23.498  18.841  13.850
56663W        W28989  36.930  25.116  13.056
56664W        W28990  43.203  38.436   0.572
56665W        W28991   9.727  23.659  11.985
56666W        W28992  40.098  15.057   4.161
56667W        W28993   6.593  21.567   3.588
56668W        W28994   3.501  27.130   2.288
56669W        W28995   7.256   8.435  10.704
56670W        W28996  36.075  28.545   3.239
56671W        W28997  42.419  26.989  14.242
56672W        W28998  43.843  11.946   1.868
56673W        W28999  30.937  27.479   4.694
56674W        W29000  43.417  40.177  14.154
56675W        W29001  17.888  17.270  10.550
56676W        W29002   3.622   7.222  12.083
56677W        W29003  17.072  24.407   0.857
56678W        W29004  24.142  15.139   2.478
56679W        W29005  37.987  22.964   0.023
56680W        W29006  19.373  19.411  13.572
56681W        W29007  12.318   9.589   1.304
56682W        W29008  41.504  21.481  12.641
56683W        W29009  32.554  44.329   3.705
56684W        W29010  38.033  44.187  10.106
56685W        W29011  10.723  24.478   0.428
56686W        W29012  43.482  10.228  14.873
56687W        W29013  42.804  22.076  12.877
56688W        W29014  25.230  16.298   0.429
56689W        W29015  44.938  29.476   3.170
56690W        W29016  27.229  25.951  10.132
56691W        W29017   2.380  25.586  13.031
56692W        W29018  43.276  13.834   1.049
56693W        W29019  34.371  30.837   3.137
56694W        W29020  32.178   6.161   0.445
56695W        W29021   7.197   1.704   2.403
56696W        W29022  16.702  30.134  10.934
56697W        W29023  31.884  42.857   1.898
56698W        W29024   8.159   8.216   1.020
56699W        W29025  36.379  13.024  13.967
56700W        W29026  23.950   1.200  11.615
56701W        W29027   5.433  23.232   2.827
56702W        W29028  13.094  21.490  13.270
56703W        W29029  15.116  21.326   0.296
56704W        W29030  41.490  43.632   3.634
56705W        W29031  29.430  16.482   2.707
56706W        W29032  11.790  37.188  13.327
56707W        W29033  24.561  24.919   1.427
56708W        W29034  29.723  29.102  12.579
56709W        W29035  44.861  14.063  11.812
56710W        W29036  22.586  13.134   4.002
56711W        W29037  24.205  34.090  11.011
56712W        W29038   6.497   3.316   1.322
56713W        W29039  25.124  16.809   4.963
56714W        W29040  33.802   8.165  10.824
56715W        W29041   4.735   6.653   2.348
56716W        W29042  15.083   5.748   2.800
56717W        W29043  32.868   7.863   0.807
56718W        W29044  12.113  43.004  14.854
56719W        W29045  42.018   9.435  10.560
56720W        W29046  30.030  13.092   2.242
56721W        W29047  36.271  23.640   0.324
56722W        W29048   6.469  19.697   3.314
56723W        W29049   6.112  18.344  11.553
56724W        W29050  17.959  36.564   3.891
56725W        W29051   9.484  28.604   1.791
56726W        W29052  33.976  27.429  13.345
56727W        W29053  14.080  20.573  11.162
56728W        W29054  38.994  25.096   1.300
56729W        W29055  28.571  29.304   5.180
56730W        W29056  35.995  11.899   3.188
56731W        W29057  21.843  35.491  14.973
56732W        W29058  26.297  42.459   1.780
56733W        W29059  40.416  10.438   2.860
56734W        W29060  39.919   9.764  11.177
56735W        W29061  30.612  10.299   1.942
56736W        W29062  41.950  40.388  12.630
56737W        W29063  16.885  24.692  11.145
56738W        W29064  43.598   5.098  12.566
56739W        W29065  38.465  41.458  11.431
56740W        W29066  44.718  33.593   0.393
56741W        W29067   2.268   7.775  13.061
56742W        W29068  35.074  17.707  14.526
56743W        W29069   5.356   0.421  12.123
56744W        W29070  35.106  24.506   1.505
56745W        W29071  16.447  38.329   3.764
56746W        W29072  32.670  28.938   0.259
56747W        W29073  37.379   9.102   2.771
56748W        W29074  24.668   3.725  10.847
56749W        W29075   4.294  13.040  11.061
56750W        W29076  44.120  10.740  12.077
56751W        W29077  26.382  22.602   0.361
56752W        W29078  11.842  21.109  12.627
56753W        W29079  11.722  23.796   1.943
56754W        W29080  37.537  23.117  12.540
56755W        W29081   5.765  41.753   3.640
56756W        W29082  16.570  27.858   1.496
56757W        W29083  35.424  20.997  12.674
56758W        W29084  39.609  23.964   4.084
56759W        W29085  32.529  15.857  12.035
56760W        W29086  14.902   4.388   2.797
56761W        W29087  18.208  42.394  10.675
56762W        W29088  40.542   9.932   2.823
56763W        W29089  17.293  14.155  13.432
56764W        W29090   3.344  21.222  14.050
56765W        W29091  33.609  15.175   1.285
56766W        W29092  30.085  26.196   2.515
56767W        W29093  12.695  37.291  10.542
56768W        W29094  43.336  30.451  11.091
56769W        W29095  18.737   3.490  10.545
56770W        W29096  11.113  37.643  12.919
56771W        W29097  31.518   2.533   2.285
56772W        W29098  37.836   7.879  12.097
56773W        W29099   0.949   0.306   0.927
56774W        W29100  36.294  35.502   0.668
56775W        W29101  36.330  10.255   3.125
56776W        W29102  41.412  12.881  13.903
56777W        W29103   3.032  37.931   3.183
56778W        W29104  37.787  16.697   0.047
56779W        W29105   8.577   2.870   3.878
56780W        W29106  36.023   2.817  11.576
56781W        W29107  25.460  16.565  10.889
56782W        W29108  27.454  19.237   1.845
56783W        W29109  17.269   7.122   0.735
56784W        W29110  25.975   2.614  14.183
56785W        W29111  14.209   5.158   3.766
56786W        W29112  17.253  35.080  13.572
56787W        W29113  44.561  38.297  10.571
56788W        W29114  25.180  44.895   4.498
56789W        W29115   0.807  15.128  12.169
56790W        W29116  29.531  43.576  14.537
56791W        W29117  29.965  20.807  12.465
56792W        W29118  24.712   9.804   4.143
56793W        W29119  39.376  41.268  13.697
56794W        W29120  10.618  39.040  13.916
56795W        W29121  23.986   7.807   1.820
56796W        W29122  19.146  13.856  12.794
56797W        W29123  20.247  36.490   3.811
56798W        W29124  14.855  39.455  10.995
56799W        W29125   6.726  22.879   4.170
56800W        W29126  16.218  24.224  11.693
56801W        W29127  25.438  22.093  13.046
56802W        W29128  18.123  10.765   3.705
56803W        W29129  32.538   9.360   4.395
56804W        W29130  13.689   2.020   2.363
56805W        W29131   4.768  34.947   3.634
56806W        W29132  40.594  42.799  13.890
56807W        W29133  21.778  29.469  12.559
56808W        W29134  26.497  37.844   1.781
56809W        W29135  33.906  13.892   1.956
56810W        W29136  25.604   1.864   3.990
56811W        W29137  43.996  28.952   4.802
56812W        W29138  18.002  33.553   4.577
56813W        W29139  16.577   5.723  12.485
56814W        W29140  40.032  23.900  14.352
56815W        W29141  29.042  13.807   2.266
56816W        W29142  20.993  16.584   1.948
56817W        W29143   2.754  31.288  11.018
56818W        W29144  22.600  27.227  10.991
56819W        W29145   7.378   3.644  12.024
56820W        W29146   9.754   1.399   2.735
56821W        W29147  29.865  21.313   4.197
56822W        W29148  14.755   3.331   3.595
56823W        W29149  44.019  39.057   3.746
56824W        W29150  31.798  16.484   0.380
56825W        W29151  40.848  24.156  12.483
56826W        W29152  39.944  14.365  10.964
56827W        W29153  10.206  37.519  14.880
56828W        W29154   6.951   1.223  11.881
56829W        W29155   9.551   1.533   3.182
56830W        W29156  43.018  44.789   2.750
56831W        W29157  11.255   4.918  13.818
56832W        W29158  23.742   0.879  14.436
56833W        W29159  38.296   3.973  12.704
56834W        W29160  41.055  18.627  10.763
56835W        W29161  37.487  38.411  14.045
56836W        W29162   6.334  33.637  12.316
56837W        W29163  13.042  36.020  13.387
56838W        W29164   3.788  38.536  11.334
56839W        W29165   2.242   1.029  11.942
56840W        W29166  20.019   1.897  10.629
56841W        W29167   3.394  14.974  11.643
56842W        W29168  32.308  24.619  13.870
56843W        W29169  27.228  37.497  14.213
56844W        W29170  25.684  29.242  12.073
56845W        W29171  42.966  43.798   2.867
56846W        W29172  43.435  26.059  10.546
56847W        W29173  40.913  44.221  11.993
56848W        W29174  14.612  27.124  13.806
56849W        W29175  19.679   2.697  14.021
56850W        W29176  16.504  27.977   2.690
56851W        W29177  32.900  11.836  13.051
56852W        W29178   6.990   6.918   4.105
56853W        W29179  13.919  30.580  13.080
56854W        W29180  43.286  36.071   3.864
56855W        W29181  37.612  42.007   1.291
56856W        W29182  21.590  20.345   1.864
56857W        W29183  28.612  38.842  11.838
56858W        W29184   3.447  12.750  13.798
56859W        W29185  40.959  37.572   2.426
56860W        W29186  17.012  21.561   3.017
56861W        W29187  16.732  32.744   3.187
56862W        W29188  34.071  39.424  13.119
56863W        W29189   0.961   8.171   0.770
56864W        W29190  36.339  32.615   1.479
56865W        W29191   7.169  44.504   0.216
56866W        W29192  28.677  43.257  11.324
56867W        W29193  32.001  38.759   0.409
56868W        W29194   4.980  44.231   3.787
56869W        W29195  18.753  43.339   3.107
56870W        W29196  14.159  40.987   0.877
56871W        W29197  44.364  38.958  14.664
56872W        W29198  13.775  41.016   1.901
56873W        W29199  22.397  34.286   1.315
56874W        W29200  40.837  24.127  13.143
56875W        W29201  10.586   1.730  13.060
56876W        W29202   3.009  20.604  11.075
56877W        W29203  28.882  40.451   2.813
56878W        W29204  20.281  37.380   2.425
56879W        W29205  41.758  26.995  10.608
56880W        W29206  44.865  20.225   4.541
56881W        W29207  29.180  19.066  12.935
56882W        W29208  26.859  25.679  10.409
56883W        W29209  16.893  22.882   0.861
56884W        W29210  12.689  42.181   2.842
56885W        W29211  43.914  38.250  14.492
56886W        W29212   0.949  40.236   0.896
56887W        W29213  38.983  40.814  14.813
56888W        W29214  11.768  22.529  10.735
56889W        W29215  31.325  37.509   4.654
56890W        W29216  21.226   4.584   0.877
56891W        W29217  25.559   1.962  10.708
56892W        W29218  27.350  29.509  14.659
56893W        W29219  19.816  20.001  12.087
56894W        W29220   4.716  34.982  11.481
56895W        W29221  19.035  12.308   4.398
56896W        W29222   5.673  11.918   4.110
56897W        W29223  31.071  36.571  11.263
56898W        W29224  12.365   4.485   3.407
56899W        W29225  27.424   2.751   0.095
56900W        W29226   3.142  38.469   2.005
56901W        W29227  21.533  21.992   1.367
56902W        W29228  41.220  24.046  11.143
56903W        W29229  37.507  29.596  13.471
56904W        W29230  15.306   4.570  10.506
56905W        W29231  28.665  19.138  13.079
56906W        W29232  25.623  39.845  10.638
56907W        W29233   6.940  30.604  12.978
56908W        W29234  27.123  10.965   2.818
56909W        W29235  28.399  22.529   0.698
56910W        W29236  13.491   7.395   0.813
56911W        W29237  13.044  13.583   1.741
56912W        W29238  38.510   7.297  13.371
56913W        W29239  36.399  44.090  12.920
56914W        W29240   1.311  21.404  13.461
56915W        W29241  39.764   9.245  10.838
56916W        W29242  20.531  36.916   1.505
56917W        W29243  27.061  12.606  14.930
56918W        W29244  27.760  42.175  13.774
56919W        W29245  35.770   9.398  13.916
56920W        W29246  20.574  42.496   4.355
56921W        W29247   7.448  25.718   0.374
56922W        W29248   3.706  14.815  14.407
56923W        W29249  27.291  44.399  11.387
56924W        W29250   4.183   3.356  10.534
56925W        W29251  32.471  38.536  14.811
56926W        W29252  13.672  31.383   0.042
56927W        W29253   0.088  36.997  14.242
56928W        W29254  32.479  28.975  10.651
56929W        W29255   9.774  37.006   1.824
56930W        W29256  28.114  22.543   3.199
56931W        W29257  11.250   7.505   1.087
56932W        W29258  40.814  12.828   2.848
56933W        W29259  28.333   0.950   0.433
56934W        W29260  40.859  12.052  10.535
56935W        W29261  30.215  35.475  11.095
56936W        W29262  17.389  27.152   2.204
56937W        W29263   7.679  38.475   0.517
56938W        W29264  29.916  22.476  14.839
56939W        W29265  18.476  41.896   1.157
56940W        W29266   5.234  31.676   3.733
56941W        W29267  15.415  20.312  14.445
56942W        W29268   9.098  38.914  12.464
56943W        W29269  39.413  30.352  12.265
56944W        W29270   0.930  11.137  12.844
56945W        W29271  25.515   6.400  12.458
56946W        W29272  25.657  15.290  14.720
56947W        W29273   2.540  12.738   0.916
56948W        W29274   6.506  30.030   4.233
56949W        W29275   3.000  34.363  14.588
56950W        W29276  23.938  44.748   1.774
56951W        W29277   6.734   4.111  14.186
56952W        W29278  42.441  12.198  11.491
56953W        W29279   5.600  29.134   4.273
56954W        W29280   4.930  15.219  11.008
56955W        W29281   9.539  34.220  12.595
56956W        W29282  17.488  25.117   9.738
56957W        W29283  18.013  44.094  11.349
56958W        W29284   9.219  37.582  12.001
56959W        W29285  17.793  34.427   2.672
56960W        W29286  23.508   7.766   0.913
56961W        W29287  30.102  12.335   4.173
56962W        W29288  33.542  27.923  11.973
56963W        W29289  24.120  12.660   3.830
56964W        W29290  16.025  10.202   0.320
56965W        W29291  21.189   4.480  14.231
56966W        W29292   7.776   2.045  13.001
56967W        W29293  30.760   4.496   2.386
56968W        W29294  31.442  19.083  12.617
56969W        W29295  21.032  12.082   2.289
56970W        W29296  19.069  16.600   2.829
56971W        W29297  32.427  35.424   1.628
56972W        W29298   9.160  13.233  11.113
56973W        W29299  23.146  39.616  13.157
56974W        W29300   1.822  42.491   2.416
56975W        W29301  15.730  32.114  11.353
56976W        W29302  15.227  21.231   4.987
56977W        W29303  16.723   3.913  14.818
56978W        W29304  36.151   2.339  12.380
56979W        W29305  25.205   2.072   3.736
56980W        W29306   2.849  17.194  13.018
56981W        W29307  15.628   4.210  12.556
56982W        W29308  38.724   8.395   1.865
56983W        W29309  31.668  12.904   4.812
56984W        W29310  14.790  20.214  13.105
56985W        W29311   9.487  22.147   2.770
56986W        W29312  32.281   9.135  14.781
56987W        W29313  26.695  37.275  10.144
56988W        W29314  43.715  33.386   0.543
56989W        W29315   6.846   1.273   0.028
56990W        W29316   3.424  34.136  14.979
56991W        W29317  35.417  19.762   4.262
56992W        W29318  38.925  44.231  13.422
56993W        W29319  33.588  32.591   2.826
56994W        W29320  20.432  41.905  13.830
56995W        W29321   2.816  16.497  12.113
56996W        W29322   7.275  44.373   3.781
56997W        W29323   2.962  27.521  10.707
56998W        W29324  16.461   0.847   0.063
56999W        W29325  15.999  35.649  13.461
57000W        W29326  33.186  15.669  11.605
57001W        W29327  15.074  39.967  11.029
57002W        W29328  42.719  10.385  11.021
57003W        W29329  23.125  13.855  10.591
57004W        W29330  44.000  26.732   1.297
57005W        W29331   9.744  20.727  12.550
57006W        W29332  22.195   0.442   3.752
57007W        W29333  38.013  17.809   1.752
57008W        W29334  11.088  44.887   3.390
57009W        W29335  40.390  19.336  13.413
57010W        W29336  24.178   4.480   4.913
57011W        W29337  14.840   3.871  12.937
57012W        W29338  35.443  38.268  11.636
57013W        W29339   4.880  17.805   2.229
57014W        W29340   0.815   2.126   1.184
57015W        W29341   2.902  24.646  11.611
57016W        W29342  34.862  36.846   2.788
57017W        W29343  23.247  23.067  11.968
57018W        W29344  26.329   0.737   1.704
57019W        W29345  26.795  13.054   1.770
57020W        W29346  37.079  26.749   0.965
57021W        W29347  24.665  32.863   2.249
57022W        W29348  40.471  11.781  11.247
57023W        W29349  20.456  29.708   4.182
57024W        W29350   5.420  33.111   4.826
57025W        W29351  39.547  40.948  14.055
57026W        W29352  15.019   8.421   0.806
57027W        W29353  41.570  20.535   0.474
57028W        W29354  23.044  29.567   4.421
57029W        W29355  21.798  28.993   0.933
57030W        W29356  33.263  21.992  12.461
57031W        W29357  38.839  28.317   4.566
57032W        W29358  14.646   1.130  14.810
57033W        W29359  14.913  17.051   1.009
57034W        W29360   1.046  39.421  11.308
57035W        W29361  12.851  22.038  14.019
57036W        W29362  10.197   5.113  14.816
57037W        W29363   1.215  14.726   0.316
57038W        W29364  33.361  34.963   4.634
57039W        W29365  37.359  22.106   3.118
57040W        W29366  20.083  36.547   0.498
57041W        W29367   4.339   5.259   5.070
57042W        W29368  39.797  25.731   2.835
57043W        W29369  36.403  17.130  12.397
57044W        W29370   8.162  19.496   2.504
57045W        W29371  13.271  32.334  11.506
57046W        W29372   9.738  19.680   0.285
57047W        W29373  18.793  36.039   2.156
57048W        W29374  41.317  41.067  11.007
57049W        W29375  31.575   0.263   3.699
57050W        W29376  42.704   0.578   1.725
57051W        W29377   3.336  27.589  13.312
57052W        W29378   2.533  43.242  13.604
57053W        W29379  34.859  36.146   9.732
57054W        W29380   1.921   7.186  12.573
57055W        W29381  25.131  31.957  11.492
57056W        W29382   4.191   5.301   1.296
57057W        W29383  14.676  18.538   1.858
57058W        W29384  14.198  44.215  13.459
57059W        W29385  38.879  35.335  12.783
57060W        W29386  14.267  24.494  11.949
57061W        W29387  31.693   7.449   1.772
57062W        W29388   9.215  31.125   4.029
57063W        W29389  43.784  10.207  11.606
57064W        W29390   4.657  12.247  11.668
57065W        W29391  43.334   2.212   2.752
57066W        W29392  27.484  34.460   0.268
57067W        W29393  33.852   3.662  13.740
57068W        W29394  23.636  11.873   1.877
57069W        W29395   3.477  16.676  12.571
57070W        W29396   4.400  33.304  14.890
57071W        W29397  28.398  18.814  10.637
57072W        W29398  33.703  28.584  14.601
57073W        W29399  40.295   2.694   3.716
57074W        W29400   8.749  24.773   4.769
57075W        W29401  11.111  38.035  12.105
57076W        W29402  42.991  27.806  13.181
57077W        W29403   6.869  20.187   1.687
57078W        W29404  42.840   3.205   0.830
57079W        W29405  40.365  42.216   1.984
57080W        W29406   6.888   3.057  11.455
57081W        W29407  29.183  26.489   0.884
57082W        W29408   2.439  44.027  12.342
57083W        W29409  41.863  27.971  12.472
57084W        W29410  35.367  30.522   1.030
57085W        W29411  35.498  26.116  13.027
57086W        W29412  19.662   5.137  13.571
57087W        W29413  17.807   2.963   0.770
57088W        W29414  41.089  20.706  11.949
57089W        W29415  37.466  23.670  11.353
57090W        W29416  38.425  43.470  11.936
57091W        W29417   8.737  23.763   0.203
57092W        W29418  30.162  35.449   1.579
57093W        W29419  44.324  30.996  13.363
57094W        W29420   8.706  31.585  13.305
57095W        W29421   8.859  34.416   3.682
57096W        W29422  23.232  14.346  13.612
57097W        W29423  37.815  32.935   3.368
57098W        W29424   8.824  32.251  10.753
57099W        W29425  34.478  26.080   1.929
57100W        W29426  43.018   4.651  14.333
57101W        W29427  19.251  38.435   1.195
57102W        W29428   3.971  16.726  12.432
57103W        W29429  19.691  39.838   2.322
57104W        W29430  16.200   0.322  14.863
57105W        W29431  10.300  29.212  11.965
57106W        W29432  23.667  37.979  12.358
57107W        W29433   8.717  16.555  12.902
57108W        W29434  11.085  40.251  12.076
57109W        W29435  19.110  20.894  13.699
57110W        W29436  15.761  27.768  11.745
57111W        W29437   9.278  41.813  12.125
57112W        W29438  33.728  23.295   0.912
57113W        W29439   8.121  22.986   2.177
57114W        W29440   7.198  28.435   4.611
57115W        W29441  17.499  13.167   3.796
57116W        W29442  13.219  30.430   5.132
57117W        W29443  35.211  11.076  13.234
57118W        W29444  41.715  25.075   3.249
57119W        W29445  30.428  38.601   0.974
57120W        W29446   3.857  33.896  14.248
57121W        W29447  29.589  21.684  11.476
57122W        W29448   5.227   1.062   1.271
57123W        W29449   7.766  42.515  10.562
57124W        W29450  27.020  23.380   3.233
57125W        W29451  38.026  13.213   1.795
57126W        W29452  29.891  21.240  14.458
57127W        W29453  40.569  38.020  14.378
57128W        W29454  19.556  34.981   2.631
57129W        W29455   3.442  22.026  11.485
57130W        W29456  39.365  43.674  14.926
57131W        W29457   3.445   0.383  10.377
57132W        W29458   5.760  40.554   0.666
57133W        W29459   0.571  16.550  14.434
57134W        W29460   0.859   3.938   0.163
57135W        W29461  20.201  38.573  13.461
57136W        W29462  26.002  32.352   0.230
57137W        W29463  31.953  30.696  12.402
57138W        W29464  28.459  41.901  11.619
57139W        W29465   1.431  37.618   2.889
57140W        W29466  39.487  27.513   4.856
57141W        W29467   8.793   1.256  10.894
57142W        W29468  11.351  26.920  11.145
57143W        W29469  18.287  11.892  14.937
57144W        W29470  21.105  10.118   3.226
57145W        W29471  12.579  41.265   1.393
57146W        W29472   3.831  28.078  11.479
57147W        W29473  30.605  11.405   3.108
57148W        W29474  44.259   2.481  12.955
57149W        W29475  35.491  12.514  13.377
57150W        W29476   9.542  17.630  11.425
57151W        W29477  12.126  18.071   3.733
57152W        W29478  35.503  10.377   0.859
57153W        W29479  20.374   7.624   0.568
57154W        W29480  17.772  34.053   3.663
57155W        W29481  26.207  28.068   9.993
57156W        W29482  18.867  11.736   3.304
57157W        W29483  14.810  41.443  11.906
57158W        W29484  42.497  17.092  14.957
57159W        W29485  28.521  29.379   3.220
57160W        W29486   7.870  27.076  12.331
57161W        W29487  21.390  35.265   0.764
57162W        W29488  12.137  43.494   1.012
57163W        W29489   2.779  28.059   3.629
57164W        W29490  39.945  44.982  13.197
57165W        W29491  24.467  42.787  13.800
57166W        W29492  20.596   7.436   4.198
57167W        W29493  20.006   5.968  14.336
57168W        W29494  33.530  22.560  10.341
57169W        W29495   9.642  23.681  12.961
57170W        W29496   6.732   0.931   1.377
57171W        W29497  16.094  31.434  12.913
57172W        W29498  39.930  27.125   0.380
57173W        W29499  26.749  25.723   1.804
57174W        W29500  38.317  29.335  12.033
57175W        W29501  27.376  28.503   4.223
57176W        W29502  27.660   9.183  14.326
57177W        W29503  15.247  11.540   3.224
57178W        W29504   8.863  39.990   2.402
57179W        W29505  37.261   2.194   4.235
57180W        W29506  43.040  25.688   3.118
57181W        W29507  36.130  13.236   3.717
57182W        W29508  25.269   7.026  12.034
57183W        W29509   0.571  29.590  10.514
57184W        W29510  26.514  40.780   5.017
57185W        W29511  24.223  34.534   2.272
57186W        W29512  29.469  36.094  12.611
57187W        W29513   9.100  38.305  14.726
57188W        W29514  16.182   9.097   2.216
57189W        W29515   1.239  43.984  12.140
57190W        W29516   5.157  37.366   2.694
57191W        W29517  18.686   0.571  13.336
57192W        W29518   1.901   8.923  12.994
57193W        W29519   5.205  19.523   3.141
57194W        W29520  26.157   5.750   0.854
57195W        W29521  24.653  30.059   3.788
57196W        W29522  13.638  26.019  10.045
57197W        W29523  39.620  14.077  12.232
57198W        W29524   6.089  20.516  11.803
57199W        W29525   9.012  34.430  10.747
57200W        W29526  40.304  41.562  12.871
57201W        W29527  22.430  15.182  13.010
57202W        W29528  32.637  22.527   1.280
57203W        W29529   7.758   0.914   1.400
57204W        W29530  13.084  21.708  14.890
57205W        W29531  15.788  29.512  11.934
57206W        W29532   8.307  11.894   4.286
57207W        W29533  27.528  23.488   3.239
57208W        W29534   7.479  17.772   2.266
57209W        W29535  38.189  28.265  13.311
57210W        W29536  30.723  39.918   0.680
57211W        W29537  11.112  13.647  12.047
57212W        W29538  44.729  16.885   3.146
57213W        W29539  12.742  25.009  10.181
57214W        W29540  44.878  17.317  12.000
57215W        W29541  19.201  34.320  14.414
57216W        W29542  36.960  24.824   2.895
57217W        W29543   1.977   4.385  11.910
57218W        W29544  20.936  11.683   5.019
57219W        W29545  16.521  10.793   3.617
57220W        W29546  38.208  23.359   0.317
57221W        W29547  38.776  42.360  11.316
57222W        W29548   4.609  28.100  10.966
57223W        W29549   0.543  30.284  12.933
57224W        W29550  34.523  41.110   3.175
57225W        W29551  25.059  24.523  14.330
57226W        W29552  26.610  30.576  14.282
57227W        W29553  36.179   5.263  13.204
57228W        W29554  31.047  12.730   4.140
57229W        W29555   9.552  30.655  12.486
57230W        W29556   5.838  43.332  11.667
57231W        W29557  22.548  26.488  14.985
57232W        W29558  20.385  34.803   5.069
57233W        W29559   7.974  32.642   4.620
57234W        W29560  16.937  19.552   9.837
57235W        W29561  27.559  40.578  14.635
57236W        W29562   8.976  24.018  13.431
57237W        W29563  16.257  23.301  14.291
57238W        W29564  36.023  18.063   3.195
57239W        W29565  13.723  27.338  11.395
57240W        W29566  37.515  30.010   3.297
57241W        W29567  21.621  20.705  13.828
57242W        W29568  36.810  12.623   4.763
57243W        W29569  12.643  24.208  12.651
57244W        W29570  15.144  32.802   4.788
57245W        W29571  10.791  12.067  10.711
57246W        W29572  22.320  19.863  10.381
57247W        W29573   8.352   1.390  11.154
57248W        W29574  44.726   2.354   0.010
57249W        W29575  41.877   1.404   3.696
57250W        W29576  27.985   9.856   0.561
57251W        W29577   9.862  43.340  12.939
57252W        W29578  17.622  10.528   3.748
57253W        W29579   3.659  36.331   3.832
57254W        W29580  39.231  43.727  13.298
57255W        W29581   2.765   5.211   3.215
57256W        W29582  14.823   4.993  13.976
57257W        W29583  41.932  27.623   4.579
57258W        W29584  18.730  42.519   0.018
57259W        W29585  43.856  29.961  12.209
57260W        W29586  20.661  28.910  14.678
57261W        W29587  30.868  37.699   2.061
57262W        W29588   1.311  33.202   1.783
57263W        W29589  30.889  14.349  13.421
57264W        W29590  24.343  44.405   5.175
57265W        W29591  27.979  23.707  10.850
57266W        W29592  23.136  10.306   0.208
57267W        W29593   8.748  27.362   0.989
57268W        W29594   3.954  37.644  11.258
57269W        W29595  22.182  35.890   2.220
57270W        W29596   2.256  38.908   1.814
57271W        W29597  36.826   8.205   3.649
57272W        W29598  26.777  23.473   2.774
57273W        W29599  44.824   0.517   2.695
57274W        W29600  20.234  23.046  12.871
57275W        W29601  41.041  31.410   2.790
57276W        W29602  16.840  34.829  11.132
57277W        W29603  24.396  19.292  11.363
57278W        W29604  41.862  40.012  13.012
57279W        W29605  39.780  42.896  13.524
57280W        W29606  12.739  38.708  10.712
57281W        W29607  41.283  38.385   2.395
57282W        W29608   8.871   8.695  14.361
57283W        W29609  39.808  10.262   0.513
57284W        W29610  16.999  42.614  12.567
57285W        W29611  10.936  14.681   1.292
57286W        W29612  20.261  20.239  14.986
57287W        W29613   1.780   7.422   0.103
57288W        W29614  14.344  16.711  13.048
57289W        W29615  40.378  10.028  14.613
57290W        W29616  34.776   8.256   0.945
57291W        W29617  31.008  38.048  14.916
57292W        W29618  25.740  38.032  12.028
57293W        W29619  37.115  29.413   4.723
57294W        W29620  22.536  27.159  10.491
57295W        W29621  30.124   7.331  14.513
57296W        W29622  41.099  22.065   4.908
57297W        W29623  38.954  29.784   3.246
57298W        W29624  42.299   3.434  12.599
57299W        W29625  34.504  34.309   1.602
57300W        W29626   2.382   3.106  14.623
57301W        W29627  30.950  30.111   2.484
57302W        W29628   4.004   1.939   4.798
57303W        W29629  21.217   5.106   0.873
57304W        W29630   0.826  36.205  12.204
57305W        W29631   5.163  10.583  12.497
57306W        W29632   0.950  28.950  14.536
57307W        W29633  44.515   4.793   3.942
57308W        W29634  13.812  19.268  11.745
57309W        W29635  33.491  33.171  13.366
57310W        W29636  34.054  35.116   3.255
57311W        W29637  16.653   0.313  12.897
57312W        W29638  11.123  26.165   2.902
57313W        W29639  42.914  30.716   0.757
57314W        W29640   1.382   5.395   3.077
57315W        W29641  20.341   1.472  10.657
57316W        W29642   9.440  13.259  11.545
57317W        W29643  28.683  37.137  11.342
57318W        W29644  42.783  12.343   1.832
57319W        W29645  32.608   9.311   4.918
57320W        W29646  27.889  21.741   2.883
57321W        W29647  16.919  36.577   3.118
57322W        W29648  24.728   6.379   3.786
57323W        W29649  38.446  36.872  13.005
57324W        W29650  39.611  13.517   2.409
57325W        W29651  11.742  23.474  13.283
57326W        W29652   9.158   5.270  12.919
57327W        W29653   7.874  31.811   1.853
57328W        W29654  36.540  40.504   4.549
57329W        W29655   6.724  33.074   4.152
57330W        W29656  38.392  31.856   0.929
57331W        W29657  29.469  20.362   2.637
57332W        W29658  22.471  27.483  12.458
57333W        W29659  13.699  31.162   1.228
57334W        W29660  40.824  27.691   2.377
57335W        W29661  33.691  23.587   3.589
57336W        W29662  17.165  31.478   0.297
57337W        W29663  10.502   9.917   4.065
57338W        W29664  25.827  18.255  10.114
57339W        W29665   0.462  20.876   1.489
57340W        W29666  25.055  17.362  12.944
57341W        W29667  24.206   1.022  10.797
57342W        W29668  38.563  17.407  14.538
57343W        W29669   9.919   7.262  11.967
57344W        W29670  27.476  42.323   3.226
57345W        W29671  43.790   8.344   4.328
57346W        W29672  19.128  17.217  11.994
57347W        W29673  30.728  42.900  10.316
57348W        W29674  37.535  43.523   1.202
57349W        W29675  32.253  23.764  13.537
57350W        W29676  44.310  13.769   3.888
57351W        W29677  32.414  28.016  11.645
57352W        W29678  20.361  18.265   0.999
57353W        W29679  27.101   3.468  12.576
57354W        W29680  44.294  35.567  13.068
57355W        W29681  18.029   3.944   2.756
57356W        W29682   1.427   0.907  12.144
57357W        W29683   0.352   3.294   0.698
57358W        W29684  29.368  20.235   3.135
57359W        W29685   7.843  35.635  12.933
57360W        W29686  42.931  25.045   2.736
57361W        W29687   3.970  11.916  12.471
57362W        W29688  10.847  12.731  14.487
57363W        W29689  24.767  33.686   4.862
57364W        W29690   2.022  21.618   5.535
57365W        W29691   9.480   2.332  11.984
57366W        W29692   7.244  38.618  14.340
57367W        W29693  37.620  39.982  14.186
57368W        W29694  11.172  37.038   4.414
57369W        W29695  38.323  43.744   4.525
57370W        W29696  44.270  41.541   3.261
57371W        W29697   2.925  22.299   0.604
57372W        W29698  34.615   7.270  14.022
57373W        W29699   6.669   9.858   1.803
57374W        W29700  11.687   7.428   1.366
57375W        W29701  26.063  43.262   1.199
57376W        W29702  24.573  44.490   1.766
57377W        W29703  28.675  16.301  13.273
57378W        W29704   3.772  24.216   3.450
57379W        W29705  24.046  27.969  12.502
57380W        W29706   3.401   4.940   9.991
57381W        W29707  42.989  21.594   0.727
57382W        W29708  11.291  28.411   2.263
57383W        W29709  25.943  28.165   3.069
57384W        W29710  37.786  10.403   1.310
57385W        W29711  29.667   6.361  12.065
57386W        W29712   0.590  35.999  10.450
57387W        W29713  25.859  17.616  10.222
57388W        W29714  41.849  29.463  12.444
57389W        W29715   5.335  11.600   0.342
57390W        W29716  42.441  10.193  10.412
57391W        W29717  30.138  30.643  12.020
57392W        W29718  14.581  25.963  14.844
57393W        W29719  30.434   8.281   3.679
57394W        W29720   4.388  17.747   4.918
57395W        W29721  32.462  33.911  11.716
57396W        W29722  44.305  15.680   3.164
57397W        W29723  42.995  28.664   2.635
57398W        W29724  44.369   2.272  11.506
57399W        W29725  36.473  32.231   4.554
57400W        W29726   6.754  14.730   3.633
57401W        W29727  43.313  32.451  13.627
57402W        W29728  30.797  43.528  10.889
57403W        W29729  37.904   3.602  11.542
57404W        W29730  41.432  37.961   4.726
57405W        W29731  30.563   5.933  14.416
57406W        W29732   9.296  23.473   2.258
57407W        W29733  35.357  19.586   1.852
57408W        W29734  38.389   5.623   3.127
57409W        W29735  34.783  32.879   3.773
57410W        W29736  19.846  18.310   2.843
57411W        W29737  15.765  29.456   1.739
57412W        W29738   8.940   6.139  10.723
57413W        W29739   6.141   9.920   4.124
57414W        W29740  19.144  34.193  11.121
57415W        W29741  42.994  36.689   1.281
57416W        W29742  32.917   5.478  11.110
57417W        W29743   3.891  12.764  10.821
57418W        W29744  38.263   3.402   0.884
57419W        W29745  29.628  32.976   2.416
57420W        W29746  36.498  17.096   1.978
57421W        W29747  25.928  11.903   0.729
57422W        W29748  19.211  42.871  14.172
57423W        W29749  26.488  36.244  11.692
57424W        W29750   3.869  19.949   4.148
57425W        W29751  40.374  12.797  10.624
57426W        W29752  17.633  37.053  10.780
57427W        W29753  14.858  10.341  10.197
57428W        W29754   2.109  23.592   1.421
57429W        W29755  31.913  10.037  14.498
57430W        W29756   6.399  43.090   2.814
57431W        W29757  17.772  14.333  13.382
57432W        W29758  24.365  28.568   2.915
57433W        W29759  11.290  11.548   2.426
57434W        W29760  33.005   1.896   3.995
57435W        W29761  31.201  31.492  10.707
57436W        W29762  17.316  28.119  11.573
57437W        W29763  23.184  35.934   4.773
57438W        W29764   0.397  23.963  12.407
57439W        W29765  19.782  27.123  12.023
57440W        W29766  34.614  34.409  14.556
57441W        W29767   5.481  41.256   1.840
57442W        W29768  20.936  23.477  10.235
57443W        W29769  18.097   3.205   2.269
57444W        W29770  29.946   5.200  11.488
57445W        W29771  17.016  35.943   0.653
57446W        W29772  42.588  39.242  14.628
57447W        W29773  11.953  24.441   2.632
57448W        W29774  26.823   8.269   0.755
57449W        W29775  16.737   9.361  14.971
57450W        W29776   2.734  21.140  14.545
57451W        W29777  35.563  16.131  14.304
57452W        W29778  32.113  39.751   2.675
57453W        W29779  13.641  38.057  13.475
57454W        W29780  16.834   3.415  14.733
57455W        W29781  11.380  18.753   1.924
57456W        W29782   1.714  35.013  12.366
57457W        W29783  18.586  37.123   4.261
57458W        W29784   1.477  10.123   4.356
57459W        W29785  15.379   5.704   3.667
57460W        W29786  24.977  31.944  13.944
57461W        W29787  24.289   8.964  12.385
57462W        W29788  40.281  22.491  12.152
57463W        W29789   6.084  44.909   4.084
57464W        W29790  35.686  12.337   5.431
57465W        W29791   3.054  38.381   3.420
57466W        W29792  28.628   8.234  14.322
57467W        W29793   0.688   0.324   2.209
57468W        W29794  13.965  17.790  14.482
57469W        W29795   8.541   3.181  14.447
57470W        W29796  20.297   9.777  12.921
57471W        W29797  18.152  27.153   1.972
57472W        W29798   8.549  31.692  14.307
57473W        W29799  16.376  28.662  12.101
57474W        W29800   0.337  41.055   4.671
57475W        W29801  13.119  29.518  13.994
57476W        W29802  25.503  30.506   2.037
57477W        W29803  19.011   3.920   3.140
57478W        W29804  13.416  27.290   5.526
57479W        W29805  13.143   0.965  12.908
57480W        W29806  14.176  28.529   4.764
57481W        W29807  34.311  38.509  11.042
57482W        W29808  11.271   4.954   3.268
57483W        W29809  13.608  27.095   4.096
57484W        W29810  12.915  31.078   3.603
57485W        W29811  18.730   5.770  13.940
57486W        W29812  28.075  16.474  12.157
57487W        W29813   5.717  35.449  14.732
57488W        W29814  25.418   8.243   2.355
57489W        W29815  20.018  28.910   0.443
57490W        W29816  24.342  36.569   2.839
57491W        W29817   8.693  41.669  13.815
57492W        W29818  34.320  30.029  11.991
57493W        W29819  33.585  39.980   3.909
57494W        W29820  16.106  14.799   3.645
57495W        W29821  17.307  18.124  10.173
57496W        W29822   8.628  35.858  13.349
57497W        W29823   5.831  28.956   2.357
57498W        W29824  39.069  27.500   4.120
57499W        W29825  38.559  16.075   3.155
57500W        W29826  22.580  20.131   0.054
57501W        W29827  36.353  18.413  11.544
57502W        W29828   7.138   7.939  14.551
57503W        W29829   1.252   5.745   1.468
57504W        W29830  32.959  39.003   4.647
57505W        W29831  15.337  13.984   1.528
57506W        W29832  14.637  24.556  14.328
57507W        W29833  41.929  22.499   0.466
57508W        W29834  44.271  36.954   3.304
57509W        W29835  21.592  44.922   3.424
57510W        W29836   7.656  20.763   1.016
57511W        W29837  30.125  19.106   3.256
57512W        W29838   6.277  21.565   4.281
57513W        W29839  19.227  31.754   0.698
57514W        W29840   4.782  11.018   3.654
57515W        W29841  35.887   6.383  11.983
57516W        W29842  12.813  17.055   4.174
57517W        W29843  39.073  34.747  10.269
57518W        W29844  43.354  44.825   2.332
57519W        W29845  36.979  11.327  14.288
57520W        W29846  37.686  11.643  12.892
57521W        W29847  36.505  27.969  10.154
57522W        W29848  13.318  21.108   2.650
57523W        W29849  19.173  16.164  14.042
57524W        W29850  12.705  37.151  13.567
57525W        W29851  25.418  16.795   5.412
57526W        W29852  11.907  24.946   2.677
57527W        W29853  36.458  11.107  10.251
57528W        W29854  20.758  34.669   2.782
57529W        W29855  37.097   5.483   0.270
57530W        W29856  35.483  37.487  14.976
57531W        W29857  21.544  39.139   4.013
57532W        W29858  44.745   1.776   3.335
57533W        W29859  12.939  12.064   0.329
57534W        W29860  14.302  33.926  14.843
57535W        W29861  24.734   7.380  12.101
57536W        W29862  39.938  35.864  12.454
57537W        W29863  13.119  27.780  13.517
57538W        W29864  18.621   4.980   4.631
57539W        W29865  20.731  13.674   2.999
57540W        W29866  11.010  30.383   3.717
57541W        W29867   7.715  28.401  13.358
57542W        W29868  20.114  43.250   4.736
57543W        W29869  26.677   7.161  14.858
57544W        W29870  13.252  17.025   2.188
57545W        W29871   6.247  34.190  10.720
57546W        W29872  13.238  10.133   2.919
57547W        W29873  14.072  33.995  12.792
57548W        W29874  30.947  16.457  14.485
57549W        W29875  20.598  23.004   0.865
57550W        W29876  26.479   0.088   2.722
57551W        W29877  40.561  31.921  12.283
57552W        W29878  15.580  34.944   1.850
57553W        W29879  30.642  13.912  13.074
57554W        W29880  25.917  43.743  12.216
57555W        W29881   4.939  41.755  10.759
57556W        W29882   1.959  16.658  13.593
57557W        W29883  31.940  25.271  12.796
57558W        W29884  37.525  32.540  13.814
57559W        W29885   6.440   2.015  12.058
57560W        W29886  35.850  16.741   0.871
57561W        W29887   6.328  44.044   0.413
57562W        W29888  31.579   4.204  12.409
57563W        W29889  22.541  25.430  14.935
57564W        W29890  36.027   4.838  12.940
57565W        W29891  36.403  25.820   3.342
57566W        W29892  10.584  26.533  14.407
57567W        W29893   7.804  43.519  12.356
57568W        W29894  39.240  31.002   4.565
57569W        W29895  21.538  10.936   0.355
57570W        W29896  38.008  18.347   3.604
57571W        W29897  28.768   4.402   1.262
57572W        W29898  36.873  38.783   3.333
57573W        W29899  12.718   0.329   3.882
57574W        W29900   2.867   5.651   0.122
57575W        W29901  25.179  43.854   1.976
57576W        W29902  29.058  13.149   0.303
57577W        W29903  38.842  26.563   1.426
57578W        W29904  10.856  18.476  13.700
57579W        W29905  16.511  33.417   4.263
57580W        W29906  24.278   1.391   3.074
57581W        W29907  26.512  36.162   0.366
57582W        W29908  19.256  42.039   3.430
57583W        W29909  25.421  43.281   3.096
57584W        W29910   0.352  18.561   4.578
57585W        W29911  26.650  43.812   1.323
57586W        W29912  20.518  13.146   1.864
57587W        W29913  42.661  14.764  14.407
57588W        W29914  25.060  21.868  14.548
57589W        W29915  30.217  31.181   1.931
57590W        W29916   2.807   8.728   1.279
57591W        W29917   7.717  34.101   3.118
57592W        W29918  17.060  22.244   2.254
57593W        W29919   6.601  33.389  10.480
57594W        W29920  31.292  11.442  14.395
57595W        W29921  25.043  42.865   3.763
57596W        W29922   8.779  32.056   4.597
57597W        W29923  23.238  10.879   3.655
57598W        W29924  39.311  31.347  12.959
57599W        W29925  18.121  35.354   1.108
57600W        W29926  39.365  39.173  13.855
57601W        W29927  23.748   0.807  12.450
57602W        W29928  10.924  25.630   0.785
57603W        W29929  14.702  42.450  10.647
57604W        W29930  20.673  36.535   1.178
57605W        W29931  23.806  15.781   3.391
57606W        W29932  31.671  30.608  13.986
57607W        W29933  24.927  13.362  12.152
57608W        W29934   9.686  21.681   2.422
57609W        W29935  18.622  42.323   3.005
57610W        W29936  38.083  16.345  11.822
57611W        W29937  20.210  36.522  11.370
57612W        W29938  37.862  24.784   4.059
57613W        W29939   3.055  41.910   1.400
57614W        W29940  12.603  35.501   2.713
57615W        W29941  38.936  31.023   2.357
57616W        W29942   8.974   3.225   3.806
57617W        W29943  41.459  15.510   4.701
57618W        W29944   6.011  32.088   3.315
57619W        W29945   3.983   1.931  14.607
57620W        W29946   0.980  11.206  10.677
57621W        W29947  17.630  28.718   0.316
57622W        W29948  35.945  20.547   3.327
57623W        W29949   3.788  27.624  11.719
57624W        W29950  34.401  16.765   0.395
57625W        W29951  30.145  30.476  13.816
57626W        W29952  13.792   5.713  13.428
57627W        W29953   6.388  29.966   2.841
57628W        W29954  37.329  13.847   1.801
57629W        W29955  11.539  26.096  14.007
57630W        W29956  16.825  20.761   4.762
57631W        W29957  13.094   8.285  12.064
57632W        W29958  26.192  12.475   3.157
57633W        W29959  13.650  20.546   1.465
57634W        W29960  21.716   7.168   2.357
57635W        W29961  40.858  26.436  11.558
57636W        W29962  36.270   4.835  12.048
57637W        W29963  36.928  44.793   4.941
57638W        W29964  23.825  41.905   1.465
57639W        W29965   4.736  42.434  11.355
57640W        W29966  39.009  44.518  11.723
57641W        W29967  11.608  16.527  13.978
57642W        W29968  15.669  29.073   3.250
57643W        W29969  33.630  36.131   3.689
57644W        W29970   3.535  35.914  10.790
57645W        W29971  14.584  42.884   1.276
57646W        W29972  38.366  32.596  14.535
57647W        W29973   6.439  38.020  12.109
57648W        W29974  40.051  37.539   4.549
57649W        W29975  28.167   5.682  11.580
57650W        W29976  38.286  12.585   1.309
57651W        W29977   1.381  28.330   1.121
57652W        W29978   1.851  12.864   0.285
57653W        W29979  40.114   7.823  12.498
57654W        W29980  16.175  11.717  13.389
57655W        W29981  24.250  16.138   1.791
57656W        W29982   0.097  41.552  13.907
57657W        W29983  44.236   8.199  11.921
57658W        W29984  31.046  38.634   3.294
57659W        W29985  12.654  31.168   2.145
57660W        W29986  27.102  18.131   2.432
57661W        W29987  16.528  20.935   0.902
57662W        W29988  21.236  44.510  13.705
57663W        W29989   4.880  37.006   4.803
57664W        W29990  42.245  20.521  12.778
57665W        W29991  41.370  13.293  12.490
57666W        W29992  40.171   0.064  11.962
57667W        W29993  34.358  21.277  11.583
57668W        W29994  15.395  17.541   3.605
57669W        W29995  34.635  22.214   4.327
57670W        W29996  33.093  11.384   3.354
57671W        W29997  30.991  22.961  11.965
57672W        W29998  18.735   7.394  10.510
57673W        W29999  18.105  37.934   1.428
57674W        W30000   0.917   2.510   4.587
57675W        W30001  15.734  27.064   3.376
57676W        W30002  23.426   2.193   4.161
57677W        W30003  14.688  20.415   1.912
57678W        W30004   9.740  28.978  13.958
57679W        W30005   0.778  31.539  14.988
57680W        W30006  15.676   0.961   3.161
57681W        W30007  35.833  25.033   0.368
57682W        W30008  38.862  11.910   3.692
57683W        W30009   9.157  26.617  13.969
57684W        W30010  34.002  31.618   2.817
57685W        W30011   2.217  30.708   0.326
57686W        W30012  33.326  31.255  10.548
57687W        W30013  43.040  12.333  13.529
57688W        W30014  28.439  20.298   2.706
57689W        W30015  25.242  28.737   2.600
57690W        W30016  40.638  24.485   1.302
57691W        W30017  27.409  36.889   3.338
57692W        W30018   1.008   3.486  13.451
57693W        W30019  40.443  19.844  13.424
57694W        W30020   8.701  14.358  10.617
57695W        W30021  43.967  23.173   3.353
57696W        W30022  37.195  36.543   4.655
57697W        W30023   4.946  27.432   0.775
57698W        W30024   6.862  31.506  13.945
57699W        W30025  33.973  26.032   4.177
57700W        W30026   4.426  16.526   2.311
57701W        W30027  18.078  12.295   3.866
57702W        W30028   6.307  14.074  14.248
57703W        W30029   3.253  44.315   3.302
57704W        W30030  16.048  18.922  12.896
57705W        W30031  43.192  21.967   0.322
57706W        W30032   7.826  23.687  11.586
57707W        W30033  25.250  39.975  13.069
57708W        W30034  38.396  24.708  13.736
57709W        W30035  24.640  32.163  14.798
57710W        W30036  32.905   1.422  12.015
57711W        W30037  38.203  21.557  11.086
57712W        W30038  19.720  39.132   1.386
57713W        W30039  42.732   7.312   1.277
57714W        W30040  15.746   7.192  10.558
57715W        W30041   9.199   5.749  14.933
57716W        W30042  42.840   9.318  12.966
57717W        W30043   9.775  41.496   3.301
57718W        W30044  14.591   4.845  11.622
57719W        W30045  42.447  10.137  13.412
57720W        W30046  24.813   7.785   3.501
57721W        W30047  43.045  22.754  12.107
57722W        W30048  18.456  20.280  14.512
57723W        W30049  10.059   2.117  11.246
57724W        W30050  35.064  41.269  14.417
57725W        W30051  36.349  39.610  11.586
57726W        W30052   4.917  36.597   2.340
57727W        W30053  26.533  36.535   3.679
57728W        W30054   6.713  30.998  13.957
57729W        W30055  18.760   7.308  11.483
57730W        W30056  22.494  23.032  12.496
57731W        W30057  20.959  29.411  11.650
57732W        W30058  25.670  33.612  13.918
57733W        W30059  15.657  11.763   4.614
57734W        W30060  13.125  18.062  12.970
57735W        W30061  23.998  21.511  13.832
57736W        W30062  10.192   1.979  11.726
57737W        W30063  40.305  14.765  10.541
57738W        W30064  12.612  31.961  13.409
57739W        W30065  14.690   9.277   2.960
57740W        W30066  14.671  37.552   1.735
57741W        W30067   2.455  23.205   3.408
57742W        W30068  30.999  21.796  10.513
57743W        W30069  28.767  27.012  12.422
57744W        W30070  39.394  12.571  13.002
57745W        W30071  28.413   9.242  13.840
57746W        W30072  34.669  12.066  11.019
57747W        W30073  34.520  17.363   2.358
57748W        W30074   4.236  26.876  12.019
57749W        W30075  18.136  24.291   3.718
57750W        W30076  38.299   7.448   0.049
57751W        W30077   2.310  28.230   1.284
57752W        W30078  33.110   6.387   0.796
57753W        W30079   1.452  14.100  10.704
57754W        W30080  27.928  37.433   3.704
57755W        W30081  42.212  25.532  11.732
57756W        W30082  24.710  39.082   3.312
57757W        W30083  18.283  20.462  14.026
57758W        W30084  16.108  16.681  11.973
57759W        W30085  18.274   1.370   1.281
57760W        W30086   1.529  40.496  13.266
57761W        W30087  44.361  14.151   1.920
57762W        W30088  31.232   1.321   3.149
57763W        W30089  16.823  35.926  12.041
57764W        W30090  12.915  42.411  14.852
57765W        W30091  26.111  39.311   0.221
57766W        W30092  14.329   3.621  11.145
57767W        W30093  15.435  14.748   2.275
57768W        W30094   7.655  40.429   4.483
57769W        W30095  18.188  17.098  14.562
57770W        W30096  42.358  14.551   2.326
57771W        W30097  22.017   6.413  14.254
57772W        W30098  15.669  12.901  14.291
57773W        W30099  39.076  30.683  12.468
57774W        W30100   5.137  37.639   0.846
57775W        W30101  19.977  33.507   0.967
57776W        W30102   2.829   4.209   4.917
57777W        W30103  35.008  35.028   1.411
57778W        W30104  32.123  17.059  14.613
57779W        W30105  42.047  25.733  14.903
57780W        W30106  26.222  15.408  13.435
57781W        W30107   3.875  33.504  10.788
57782W        W30108  31.429  16.338  14.676
57783W        W30109  38.004  38.800   0.309
57784W        W30110  10.184  37.666  12.062
57785W        W30111  44.466   4.994  12.450
57786W        W30112  39.326  33.623   2.833
57787W        W30113   4.382  28.981   4.559
57788W        W30114  33.418  10.096  13.132
57789W        W30115  17.638  40.321   4.816
57790W        W30116  25.570  26.283   1.850
57791W        W30117  22.261  44.012  12.637
57792W        W30118  22.638  22.175  10.379
57793W        W30119  27.005  44.521   9.952
57794W        W30120  11.655  27.989  10.309
57795W        W30121  19.319  38.423  13.272
57796W        W30122  44.264   0.731   4.377
57797W        W30123  14.555   9.481  13.482
57798W        W30124  32.184  36.155  12.445
57799W        W30125  27.198  32.097  14.837
57800W        W30126  35.010  18.043   3.181
57801W        W30127  28.841  36.077  13.392
57802W        W30128   5.292   1.479   4.609
57803W        W30129  32.460  27.901  10.775
57804W        W30130   4.758  38.840  13.741
57805W        W30131  28.140  23.974  10.427
57806W        W30132  44.060  20.104   4.017
57807W        W30133  43.428  17.691  14.859
57808W        W30134  34.093  35.640   9.887
57809W        W30135   7.838  38.621  13.015
57810W        W30136  22.699  16.982  14.372
57811W        W30137  15.561  10.121   9.984
57812W        W30138   6.384  33.622  13.763
57813W        W30139  21.671  27.732   0.951
57814W        W30140   2.444   4.639   0.745
57815W        W30141  32.118   9.768  12.584
57816W        W30142  30.280   9.233   0.277
57817W        W30143  44.737  31.315   4.420
57818W        W30144  44.070   8.764  11.236
57819W        W30145  28.646  40.833   0.838
57820W        W30146   1.942  36.145  13.384
57821W        W30147  16.143  42.006   1.658
57822W        W30148  10.826   5.205   3.185
57823W        W30149  27.092  27.395   1.634
57824W        W30150  32.598   4.793  11.804
57825W        W30151  35.146  11.621   4.623
57826W        W30152  37.837  28.143  13.673
57827W        W30153  12.804  25.116   4.101
57828W        W30154   6.448  28.962  10.723
57829W        W30155  15.585  23.299   9.829
57830W        W30156  16.656   5.970   3.102
57831W        W30157  38.876  20.268   3.112
57832W        W30158  26.087  39.770  14.968
57833W        W30159   2.244   4.179   1.640
57834W        W30160  18.751  14.053   4.971
57835W        W30161   6.705  39.580  10.703
57836W        W30162  34.169  24.268  13.152
57837W        W30163  41.543   8.221   0.985
57838W        W30164  42.314  30.678  10.463
57839W        W30165  34.923  16.788   3.698
57840W        W30166  26.487  20.156  14.479
57841W        W30167  38.672  21.210  11.912
57842W        W30168  28.415  41.945   1.880
57843W        W30169   9.159  29.665  14.008
57844W        W30170  30.391  42.065   0.432
57845W        W30171  27.063  22.161  10.750
57846W        W30172  37.552  25.933   1.063
57847W        W30173  31.594  25.924   3.695
57848W        W30174  19.269   7.635  13.970
57849W        W30175  36.881  13.550  13.452
57850W        W30176  37.075  30.967   2.486
57851W        W30177   9.927   7.785  12.038
57852W        W30178  41.732  41.342   0.324
57853W        W30179  13.757   9.385   2.877
57854W        W30180  15.799  27.336  12.065
57855W        W30181  31.527  28.013  14.696
57856W        W30182  35.920  27.182   2.704
57857W        W30183  37.913  32.409  11.360
57858W        W30184  30.490  33.729  13.529
57859W        W30185  44.614  29.507  14.466
57860W        W30186  36.660   0.968   1.654
57861W        W30187  19.121  10.399   2.366
57862W        W30188  13.278  13.876   4.608
57863W        W30189  33.685  29.409   4.141
57864W        W30190  27.202  13.022  12.795
57865W        W30191  24.119  36.117   0.234
57866W        W30192  15.982  19.971  10.781
57867W        W30193  24.155  30.098  13.857
57868W        W30194  17.306  37.591   1.724
57869W        W30195  35.241  14.181   1.338
57870W        W30196  35.928   2.073   3.387
57871W        W30197  35.039  20.236  13.667
57872W        W30198  30.154  30.154  12.128
57873W        W30199  39.652  17.544   0.535
57874W        W30200  42.411  14.805   4.669
57875W        W30201   7.214  16.519   2.645
57876W        W30202  35.161   7.334  13.045
57877W        W30203  16.568  26.780   2.282
57878W        W30204  44.456  38.842  11.495
57879W        W30205   2.650  16.245  11.685
57880W        W30206  34.009  25.725  10.695
57881W        W30207  29.102   1.714  13.587
57882W        W30208  36.751  13.013   5.078
57883W        W30209  29.082   5.633   1.467
57884W        W30210  27.103  21.047   0.847
57885W        W30211  39.129  11.113   3.290
57886W        W30212  42.901  43.475   0.829
57887W        W30213  27.956  21.097  11.221
57888W        W30214  23.786  38.310  14.040
57889W        W30215  41.443  20.947  14.800
57890W        W30216  34.117   5.234   1.783
57891W        W30217  18.757   4.708   1.773
57892W        W30218   0.491  23.002   3.283
57893W        W30219  19.710  10.393  12.663
57894W        W30220  38.302   4.442  10.472
57895W        W30221  20.646  10.387  10.444
57896W        W30222   9.609  37.379   4.710
57897W        W30223  33.804  34.637   3.241
57898W        W30224  15.213  41.033   4.569
57899W        W30225  34.014   7.331   3.570
57900W        W30226  40.029  20.096  14.721
57901W        W30227  14.262  32.124   0.265
57902W        W30228  12.016   2.231  14.970
57903W        W30229  34.570  13.252   4.847
57904W        W30230  43.301  36.601  12.986
57905W        W30231  44.782   8.859  10.654
57906W        W30232  13.374  20.053  11.871
57907W        W30233  21.534  25.473   1.961
57908W        W30234   9.716   0.035   1.642
57909W        W30235  33.492  28.684   4.668
57910W        W30236   8.449  33.130  11.579
57911W        W30237  35.893  32.915  10.515
57912W        W30238  11.367  39.059  14.016
57913W        W30239  24.969   4.232  12.966
57914W        W30240  40.295  36.323  12.405
57915W        W30241  34.316  34.650   3.280
57916W        W30242  11.198  17.083  10.321
57917W        W30243  38.914  33.942   0.257
57918W        W30244  34.485   4.049  13.078
57919W        W30245  24.939  32.193   3.281
57920W        W30246  10.730  28.424  13.012
57921W        W30247  19.747   4.024  11.107
57922W        W30248   1.691  44.985   2.252
57923W        W30249  24.277  11.114   3.787
57924W        W30250   4.018   0.090   4.624
57925W        W30251  26.226  30.978   3.812
57926W        W30252   1.181  19.666   4.609
57927W        W30253  35.303  34.024   3.762
57928W        W30254   5.315  21.657   4.650
57929W        W30255  16.353  20.193  13.150
57930W        W30256   2.418  23.684   0.443
57931W        W30257   6.380   2.219   1.788
57932W        W30258  42.985  44.175   1.637
57933W        W30259  38.168  37.645  11.080
57934W        W30260  42.814  35.483  14.497
57935W        W30261  44.926  24.729   3.398
57936W        W30262   2.338  37.118   0.711
57937W        W30263  36.909  38.620  12.842
57938W        W30264   7.904  34.779  13.264
57939W        W30265  23.064  34.358   0.282
57940W        W30266  25.089  41.840  14.570
57941W        W30267  39.951  39.253  10.450
57942W        W30268   4.836  40.808   0.326
57943W        W30269  18.243   4.987  12.025
57944W        W30270  13.763  21.615  10.577
57945W        W30271  21.746   4.800  12.680
57946W        W30272  44.904  17.040  13.394
57947W        W30273  24.901  15.219  13.459
57948W        W30274  19.151   0.542   2.981
57949W        W30275  44.915   2.912  13.489
57950W        W30276  36.224   0.503  14.638
57951W        W30277  15.643   5.320   3.100
57952W        W30278  20.397  12.892   2.291
57953W        W30279   1.363  44.996   0.942
57954W        W30280  25.402  19.621  14.999
57955W        W30281   2.418  19.731   5.241
57956W        W30282  39.318   8.374   4.864
57957W        W30283   0.307   7.735  12.637
57958W        W30284   9.905  35.494   4.772
57959W        W30285   5.134  32.846   1.414
57960W        W30286  38.294  11.366   1.854
57961W        W30287  18.087  28.918  14.837
57962W        W30288  28.591   7.751   1.868
57963W        W30289  29.013   5.857   4.123
57964W        W30290  12.431  35.442   2.199
57965W        W30291  27.710  22.512  14.943
57966W        W30292  31.408   6.310   3.889
57967W        W30293  24.654  16.798  11.508
57968W        W30294   6.564  26.652  12.084
57969W        W30295   6.395  36.367  10.852
57970W        W30296  38.855  30.502   1.052
57971W        W30297  10.785  19.243  11.131
57972W        W30298  32.481  25.442   2.250
57973W        W30299  20.477   7.154  14.400
57974W        W30300  34.998   6.225   2.727
57975W        W30301  31.356  18.752   0.316
57976W        W30302   0.849  39.879  14.737
57977W        W30303   3.964   5.330   3.751
57978W        W30304  37.680   4.256   0.618
57979W        W30305   6.719   3.012  13.994
57980W        W30306  20.430  25.127  12.451
57981W        W30307  27.182  29.958   0.708
57982W        W30308  20.287   0.520   2.255
57983W        W30309  30.197  39.026  12.865
57984W        W30310  39.354  32.073   0.625
57985W        W30311  30.043  32.057   2.364
57986W        W30312  17.087  31.606  12.675
57987W        W30313   5.395  13.208  11.636
57988W        W30314  30.594   3.781   1.536
57989W        W30315  40.071  32.441   4.224
57990W        W30316   7.079  42.456  11.721
57991W        W30317  22.410   2.319   4.133
57992W        W30318  10.108  20.469  12.314
57993W        W30319  38.517  20.369  12.227
57994W        W30320  36.645  42.020   0.374
57995W        W30321  35.420  43.853   2.827
57996W        W30322  36.351  35.808   2.833
57997W        W30323  37.571  21.080   5.237
57998W        W30324  31.669  39.940   0.832
57999W        W30325  29.882  32.935   1.826
58000W        W30326   0.640  23.197  14.194
58001W        W30327   6.695  13.805   1.877
58002W        W30328  33.748  38.081   2.925
58003W        W30329  24.715  25.762   1.022
58004W        W30330  37.473  19.809   4.665
58005W        W30331  21.031  36.535  14.414
58006W        W30332  13.030   3.743   1.325
58007W        W30333  33.663   0.284   3.810
58008W        W30334  35.799  30.360  11.137
58009W        W30335  29.210  38.886  14.848
58010W        W30336  42.408  35.241   3.677
58011W        W30337  28.129  37.877   3.822
58012W        W30338  11.867  17.010   4.189
58013W        W30339  38.051  25.408   3.799
58014W        W30340  35.903  22.815   4.566
58015W        W30341  31.913  40.601   3.922
58016W        W30342  19.456  35.603  14.385
58017W        W30343  26.334  24.205   0.868
58018W        W30344  22.012  35.092   2.411
58019W        W30345   4.848  10.340  13.114
58020W        W30346  36.330  24.452   2.285
58021W        W30347   0.337  38.835   0.477
58022W        W30348  22.136  18.832  12.515
58023W        W30349  11.594   2.479  14.770
58024W        W30350  36.534  30.122  14.203
58025W        W30351  24.131  35.818   3.859
58026W        W30352   8.409  36.911  13.334
58027W        W30353  43.090  34.394  11.480
58028W        W30354   5.876  28.245  11.179
58029W        W30355  39.004  36.815  12.621
58030W        W30356  40.441  10.402  10.691
58031W        W30357  27.990  27.062   2.712
58032W        W30358  15.142   9.964   3.207
58033W        W30359  40.291  44.768   1.926
58034W        W30360   7.671  34.618   3.193
58035W        W30361   6.445  44.880   0.562
58036W        W30362   2.261   5.562   4.142
58037W        W30363  29.516  27.038   3.137
58038W        W30364   5.007  10.913  12.118
58039W        W30365  30.375  25.946   0.772
58040W        W30366  10.020  31.822   0.376
58041W        W30367  11.599  37.087  14.255
58042W        W30368  20.832  21.807  13.037
58043W        W30369  21.547   8.405   0.510
58044W        W30370  27.184  10.914   3.340
58045W        W30371  44.292  12.051   2.644
58046W        W30372  43.290  34.895   4.315
58047W        W30373  37.307   7.240   1.287
58048W        W30374  22.985  40.997   4.723
58049W        W30375   4.365  43.510   2.876
58050W        W30376  42.949  44.377  12.081
58051W        W30377  34.522  38.980  13.625
58052W        W30378  34.072  36.837   1.343
58053W        W30379  23.874   2.019   4.825
58054W        W30380  15.565  24.497   2.200
58055W        W30381  22.153   6.374  10.308
58056W        W30382  14.020  34.541  10.719
58057W        W30383   6.866  42.916   4.772
58058W        W30384  42.505  26.037  13.992
58059W        W30385  14.069  41.911   0.722
58060W        W30386   6.964  15.838   1.548
58061W        W30387  38.985  19.788  14.327
58062W        W30388   2.765  36.830   3.711
58063W        W30389  36.956  28.607  14.008
58064W        W30390  33.934  33.471   3.715
58065W        W30391   2.398  40.116   4.197
58066W        W30392  18.967   6.869   0.444
58067W        W30393  17.486  12.053   9.877
58068W        W30394  22.452  22.500   4.140
58069W        W30395  26.928  37.342  11.194
58070W        W30396  17.686   0.146  14.792
58071W        W30397   5.798  29.009   0.707
58072W        W30398  38.686  19.611   5.121
58073W        W30399  22.717  40.209   0.997
58074W        W30400   6.170   7.219   0.080
58075W        W30401  24.507  19.241  14.803
58076W        W30402  15.058  39.899   0.073
58077W        W30403   2.493  34.442  10.625
58078W        W30404   4.814   3.680   3.573
58079W        W30405  31.141  31.587   3.148
58080W        W30406  30.608  10.285   3.629
58081W        W30407  13.259  17.150   1.167
58082W        W30408   7.693  18.754  10.554
58083W        W30409  20.543  30.102   4.527
58084W        W30410  38.861  24.734   0.930
58085W        W30411   6.274  14.771  12.244
58086W        W30412   7.375  39.431  11.933
58087W        W30413  15.489  41.747  10.611
58088W        W30414   9.205  18.626   4.880
58089W        W30415   6.776  23.715  13.889
58090W        W30416  27.115   2.782  12.435
58091W        W30417  25.635   4.430   2.846
58092W        W30418  25.698  39.621   3.330
58093W        W30419  39.297  23.154  12.682
58094W        W30420  20.613  27.714  13.647
58095W        W30421   6.171   0.434  12.152
58096W        W30422  13.167   8.703   5.128
58097W        W30423  32.600  11.145  11.175
58098W        W30424   3.522  11.894  13.781
58099W        W30425  35.091  25.033  14.705
58100W        W30426  28.422  32.839   1.941
58101W        W30427  44.919  13.435   0.840
58102W        W30428  17.704  42.760   3.786
58103W        W30429  39.734  33.833   1.731
58104W        W30430   9.172  27.556  13.906
58105W        W30431  37.937  16.314   1.779
58106W        W30432  23.147  37.627   2.824
58107W        W30433   4.884  37.491  13.490
58108W        W30434  36.508  19.966  13.878
58109W        W30435   9.629   4.934   2.883
58110W        W30436  21.957  17.613   2.720
58111W        W30437   8.389  38.455  11.574
58112W        W30438   5.697   9.361  14.903
58113W        W30439  14.771  32.464   4.650
58114W        W30440   3.916   0.233  14.823
58115W        W30441  19.296  14.227   2.857
58116W        W30442  27.787   6.217   4.043
58117W        W30443  10.578   2.299  11.267
58118W        W30444  15.914  39.487   0.049
58119W        W30445   5.414  11.155  13.091
58120W        W30446  44.994  38.795   4.577
58121W        W30447  20.130  25.284  10.774
58122W        W30448  28.573  13.715   0.982
58123W        W30449  42.416   2.679  13.119
58124W        W30450  25.482  40.937  14.219
58125W        W30451  35.383  14.788  13.282
58126W        W30452   2.153  42.600  12.984
58127W        W30453   4.862  43.312  13.219
58128W        W30454  16.610   4.702  10.353
58129W        W30455  40.998  10.981   2.324
58130W        W30456  29.188   9.327   0.762
58131W        W30457  15.749  41.550  11.905
58132W        W30458  34.939   5.343   3.297
58133W        W30459  19.552  18.166  13.438
58134W        W30460  43.603  14.280  12.379
58135W        W30461  34.081   0.022  12.453
58136W        W30462   8.403   0.596   1.508
58137W        W30463  21.669  17.548   1.281
58138W        W30464  34.992   7.709  13.784
58139W        W30465   8.902   4.737  11.556
58140W        W30466  17.732  29.632   3.186
58141W        W30467   8.708  33.932   4.452
58142W        W30468  37.345  30.951  13.604
58143W        W30469  36.871  22.591   4.871
58144W        W30470   5.244  40.680  13.908
58145W        W30471  10.205  13.208   3.562
58146W        W30472  42.763  43.238   1.814
58147W        W30473  15.982   3.464  14.256
58148W        W30474  29.916  43.742   1.681
58149W        W30475   1.980  32.359   0.461
58150W        W30476  25.966  33.009  14.026
58151W        W30477  15.639   4.175   1.712
58152W        W30478  12.234   8.621   2.354
58153W        W30479  39.024  14.064  12.900
58154W        W30480  25.249  21.509   0.427
58155W        W30481  19.327  34.130  12.067
58156W        W30482  23.106  37.064  11.723
58157W        W30483  11.750  42.742  13.548
58158W        W30484  44.278  30.485   4.945
58159W        W30485  43.979  24.638  14.475
58160W        W30486  16.475  11.980   4.234
58161W        W30487   3.790   5.688  14.919
58162W        W30488  36.539  38.408   3.605
58163W        W30489  39.737  25.618  13.911
58164W        W30490  31.564   7.308   2.834
58165W        W30491  32.231   6.905  10.734
58166W        W30492  28.699  44.711  12.819
58167W        W30493  32.707  19.729   2.758
58168W        W30494  10.826  18.291  14.969
58169W        W30495  30.486   4.973   3.170
58170W        W30496  19.316  39.736  13.978
58171W        W30497  23.644  16.852   4.092
58172W        W30498  19.636   0.758   0.926
58173W        W30499   4.826  21.201  13.285
58174W        W30500   8.216  28.176   1.365
58175W        W30501   4.801   7.987   1.886
58176W        W30502  33.406  23.092  13.361
58177W        W30503  23.209  10.411   3.885
58178W        W30504   6.765  32.685   1.725
58179W        W30505  44.741  15.732  11.017
58180W        W30506  26.880  17.080  11.897
58181W        W30507  27.566  27.119   4.262
58182W        W30508  36.343  14.396  11.930
58183W        W30509  15.290  39.999   0.505
58184W        W30510  39.268   0.844   2.929
58185W        W30511  28.629  26.960   2.204
58186W        W30512  11.477   8.108   3.182
58187W        W30513   8.958  19.229  14.967
58188W        W30514  33.459  32.598   3.790
58189W        W30515  42.946  32.978   2.239
58190W        W30516  16.578   3.196  12.509
58191W        W30517  19.510  40.199  11.541
58192W        W30518   6.726  28.852  12.590
58193W        W30519  40.418  40.289  10.325
58194W        W30520  16.127  21.030  11.935
58195W        W30521  34.326  31.672   2.394
58196W        W30522   2.378  37.504  12.056
58197W        W30523  26.672  30.344  12.972
58198W        W30524  27.089  28.985  14.866
58199W        W30525  31.684  43.971   1.188
58200W        W30526  42.201   7.399  13.574
58201W        W30527  25.671  42.110  11.608
58202W        W30528  11.721  40.348  14.427
58203W        W30529  40.031  13.244  12.837
58204W        W30530  42.874  44.284  11.547
58205W        W30531  35.298  30.229  14.436
58206W        W30532   9.719  31.139   4.103
58207W        W30533  16.652   5.506   4.589
58208W        W30534   5.506  19.947   3.260
58209W        W30535   4.221  22.973  12.753
58210W        W30536  25.520  17.848   2.183
58211W        W30537   4.420   5.238   1.759
58212W        W30538  30.454  27.550  13.414
58213W        W30539   9.097  36.287  11.376
58214W        W30540  43.344  40.803  11.245
58215W        W30541  40.027  10.573   3.232
58216W        W30542  44.779  17.191   2.229
58217W        W30543  37.945  25.571   4.351
58218W        W30544  34.426  39.064   1.929
58219W        W30545   8.666   9.026  10.769
58220W        W30546  11.386   5.892   1.809
58221W        W30547  29.431  10.675  13.357
58222W        W30548  34.924  15.773  15.000
58223W        W30549  20.565  22.610  11.176
58224W        W30550  37.601  31.762   2.413
58225W        W30551  15.032  44.402  13.880
58226W        W30552  22.049  10.802   4.087
58227W        W30553  26.122  39.701  13.271
58228W        W30554  34.473  22.153   2.407
58229W        W30555  39.854  15.895   0.969
58230W        W30556  41.438  36.088  11.930
58231W        W30557  20.029  27.819  12.543
58232W        W30558   9.206  26.645   2.632
58233W        W30559  18.705  21.835  10.735
58234W        W30560  16.686  31.712   0.195
58235W        W30561  42.339  30.114  10.490
58236W        W30562   1.067  22.929   4.825
58237W        W30563  28.490  31.190   0.358
58238W        W30564  13.178  11.367  11.491
58239W        W30565  26.469  41.608  14.766
58240W        W30566   5.480  10.436   3.435
58241W        W30567  41.310   9.889   3.368
58242W        W30568  21.938  30.899  12.015
58243W        W30569   1.865   2.232   2.621
58244W        W30570  23.531  18.669  10.273
58245W        W30571  34.885  12.657   0.331
58246W        W30572  41.056  40.315  14.065
58247W        W30573   9.695  15.510   1.945
58248W        W30574  34.956   4.203  14.362
58249W        W30575  30.864  16.124  11.067
58250W        W30576  44.195  16.119  11.533
58251W        W30577  29.130  42.753  13.563
58252W        W30578  36.330  41.767   0.751
58253W        W30579  14.741   1.255   1.538
58254W        W30580  24.128   7.889   1.332
58255W        W30581  30.702  25.169  12.430
58256W        W30582  40.278  17.263  14.744
58257W        W30583  29.235   7.853   2.373
58258W        W30584  16.791  11.571  12.852
58259W        W30585  41.777  33.317  13.362
58260W        W30586   4.698   5.298  12.460
58261W        W30587  29.491  42.660   4.564
58262W        W30588  28.075  35.371   2.419
58263W        W30589  19.230   9.246   3.023
58264W        W30590  37.546   1.971   2.707
58265W        W30591   4.694  23.172  12.767
58266W        W30592   9.670  10.451  12.090
58267W        W30593  25.287  43.362  11.114
58268W        W30594  17.193   1.726   0.529
58269W        W30595  23.504   3.970   2.867
58270W        W30596  39.912  38.935   4.036
58271W        W30597  29.590  24.989  12.590
58272W        W30598  24.746  34.381   1.274
58273W        W30599  28.379   0.296   4.478
58274W        W30600   3.855  23.009   3.169
58275W        W30601  12.307  23.603   3.782
58276W        W30602  10.244  43.337  10.754
58277W        W30603  29.963  21.699   0.352
58278W        W30604  31.793  29.171  14.183
58279W        W30605  27.385  21.085  10.673
58280W        W30606  23.596  24.746   3.218
58281W        W30607  34.418  13.703  14.653
58282W        W30608   1.501  21.707   5.564
58283W        W30609   1.673  16.686  12.646
58284W        W30610  15.191  43.884  13.889
58285W        W30611  30.401   1.743   3.261
58286W        W30612  22.043  23.653  11.112
58287W        W30613  42.031  41.392  10.331
58288W        W30614  35.835  28.949  12.614
58289W        W30615   3.388  16.665  10.126
58290W        W30616  19.009  25.350   0.745
58291W        W30617  23.328   1.410   2.206
58292W        W30618  13.982  23.616  14.759
58293W        W30619  20.301  36.881  13.143
58294W        W30620   9.634  16.184   3.170
58295W        W30621  36.230  24.608   4.577
58296W        W30622  29.736  33.572   0.777
58297W        W30623  28.516  21.473   1.380
58298W        W30624  26.030  24.117  13.487
58299W        W30625  13.647  42.274   0.292
58300W        W30626  41.824  25.406   0.371
58301W        W30627   9.732  19.529  12.111
58302W        W30628  38.295  41.418  10.445
58303W        W30629  12.437  21.227  13.765
58304W        W30630  37.561  38.427   4.313
58305W        W30631  22.239  10.771   4.570
58306W        W30632  16.006   4.671  13.857
58307W        W30633  19.145  42.072  13.833
58308W        W30634  18.866   1.761   3.757
58309W        W30635  16.752  17.075   3.827
58310W        W30636  12.867  11.491  13.928
58311W        W30637   3.207  37.560  13.572
58312W        W30638  31.031  37.473  11.391
58313W        W30639  13.426   0.977   1.999
58314W        W30640   2.205   3.925   2.943
58315W        W30641  23.582  26.570   4.032
58316W        W30642  11.440  10.592  11.474
58317W        W30643  36.418  27.886  13.405
58318W        W30644  42.786  23.765   3.146
58319W        W30645  27.083  26.629   3.236
58320W        W30646  36.100  28.723  14.861
58321W        W30647  18.278   0.830  11.102
58322W        W30648  40.485   8.381  14.847
58323W        W30649   8.832   5.790   3.191
58324W        W30650   3.704  37.670   1.662
58325W        W30651   8.844  18.767  14.712
58326W        W30652  21.796  14.853   1.283
58327W        W30653  22.700  40.157   1.989
58328W        W30654  39.092  38.941   0.311
58329W        W30655  35.869   2.899   3.686
58330W        W30656  18.266  21.267   3.203
58331W        W30657   3.779  15.100   2.000
58332W        W30658  36.588   3.877   1.471
58333W        W30659  21.193   9.784  12.416
58334W        W30660   4.893  20.323   3.176
58335W        W30661   7.203   5.882   4.433
58336W        W30662  24.412  44.926  13.563
58337W        W30663  35.290  43.730   3.309
58338W        W30664  10.392  26.156   2.325
58339W        W30665  36.634  32.091  12.469
58340W        W30666  38.973  23.217  13.293
58341W        W30667  11.858  24.699  14.494
58342W        W30668  19.618  40.466  15.000
58343W        W30669   4.179  24.602  12.089
58344W        W30670  17.284  30.435  13.621
58345W        W30671  11.549  38.079   0.238
58346W        W30672  16.755   1.263  11.107
58347W        W30673  34.660   6.229   0.915
58348W        W30674  26.208  31.160   1.384
58349W        W30675  44.648  36.627  12.974
58350W        W30676  17.741  12.843   4.261
58351W        W30677  41.464  18.192   1.175
58352W        W30678   5.173  37.099  12.085
58353W        W30679  12.417  43.790  11.523
58354W        W30680   0.381  26.596  12.442
58355W        W30681  42.004  18.052   4.392
58356W        W30682  25.028  13.835  13.947
58357W        W30683  21.261  29.448  12.468
58358W        W30684  28.471  31.430   4.227
58359W        W30685  42.131  13.998   0.417
58360W        W30686  14.265  15.708   4.607
58361W        W30687  21.991  24.996   0.804
58362W        W30688  16.227   5.628   3.265
58363W        W30689   7.594  16.673   4.257
58364W        W30690  41.043  36.477   0.407
58365W        W30691  25.204  10.220   2.905
58366W        W30692  15.169   5.279   2.151
58367W        W30693   5.849   7.353  14.263
58368W        W30694  37.935  42.830  13.918
58369W        W30695  28.436  37.620   4.578
58370W        W30696   1.343  34.805   1.948
58371W        W30697  33.041  23.945  14.509
58372W        W30698  10.086   6.386   1.306
58373W        W30699  11.628  36.298  11.507
58374W        W30700   9.381  30.422  13.363
58375W        W30701  29.578  20.287  13.148
58376W        W30702   5.364  23.648   2.505
58377W        W30703  12.257   2.463   0.402
58378W        W30704  41.644  37.652  12.999
58379W        W30705  32.420  19.576  12.019
58380W        W30706  40.457  36.614  10.533
58381W        W30707  22.161  42.796   4.597
58382W        W30708   3.885  41.052  13.632
58383W        W30709  18.319   6.935  11.251
58384W        W30710  35.593  40.264   4.098
58385W        W30711   1.351  13.143   1.301
58386W        W30712   9.341  10.170  13.968
58387W        W30713  14.941   3.450  12.629
58388W        W30714  33.752  12.544  11.409
58389W        W30715  18.801  28.018  14.889
58390W        W30716  13.864  24.792   3.710
58391W        W30717  12.769   2.787   2.746
58392W        W30718   4.275  21.200   0.797
58393W        W30719  35.868  35.166   1.947
58394W        W30720  22.237  38.145  14.982
58395W        W30721  18.887  26.427  13.524
58396W        W30722   6.818  19.276   0.669
58397W        W30723  37.969  42.000   3.807
58398W        W30724  38.473   7.455   0.904
58399W        W30725  37.102   7.437  12.341
58400W        W30726  23.426  30.883   2.747
58401W        W30727  17.364   2.653   4.514
58402W        W30728  25.170   3.347  14.157
58403W        W30729  42.527  27.428   1.908
58404W        W30730  39.571  33.860   0.869
58405W        W30731  10.828  16.938   1.084
58406W        W30732  17.218  41.474   3.896
58407W        W30733  19.433  29.266   0.297
58408W        W30734  36.342  13.316   3.232
58409W        W30735  13.688  15.188  14.282
58410W        W30736  37.601   4.704  10.271
58411W        W30737  21.589  32.545  14.886
58412W        W30738  40.238  25.584   3.700
58413W        W30739   4.661  42.243   0.168
58414W        W30740   7.891  21.694  10.258
58415W        W30741  32.992   3.842  14.581
58416W        W30742  19.812  15.849   1.815
58417W        W30743  20.573   4.617  13.389
58418W        W30744  43.891  16.110  13.291
58419W        W30745  33.919  10.838   1.363
58420W        W30746  14.690   0.275   0.466
58421W        W30747  32.911  19.793   0.780
58422W        W30748  26.505  32.806   0.882
58423W        W30749   4.422   7.527  11.517
58424W        W30750   8.490  13.768  12.587
58425W        W30751  15.600   0.038  10.603
58426W        W30752  14.444  35.560   0.639
58427W        W30753   3.241  17.259  14.362
58428W        W30754   4.163  25.178   3.160
58429W        W30755  36.911  41.389   1.368
58430W        W30756  32.610  29.758  12.966
58431W        W30757   8.637  13.563  10.979
58432W        W30758  38.530  32.343   0.889
58433W        W30759   4.155  20.091  14.802
58434W        W30760  33.921  11.261  14.591
58435W        W30761  18.070   2.208  11.850
58436W        W30762   0.773  26.211   0.507
58437W        W30763  38.266  42.349  10.649
58438W        W30764  29.989  22.311   2.997
58439W        W30765  35.067  21.277  12.386
58440W        W30766  38.182  33.160  10.473
58441W        W30767  36.470  24.073   2.658
58442W        W30768  23.128  44.421   2.856
58443W        W30769  44.814  21.750   4.521
58444W        W30770   4.491  11.464  10.269
58445W        W30771  29.880  21.506   1.928
58446W        W30772   9.041   8.103   1.934
58447W        W30773  27.942  33.458  13.466
58448W        W30774  15.059  29.639  13.804
58449W        W30775  42.354  27.700   3.184
58450W        W30776  28.676   1.490   1.788
58451W        W30777  15.896  37.466   1.171
58452W        W30778  17.641  38.379   1.972
58453W        W30779  13.760   4.203   3.165
58454W        W30780  23.700   7.392  11.226
58455W        W30781  36.112   4.865  14.385
58456W        W30782  20.946  37.943   0.921
58457W        W30783  41.882  11.654   4.343
58458W        W30784  19.071   9.649  10.663
58459W        W30785  35.088  18.539  11.098
58460W        W30786  33.701  29.453  13.375
58461W        W30787   7.880   4.816  10.576
58462W        W30788   9.251  29.057   0.305
58463W        W30789  12.617  21.976  14.867
58464W        W30790  43.550  12.120  12.146
58465W        W30791   0.675  14.650   2.727
58466W        W30792   7.970   0.863  14.408
58467W        W30793  40.538   5.231  14.932
58468W        W30794  11.608  25.648   2.168
58469W        W30795  41.826  35.874   2.040
58470W        W30796  24.481  31.475   3.737
58471W        W30797  27.604  34.460   1.916
58472W        W30798  18.160  18.298   3.680
58473W        W30799  11.817  34.795  11.870
58474W        W30800  39.134  42.784   2.277
58475W        W30801  31.449  38.026  10.408
58476W        W30802  24.929  35.944  12.510
58477W        W30803  38.529  22.746  13.994
58478W        W30804  30.974  38.459  13.999
58479W        W30805  30.197  36.027  10.781
58480W        W30806  13.816   9.791   3.870
58481W        W30807  40.903  43.268   3.141
58482W        W30808  10.833   2.102   3.310
58483W        W30809  16.669  17.655   4.225
58484W        W30810  30.465  13.250   2.518
58485W        W30811  35.026  24.965  12.521
58486W        W30812  16.880  35.719   9.905
58487W        W30813  17.184  35.903  11.197
58488W        W30814  35.913  25.581   2.074
58489W        W30815  23.571  15.134  12.449
58490W        W30816   6.901  16.294   1.791
58491W        W30817  43.732   7.341  14.025
58492W        W30818  33.016  31.607  12.608
58493W        W30819  31.989   3.863   4.694
58494W        W30820  11.272   4.462   3.460
58495W        W30821  25.821  35.671   1.925
58496W        W30822  11.631  16.720  10.676
58497W        W30823  39.256  12.813  14.515
58498W        W30824   2.967  15.334   1.347
58499W        W30825  27.913   4.386  11.415
58500W        W30826  32.161  35.896  14.195
58501W        W30827  43.764  12.137   0.901
58502W        W30828  33.453   5.130   3.064
58503W        W30829  34.367  21.642  11.950
58504W        W30830  10.177  40.818   3.617
58505W        W30831  31.085  34.192   1.382
58506W        W30832  19.685  30.611   3.754
58507W        W30833   6.341   4.728  10.482
58508W        W30834  18.626  33.575   2.671
58509W        W30835  41.644  20.220  11.425
58510W        W30836  38.117  28.936   0.730
58511W        W30837  25.014  18.021   2.904
58512W        W30838   1.291   4.866  13.418
58513W        W30839  21.182  26.311   4.225
58514W        W30840  29.449   8.704   1.306
58515W        W30841  11.290  18.593  14.440
58516W        W30842  14.780  25.018  14.471
58517W        W30843  29.002  37.997  14.320
58518W        W30844  40.907  26.050  11.929
58519W        W30845  36.326  10.845   4.672
58520W        W30846  16.632  37.095  13.105
58521W        W30847  42.485  32.020  11.129
58522W        W30848  23.121  22.305  10.751
58523W        W30849  20.219  11.590  12.481
58524W        W30850   5.308  18.619   3.630
58525W        W30851  39.528  36.293  14.403
58526W        W30852  44.557  14.770  14.822
58527W        W30853   8.337   5.479   0.795
58528W        W30854  29.878  35.480   3.676
58529W        W30855  16.922   4.834  14.960
58530W        W30856  30.458  16.106   2.373
58531W        W30857  28.519  30.209  13.227
58532W        W30858  41.974  22.030  13.411
58533W        W30859  16.822  20.216   2.673
58534W        W30860  38.380  21.250   1.389
58535W        W30861   1.413  44.046  13.480
58536W        W30862  40.117  36.424   0.224
58537W        W30863  27.541  26.532   0.177
58538W        W30864   8.283  36.210  10.900
58539W        W30865  15.125  29.530   0.833
58540W        W30866  42.818  14.186   0.827
58541W        W30867   0.144  18.972  11.886
58542W        W30868  24.968  20.090   4.050
58543W        W30869   4.343  11.415   0.551
58544W        W30870   0.724  11.218  11.595
58545W        W30871  39.502  28.943   1.528
58546W        W30872  14.264  25.396   0.988
58547W        W30873   3.500   2.892   2.827
58548W        W30874  28.445  35.589   0.348
58549W        W30875  25.045  20.740  11.992
58550W        W30876  27.449  43.253   0.997
58551W        W30877  36.130  43.423  11.489
58552W        W30878  40.755   7.480  14.408
58553W        W30879  27.899  12.808  12.805
58554W        W30880  24.143  17.496   3.495
58555W        W30881  17.171  26.213  11.632
58556W        W30882  44.638  30.884  11.647
58557W        W30883  35.075  31.951  11.867
58558W        W30884   5.423  38.762   9.930
58559W        W30885  21.646  26.710   2.702
58560W        W30886   7.037  37.881   1.913
58561W        W30887   4.008  14.779  13.965
58562W        W30888  43.461  36.579   3.340
58563W        W30889  29.675  43.027  12.918
58564W        W30890  14.004  26.243   9.705
58565W        W30891  22.695  28.367  13.534
58566W        W30892  22.820   0.425  14.837
58567W        W30893  10.477   6.304   5.186
58568W        W30894  17.283   8.489   1.777
58569W        W30895  10.516  16.892   2.331
58570W        W30896   9.912   6.287   0.787
58571W        W30897  10.435  27.688  13.768
58572W        W30898  21.042  31.406   1.165
58573W        W30899  42.296   6.803   3.205
58574W        W30900  37.125  21.536  11.225
58575W        W30901   9.184  18.442  14.441
58576W        W30902  18.126  43.041   1.717
58577W        W30903  28.071  11.747  13.701
58578W        W30904   4.325  32.649   0.612
58579W        W30905  28.631  19.849   2.417
58580W        W30906  37.823  31.769   3.424
58581W        W30907  16.838   9.844   0.353
58582W        W30908  35.330  15.520   4.641
58583W        W30909   5.187   9.158  11.650
58584W        W30910  37.388  28.065  13.402
58585W        W30911  16.644  32.806   1.882
58586W        W30912  37.447  13.771   2.855
58587W        W30913   9.849  11.370  14.004
58588W        W30914  41.270  31.603  12.054
58589W        W30915   3.772  36.684   1.698
58590W        W30916  36.848  15.106   4.562
58591W        W30917  30.912  30.067  13.556
58592W        W30918  37.233  27.861  11.155
58593W        W30919  21.523  17.204  13.085
58594W        W30920  18.359  40.071  13.312
58595W        W30921  35.078  12.692  12.961
58596W        W30922  11.961  25.099  14.888
58597W        W30923  26.416  15.643   1.839
58598W        W30924  38.488  24.574  14.222
58599W        W30925   5.284  29.605  11.462
58600W        W30926  17.754  19.351   1.959
58601W        W30927  38.328  18.745   0.098
58602W        W30928  13.568   7.149  11.552
58603W        W30929  18.362  26.029  13.897
58604W        W30930  21.229  16.287  12.185
58605W        W30931  38.321  24.177  14.927
58606W        W30932  20.687  33.985  14.494
58607W        W30933   7.139  43.020  13.943
58608W        W30934  43.726  43.464   1.228
58609W        W30935  38.206  29.303  11.024
58610W        W30936   8.454  18.042   2.241
58611W        W30937   5.428   8.129   0.818
58612W        W30938  15.758   4.260  14.775
58613W        W30939   3.659  12.173   0.862
58614W        W30940  26.244  12.635  11.467
58615W        W30941  29.207  30.018   2.433
58616W        W30942   1.558  14.209   2.617
58617W        W30943   6.882  14.845   4.632
58618W        W30944  14.994  29.376  11.914
58619W        W30945  23.003  43.559  10.825
58620W        W30946  38.717  37.487   1.892
58621W        W30947   8.722  13.314   2.270
58622W        W30948  27.700   2.336  14.863
58623W        W30949   2.654   8.191  11.021
58624W        W30950  32.507  15.079   0.820
58625W        W30951   1.294  20.246   4.510
58626W        W30952  38.320  43.377  14.461
58627W        W30953  25.187  35.983   3.709
58628W        W30954   7.332  44.869  11.488
58629W        W30955  38.614  15.942   1.289
58630W        W30956  12.655  44.991  12.025
58631W        W30957   0.732  23.893  13.081
58632W        W30958  42.434  11.770  14.021
58633W        W30959  31.722  12.463   3.755
58634W        W30960  15.563  23.744  14.774
58635W        W30961  43.784  37.161   2.368
58636W        W30962  37.408   2.311  11.098
58637W        W30963  36.003  10.854  11.967
58638W        W30964  18.750   3.159  12.434
58639W        W30965  41.103  37.120   3.598
58640W        W30966  24.567  25.253   0.963
58641W        W30967  43.893  21.499   1.352
58642W        W30968  24.410   2.922   2.785
58643W        W30969  10.367  36.117   3.879
58644W        W30970  30.977  34.280   2.330
58645W        W30971  20.456  43.851   1.248
58646W        W30972  29.137  16.718  11.552
58647W        W30973  30.896   6.763   0.403
58648W        W30974  42.343   7.258  10.716
58649W        W30975   2.670   5.982  14.143
58650W        W30976   5.029  17.292  12.433
58651W        W30977   1.180  14.925  12.626
58652W        W30978  10.855  29.559  12.637
58653W        W30979  36.922   4.326  14.523
58654W        W30980  33.246  40.321  10.258
58655W        W30981  17.280  25.570  13.418
58656W        W30982  35.886  41.481  12.474
58657W        W30983   4.475  26.073   2.169
58658W        W30984  21.641  21.316   4.592
58659W        W30985   2.725   0.308   4.572
58660W        W30986  40.990  34.419  12.360
58661W        W30987  32.210   5.635   0.362
58662W        W30988  11.154   6.608  12.938
58663W        W30989  18.848  35.405   2.924
58664W        W30990   3.488   0.542  14.952
58665W        W30991   6.190   5.221   4.051
58666W        W30992   4.515   9.733  11.087
58667W        W30993  12.931  39.659   1.143
58668W        W30994  22.596  31.559   4.262
58669W        W30995  27.628  25.439   0.009
58670W        W30996  14.756  29.239   2.837
58671W        W30997  10.835  23.107   0.460
58672W        W30998  23.672  44.421   2.871
58673W        W30999  24.568  24.246   0.835
58674W        W31000  23.810  22.732   3.175
58675W        W31001   7.289  27.883  13.849
58676W        W31002  27.647  24.022  14.451
58677W        W31003  31.137  29.126  11.184
58678W        W31004  21.616   7.626  12.958
58679W        W31005  28.687  10.106   3.295
58680W        W31006  15.282  35.424   2.042
58681W        W31007  30.864  44.964   1.170
58682W        W31008  38.671  26.909   1.046
58683W        W31009   2.424   6.490  11.104
58684W        W31010  18.035  35.286   2.360
58685W        W31011  42.319   8.981  11.807
58686W        W31012  21.569  33.156   3.840
58687W        W31013  29.584   8.072   1.901
58688W        W31014  19.767   6.853   3.742
58689W        W31015  27.430  29.428   4.065
58690W        W31016  42.362  33.452   0.065
58691W        W31017  21.616   9.724   3.685
58692W        W31018  26.933   2.401  14.980
58693W        W31019  30.924  28.609  11.166
58694W        W31020  11.191  22.228   1.282
58695W        W31021  32.957  40.570  10.638
58696W        W31022   3.778  35.875  12.582
58697W        W31023  10.278  32.503   0.343
58698W        W31024   8.098   3.496  13.238
58699W        W31025  36.143  24.170   3.639
58700W        W31026  23.214  20.111   3.841
58701W        W31027  11.464  24.833  12.092
58702W        W31028   7.667  30.571  11.463
58703W        W31029  23.435   0.029   0.920
58704W        W31030  44.250  39.858   0.626
58705W        W31031  34.293  41.422  14.816
58706W        W31032  26.034  43.898  14.082
58707W        W31033  43.708  18.072   1.234
58708W        W31034   4.843  38.563   0.752
58709W        W31035  38.921   1.705   4.843
58710W        W31036  30.387  24.449  14.052
58711W        W31037  21.686  40.746  11.750
58712W        W31038  26.756  21.612   0.342
58713W        W31039   1.865   1.048   0.531
58714W        W31040  16.065  10.871  13.877
58715W        W31041  18.803   9.455   0.870
58716W        W31042   5.424  32.671  13.382
58717W        W31043   9.890  10.282  10.554
58718W        W31044  15.613  34.980   4.158
58719W        W31045  15.117  21.745  14.234
58720W        W31046  36.159  15.081   0.257
58721W        W31047  35.521  27.921   0.498
58722W        W31048  44.034  23.986   1.422
58723W        W31049  18.077   9.225  10.635
58724W        W31050  31.761  17.005   0.314
58725W        W31051  32.585  20.157  14.495
58726W        W31052   4.261  13.043   3.125
58727W        W31053  23.115  11.381  10.640
58728W        W31054   4.366  18.620   4.529
58729W        W31055   8.848  42.081   3.106
58730W        W31056  41.792  16.958   3.609
58731W        W31057   5.696  14.814   3.202
58732W        W31058   5.786  18.486  14.468
58733W        W31059  33.891   4.682   3.101
58734W        W31060   3.432  36.735   4.790
58735W        W31061  26.170  35.443   1.477
58736W        W31062   8.831  23.012   2.772
58737W        W31063  33.507  32.185  13.351
58738W        W31064   1.250  33.445  14.991
58739W        W31065  29.525  36.265   2.748
58740W        W31066  24.478   0.532   1.719
58741W        W31067  26.505  25.060  14.764
58742W        W31068  14.798   5.816  12.450
58743W        W31069  10.802   1.573   1.866
58744W        W31070  12.568  14.678  11.800
58745W        W31071   2.674  20.988   5.442
58746W        W31072  42.707  37.787   4.102
58747W        W31073  10.726   5.585  13.031
58748W        W31074  12.852  15.149  12.525
58749W        W31075  26.657  15.189   1.723
58750W        W31076  18.710  40.499  10.741
58751W        W31077  41.353  26.504   3.943
58752W        W31078   5.904   7.306  12.030
58753W        W31079  32.046   9.629  12.069
58754W        W31080  36.750   1.835  13.057
58755W        W31081  40.975  17.090  14.305
58756W        W31082  24.647  12.834  13.636
58757W        W31083  40.320  23.472  12.434
58758W        W31084  26.394  41.506   3.539
58759W        W31085  18.807  10.211  11.079
58760W        W31086  28.109  32.659  11.740
58761W        W31087  41.021  42.763   4.231
58762W        W31088  12.750   4.224  13.994
58763W        W31089  24.195   9.228   4.106
58764W        W31090  38.574   0.797  11.602
58765W        W31091  44.268  25.177   3.140
58766W        W31092  23.133  44.459  10.668
58767W        W31093   6.797   0.301  12.985
58768W        W31094   1.749  21.570   5.102
58769W        W31095   1.172   1.412   2.894
58770W        W31096  39.308  37.818  13.422
58771W        W31097  37.802  10.144  11.056
58772W        W31098   0.519  41.419   3.620
58773W        W31099  24.781  37.278   1.648
58774W        W31100  35.602  14.754   4.137
58775W        W31101   4.410  38.270   0.833
58776W        W31102  29.445  28.595   1.316
58777W        W31103   5.194   7.759  13.491
58778W        W31104   7.414  35.116   2.969
58779W        W31105  24.972  39.788  11.783
58780W        W31106  44.246  42.207   0.330
58781W        W31107  41.280  38.091  13.536
58782W        W31108  34.339  44.993   3.337
58783W        W31109   6.739   7.129  14.481
58784W        W31110  31.029  17.258   2.383
58785W        W31111  30.858  14.876  13.618
58786W        W31112  20.665  33.116   1.187
58787W        W31113  30.225  13.282  10.607
58788W        W31114  41.463  20.312  13.475
58789W        W31115  30.161  41.790  12.926
58790W        W31116   4.938  38.818  13.220
58791W        W31117  24.315  36.642  13.013
58792W        W31118  34.488  23.865   1.379
58793W        W31119  23.174  16.867   2.818
58794W        W31120  23.666  26.216   0.457
58795W        W31121  19.647  39.465   1.943
58796W        W31122   7.243  41.430   4.602
58797W        W31123  13.650  18.112   2.386
58798W        W31124  42.298  13.548   3.152
58799W        W31125  38.899   5.807   0.631
58800W        W31126  17.787   0.765   3.746
58801W        W31127  22.620   8.782   3.571
58802W        W31128   9.271  37.806  13.809
58803W        W31129   2.206   2.097   9.775
58804W        W31130   1.556  19.333  10.713
58805W        W31131  18.046   4.421   4.590
58806W        W31132  44.035  30.619  11.716
58807W        W31133  44.086  30.496  14.661
58808W        W31134   3.728  22.863  13.492
58809W        W31135  41.230   0.063  13.861
58810W        W31136  17.631  13.391   3.348
58811W        W31137  19.729  36.225  11.845
58812W        W31138  24.789  38.948  12.159
58813W        W31139   0.300  35.014  12.477
58814W        W31140  36.154  44.393  11.265
58815W        W31141  38.150  10.915  11.633
58816W        W31142   1.467  13.642  14.478
58817W        W31143  24.870  24.080  14.063
58818W        W31144  44.043  12.995  11.058
58819W        W31145  34.090  14.118  13.456
58820W        W31146  44.570  17.611   1.361
58821W        W31147  16.491  24.296  12.121
58822W        W31148  43.781  19.902  13.795
58823W        W31149  32.444  38.045   3.260
58824W        W31150  43.027  12.464   3.045
58825W        W31151  30.643   4.216   0.598
58826W        W31152   9.867  21.049  14.009
58827W        W31153  21.233   6.204  13.333
58828W        W31154  30.468   5.502  12.815
58829W        W31155  27.895  42.122  11.648
58830W        W31156  36.520  20.808  12.821
58831W        W31157  43.432  21.726   3.933
58832W        W31158   4.784   3.620  10.071
58833W        W31159  43.779   3.270   3.637
58834W        W31160  32.927  20.094  13.305
58835W        W31161  30.129  44.370  13.026
58836W        W31162  42.586   6.821  10.708
58837W        W31163  42.940  40.080  11.876
58838W        W31164  15.831  44.947  14.937
58839W        W31165  43.232   1.917   2.327
58840W        W31166   6.264  23.052  10.706
58841W        W31167  15.301  16.289  14.642
58842W        W31168  33.186  25.772  11.497
58843W        W31169  30.705  32.854  12.453
58844W        W31170  44.037  19.319  13.297
58845W        W31171   4.344  23.482   2.848
58846W        W31172  38.597  19.012  13.413
58847W        W31173  29.480  26.020   4.640
58848W        W31174  11.581  22.208  13.337
58849W        W31175  40.566  12.845   1.238
58850W        W31176  13.629  24.299  14.690
58851W        W31177  41.841  17.459   3.673
58852W        W31178  38.027  36.303   4.192
58853W        W31179  12.834   7.194   1.447
58854W        W31180  23.111  27.159  11.026
58855W        W31181  20.995  27.850   1.706
58856W        W31182  14.590  11.303   3.624
58857W        W31183  34.869  31.655  12.544
58858W        W31184   4.304  37.068  12.529
58859W        W31185  36.471  24.287   3.153
58860W        W31186  25.441  39.150  12.865
58861W        W31187  30.967  16.759  12.164
58862W        W31188  25.611  39.025   3.239
58863W        W31189  25.956  44.383  12.717
58864W        W31190  36.424  41.557   0.290
58865W        W31191   0.742   7.751   4.913
58866W        W31192  12.729  44.078  11.189
58867W        W31193   0.229  37.783   3.694
58868W        W31194   7.097  19.629  10.718
58869W        W31195  29.131  39.964   1.365
58870W        W31196  26.389  17.177  12.009
58871W        W31197  25.789  15.506   3.053
58872W        W31198   7.218  16.973  12.640
58873W        W31199  44.646  41.273  14.895
58874W        W31200  38.302  19.563   4.127
58875W        W31201  23.093  33.020   2.300
58876W        W31202  17.153  34.381  11.192
58877W        W31203  34.976  29.429  14.782
58878W        W31204  31.668  14.033  11.579
58879W        W31205  42.858  21.763  14.379
58880W        W31206  27.136  29.341   3.633
58881W        W31207  28.098  30.454   1.940
58882W        W31208  26.911  31.706  10.628
58883W        W31209  16.068  37.970  14.173
58884W        W31210  10.926  22.462   4.164
58885W        W31211  20.261  39.878   2.256
58886W        W31212   7.369  37.143   3.228
58887W        W31213  25.964  16.515   2.011
58888W        W31214  13.565   8.281   3.900
58889W        W31215  13.583  20.463   3.592
58890W        W31216  23.275  35.474  14.723
58891W        W31217  42.584   5.989   3.756
58892W        W31218  24.254   1.517  12.026
58893W        W31219  18.842  42.766  14.518
58894W        W31220  35.318  10.451   3.197
58895W        W31221  12.619  33.530  12.593
58896W        W31222  12.769  24.698   9.761
58897W        W31223   9.037  25.160   1.831
58898W        W31224  17.637  19.552  12.030
58899W        W31225  17.864  11.976  13.577
58900W        W31226   2.166  25.544  13.495
58901W        W31227  15.726  33.358   3.249
58902W        W31228  11.139   6.675   0.694
58903W        W31229  37.288  23.603   3.737
58904W        W31230   2.968  19.556   0.854
58905W        W31231  33.450   0.280  13.487
58906W        W31232  28.071  25.181   3.039
58907W        W31233  37.502  19.578   3.598
58908W        W31234  22.202  21.947  11.850
58909W        W31235  18.870  13.103   4.133
58910W        W31236  10.124   1.412  12.903
58911W        W31237  12.029  23.698  10.186
58912W        W31238  23.803  14.613  11.161
58913W        W31239  23.462  37.518   0.558
58914W        W31240   0.976  13.224  13.911
58915W        W31241  28.956  13.572  12.504
58916W        W31242  17.347  43.860  12.864
58917W        W31243   7.223   2.902  12.441
58918W        W31244   6.271   5.900   1.859
58919W        W31245  22.937  12.474   0.217
58920W        W31246  17.724  34.879  12.543
58921W        W31247   4.248  32.792   2.525
58922W        W31248   0.227  16.315   1.917
58923W        W31249  23.570  21.702   4.217
58924W        W31250  21.103  30.865  12.940
58925W        W31251   7.213   0.265  13.329
58926W        W31252  17.558  21.065  12.858
58927W        W31253   0.310  20.779   2.379
58928W        W31254   6.893  19.757   0.414
58929W        W31255  23.606  11.854  12.037
58930W        W31256  41.471  11.840   1.753
58931W        W31257   6.630   7.961   2.643
58932W        W31258  34.279   7.382  11.752
58933W        W31259  34.493  41.906  14.822
58934W        W31260   5.856  20.599   2.367
58935W        W31261  28.525  16.719   4.603
58936W        W31262  15.808  18.235  11.130
58937W        W31263   7.743  24.574   0.438
58938W        W31264  14.249  32.088   1.611
58939W        W31265   0.584  22.911  12.498
58940W        W31266  12.654   8.535   3.017
58941W        W31267  43.541   9.313   4.557
58942W        W31268   6.689  38.421   0.021
58943W        W31269  44.460  20.180  13.493
58944W        W31270  39.511  16.301   3.251
58945W        W31271  15.160  10.169   0.303
58946W        W31272   6.216  30.123   1.449
58947W        W31273  27.620  30.129   2.260
58948W        W31274  40.088  25.094   4.183
58949W        W31275  26.065  40.082  13.634
58950W        W31276   3.860   8.759   0.814
58951W        W31277  17.821   5.738   3.756
58952W        W31278  10.660   8.067  14.969
58953W        W31279  20.847  16.133  13.217
58954W        W31280  10.914  34.632   3.726
58955W        W31281  41.509  22.733  11.689
58956W        W31282  36.632  18.161   1.356
58957W        W31283  21.356  19.266   4.910
58958W        W31284  37.354  20.847  11.662
58959W        W31285  12.273  26.601  11.037
58960W        W31286   8.763  23.188   3.274
58961W        W31287   3.643  32.532   0.898
58962W        W31288  28.139  41.875  12.021
58963W        W31289  21.741  39.867  13.402
58964W        W31290  31.941   6.936  12.823
58965W        W31291  29.123   7.665  14.875
58966W        W31292  32.485  12.847   2.650
58967W        W31293   5.414  20.311   0.249
58968W        W31294   3.315  30.393   3.184
58969W        W31295  36.067  26.989  13.052
58970W        W31296   1.086  26.413   0.866
58971W        W31297  29.179  16.198   3.083
58972W        W31298  41.901  21.637   2.716
58973W        W31299  31.637  36.604   1.310
58974W        W31300  19.260  35.598  14.889
58975W        W31301  21.209  22.585  11.706
58976W        W31302  27.756   8.859   2.263
58977W        W31303  29.581   3.939  10.652
58978W        W31304  38.128  28.654   4.176
58979W        W31305  40.720  41.243  12.930
58980W        W31306  38.175  35.956   2.253
58981W        W31307  22.513  41.152   0.717
58982W        W31308   4.790  34.792  11.016
58983W        W31309   7.219  38.140  13.487
58984W        W31310  13.311  12.919   1.503
58985W        W31311  22.541   6.585  12.172
58986W        W31312  23.699  42.266   4.305
58987W        W31313   4.915  19.702  13.538
58988W        W31314  17.220  26.489  14.434
58989W        W31315  26.503  18.601  11.433
58990W        W31316  26.724  16.928   2.045
58991W        W31317   5.172  11.296  14.946
58992W        W31318   8.385  18.169   1.318
58993W        W31319  40.840  33.871   0.884
58994W        W31320   6.382  34.814  13.052
58995W        W31321  21.688   4.834   0.856
58996W        W31322  23.733  25.225   3.140
58997W        W31323  44.187  30.213  10.984
58998W        W31324  29.366  39.623  13.459
58999W        W31325  28.766  35.885   2.443
59000W        W31326  25.865  25.576  14.059
59001W        W31327  37.907  43.362   1.856
59002W        W31328   1.315  18.683   2.089
59003W        W31329   3.300  28.163  11.611
59004W        W31330  16.556  43.203  12.456
59005W        W31331  11.480  28.213  14.496
59006W        W31332  38.003   8.513  12.714
59007W        W31333  10.686  42.247   2.848
59008W        W31334  34.793  30.223  12.874
59009W        W31335   6.106  36.826  13.430
59010W        W31336  36.538   5.584  12.931
59011W        W31337  18.563  11.137  11.785
59012W        W31338  18.781  14.711  10.918
59013W        W31339  42.910  21.003  10.597
59014W        W31340  31.968  30.574   0.365
59015W        W31341  44.076  34.806  12.915
59016W        W31342  34.064  43.285   4.165
59017W        W31343   4.904   5.876  11.954
59018W        W31344  38.876  29.636  11.114
59019W        W31345  32.307  20.113   3.885
59020W        W31346  39.500  21.559   1.046
59021W        W31347  44.467  24.697   3.141
59022W        W31348  14.599  25.566   3.205
59023W        W31349   6.303  24.296   2.146
59024W        W31350   5.679  25.154  11.666
59025W        W31351  12.011  24.026   3.797
59026W        W31352   9.003  29.093  14.859
59027W        W31353   1.369  40.391   3.575
59028W        W31354  44.755  32.625  14.488
59029W        W31355  17.179   8.796   3.195
59030W        W31356   3.961  13.670   4.266
59031W        W31357  38.417  20.204  10.659
59032W        W31358  20.095  11.120  10.706
59033W        W31359  37.872  43.679   0.779
59034W        W31360   3.862  10.294   1.057
59035W        W31361   0.276   5.710   3.203
59036W        W31362  26.533  11.807  14.538
59037W        W31363  29.671  26.571  10.355
59038W        W31364  11.943  12.718  11.132
59039W        W31365  24.598   8.545  10.727
59040W        W31366   6.655   0.261  12.027
59041W        W31367   4.249  42.794  10.614
59042W        W31368  26.127  33.450  12.438
59043W        W31369   2.833   3.774   4.644
59044W        W31370  37.318  43.960   4.372
59045W        W31371  16.736  17.120  14.393
59046W        W31372   0.922  25.952   3.347
59047W        W31373  19.188   3.208   3.800
59048W        W31374  39.007  26.234   3.719
59049W        W31375  20.774  21.575  10.272
59050W        W31376  12.935   0.064  10.561
59051W        W31377  27.727  13.784  11.905
59052W        W31378   6.945  31.633  14.946
59053W        W31379  23.832  36.837   5.590
59054W        W31380  41.061   7.426   1.873
59055W        W31381  13.687  15.755   4.521
59056W        W31382   7.716  18.558  12.785
59057W        W31383  35.960  16.571  11.377
59058W        W31384  40.429   7.639   0.532
59059W        W31385  37.989  38.431   2.215
59060W        W31386  19.022   2.434  14.897
59061W        W31387  16.692  30.734  11.736
59062W        W31388   2.191  11.668  13.326
59063W        W31389  20.611  15.529  11.584
59064W        W31390   5.372  12.120   1.728
59065W        W31391   0.048   4.928   0.539
59066W        W31392  26.515  21.776   0.787
59067W        W31393  38.487  15.687   4.388
59068W        W31394  25.983  37.613  11.636
59069W        W31395   0.533  41.955   1.383
59070W        W31396  32.610   4.593   4.566
59071W        W31397  30.571  19.111  14.760
59072W        W31398   8.145  41.019  14.960
59073W        W31399  19.225  32.764  12.991
59074W        W31400   7.208  28.028  14.356
59075W        W31401  15.902   2.922   4.298
59076W        W31402  30.240  30.667   4.620
59077W        W31403  42.532  33.710  12.385
59078W        W31404   3.895   2.366  13.844
59079W        W31405   1.805  25.703   0.770
59080W        W31406   0.241  41.412  12.033
59081W        W31407   9.310  33.439  12.468
59082W        W31408   0.739  29.994   1.775
59083W        W31409   0.271  10.215   5.138
59084W        W31410  31.719  15.170   1.459
59085W        W31411  27.712  27.421  10.675
59086W        W31412   5.833  30.611   1.754
59087W        W31413  11.241  31.468   4.371
59088W        W31414  25.605  35.447  12.871
59089W        W31415   2.846  23.676  12.898
59090W        W31416  40.478   5.464  12.473
59091W        W31417  14.379  16.161   1.673
59092W        W31418  32.905   9.262  10.433
59093W        W31419   5.569  16.355  11.475
59094W        W31420  13.734  16.836  14.851
59095W        W31421  37.425  39.558   0.420
59096W        W31422  13.119  34.968  13.459
59097W        W31423   0.972  24.667  14.678
59098W        W31424  27.481  35.931  13.956
59099W        W31425  12.319  17.429  11.056
59100W        W31426  28.147  34.576  10.759
59101W        W31427  30.415  39.349   2.362
59102W        W31428  13.168   8.641  10.595
59103W        W31429  16.514  12.292  11.583
59104W        W31430   5.579  36.328   4.189
59105W        W31431  21.253   9.775   2.474
59106W        W31432  10.224  41.751   3.408
59107W        W31433  43.466  27.053   0.326
59108W        W31434  43.219  26.495  14.374
59109W        W31435  42.341  38.396   4.703
59110W        W31436  44.750   8.400  12.370
59111W        W31437  41.016  32.092   1.513
59112W        W31438  28.225  33.574   4.714
59113W        W31439  29.452  34.455  13.991
59114W        W31440  29.361  44.237   3.840
59115W        W31441  38.620  42.910   2.169
59116W        W31442   4.383  18.965  13.358
59117W        W31443  40.658   5.081  12.072
59118W        W31444  19.249  16.780  13.320
59119W        W31445   4.367  31.811   0.062
59120W        W31446  17.276   7.621   4.277
59121W        W31447  23.588  15.652  12.428
59122W        W31448  15.741  14.010  10.668
59123W        W31449  42.356  33.053   4.844
59124W        W31450  28.481  26.124   4.305
59125W        W31451  33.934  12.670   2.877
59126W        W31452  10.580  20.699   0.868
59127W        W31453  10.223   8.174  14.446
59128W        W31454  29.867  25.968   4.207
59129W        W31455  12.658  24.419   0.837
59130W        W31456  15.303  30.594  14.320
59131W        W31457  37.953  36.049  14.437
59132W        W31458  37.498   7.716   2.925
59133W        W31459   8.259  38.088  11.918
59134W        W31460  21.825  36.004  14.471
59135W        W31461  37.040  30.475   3.569
59136W        W31462   9.211  32.713   1.857
59137W        W31463  18.726   3.245  13.994
59138W        W31464  42.539  33.912   3.716
59139W        W31465  38.858  44.271  10.903
59140W        W31466   7.364  35.415  11.534
59141W        W31467  41.552  19.359  11.974
59142W        W31468  39.084  33.982  14.379
59143W        W31469  26.665  36.015   3.806
59144W        W31470  40.271   6.126  11.962
59145W        W31471  11.296  37.315  10.204
59146W        W31472  16.594  37.189  10.942
59147W        W31473   9.860  43.720  14.988
59148W        W31474  39.384   5.984  12.107
59149W        W31475  36.424   3.205   0.238
59150W        W31476  26.525  43.985  13.944
59151W        W31477  16.171  30.406  11.094
59152W        W31478   1.688  37.519  13.374
59153W        W31479  14.129  25.488  14.756
59154W        W31480  13.423  35.541   0.830
59155W        W31481  39.077  35.037   0.980
59156W        W31482  34.010  39.303   3.409
59157W        W31483  14.071  39.626   1.695
59158W        W31484  12.178  23.726  13.436
59159W        W31485  27.705  29.230  13.511
59160W        W31486  17.119  18.697   0.898
59161W        W31487  14.169  18.170   0.370
59162W        W31488  13.317  30.434   3.643
59163W        W31489  17.884  10.689   3.253
59164W        W31490  11.287   6.067   2.409
59165W        W31491  30.507  38.044  11.386
59166W        W31492  31.112  41.544  11.588
59167W        W31493  30.906  42.969  11.680
59168W        W31494  34.169  42.116   3.701
59169W        W31495  18.071  43.433   0.224
59170W        W31496   9.144  26.129   2.823
59171W        W31497  10.374  32.171  13.050
59172W        W31498   3.770  26.938  14.882
59173W        W31499  33.258  39.020   5.106
59174W        W31500   9.160  42.587  12.945
59175W        W31501   6.862   5.407  11.892
59176W        W31502  12.692  44.005   4.736
59177W        W31503  31.802  11.143  12.409
59178W        W31504   9.609  33.027   2.585
59179W        W31505  17.839   3.931   0.377
59180W        W31506  32.769  14.175  10.535
59181W        W31507  38.286   6.846  13.452
59182W        W31508  41.877  18.510   1.262
59183W        W31509  20.971  28.096  12.512
59184W        W31510  43.476  17.109   1.714
59185W        W31511   5.273  43.825  13.453
59186W        W31512  42.440   4.972  11.656
59187W        W31513  27.772  21.610   4.820
59188W        W31514  32.382  42.856   0.293
59189W        W31515  41.905  10.550   3.406
59190W        W31516  35.797  38.912   0.271
59191W        W31517   2.332  28.637   4.389
59192W        W31518  36.088  33.651  10.958
59193W        W31519  29.055  39.005   4.953
59194W        W31520   2.494  25.457   2.355
59195W        W31521  27.457  11.491  13.481
59196W        W31522  11.238  23.285  11.074
59197W        W31523  10.387  38.370   3.306
59198W        W31524  42.958  16.594   1.326
59199W        W31525  30.468  42.772  13.345
59200W        W31526  11.356   6.282   3.740
59201W        W31527   7.388  41.423   0.402
59202W        W31528  34.167   1.813   0.297
59203W        W31529  40.706  22.162  13.892
59204W        W31530  36.576  17.206  10.400
59205W        W31531  30.451  16.064  12.804
59206W        W31532  12.165   6.221  11.190
59207W        W31533  41.331  31.871  13.877
59208W        W31534   8.662   9.778  12.521
59209W        W31535  21.509  41.559  14.632
59210W        W31536  13.106  18.140   4.654
59211W        W31537  31.084  22.775  14.348
59212W        W31538   4.502  39.088   3.632
59213W        W31539  15.609   2.762  14.514
59214W        W31540   2.365  39.024   0.444
59215W        W31541  24.660  28.081   0.215
59216W        W31542  32.978   6.438  12.573
59217W        W31543  32.408  22.078   2.140
59218W        W31544   3.429   6.185   0.852
59219W        W31545  24.904  36.525   2.887
59220W        W31546  19.772   6.359   2.211
59221W        W31547  23.268  24.756   1.276
59222W        W31548  28.068  37.930   4.335
59223W        W31549  23.126   4.473   2.242
59224W        W31550  20.563   6.012   0.178
59225W        W31551  23.249  11.296   3.287
59226W        W31552  42.679  26.047   2.476
59227W        W31553  25.681  16.002   3.152
59228W        W31554  31.056  17.567  12.529
59229W        W31555  29.535  38.543  13.523
59230W        W31556  21.767  13.357   2.311
59231W        W31557  22.289   0.885   1.004
59232W        W31558  40.327  21.976   3.842
59233W        W31559  15.001   5.334   1.644
59234W        W31560   0.523   3.633   4.209
59235W        W31561  14.687  25.090   0.967
59236W        W31562  14.416  15.818  14.359
59237W        W31563  38.765   5.752  11.571
59238W        W31564  43.744  25.247   0.379
59239W        W31565  44.358  24.067   0.771
59240W        W31566  17.634  41.849   4.566
59241W        W31567   8.303  16.589   1.465
59242W        W31568  40.732   1.225   0.552
59243W        W31569  12.168  23.659   0.802
59244W        W31570  43.974   9.932  12.017
59245W        W31571  11.792  24.115  11.707
59246W        W31572  34.936  40.786   1.856
59247W        W31573  42.394  41.829  11.475
59248W        W31574  32.480   3.447   3.752
59249W        W31575  15.428  25.290  11.544
59250W        W31576  44.064  27.021  12.550
59251W        W31577   4.505  40.083   3.063
59252W        W31578  34.654   9.204   1.924
59253W        W31579   1.884  19.527  11.058
59254W        W31580  17.669  13.883   4.613
59255W        W31581  15.233  25.723   4.673
59256W        W31582  15.342  10.761  12.753
59257W        W31583  20.364   4.172  11.931
59258W        W31584   2.217  25.771   4.980
59259W        W31585   1.488   7.127  12.919
59260W        W31586  34.140  11.324   1.288
59261W        W31587  44.740  18.725  14.280
59262W        W31588  20.578  18.053  14.917
59263W        W31589  38.981  22.593  13.769
59264W        W31590  30.042   4.679  12.087
59265W        W31591  32.124  32.094   2.456
59266W        W31592  25.260   4.742   1.566
59267W        W31593  14.831  41.961  12.839
59268W        W31594  13.338  41.543   3.660
59269W        W31595  31.966  40.813  10.844
59270W        W31596   2.975  34.557  11.463
59271W        W31597  25.288  16.325  10.360
59272W        W31598  11.634  22.322  11.175
59273W        W31599   7.956  30.278  11.125
59274W        W31600  11.628  39.567   3.539
59275W        W31601  37.459   9.857  14.999
59276W        W31602  42.462  14.960   0.504
59277W        W31603   0.914  28.271  13.965
59278W        W31604  18.132  10.293   3.539
59279W        W31605  14.549   5.420   1.889
59280W        W31606  32.350  37.064   2.919
59281W        W31607  14.248  29.458  13.437
59282W        W31608  28.568   0.718  13.034
59283W        W31609  24.598  33.792   3.275
59284W        W31610  25.146   7.304   4.246
59285W        W31611   8.794   3.232  10.692
59286W        W31612  13.762  23.476   3.065
59287W        W31613  30.988  16.136   4.579
59288W        W31614   1.611   3.006  13.954
59289W        W31615  12.245   8.272   2.769
59290W        W31616   9.164   5.864   0.884
59291W        W31617  42.008  40.991  13.994
59292W        W31618   2.369  32.159   0.742
59293W        W31619  31.651  11.929   3.823
59294W        W31620  39.901  31.208  11.919
59295W        W31621   9.008  19.852   1.232
59296W        W31622  35.099   2.835  13.199
59297W        W31623  16.017  23.593   4.109
59298W        W31624  12.771  34.249   4.967
59299W        W31625  21.755  21.706   3.273
59300W        W31626  42.984  29.649  11.294
59301W        W31627  37.110  15.805   4.782
59302W        W31628  12.752  42.395   1.813
59303W        W31629  12.295  37.144   4.827
59304W        W31630  39.473  31.777  12.576
59305W        W31631  35.609  41.119  14.922
59306W        W31632  27.881  40.352  12.309
59307W        W31633  38.821   9.386   1.756
59308W        W31634  40.502  17.895   1.996
59309W        W31635  39.020  24.777  14.895
59310W        W31636  10.380  20.744   4.559
59311W        W31637  31.536  36.805   4.192
59312W        W31638   4.426  12.753   5.028
59313W        W31639  41.546  37.811  11.941
59314W        W31640  33.193  18.249   3.677
59315W        W31641  16.040  33.838   2.272
59316W        W31642  11.190  20.457  14.414
59317W        W31643  13.480  38.854   2.802
59318W        W31644  23.931  38.882   1.959
59319W        W31645  12.764   6.698   3.777
59320W        W31646   8.466  30.966   4.595
59321W        W31647  26.751  42.031   2.768
59322W        W31648   1.923  27.954   3.686
59323W        W31649  43.454  28.936  14.763
59324W        W31650  39.908   0.963   4.711
59325W        W31651  37.855  32.448  13.376
59326W        W31652   3.920  29.116   3.158
59327W        W31653  34.463   2.799  12.489
59328W        W31654  36.656   3.852  14.559
59329W        W31655   3.509   6.746   2.823
59330W        W31656  14.532  15.160   2.344
59331W        W31657  39.371  10.555   0.426
59332W        W31658  26.943  32.684   0.437
59333W        W31659  28.617  38.840   0.784
59334W        W31660   8.827  25.242   3.964
59335W        W31661  44.601   9.222   3.387
59336W        W31662  17.626  15.891   0.052
59337W        W31663  37.038   3.491  14.818
59338W        W31664   8.312  43.462  12.489
59339W        W31665  39.592  44.964   2.960
59340W        W31666   4.438   2.885   4.637
59341W        W31667   4.797  28.579  11.021
59342W        W31668  23.679  38.400   4.624
59343W        W31669   1.368  28.724   2.614
59344W        W31670  31.519  15.684   1.697
59345W        W31671   9.747  32.291   0.334
59346W        W31672   0.313   5.992  11.470
59347W        W31673  23.285   4.910  10.659
59348W        W31674  37.302  21.129  14.372
59349W        W31675   2.988  28.624  14.041
59350W        W31676  20.714  14.631  12.344
59351W        W31677  14.661  39.324   2.824
59352W        W31678  17.996  28.990  12.969
59353W        W31679  29.472  28.461  10.109
59354W        W31680   3.719  26.991  12.910
59355W        W31681   2.268  39.786  13.245
59356W        W31682  16.028  44.416  11.132
59357W        W31683   3.996  40.427   2.895
59358W        W31684   6.311   5.470  14.039
59359W        W31685  20.903   5.338   1.588
59360W        W31686  19.426  18.552   0.863
59361W        W31687  40.762  17.580   2.346
59362W        W31688   2.438  38.290  14.057
59363W        W31689  32.717  30.215  14.947
59364W        W31690   6.823  13.963   3.254
59365W        W31691  18.865  22.229  14.829
59366W        W31692  14.634  43.552  11.544
59367W        W31693  18.957   4.392  13.085
59368W        W31694  26.729   9.189   2.664
59369W        W31695   0.684  27.911  11.908
59370W        W31696  12.382  37.041   2.493
59371W        W31697  15.188   6.031   1.000
59372W        W31698   6.764  20.055  13.099
59373W        W31699  39.383  32.055   2.750
59374W        W31700  27.205  35.941   2.254
59375W        W31701  29.779  13.706   3.615
59376W        W31702  26.082  33.548  10.650
59377W        W31703  33.416  18.572   1.896
59378W        W31704  32.085  43.463   4.832
59379W        W31705   1.278   8.773   1.817
59380W        W31706  23.300  31.076  12.423
59381W        W31707  19.595  10.361   1.241
59382W        W31708  17.693   8.419  11.461
59383W        W31709  36.534  26.919  13.833
59384W        W31710  13.856  42.229  13.624
59385W        W31711  38.623  41.927  11.561
59386W        W31712  31.164  43.757  11.199
59387W        W31713  41.534   4.858  11.887
59388W        W31714   0.858  31.974  13.534
59389W        W31715   9.369  35.391   1.449
59390W        W31716  33.714  38.931   4.154
59391W        W31717  23.258  13.731   2.745
59392W        W31718  29.535  11.885   4.274
59393W        W31719  29.685  26.274  13.679
59394W        W31720  11.897  40.500   3.851
59395W        W31721  13.691  44.195   3.636
59396W        W31722  17.813   1.229   1.501
59397W        W31723  17.179  27.791   0.440
59398W        W31724   1.435  27.138  13.926
59399W        W31725   6.475  15.978   1.900
59400W        W31726  32.923  33.615   1.342
59401W        W31727   4.439  19.595  14.358
59402W        W31728   4.954  21.206   4.645
59403W        W31729  26.209   4.546  14.067
59404W        W31730   9.222  18.641  13.010
59405W        W31731  24.683   2.387   4.693
59406W        W31732  41.020  32.292  10.597
59407W        W31733  37.372  28.772   4.683
59408W        W31734  41.503  23.726   3.120
59409W        W31735  15.136  16.377  12.201
59410W        W31736  36.825  28.562   0.950
59411W        W31737  10.664   8.006   0.797
59412W        W31738  30.360   4.765  14.773
59413W        W31739  30.064   6.236  13.870
59414W        W31740   0.319  24.470   0.290
59415W        W31741  34.626   2.294   3.006
59416W        W31742  14.062  24.531   4.125
59417W        W31743  22.333  31.879   1.417
59418W        W31744   1.532  21.605  12.979
59419W        W31745   2.292  10.809  14.250
59420W        W31746  11.213  19.677   3.673
59421W        W31747   9.389  28.422  12.605
59422W        W31748   7.231  38.453   0.774
59423W        W31749  11.196  38.835   1.879
59424W        W31750   3.500  22.070   0.329
59425W        W31751  38.980  28.545  12.073
59426W        W31752  32.788  32.510   5.016
59427W        W31753  34.616  10.720   4.448
59428W        W31754  28.034  41.600   0.725
59429W        W31755  21.064  11.110   3.218
59430W        W31756   4.876  36.312  13.627
59431W        W31757   5.758   3.726  10.508
59432W        W31758   5.604   8.627   2.759
59433W        W31759  10.604   0.806   0.011
59434W        W31760   2.228  42.399   4.730
59435W        W31761   8.347  44.040  12.591
59436W        W31762  31.655  15.474   0.481
59437W        W31763   5.804  20.869   0.876
59438W        W31764  24.474  42.373   0.148
59439W        W31765   9.247  16.203  13.927
59440W        W31766   7.211  34.067   4.231
59441W        W31767  42.741  14.666   2.666
59442W        W31768   7.015  36.107  10.712
59443W        W31769  13.622  26.096   4.333
59444W        W31770   5.847  40.783   2.132
59445W        W31771  43.784   4.185   0.369
59446W        W31772  10.346  30.620  14.585
59447W        W31773  39.516  37.320  11.830
59448W        W31774   5.001  38.579   0.262
59449W        W31775  15.374  16.009  11.912
59450W        W31776   8.693  25.546   3.065
59451W        W31777  35.602  24.581   3.314
59452W        W31778   5.803  15.846   3.174
59453W        W31779  31.160  11.770  12.531
59454W        W31780  12.160  19.220  11.659
59455W        W31781  37.015  17.087   3.900
59456W        W31782  29.597  39.582   0.335
59457W        W31783  19.275  26.077  14.467
59458W        W31784  31.709   7.499   1.240
59459W        W31785  12.598  18.270  11.933
59460W        W31786   4.989   0.933   0.380
59461W        W31787  23.972  19.025  11.429
59462W        W31788  28.132  44.076  11.652
59463W        W31789  26.272  31.176  12.851
59464W        W31790  41.594  28.963  14.369
59465W        W31791  39.270   9.308   0.022
59466W        W31792  25.813  10.909  12.008
59467W        W31793  30.246  25.808   2.812
59468W        W31794   8.659  36.546  13.051
59469W        W31795  12.817  13.845   3.291
59470W        W31796   6.384  16.141   2.851
59471W        W31797  22.637  16.164  12.546
59472W        W31798  32.178  39.615  11.985
59473W        W31799  19.315  38.759  10.666
59474W        W31800   1.738  38.374   3.367
59475W        W31801   7.267  10.705  12.813
59476W        W31802  36.902  23.539  13.500
59477W        W31803  35.074  34.575  11.920
59478W        W31804  26.705  43.835   3.222
59479W        W31805  32.060   5.511   4.555
59480W        W31806  31.272  31.988   3.920
59481W        W31807  29.238  35.048   1.913
59482W        W31808   6.250   2.253   4.069
59483W        W31809  18.159  26.448  11.781
59484W        W31810  26.110  17.937   9.519
59485W        W31811  25.129   8.190  11.242
59486W        W31812  39.539  31.178   2.146
59487W        W31813  14.094  20.546   2.758
59488W        W31814  12.824  14.237  12.504
59489W        W31815  24.129   3.401   5.062
59490W        W31816  43.957  12.311  10.949
59491W        W31817  43.466  30.933  13.290
59492W        W31818   6.671   9.338   1.906
59493W        W31819  34.518   9.399  11.503
59494W        W31820  19.231   8.111   2.794
59495W        W31821  33.620  10.777  14.651
59496W        W31822  18.276  39.389  13.049
59497W        W31823  22.291  36.843   0.786
59498W        W31824  44.772  28.607  11.952
59499W        W31825  21.243  24.675  12.504
59500W        W31826  33.562  21.787  11.231
59501W        W31827  24.724  14.035   4.020
59502W        W31828  44.601  32.048   0.332
59503W        W31829  12.660  25.573  12.921
59504W        W31830  27.696   3.280   1.465
59505W        W31831   4.946  25.406   4.208
59506W        W31832  30.677  12.326   0.326
59507W        W31833  25.624  44.850   1.254
59508W        W31834  25.861  40.931  11.136
59509W        W31835  41.194  24.979   3.238
59510W        W31836  19.504  39.912  12.385
59511W        W31837  43.785  25.361   1.279
59512W        W31838   6.003  40.706  12.582
59513W        W31839  39.598   2.336  11.954
59514W        W31840   9.018  10.989   0.619
59515W        W31841   8.010  32.567   1.414
59516W        W31842  42.277  22.548   4.531
59517W        W31843  12.192  14.288  14.347
59518W        W31844  28.704  17.165  14.799
59519W        W31845  24.114  26.654  14.268
59520W        W31846  14.364   4.555  11.268
59521W        W31847   0.254   3.145   0.220
59522W        W31848  26.144   1.163   2.458
59523W        W31849  41.313  23.262  12.584
59524W        W31850  43.784   7.898  12.955
59525W        W31851  28.220  41.435  11.133
59526W        W31852  29.500  43.507  11.167
59527W        W31853  21.745  41.946  14.894
59528W        W31854   4.799  36.708  12.042
59529W        W31855  31.989  36.977   4.414
59530W        W31856   7.187   5.525   0.205
59531W        W31857  32.052  34.763   3.269
59532W        W31858  39.419  35.894   0.898
59533W        W31859  22.454  37.331  12.065
59534W        W31860  20.903  36.121  10.099
59535W        W31861  37.438  33.915  14.186
59536W        W31862  44.204  14.931   0.138
59537W        W31863  33.561  26.518  10.755
59538W        W31864  30.619  24.376   0.853
59539W        W31865  43.512  18.354   0.527
59540W        W31866  31.903  21.936   4.172
59541W        W31867  33.001  21.682   2.808
59542W        W31868  32.448   6.887   4.624
59543W        W31869  25.947  44.825   1.661
59544W        W31870  22.463  30.185  14.210
59545W        W31871  14.637  25.691  12.085
59546W        W31872   6.620  37.948  10.483
59547W        W31873  22.776  19.222   1.866
59548W        W31874  23.820  10.911   3.673
59549W        W31875   3.190  29.109   4.254
59550W        W31876  29.002  19.502  12.012
59551W        W31877   8.145  43.889   2.997
59552W        W31878  11.842  27.486   0.483
59553W        W31879  31.458   8.002   4.273
59554W        W31880  38.640   8.699   1.412
59555W        W31881  24.841  28.778  11.035
59556W        W31882   8.708  44.780  13.473
59557W        W31883  24.752  42.536  11.458
59558W        W31884  27.687  26.557  14.682
59559W        W31885  44.038  19.197   4.130
59560W        W31886  32.084  31.538   0.649
59561W        W31887  20.528  14.573   2.578
59562W        W31888  43.297  31.199  12.304
59563W        W31889  22.447  25.026  13.118
59564W        W31890  14.728   5.405  14.307
59565W        W31891  14.357   6.267  11.541
59566W        W31892   2.782  24.234  14.337
59567W        W31893  20.306   0.451  11.491
59568W        W31894   5.331   1.854  10.653
59569W        W31895   2.812   3.072  13.123
59570W        W31896  14.465  35.737  10.205
59571W        W31897  37.896  22.507   2.627
59572W        W31898  44.319  12.393  13.704
59573W        W31899   3.808  40.297  10.067
59574W        W31900  27.220  26.938  14.964
59575W        W31901  23.032  21.799  11.623
59576W        W31902  17.821  12.348  12.640
59577W        W31903   3.416   6.244   2.660
59578W        W31904  36.285  16.633  12.296
59579W        W31905  24.755  24.930  14.425
59580W        W31906   7.696   3.414  14.019
59581W        W31907  31.966  19.618   4.555
59582W        W31908  14.666  10.738  11.972
59583W        W31909   4.317  32.134   4.787
59584W        W31910  32.105  19.994  12.089
59585W        W31911  11.650  26.202   2.872
59586W        W31912  28.441  39.980  11.156
59587W        W31913  16.726  15.412  11.007
59588W        W31914  31.176  41.706  13.851
59589W        W31915  23.037  11.406  11.507
59590W        W31916   3.922  23.795   4.291
59591W        W31917  27.699   1.994  13.335
59592W        W31918   3.938   0.225   1.563
59593W        W31919  24.546  40.085  11.167
59594W        W31920  38.226  16.272   1.222
59595W        W31921   4.894  29.726   4.583
59596W        W31922   9.333  22.576  10.206
59597W        W31923   1.762   8.924   2.216
59598W        W31924  10.918  15.241  10.550
59599W        W31925  22.705  10.343   3.700
59600W        W31926  42.694  12.409  11.095
59601W        W31927  11.348  37.805  14.852
59602W        W31928   1.228   6.704  12.810
59603W        W31929  35.396  24.763   4.636
59604W        W31930  41.395  40.766  13.289
59605W        W31931  35.504  11.245   5.471
59606W        W31932   4.484  10.865   2.831
59607W        W31933  15.124  38.280   3.148
59608W        W31934  42.830   3.858   4.818
59609W        W31935  22.670  15.725   0.004
59610W        W31936  35.886  37.379   3.683
59611W        W31937  29.487  30.508  12.495
59612W        W31938  38.800   0.759   2.149
59613W        W31939  31.111   9.329   4.152
59614W        W31940   2.340  44.591  11.950
59615W        W31941   1.945   2.331  14.804
59616W        W31942  30.242  25.748  14.047
59617W        W31943  30.476   5.239   0.759
59618W        W31944  41.283  14.911   3.692
59619W        W31945  41.474  11.953  11.191
59620W        W31946  38.370   9.393  11.585
59621W        W31947  14.455  16.564   2.447
59622W        W31948  13.312  17.207  10.521
59623W        W31949  39.235  13.318   0.745
59624W        W31950  42.912  10.588   4.536
59625W        W31951  23.844  23.014   3.854
59626W        W31952  10.661  17.528  14.303
59627W        W31953  10.260  41.814  10.571
59628W        W31954  37.944   9.896   3.671
59629W        W31955  27.039  44.989  10.524
59630W        W31956  13.325  28.382  12.116
59631W        W31957  28.620   8.957   4.324
59632W        W31958   6.339  44.766  13.588
59633W        W31959  23.706  10.287   0.368
59634W        W31960  41.966  29.749  11.514
59635W        W31961   5.632  42.908   1.805
59636W        W31962  34.239  27.715   2.399
59637W        W31963   1.829   6.732  11.694
59638W        W31964  17.912  32.203  10.999
59639W        W31965   4.756  27.002  10.469
59640W        W31966  26.579  40.380  11.386
59641W        W31967  39.550  36.035   2.481
59642W        W31968  20.028   1.692   3.106
59643W        W31969  42.937  43.388  10.496
59644W        W31970  30.329  12.096  14.408
59645W        W31971  43.836  22.878  11.654
59646W        W31972  15.706  28.756  12.320
59647W        W31973   5.228  11.621  14.202
59648W        W31974  41.269  11.224  13.739
59649W        W31975  19.184  34.647   0.836
59650W        W31976  44.856  44.527  10.307
59651W        W31977  27.594   9.156  11.170
59652W        W31978   4.817  28.100   2.990
59653W        W31979  30.366  38.143  14.528
59654W        W31980  29.918  18.476  10.789
59655W        W31981  27.664  33.443   3.879
59656W        W31982   3.190  37.270   1.247
59657W        W31983   9.382   1.817  10.638
59658W        W31984  25.972  42.011  13.459
59659W        W31985  12.285   3.421  10.855
59660W        W31986  29.123  28.518   0.859
59661W        W31987   6.710   2.489  14.037
59662W        W31988  39.970  23.531   4.505
59663W        W31989  37.784  10.914   1.288
59664W        W31990  26.612  11.249  10.613
59665W        W31991  41.771   2.721  13.905
59666W        W31992  11.647  21.909   1.954
59667W        W31993   5.617   0.982  14.013
59668W        W31994  24.964   9.395   1.919
59669W        W31995  24.910  10.216   3.340
59670W        W31996   5.725  25.933   3.658
59671W        W31997  43.725   6.424   0.867
59672W        W31998   4.216   4.833  13.256
59673W        W31999  42.907  13.241  10.309
59674W        W32000  12.631   6.584   2.347
59675W        W32001  35.505  11.783   2.949
59676W        W32002  16.895   3.836  11.644
59677W        W32003  15.099  19.593   1.401
59678W        W32004   5.807  12.883   2.406
59679W        W32005  12.913  38.182   1.088
59680W        W32006  23.814  28.142  12.051
59681W        W32007  12.041  12.450  11.541
59682W        W32008   8.908  15.936  12.116
59683W        W32009  28.528  14.651   1.233
59684W        W32010  17.984  40.020   3.266
59685W        W32011  24.592   6.441   1.474
59686W        W32012  35.317  29.172   2.265
59687W        W32013   1.323  21.612  14.355
59688W        W32014   8.157  14.126  12.817
59689W        W32015  12.827  40.474  11.349
59690W        W32016   1.744  35.493  14.062
59691W        W32017   1.792  29.307   1.886
59692W        W32018  30.975  23.633  11.419
59693W        W32019  16.749  14.590   2.947
59694W        W32020  11.739  14.074  11.106
59695W        W32021  44.581  35.306   0.973
59696W        W32022  14.883  30.634  11.654
59697W        W32023  42.787  27.717  10.770
59698W        W32024  18.169  12.654   3.473
59699W        W32025  14.318  39.322  12.188
59700W        W32026  30.061  15.900   0.980
59701W        W32027  24.407  18.588   5.013
59702W        W32028  16.268  36.987   4.178
59703W        W32029  39.128  26.656   1.002
59704W        W32030  41.273  38.591  13.041
59705W        W32031  24.517  39.879  13.527
59706W        W32032   2.298  28.975  13.805
59707W        W32033  43.914   3.939  12.265
59708W        W32034  11.419  42.518  11.144
59709W        W32035   6.225  34.142  13.879
59710W        W32036   3.190  18.286   3.726
59711W        W32037  22.691  12.856   2.108
59712W        W32038  20.328  37.317   4.133
59713W        W32039   0.443   3.391  14.795
59714W        W32040  33.975  44.706  14.380
59715W        W32041   5.206  24.838   4.802
59716W        W32042  19.454  42.844  13.378
59717W        W32043   3.787  26.616  11.199
59718W        W32044  36.286  42.490  11.449
59719W        W32045  13.041  17.187   3.158
59720W        W32046   8.244   0.441  12.459
59721W        W32047   0.347  38.268   2.861
59722W        W32048  28.127  37.250   2.707
59723W        W32049  11.243  32.434   4.120
59724W        W32050  34.730   3.395   4.414
59725W        W32051  23.144  31.582   0.728
59726W        W32052  39.607  35.182   1.843
59727W        W32053   7.804  11.637   4.123
59728W        W32054  30.141   2.912   3.674
59729W        W32055  29.095  31.053   2.440
59730W        W32056  33.409  32.997  10.573
59731W        W32057   3.851  40.690  13.271
59732W        W32058  14.904  14.816   0.474
59733W        W32059  44.945  34.396   1.879
59734W        W32060   7.956  15.752  13.544
59735W        W32061  41.781  32.469   3.733
59736W        W32062  35.801  32.936   4.613
59737W        W32063   4.162   1.838  10.483
59738W        W32064  28.695  32.351   2.240
59739W        W32065  26.963  22.615  11.066
59740W        W32066  40.396  41.315  13.311
59741W        W32067  33.682  20.917  10.331
59742W        W32068  12.663  11.800   0.691
59743W        W32069   8.627  19.606  13.226
59744W        W32070  32.062  18.289   3.259
59745W        W32071  23.607   2.428   4.593
59746W        W32072   2.498  20.548  11.096
59747W        W32073  41.808  10.425  12.036
59748W        W32074  28.177  42.658  12.511
59749W        W32075  41.750  26.703  13.434
59750W        W32076   0.730  23.130   1.654
59751W        W32077  10.469  42.555  14.378
59752W        W32078  14.886  11.213  12.623
59753W        W32079  13.028  44.315   4.207
59754W        W32080  14.862  11.271  10.791
59755W        W32081  30.879   0.950   1.718
59756W        W32082   7.970  42.079   2.797
59757W        W32083  10.485  23.971  12.776
59758W        W32084  12.635  23.523  14.712
59759W        W32085   5.809  17.659  12.584
59760W        W32086  20.147  36.423  12.350
59761W        W32087  34.065  14.085   4.894
59762W        W32088  35.330  35.140  14.393
59763W        W32089  10.948  44.410   3.677
59764W        W32090  31.537  29.365  11.456
59765W        W32091   9.304  41.424   2.379
59766W        W32092   6.172  15.124   2.530
59767W        W32093   2.448  37.212  10.759
59768W        W32094  25.996  15.036  10.587
59769W        W32095  34.364  28.998   3.886
59770W        W32096   1.266  22.584   0.016
59771W        W32097  34.013  16.672   1.737
59772W        W32098  31.294  32.490  11.044
59773W        W32099  29.681  18.240   2.348
59774W        W32100  32.018  27.214   3.442
59775W        W32101  19.707   0.804   0.403
59776W        W32102   3.917  28.661   1.846
59777W        W32103  31.126   8.105  11.606
59778W        W32104  44.649  10.154  13.637
59779W        W32105  15.358  38.804   0.495
59780W        W32106  34.857  18.284   0.873
59781W        W32107  39.269  40.087  12.457
59782W        W32108  20.603  41.869   1.330
59783W        W32109  41.623  16.892  11.945
59784W        W32110  23.123  39.742   3.308
59785W        W32111   5.895   4.929   3.717
59786W        W32112  28.925  12.732  14.359
59787W        W32113  16.659  19.074   3.629
59788W        W32114  22.768   0.747  13.423
59789W        W32115  11.189  27.629   0.934
59790W        W32116   7.248  34.627   2.863
59791W        W32117  29.541  16.693  11.965
59792W        W32118  30.611   8.190   1.508
59793W        W32119  16.794   1.914  11.929
59794W        W32120  25.460  39.484   2.415
59795W        W32121  18.028  30.346   4.219
59796W        W32122  26.074   9.320   0.046
59797W        W32123  23.493  21.578  14.755
59798W        W32124  20.540  18.542  13.469
59799W        W32125  41.474  43.523   1.176
59800W        W32126  24.492   3.342  10.569
59801W        W32127  10.299  21.170  12.447
59802W        W32128  12.926  15.042  13.456
59803W        W32129  39.830  11.092  14.343
59804W        W32130  29.211   4.187  13.720
59805W        W32131   3.960  12.294  10.143
59806W        W32132  20.237   9.663  14.293
59807W        W32133   2.673  31.502   4.565
59808W        W32134  27.525  23.760   2.383
59809W        W32135   6.219   0.947  12.092
59810W        W32136   4.234  18.485  10.531
59811W        W32137  32.463   2.344   1.333
59812W        W32138   3.246  16.572  10.630
59813W        W32139   4.750  35.408  13.369
59814W        W32140  22.534  19.562   2.222
59815W        W32141  40.082  41.993  13.110
59816W        W32142  19.079   0.038   0.410
59817W        W32143  34.283  15.718   4.587
59818W        W32144  42.301  12.052   2.799
59819W        W32145  20.079  14.264   2.378
59820W        W32146  36.907  16.280   4.590
59821W        W32147  23.444  44.093  11.430
59822W        W32148  41.982  23.491   0.714
59823W        W32149   3.157  27.950   0.269
59824W        W32150  15.273   4.750  13.879
59825W        W32151  27.132  40.919   4.217
59826W        W32152   7.190  36.566   2.536
59827W        W32153   9.701  33.092   0.714
59828W        W32154  35.357  11.788  11.592
59829W        W32155  16.280  41.248  13.409
59830W        W32156  28.652  18.031   4.114
59831W        W32157  11.297  23.646   2.217
59832W        W32158   2.184  34.636   3.143
59833W        W32159   0.265  19.202  12.856
59834W        W32160   7.900   4.149   0.935
59835W        W32161  24.549  10.373  12.469
59836W        W32162  38.109   6.765   4.894
59837W        W32163  28.561  27.961  11.432
59838W        W32164  17.760  26.704  12.052
59839W        W32165  40.510  11.353  13.015
59840W        W32166   4.617  27.404  14.031
59841W        W32167  37.795  18.677  10.633
59842W        W32168  36.947   3.262   2.766
59843W        W32169   1.822  20.672   2.589
59844W        W32170   2.306  18.024  12.235
59845W        W32171  11.652  11.637   3.220
59846W        W32172  26.608  38.836  11.860
59847W        W32173   5.837  27.483   0.729
59848W        W32174  15.272  11.237  14.266
59849W        W32175  34.117  37.000   3.389
59850W        W32176  11.442   4.843  11.960
59851W        W32177  16.188  25.688  10.692
59852W        W32178  41.984  10.712   0.846
59853W        W32179   7.435  36.219   2.218
59854W        W32180  14.391   8.182   3.235
59855W        W32181  13.739  37.001  14.308
59856W        W32182  10.763   5.292   0.377
59857W        W32183  26.051   7.519   4.346
59858W        W32184  31.917   1.405   0.391
59859W        W32185  28.044  20.502   3.396
59860W        W32186   2.874   2.811  11.610
59861W        W32187   5.331  33.465   3.400
59862W        W32188  25.882  13.123   3.043
59863W        W32189  27.967  22.063   3.279
59864W        W32190  21.077  35.892  13.943
59865W        W32191  23.913  39.792   1.454
59866W        W32192  29.600  24.291  10.088
59867W        W32193  29.643  43.845   3.652
59868W        W32194  40.493  11.076   1.007
59869W        W32195   2.325  21.507   2.635
59870W        W32196   6.822  39.987  12.065
59871W        W32197  12.732  14.725   0.730
59872W        W32198   5.339  35.260  10.697
59873W        W32199  28.078  24.210  10.881
59874W        W32200  31.323   1.474   5.044
59875W        W32201  25.078   9.768  12.834
59876W        W32202   6.044  16.302  11.273
59877W        W32203   9.677  27.398  13.902
59878W        W32204  18.127  25.153  13.540
59879W        W32205  30.566   7.328   0.833
59880W        W32206   7.290  34.079  13.593
59881W        W32207  26.506   6.020   3.694
59882W        W32208  21.260   1.834   3.660
59883W        W32209   7.785  30.281  12.930
59884W        W32210   6.152  15.567   1.749
59885W        W32211  11.491  14.724   1.274
59886W        W32212  28.678  32.602   3.099
59887W        W32213  33.445  15.838  10.661
59888W        W32214  30.006  18.211   4.574
59889W        W32215  12.762   6.240  10.545
59890W        W32216   5.874  27.121  14.372
59891W        W32217   2.170  23.151  12.110
59892W        W32218  15.585   1.203   9.962
59893W        W32219  36.102   6.390  11.514
59894W        W32220  39.936  20.181   3.396
59895W        W32221  23.733   6.777   3.232
59896W        W32222  44.438  42.348   4.732
59897W        W32223  28.508   4.258   4.620
59898W        W32224  27.116  12.270   1.723
59899W        W32225  40.656   4.414  12.949
59900W        W32226   7.172  40.503  14.026
59901W        W32227  19.311   2.878   0.666
59902W        W32228  38.519  12.860  13.005
59903W        W32229  33.912  30.564   1.994
59904W        W32230   6.726   7.586  13.305
59905W        W32231  29.064  35.972  14.932
59906W        W32232   4.914  33.355   1.207
59907W        W32233  43.553   1.961  11.243
59908W        W32234  31.108   3.490   2.124
59909W        W32235  35.041  33.916   4.189
59910W        W32236   1.690  31.051  11.069
59911W        W32237  21.301  15.354  11.131
59912W        W32238  26.533  35.483   3.659
59913W        W32239  37.862  35.954   1.816
59914W        W32240  21.602   2.348   4.547
59915W        W32241   0.257  28.231  13.572
59916W        W32242  15.421  12.854   2.341
59917W        W32243  30.172  14.053  12.471
59918W        W32244  22.361  18.263  11.956
59919W        W32245  19.569  32.836   1.712
59920W        W32246  23.114   0.398  11.466
59921W        W32247  11.925  44.206  13.504
59922W        W32248  36.146  31.615   2.843
59923W        W32249  14.441   3.325  12.509
59924W        W32250   9.500  36.687   1.482
59925W        W32251  16.119   6.856  11.774
59926W        W32252  39.115  25.180  11.134
59927W        W32253  34.858  29.604  11.032
59928W        W32254  14.293  28.806   3.899
59929W        W32255  15.221  40.578  12.542
59930W        W32256  24.843  23.516  12.462
59931W        W32257  19.050   0.401   4.714
59932W        W32258  10.835   1.833   0.402
59933W        W32259  11.775  43.808   1.359
59934W        W32260  13.948  16.593   2.409
59935W        W32261  17.600  40.407   3.257
59936W        W32262  36.994   5.117   5.091
59937W        W32263  33.993  27.946  10.618
59938W        W32264  25.416  16.488   3.152
59939W        W32265  42.860  31.079  10.713
59940W        W32266  13.825   3.782  13.511
59941W        W32267   5.449  29.896  13.940
59942W        W32268  18.309  40.904   3.171
59943W        W32269   8.590  29.986  14.773
59944W        W32270  21.205  37.151   2.413
59945W        W32271   6.123   2.075   4.536
59946W        W32272  25.107  14.204   1.655
59947W        W32273  41.494  17.182  14.267
59948W        W32274  41.261  21.071   4.522
59949W        W32275  38.495   3.204   3.339
59950W        W32276  30.002   6.410   3.715
59951W        W32277  33.682   1.943   0.677
59952W        W32278  32.925  24.676  10.665
59953W        W32279  27.302  11.782   0.957
59954W        W32280   7.989  12.976   1.736
59955W        W32281   2.209  22.805   1.857
59956W        W32282  18.052   0.957  12.984
59957W        W32283  19.174  36.089   1.813
59958W        W32284  42.331   3.191   4.543
59959W        W32285  20.647  33.065  11.075
59960W        W32286  29.978  34.902   0.716
59961W        W32287  33.630  27.019   2.150
59962W        W32288  35.637  15.586   2.880
59963W        W32289  20.285  23.153  13.366
59964W        W32290   0.285   3.149  13.731
59965W        W32291   3.842  34.866  11.113
59966W        W32292  24.211   8.154  14.882
59967W        W32293  28.636  21.164   0.892
59968W        W32294  18.279  18.213   2.685
59969W        W32295  26.890   0.032   9.977
59970W        W32296  23.378  27.005   1.511
59971W        W32297  23.079  10.126  11.225
59972W        W32298  16.624  32.079   2.583
59973W        W32299  30.074  40.106   2.330
59974W        W32300  21.607  22.466  11.060
59975W        W32301  27.407  11.901   1.941
59976W        W32302   3.212  12.211  12.135
59977W        W32303   5.851  14.314   4.138
59978W        W32304  39.932  17.026  11.097
59979W        W32305  26.636   5.345   4.248
59980W        W32306  34.279  33.604   9.749
59981W        W32307  16.408  39.310  14.967
59982W        W32308   0.738  16.193  10.262
59983W        W32309  31.951   4.057  12.056
59984W        W32310  39.566   6.241   3.754
59985W        W32311   8.773   4.752   0.235
59986W        W32312  34.329  19.650   1.769
59987W        W32313  14.534  42.487   3.182
59988W        W32314  19.597  42.742   1.204
59989W        W32315  15.768   6.420  13.105
59990W        W32316  30.540  20.558  10.702
59991W        W32317  14.150  34.563   3.276
59992W        W32318  19.652   4.352  11.525
59993W        W32319  33.660  35.410   4.835
59994W        W32320   3.415  12.196  11.136
59995W        W32321  32.467  27.581   0.414
59996W        W32322  21.538  20.191   4.636
59997W        W32323  25.953  11.343  13.249
59998W        W32324  18.999   9.345   2.240
59999W        W32325   2.241   0.998  14.361
60000W        W32326  41.786  11.358  12.993
60001W        W32327  41.002   8.928   3.160
60002W        W32328  42.224  24.260  12.105
60003W        W32329  26.054  34.421   0.640
60004W        W32330  40.473  12.966   0.209
60005W        W32331  11.693  38.748   3.236
60006W        W32332  41.371   0.028  14.350
60007W        W32333  29.325  35.620  12.778
60008W        W32334  14.361  40.753   2.746
60009W        W32335  16.905  38.353  11.145
60010W        W32336  21.763   3.724   2.443
60011W        W32337   8.131  40.486  11.670
60012W        W32338   7.179  43.951   3.437
60013W        W32339  10.316   1.357   3.619
60014W        W32340  43.841  24.525   0.952
60015W        W32341   0.432  21.093  14.503
60016W        W32342  22.594  23.446   2.364
60017W        W32343  19.787  32.006  12.450
60018W        W32344   9.857  32.464  11.251
60019W        W32345  33.350   8.318   1.738
60020W        W32346  23.317  17.812  14.913
60021W        W32347  18.123  41.828   2.087
60022W        W32348  18.027  23.298  14.440
60023W        W32349  35.323   5.736  12.524
60024W        W32350  43.085  27.452   2.729
60025W        W32351  26.025  16.189   5.222
60026W        W32352  14.236  27.563   1.597
60027W        W32353  39.059   1.039  11.592
60028W        W32354  32.857  33.723   9.807
60029W        W32355  22.427  20.708  13.795
60030W        W32356  21.582  17.182   3.713
60031W        W32357   4.298  15.035   3.191
60032W        W32358  19.620  13.703  12.037
60033W        W32359  10.155  26.639   2.269
60034W        W32360  39.136  14.184  12.399
60035W        W32361   6.214  15.086   1.934
60036W        W32362  23.293   1.872  10.764
60037W        W32363  22.634   6.669  11.676
60038W        W32364   0.890  23.855  12.572
60039W        W32365  10.570  38.350   1.897
60040W        W32366  12.733  16.885  13.002
60041W        W32367  19.628  14.702   0.066
60042W        W32368  12.075  27.902  10.611
60043W        W32369  13.873  13.147  10.714
60044W        W32370  15.577  42.305   0.403
60045W        W32371  21.867   1.280  13.380
60046W        W32372  12.368  32.939  13.356
60047W        W32373  26.706  14.116   2.810
60048W        W32374  42.855  19.705   2.885
60049W        W32375  20.742  19.054   1.272
60050W        W32376  25.254   8.200  12.553
60051W        W32377  20.958  24.223  12.504
60052W        W32378  31.103  37.396   4.181
60053W        W32379   2.978   8.903  14.919
60054W        W32380  15.064   6.715   2.701
60055W        W32381  39.846  17.138   0.759
60056W        W32382  40.360  34.630  13.654
60057W        W32383  32.932   2.345   1.103
60058W        W32384  23.743   0.767  10.783
60059W        W32385   9.749  15.790  11.563
60060W        W32386   2.398   0.790   2.629
60061W        W32387  10.601  40.462  12.060
60062W        W32388  16.132  22.633  14.381
60063W        W32389   4.675  26.399   4.076
60064W        W32390  44.256  37.344   1.889
60065W        W32391  30.490  41.142   2.166
60066W        W32392  13.204  14.447  11.567
60067W        W32393  27.700  32.885   2.699
60068W        W32394   6.006  36.858  14.722
60069W        W32395  22.776  40.355  12.573
60070W        W32396  29.324  33.083  13.408
60071W        W32397  12.632  42.618   4.885
60072W        W32398   5.011  10.845   2.828
60073W        W32399   7.902   9.945   0.918
60074W        W32400  16.105   9.164  14.365
60075W        W32401  14.379   4.229  14.871
60076W        W32402  18.718  22.032  12.533
60077W        W32403   8.771   7.893  11.113
60078W        W32404  34.915   2.039  12.566
60079W        W32405  28.234   6.233   5.178
60080W        W32406   8.243   8.483  14.323
60081W        W32407  32.599  25.995  13.718
60082W        W32408  35.126  31.067   2.276
60083W        W32409  22.007  44.442   3.708
60084W        W32410  24.274  28.486   4.108
60085W        W32411  39.875   9.760  13.807
60086W        W32412  16.718   7.290  14.993
60087W        W32413  22.502  32.126  10.608
60088W        W32414  11.305  18.521  12.993
60089W        W32415  15.159   1.464   2.770
60090W        W32416  25.054  19.200  14.514
60091W        W32417  16.461  20.130  10.647
60092W        W32418   3.949  16.565   2.610
60093W        W32419   7.728   0.417   2.767
60094W        W32420  43.533  31.338  10.644
60095W        W32421  33.630   4.743   9.812
60096W        W32422  29.333  33.873   2.874
60097W        W32423  10.868   5.167  10.752
60098W        W32424  28.105  15.425   3.583
60099W        W32425   6.505  18.089   2.785
60100W        W32426   1.798  32.982   1.849
60101W        W32427   8.632  43.069  10.827
60102W        W32428  20.590  44.743  11.984
60103W        W32429  10.472  28.421  10.683
60104W        W32430   9.230  35.124   3.829
60105W        W32431  28.231  34.478   0.789
60106W        W32432  35.985  34.160  10.961
60107W        W32433  26.126  22.464  10.684
60108W        W32434  33.646  15.715   1.856
60109W        W32435  35.883  37.479  11.352
60110W        W32436  29.409  12.097  11.113
60111W        W32437  15.384  29.118   3.706
60112W        W32438  39.948  20.329   0.776
60113W        W32439  12.432  44.644   2.352
60114W        W32440  25.158  13.516  11.721
60115W        W32441  29.446  11.396  12.893
60116W        W32442  32.935  41.364   4.293
60117W        W32443  34.436   4.719  12.434
60118W        W32444  42.272  12.602  12.817
60119W        W32445  36.756  24.736   2.284
60120W        W32446  19.820   2.443   0.315
60121W        W32447  21.668  18.548   2.733
60122W        W32448  33.387  29.459   0.799
60123W        W32449  11.363   2.838  10.972
60124W        W32450  12.873  26.131   2.656
60125W        W32451  27.427  22.402   0.423
60126W        W32452  16.708  24.292   2.468
60127W        W32453  35.506   0.004  11.208
60128W        W32454  29.694   1.809   0.347
60129W        W32455  27.970  27.194  12.220
60130W        W32456  22.168   7.254  13.813
60131W        W32457  16.314  19.061  13.743
60132W        W32458  30.087  15.254  12.942
60133W        W32459  20.286  37.858  12.782
60134W        W32460  41.409  14.581   4.053
60135W        W32461  17.792  31.136  12.374
60136W        W32462  12.814   0.509  13.306
60137W        W32463   8.321  12.870  11.468
60138W        W32464  32.969  24.927  11.136
60139W        W32465  25.589  14.264   4.027
60140W        W32466  21.968   8.331  11.677
60141W        W32467  29.555   9.587  12.462
60142W        W32468  34.936  14.573   2.480
60143W        W32469   2.552  14.567   1.099
60144W        W32470  10.933  23.625   2.620
60145W        W32471  17.050  34.412  12.910
60146W        W32472  17.107  16.464  13.978
60147W        W32473   7.872   8.305   2.801
60148W        W32474  19.642  18.462  12.079
60149W        W32475  16.263  32.547  11.541
60150W        W32476  34.732  41.878  13.068
60151W        W32477  41.265   3.258   0.961
60152W        W32478  16.077  44.396  10.269
60153W        W32479  32.545  31.972   0.437
60154W        W32480  18.710  32.623  12.858
60155W        W32481  32.332   7.702   4.253
60156W        W32482  36.487  10.924  12.083
60157W        W32483  42.955  22.771   4.725
60158W        W32484  32.416  31.034  13.582
60159W        W32485  20.059   2.039   2.254
60160W        W32486  33.256  17.274   5.044
60161W        W32487  44.019  33.437  12.325
60162W        W32488  22.932   9.923   2.818
60163W        W32489  11.231  37.633  10.612
60164W        W32490   4.359  38.316  14.470
60165W        W32491  35.408   2.663   3.683
60166W        W32492  12.177  42.437  13.731
60167W        W32493  31.925  40.297  11.023
60168W        W32494  27.940  35.410   4.758
60169W        W32495  33.904  33.027  13.960
60170W        W32496  12.630  20.800   2.403
60171W        W32497   9.038  16.503  11.157
60172W        W32498  17.628  27.552   1.372
60173W        W32499  20.403   0.520   2.885
60174W        W32500  18.748  14.818  12.807
60175W        W32501  29.400  13.666   0.759
60176W        W32502  18.181   2.819   3.260
60177W        W32503  24.268  34.443  10.187
60178W        W32504   6.100  11.077   0.304
60179W        W32505   3.911   4.659  14.143
60180W        W32506  27.349  34.856  14.076
60181W        W32507  30.345  36.559  10.708
60182W        W32508  42.714  11.971  13.334
60183W        W32509  14.006  32.209  12.185
60184W        W32510  26.490   8.739  13.907
60185W        W32511  28.587  23.722   0.335
60186W        W32512   4.797  27.920  10.510
60187W        W32513   7.448  44.337  13.337
60188W        W32514  41.927  19.101   2.265
60189W        W32515  20.695  15.023  11.606
60190W        W32516  19.957  29.364  12.485
60191W        W32517  17.556  11.783   4.153
60192W        W32518  40.513  14.323   3.549
60193W        W32519  32.073  27.812   0.863
60194W        W32520   7.910  25.232  11.679
60195W        W32521  40.069  22.118  12.508
60196W        W32522  33.083   8.774  12.856
60197W        W32523   9.112  22.102  13.405
60198W        W32524  26.487  39.565   4.092
60199W        W32525  11.894  44.934  10.633
60200W        W32526  14.213   9.391   3.101
60201W        W32527  44.979   5.047   1.306
60202W        W32528  33.442  12.874  12.519
60203W        W32529  38.097  42.480   3.793
60204W        W32530  14.835  30.597   3.374
60205W        W32531  31.547  21.570   2.657
60206W        W32532  38.637   7.830   1.258
60207W        W32533   8.612  28.591   2.047
60208W        W32534  38.189   2.856  14.212
60209W        W32535  27.572  13.470  11.530
60210W        W32536   1.824   1.438  11.895
60211W        W32537  26.667  36.884   4.615
60212W        W32538  36.612  17.297  11.936
60213W        W32539  35.539  43.295  11.492
60214W        W32540  15.589  30.094  12.738
60215W        W32541  12.327  26.165  11.977
60216W        W32542  16.183   7.764   0.706
60217W        W32543  21.554  25.744   3.428
60218W        W32544   6.586  35.373   4.858
60219W        W32545   1.795   9.812   1.802
60220W        W32546  17.979  27.131  12.886
60221W        W32547  35.648  35.937  13.957
60222W        W32548  41.567   3.721   5.032
60223W        W32549  39.951  34.209   4.886
60224W        W32550   1.172  35.530  12.917
60225W        W32551  27.331  15.403   3.162
60226W        W32552   4.911  41.846  14.948
60227W        W32553  17.059  22.102   0.332
60228W        W32554   6.668  23.956   3.405
60229W        W32555  15.621  37.787  11.476
60230W        W32556  21.657  40.089  13.886
60231W        W32557  21.025  38.508   4.279
60232W        W32558  35.293  37.134   2.833
60233W        W32559  36.419  24.230   4.919
60234W        W32560   3.593  24.210  11.642
60235W        W32561  13.277  34.348   5.010
60236W        W32562  14.527  44.400  11.032
60237W        W32563   4.419  13.804   2.736
60238W        W32564  42.927  39.279  13.923
60239W        W32565  11.199  10.310   2.388
60240W        W32566   3.195  34.552   0.199
60241W        W32567   8.089  15.197  11.490
60242W        W32568  15.235   8.289  11.220
60243W        W32569  11.768  39.994   3.291
60244W        W32570   2.484  35.018  10.021
60245W        W32571   3.475  32.422   1.376
60246W        W32572  25.946  15.706  14.760
60247W        W32573  42.136   8.863  11.124
60248W        W32574  11.693  19.023  10.920
60249W        W32575  32.429  16.233  11.161
60250W        W32576  13.146  38.005  10.510
60251W        W32577  18.815   5.777  11.231
60252W        W32578  28.985   0.149  13.453
60253W        W32579  21.336  28.762  13.272
60254W        W32580   6.675  40.327   4.501
60255W        W32581  25.145  16.979   3.626
60256W        W32582  42.072   4.431   2.795
60257W        W32583  44.807   2.941   4.856
60258W        W32584  10.905  38.162  12.591
60259W        W32585   3.749  29.354  10.979
60260W        W32586  41.746   8.974  13.463
60261W        W32587  27.490  25.574  12.047
60262W        W32588   2.704  29.652  11.948
60263W        W32589  22.010  17.565   4.043
60264W        W32590  20.067  29.000   1.715
60265W        W32591  15.815  35.008   0.030
60266W        W32592  15.218   4.834   4.590
60267W        W32593  11.945  43.676   4.095
60268W        W32594  40.363  23.514   2.752
60269W        W32595  35.958   6.815  11.147
60270W        W32596  14.345  14.179  12.437
60271W        W32597  40.122  23.234  10.550
60272W        W32598   7.856   0.773  12.248
60273W        W32599   5.112  35.491  12.989
60274W        W32600  11.547  24.715  14.927
60275W        W32601   7.293  30.224   3.619
60276W        W32602  41.666  29.229   0.785
60277W        W32603  20.605  25.485   2.299
60278W        W32604  24.236  11.210   1.398
60279W        W32605   3.740  27.608   4.958
60280W        W32606  29.252  17.092  13.954
60281W        W32607  32.679  41.932   1.285
60282W        W32608  21.142  29.906  11.678
60283W        W32609  22.694  10.227  12.946
60284W        W32610  40.761   5.829  13.981
60285W        W32611  41.143  31.495   0.821
60286W        W32612  22.008  43.045   1.313
60287W        W32613  31.616  38.806   3.247
60288W        W32614  40.587   2.800  12.081
60289W        W32615   2.414   1.859   4.582
60290W        W32616  44.805  16.953  11.614
60291W        W32617  33.594  22.440   1.802
60292W        W32618  34.199   1.927  10.612
60293W        W32619  37.843  29.244  12.722
60294W        W32620  44.597  39.892   2.649
60295W        W32621   7.446  26.199   0.138
60296W        W32622  32.136  36.807   1.342
60297W        W32623  37.104  27.001   3.787
60298W        W32624  35.801  21.523   2.271
60299W        W32625  36.351   4.918  11.136
60300W        W32626  39.132   5.354  13.065
60301W        W32627  29.949  19.054   3.730
60302W        W32628  15.246  20.698   3.302
60303W        W32629  33.496  13.554  14.663
60304W        W32630  32.473  44.956   3.296
60305W        W32631   0.522  42.324   1.766
60306W        W32632  33.078   4.266  10.925
60307W        W32633   9.638   9.283  10.653
60308W        W32634  44.090  23.084   1.510
60309W        W32635  42.881  18.148  11.445
60310W        W32636  34.524  40.822  13.354
60311W        W32637  37.899  31.251   3.275
60312W        W32638  27.242  43.774   3.208
60313W        W32639  37.541   2.928   0.961
60314W        W32640  38.048  32.340  12.830
60315W        W32641   0.747   4.285  11.160
60316W        W32642  25.620  20.961  14.901
60317W        W32643   3.226  22.553  10.617
60318W        W32644   3.508  29.399   3.053
60319W        W32645  32.565  25.649   3.786
60320W        W32646  35.113  41.275  12.248
60321W        W32647   8.009  34.491  10.613
60322W        W32648  20.956  15.196   0.755
60323W        W32649   1.212  11.409  12.474
60324W        W32650   7.247  44.391  11.995
60325W        W32651  11.580  38.369  14.803
60326W        W32652  29.715  17.648   1.516
60327W        W32653  34.790  27.542  14.071
60328W        W32654  31.476  15.079   2.905
60329W        W32655  21.047  15.102   0.242
60330W        W32656  18.054  33.013  12.413
60331W        W32657  32.328  40.115  11.965
60332W        W32658  24.145  37.597   1.186
60333W        W32659  20.077  27.998   4.161
60334W        W32660  22.957  20.621  13.898
60335W        W32661  16.607  24.997   4.201
60336W        W32662  39.456  44.769   0.010
60337W        W32663  40.505   1.843   0.316
60338W        W32664  40.750   1.834  14.839
60339W        W32665   0.625  24.421   2.377
60340W        W32666  38.896  38.258  10.974
60341W        W32667  23.774  12.522   1.145
60342W        W32668  11.729   3.758  12.813
60343W        W32669  21.052   9.278  12.512
60344W        W32670  19.962  36.129   1.233
60345W        W32671  14.726  33.461  11.188
60346W        W32672  20.789  41.490   2.340
60347W        W32673  20.134  18.227  12.575
60348W        W32674   5.748  37.551  13.553
60349W        W32675   5.965  38.906   1.738
60350W        W32676  22.535  14.796   2.271
60351W        W32677   4.866   9.320   3.240
60352W        W32678  31.013  12.341   3.181
60353W        W32679  36.925  30.609  12.079
60354W        W32680  14.053  21.934   4.158
60355W        W32681   7.601  24.189  13.783
60356W        W32682  22.001   8.479  14.376
60357W        W32683  13.744  19.231   0.959
60358W        W32684  16.319  11.884   1.924
60359W        W32685   0.886  30.422   9.676
60360W        W32686  23.118  19.970   2.827
60361W        W32687  18.855  32.329  12.457
60362W        W32688  29.609  26.673  11.578
60363W        W32689   4.450   1.527  14.820
60364W        W32690  23.896   0.149   3.373
60365W        W32691  39.128  21.157  14.854
60366W        W32692  24.386  32.608   1.409
60367W        W32693  27.616   5.940  13.828
60368W        W32694  44.526  36.011  13.387
60369W        W32695  16.541  10.772   1.946
60370W        W32696  44.946  22.567  13.614
60371W        W32697  33.036  27.009   1.886
60372W        W32698  38.033  20.083   2.015
60373W        W32699  29.561  21.521   0.075
60374W        W32700  13.093  16.798  12.480
60375W        W32701  40.908  14.334   2.228
60376W        W32702  37.486  14.980   3.394
60377W        W32703  22.503  10.034   4.096
60378W        W32704   0.898  22.261  13.929
60379W        W32705   9.283  34.884   1.396
60380W        W32706  26.714  33.504   2.808
60381W        W32707   7.741   6.898  10.748
60382W        W32708   8.940  29.928  10.659
60383W        W32709   3.502  44.878  13.836
60384W        W32710  43.878  39.391   2.119
60385W        W32711  24.652   3.406   5.024
60386W        W32712  17.660   9.573  12.860
60387W        W32713  43.094   9.812   4.076
60388W        W32714  35.353  34.407   2.438
60389W        W32715  34.887  41.892  13.704
60390W        W32716  17.728  27.612  10.760
60391W        W32717   2.827   9.254  13.255
60392W        W32718   9.815  40.268  12.461
60393W        W32719   5.929  21.257   1.884
60394W        W32720  23.028  27.055   1.911
60395W        W32721  41.062   8.272  13.983
60396W        W32722  31.598  31.602   2.915
60397W        W32723  34.548  30.443  11.715
60398W        W32724   2.844  23.330   0.439
60399W        W32725  15.513  25.039  12.427
60400W        W32726  38.080  24.231   4.703
60401W        W32727  33.140  35.269   2.173
60402W        W32728  22.942  12.344   2.834
60403W        W32729  23.621   7.408  13.734
60404W        W32730  11.307  18.692  13.897
60405W        W32731  11.900  29.961  11.421
60406W        W32732  15.247  22.949  13.180
60407W        W32733  28.330  22.483   3.653
60408W        W32734  28.050   2.496   2.262
60409W        W32735  36.710  44.299  14.175
60410W        W32736   4.754  29.371  14.842
60411W        W32737  42.899   7.119   0.470
60412W        W32738   3.047  43.357   0.280
60413W        W32739  32.511  44.432   4.214
60414W        W32740  27.684  27.692  14.248
60415W        W32741  26.099   9.413   0.996
60416W        W32742  13.309  16.096  10.942
60417W        W32743  21.919   4.808   2.506
60418W        W32744  42.348  33.362   0.589
60419W        W32745   3.459  10.783  14.762
60420W        W32746   3.307   8.835   1.451
60421W        W32747  23.474   4.370   0.931
60422W        W32748   3.812   2.788  13.068
60423W        W32749  22.226  40.647   3.190
60424W        W32750  24.220  12.344  12.894
60425W        W32751  10.669  23.003   5.028
60426W        W32752   7.948  18.146  11.578
60427W        W32753  26.272   2.419   4.210
60428W        W32754  22.055  31.462  13.477
60429W        W32755  35.160  23.184   2.060
60430W        W32756   9.785  42.002  10.655
60431W        W32757   0.976  15.109  13.972
60432W        W32758  30.710   9.373  14.323
60433W        W32759  22.644  43.946  10.760
60434W        W32760   4.277  39.730  14.933
60435W        W32761   2.310  14.559   4.526
60436W        W32762   9.750  27.230  11.685
60437W        W32763  44.247  36.935   2.261
60438W        W32764  33.521   1.193   2.339
60439W        W32765  27.525  14.095  12.496
60440W        W32766  11.365  37.916   2.912
60441W        W32767  19.003  29.489   3.272
60442W        W32768  22.009  25.636   3.187
60443W        W32769  36.957  14.138  13.033
60444W        W32770  19.745  23.880   4.134
60445W        W32771  27.915  37.525   4.635
60446W        W32772  37.170  30.321  12.965
60447W        W32773  28.625  25.651  11.643
60448W        W32774  35.309  23.514  12.914
60449W        W32775  35.961  44.826  11.015
60450W        W32776  41.084  42.584  11.528
60451W        W32777   9.304  27.470  14.505
60452W        W32778  15.592   1.241   3.621
60453W        W32779  30.558   9.602   1.384
60454W        W32780   8.229  13.648  13.030
60455W        W32781  33.396  14.731  12.014
60456W        W32782   5.483  12.244  12.096
60457W        W32783  22.754   5.526   4.234
60458W        W32784  39.719  31.626   1.789
60459W        W32785  18.801  21.128  10.182
60460W        W32786  20.586  33.446  13.577
60461W        W32787  37.462  25.120   2.872
60462W        W32788  39.451  33.993   0.362
60463W        W32789  27.701  19.029  12.887
60464W        W32790  37.242  31.998   1.490
60465W        W32791  19.045  13.213   0.500
60466W        W32792  15.949  39.897  13.431
60467W        W32793  14.038   7.264  12.681
60468W        W32794  19.312   2.248   3.839
60469W        W32795   1.930  33.091   0.909
60470W        W32796  19.096  33.638   0.794
60471W        W32797  26.465   3.202  12.055
60472W        W32798  41.975  29.015   2.554
60473W        W32799  30.893  36.843   1.668
60474W        W32800  30.769   0.236   3.874
60475W        W32801  42.489   0.460  13.438
60476W        W32802   1.723  31.143   3.028
60477W        W32803   4.969   5.050  11.014
60478W        W32804  40.604  44.547   2.738
60479W        W32805  33.474   3.328   3.595
60480W        W32806  38.509   3.241  11.986
60481W        W32807   6.808  22.022   3.417
60482W        W32808  17.377   6.884  12.533
60483W        W32809   2.906   6.110  12.869
60484W        W32810  32.809  10.171  10.823
60485W        W32811   6.720  26.434  14.885
60486W        W32812   9.708  31.958   4.378
60487W        W32813  34.071  19.080   1.863
60488W        W32814  38.134  17.826   2.765
60489W        W32815  19.021   9.781  13.878
60490W        W32816  41.362  10.672  11.089
60491W        W32817  15.632   8.999   2.635
60492W        W32818  29.112  22.158   2.959
60493W        W32819  15.839  23.748  12.770
60494W        W32820  20.087  25.203  10.257
60495W        W32821  44.749  20.154  14.915
60496W        W32822  41.764  35.341  11.560
60497W        W32823  19.356  30.345   0.281
60498W        W32824  33.852  33.337   5.099
60499W        W32825  41.071  14.554  11.555
60500W        W32826  19.075   4.879  10.413
60501W        W32827  34.946  39.292  13.513
60502W        W32828  16.648  19.435   5.345
60503W        W32829  20.140  41.819   5.081
60504W        W32830  16.345  22.329  13.449
60505W        W32831  20.142  32.544   1.902
60506W        W32832  33.622   1.807  14.401
60507W        W32833  40.869  24.386  11.982
60508W        W32834  43.460  31.010   3.140
60509W        W32835  42.012  19.114  12.014
60510W        W32836  22.863  17.693   4.641
60511W        W32837   7.491  44.862  11.980
60512W        W32838  37.549  24.712  12.841
60513W        W32839   7.066   7.668   2.701
60514W        W32840  19.208  34.095   3.830
60515W        W32841  28.132  10.802  10.944
60516W        W32842  12.655  16.773   0.873
60517W        W32843   5.746  28.240   3.225
60518W        W32844  41.810  14.822   4.312
60519W        W32845  40.975   3.395  14.014
60520W        W32846  25.049  42.952   0.645
60521W        W32847   1.194   3.171  11.589
60522W        W32848  14.708  37.360   0.360
60523W        W32849   0.338  43.495   3.695
60524W        W32850  10.485  19.147  12.038
60525W        W32851  15.187  41.782  13.140
60526W        W32852  19.105  21.545  11.976
60527W        W32853  23.654  23.163  10.633
60528W        W32854  13.316  26.326   4.673
60529W        W32855  31.402  20.573   1.749
60530W        W32856  21.149  24.232  13.309
60531W        W32857   0.506  10.967  12.017
60532W        W32858  34.134   3.858   0.717
60533W        W32859  31.462  20.658   3.657
60534W        W32860  15.829  26.658   4.665
60535W        W32861  11.112  15.682  12.429
60536W        W32862   1.269   2.420  11.126
60537W        W32863   1.355  31.153   4.225
60538W        W32864  37.513  33.788  10.402
60539W        W32865  41.588   4.753  12.533
60540W        W32866  21.098  25.596  11.398
60541W        W32867  22.777  29.605   9.936
60542W        W32868  13.671  37.893  12.644
60543W        W32869  21.437  11.117  14.044
60544W        W32870  35.042  44.194   4.239
60545W        W32871  13.801  26.198  13.131
60546W        W32872  38.514  30.629  12.410
60547W        W32873  30.998  42.067   3.222
60548W        W32874  42.887  15.760  11.524
60549W        W32875  37.241  36.607   2.823
60550W        W32876  41.407  23.045  10.691
60551W        W32877  36.852  31.396   2.314
60552W        W32878   4.516   8.843  10.713
60553W        W32879  27.168   4.392  12.601
60554W        W32880  17.040  32.854   2.733
60555W        W32881  29.530  39.349  11.789
60556W        W32882  29.380  31.742   3.607
60557W        W32883  15.103  12.236  11.191
60558W        W32884  44.509  36.053   4.551
60559W        W32885  28.575  23.506  14.792
60560W        W32886  39.767  17.706   4.196
60561W        W32887   9.200  32.206   1.729
60562W        W32888  27.620  18.692  12.495
60563W        W32889  26.471  29.018   1.710
60564W        W32890  29.394  35.712   3.812
60565W        W32891  21.933   4.897   4.382
60566W        W32892  24.050  18.599  10.208
60567W        W32893  32.788  24.506  12.032
60568W        W32894  29.211  12.747   2.898
60569W        W32895   9.745  26.261   4.249
60570W        W32896  27.627   5.788  10.655
60571W        W32897   0.392  20.107  11.617
60572W        W32898  36.342   4.444  11.586
60573W        W32899   6.891  36.930  14.364
60574W        W32900  14.650   2.329   1.446
60575W        W32901  27.543  27.104  11.952
60576W        W32902   3.167  28.950  14.441
60577W        W32903  36.396  13.274   4.159
60578W        W32904  25.154  12.600  13.499
60579W        W32905   8.390  19.149   1.184
60580W        W32906  44.577  26.885   4.136
60581W        W32907  10.378  32.083   4.915
60582W        W32908  31.834  12.058   1.262
60583W        W32909  39.169  26.462  12.849
60584W        W32910  23.520  33.492  12.491
60585W        W32911  35.472  29.900   1.873
60586W        W32912   9.129  10.289  14.425
60587W        W32913   6.007  16.165  12.256
60588W        W32914  27.241  20.793  12.446
60589W        W32915  14.825  35.374  14.299
60590W        W32916  15.994  18.134  14.358
60591W        W32917   4.702  36.817   4.360
60592W        W32918  26.198  43.157   2.853
60593W        W32919  24.645  24.577  14.026
60594W        W32920  12.696   7.337  10.459
60595W        W32921  35.436  36.439   3.631
60596W        W32922  37.158  32.254   5.064
60597W        W32923  38.537  38.919  13.040
60598W        W32924  28.145  19.661  13.373
60599W        W32925  27.463  40.510  10.382
60600W        W32926  39.941  42.974   0.378
60601W        W32927  23.015  17.238  12.792
60602W        W32928  13.071  19.153  12.004
60603W        W32929  24.418  10.146  11.541
60604W        W32930  12.769  33.684  10.737
60605W        W32931  37.475  31.462   1.674
60606W        W32932  25.704   7.647   0.595
60607W        W32933   9.166   1.528  13.875
60608W        W32934  34.890  28.787   4.605
60609W        W32935  21.760   9.943  14.991
60610W        W32936  28.136  28.418  13.064
60611W        W32937  41.849  23.350   2.387
60612W        W32938  25.540  44.009   4.145
60613W        W32939  32.444   3.139   2.372
60614W        W32940   1.282  24.242  14.816
60615W        W32941  33.004  34.770  12.039
60616W        W32942   6.208  41.988   3.544
60617W        W32943   6.483  27.160   2.695
60618W        W32944  18.790  13.514  12.639
60619W        W32945  14.049   5.855   4.938
60620W        W32946  34.127  34.040   1.338
60621W        W32947   6.970  21.316   0.903
60622W        W32948   0.499  30.529   3.728
60623W        W32949  10.748  42.450   2.098
60624W        W32950  36.509  35.376   4.533
60625W        W32951  24.964  38.478  11.716
60626W        W32952  36.145   3.620  11.088
60627W        W32953  44.365  10.151   0.265
60628W        W32954  39.818  19.715  14.980
60629W        W32955   6.208   8.649   0.315
60630W        W32956  41.829  29.440   4.274
60631W        W32957  35.481  19.299  13.028
60632W        W32958  38.013   1.697  13.357
60633W        W32959   4.776  21.195   2.207
60634W        W32960  15.507  17.227   3.178
60635W        W32961  39.448  26.458   3.274
60636W        W32962   6.802   6.254   2.336
60637W        W32963   7.215  23.957  14.062
60638W        W32964  12.278  16.546  11.949
60639W        W32965  12.416  33.200   0.478
60640W        W32966  28.449  40.374   3.129
60641W        W32967  15.823  10.206   3.625
60642W        W32968  36.580  27.734  10.624
60643W        W32969  20.235   8.839   4.952
60644W        W32970  18.046  42.327   1.227
60645W        W32971  37.531  10.947  13.781
60646W        W32972  27.021  26.108   3.219
60647W        W32973  15.875  30.678  11.952
60648W        W32974  42.781  31.005   2.390
60649W        W32975  31.396   6.187  11.503
60650W        W32976   0.236  16.084  13.387
60651W        W32977  32.648  18.979   2.243
60652W        W32978  30.870   6.484   0.842
60653W        W32979  26.747  17.218   4.681
60654W        W32980  35.572  16.717  11.081
60655W        W32981   0.289  30.472   0.851
60656W        W32982   0.843  18.046   3.696
60657W        W32983  35.409  10.576   2.276
60658W        W32984   6.830  20.247  11.635
60659W        W32985   8.385   6.265   0.235
60660W        W32986  39.073  44.791   3.895
60661W        W32987  15.180  21.042  13.042
60662W        W32988  37.369  28.523  12.467
60663W        W32989  22.832   7.304   1.535
60664W        W32990  40.986  23.321  13.033
60665W        W32991   8.286  37.464   1.899
60666W        W32992  23.759  13.228   3.529
60667W        W32993  16.226  31.429  11.037
60668W        W32994  21.086  36.075   4.895
60669W        W32995  32.575   9.818   3.574
60670W        W32996  14.319  41.777   3.629
60671W        W32997   2.916   1.809   0.209
60672W        W32998  20.881  13.186   2.220
60673W        W32999   8.274  23.488  14.779
60674W        W33000   3.346   4.936   4.278
60675W        W33001  30.331   5.373   4.362
60676W        W33002  13.190  32.673   4.002
60677W        W33003  35.123   9.712  12.929
60678W        W33004  20.232   9.332  13.883
60679W        W33005  35.183  15.331  12.468
60680W        W33006  28.651  38.372   3.248
60681W        W33007  28.458  12.677  10.999
60682W        W33008  44.772  38.734  14.377
60683W        W33009  20.788  38.658   3.496
60684W        W33010  44.846  14.323  14.254
60685W        W33011  41.273  32.378   1.069
60686W        W33012  33.105  43.054   1.835
60687W        W33013  20.549  34.050  10.764
60688W        W33014  30.859  30.466  14.203
60689W        W33015  32.617  22.617   4.197
60690W        W33016  32.018  43.442   3.791
60691W        W33017  36.451  26.436   1.857
60692W        W33018  30.446  19.678  10.801
60693W        W33019  18.736   1.357  12.131
60694W        W33020  23.093  34.863  10.691
60695W        W33021   7.854  44.885   0.731
60696W        W33022  23.533  40.403  10.571
60697W        W33023  16.249  29.103   4.087
60698W        W33024  21.611   3.388  12.922
60699W        W33025  13.327  15.678   4.150
60700W        W33026  22.589  23.954   2.363
60701W        W33027   2.733   1.810  14.726
60702W        W33028  41.978   4.355   0.230
60703W        W33029   2.421  27.515  14.566
60704W        W33030  28.048  14.513  11.128
60705W        W33031  36.779   2.373   3.554
60706W        W33032  30.729  39.581  13.396
60707W        W33033  30.407  35.032   5.379
60708W        W33034  33.302  18.586  14.956
60709W        W33035  40.394  22.942  14.071
60710W        W33036  36.000  40.782  14.979
60711W        W33037  16.013  34.376   3.215
60712W        W33038  35.385   5.844  13.416
60713W        W33039  42.616   5.447  12.492
60714W        W33040  26.591  15.680   4.640
60715W        W33041   3.299   6.469   4.104
60716W        W33042  15.313   1.184   0.459
60717W        W33043   9.849  26.173  13.434
60718W        W33044  43.308  19.766   5.075
60719W        W33045   5.151  10.312  14.380
60720W        W33046   1.576  30.083  11.163
60721W        W33047  35.888   9.172   4.068
60722W        W33048  15.395  10.371  13.934
60723W        W33049  12.563  43.097   0.861
60724W        W33050  12.505  26.556   4.675
60725W        W33051  21.836  35.071  11.149
60726W        W33052  17.143  17.070   0.740
60727W        W33053  44.841   6.215  11.584
60728W        W33054  34.769  12.571  11.136
60729W        W33055   5.925  17.188   4.864
60730W        W33056  40.727  16.709   4.346
60731W        W33057   8.847  12.843  14.351
60732W        W33058   8.758  14.344   4.678
60733W        W33059  14.281  22.119  14.510
60734W        W33060  30.202  31.939   0.425
60735W        W33061  21.728   8.467   0.993
60736W        W33062  31.502  34.538  12.423
60737W        W33063   5.986  22.962   1.970
60738W        W33064  32.419  23.904  14.912
60739W        W33065  35.495   9.029   2.444
60740W        W33066   8.267  10.233  14.664
60741W        W33067   9.936  17.695   1.439
60742W        W33068  26.676  20.584  13.573
60743W        W33069  29.043  31.819   0.670
60744W        W33070  15.348  22.023   3.862
60745W        W33071   0.978  25.607   4.342
60746W        W33072   6.414   1.972   1.062
60747W        W33073   2.280  25.232   4.964
60748W        W33074  21.478  32.029  10.505
60749W        W33075  29.563  23.708  13.333
60750W        W33076   5.825  26.576   2.543
60751W        W33077  26.153  23.166  12.787
60752W        W33078  23.095   7.955  11.528
60753W        W33079  24.032   2.712   1.370
60754W        W33080   3.921  30.189   2.678
60755W        W33081  29.263  24.581  12.524
60756W        W33082  27.067  34.464  11.458
60757W        W33083  10.830  36.194  14.208
60758W        W33084  12.334  22.789   2.947
60759W        W33085  32.792   2.347   3.281
60760W        W33086  30.194  21.349   9.920
60761W        W33087  28.846  38.250   2.307
60762W        W33088   7.043  13.445  13.798
60763W        W33089   3.719   7.411   3.749
60764W        W33090  42.809  18.606  11.695
60765W        W33091  38.124  41.586  12.754
60766W        W33092  33.172  44.464  12.044
60767W        W33093  35.334  35.245  10.672
60768W        W33094  15.298  40.716  10.678
60769W        W33095  40.353  21.970  14.220
60770W        W33096  16.619  42.444  13.533
60771W        W33097   5.493  17.165   0.303
60772W        W33098  36.825   4.466  11.671
60773W        W33099  23.793  27.368  11.623
60774W        W33100   9.476   6.298  13.036
60775W        W33101  18.131   3.411  14.493
60776W        W33102  30.971  13.748   4.814
60777W        W33103  22.659  33.495   1.235
60778W        W33104   9.102  29.410  10.757
60779W        W33105  11.407  12.172   0.488
60780W        W33106  31.170  16.092  13.462
60781W        W33107  15.387  16.596  12.594
60782W        W33108  24.278   9.792  11.896
60783W        W33109  12.098  24.041   4.685
60784W        W33110  12.793  37.591  13.852
60785W        W33111  10.695  20.330   1.261
60786W        W33112  31.889  18.802   2.362
60787W        W33113  43.436  29.431  11.119
60788W        W33114  23.188  40.973   3.339
60789W        W33115  25.928  31.364   1.782
60790W        W33116  37.929   1.873   4.351
60791W        W33117   8.148  21.746   1.687
60792W        W33118  32.018  42.375   1.161
60793W        W33119  33.600  27.179   2.644
60794W        W33120   5.769  41.612   0.748
60795W        W33121  23.231  33.355   3.212
60796W        W33122  22.939  34.052   2.880
60797W        W33123  40.677  27.572   3.416
60798W        W33124  37.042  41.319  13.920
60799W        W33125   0.843  27.514   4.131
60800W        W33126   6.863  22.213  11.625
60801W        W33127  27.870  11.778   2.733
60802W        W33128   4.864  12.543  13.921
60803W        W33129   4.442   3.244  13.914
60804W        W33130  44.864   0.923   1.412
60805W        W33131  42.051   7.342   0.736
60806W        W33132   7.902  41.755   4.543
60807W        W33133  14.239  16.976  11.637
60808W        W33134   1.346  28.394   4.451
60809W        W33135  14.171  16.596  13.941
60810W        W33136  42.767   8.534   0.759
60811W        W33137   6.501   2.727  13.604
60812W        W33138   5.419  30.024   2.704
60813W        W33139   3.813  30.403  11.619
60814W        W33140   8.758  43.022  14.981
60815W        W33141   7.394  16.853   2.287
60816W        W33142  14.140  22.916   4.422
60817W        W33143  17.130  13.637  13.484
60818W        W33144  23.645  43.248  11.385
60819W        W33145  24.247  12.690   4.826
60820W        W33146  39.796  43.816   1.377
60821W        W33147  25.105  19.042   1.886
60822W        W33148  22.527  25.940  14.888
60823W        W33149  35.418  38.018   1.831
60824W        W33150   2.421  17.662   0.319
60825W        W33151   8.825  11.852  12.145
60826W        W33152  43.605  31.700   0.175
60827W        W33153  29.952  10.918   0.825
60828W        W33154  35.947  15.364  13.840
60829W        W33155  22.274  17.100   4.152
60830W        W33156  22.169   9.864   0.813
60831W        W33157  40.544  12.632   3.256
60832W        W33158  19.118  27.037   4.529
60833W        W33159  31.595  24.571  14.538
60834W        W33160  24.058  18.645  11.764
60835W        W33161  33.329   9.243   0.902
60836W        W33162   1.406  17.620  11.445
60837W        W33163   1.626  13.220  14.954
60838W        W33164   9.589  38.584  11.167
60839W        W33165  26.612  27.521   0.227
60840W        W33166  23.429  43.766  13.997
60841W        W33167  40.434  32.536   4.587
60842W        W33168  43.293  26.723   4.218
60843W        W33169   2.974  17.132   3.373
60844W        W33170  43.316  43.313  11.379
60845W        W33171  32.225   8.351   4.190
60846W        W33172  36.083   5.939  14.571
60847W        W33173  41.092  28.018   0.966
60848W        W33174  12.168  29.473   1.466
60849W        W33175   8.931   2.299  14.320
60850W        W33176  17.094  27.479  13.175
60851W        W33177  26.231  36.031   1.891
60852W        W33178  35.196  28.456   1.763
60853W        W33179   4.696   9.272  13.899
60854W        W33180  43.333   7.122  12.833
60855W        W33181   7.410   3.332   4.871
60856W        W33182  29.289   6.047   2.156
60857W        W33183  22.745  22.306  13.837
60858W        W33184  23.049  34.838   4.232
60859W        W33185  12.854  40.440  13.525
60860W        W33186  42.326  41.011   1.820
60861W        W33187  41.900  16.177  10.736
60862W        W33188  43.769   4.858   2.925
60863W        W33189  11.723  18.990  10.020
60864W        W33190  14.904  43.763  11.081
60865W        W33191  34.087  36.410   2.176
60866W        W33192  24.320  12.677   0.002
60867W        W33193  42.312  29.697  12.428
60868W        W33194  34.755  18.309   3.624
60869W        W33195  17.453   5.219   1.813
60870W        W33196   4.398   2.269  12.027
60871W        W33197  35.482  36.275   4.204
60872W        W33198  26.185  21.966   4.719
60873W        W33199  39.936  11.866   1.789
60874W        W33200  26.694  12.420  11.445
60875W        W33201  42.276  13.739  14.963
60876W        W33202   4.186  16.084   0.459
60877W        W33203  43.201  22.030  14.095
60878W        W33204  12.095  17.730  10.628
60879W        W33205   5.317  28.709  12.911
60880W        W33206  28.147   9.355  11.488
60881W        W33207  31.372  28.407  13.316
60882W        W33208  19.094  31.633  13.777
60883W        W33209  24.207  14.626   3.645
60884W        W33210  35.792  15.679  10.648
60885W        W33211  25.839  40.848   2.235
60886W        W33212   0.443  25.598   0.956
60887W        W33213   3.138   1.564  12.453
60888W        W33214  44.976  20.206  13.534
60889W        W33215  40.524  42.862   4.091
60890W        W33216  32.389   7.927   2.866
60891W        W33217  15.554  26.235   4.056
60892W        W33218  43.058  14.244   1.315
60893W        W33219   8.160   3.417   2.004
60894W        W33220  29.608   0.432   4.546
60895W        W33221  37.624   2.155   3.191
60896W        W33222  29.086  44.028   1.930
60897W        W33223   7.166  40.387   4.349
60898W        W33224  39.889  42.985  11.068
60899W        W33225  11.188  38.015  13.904
60900W        W33226  39.120  29.051  12.110
60901W        W33227  31.660   4.314  13.546
60902W        W33228  35.135  24.808   4.189
60903W        W33229  36.860  27.543  12.876
60904W        W33230   6.372  14.360   3.995
60905W        W33231   9.822  29.995  12.978
60906W        W33232  23.966  35.967   4.366
60907W        W33233  27.760  11.343   0.426
60908W        W33234  44.034  21.227  14.359
60909W        W33235  37.572  30.536   4.528
60910W        W33236  13.998   4.182  11.161
60911W        W33237   0.195  11.741   0.873
60912W        W33238  41.808   1.832   3.330
60913W        W33239  42.153  29.741  13.454
60914W        W33240  30.391  12.862   1.395
60915W        W33241  39.994  12.359   0.778
60916W        W33242  25.146  14.639  10.294
60917W        W33243   2.138  36.149   0.750
60918W        W33244  34.892  30.101  11.117
60919W        W33245   5.339  34.496  12.334
60920W        W33246  15.696   5.783  11.094
60921W        W33247  23.359  32.098   4.071
60922W        W33248  25.266  10.838  12.006
60923W        W33249  29.899  32.362   0.934
60924W        W33250  41.244  26.587  13.536
60925W        W33251  44.050   9.398  12.404
60926W        W33252  17.627   2.416   3.340
60927W        W33253  29.282   2.781  10.736
60928W        W33254   7.290  37.808  11.752
60929W        W33255  12.974  27.552   5.506
60930W        W33256   5.443  37.985   4.047
60931W        W33257  36.896  31.163  13.277
60932W        W33258  18.731  33.905   3.899
60933W        W33259  35.617  27.880   0.996
60934W        W33260  38.324  34.276  12.106
60935W        W33261  43.914   3.700   2.207
60936W        W33262  44.764  40.059  10.400
60937W        W33263  14.034  27.565   4.947
60938W        W33264  25.998  17.719   4.817
60939W        W33265  39.370  30.639  11.850
60940W        W33266  13.256  21.495   0.335
60941W        W33267  31.434  13.628  11.277
60942W        W33268  17.847  17.691   3.549
60943W        W33269  29.912   7.219  10.705
60944W        W33270  35.905  24.427  13.313
60945W        W33271  42.836  33.271  14.889
60946W        W33272  37.329  41.476  12.482
60947W        W33273  36.072   8.490  10.497
60948W        W33274  33.003   7.757  12.453
60949W        W33275  25.539  19.035  13.248
60950W        W33276  35.993  42.048  13.669
60951W        W33277  28.148  13.875   9.912
60952W        W33278   8.420   7.768  13.796
60953W        W33279  39.460  26.531  10.708
60954W        W33280   9.245  41.806   4.146
60955W        W33281  42.859  32.919  12.437
60956W        W33282  39.371  32.504   1.680
60957W        W33283   0.431  42.902  11.044
60958W        W33284   1.828  29.536   1.400
60959W        W33285  30.544  18.943  11.246
60960W        W33286  34.480   5.374   4.654
60961W        W33287  41.891  40.557   0.725
60962W        W33288  32.594  24.952  14.781
60963W        W33289   0.046   4.339  12.457
60964W        W33290  12.195  21.924   1.931
60965W        W33291  24.560  28.640   4.529
60966W        W33292  40.798  29.116  11.508
60967W        W33293  30.994  23.402   0.022
60968W        W33294  14.555  15.654  13.895
60969W        W33295  15.261  21.964  12.884
60970W        W33296  15.230  44.439   3.280
60971W        W33297  43.510   1.360  13.411
60972W        W33298  21.333  13.191  11.678
60973W        W33299   0.119  10.848   1.121
60974W        W33300  35.161  10.322  11.135
60975W        W33301  19.621  42.588   4.966
60976W        W33302  29.412   6.709  13.425
60977W        W33303  15.379  13.634   2.958
60978W        W33304  22.572   5.955   1.932
60979W        W33305  36.792  16.575   2.779
60980W        W33306  44.132   8.904  12.506
60981W        W33307  30.065  36.507  12.066
60982W        W33308  13.087  18.715   2.642
60983W        W33309  13.682   4.165   4.613
60984W        W33310  37.057   5.343   1.238
60985W        W33311  24.111  15.377   0.458
60986W        W33312  38.910   0.010   0.814
60987W        W33313  25.765  34.340  11.652
60988W        W33314  10.491  39.934  13.581
60989W        W33315  33.229  20.445  12.444
60990W        W33316   0.343  18.795   1.195
60991W        W33317  27.572  36.999  10.486
60992W        W33318  40.313  10.277  13.545
60993W        W33319   1.791   5.407   4.502
60994W        W33320   5.954  39.102  11.441
60995W        W33321  32.179   7.836  13.686
60996W        W33322   2.827  37.993   2.670
60997W        W33323   1.381  36.999   0.191
60998W        W33324   7.477  16.330  10.684
60999W        W33325  26.924  10.273   1.217
61000W        W33326  20.079  42.417   1.171
61001W        W33327  33.356   2.688  11.979
61002W        W33328  26.116  28.990  10.736
61003W        W33329  43.319  17.280   3.817
61004W        W33330  20.071  28.013  10.707
61005W        W33331  32.104  26.886   1.797
61006W        W33332   8.152  20.601  14.302
61007W        W33333  31.096  29.337   2.757
61008W        W33334   9.333  44.842  10.736
61009W        W33335   1.341  19.561  11.992
61010W        W33336  24.586   0.953  12.078
61011W        W33337  23.505  19.196   4.844
61012W        W33338  23.968  28.167  10.575
61013W        W33339  29.080  14.846   4.881
61014W        W33340  43.608  15.469  10.993
61015W        W33341  19.187  42.281  11.432
61016W        W33342  41.473  10.032  12.010
61017W        W33343   5.203  24.985   2.258
61018W        W33344  27.168  14.156  12.020
61019W        W33345  24.274   1.862  14.819
61020W        W33346  38.920  30.481   0.551
61021W        W33347  32.160   7.506   1.466
61022W        W33348  22.234  27.005   2.416
61023W        W33349  13.616   1.537   3.278
61024W        W33350  27.503  22.086  10.469
61025W        W33351  44.351  34.106   3.173
61026W        W33352   1.172  29.127  10.994
61027W        W33353  20.032   9.024   0.298
61028W        W33354  14.361   3.745   2.840
61029W        W33355  44.412   8.748  10.298
61030W        W33356  41.023  43.819   3.292
61031W        W33357  13.137  38.477  13.744
61032W        W33358  26.075  21.488  10.392
61033W        W33359  24.937  28.054  14.743
61034W        W33360  36.171  32.531   2.812
61035W        W33361   7.906  28.184  14.891
61036W        W33362   3.947  14.095   1.502
61037W        W33363  17.313  40.857   3.196
61038W        W33364  19.113  17.750   4.167
61039W        W33365  16.186  41.726  13.553
61040W        W33366   6.738  41.533  10.381
61041W        W33367  17.142  32.580   4.083
61042W        W33368  34.909   3.913  11.610
61043W        W33369  25.261  31.523   2.943
61044W        W33370   8.346  22.720   2.831
61045W        W33371  42.265  23.074   1.831
61046W        W33372   2.437  13.608  14.826
61047W        W33373  27.008  34.531   4.479
61048W        W33374   2.224  20.039  11.425
61049W        W33375  24.696  16.756   3.748
61050W        W33376  14.188  38.202   4.511
61051W        W33377  18.285  15.595   1.908
61052W        W33378  26.047  26.878  12.831
61053W        W33379  41.893  28.947   1.520
61054W        W33380  17.637   1.974  10.635
61055W        W33381  35.327  35.997   0.532
61056W        W33382   7.810  15.166   3.772
61057W        W33383  16.192  25.185  13.193
61058W        W33384  37.367   0.928  11.185
61059W        W33385   7.601  18.196  14.441
61060W        W33386  27.651  37.451  14.511
61061W        W33387  37.519  17.498  12.084
61062W        W33388  22.134   4.732   2.037
61063W        W33389  13.794  28.172   3.735
61064W        W33390  35.386   4.372  10.710
61065W        W33391  12.160  35.691  10.077
61066W        W33392  16.703  43.447  12.014
61067W        W33393  22.140   4.821  13.027
61068W        W33394  34.472   2.292  12.614
61069W        W33395  31.649  38.665  14.780
61070W        W33396  42.766  26.154   1.503
61071W        W33397   7.967  40.719   0.355
61072W        W33398  27.596   9.065  12.933
61073W        W33399  31.946  29.007   4.866
61074W        W33400  31.171  22.477   3.071
61075W        W33401  17.421  22.676  11.155
61076W        W33402  34.441  26.731  14.073
61077W        W33403   2.709   9.913  14.062
61078W        W33404  16.325  15.505   1.758
61079W        W33405   1.227  41.314   0.190
61080W        W33406  32.889  18.247   4.101
61081W        W33407  37.963  41.917   1.787
61082W        W33408  10.310  22.448   0.298
61083W        W33409   6.745   5.808   2.094
61084W        W33410  27.196   8.713  11.064
61085W        W33411  39.071  25.229  12.148
61086W        W33412  31.578  27.055  14.307
61087W        W33413  44.380   5.953  11.435
61088W        W33414  41.446  35.018  12.959
61089W        W33415  30.485  12.715   4.197
61090W        W33416  19.006  41.868   1.050
61091W        W33417  21.555  16.343  10.448
61092W        W33418  35.870  20.326  12.558
61093W        W33419  15.725  20.914   3.205
61094W        W33420  34.438  21.560   4.044
61095W        W33421   1.787  20.276  12.893
61096W        W33422  37.800  21.065  14.419
61097W        W33423  23.613  41.398   2.609
61098W        W33424  22.915  43.789   1.306
61099W        W33425   1.828  39.583   1.977
61100W        W33426   0.663   1.279   3.015
61101W        W33427  16.661   3.521   3.727
61102W        W33428  26.262  30.788  11.201
61103W        W33429  27.521  44.087   1.406
61104W        W33430  21.829  39.939   0.857
61105W        W33431  34.734  37.845  10.302
61106W        W33432  12.671  18.165   1.415
61107W        W33433   0.597   7.339  13.395
61108W        W33434  37.015  18.084   3.352
61109W        W33435  16.321   3.644   0.368
61110W        W33436  30.439  29.303   0.256
61111W        W33437   2.385  17.999   1.821
61112W        W33438  17.601  29.561   0.023
61113W        W33439  37.067  15.159   1.741
61114W        W33440  14.114  36.031  12.503
61115W        W33441  27.231   4.915   0.844
61116W        W33442  20.107  10.133   3.739
61117W        W33443  43.432  14.692   4.480
61118W        W33444   5.679  11.806  14.336
61119W        W33445   9.471  19.656   4.741
61120W        W33446  44.807  29.027   3.439
61121W        W33447  14.270  40.326   4.363
61122W        W33448  15.220  33.691  11.868
61123W        W33449  37.048  42.971  11.401
61124W        W33450  21.989  37.980   3.781
61125W        W33451  37.012  33.863   0.889
61126W        W33452  22.115  25.536  10.524
61127W        W33453  12.892  44.165  12.484
61128W        W33454  24.726  11.887   4.954
61129W        W33455  24.011   2.062   2.003
61130W        W33456  36.708  40.865  11.901
61131W        W33457  22.182  27.655  13.362
61132W        W33458  11.432  14.338  10.793
61133W        W33459  38.419   4.096  10.877
61134W        W33460  32.164  25.531  11.258
61135W        W33461  42.568  14.176  11.694
61136W        W33462  29.562  15.808  13.429
61137W        W33463   0.571  28.172  14.796
61138W        W33464  25.250  36.334   4.962
61139W        W33465  16.242  25.627  14.503
61140W        W33466  39.473  32.492  11.421
61141W        W33467  20.057  23.232  10.609
61142W        W33468  42.375  19.183   4.254
61143W        W33469  37.943   4.825  11.151
61144W        W33470  29.258  26.006  13.583
61145W        W33471  24.617  35.025  14.934
61146W        W33472  40.931  29.276   1.514
61147W        W33473  15.820  38.990  14.873
61148W        W33474  20.949  10.808  11.106
61149W        W33475  31.436  31.876  14.325
61150W        W33476   7.326  14.369   4.091
61151W        W33477   3.775  42.084  14.335
61152W        W33478  37.469  40.005   2.904
61153W        W33479  18.343  30.580   0.328
61154W        W33480  20.551  20.022  14.376
61155W        W33481  44.858  35.606   3.395
61156W        W33482  17.509  15.854   0.565
61157W        W33483   6.919  26.001   3.147
61158W        W33484  11.285   0.844  11.276
61159W        W33485  42.498   3.103  11.503
61160W        W33486  33.677   2.993  12.953
61161W        W33487   1.827   5.487  13.787
61162W        W33488  13.129   1.690  11.638
61163W        W33489  19.240  44.936  10.617
61164W        W33490  36.530  39.803  13.561
61165W        W33491  23.229  22.461  13.973
61166W        W33492   6.889  26.055  12.934
61167W        W33493  34.102   4.430   4.026
61168W        W33494   6.438  23.508   3.183
61169W        W33495   5.424  29.047  11.492
61170W        W33496   9.856  23.640  12.499
61171W        W33497  27.733   8.674  11.042
61172W        W33498  28.130  10.107  13.104
61173W        W33499   8.443  35.096  11.674
61174W        W33500   1.771  24.873   3.749
61175W        W33501  44.906  15.636   3.018
61176W        W33502  43.767   4.546   5.021
61177W        W33503   3.649  10.362   3.660
61178W        W33504  20.636  25.709   3.792
61179W        W33505   7.489  26.100  10.625
61180W        W33506  19.684  17.952  12.011
61181W        W33507  25.220  19.218  11.099
61182W        W33508  27.396  23.256  12.942
61183W        W33509  20.935  36.443  11.106
61184W        W33510  18.353  19.197   4.157
61185W        W33511  16.264  22.807   1.443
61186W        W33512  21.893  11.680  11.442
61187W        W33513  30.054  40.806  11.576
61188W        W33514  41.439  24.677   3.587
61189W        W33515  32.303  16.595   0.417
61190W        W33516   0.957  15.587  10.815
61191W        W33517  30.666   7.697  10.447
61192W        W33518  34.820   1.335   2.909
61193W        W33519  24.547   8.240  13.051
61194W        W33520  40.762  14.679  11.956
61195W        W33521   8.703  34.787  14.960
61196W        W33522  13.949  36.652   4.991
61197W        W33523   6.415   6.244   3.310
61198W        W33524  43.552  13.187  14.926
61199W        W33525  18.266  39.597   3.431
61200W        W33526  24.421  12.014  13.303
61201W        W33527  40.975  41.026  14.453
61202W        W33528  22.452  33.245   2.849
61203W        W33529  21.208  37.981  14.625
61204W        W33530   9.963   6.165  13.467
61205W        W33531  18.809  28.586   2.851
61206W        W33532   5.103  32.710   0.252
61207W        W33533  40.924   7.181   3.278
61208W        W33534  17.299  36.569   0.948
61209W        W33535  14.678  28.634   4.679
61210W        W33536  27.806   0.957   0.520
61211W        W33537  35.738  11.426   9.801
61212W        W33538  32.087  40.016   1.123
61213W        W33539  29.642   6.670  12.481
61214W        W33540   5.972  26.639  14.520
61215W        W33541  42.846  24.100  13.478
61216W        W33542   6.675  15.730  13.826
61217W        W33543  11.240  11.819   1.971
61218W        W33544  10.409   4.001  10.292
61219W        W33545  34.952  39.518   3.397
61220W        W33546  13.127   9.658   1.710
61221W        W33547  42.487  30.422  13.920
61222W        W33548   0.907  40.819  12.646
61223W        W33549   7.356  11.102   0.780
61224W        W33550  31.424   5.724   4.567
61225W        W33551  18.726   5.623   3.835
61226W        W33552   0.400  20.697   1.009
61227W        W33553  22.515  33.053  11.177
61228W        W33554   8.280  33.638   2.808
61229W        W33555   7.957  24.497   1.266
61230W        W33556  44.397  36.096  14.892
61231W        W33557  25.330  38.486  14.956
61232W        W33558   2.399  40.273  13.331
61233W        W33559  24.388  44.222  11.613
61234W        W33560  22.706  15.717  13.775
61235W        W33561  24.732  35.292  14.496
61236W        W33562  29.095  29.385  11.476
61237W        W33563   4.945   8.173  12.671
61238W        W33564  27.144  41.154  13.502
61239W        W33565  14.758  42.978  10.692
61240W        W33566  31.853  22.771  12.077
61241W        W33567   0.420  39.071  12.444
61242W        W33568  11.837   7.636  11.929
61243W        W33569  39.321  27.017   3.223
61244W        W33570  18.363   1.828   3.815
61245W        W33571  17.387   2.937  11.680
61246W        W33572  37.893  15.263  13.835
61247W        W33573  43.222  36.120   3.325
61248W        W33574  13.520  38.990   2.179
61249W        W33575   2.208  12.669  14.928
61250W        W33576  25.949  41.508  13.336
61251W        W33577  26.730  18.754   0.933
61252W        W33578  14.314  38.895  12.485
61253W        W33579  26.695  38.383   1.033
61254W        W33580  30.256  38.180  12.452
61255W        W33581  39.685   8.534  13.426
61256W        W33582  13.067  11.157   0.803
61257W        W33583  39.502  31.622   0.374
61258W        W33584   3.270   9.526  13.313
61259W        W33585   0.246  41.142   0.837
61260W        W33586  20.646  37.297  14.862
61261W        W33587   6.568   4.263   4.755
61262W        W33588  30.809  33.461  13.200
61263W        W33589  15.395  11.312  13.772
61264W        W33590  10.716  39.551  12.623
61265W        W33591   8.315   0.986  12.433
61266W        W33592  14.564  28.866   3.121
61267W        W33593  23.985  13.307   1.574
61268W        W33594   1.809   1.685  11.407
61269W        W33595  33.332  33.365   5.034
61270W        W33596   7.722  34.608  14.731
61271W        W33597   5.284  26.089   4.229
61272W        W33598  31.578  41.804  11.675
61273W        W33599  34.987  19.724  14.791
61274W        W33600  33.444   6.749   4.941
61275W        W33601   1.798  21.503   2.821
61276W        W33602  36.459  29.887  10.721
61277W        W33603  31.178  39.995  12.744
61278W        W33604  38.457  11.325   0.225
61279W        W33605  42.545  44.553   2.783
61280W        W33606  16.009  28.507  10.345
61281W        W33607  36.315  36.927   2.834
61282W        W33608  22.517  30.993   2.898
61283W        W33609  21.739  27.607   3.131
61284W        W33610  31.085  27.474   1.744
61285W        W33611  13.427  29.458   1.794
61286W        W33612  13.139   0.177  13.568
61287W        W33613  19.496  23.609  11.186
61288W        W33614  33.887  19.799   0.460
61289W        W33615  13.122  29.891   1.839
61290W        W33616  15.320  37.425   2.809
61291W        W33617   6.883  36.291   3.255
61292W        W33618  22.225   2.251   1.426
61293W        W33619  35.312  17.163  13.338
61294W        W33620  22.650  11.526   1.661
61295W        W33621  37.119  19.810  10.769
61296W        W33622  42.314  31.219   2.326
61297W        W33623   8.526   1.227   1.469
61298W        W33624  32.887  35.729   2.352
61299W        W33625  40.870   9.389   0.643
61300W        W33626   2.910  18.198  10.714
61301W        W33627  13.625  18.389  12.792
61302W        W33628  23.519  10.820   0.808
61303W        W33629  41.031   4.726   4.886
61304W        W33630  33.025  14.002  11.914
61305W        W33631   6.723  27.586  13.038
61306W        W33632  18.779  27.412   1.862
61307W        W33633  16.506  27.035  12.440
61308W        W33634   0.457  40.458  14.389
61309W        W33635  33.603  39.707   1.939
61310W        W33636  20.049  26.630   3.306
61311W        W33637   4.935   4.323  10.085
61312W        W33638  36.800  39.656  11.899
61313W        W33639  27.341  29.681   2.287
61314W        W33640  31.139  44.273   1.915
61315W        W33641  23.767  21.978   1.338
61316W        W33642  36.484  42.990  14.350
61317W        W33643  23.542  23.179   1.911
61318W        W33644   4.556  11.515   5.460
61319W        W33645  27.190  23.611   1.883
61320W        W33646  24.416  18.571  12.643
61321W        W33647  17.028  18.621   1.854
61322W        W33648  35.753  27.507   0.286
61323W        W33649  28.877   6.677   1.475
61324W        W33650  36.919  43.560   2.299
61325W        W33651  30.951   0.427  13.475
61326W        W33652   7.784  14.238   3.249
61327W        W33653  14.263   4.149  12.103
61328W        W33654  29.215  38.903   3.386
61329W        W33655  34.417  20.068  11.623
61330W        W33656  37.836  24.663   3.190
61331W        W33657   7.907  36.781  13.322
61332W        W33658  31.052  24.456   1.227
61333W        W33659  13.938  26.976  10.587
61334W        W33660   6.473  41.320   3.319
61335W        W33661  33.990  33.754  10.210
61336W        W33662  25.258  43.172  13.144
61337W        W33663  23.007  41.284   2.314
61338W        W33664  15.677  42.889   3.799
61339W        W33665  17.581  19.990   4.063
61340W        W33666  35.714  27.114   1.918
61341W        W33667   2.908  10.080   2.857
61342W        W33668  16.174   5.160  10.725
61343W        W33669  25.505   3.654   4.138
61344W        W33670   7.417  23.121   2.789
61345W        W33671  39.721  14.237   1.604
61346W        W33672  22.169  32.692  11.031
61347W        W33673   9.595  38.378  14.914
61348W        W33674   5.251  14.103   2.418
61349W        W33675  16.555  27.109   1.809
61350W        W33676  21.561   5.402   1.770
61351W        W33677  41.462  21.999  10.662
61352W        W33678   6.304   2.761   1.393
61353W        W33679  32.723  41.526   2.229
61354W        W33680   7.897  30.693  14.708
61355W        W33681  27.611   3.775   1.675
61356W        W33682  35.398  29.182  14.955
61357W        W33683  21.987  22.501  12.970
61358W        W33684  30.036  14.337   4.153
61359W        W33685  18.670   8.833  10.821
61360W        W33686  43.955  19.732   4.656
61361W        W33687  31.053  37.559  12.443
61362W        W33688  34.759  35.842   4.470
61363W        W33689  25.946  36.503   2.849
61364W        W33690   6.264  13.916  13.744
61365W        W33691  27.965  18.112  14.325
61366W        W33692  21.032  11.377   4.595
61367W        W33693   9.912  36.342  14.511
61368W        W33694   8.796  39.351   4.608
61369W        W33695  16.034  13.217  13.505
61370W        W33696  32.853  26.237   3.334
61371W        W33697  13.666  13.244   1.237
61372W        W33698  43.312  38.344  13.859
61373W        W33699  19.497   2.279  14.942
61374W        W33700   7.857  30.016  13.435
61375W        W33701   6.689   0.312  10.938
61376W        W33702  37.407  12.952  11.167
61377W        W33703  14.630  13.809  11.986
61378W        W33704  22.498  39.076  12.725
61379W        W33705  12.114   2.355   4.591
61380W        W33706  10.673  25.753  12.628
61381W        W33707  42.995  23.976   2.717
61382W        W33708  44.243  32.006  14.931
61383W        W33709   4.444  11.245  14.434
61384W        W33710  37.994  43.244  14.858
61385W        W33711  24.474  36.608  10.390
61386W        W33712  37.274  42.765  11.831
61387W        W33713  34.602   3.655   1.035
61388W        W33714   3.520  25.447  13.856
61389W        W33715  29.771  21.215  10.209
61390W        W33716  42.059  18.137  13.789
61391W        W33717  32.475   1.208  13.169
61392W        W33718  36.547  40.849   0.686
61393W        W33719  21.915  25.163   4.068
61394W        W33720  12.816  37.596   4.143
61395W        W33721  39.072  34.463  12.917
61396W        W33722  37.098  21.532  14.667
61397W        W33723  11.742  44.286  11.223
61398W        W33724   9.473  42.691  11.123
61399W        W33725   7.229  15.165  13.332
61400W        W33726  12.781  11.059   0.278
61401W        W33727  11.820  41.653   0.991
61402W        W33728  29.205  42.681  12.856
61403W        W33729  39.499  18.144   3.345
61404W        W33730  15.754  36.933   2.248
61405W        W33731   3.931  31.776  11.129
61406W        W33732   6.236  21.815   4.736
61407W        W33733  19.731  43.602  13.039
61408W        W33734  35.836   7.109   1.299
61409W        W33735   0.479  36.613   2.335
61410W        W33736   1.869  32.066   0.883
61411W        W33737   5.946  11.689  13.291
61412W        W33738  37.779  22.928  10.992
61413W        W33739   3.393  18.546   1.946
61414W        W33740  13.924  35.608   3.552
61415W        W33741  25.567  16.315   1.233
61416W        W33742  18.211  21.994   3.758
61417W        W33743  24.678   3.565  13.989
61418W        W33744  12.526   6.801  13.021
61419W        W33745   5.792  12.864   4.105
61420W        W33746  16.208  29.123   3.270
61421W        W33747  28.310  44.697  13.814
61422W        W33748  36.985   2.452  14.003
61423W        W33749  15.264  37.496  12.021
61424W        W33750  21.603  14.118  13.029
61425W        W33751  17.701  14.689   3.406
61426W        W33752   0.727  19.717  11.630
61427W        W33753  41.902   3.954   3.213
61428W        W33754  39.661   8.793   1.156
61429W        W33755  41.179  37.123   2.557
61430W        W33756  38.413   2.004   4.815
61431W        W33757  20.407  39.927   0.261
61432W        W33758  23.048  18.777  12.108
61433W        W33759  23.276  41.788   5.032
61434W        W33760   7.915  30.445   1.553
61435W        W33761  30.628  18.017   3.297
61436W        W33762   2.452  13.895  14.370
61437W        W33763  28.956  27.132  12.924
61438W        W33764  32.227  15.311   3.378
61439W        W33765  21.270  11.734   0.964
61440W        W33766  28.184   1.407   2.947
61441W        W33767  39.065   3.960  14.763
61442W        W33768  18.703  33.954  10.372
61443W        W33769   1.283  28.584  11.587
61444W        W33770  19.014  43.729  13.580
61445W        W33771   6.729  16.804  11.903
61446W        W33772  16.948  20.608  13.746
61447W        W33773  23.541  16.753  13.856
61448W        W33774  17.520  11.110  12.929
61449W        W33775  19.228  39.408   1.640
61450W        W33776  32.396  16.387  14.941
61451W        W33777  38.837  41.964   2.220
61452W        W33778   5.317  15.929  14.986
61453W        W33779   4.078   2.024   3.741
61454W        W33780  38.188  20.783  11.373
61455W        W33781   7.997  26.687   0.828
61456W        W33782   2.425  31.992  12.051
61457W        W33783   6.222  18.030  11.174
61458W        W33784  38.929   1.280  12.578
61459W        W33785  29.290  30.956  10.514
61460W        W33786  29.424  14.832  10.752
61461W        W33787  13.623  20.516  11.589
61462W        W33788  44.871  11.807  12.184
61463W        W33789   8.727   0.575  12.119
61464W        W33790  36.559  14.348   0.837
61465W        W33791  14.364  31.620   0.238
61466W        W33792  38.096  19.322   2.730
61467W        W33793  44.795  28.113  12.149
61468W        W33794   7.121   7.426   4.036
61469W        W33795   7.765  10.935  14.364
61470W        W33796  30.340  29.995  10.754
61471W        W33797  21.973  25.641   4.376
61472W        W33798  15.861   7.832  13.407
61473W        W33799  40.031  25.688   1.939
61474W        W33800   7.823  24.191  14.804
61475W        W33801  27.269  23.598   2.808
61476W        W33802  34.819  44.199   1.370
61477W        W33803  41.811   7.120  12.496
61478W        W33804  20.958  11.521   2.283
61479W        W33805   6.274  35.125  12.429
61480W        W33806  31.592   1.752  14.021
61481W        W33807  21.714  41.785  10.697
61482W        W33808  16.076  13.204   3.895
61483W        W33809  16.694  43.758  11.556
61484W        W33810  12.627  19.512   1.621
61485W        W33811   5.599  13.377  12.507
61486W        W33812   3.886   2.647   1.290
61487W        W33813  23.140   3.934  10.595
61488W        W33814  41.441  19.686   4.289
61489W        W33815  11.682  39.942   4.362
61490W        W33816  29.073  33.442  11.129
61491W        W33817  26.966   7.307  12.437
61492W        W33818  36.522  16.934   3.776
61493W        W33819  43.741  37.337  14.598
61494W        W33820  32.795  15.887   2.682
61495W        W33821  37.923  39.148   1.747
61496W        W33822   3.601  31.255   4.040
61497W        W33823  11.607  12.615   3.014
61498W        W33824  10.804   2.209  13.110
61499W        W33825  43.721  28.940  10.132
61500W        W33826  36.336  43.790   2.856
61501W        W33827  14.217  30.337   4.790
61502W        W33828  34.701  20.124   0.493
61503W        W33829  13.660  32.974   3.126
61504W        W33830  40.011  25.590  12.122
61505W        W33831  42.069   5.897   3.859
61506W        W33832  43.491  37.822   4.586
61507W        W33833  29.510   9.164   2.456
61508W        W33834   4.769   7.499  13.374
61509W        W33835  20.705  18.287   2.532
61510W        W33836  39.634  22.212   4.573
61511W        W33837  34.793   6.786  13.378
61512W        W33838  32.489  33.047  14.335
61513W        W33839  13.142  17.584   4.635
61514W        W33840   4.307  23.262  12.345
61515W        W33841  12.732  25.601   3.900
61516W        W33842  39.087  18.363  14.831
61517W        W33843  41.415  38.348   0.938
61518W        W33844   2.709   4.924  11.467
61519W        W33845  35.208  12.053  14.625
61520W        W33846  16.729  18.922  12.413
61521W        W33847   8.344  24.011   0.510
61522W        W33848  25.527  14.764  10.628
61523W        W33849  23.943  38.766  13.876
61524W        W33850  18.237   3.701  13.967
61525W        W33851  26.293   6.045   1.275
61526W        W33852   6.290  18.858  13.338
61527W        W33853  21.986  14.463   2.996
61528W        W33854  27.719  35.906  11.096
61529W        W33855  41.449   4.240   3.327
61530W        W33856  18.821  36.394   2.828
61531W        W33857   7.754  21.295  13.394
61532W        W33858  23.544  42.276   0.716
61533W        W33859  26.649  40.710   3.247
61534W        W33860  14.985  35.617  12.142
61535W        W33861  26.177  10.371  14.869
61536W        W33862   5.612   7.376  12.447
61537W        W33863  23.597  42.321   2.298
61538W        W33864  30.934  14.644   0.909
61539W        W33865  37.828   7.904  12.967
61540W        W33866  29.998   1.223   2.794
61541W        W33867  39.275  30.106   3.795
61542W        W33868  19.026  22.066  13.111
61543W        W33869   7.491  12.661  10.693
61544W        W33870  11.780   1.652   0.973
61545W        W33871   3.600  36.360  12.444
61546W        W33872  21.994  12.890  12.196
61547W        W33873  23.589  10.379  10.530
61548W        W33874  26.027  14.313  11.112
61549W        W33875  44.794  44.204   0.667
61550W        W33876  40.420  30.981   1.766
61551W        W33877  22.137   8.459  12.350
61552W        W33878  33.025  30.078  13.103
61553W        W33879  14.168  31.654   0.702
61554W        W33880  16.276  22.758   0.122
61555W        W33881  33.225   2.904  13.817
61556W        W33882  26.251   2.877   0.453
61557W        W33883  30.340  42.800  13.860
61558W        W33884  33.978  26.638  10.468
61559W        W33885  25.024  34.140  13.262
61560W        W33886  14.546  41.022   2.355
61561W        W33887  26.597  30.613   2.833
61562W        W33888  43.896  19.015  12.490
61563W        W33889   4.464   0.837   0.332
61564W        W33890  39.927  24.707  10.698
61565W        W33891   2.687  19.782   3.979
61566W        W33892   2.220  24.553   5.483
61567W        W33893  16.096  32.506   0.372
61568W        W33894  10.827  26.220  13.491
61569W        W33895  11.348  39.396  13.603
61570W        W33896  32.057  23.430   2.833
61571W        W33897  35.954   3.510   1.399
61572W        W33898  12.576  18.327  14.893
61573W        W33899  14.673   9.892   3.805
61574W        W33900   2.505  33.526  11.130
61575W        W33901   6.468  20.446   1.359
61576W        W33902  18.710  26.922  14.230
61577W        W33903  44.730  19.497  11.071
61578W        W33904  29.668   2.971  13.312
61579W        W33905  25.722  11.737  13.488
61580W        W33906  20.971   5.192   3.235
61581W        W33907   3.920   9.241  14.551
61582W        W33908  26.280  35.021  11.845
61583W        W33909  16.198  41.769  14.904
61584W        W33910  34.683   4.142  12.009
61585W        W33911  21.831   9.238   3.780
61586W        W33912  25.524  29.159  11.482
61587W        W33913   0.999   3.794  11.238
61588W        W33914  20.819  39.434  12.608
61589W        W33915  30.586  43.967   1.277
61590W        W33916  33.151  34.159   5.460
61591W        W33917   2.270   2.020  14.539
61592W        W33918  37.896   9.802  12.567
61593W        W33919  14.921   5.928   3.629
61594W        W33920   6.731  27.936   1.166
61595W        W33921   3.716  38.045  13.843
61596W        W33922  27.531  11.927   4.594
61597W        W33923  16.072  21.597  13.884
61598W        W33924   1.687  19.953  12.002
61599W        W33925  32.064  34.379   0.191
61600W        W33926  20.184  27.483  11.544
61601W        W33927   0.957  34.412  11.692
61602W        W33928  31.798  32.402   3.358
61603W        W33929  31.123  12.566   1.720
61604W        W33930   1.364   9.197   4.095
61605W        W33931  15.830  33.563   1.407
61606W        W33932   5.954   6.922   0.865
61607W        W33933  38.114  13.860   0.395
61608W        W33934   6.191  25.113  14.839
61609W        W33935  42.872  28.004   4.860
61610W        W33936  19.815  20.440   4.527
61611W        W33937  20.917  13.788   3.507
61612W        W33938   6.438  42.976  12.600
61613W        W33939  24.125  21.956  14.115
61614W        W33940  44.837  10.400  12.333
61615W        W33941   2.344  10.658   4.482
61616W        W33942  21.317  18.541   0.857
61617W        W33943  34.746  11.755  12.540
61618W        W33944  28.509   4.004  12.377
61619W        W33945  13.333  13.820   0.462
61620W        W33946  42.356  11.173  13.327
61621W        W33947   2.500  19.035   0.278
61622W        W33948  36.786  20.389   4.305
61623W        W33949  10.597  43.230   4.145
61624W        W33950  15.313   4.185  11.444
61625W        W33951  37.362  13.218   0.675
61626W        W33952   3.390   7.228  14.346
61627W        W33953  30.019   1.232   4.262
61628W        W33954  14.783  21.218   2.419
61629W        W33955  17.251  37.001   3.207
61630W        W33956  24.464   3.140  11.482
61631W        W33957   5.037  39.369   2.622
61632W        W33958  25.156  27.695  14.391
61633W        W33959  31.201   0.831  13.758
61634W        W33960  36.088  31.736   5.017
61635W        W33961  36.538  16.534   0.450
61636W        W33962   1.374   2.516   4.279
61637W        W33963   6.339  16.569  12.146
61638W        W33964  22.633  28.679   1.092
61639W        W33965   9.667  26.485   2.860
61640W        W33966   6.150  25.904   4.180
61641W        W33967  44.415  42.528  14.952
61642W        W33968  43.706  24.516   3.714
61643W        W33969   8.141  19.638   4.151
61644W        W33970  25.688  29.890  13.518
61645W        W33971   8.632  35.371   1.685
61646W        W33972  35.401  40.857  13.203
61647W        W33973  28.636  31.286   2.439
61648W        W33974  28.764  41.053  11.951
61649W        W33975  21.966  39.562   2.872
61650W        W33976  37.498  38.593   2.371
61651W        W33977   6.019   4.922   0.097
61652W        W33978  30.297  34.559  11.533
61653W        W33979  19.223  17.107   0.694
61654W        W33980  42.916  11.634   0.816
61655W        W33981  39.525   3.996  14.552
61656W        W33982  10.813  24.928   4.708
61657W        W33983   4.131   4.928  11.464
61658W        W33984  20.391   9.276   4.698
61659W        W33985  26.156   5.567   1.370
61660W        W33986  18.665  42.437  13.507
61661W        W33987  38.055  17.930  11.076
61662W        W33988  30.972  26.474  13.391
61663W        W33989  15.987  44.884   2.364
61664W        W33990  40.909  41.978   0.689
61665W        W33991  15.564  13.326   3.312
61666W        W33992  29.487  12.811  12.474
61667W        W33993   1.972  14.256   2.915
61668W        W33994  19.980  31.001   4.091
61669W        W33995  43.617   8.116  14.472
61670W        W33996   5.702  10.476  14.392
61671W        W33997   1.370  37.028  11.376
61672W        W33998  31.471  15.749   2.618
61673W        W33999  36.213  25.248   0.917
61674W        W34000  44.310  40.797   0.615
61675W        W34001  35.198  29.692  10.632
61676W        W34002  37.585  15.762  12.515
61677W        W34003  27.586  12.600  11.132
61678W        W34004   8.595  35.402   2.554
61679W        W34005  20.253  35.412   2.332
61680W        W34006   3.204  31.090  12.469
61681W        W34007   0.269  12.353   3.750
61682W        W34008   4.106  40.434  14.447
61683W        W34009  11.380  36.310   3.389
61684W        W34010  35.974  38.826   1.968
61685W        W34011  17.614   4.379  14.030
61686W        W34012  37.818  39.460   4.025
61687W        W34013  42.550  11.805   1.800
61688W        W34014   7.383   7.563  10.919
61689W        W34015   2.594   8.665  13.846
61690W        W34016  43.474  39.261   0.368
61691W        W34017   6.499  44.461  10.672
61692W        W34018  15.103   6.041  13.360
61693W        W34019   0.418  18.373  13.866
61694W        W34020  25.685   9.328  11.677
61695W        W34021  26.627   3.560  12.398
61696W        W34022  34.704  36.837  11.243
61697W        W34023  33.128  42.310   2.341
61698W        W34024  29.589   1.506  13.518
61699W        W34025  28.927  10.746  11.648
61700W        W34026  15.320  11.466  10.974
61701W        W34027  37.352  16.734   1.006
61702W        W34028  16.297  22.143  11.540
61703W        W34029  36.395   3.607   1.090
61704W        W34030  25.753  39.903   3.771
61705W        W34031  14.961  35.382   3.781
61706W        W34032  18.526  30.992   4.437
61707W        W34033  38.695  11.795  12.976
61708W        W34034  25.678  17.237  14.902
61709W        W34035  23.030  28.664   4.701
61710W        W34036  40.976  38.566   0.764
61711W        W34037   9.600  36.928   3.143
61712W        W34038  17.171  10.912   0.337
61713W        W34039  38.018  27.419  12.008
61714W        W34040   5.936  26.112   0.417
61715W        W34041  25.245   7.281  14.789
61716W        W34042  17.238  17.232  12.836
61717W        W34043  25.724  39.488   1.347
61718W        W34044  34.160  21.760  14.217
61719W        W34045  40.027  27.892  12.607
61720W        W34046   9.353  41.480  14.100
61721W        W34047  41.953  27.932   0.346
61722W        W34048  25.208  19.368  13.478
61723W        W34049  44.764  26.277  11.148
61724W        W34050  27.511   1.863   1.506
61725W        W34051  30.506  15.021   4.035
61726W        W34052  26.455  32.523   0.436
61727W        W34053  35.388  38.579  13.643
61728W        W34054   2.851  19.341   2.913
61729W        W34055  29.877   7.075  12.705
61730W        W34056  24.911  18.089   1.230
61731W        W34057  39.048  21.139  11.529
61732W        W34058  18.582  40.891   2.175
61733W        W34059  34.853  20.074   1.758
61734W        W34060   3.283   8.410   1.832
61735W        W34061  28.793   1.765  14.565
61736W        W34062  19.217  41.687  14.569
61737W        W34063  22.055  12.152   1.026
61738W        W34064  35.666   7.153   4.270
61739W        W34065  22.367  29.084   1.602
61740W        W34066  33.960  36.840   4.371
61741W        W34067  25.943  37.819   1.446
61742W        W34068  37.425   4.488  12.815
61743W        W34069  32.659   6.604  11.605
61744W        W34070   2.789  25.885  13.844
61745W        W34071  18.178  24.405   0.588
61746W        W34072  10.379  38.467   3.829
61747W        W34073  43.401  30.495   0.813
61748W        W34074  16.616  24.889  11.527
61749W        W34075  16.514   1.796  13.714
61750W        W34076  42.501  10.656   1.743
61751W        W34077  44.479  17.337   1.814
61752W        W34078  11.573  39.528   0.382
61753W        W34079   5.476  42.923  11.072
61754W        W34080  18.865  43.964   0.808
61755W        W34081  17.129  44.296  14.593
61756W        W34082   8.411  40.900   3.572
61757W        W34083  16.015  40.368   1.803
61758W        W34084   6.241  31.682   2.272
61759W        W34085  24.006   8.347   1.114
61760W        W34086  26.286  33.559   3.671
61761W        W34087  26.676  39.535   3.623
61762W        W34088   6.272   1.848  14.547
61763W        W34089  22.559   0.432   4.379
61764W        W34090  14.317   7.674  13.459
61765W        W34091  24.075  17.729  12.211
61766W        W34092   2.226  31.339  13.900
61767W        W34093  21.544  37.550  11.746
61768W        W34094  42.013  31.087  10.568
61769W        W34095  16.625  36.348  14.419
61770W        W34096  27.680  14.599  12.489
61771W        W34097  38.796  17.518   0.002
61772W        W34098  28.075  44.502  11.396
61773W        W34099  12.247  23.916  11.585
61774W        W34100  30.237  39.696   0.444
61775W        W34101  38.343  31.015   1.538
61776W        W34102  29.986  41.015   3.352
61777W        W34103  19.840  19.716   4.772
61778W        W34104  14.273   8.604  13.586
61779W        W34105  40.335  16.199   1.792
61780W        W34106  26.123  14.275  12.068
61781W        W34107   1.208  20.452  13.508
61782W        W34108  14.822  34.826  13.441
61783W        W34109  28.895   7.344  11.537
61784W        W34110   1.494  19.064  11.839
61785W        W34111  20.158  41.493   3.590
61786W        W34112  36.867  18.291   4.126
61787W        W34113  35.798  21.640   1.317
61788W        W34114  38.046  36.891  14.390
61789W        W34115  20.908   5.474   3.673
61790W        W34116  35.560  22.435   2.464
61791W        W34117  20.044   5.362  12.553
61792W        W34118  19.196  10.706  10.647
61793W        W34119  34.456   2.932   1.008
61794W        W34120  40.964  14.073  14.872
61795W        W34121   6.788  34.451   4.432
61796W        W34122  34.978   7.796  11.438
61797W        W34123  37.982  41.639   0.624
61798W        W34124  40.027  14.267   2.616
61799W        W34125   2.827  43.058   2.322
61800W        W34126  18.695   9.307   4.177
61801W        W34127   7.924  30.133   4.603
61802W        W34128  19.595  15.706  12.947
61803W        W34129  10.749  22.162   2.374
61804W        W34130   3.019  21.542  13.789
61805W        W34131   3.163   0.992  12.417
61806W        W34132  26.412  29.054   2.231
61807W        W34133   5.833  13.111   1.946
61808W        W34134  26.449  29.460   4.312
61809W        W34135  38.318  37.467   2.221
61810W        W34136  38.135  39.002  14.865
61811W        W34137  10.477  37.359   3.259
61812W        W34138  23.676  28.744  12.435
61813W        W34139  39.352  20.181   4.410
61814W        W34140  30.247  42.870  14.375
61815W        W34141  20.701   5.512   0.237
61816W        W34142  43.928  17.805  12.572
61817W        W34143  37.939  35.050   0.403
61818W        W34144  12.333  15.886   1.322
61819W        W34145  16.393   3.825  10.746
61820W        W34146   1.013  13.110   2.672
61821W        W34147   0.627   3.374   2.409
61822W        W34148  20.589  20.043   1.645
61823W        W34149  12.351  38.151  13.118
61824W        W34150  37.166  37.908  14.490
61825W        W34151   1.109  44.332  10.366
61826W        W34152  19.959  26.182  10.933
61827W        W34153  38.816  19.979  11.007
61828W        W34154  22.750  44.650  13.000
61829W        W34155  26.496  13.732  12.515
61830W        W34156  37.355  33.498   1.313
61831W        W34157  40.051  25.502   4.618
61832W        W34158   7.878  20.572   3.435
61833W        W34159  12.923  15.729   0.498
61834W        W34160  25.460  23.061  11.594
61835W        W34161  44.875  25.126   3.749
61836W        W34162  39.245  20.104  11.588
61837W        W34163  13.422   5.193  14.297
61838W        W34164   1.324   2.060  14.944
61839W        W34165  14.172  25.532  13.362
61840W        W34166  22.508  35.591   3.669
61841W        W34167  26.267  40.363   1.377
61842W        W34168  31.053   4.699  12.053
61843W        W34169  19.234   0.853  10.777
61844W        W34170  40.352  12.226  12.415
61845W        W34171   6.949  13.874   0.536
61846W        W34172  15.078  13.432   0.767
61847W        W34173  29.794  21.509  12.885
61848W        W34174   6.337  24.870   4.301
61849W        W34175  12.814   2.497  10.689
61850W        W34176  29.872  24.576   1.877
61851W        W34177  29.940  34.342  13.933
61852W        W34178  21.197  42.260   1.635
61853W        W34179   3.808  21.203   0.284
61854W        W34180   2.284   6.193  13.514
61855W        W34181   6.753   1.474  11.484
61856W        W34182  39.640  21.686   4.385
61857W        W34183   6.229   1.726  14.016
61858W        W34184  21.924  14.797   4.828
61859W        W34185  25.597  41.076   5.010
61860W        W34186  22.879  35.123   2.989
61861W        W34187  12.857  29.591   0.950
61862W        W34188  39.317   5.547   0.352
61863W        W34189   5.529   6.314   3.688
61864W        W34190   3.804  18.148   1.990
61865W        W34191   9.153  27.436   0.014
61866W        W34192   2.469   5.447  12.520
61867W        W34193  33.211  30.924  13.973
61868W        W34194  32.644  36.560   1.299
61869W        W34195  29.587  14.341  14.568
61870W        W34196   3.232   8.860   3.256
61871W        W34197  29.641   0.714  11.628
61872W        W34198  14.803  36.147   2.748
61873W        W34199  43.703   5.806  11.487
61874W        W34200  33.886  43.552  13.469
61875W        W34201   3.633  37.458  14.952
61876W        W34202  17.152  33.030   3.236
61877W        W34203  30.950   7.216  10.642
61878W        W34204  24.084  39.912   9.950
61879W        W34205  29.894  24.917   3.729
61880W        W34206  18.046  23.000   2.785
61881W        W34207  35.991  37.471   2.865
61882W        W34208  39.548   2.209   3.228
61883W        W34209  38.998  17.230  12.920
61884W        W34210  34.053  40.721   1.589
61885W        W34211   6.826  29.684   4.074
61886W        W34212   6.852  44.287   3.167
61887W        W34213  23.072  23.492   3.156
61888W        W34214   6.323  40.914  10.725
61889W        W34215   4.604  19.665  14.842
61890W        W34216  10.145  37.971   3.762
61891W        W34217   0.282  29.435   4.868
61892W        W34218  37.285  16.662   0.059
61893W        W34219  43.987  38.000   4.545
61894W        W34220  28.615   1.297  14.692
61895W        W34221   9.732  17.676  14.472
61896W        W34222  29.964   1.951  12.931
61897W        W34223  27.372  42.848   1.299
61898W        W34224   7.816  13.614   1.362
61899W        W34225  23.526  33.077   0.421
61900W        W34226  33.662  14.183  11.196
61901W        W34227  42.747  22.088  13.825
61902W        W34228   5.208   1.715  11.129
61903W        W34229   7.820  41.473  14.274
61904W        W34230   2.772   3.716   5.160
61905W        W34231  17.051  42.561   4.208
61906W        W34232  11.220  42.177   1.327
61907W        W34233  44.784  27.339  14.825
61908W        W34234  40.316  29.944   2.846
61909W        W34235  25.034  27.420   3.703
61910W        W34236  30.543  22.051   2.754
61911W        W34237   0.845  38.874  13.366
61912W        W34238   4.596  24.029  11.537
61913W        W34239  11.205  22.655  11.913
61914W        W34240  16.207  40.528   1.251
61915W        W34241  15.015  20.589  12.301
61916W        W34242  31.494  14.187   2.793
61917W        W34243   6.315  28.602  14.420
61918W        W34244  42.286  44.519   0.382
61919W        W34245  17.967  44.555  11.615
61920W        W34246   9.335  22.544   3.893
61921W        W34247  15.281  31.128   1.209
61922W        W34248  26.392  15.729  11.440
61923W        W34249  37.321  17.366  12.541
61924W        W34250   5.171  38.115   2.316
61925W        W34251  32.564  30.474  10.666
61926W        W34252  29.513  26.122   1.293
61927W        W34253  42.339  14.795   3.724
61928W        W34254  29.194  24.413   0.865
61929W        W34255   4.299  36.854  12.025
61930W        W34256  20.314   6.428  13.446
61931W        W34257   7.758   1.605   4.918
61932W        W34258   4.726  35.286   1.898
61933W        W34259  41.883   4.695   0.918
61934W        W34260   6.806  43.790  12.095
61935W        W34261  36.088   1.774   1.183
61936W        W34262  24.237  39.761  13.926
61937W        W34263  36.494   3.038  11.477
61938W        W34264  34.601  24.047   4.517
61939W        W34265  21.629  14.328   0.567
61940W        W34266   7.162   6.773   4.799
61941W        W34267  19.304   0.398  14.494
61942W        W34268  35.289  39.035   0.408
61943W        W34269  25.018   5.466   4.673
61944W        W34270  23.584   9.317   0.922
61945W        W34271  15.066  28.565  14.492
61946W        W34272   0.715  11.316  12.378
61947W        W34273   4.677  24.192  14.317
61948W        W34274  23.768  30.683  14.472
61949W        W34275   5.331  31.756   2.543
61950W        W34276  22.749  23.177  12.908
61951W        W34277  35.878  25.640   1.149
61952W        W34278  41.341  26.709   0.240
61953W        W34279   6.247   0.173  13.894
61954W        W34280  12.087   1.782  11.619
61955W        W34281  26.272  14.393   2.804
61956W        W34282  22.298  35.852  11.169
61957W        W34283   0.746  36.959  12.368
61958W        W34284  28.744  31.403  14.523
61959W        W34285   7.643  31.641   4.752
61960W        W34286   7.621   2.781  11.205
61961W        W34287   7.220  25.945   2.298
61962W        W34288  18.522  20.664  14.851
61963W        W34289  31.841  11.084  13.436
61964W        W34290  26.974  20.039   1.894
61965W        W34291  11.791  32.339  13.020
61966W        W34292  35.578  38.247  10.632
61967W        W34293  14.779  12.580   2.635
61968W        W34294  32.135  29.508  13.958
61969W        W34295  10.904  25.635   1.702
61970W        W34296  35.524  40.598  14.886
61971W        W34297  22.637  22.066  12.494
61972W        W34298  29.069  20.989   2.582
61973W        W34299   2.384  38.837  13.490
61974W        W34300  19.702  10.631  13.148
61975W        W34301   1.727   4.902   2.718
61976W        W34302   5.116  40.191  14.476
61977W        W34303  16.549  43.462  13.983
61978W        W34304  15.198  38.000  13.526
61979W        W34305  23.899  11.015  12.506
61980W        W34306  15.772  31.985  10.365
61981W        W34307  23.668   2.692   4.048
61982W        W34308   3.236  14.072   0.876
61983W        W34309  41.113   0.260   3.632
61984W        W34310  29.033  13.082  13.386
61985W        W34311  21.157   4.069   0.911
61986W        W34312  27.297  26.806  14.445
61987W        W34313  33.576  12.930   4.954
61988W        W34314  27.606  32.036  14.496
61989W        W34315   0.763  19.141  14.647
61990W        W34316  27.564  44.268  14.922
61991W        W34317  41.954  39.415   3.151
61992W        W34318  29.558  34.310   0.392
61993W        W34319   8.563  31.685   3.750
61994W        W34320   2.826  11.800  12.389
61995W        W34321  18.647   7.077  14.287
61996W        W34322  14.390  30.476  10.323
61997W        W34323  14.306   9.022  13.942
61998W        W34324   3.868  26.619  10.217
61999W        W34325   3.862  40.548  12.754
62000W        W34326  25.015  37.279  10.583
62001W        W34327   8.278  27.790  11.615
62002W        W34328  13.172  25.769  14.976
62003W        W34329   7.129  41.334  12.168
62004W        W34330  32.683  28.933  11.592
62005W        W34331  35.901   0.084  13.000
62006W        W34332  44.423   6.163  11.902
62007W        W34333  36.120   7.374   1.786
62008W        W34334  12.806  26.001  11.999
62009W        W34335  40.766  17.538   3.247
62010W        W34336  24.822  34.806   0.386
62011W        W34337  34.874  16.240  11.571
62012W        W34338  10.806   5.219   4.563
62013W        W34339  35.883  40.934  14.505
62014W        W34340  30.107  27.745  10.523
62015W        W34341   7.867   6.669   0.796
62016W        W34342  18.629  29.584  12.373
62017W        W34343  30.540  42.257  14.955
62018W        W34344  29.512  25.943  10.943
62019W        W34345  17.852  19.077   4.172
62020W        W34346   7.134  38.631   0.279
62021W        W34347  37.034  44.097   0.934
62022W        W34348  37.452  26.844   0.615
62023W        W34349  29.531  38.490   2.829
62024W        W34350   2.428  35.773  12.320
62025W        W34351  28.330   6.333  13.461
62026W        W34352  24.402  28.339   0.608
62027W        W34353  39.784  22.574  13.817
62028W        W34354  14.925  40.405  11.860
62029W        W34355   6.272   8.463  11.594
62030W        W34356   4.735  31.908  13.445
62031W        W34357  37.959  22.160   2.027
62032W        W34358  27.150   8.167   4.104
62033W        W34359  12.900  39.386  13.425
62034W        W34360  13.223  28.731   3.279
62035W        W34361  24.411  41.978  12.159
62036W        W34362  23.124  23.674  11.180
62037W        W34363  23.277  36.980   2.161
62038W        W34364  23.472   1.796   1.376
62039W        W34365  13.547  37.067   0.731
62040W        W34366  16.905  13.049  11.717
62041W        W34367  28.146  43.022   3.226
62042W        W34368  20.510   1.935  10.755
62043W        W34369   7.382  44.389   3.261
62044W        W34370  36.964   8.352  11.706
62045W        W34371   9.326   5.790  12.955
62046W        W34372  13.819   7.767  13.506
62047W        W34373   8.890  36.750  13.476
62048W        W34374  36.299  31.735  13.407
62049W        W34375  10.644   0.070   1.004
62050W        W34376   9.399   9.318  12.456
62051W        W34377   8.275  18.618  14.954
62052W        W34378  36.351   7.830  14.997
62053W        W34379   4.277  17.574  10.705
62054W        W34380  29.587  15.273  11.036
62055W        W34381  23.671  15.600   1.323
62056W        W34382  16.654   6.269  13.527
62057W        W34383  44.553  35.991  14.310
62058W        W34384   9.672  42.563  13.921
62059W        W34385  26.630  22.134  13.702
62060W        W34386   5.994  20.134   1.353
62061W        W34387  43.764  42.370   2.928
62062W        W34388  14.195   9.544  13.839
62063W        W34389  30.186   0.255  13.905
62064W        W34390  23.119  24.603   0.792
62065W        W34391  24.727  19.540  13.549
62066W        W34392   5.758  19.364  13.475
62067W        W34393  14.259  31.643  14.366
62068W        W34394  22.237  11.407   0.944
62069W        W34395  35.297  10.704   3.676
62070W        W34396  15.092   4.857   1.852
62071W        W34397  27.121  19.973  13.342
62072W        W34398  17.400  42.869  10.788
62073W        W34399  26.168  21.445   4.689
62074W        W34400  39.390  43.349  11.927
62075W        W34401  17.328  19.816  11.031
62076W        W34402  16.274  25.570   2.820
62077W        W34403  27.633  17.512  10.816
62078W        W34404  12.747  37.291   3.733
62079W        W34405  40.732  12.273   1.602
62080W        W34406  13.767  39.121   3.172
62081W        W34407  25.582  34.625   0.322
62082W        W34408  20.011  29.257   0.852
62083W        W34409  39.376   6.300   4.218
62084W        W34410  34.867  31.606   3.309
62085W        W34411   2.756  35.379  12.449
62086W        W34412  38.024  26.344  11.996
62087W        W34413  22.269  23.261  12.091
62088W        W34414  28.238   8.165   4.934
62089W        W34415  18.196  24.554   3.238
62090W        W34416  36.354  41.545  10.662
62091W        W34417  14.723  30.609   3.896
62092W        W34418  10.308   0.206  11.103
62093W        W34419   4.236   2.948   3.797
62094W        W34420  23.946  24.140   1.597
62095W        W34421  40.425  11.862   1.616
62096W        W34422  20.012   2.636  11.146
62097W        W34423  18.755  36.929  12.056
62098W        W34424  38.755  15.711  13.923
62099W        W34425  12.284  40.342  13.396
62100W        W34426  17.746  23.623   4.528
62101W        W34427  23.624   6.091   4.163
62102W        W34428  10.328  29.994  13.454
62103W        W34429  32.459  17.800   4.674
62104W        W34430  26.543  36.441   2.117
62105W        W34431   7.780  30.144   1.946
62106W        W34432   0.199  33.101  12.167
62107W        W34433  33.658   5.845   0.274
62108W        W34434  28.686  21.472   4.501
62109W        W34435   4.710  24.942  14.873
62110W        W34436  26.029  20.604   3.002
62111W        W34437  33.342  29.448   1.347
62112W        W34438  22.540  36.124   0.405
62113W        W34439  22.949  22.393  14.408
62114W        W34440  32.413  16.309  12.942
62115W        W34441   6.731  26.115   2.184
62116W        W34442  21.262  10.225  14.988
62117W        W34443  42.971  15.856  13.613
62118W        W34444  14.611  40.443  10.361
62119W        W34445   4.509  36.948   0.676
62120W        W34446   6.609  24.665   2.347
62121W        W34447  26.910  12.134  14.706
62122W        W34448  41.275   5.472  11.085
62123W        W34449   5.867  41.524   2.143
62124W        W34450  28.590   9.258  11.126
62125W        W34451  32.951   2.985  11.824
62126W        W34452   8.815  38.276   1.796
62127W        W34453  25.094  14.568  10.848
62128W        W34454   7.114  21.119   1.347
62129W        W34455  22.227  35.371  10.980
62130W        W34456  10.799  22.389  10.019
62131W        W34457   1.891  10.381   1.622
62132W        W34458  22.162  21.969  11.014
62133W        W34459   5.908   5.411  10.579
62134W        W34460  25.127  21.242  11.116
62135W        W34461  28.457   1.139   4.855
62136W        W34462  31.439  42.462   4.110
62137W        W34463  40.248   5.300   3.194
62138W        W34464  39.377  22.711  14.096
62139W        W34465  25.519  40.921  10.706
62140W        W34466   2.006  33.434  13.493
62141W        W34467  31.896  18.052   2.834
62142W        W34468  23.961  31.111   0.356
62143W        W34469  44.275  39.129  14.204
62144W        W34470  20.509   4.613   2.766
62145W        W34471  11.735  20.246  13.514
62146W        W34472  23.994  43.072   2.743
62147W        W34473  19.025  11.756   4.130
62148W        W34474   3.812  41.501   0.015
62149W        W34475  41.775  15.651  14.288
62150W        W34476  20.569  11.255  14.432
62151W        W34477  29.673  38.902  13.897
62152W        W34478  34.310   0.945  14.370
62153W        W34479  23.087  10.429  12.633
62154W        W34480  34.578  20.566   4.142
62155W        W34481  44.866  29.979  13.819
62156W        W34482  33.850  22.127   5.078
62157W        W34483  31.300  44.479   3.654
62158W        W34484   6.541  12.177   3.949
62159W        W34485  33.245  18.072   0.844
62160W        W34486  13.236  42.586  10.730
62161W        W34487   2.425  24.993   9.992
62162W        W34488   9.758  33.297  11.767
62163W        W34489  10.597  31.641  12.034
62164W        W34490  12.848  24.279   2.216
62165W        W34491  19.160  33.614   1.650
62166W        W34492  42.460  17.822  13.146
62167W        W34493  34.080  40.340  10.693
62168W        W34494  28.736  44.919   4.620
62169W        W34495  20.856   7.802   0.462
62170W        W34496   3.446  21.232  14.909
62171W        W34497  34.064  25.537  13.943
62172W        W34498  19.276  30.430  11.984
62173W        W34499  25.845  42.848   0.618
62174W        W34500  37.889  17.584  14.871
62175W        W34501  30.987  35.322   2.359
62176W        W34502  23.755  18.266  11.115
62177W        W34503  18.298   7.253  13.930
62178W        W34504  39.694   9.676  11.716
62179W        W34505  40.494   4.398  14.291
62180W        W34506  33.327  20.221   1.542
62181W        W34507  27.661  43.800   4.326
62182W        W34508   4.258  12.135   3.288
62183W        W34509  40.417  19.796   2.249
62184W        W34510  15.657  37.778  13.273
62185W        W34511   1.475  13.611   0.900
62186W        W34512  40.882  27.807   1.846
62187W        W34513  22.171  39.985  13.157
62188W        W34514  30.154   9.254  11.138
62189W        W34515  37.406  40.454  12.683
62190W        W34516  22.136  23.673   2.270
62191W        W34517  31.998  35.902   2.775
62192W        W34518  13.604  23.048   1.198
62193W        W34519  44.758  12.664  12.680
62194W        W34520   3.206  17.107   2.509
62195W        W34521  29.175  13.280  12.920
62196W        W34522   6.740  44.522  14.501
62197W        W34523   8.840  44.225  12.680
62198W        W34524  35.368  40.816   0.336
62199W        W34525  35.772  21.256  12.966
62200W        W34526  42.784  33.162   3.165
62201W        W34527  39.532  35.061   0.542
62202W        W34528  43.825   9.607   0.898
62203W        W34529  15.485  24.062   4.891
62204W        W34530  12.859  25.122  13.086
62205W        W34531  18.603  32.114  12.862
62206W        W34532   0.941  40.004  11.926
62207W        W34533  36.856   9.341  10.375
62208W        W34534  12.662  29.246   2.239
62209W        W34535  19.691   2.134   0.731
62210W        W34536   2.383   2.372  14.083
62211W        W34537  34.135  11.625  12.566
62212W        W34538   9.509  30.674  11.090
62213W        W34539  19.623  31.277  11.508
62214W        W34540  40.935   4.646   3.429
62215W        W34541  17.758  44.777   3.654
62216W        W34542   7.231  19.491  12.468
62217W        W34543   2.300  30.322  13.073
62218W        W34544  13.273   6.136   1.432
62219W        W34545   9.277  30.949   3.546
62220W        W34546  40.002  37.515   0.244
62221W        W34547  27.847  17.786   0.766
62222W        W34548  16.069   2.932  14.315
62223W        W34549  11.713  44.347  12.641
62224W        W34550  12.226  16.647   4.273
62225W        W34551  24.571  22.281   2.454
62226W        W34552  37.487  13.340   5.521
62227W        W34553  34.685   4.598  14.096
62228W        W34554  16.352  15.515  14.054
62229W        W34555  11.318  33.980   0.287
62230W        W34556  15.108  27.693  13.325
62231W        W34557  30.426   7.283  10.674
62232W        W34558   5.915  21.837  14.510
62233W        W34559  42.666   3.291  13.362
62234W        W34560  37.883   0.964   3.873
62235W        W34561  33.972  34.528   1.459
62236W        W34562   8.054  26.850   3.066
62237W        W34563  43.892  33.380  14.504
62238W        W34564  42.346  15.696   2.602
62239W        W34565   9.873  41.867   2.697
62240W        W34566  27.452  21.472   2.942
62241W        W34567  23.835  23.662  10.707
62242W        W34568  19.152   4.793  10.910
62243W        W34569  12.852   5.507  11.123
62244W        W34570  40.990  22.689  13.299
62245W        W34571  21.074  42.709   1.874
62246W        W34572  13.283  24.551   3.599
62247W        W34573  34.832  40.535   3.612
62248W        W34574  31.204  35.009  10.060
62249W        W34575   3.301  44.073  11.244
62250W        W34576   8.159   0.305  13.056
62251W        W34577  40.304  37.839  13.507
62252W        W34578   6.153  22.245   0.830
62253W        W34579  27.178  22.790  12.873
62254W        W34580  24.714   6.205   2.290
62255W        W34581  34.139   1.270   3.667
62256W        W34582   7.219  22.888   2.345
62257W        W34583   7.353  35.840  12.950
62258W        W34584  10.266  17.825  13.169
62259W        W34585  33.479  43.259  13.363
62260W        W34586  23.109  32.121   4.526
62261W        W34587  32.596  37.906  13.482
62262W        W34588  40.860  33.363   0.892
62263W        W34589  25.267  19.610  11.451
62264W        W34590  18.625  22.954   1.896
62265W        W34591  43.602  12.124   1.403
62266W        W34592  28.518  33.665  13.471
62267W        W34593  13.577  37.807  11.535
62268W        W34594   0.972   4.753   5.001
62269W        W34595  35.462  33.169  10.249
62270W        W34596  21.595   7.311   3.819
62271W        W34597  27.630  13.186  14.580
62272W        W34598  17.209  39.141  11.436
62273W        W34599  16.028   2.660  13.824
62274W        W34600  32.200  39.871   2.120
62275W        W34601  19.717  13.864  10.554
62276W        W34602  39.232  44.915   3.362
62277W        W34603   9.893   7.841   1.373
62278W        W34604  31.187  41.753  13.011
62279W        W34605  32.351   8.949  11.561
62280W        W34606  33.404  16.339  10.524
62281W        W34607   9.226  21.166   0.336
62282W        W34608  41.563   9.250   2.385
62283W        W34609  22.258   4.156   4.510
62284W        W34610   9.124   2.712  12.180
62285W        W34611  14.892  33.537   3.428
62286W        W34612  41.083  29.579   1.907
62287W        W34613  19.328  19.860   1.020
62288W        W34614  37.112  24.283  12.652
62289W        W34615  42.026  11.239  11.480
62290W        W34616   3.180  30.499   4.351
62291W        W34617  22.374  11.810  12.675
62292W        W34618  22.188  36.376   3.129
62293W        W34619  15.266  11.331  12.941
62294W        W34620  30.433  10.216   5.027
62295W        W34621   3.339  16.487   0.642
62296W        W34622  32.811  35.010   3.379
62297W        W34623  21.130  25.078   1.941
62298W        W34624  18.906  12.796  13.533
62299W        W34625  12.284   6.796  11.283
62300W        W34626  36.527   5.018   4.199
62301W        W34627  13.146  27.119   5.112
62302W        W34628  37.985  38.550   4.578
62303W        W34629  37.790  41.581   2.943
62304W        W34630  38.041  38.984   0.797
62305W        W34631  13.383  11.427  14.770
62306W        W34632  26.224  26.054  13.901
62307W        W34633  13.134  13.364   1.279
62308W        W34634  39.721  37.274   9.744
62309W        W34635  29.043  20.175  13.442
62310W        W34636   6.744  41.559   2.907
62311W        W34637  39.241  18.225  12.995
62312W        W34638  17.467  14.609   3.861
62313W        W34639   6.861  42.280   1.186
62314W        W34640   7.678  38.474  11.424
62315W        W34641  39.419  33.231  10.222
62316W        W34642  27.920  37.791   0.814
62317W        W34643  29.216  11.221  11.442
62318W        W34644   8.886  19.973   4.189
62319W        W34645  16.271  10.229  12.027
62320W        W34646  13.687  23.517  12.343
62321W        W34647  30.982  38.990  13.978
62322W        W34648  21.216  21.540  13.920
62323W        W34649  18.589   6.284  13.854
62324W        W34650  16.670  25.862  11.814
62325W        W34651  21.082  28.935   0.290
62326W        W34652  13.664  32.935  12.918
62327W        W34653   7.155  23.056   3.229
62328W        W34654  29.507  40.337   1.844
62329W        W34655   2.353  34.016  12.871
62330W        W34656   4.679  38.720   1.231
62331W        W34657  43.425  16.331   1.225
62332W        W34658   8.715  33.912   3.137
62333W        W34659  41.508  25.595  12.344
62334W        W34660  32.925  21.088  14.560
62335W        W34661  37.369  43.314  13.410
62336W        W34662   7.279  18.803   4.292
62337W        W34663   0.716  37.311   5.040
62338W        W34664  29.742  44.823  11.212
62339W        W34665  23.760  11.798   2.723
62340W        W34666  41.869  24.727  11.077
62341W        W34667  15.692  38.812  13.392
62342W        W34668  43.739  28.992   4.346
62343W        W34669  11.347  27.342   4.139
62344W        W34670  14.241  37.550  11.215
62345W        W34671  29.490  33.117   0.876
62346W        W34672  40.584  34.925  14.380
62347W        W34673  18.172   4.955  10.572
62348W        W34674  11.778  14.195  14.048
62349W        W34675  15.589  31.695  11.099
62350W        W34676  20.055   9.849  13.846
62351W        W34677   2.579  22.026  14.981
62352W        W34678  16.800   0.265  10.673
62353W        W34679   4.655  33.094   3.733
62354W        W34680  31.186   2.906  11.523
62355W        W34681  37.555  23.659  13.854
62356W        W34682  37.654  24.498   0.236
62357W        W34683  34.609  16.782   2.835
62358W        W34684   6.439   5.194   0.982
62359W        W34685  18.799  36.892   0.170
62360W        W34686   4.017  10.199  13.534
62361W        W34687   7.418  14.214   3.618
62362W        W34688  12.318  42.279  11.472
62363W        W34689   2.609  10.349   3.711
62364W        W34690  17.071  31.779   5.114
62365W        W34691   6.425  25.941  14.356
62366W        W34692  22.539  22.581  11.586
62367W        W34693   4.702  14.081   2.359
62368W        W34694  15.267  40.515   4.569
62369W        W34695   7.437  30.680  12.848
62370W        W34696  23.762  14.728   1.885
62371W        W34697   7.406   1.371  11.085
62372W        W34698  37.442  14.114   3.233
62373W        W34699   4.339  35.844  14.237
62374W        W34700  40.288  26.098   1.516
62375W        W34701   5.910   0.558   3.355
62376W        W34702  18.131  27.049   4.805
62377W        W34703  19.028  34.343   4.847
62378W        W34704  42.534  34.079  13.323
62379W        W34705  28.980  11.801   4.255
62380W        W34706  30.156  30.722  10.324
62381W        W34707  39.101   8.472  12.207
62382W        W34708  34.210  42.352   3.221
62383W        W34709  17.998  33.687  14.405
62384W        W34710   2.231  23.746   4.497
62385W        W34711  33.090   0.006  13.278
62386W        W34712  19.282  14.282  13.812
62387W        W34713   4.962  36.344   2.811
62388W        W34714  14.327  20.503   4.189
62389W        W34715  32.005  34.226   1.492
62390W        W34716  30.170  26.661  12.861
62391W        W34717   2.191  12.223  10.191
62392W        W34718  11.636  27.028  13.721
62393W        W34719  12.614  15.658  14.451
62394W        W34720  34.510  10.190   0.885
62395W        W34721   7.803  29.033   3.450
62396W        W34722   5.579   0.022   4.146
62397W        W34723  35.421  38.412  12.160
62398W        W34724   1.233  33.992   3.664
62399W        W34725  29.076   2.018  14.935
62400W        W34726  17.534  41.251  13.974
62401W        W34727  11.641  25.165   4.459
62402W        W34728  44.605   3.758  10.927
62403W        W34729  31.640  27.467   3.705
62404W        W34730   9.326  17.277  12.126
62405W        W34731   5.643  33.492   0.300
62406W        W34732  20.214  33.136   4.216
62407W        W34733  24.889  18.208  12.003
62408W        W34734  18.148  36.452   0.486
62409W        W34735  18.059   0.933  11.565
62410W        W34736  37.350   4.691  13.286
62411W        W34737  18.720   4.314   4.316
62412W        W34738  43.440  40.483   0.145
62413W        W34739  34.660  39.107  14.869
62414W        W34740  32.351   1.359   1.504
62415W        W34741  11.739  22.779  12.068
62416W        W34742   1.960  41.032  13.534
62417W        W34743  32.613  30.255  12.851
62418W        W34744  14.252   8.881  14.459
62419W        W34745  18.981  23.505  13.078
62420W        W34746   5.481  32.065  14.256
62421W        W34747   0.152  22.886   5.512
62422W        W34748  26.940  20.178   0.413
62423W        W34749   1.350  20.135  10.763
62424W        W34750  12.270   5.420   1.893
62425W        W34751  12.129  31.608  12.947
62426W        W34752  26.958  15.879   0.945
62427W        W34753  25.574  10.960  12.452
62428W        W34754  21.053  34.624   1.743
62429W        W34755   3.921  18.602  13.715
62430W        W34756  27.731  28.202  14.799
62431W        W34757  12.935  19.864  11.129
62432W        W34758  41.491  15.457   2.703
62433W        W34759  36.606  11.810  12.357
62434W        W34760   7.933   2.094  11.557
62435W        W34761  34.796  18.152   2.732
62436W        W34762  18.746  37.583   4.140
62437W        W34763   6.313  40.028  12.890
62438W        W34764  38.835  37.432   1.388
62439W        W34765  23.810  12.593  14.124
62440W        W34766  42.951  23.306   4.606
62441W        W34767  23.148  40.979   0.006
62442W        W34768   1.078  25.118   4.205
62443W        W34769  21.756  26.238   1.670
62444W        W34770  25.208   7.679   0.431
62445W        W34771   7.982  15.631  14.853
62446W        W34772  30.935  13.374  11.996
62447W        W34773  29.973  20.292  12.467
62448W        W34774  39.602  24.933   4.048
62449W        W34775  37.564  15.252  14.243
62450W        W34776  27.413   6.777   1.329
62451W        W34777  20.919  21.565   5.134
62452W        W34778   3.835  18.563   0.836
62453W        W34779  14.132  31.420  14.809
62454W        W34780  37.475  36.554   3.315
62455W        W34781  21.309   7.409  11.205
62456W        W34782  30.046  14.599  13.600
62457W        W34783  32.332  36.889   1.997
62458W        W34784  20.516   0.246  12.006
62459W        W34785  17.758   8.003   2.839
62460W        W34786  19.050  35.105  11.956
62461W        W34787  27.276  25.494   2.679
62462W        W34788  15.940  27.177   0.393
62463W        W34789  23.105  42.896   0.748
62464W        W34790  29.508  30.009   1.909
62465W        W34791  32.918  33.618   4.819
62466W        W34792  41.909   2.705   0.290
62467W        W34793  36.219   6.398  14.942
62468W        W34794   6.776  42.505  10.910
62469W        W34795  18.079  32.499   1.728
62470W        W34796  25.751  14.275   2.218
62471W        W34797   5.333  13.683   4.244
62472W        W34798  32.572  40.324  12.413
62473W        W34799  11.880  26.476  12.952
62474W        W34800  23.706  21.486  12.004
62475W        W34801  10.171  23.522  10.615
62476W        W34802  42.648  28.166  12.429
62477W        W34803  28.718  14.774  12.486
62478W        W34804  20.242   9.027  10.173
62479W        W34805   5.141   5.835  14.937
62480W        W34806   4.848   0.497  12.824
62481W        W34807   8.137  11.849   3.804
62482W        W34808  18.091   8.284   4.125
62483W        W34809   3.334  30.029  14.914
62484W        W34810  15.094  34.760   0.902
62485W        W34811   4.514  36.696   2.864
62486W        W34812   3.665   3.721  14.059
62487W        W34813   6.886  15.749   2.095
62488W        W34814  21.814  35.382  10.700
62489W        W34815  36.911  11.241   3.104
62490W        W34816  11.279  33.913  12.377
62491W        W34817  38.876  31.909  10.456
62492W        W34818  44.993   5.969   3.565
62493W        W34819  26.037  30.625   4.803
62494W        W34820  20.039  28.200   1.717
62495W        W34821  32.120  36.418  14.396
62496W        W34822  36.296  44.484   1.086
62497W        W34823  44.763  29.576   3.640
62498W        W34824  13.310  36.327  13.790
62499W        W34825   9.176  17.273  12.604
62500W        W34826  32.404   4.405   2.808
62501W        W34827  27.918  42.002   4.114
62502W        W34828  28.712   2.906   1.273
62503W        W34829  26.725   8.807  14.376
62504W        W34830  39.349  11.164  14.455
62505W        W34831  41.082  23.446   3.972
62506W        W34832  43.315  26.172   3.268
62507W        W34833  15.569  28.136   2.791
62508W        W34834   2.828  29.174  14.784
62509W        W34835  13.675  38.009  12.142
62510W        W34836  16.656  20.222  12.245
62511W        W34837  12.820  14.912   2.620
62512W        W34838  31.985  33.729  14.029
62513W        W34839  29.507   1.957   2.900
62514W        W34840  17.262   4.231  10.711
62515W        W34841  26.593  16.150  10.681
62516W        W34842   4.278  43.369   0.869
62517W        W34843  44.410  32.172   2.301
62518W        W34844  21.485   4.728   2.760
62519W        W34845  29.538  13.905   2.416
62520W        W34846   7.833  33.856  11.541
62521W        W34847   4.339   3.021   0.677
62522W        W34848  22.484  33.480   1.739
62523W        W34849   5.885  39.447  10.371
62524W        W34850  13.152  18.688   4.445
62525W        W34851  28.092  13.137  10.256
62526W        W34852  44.710  36.572   4.426
62527W        W34853  26.047  11.545   2.308
62528W        W34854  12.215  36.552  14.529
62529W        W34855  18.764   3.204   1.751
62530W        W34856  10.241   4.147  10.758
62531W        W34857  36.315  22.052  11.273
62532W        W34858  35.328  16.678  13.584
62533W        W34859  21.532  34.830  11.520
62534W        W34860   4.663  27.596   2.854
62535W        W34861  11.125  43.447  11.613
62536W        W34862  11.257   2.366   4.293
62537W        W34863  31.871   3.584   5.126
62538W        W34864  34.025  10.202  11.131
62539W        W34865  26.037   5.066  14.079
62540W        W34866   6.317  13.830   3.100
62541W        W34867   3.316  13.287   4.718
62542W        W34868  21.213  32.464  10.464
62543W        W34869  19.748  40.628  11.682
62544W        W34870  29.875  21.195   2.344
62545W        W34871  44.446  28.170   2.769
62546W        W34872  18.240  12.186  12.416
62547W        W34873   2.077  20.276  11.912
62548W        W34874   6.957   2.778  13.341
62549W        W34875  11.501  41.447  13.731
62550W        W34876  28.524  14.310  12.617
62551W        W34877  24.506  13.325   2.329
62552W        W34878  43.987  33.503   2.931
62553W        W34879   4.483  38.258   9.910
62554W        W34880   1.962  13.434   1.854
62555W        W34881   9.561  28.177  14.345
62556W        W34882  29.162  20.550  11.521
62557W        W34883  37.612  36.132   1.006
62558W        W34884  11.860  25.525   0.264
62559W        W34885  16.537   4.999   4.595
62560W        W34886  17.791  30.669   1.774
62561W        W34887   7.409   7.432  11.429
62562W        W34888  10.770  26.260  10.045
62563W        W34889   2.797  23.282  10.680
62564W        W34890  29.957  35.416   4.739
62565W        W34891  16.547   6.044  12.067
62566W        W34892  27.056   9.719  11.045
62567W        W34893  30.182  28.575  13.758
62568W        W34894  14.641   7.306  14.586
62569W        W34895  14.406   2.787   2.308
62570W        W34896  25.574  27.701  11.382
62571W        W34897  27.651  13.385   4.119
62572W        W34898   9.350  24.401   0.249
62573W        W34899  36.833  21.620  11.700
62574W        W34900  28.683  42.741  13.989
62575W        W34901  22.219  42.810   2.236
62576W        W34902  16.823   6.195  10.462
62577W        W34903  22.132  37.878  14.550
62578W        W34904  37.406  35.189   4.566
62579W        W34905  19.633  28.703   2.412
62580W        W34906  11.295  17.084  11.117
62581W        W34907  33.369  21.211  10.616
62582W        W34908  19.030  33.321  10.881
62583W        W34909  17.682  21.555   4.310
62584W        W34910  21.779  19.192   0.168
62585W        W34911   8.260   6.398   4.290
62586W        W34912  13.112  24.103   0.920
62587W        W34913   7.192  27.197  14.899
62588W        W34914  27.823  43.884   0.598
62589W        W34915  43.409  32.483   0.968
62590W        W34916  43.355  33.182  10.750
62591W        W34917  23.345  10.835   1.313
62592W        W34918  39.308  19.128   2.382
62593W        W34919  23.807   3.851   4.716
62594W        W34920  15.581   9.978   2.918
62595W        W34921  16.054  32.091  13.565
62596W        W34922  23.539  27.494   2.727
62597W        W34923  41.242  20.853   3.508
62598W        W34924  26.584  13.025  13.825
62599W        W34925   4.246  36.479  11.499
62600W        W34926  21.131  30.959   4.638
62601W        W34927  28.511  19.675  12.063
62602W        W34928  35.231  38.134   3.581
62603W        W34929  38.874  27.551   2.772
62604W        W34930  40.178  20.163   0.336
62605W        W34931  17.419  34.898   4.242
62606W        W34932  39.932  38.925   3.528
62607W        W34933  39.164  16.001  13.965
62608W        W34934  36.121  41.516  12.955
62609W        W34935  18.390  12.249  14.370
62610W        W34936  27.198  44.488  10.456
62611W        W34937  14.232  26.589  10.373
62612W        W34938  10.706  40.922   4.427
62613W        W34939  27.477   8.944  13.907
62614W        W34940  18.912   6.977   3.062
62615W        W34941   5.208  13.618   1.652
62616W        W34942  34.874  14.606   4.756
62617W        W34943  31.913  37.456   3.643
62618W        W34944  26.204  27.367  14.835
62619W        W34945  30.466  15.789   3.417
62620W        W34946  42.123  34.595  11.428
62621W        W34947  28.632  12.364  12.874
62622W        W34948  35.934   4.832  13.896
62623W        W34949  37.100  41.346  10.520
62624W        W34950  12.813  17.318  12.739
62625W        W34951  18.823  23.030   0.717
62626W        W34952  43.356  32.079   1.693
62627W        W34953  34.430  11.799  11.696
62628W        W34954  40.438   8.821   0.509
62629W        W34955  31.627  27.553  14.051
62630W        W34956  13.793  25.106  14.857
62631W        W34957   4.941  38.692   4.279
62632W        W34958  26.202  36.669  13.379
62633W        W34959  15.768   8.744   0.173
62634W        W34960  17.408  21.523  13.988
62635W        W34961  26.569   0.850   4.147
62636W        W34962   5.582  24.656   2.360
62637W        W34963  39.139  19.456  13.956
62638W        W34964  32.637  28.110   3.272
62639W        W34965  22.970  40.458  10.680
62640W        W34966  32.691  25.348  12.839
62641W        W34967  43.077  28.374  13.927
62642W        W34968  17.531   9.260  11.624
62643W        W34969  31.993  14.615  14.949
62644W        W34970  34.634  39.253   0.543
62645W        W34971  30.218  28.593  13.223
62646W        W34972  44.932   4.176   4.691
62647W        W34973  14.430  11.265  11.262
62648W        W34974   4.582  44.102   0.807
62649W        W34975  30.022   4.508  13.079
62650W        W34976  19.305  26.793   1.158
62651W        W34977  15.543  39.249   2.893
62652W        W34978  44.769   4.702   0.920
62653W        W34979   0.406   7.107  13.885
62654W        W34980  28.981  32.618  12.118
62655W        W34981  34.801   6.384  12.930
62656W        W34982  30.170  39.179   3.566
62657W        W34983   7.709  32.339   0.505
62658W        W34984  34.401  34.114   0.326
62659W        W34985  44.725   9.721   1.873
62660W        W34986  30.577  18.632  14.036
62661W        W34987  22.992  36.294   0.192
62662W        W34988   9.375  37.221   1.297
62663W        W34989   9.363   4.212  14.824
62664W        W34990  11.355  22.161  13.815
62665W        W34991  22.598   2.680  10.701
62666W        W34992  23.943   3.369  12.589
62667W        W34993  38.519  31.334   4.270
62668W        W34994   2.418  29.921   4.390
62669W        W34995  23.040  38.537   5.056
62670W        W34996   3.834  34.512  12.488
62671W        W34997  11.191   8.391   2.858
62672W        W34998  13.978  11.671   2.644
62673W        W34999  16.314  25.632  13.425
62674W        W35000  30.163   3.642  12.045
62675W        W35001  36.080   7.281  11.374
62676W        W35002  30.093  35.600   0.833
62677W        W35003  29.054   6.957   1.072
62678W        W35004  11.619   1.073  12.932
62679W        W35005  35.434  41.098  13.996
62680W        W35006  29.740  26.835   0.039
62681W        W35007  30.561  11.829   2.690
62682W        W35008  34.857  13.186  12.894
62683W        W35009   2.895   4.700   4.085
62684W        W35010   4.920  43.347  12.676
62685W        W35011  27.707  15.731  12.974
62686W        W35012   3.228  43.093   1.882
62687W        W35013  40.266  37.057  12.020
62688W        W35014   6.366  19.263  11.568
62689W        W35015  28.439  40.388  12.504
62690W        W35016  25.870   8.183  12.094
62691W        W35017   2.460   6.484   1.872
62692W        W35018  17.853  17.253  13.193
62693W        W35019  26.855  11.848   1.903
62694W        W35020  24.174   7.904  11.517
62695W        W35021  15.057   7.361  11.181
62696W        W35022  35.526  39.657   2.769
62697W        W35023  39.911  34.910  11.432
62698W        W35024   9.288  18.111  13.021
62699W        W35025  42.737  23.235   2.064
62700W        W35026   2.792  44.340  13.805
62701W        W35027   0.712  26.589   4.201
62702W        W35028   8.659  25.615  12.934
62703W        W35029   6.168   4.311   0.387
62704W        W35030   6.914  28.892   1.266
62705W        W35031   2.382   0.069   4.196
62706W        W35032  30.648  43.384  14.005
62707W        W35033  21.310  19.880   3.727
62708W        W35034  35.786  34.647  11.008
62709W        W35035   4.982  21.660  14.924
62710W        W35036   6.725   9.851  12.466
62711W        W35037  28.950  29.963  14.222
62712W        W35038  20.103  13.374   2.129
62713W        W35039   4.928   8.513   2.778
62714W        W35040  34.038  11.597  11.441
62715W        W35041  18.036  36.617  13.615
62716W        W35042  36.981  35.844   1.182
62717W        W35043   8.391   6.379   2.752
62718W        W35044   0.930  41.676  11.494
62719W        W35045  12.606  26.083   4.119
62720W        W35046   5.188  25.350  12.529
62721W        W35047   8.897  16.350  12.439
62722W        W35048  38.600  44.592   4.776
62723W        W35049   7.713   7.817   2.751
62724W        W35050  12.466  10.622  11.525
62725W        W35051  35.299   2.819  14.134
62726W        W35052  41.980  38.601   3.174
62727W        W35053  38.526  14.135   2.194
62728W        W35054  44.115   3.466  12.018
62729W        W35055  13.535  39.194   5.043
62730W        W35056  17.278  16.095  14.715
62731W        W35057  37.995  25.487   2.690
62732W        W35058  40.814  37.140  12.873
62733W        W35059  14.785  37.006  14.298
62734W        W35060  28.480  27.032  10.429
62735W        W35061  33.844  24.854  14.570
62736W        W35062   7.941  12.718   2.901
62737W        W35063  32.579  28.209  12.900
62738W        W35064  17.081  14.600   1.292
62739W        W35065  31.988  21.263  14.339
62740W        W35066  29.974  35.946  11.238
62741W        W35067   2.415  17.188   0.054
62742W        W35068  27.494  27.682  10.245
62743W        W35069  44.369   4.209   4.665
62744W        W35070  10.180  27.689  12.890
62745W        W35071  19.054  13.674   0.725
62746W        W35072  44.435   9.235   1.424
62747W        W35073   1.335   0.800  13.498
62748W        W35074  27.581  27.912   0.229
62749W        W35075  39.309  18.601   3.159
62750W        W35076   4.346  35.109  11.117
62751W        W35077  31.004  34.071   3.351
62752W        W35078  40.521  33.033   1.735
62753W        W35079  37.340  26.192   2.771
62754W        W35080  36.374  13.864   0.790
62755W        W35081  40.815  40.486  12.019
62756W        W35082  14.879   0.054  10.618
62757W        W35083  42.093   6.391   2.917
62758W        W35084  28.572  29.785   3.615
62759W        W35085  43.398   3.043  13.104
62760W        W35086  41.341  42.808   1.870
62761W        W35087  29.926  29.598   3.220
62762W        W35088  41.967   4.707  11.644
62763W        W35089  16.873  40.471  10.998
62764W        W35090   7.151  15.694   4.497
62765W        W35091   9.475  41.036   0.418
62766W        W35092   7.505   5.199   0.953
62767W        W35093  38.465  29.058   4.301
62768W        W35094  30.048  27.456  12.430
62769W        W35095  12.133  12.680   3.717
62770W        W35096  18.683  14.505  12.406
62771W        W35097  19.534   6.584   4.210
62772W        W35098  24.234   8.683  11.109
62773W        W35099  17.711  42.993   9.932
62774W        W35100   1.718  18.625  11.537
62775W        W35101  34.090  23.534   1.222
62776W        W35102  38.866   2.811  10.587
62777W        W35103   6.267  41.520   1.194
62778W        W35104  23.060   4.240  13.371
62779W        W35105  22.318  41.249  12.859
62780W        W35106   3.351  32.407  13.978
62781W        W35107   5.161  27.036   2.420
62782W        W35108  40.915  24.459   1.783
62783W        W35109  44.008  23.733  14.942
62784W        W35110  35.966  21.229  12.486
62785W        W35111  23.484  14.206   2.721
62786W        W35112  33.502   9.868   3.776
62787W        W35113  33.691  43.443   2.245
62788W        W35114  32.127  44.341  13.800
62789W        W35115   8.378  40.866  10.591
62790W        W35116  37.202  22.009  14.521
62791W        W35117  31.832  13.877  11.129
62792W        W35118  10.648   0.560   0.822
62793W        W35119  35.212  22.288  12.382
62794W        W35120   7.846  29.122  10.709
62795W        W35121  21.536  21.783   0.026
62796W        W35122  22.187  25.099  12.602
62797W        W35123   8.435  37.576   3.360
62798W        W35124  41.818  15.741   0.790
62799W        W35125  35.222  23.445  11.541
62800W        W35126  16.550  25.500  12.985
62801W        W35127  23.626  10.665   1.724
62802W        W35128  42.505  40.568  14.577
62803W        W35129  32.649   9.063  12.952
62804W        W35130  13.645  18.109   0.423
62805W        W35131  42.291  18.261  10.256
62806W        W35132  20.959  29.796   4.201
62807W        W35133   3.135  19.046  13.412
62808W        W35134  13.870   1.245   1.966
62809W        W35135   4.251   6.379  14.866
62810W        W35136  34.349  38.018   1.764
62811W        W35137  22.471  38.807  13.704
62812W        W35138  33.401  33.414  12.903
62813W        W35139  43.668  42.081  13.993
62814W        W35140  21.937  22.153   0.093
62815W        W35141  14.665  22.040   2.884
62816W        W35142   9.157  21.649   3.280
62817W        W35143  15.917  11.561  11.116
62818W        W35144  21.311  23.128  11.000
62819W        W35145  44.531  26.132  11.580
62820W        W35146  22.670   5.126   1.319
62821W        W35147  29.144  22.965   3.891
62822W        W35148  33.154  22.142   2.645
62823W        W35149   6.756  43.838   2.323
62824W        W35150  21.080  28.549  11.841
62825W        W35151  19.210  34.369   2.203
62826W        W35152  43.413  33.849   0.296
62827W        W35153  30.715  42.950   3.148
62828W        W35154   8.069  29.203  11.670
62829W        W35155  40.645  18.066   4.227
62830W        W35156   7.157   9.315   0.375
62831W        W35157  31.301  20.488   4.153
62832W        W35158  34.836   3.173  10.453
62833W        W35159  11.289  18.023   1.297
62834W        W35160  37.862   7.789  14.927
62835W        W35161  14.692  28.119  12.769
62836W        W35162  12.841   7.214  13.852
62837W        W35163   9.295  21.539   0.941
62838W        W35164   9.487  29.380   3.938
62839W        W35165  24.303  20.748  11.557
62840W        W35166  14.423  14.839   1.251
62841W        W35167   4.310  19.226   4.405
62842W        W35168   1.675   3.310   4.497
62843W        W35169  41.474  20.023  13.906
62844W        W35170  34.278  33.152  13.074
62845W        W35171  35.200  39.501   4.310
62846W        W35172   2.008  42.804  13.480
62847W        W35173  38.410  12.189   3.683
62848W        W35174  12.166   7.262   0.730
62849W        W35175  28.196  33.640  13.064
62850W        W35176  42.478   7.172   1.691
62851W        W35177   5.838   9.672   0.310
62852W        W35178  31.040  20.803  10.706
62853W        W35179  17.956   4.916   0.432
62854W        W35180   3.669  18.087   0.956
62855W        W35181  29.831  15.279   2.196
62856W        W35182  37.979   4.564  11.598
62857W        W35183  38.882  25.484   2.551
62858W        W35184  29.573  15.125   4.399
62859W        W35185  12.170  29.130  12.584
62860W        W35186   5.171  16.141   0.459
62861W        W35187  14.197   5.055   0.853
62862W        W35188  27.187  24.387  13.562
62863W        W35189  17.999  25.033   3.325
62864W        W35190   3.751   8.884   3.296
62865W        W35191  14.124   6.436   3.708
62866W        W35192   6.163  16.625  10.878
62867W        W35193  32.366   7.756   0.540
62868W        W35194   6.810  27.498  10.669
62869W        W35195  13.668  27.940   3.285
62870W        W35196  33.303  27.659   4.483
62871W        W35197  34.813  31.392  14.501
62872W        W35198  30.382  18.158  13.902
62873W        W35199  35.826   5.758  11.251
62874W        W35200  27.508  16.217  12.643
62875W        W35201  36.107  41.994  13.162
62876W        W35202   5.955   5.101  11.452
62877W        W35203  28.154  36.002  11.360
62878W        W35204   4.033   7.833   1.488
62879W        W35205   2.437  39.426  14.784
62880W        W35206   2.727  24.196   0.966
62881W        W35207  19.708  15.343   1.944
62882W        W35208  42.310  42.986   4.893
62883W        W35209  27.973  18.571   0.435
62884W        W35210   0.502   8.396   0.779
62885W        W35211  30.402   5.834   4.645
62886W        W35212   8.216  25.797  12.728
62887W        W35213   9.629  33.537   2.374
62888W        W35214   9.907  17.530  11.960
62889W        W35215   2.312  31.415  12.070
62890W        W35216  38.633  43.820   0.320
62891W        W35217  26.107   7.743   0.275
62892W        W35218  43.322  13.253  12.209
62893W        W35219  38.278  35.145   4.467
62894W        W35220  11.765  21.467   1.231
62895W        W35221  34.893  33.003   2.842
62896W        W35222  29.342  26.316  11.294
62897W        W35223  31.092  12.080   1.907
62898W        W35224  14.030   3.444  11.529
62899W        W35225  26.864  34.432  14.459
62900W        W35226  26.180  20.867   1.214
62901W        W35227  12.097  12.477  14.956
62902W        W35228   9.924   4.749   3.783
62903W        W35229  44.940  24.014  14.527
62904W        W35230   2.853  39.732  13.948
62905W        W35231  38.993   1.787  13.525
62906W        W35232  15.170  28.386   4.560
62907W        W35233  20.684  18.609   4.684
62908W        W35234   4.901   1.598  14.557
62909W        W35235  23.709  28.336  11.593
62910W        W35236   2.687  13.187   0.693
62911W        W35237   5.156  41.658  14.129
62912W        W35238  40.613   5.306   2.252
62913W        W35239  25.013  10.730   2.097
62914W        W35240  38.446  27.571  11.653
62915W        W35241  20.068  28.930   4.200
62916W        W35242  30.584  27.013  11.125
62917W        W35243  18.074  25.399   0.887
62918W        W35244   5.663  21.106   1.344
62919W        W35245  20.189  25.404  14.274
62920W        W35246  21.043  21.154   2.317
62921W        W35247   8.131  43.895   2.489
62922W        W35248   1.982   0.336   3.499
62923W        W35249  16.188  16.468  13.831
62924W        W35250  25.577   2.422   1.188
62925W        W35251  37.451  20.529   2.269
62926W        W35252  16.668  15.760  10.604
62927W        W35253   3.801  33.452  10.003
62928W        W35254  33.565   6.567  14.858
62929W        W35255   9.186  36.907   4.324
62930W        W35256  40.877  40.536  14.780
62931W        W35257  36.701  11.238  14.744
62932W        W35258  17.881   8.556  14.852
62933W        W35259  43.277  26.026   4.638
62934W        W35260   4.234  26.984   0.724
62935W        W35261  25.202  16.330  11.273
62936W        W35262   8.896   9.291  12.625
62937W        W35263  43.982   4.380  14.922
62938W        W35264   6.623   5.062  10.157
62939W        W35265  32.354   7.183   4.208
62940W        W35266   0.584  15.751  10.490
62941W        W35267  20.568  23.105   2.892
62942W        W35268  12.376   5.686  11.209
62943W        W35269   4.987   4.541  12.952
62944W        W35270  33.648   7.949  11.927
62945W        W35271  30.991  43.412   2.629
62946W        W35272   4.163  30.030   1.354
62947W        W35273  28.241  35.886   3.100
62948W        W35274   7.570  31.380   1.395
62949W        W35275  19.042  15.675  11.056
62950W        W35276  38.562  36.103   2.852
62951W        W35277  16.411  35.118   4.528
62952W        W35278  15.638  13.411  11.094
62953W        W35279  40.879  19.559  13.404
62954W        W35280  37.272  42.982   4.642
62955W        W35281  23.440   0.645  14.049
62956W        W35282  37.402  18.479   1.881
62957W        W35283  10.384   7.737  11.110
62958W        W35284  18.598  37.856  13.461
62959W        W35285  20.614  40.449   4.885
62960W        W35286  13.804   6.458  12.027
62961W        W35287  16.145  26.495   2.389
62962W        W35288  15.698  14.307  12.990
62963W        W35289  40.145  32.556  12.654
62964W        W35290   0.466  24.967  13.878
62965W        W35291  29.973   9.429  11.590
62966W        W35292  41.918  31.154  11.068
62967W        W35293   2.975  35.136   2.313
62968W        W35294   6.150  38.531   3.843
62969W        W35295  16.338  40.779  11.657
62970W        W35296  39.382  14.144   0.404
62971W        W35297  35.285  25.024   2.414
62972W        W35298  25.945  42.087   1.816
62973W        W35299   3.752   0.909   3.166
62974W        W35300  44.243  13.053   4.433
62975W        W35301  25.612  11.680   3.071
62976W        W35302  28.442  33.564   1.203
62977W        W35303   2.744  25.616  12.664
62978W        W35304  11.209  34.892  14.514
62979W        W35305  26.663   6.308   3.272
62980W        W35306  42.728  41.147  11.201
62981W        W35307  23.800   7.690  13.315
62982W        W35308   9.148  41.507   4.570
62983W        W35309  11.764  14.322   3.275
62984W        W35310  20.208  10.785   0.900
62985W        W35311   1.221  26.147  12.407
62986W        W35312  12.112  16.005  11.067
62987W        W35313  20.108  12.310  14.023
62988W        W35314  27.130  17.695   3.585
62989W        W35315   6.431   4.391   3.328
62990W        W35316  27.533   8.186  14.372
62991W        W35317  20.535   2.631   1.750
62992W        W35318  16.450   9.662   4.088
62993W        W35319  24.663  17.958   0.317
62994W        W35320  26.946   8.960  11.447
62995W        W35321  24.534   6.589  10.782
62996W        W35322   2.760  32.142   1.949
62997W        W35323  22.548   7.468   0.032
62998W        W35324   3.433  31.528  12.663
62999W        W35325  20.459   9.756  11.610
63000W        W35326  21.951  16.913  11.955
63001W        W35327  24.083  12.574  14.554
63002W        W35328  41.721  37.839  13.476
63003W        W35329  19.161  41.793  11.334
63004W        W35330  29.861  18.068  12.585
63005W        W35331  39.540  35.747  11.618
63006W        W35332  33.585  11.607  11.655
63007W        W35333   5.251   8.292  11.762
63008W        W35334   9.115  17.545   1.953
63009W        W35335  15.129  25.599  13.303
63010W        W35336  37.903  32.121  10.164
63011W        W35337  21.010   9.173   1.864
63012W        W35338  14.692  35.874  14.240
63013W        W35339  13.247   1.373   4.124
63014W        W35340  39.117  33.975  13.521
63015W        W35341  21.498  25.254   0.958
63016W        W35342  31.390  36.120  11.867
63017W        W35343   1.482  23.557  14.049
63018W        W35344  16.669  14.554  11.543
63019W        W35345  27.188  32.989  13.656
63020W        W35346  22.165  39.146   9.622
63021W        W35347  16.552   9.802   2.815
63022W        W35348  37.112  13.635  12.993
63023W        W35349  11.296  38.383   0.983
63024W        W35350  14.396  30.534   0.725
63025W        W35351  37.031  22.190   4.567
63026W        W35352   0.482  13.215   1.537
63027W        W35353   9.909  21.147   4.125
63028W        W35354  28.125   6.632  13.830
63029W        W35355  18.055  17.764  13.138
63030W        W35356  33.326  26.263   4.820
63031W        W35357  21.946  38.526   5.041
63032W        W35358  13.609   4.899   1.796
63033W        W35359   1.727  22.193   2.681
63034W        W35360  14.806  22.276  12.917
63035W        W35361  22.555  17.127   3.213
63036W        W35362  27.945   8.664   4.199
63037W        W35363  44.712  43.795  13.964
63038W        W35364  22.468  26.225   4.160
63039W        W35365  22.652  14.390  14.799
63040W        W35366  24.071  43.281   4.773
63041W        W35367  16.848   0.239  12.425
63042W        W35368  41.709   5.659   3.562
63043W        W35369  39.108  12.702  10.994
63044W        W35370  41.533  30.379  13.946
63045W        W35371  24.090   2.493   3.788
63046W        W35372  15.508  43.843  13.478
63047W        W35373  17.060  36.383   1.379
63048W        W35374   8.883  17.655   4.667
63049W        W35375  23.000  29.463  14.791
63050W        W35376  40.645  44.072   9.974
63051W        W35377   3.847  39.039   3.349
63052W        W35378  14.793  41.928   3.333
63053W        W35379  39.314  14.301   1.290
63054W        W35380  33.318  40.530  11.104
63055W        W35381   7.184  42.566   3.632
63056W        W35382  11.327  36.063  11.993
63057W        W35383  22.526  21.266   9.902
63058W        W35384   9.756   6.722  12.076
63059W        W35385   7.310  34.370  14.531
63060W        W35386  34.126  41.429  11.408
63061W        W35387   8.235  27.914  13.963
63062W        W35388  41.768  14.589  12.179
63063W        W35389  30.534  13.685  10.756
63064W        W35390  14.721  39.832  10.669
63065W        W35391  33.394  35.597  13.001
63066W        W35392   3.850  43.481   0.572
63067W        W35393  12.349  41.261   3.816
63068W        W35394   9.429   2.234  14.348
63069W        W35395  10.376  42.703   4.550
63070W        W35396  26.255   3.438   3.738
63071W        W35397  19.970  25.595   0.619
63072W        W35398   0.662  11.797   4.126
63073W        W35399  32.001  29.214  10.601
63074W        W35400  42.114  25.045  13.000
63075W        W35401  24.488  12.261   4.664
63076W        W35402  40.894  26.066   2.857
63077W        W35403  12.823  42.869  13.460
63078W        W35404  41.611  17.061   1.410
63079W        W35405  36.174  19.816   3.809
63080W        W35406  13.034  33.532  14.836
63081W        W35407  24.219  22.144   3.836
63082W        W35408   0.257  36.542  13.016
63083W        W35409  34.748  20.306   2.336
63084W        W35410  40.958  21.523  11.461
63085W        W35411  14.123  28.007  13.563
63086W        W35412  22.096   8.386   2.892
63087W        W35413  31.933  30.174  12.430
63088W        W35414  18.282  41.984  12.189
63089W        W35415  20.744  18.134  11.395
63090W        W35416   9.728  34.027  14.580
63091W        W35417  31.938  11.865   2.723
63092W        W35418  28.075  44.379  10.027
63093W        W35419  23.871  44.444  14.914
63094W        W35420  41.557  18.605   0.862
63095W        W35421  37.885   5.327  14.203
63096W        W35422  32.002  26.609   1.356
63097W        W35423   6.027  29.507  13.458
63098W        W35424   8.154   7.809   3.049
63099W        W35425  16.616  29.558  11.538
63100W        W35426  12.138  32.004   4.122
63101W        W35427  31.587  15.959   3.403
63102W        W35428  36.118  22.538   1.124
63103W        W35429  44.564  31.652   3.534
63104W        W35430  26.483  10.378  10.951
63105W        W35431  36.953   8.600  13.066
63106W        W35432  32.064  41.771  13.862
63107W        W35433  28.087  13.400   2.403
63108W        W35434  14.417   6.341   2.715
63109W        W35435   6.628  42.764  14.766
63110W        W35436   6.513  40.458  10.963
63111W        W35437  19.831  44.243   4.189
63112W        W35438  24.486   2.280   3.293
63113W        W35439  35.376  12.113   4.562
63114W        W35440   3.643  33.015   3.694
63115W        W35441   7.644  13.844   2.337
63116W        W35442  43.927  12.309  14.506
63117W        W35443  38.388   2.713  13.540
63118W        W35444  10.692  27.438   3.352
63119W        W35445  20.762  36.315  10.566
63120W        W35446  28.143  28.209  10.685
63121W        W35447   2.354  38.975   3.103
63122W        W35448  27.062  18.152  14.043
63123W        W35449  34.459  41.351   3.661
63124W        W35450  16.253  37.389   0.272
63125W        W35451  32.413  30.613  13.260
63126W        W35452  26.574  26.772  13.971
63127W        W35453  24.943  28.980   4.416
63128W        W35454   5.868   6.195   3.156
63129W        W35455  16.206   3.438   1.749
63130W        W35456  18.765  32.097  11.239
63131W        W35457   9.657   4.917  11.025
63132W        W35458  33.627  27.489  11.659
63133W        W35459  24.644  24.596   1.834
63134W        W35460  12.589  35.325  12.247
63135W        W35461  43.582   0.807   1.732
63136W        W35462   2.917  21.242   3.757
63137W        W35463  25.917  28.101  12.907
63138W        W35464   2.793  34.135   3.321
63139W        W35465   6.271  26.693  14.929
63140W        W35466   5.921  23.519   3.136
63141W        W35467  29.213  33.388   3.549
63142W        W35468  20.939  42.824  11.618
63143W        W35469  13.204  35.869   2.326
63144W        W35470   7.269  11.611   3.401
63145W        W35471  38.165  23.122  14.347
63146W        W35472  43.026  17.107   4.193
63147W        W35473  19.038  21.816  11.155
63148W        W35474  14.934   7.686   0.936
63149W        W35475  33.117  43.786  11.033
63150W        W35476  15.276  16.842  14.496
63151W        W35477  22.230  19.639   0.987
63152W        W35478   8.126   8.683  11.127
63153W        W35479   2.976  11.815   2.276
63154W        W35480  30.892  12.181   2.369
63155W        W35481  40.399  27.340   0.748
63156W        W35482   9.855   3.858  13.003
63157W        W35483  29.718  24.118   4.110
63158W        W35484  28.994  10.207  10.397
63159W        W35485  35.810  39.588  13.964
63160W        W35486  23.727   1.729  10.460
63161W        W35487  27.422   2.351  10.449
63162W        W35488  27.459  38.822   2.699
63163W        W35489   5.807  36.551   0.327
63164W        W35490  15.853  15.830   2.254
63165W        W35491  20.985  16.094  14.708
63166W        W35492  12.786  32.015   1.847
63167W        W35493   2.741  38.213   1.568
63168W        W35494   0.285  39.533  13.878
63169W        W35495  36.376  35.882   0.320
63170W        W35496   1.881  29.004   1.420
63171W        W35497   2.523  39.364  10.606
63172W        W35498  27.184   6.843  12.854
63173W        W35499  32.112  19.869  13.064
63174W        W35500  28.523  33.363  12.124
63175W        W35501  21.115  32.420  13.964
63176W        W35502  19.477  27.108   3.246
63177W        W35503   4.955   6.685   0.691
63178W        W35504  25.677  22.009  11.655
63179W        W35505  29.646  15.622   4.581
63180W        W35506  37.857   5.121  14.685
63181W        W35507  29.983   1.341   4.758
63182W        W35508  34.247   6.777  10.664
63183W        W35509   3.677   2.796   5.298
63184W        W35510  38.910  39.834   3.844
63185W        W35511  22.204  22.524  14.740
63186W        W35512  27.777  36.292  14.866
63187W        W35513  15.973  15.234  14.909
63188W        W35514  25.531  22.013   0.783
63189W        W35515  20.196  28.586   3.476
63190W        W35516  38.928  39.179  11.865
63191W        W35517  25.518  37.809  11.480
63192W        W35518  21.965  33.769  12.541
63193W        W35519  44.374  13.783   0.899
63194W        W35520  26.476  33.300   0.742
63195W        W35521  29.175   6.420   3.820
63196W        W35522  29.597  23.169  14.496
63197W        W35523   6.168  21.200   1.401
63198W        W35524   0.569  33.960   4.463
63199W        W35525   1.433  26.132   3.306
63200W        W35526  41.318   2.969  13.962
63201W        W35527  42.942  25.198  12.707
63202W        W35528  16.195  40.535   4.796
63203W        W35529  33.592  42.056  12.506
63204W        W35530  40.022  34.033   4.362
63205W        W35531  35.480  44.761  10.740
63206W        W35532  29.125  18.000  11.898
63207W        W35533  12.587  18.596   2.630
63208W        W35534   5.301  22.947   1.378
63209W        W35535  17.623   2.785  12.162
63210W        W35536  31.836  25.204  11.668
63211W        W35537  29.442  10.113   4.116
63212W        W35538   7.409  29.395  12.089
63213W        W35539  30.539  15.849  13.882
63214W        W35540  40.496   8.412  12.775
63215W        W35541  10.915   4.838  12.941
63216W        W35542   2.819   0.986  11.973
63217W        W35543   0.417  11.014   0.424
63218W        W35544   7.425  27.963   4.577
63219W        W35545  43.464  16.024   4.224
63220W        W35546   5.384  27.523  12.411
63221W        W35547  24.544  36.660  11.874
63222W        W35548  31.183   1.931   4.300
63223W        W35549  17.076  29.953   4.605
63224W        W35550  36.513  22.246   4.373
63225W        W35551  31.598  37.093  10.704
63226W        W35552  39.306  27.154   1.760
63227W        W35553  23.607  26.524   1.500
63228W        W35554  18.217  43.184  14.766
63229W        W35555  33.440  37.760   3.225
63230W        W35556  38.979  35.917   4.399
63231W        W35557  23.857  27.693  14.274
63232W        W35558  31.145  13.412  13.743
63233W        W35559   9.401  22.721   4.923
63234W        W35560  30.078  42.478  13.543
63235W        W35561  42.949  37.486   3.577
63236W        W35562  39.393  14.204  11.424
63237W        W35563  24.138   4.002   0.725
63238W        W35564  16.744  28.750   1.266
63239W        W35565  16.203  35.334  12.600
63240W        W35566   5.486  12.823   3.670
63241W        W35567  38.653  18.941  12.643
63242W        W35568  12.444  13.575   2.816
63243W        W35569  22.814  11.532  11.055
63244W        W35570   6.091   0.955  14.255
63245W        W35571  14.196  22.810   3.894
63246W        W35572   4.585   8.983  12.897
63247W        W35573  25.188  35.941  13.776
63248W        W35574   4.624  26.172   1.609
63249W        W35575  22.940   5.644  11.546
63250W        W35576  32.014  38.365  10.277
63251W        W35577  17.498   8.716   4.004
63252W        W35578  32.168   1.544  14.524
63253W        W35579   9.239  15.825  11.726
63254W        W35580  21.268  33.798   1.384
63255W        W35581   9.660  42.509  10.661
63256W        W35582  42.408   1.795   2.594
63257W        W35583   4.391  27.712  13.077
63258W        W35584   0.346  18.075   4.390
63259W        W35585  29.567   8.040   3.302
63260W        W35586  24.980  12.231   3.773
63261W        W35587  25.919  30.182   3.202
63262W        W35588  21.329  10.431   1.694
63263W        W35589  36.334  39.876   0.909
63264W        W35590   6.423  13.310  13.021
63265W        W35591  34.780   2.441  12.208
63266W        W35592  44.749  25.554  12.866
63267W        W35593  29.601   9.012   0.833
63268W        W35594  42.353  25.162   1.216
63269W        W35595  37.758  20.198   0.835
63270W        W35596  26.657  43.569  14.768
63271W        W35597   2.196  36.633  12.036
63272W        W35598  38.879   2.230   4.934
63273W        W35599  36.577   6.191  12.371
63274W        W35600  20.649  34.965   2.119
63275W        W35601  20.342  39.502   3.922
63276W        W35602  26.088  28.076   5.007
63277W        W35603  26.097  34.810   0.294
63278W        W35604  24.514  42.423   1.160
63279W        W35605  27.045  21.118  11.650
63280W        W35606  15.732  29.997   4.434
63281W        W35607  19.062  25.967   2.952
63282W        W35608  27.478  26.285  14.275
63283W        W35609  32.181  28.812   1.790
63284W        W35610  41.629  42.090  12.124
63285W        W35611  12.175   3.219  14.172
63286W        W35612   6.230  17.244  13.865
63287W        W35613  31.092  40.074   1.432
63288W        W35614   7.110   7.136   3.623
63289W        W35615  24.112   5.701   2.917
63290W        W35616   9.025  27.847  14.296
63291W        W35617  35.780  28.138   3.340
63292W        W35618  22.655  11.038  11.158
63293W        W35619  33.493  25.707  11.093
63294W        W35620  41.038  31.362  11.521
63295W        W35621  19.302   0.876  14.725
63296W        W35622  26.560   6.743  13.148
63297W        W35623  20.614   3.133  13.049
63298W        W35624   4.782  36.383   0.955
63299W        W35625  10.479  17.848  13.628
63300W        W35626  40.254  11.424   1.834
63301W        W35627  13.734  29.686   4.598
63302W        W35628   6.348  20.268  11.443
63303W        W35629  16.857  35.321   1.778
63304W        W35630  37.897  13.407  11.633
63305W        W35631  21.228  30.071  13.774
63306W        W35632   5.777  12.275  14.524
63307W        W35633   1.533  11.153  10.720
63308W        W35634  21.543  44.216   0.269
63309W        W35635   4.390   9.381   1.632
63310W        W35636  17.044  16.538   4.643
63311W        W35637   0.900  15.316   3.773
63312W        W35638  41.010  26.850  13.029
63313W        W35639  44.145  41.949   4.530
63314W        W35640  23.447  21.132  14.498
63315W        W35641  10.201  18.566  14.278
63316W        W35642  29.068  18.594  13.498
63317W        W35643  20.205   3.686  11.882
63318W        W35644  13.570  10.821  14.099
63319W        W35645  10.648  19.363  12.602
63320W        W35646   3.385  11.991   3.261
63321W        W35647   7.328  37.122  10.682
63322W        W35648  11.240  22.840  11.388
63323W        W35649  28.933  38.288  10.966
63324W        W35650  10.427   1.768   3.338
63325W        W35651  40.809   3.848   2.451
63326W        W35652   0.216  42.816   3.782
63327W        W35653  14.277  33.848   5.515
63328W        W35654  27.409  25.795   3.326
63329W        W35655  42.360  11.740   4.588
63330W        W35656  36.542  11.360  11.093
63331W        W35657   5.311   1.596   4.035
63332W        W35658  38.581  30.523  11.565
63333W        W35659  14.192  34.309  13.842
63334W        W35660  39.017  21.325  10.147
63335W        W35661   9.729  12.470  11.069
63336W        W35662  42.600  12.636   3.303
63337W        W35663  33.488  41.289   0.460
63338W        W35664  15.427  19.216   1.885
63339W        W35665  29.181  13.792  11.215
63340W        W35666  10.538  11.089   0.079
63341W        W35667  18.236  27.576  10.691
63342W        W35668  21.250  31.596   1.891
63343W        W35669  25.377  32.000  11.059
63344W        W35670   6.824   0.877   4.401
63345W        W35671  28.720  20.697  11.693
63346W        W35672  27.107  21.535   4.718
63347W        W35673  43.391  29.552   3.851
63348W        W35674  25.542  28.438  14.830
63349W        W35675  11.286  17.811   2.817
63350W        W35676  28.686   1.279   0.212
63351W        W35677  25.513   0.248  12.488
63352W        W35678   8.817  31.217  12.322
63353W        W35679  19.914  16.720   2.005
63354W        W35680  23.677   7.634   2.227
63355W        W35681  44.313   2.645  14.863
63356W        W35682  27.091  20.667   0.475
63357W        W35683  33.564   5.452  14.006
63358W        W35684  44.718  14.743   3.987
63359W        W35685   6.988  33.586   2.911
63360W        W35686  26.398  16.991   0.347
63361W        W35687   5.940  29.123   4.696
63362W        W35688  17.303   6.015  12.090
63363W        W35689  14.239  25.376  12.205
63364W        W35690   2.089   1.823  12.378
63365W        W35691  37.933  23.994  13.932
63366W        W35692  39.494  35.536  14.735
63367W        W35693   5.317   4.986  12.955
63368W        W35694  25.025   7.264   2.192
63369W        W35695  42.349  16.119   3.786
63370W        W35696  29.463  14.426   0.101
63371W        W35697   3.891  40.448   0.465
63372W        W35698  41.006  11.723  14.965
63373W        W35699  41.281  39.832  12.212
63374W        W35700  15.343  41.495  12.653
63375W        W35701  39.475  10.145   3.854
63376W        W35702  26.462   5.838  14.502
63377W        W35703  24.761   0.413   0.425
63378W        W35704   4.946  26.253   3.046
63379W        W35705   6.620   2.285   2.569
63380W        W35706  17.042  28.974   0.899
63381W        W35707  33.119  15.873   0.245
63382W        W35708   7.141   2.206   4.141
63383W        W35709   8.401  15.590  11.596
63384W        W35710  29.230  35.039   3.295
63385W        W35711  14.267  25.630   1.425
63386W        W35712   2.987  26.491  12.846
63387W        W35713  41.857  15.651   2.300
63388W        W35714  39.620  18.714   3.555
63389W        W35715   8.471  14.327  14.376
63390W        W35716  15.352  23.618  12.480
63391W        W35717   1.874  23.386   4.531
63392W        W35718   6.940  42.837  10.050
63393W        W35719  25.836  15.749  10.832
63394W        W35720  18.422  12.685  13.344
63395W        W35721  10.285  15.348  11.088
63396W        W35722  24.583  12.856  10.489
63397W        W35723  18.772  37.884  12.935
63398W        W35724  41.013  13.597   4.711
63399W        W35725   5.316  32.062  14.755
63400W        W35726  22.446  19.233   1.371
63401W        W35727  18.358  34.115  10.698
63402W        W35728  36.395  29.921   2.526
63403W        W35729  19.084   3.615   1.820
63404W        W35730  42.927  33.652   3.321
63405W        W35731  29.823  11.240  14.611
63406W        W35732  38.343  22.512   1.706
63407W        W35733  32.034  38.813  13.608
63408W        W35734  36.399   0.392   0.154
63409W        W35735  23.216  42.087  11.476
63410W        W35736   0.517  21.604  13.048
63411W        W35737   8.409  23.010  14.613
63412W        W35738  38.105  12.108   3.042
63413W        W35739  42.081   6.710  13.903
63414W        W35740  21.649  37.900  14.319
63415W        W35741  32.768  39.840  11.917
63416W        W35742  10.540  19.009  14.409
63417W        W35743  39.552  12.071   0.415
63418W        W35744  44.200   8.541   0.921
63419W        W35745  41.356   2.391  11.694
63420W        W35746  40.786  32.505   2.806
63421W        W35747  11.933  16.494  11.093
63422W        W35748  17.372  30.027   2.214
63423W        W35749  24.187  12.315   1.430
63424W        W35750   0.365   9.772  10.755
63425W        W35751  34.432  22.018   0.869
63426W        W35752   1.917  32.094   4.234
63427W        W35753  31.111  22.627  12.925
63428W        W35754  44.240  14.548  13.042
63429W        W35755   5.876  25.468   3.837
63430W        W35756   8.319   5.907   3.094
63431W        W35757  25.334  32.385   2.574
63432W        W35758   5.788  27.004  14.880
63433W        W35759  44.012   0.130  12.088
63434W        W35760   6.292  26.405   4.213
63435W        W35761  34.523   0.765  12.584
63436W        W35762   4.910   6.192  13.414
63437W        W35763   0.094   8.945   1.321
63438W        W35764  31.871  26.050  14.537
63439W        W35765  21.593  38.310   3.677
63440W        W35766  34.973   4.344  11.025
63441W        W35767  16.752  43.722   0.286
63442W        W35768  39.038  30.121  13.698
63443W        W35769   6.944   5.277   0.859
63444W        W35770  32.507  38.835  13.359
63445W        W35771   6.826   4.519   2.371
63446W        W35772  28.085  13.537   4.514
63447W        W35773  22.623   1.862   3.989
63448W        W35774  22.104  27.420  13.811
63449W        W35775   1.405   8.938   4.598
63450W        W35776  26.558   3.214   0.172
63451W        W35777  41.212  34.063  13.056
63452W        W35778  30.109  17.963  14.312
63453W        W35779  30.138  29.418   4.570
63454W        W35780  33.049  26.478   3.743
63455W        W35781  43.012  34.992  14.316
63456W        W35782  44.861  12.932   4.232
63457W        W35783  26.020  30.342  10.722
63458W        W35784  30.426   3.808  13.548
63459W        W35785  39.100  34.989   4.074
63460W        W35786  14.152  25.882  12.016
63461W        W35787  40.521  39.379   4.032
63462W        W35788  40.980  26.198  12.411
63463W        W35789   8.254  13.285   1.399
63464W        W35790  21.996   5.480  13.342
63465W        W35791  26.518  18.730   1.429
63466W        W35792  10.818  37.778  10.960
63467W        W35793   8.283  27.406   0.273
63468W        W35794  22.476  32.391   4.095
63469W        W35795   3.690   0.900   0.997
63470W        W35796  43.532  34.855   0.313
63471W        W35797  12.278  35.986  11.650
63472W        W35798  12.288  15.486  13.999
63473W        W35799  43.474  39.116   4.792
63474W        W35800  18.473  14.308   2.425
63475W        W35801  33.345  37.597   4.588
63476W        W35802  12.294  44.786   3.445
63477W        W35803  44.393   4.654  12.847
63478W        W35804  26.610  25.993   3.578
63479W        W35805  39.923  37.311  12.563
63480W        W35806  34.191  26.216   2.355
63481W        W35807  42.700  19.542   3.366
63482W        W35808  42.616  40.150  13.507
63483W        W35809  19.519  36.990  11.554
63484W        W35810  39.503  40.627   2.732
63485W        W35811  43.788  22.289  12.609
63486W        W35812   4.361  29.155  11.521
63487W        W35813  36.932  29.135   1.781
63488W        W35814   7.207  24.483  13.627
63489W        W35815  18.516  15.181   2.132
63490W        W35816   8.473   2.299  11.764
63491W        W35817  39.015   2.047   0.258
63492W        W35818  23.681  35.367  12.546
63493W        W35819  12.578  13.905  12.199
63494W        W35820  26.586  39.358   2.716
63495W        W35821  17.898  32.804   0.308
63496W        W35822  12.605  41.046  11.239
63497W        W35823  25.216   1.231   1.380
63498W        W35824  23.677  43.343   3.724
63499W        W35825   5.866  29.981  13.561
63500W        W35826  32.077  18.030  14.785
63501W        W35827  29.744  29.024   1.410
63502W        W35828  40.852   3.417  12.608
63503W        W35829  33.252   2.790   3.627
63504W        W35830  40.343   8.653  14.423
63505W        W35831  38.761  14.278   4.032
63506W        W35832  33.887   0.831   2.239
63507W        W35833  42.898  35.464   3.738
63508W        W35834  13.571  21.998  10.294
63509W        W35835  37.351  10.258   2.200
63510W        W35836  42.257   7.711  14.003
63511W        W35837  19.346  19.157   0.342
63512W        W35838  16.300  11.066   3.221
63513W        W35839  10.697  40.833  14.525
63514W        W35840   6.424   9.594  13.866
63515W        W35841  10.621  40.869   3.343
63516W        W35842  24.743  23.133  13.991
63517W        W35843   4.351  16.880  11.406
63518W        W35844   5.423  33.660  14.856
63519W        W35845  31.921   2.397  11.477
63520W        W35846   6.922  38.008  12.505
63521W        W35847  38.591   2.949   3.792
63522W        W35848   7.678  22.628   4.164
63523W        W35849   3.877  25.558  12.029
63524W        W35850  38.229  37.893  12.919
63525W        W35851  37.522  10.338  10.641
63526W        W35852  35.089  18.866  13.426
63527W        W35853  36.442   5.823   0.915
63528W        W35854  37.479  38.080  12.597
63529W        W35855  40.005   0.961   0.959
63530W        W35856   5.716  31.403   2.758
63531W        W35857  19.814  37.930   4.642
63532W        W35858  12.069   1.340  12.006
63533W        W35859  26.510  39.492   2.191
63534W        W35860  13.566  18.963  12.053
63535W        W35861  12.097  18.707   2.634
63536W        W35862   3.814  34.129  11.581
63537W        W35863  32.409  13.766   1.925
63538W        W35864   2.800  39.232  14.055
63539W        W35865   6.694  29.612  11.073
63540W        W35866  24.738   1.351   0.384
63541W        W35867  41.489  43.781   0.729
63542W        W35868  18.764  12.961   1.817
63543W        W35869  29.425  28.412  13.035
63544W        W35870   0.013  29.202   3.877
63545W        W35871  44.341  15.365   4.725
63546W        W35872  34.067   8.611  11.076
63547W        W35873   6.171  13.703   2.061
63548W        W35874  10.751  25.977   1.329
63549W        W35875  29.434  27.534   9.775
63550W        W35876  28.090  19.526  11.281
63551W        W35877  27.904  20.437  12.885
63552W        W35878   4.221  11.094   5.486
63553W        W35879  24.097  38.319  12.850
63554W        W35880  17.120  23.654  10.954
63555W        W35881  41.571  14.782  10.697
63556W        W35882  43.365   2.513  10.567
63557W        W35883  37.833  38.341  11.676
63558W        W35884  22.495  43.560  14.961
63559W        W35885   8.703   8.621   0.249
63560W        W35886  16.339  14.628   4.086
63561W        W35887   6.813  15.344   0.723
63562W        W35888  44.738  32.344  13.085
63563W        W35889   1.493  27.485  13.065
63564W        W35890  43.354   3.748   4.919
63565W        W35891  27.599  31.146   0.005
63566W        W35892   2.855   1.913  11.734
63567W        W35893   5.354  23.511  11.619
63568W        W35894  40.245  20.219  11.186
63569W        W35895  22.140  40.924  14.931
63570W        W35896  42.793  10.299   3.168
63571W        W35897  43.905  23.432  12.857
63572W        W35898  16.539  43.719  12.453
63573W        W35899  20.458  41.339   0.419
63574W        W35900  40.933  15.544  12.495
63575W        W35901  32.571  42.714   3.117
63576W        W35902  39.653  10.788   9.972
63577W        W35903  38.446   4.763   0.861
63578W        W35904  33.156   0.516   0.218
63579W        W35905  36.036  42.555  14.771
63580W        W35906  38.635  43.304   0.470
63581W        W35907  29.771  43.975  12.959
63582W        W35908  35.615  11.934   4.126
63583W        W35909   0.973  23.433  13.149
63584W        W35910  35.307   2.231   4.683
63585W        W35911  29.183   5.909   2.628
63586W        W35912   9.403   6.186   1.849
63587W        W35913   0.600  23.041   0.211
63588W        W35914   7.793   0.841  10.268
63589W        W35915   0.686  13.640  14.845
63590W        W35916  27.265  34.681  14.744
63591W        W35917  24.270   7.286   4.047
63592W        W35918  33.924  30.187  11.072
63593W        W35919  16.260  18.541   2.338
63594W        W35920   8.983   3.340  12.616
63595W        W35921   6.837  10.661  13.530
63596W        W35922   2.536  33.144   4.874
63597W        W35923  33.898  11.155  11.654
63598W        W35924  14.111  14.743  10.710
63599W        W35925  18.616  16.928  14.286
63600W        W35926  14.811  11.691   0.763
63601W        W35927  17.737  22.064   1.339
63602W        W35928  25.894  15.428  12.615
63603W        W35929  17.322  16.852   4.352
63604W        W35930  31.811  35.595   3.331
63605W        W35931   7.157  12.623   1.771
63606W        W35932  38.547   5.294  11.495
63607W        W35933  12.652  13.386  13.982
63608W        W35934   3.275   5.661   1.646
63609W        W35935  26.495  21.981  11.543
63610W        W35936  26.561  30.771   1.536
63611W        W35937  39.017  31.411  14.549
63612W        W35938  40.612  18.142  13.303
63613W        W35939  37.303  24.589  10.919
63614W        W35940  11.287  35.432   3.584
63615W        W35941  31.790  12.500  11.081
63616W        W35942   4.192  21.679   5.644
63617W        W35943  39.517  36.448  11.009
63618W        W35944   4.260  22.984   2.231
63619W        W35945  15.904  28.371  11.983
63620W        W35946   9.542  32.467  12.599
63621W        W35947   8.234  38.383  10.679
63622W        W35948  11.875  38.380  13.270
63623W        W35949  44.205   5.444   4.530
63624W        W35950  28.384   9.679  13.459
63625W        W35951   5.599  39.321  12.298
63626W        W35952   2.367  32.593  11.474
63627W        W35953  39.293  37.645  11.454
63628W        W35954  40.288  43.520  12.130
63629W        W35955  14.100  32.885   2.810
63630W        W35956  13.262  10.889   3.365
63631W        W35957  20.179  31.869  13.039
63632W        W35958  15.691  24.522   4.742
63633W        W35959  24.986  19.392  14.017
63634W        W35960  17.708  23.771   1.846
63635W        W35961  26.921  44.616   1.254
63636W        W35962   9.318  10.368  12.990
63637W        W35963  12.814  35.546  13.896
63638W        W35964  40.817   2.988  10.941
63639W        W35965   7.556  22.156  11.120
63640W        W35966   4.161  39.531   2.373
63641W        W35967  36.537  30.588   0.898
63642W        W35968   5.675  28.707  13.536
63643W        W35969  23.935  18.435   4.887
63644W        W35970  23.980  23.553   2.269
63645W        W35971  24.625  27.385  12.053
63646W        W35972  18.529  39.921  14.273
63647W        W35973  14.327  41.264   3.632
63648W        W35974  25.595  20.279  13.313
63649W        W35975  16.295   5.861   1.876
63650W        W35976  25.293  28.665   0.222
63651W        W35977  29.275  23.397   3.661
63652W        W35978   8.060  18.264   0.261
63653W        W35979  11.678  42.553  10.250
63654W        W35980   7.708  22.706   2.309
63655W        W35981  41.167  44.903  10.682
63656W        W35982  44.902   0.035   2.825
63657W        W35983   1.703  10.838   2.308
63658W        W35984  31.055  38.763  14.430
63659W        W35985  14.633   5.311  12.504
63660W        W35986  17.183  17.278   4.041
63661W        W35987  41.248   0.251  12.665
63662W        W35988   2.247  34.738   1.835
63663W        W35989  29.493   3.186   4.129
63664W        W35990  30.848  41.276   1.785
63665W        W35991   7.711  20.220   2.626
63666W        W35992  27.734   1.931  11.134
63667W        W35993  19.214   8.821  14.414
63668W        W35994  21.360  31.393   0.724
63669W        W35995  34.614   3.064   1.921
63670W        W35996  29.625  15.590   0.984
63671W        W35997  35.987  22.714   2.689
63672W        W35998  41.734  40.848  12.780
63673W        W35999  38.753  41.019   0.287
63674W        W36000  23.097  26.476   1.690
63675W        W36001  42.405  44.344  14.047
63676W        W36002  20.149  23.264   0.845
63677W        W36003  18.196  15.170   4.689
63678W        W36004   6.170   0.864   2.134
63679W        W36005  16.831   6.207   0.072
63680W        W36006  13.481   2.479   3.174
63681W        W36007  15.336   8.374   4.324
63682W        W36008  10.339  30.075   4.848
63683W        W36009  37.799  42.935   2.738
63684W        W36010   5.830  20.050   3.662
63685W        W36011  42.095  13.897  10.519
63686W        W36012  11.558   4.025   1.349
63687W        W36013  35.427  23.237   3.889
63688W        W36014  39.763  20.452   4.641
63689W        W36015  14.776  20.305   3.682
63690W        W36016  30.439  21.494   0.713
63691W        W36017  26.880  38.282   3.446
63692W        W36018   2.920   4.924   3.629
63693W        W36019  27.438  44.724   3.171
63694W        W36020  19.935  43.776  10.637
63695W        W36021  12.571  29.465   0.540
63696W        W36022   2.391  34.567   3.653
63697W        W36023  38.900  29.520   1.781
63698W        W36024  34.777  37.851  12.661
63699W        W36025  43.457   3.156   2.679
63700W        W36026  20.323  39.567   0.884
63701W        W36027   7.754  14.584   3.743
63702W        W36028  35.772   0.267  12.094
63703W        W36029   3.211   2.026   3.773
63704W        W36030   7.463  25.130  12.493
63705W        W36031  32.464   6.186  11.873
63706W        W36032   6.734  26.959  14.822
63707W        W36033   7.342  38.226   1.685
63708W        W36034  24.141  30.248  12.017
63709W        W36035   4.926   0.368  11.022
63710W        W36036  35.873  43.043   0.567
63711W        W36037  21.306  20.672   2.281
63712W        W36038  30.124  30.923  14.694
63713W        W36039  27.007  28.946   0.860
63714W        W36040  22.995  44.918   4.218
63715W        W36041  24.400  16.688   0.933
63716W        W36042   3.582  34.030   0.829
63717W        W36043  38.605  37.347   4.095
63718W        W36044  11.895  23.617   4.112
63719W        W36045   5.374  43.851  10.589
63720W        W36046  32.792  20.307   0.193
63721W        W36047  41.976   4.751  12.862
63722W        W36048   0.436  32.572   3.312
63723W        W36049  41.805  21.093  12.925
63724W        W36050  40.994  12.724  12.026
63725W        W36051  40.912  11.628   3.921
63726W        W36052  42.732   3.406   3.628
63727W        W36053  42.125   6.465   4.581
63728W        W36054  22.188  25.946   1.638
63729W        W36055   8.168  13.294  14.477
63730W        W36056  34.585  10.173   0.029
63731W        W36057  26.007  30.565   2.211
63732W        W36058  39.806  15.078  11.401
63733W        W36059  29.972  19.845   4.581
63734W        W36060  14.760  37.640  11.955
63735W        W36061  40.779   9.437   3.865
63736W        W36062  24.302  13.951   4.309
63737W        W36063  11.295  31.376   2.248
63738W        W36064   1.342  24.457  11.565
63739W        W36065  36.006  21.581   2.826
63740W        W36066  25.579  38.142  13.737
63741W        W36067  13.102  10.626  13.949
63742W        W36068  33.165  37.540   5.072
63743W        W36069  41.772   3.817  11.535
63744W        W36070  42.830  39.750  13.753
63745W        W36071  24.221  40.194   1.242
63746W        W36072  27.653  12.302   0.381
63747W        W36073   2.513  22.766  12.154
63748W        W36074  12.789  31.813  13.872
63749W        W36075  37.394  40.383  11.258
63750W        W36076   6.189  27.989   2.656
63751W        W36077  29.373  23.462  10.440
63752W        W36078  38.535  18.955   2.900
63753W        W36079  15.712  33.188   4.554
63754W        W36080  21.779   6.857  10.742
63755W        W36081  22.609  37.318   1.281
63756W        W36082  41.850   5.195  12.378
63757W        W36083  12.900  36.151  11.994
63758W        W36084   2.873   6.599  12.079
63759W        W36085  12.065  44.698  11.057
63760W        W36086  38.515  15.544  13.474
63761W        W36087   3.877  10.809   1.072
63762W        W36088  16.886  35.214  12.511
63763W        W36089  31.855  36.872  14.543
63764W        W36090  35.043  13.843   4.231
63765W        W36091   2.329   3.870   4.427
63766W        W36092   6.309  27.239  13.039
63767W        W36093  10.576  35.554   0.890
63768W        W36094  13.198  15.634   1.501
63769W        W36095  37.879  35.917   5.113
63770W        W36096  28.853  17.838   3.673
63771W        W36097  44.840   0.063  12.028
63772W        W36098  20.326  41.542   2.693
63773W        W36099  23.236  43.040   0.275
63774W        W36100  32.053   4.118  11.280
63775W        W36101   1.842  25.296   1.177
63776W        W36102  36.848   5.296   4.605
63777W        W36103  22.309  20.646   1.820
63778W        W36104   0.279   1.706  12.432
63779W        W36105  37.278  43.722   3.056
63780W        W36106   9.687  28.062   1.786
63781W        W36107   8.914  23.624  14.309
63782W        W36108  32.484   5.932   4.582
63783W        W36109  33.449  33.650  10.202
63784W        W36110  23.466  32.739   1.421
63785W        W36111  13.579   6.188  13.377
63786W        W36112  32.891   9.737  13.085
63787W        W36113  34.614   0.525   3.697
63788W        W36114   1.315  21.585   2.624
63789W        W36115  14.723  24.681   4.203
63790W        W36116  21.674  13.148  14.038
63791W        W36117   1.434   6.235  14.349
63792W        W36118  30.329  25.200   3.745
63793W        W36119   3.449  26.302  10.922
63794W        W36120  27.838   8.429  14.738
63795W        W36121  13.741  23.997   3.200
63796W        W36122   1.313  11.389  11.121
63797W        W36123   5.019  33.197   2.699
63798W        W36124  42.351  14.409   0.849
63799W        W36125   9.189  43.181   2.772
63800W        W36126   3.990   1.026   0.597
63801W        W36127  14.176  22.026   2.649
63802W        W36128  19.840  15.746   4.143
63803W        W36129   9.847   8.315   1.169
63804W        W36130  21.218   5.386   4.470
63805W        W36131   2.884  10.381   3.277
63806W        W36132  36.432  11.716  13.354
63807W        W36133  34.070  43.196  11.241
63808W        W36134  44.826  13.606   0.356
63809W        W36135   6.041   6.338   4.898
63810W        W36136  16.700  32.730  13.233
63811W        W36137  10.392  22.641   4.116
63812W        W36138  11.192  35.782  12.434
63813W        W36139  11.616   0.975   3.669
63814W        W36140  37.346  30.892  11.918
63815W        W36141  14.819  35.097  14.787
63816W        W36142  35.312  24.195  12.972
63817W        W36143  12.220  32.985   3.371
63818W        W36144  32.478  16.987   3.247
63819W        W36145   6.648  28.381  13.463
63820W        W36146  30.889  38.501  12.470
63821W        W36147  26.383  37.535   3.783
63822W        W36148  37.311  34.292   3.197
63823W        W36149  33.089  32.680   3.455
63824W        W36150  33.056  39.862   1.203
63825W        W36151  24.921  30.488  13.268
63826W        W36152  42.735   0.317  12.434
63827W        W36153  31.875  44.277  12.410
63828W        W36154  39.976  18.579  14.519
63829W        W36155  11.284   4.928  13.305
63830W        W36156  37.799  39.476   0.785
63831W        W36157  32.182  18.205  11.108
63832W        W36158  22.631  42.961   4.430
63833W        W36159  34.464  30.879  11.454
63834W        W36160  18.250  16.657   4.183
63835W        W36161  36.112  43.468   2.331
63836W        W36162  15.532   3.867   4.021
63837W        W36163  35.744  12.562   4.965
63838W        W36164   3.398  39.483  12.885
63839W        W36165  39.515   6.665  14.631
63840W        W36166  39.372  15.853  14.860
63841W        W36167  41.836  16.920  12.415
63842W        W36168  31.175  33.494   1.723
63843W        W36169  27.826   9.689  14.341
63844W        W36170  28.677  37.877   0.668
63845W        W36171  35.616  43.276  14.004
63846W        W36172   7.227  15.765  11.056
63847W        W36173   6.240  22.614   1.649
63848W        W36174  25.990  38.568   3.774
63849W        W36175   3.234  36.477   3.348
63850W        W36176  34.000  27.298  12.636
63851W        W36177  36.477  17.261  10.905
63852W        W36178   0.920   4.829  14.749
63853W        W36179   4.825  23.093  14.020
63854W        W36180  17.548  25.078  14.427
63855W        W36181  39.224  38.785   9.988
63856W        W36182   8.309  23.111  12.103
63857W        W36183  27.984  11.683  11.459
63858W        W36184  33.056  44.388   4.261
63859W        W36185  43.190  38.978  13.360
63860W        W36186  14.542  30.354   1.909
63861W        W36187  37.520   2.902   3.730
63862W        W36188   6.659   4.381  12.081
63863W        W36189  26.715  19.568   1.363
63864W        W36190  25.001  15.385  11.552
63865W        W36191   5.847  25.423  12.121
63866W        W36192  31.603  18.054   3.275
63867W        W36193  18.234   9.117   4.318
63868W        W36194  37.116  31.891  11.577
63869W        W36195  22.050  27.895   2.389
63870W        W36196  15.177  18.538   3.607
63871W        W36197  31.010  20.305  10.736
63872W        W36198  10.854   7.887   3.742
63873W        W36199  32.701  29.431  10.735
63874W        W36200   6.993  44.102  12.454
63875W        W36201   3.965  25.664   3.284
63876W        W36202  33.918   3.464  13.285
63877W        W36203   8.651  12.695  14.842
63878W        W36204  21.562  44.792   2.904
63879W        W36205  43.830  21.054  10.587
63880W        W36206  15.228   1.760   3.216
63881W        W36207   4.046  38.150   3.324
63882W        W36208  30.004   5.082   4.085
63883W        W36209  38.945  25.965  13.822
63884W        W36210  11.005  12.582   2.393
63885W        W36211  42.417  35.315  12.869
63886W        W36212  30.565   4.942  12.059
63887W        W36213   3.208  33.994   0.417
63888W        W36214  40.818   8.369   0.903
63889W        W36215   5.957  16.245   4.565
63890W        W36216  36.046  19.308  13.470
63891W        W36217   9.011  36.370   4.120
63892W        W36218  10.289   6.197  14.490
63893W        W36219  32.284   5.989  14.826
63894W        W36220  38.294  24.630   4.402
63895W        W36221  41.436  12.744  10.779
63896W        W36222  11.767   3.219  10.666
63897W        W36223  38.912  26.739   3.656
63898W        W36224  20.495  17.048   3.717
63899W        W36225  37.375   3.492  12.585
63900W        W36226  21.968  21.727  12.508
63901W        W36227  22.196  25.119   4.508
63902W        W36228  41.524  11.797   0.799
63903W        W36229   0.999   3.819   1.663
63904W        W36230  36.032  29.057   0.722
63905W        W36231   3.049   7.881   3.310
63906W        W36232   4.696  17.151  12.976
63907W        W36233   9.614  33.604  13.839
63908W        W36234  40.432  30.306   4.228
63909W        W36235  17.069  39.894   4.189
63910W        W36236  28.525  14.649   3.051
63911W        W36237   9.681  15.847  10.967
63912W        W36238  38.352   3.338  13.311
63913W        W36239  22.516  19.668  14.793
63914W        W36240   9.600  14.287   2.277
63915W        W36241  11.876  16.251  12.189
63916W        W36242   0.705  14.289   3.127
63917W        W36243  42.037   9.897   2.804
63918W        W36244   7.416   6.373   1.700
63919W        W36245  32.451  43.797  13.556
63920W        W36246  12.046  13.408  10.565
63921W        W36247   5.200  44.909   2.375
63922W        W36248  16.193  15.063   3.194
63923W        W36249  36.034   5.414  14.657
63924W        W36250  40.417  37.759   1.719
63925W        W36251  23.107  40.451   5.534
63926W        W36252   3.505  44.319  12.950
63927W        W36253  20.557   0.524  14.741
63928W        W36254  44.755  21.106  13.784
63929W        W36255  31.606  16.370  11.519
63930W        W36256  18.356  32.562   0.413
63931W        W36257  22.238  36.508  13.920
63932W        W36258  18.090  37.093  13.429
63933W        W36259  11.681  44.817   1.108
63934W        W36260  16.770   0.692   3.727
63935W        W36261  23.707  33.995  10.887
63936W        W36262  39.815  20.707   3.229
63937W        W36263  44.462  15.789  13.870
63938W        W36264  18.048   2.445   3.630
63939W        W36265   8.189  33.163  14.010
63940W        W36266  33.743  26.100  13.286
63941W        W36267  22.758   3.048   3.717
63942W        W36268  31.983  31.604  14.634
63943W        W36269  20.849  26.660  11.512
63944W        W36270  21.739  38.017   2.265
63945W        W36271  36.353  33.409  12.102
63946W        W36272  24.795  41.663  12.515
63947W        W36273  31.654  19.778   3.705
63948W        W36274   2.755  44.786   2.744
63949W        W36275   2.834  16.097  13.050
63950W        W36276   8.214  37.817  13.869
63951W        W36277   1.317   3.640   1.302
63952W        W36278  23.136  36.866  13.492
63953W        W36279  25.856  22.965   2.172
63954W        W36280  44.713  19.610  11.564
63955W        W36281  33.312  41.440  13.038
63956W        W36282  33.031  31.585   1.602
63957W        W36283  11.987  26.559   4.592
63958W        W36284   9.836   8.165   5.109
63959W        W36285   7.916  40.425   3.158
63960W        W36286  28.013  39.428  11.435
63961W        W36287  39.581  25.478  12.410
63962W        W36288  28.882  23.598  10.642
63963W        W36289  12.955  13.224  11.657
63964W        W36290  22.630   8.327   1.399
63965W        W36291  38.569  44.463  10.443
63966W        W36292  25.355  26.281  10.367
63967W        W36293   7.251   8.439   3.988
63968W        W36294  22.474  18.821   4.228
63969W        W36295  10.290  29.477  13.415
63970W        W36296  36.196  33.384   0.376
63971W        W36297   8.840  14.261   4.168
63972W        W36298   2.430  33.065  13.336
63973W        W36299  25.923  16.768  12.436
63974W        W36300  43.000  10.843  11.118
63975W        W36301  32.431  15.886   4.266
63976W        W36302  33.833  33.593  14.398
63977W        W36303   4.752  10.801   0.756
63978W        W36304  43.985   6.963  10.777
63979W        W36305  24.052  33.551  12.335
63980W        W36306  25.012   0.817   4.151
63981W        W36307  33.721  12.004  12.461
63982W        W36308  39.369  17.174   1.195
63983W        W36309  26.490  30.385   4.771
63984W        W36310  30.846  13.097  12.437
63985W        W36311  32.890  16.323  14.825
63986W        W36312  27.466   9.388  12.139
63987W        W36313   0.265  31.342  12.060
63988W        W36314   9.400  27.412  10.900
63989W        W36315   9.291  34.819   0.483
63990W        W36316  43.419  21.967  12.495
63991W        W36317  43.360  28.690   4.925
63992W        W36318  23.194  23.573  14.836
63993W        W36319  38.797  19.730   1.423
63994W        W36320  30.689  33.951  10.959
63995W        W36321   8.587  42.829   4.625
63996W        W36322   4.358  10.676  10.915
63997W        W36323  25.720   6.757  12.961
63998W        W36324  10.725   2.390   2.647
63999W        W36325   3.303  29.499  11.188
64000W        W36326  13.866  44.406   1.518
64001W        W36327  44.443   7.661   1.824
64002W        W36328  29.531  41.774  11.269
64003W        W36329  35.830   8.367   2.706
64004W        W36330  41.013  33.524  13.281
64005W        W36331  20.106   1.807   1.736
64006W        W36332  24.394  43.140  12.848
64007W        W36333   5.148  14.083  11.549
64008W        W36334  38.851   0.238  13.458
64009W        W36335  25.604  22.979  10.225
64010W        W36336  10.937  35.890   1.730
64011W        W36337  30.691   5.263  12.437
64012W        W36338  11.057   1.419   4.258
64013W        W36339  35.413   6.250   2.394
64014W        W36340  39.329  22.954  13.624
64015W        W36341  35.835  12.371  12.038
64016W        W36342  44.718  17.801   3.146
64017W        W36343  38.908  41.832   4.506
64018W        W36344   8.367  40.405   3.410
64019W        W36345  16.624   9.907  11.822
64020W        W36346   0.602  16.114  11.198
64021W        W36347   5.024  24.515  14.016
64022W        W36348   6.657   2.056  11.435
64023W        W36349  20.826  32.472  12.483
64024W        W36350   3.687  31.488  12.203
64025W        W36351  41.921  42.962   5.241
64026W        W36352  18.296   7.246  11.659
64027W        W36353  37.358  36.062   1.924
64028W        W36354  42.922   7.983  14.353
64029W        W36355  26.600  16.139  11.202
64030W        W36356  24.956  23.101  11.447
64031W        W36357  39.228  12.140   3.096
64032W        W36358  23.100   4.362   1.358
64033W        W36359   0.779   9.212   3.964
64034W        W36360  19.036  32.624  13.488
64035W        W36361   3.467  40.746   0.441
64036W        W36362  26.718  11.115  13.898
64037W        W36363  32.129  17.145  10.694
64038W        W36364  41.424  33.633  13.553
64039W        W36365  31.950   0.390   2.302
64040W        W36366  10.263  11.245   1.883
64041W        W36367  26.093  25.662  13.592
64042W        W36368  44.892  43.029  10.919
64043W        W36369  28.544  29.841   4.133
64044W        W36370  19.714  21.099   1.818
64045W        W36371   5.358  12.634   1.642
64046W        W36372  30.127  12.094   3.308
64047W        W36373  35.769  21.745  11.588
64048W        W36374  37.865  22.949  11.967
64049W        W36375  34.942  21.557  11.977
64050W        W36376  24.459  40.691   1.260
64051W        W36377  12.835  35.607   1.877
64052W        W36378  12.222   8.184  11.507
64053W        W36379  17.840  44.846   2.678
64054W        W36380  20.979  22.704   2.748
64055W        W36381  15.611  19.989  10.398
64056W        W36382  41.624  33.865  11.612
64057W        W36383   7.274   0.842  14.504
64058W        W36384  21.342  44.442  14.458
64059W        W36385  28.100   6.134   0.559
64060W        W36386  32.429  21.774  12.502
64061W        W36387  28.788   2.632  13.302
64062W        W36388  39.343  38.582   0.043
64063W        W36389  28.036  37.029   1.669
64064W        W36390  11.171  23.980   0.862
64065W        W36391  29.129  10.363  11.383
64066W        W36392  14.406  11.652   1.841
64067W        W36393  34.937  37.607  13.092
64068W        W36394  21.618  11.071   4.194
64069W        W36395   6.930   4.684   1.876
64070W        W36396  36.021  43.002  14.529
64071W        W36397  33.552  42.957   2.105
64072W        W36398  36.503   3.515   2.733
64073W        W36399  33.428  35.592   1.872
64074W        W36400   2.025   6.761  10.682
64075W        W36401   4.377   9.164  11.862
64076W        W36402  39.539  16.177   0.270
64077W        W36403  26.079  18.214  10.570
64078W        W36404  24.231  28.237   4.580
64079W        W36405   1.372  42.778   2.538
64080W        W36406  34.100  20.206   3.312
64081W        W36407   6.706  34.886   4.734
64082W        W36408  12.100  15.317   2.191
64083W        W36409   9.704   3.276  13.830
64084W        W36410  16.703  14.045  11.423
64085W        W36411  37.001   7.265  13.488
64086W        W36412  27.713  18.539  12.004
64087W        W36413   0.322  37.292   3.784
64088W        W36414   7.365  23.151   0.440
64089W        W36415   4.213  38.416  11.628
64090W        W36416  14.582  14.197   2.159
64091W        W36417  10.942  34.323  12.152
64092W        W36418  14.279  35.470   1.168
64093W        W36419  36.470  15.814   2.519
64094W        W36420  38.509   5.178   1.385
64095W        W36421   2.267  30.191   0.861
64096W        W36422  25.026  30.497   3.763
64097W        W36423  12.292  35.888  13.760
64098W        W36424  40.345  32.418  13.104
64099W        W36425   0.556  42.413   2.658
64100W        W36426   1.206  33.315   4.988
64101W        W36427  22.818  29.446   2.216
64102W        W36428   6.472   8.355  13.443
64103W        W36429  19.812   1.309  13.582
64104W        W36430   7.817  32.420  13.962
64105W        W36431  15.493   8.172  12.138
64106W        W36432   3.340  19.241   2.738
64107W        W36433  27.182  13.866   2.662
64108W        W36434  31.124  10.276  12.022
64109W        W36435  29.286  24.488   4.944
64110W        W36436  37.015   0.164  14.438
64111W        W36437   1.861   9.959   2.316
64112W        W36438  37.590   4.903  11.530
64113W        W36439  15.585   9.714   0.911
64114W        W36440   0.766  43.059  13.312
64115W        W36441   2.978  21.007  12.004
64116W        W36442  40.425  13.130  13.783
64117W        W36443  15.214  24.675   1.844
64118W        W36444   5.732  31.944   2.868
64119W        W36445  19.535  16.173   4.305
64120W        W36446   2.596  18.005   3.498
64121W        W36447  37.927  35.984   4.612
64122W        W36448  21.341   0.896  10.536
64123W        W36449  23.148  26.246  13.159
64124W        W36450   4.837  15.301   0.511
64125W        W36451   3.834  31.077   4.809
64126W        W36452  20.243  39.943   1.236
64127W        W36453  34.930   9.132  11.724
64128W        W36454  15.129   9.812   2.700
64129W        W36455  12.038   7.913   3.109
64130W        W36456  23.431  13.279   0.738
64131W        W36457  24.822   3.225   0.074
64132W        W36458  20.002  33.501   1.896
64133W        W36459  27.489   1.199  13.874
64134W        W36460  36.489  23.237  11.150
64135W        W36461  25.645  44.905   4.298
64136W        W36462   8.282  40.532  12.546
64137W        W36463  12.647  17.571  11.646
64138W        W36464  27.971  27.931  12.998
64139W        W36465   2.294   8.440   2.999
64140W        W36466  44.032  25.626   3.287
64141W        W36467   7.945  38.889  13.465
64142W        W36468  44.408  33.075  14.650
64143W        W36469   7.166  23.411   2.421
64144W        W36470   2.250  20.026   0.439
64145W        W36471  10.901  22.583  11.103
64146W        W36472  18.775  23.088  11.054
64147W        W36473  22.221  14.176  10.686
64148W        W36474   5.933  42.881   1.385
64149W        W36475  43.877  37.353   1.523
64150W        W36476  38.605   7.651   0.435
64151W        W36477  23.686  22.462  11.003
64152W        W36478  19.615  19.040   0.783
64153W        W36479  16.126  10.160  14.354
64154W        W36480  39.919  20.069  13.353
64155W        W36481  16.286  10.541   3.231
64156W        W36482  14.560  35.762  12.511
64157W        W36483  36.972  36.619  11.437
64158W        W36484  18.609  28.186  12.969
64159W        W36485   1.682   3.010  14.999
64160W        W36486   4.265  22.337  14.819
64161W        W36487   6.907   5.329  13.337
64162W        W36488  10.375   7.341  12.881
64163W        W36489  10.770  39.526   4.940
64164W        W36490   6.359  38.086   0.239
64165W        W36491  21.566  25.155  10.708
64166W        W36492  38.445  26.211   3.812
64167W        W36493  12.243  39.753   3.233
64168W        W36494  40.087  39.853   3.706
64169W        W36495  36.640  33.073   1.598
64170W        W36496   4.145   6.635   1.791
64171W        W36497  32.423   8.242  13.921
64172W        W36498  17.071  19.044   4.866
64173W        W36499  18.130  41.349   3.371
64174W        W36500   1.237   4.420  13.154
64175W        W36501  12.463  33.725   5.531
64176W        W36502  19.111  29.511   4.924
64177W        W36503   9.650  21.330   0.566
64178W        W36504  13.583  42.650  12.913
64179W        W36505  30.372  43.346   4.374
64180W        W36506  18.031  39.108   2.734
64181W        W36507  21.041   9.108   4.173
64182W        W36508  40.820  41.097  13.562
64183W        W36509   1.866  33.352  12.517
64184W        W36510  18.321  35.793  14.838
64185W        W36511   1.338  17.786  14.354
64186W        W36512  30.580  23.734   3.217
64187W        W36513  18.014  31.925   2.224
64188W        W36514   4.249  11.668   5.069
64189W        W36515  28.843   6.349  14.846
64190W        W36516  17.728  24.925  14.912
64191W        W36517  39.380   2.339   0.578
64192W        W36518  20.270  22.566   4.220
64193W        W36519  38.390  31.042  14.352
64194W        W36520   3.488  23.141   2.723
64195W        W36521  36.605  33.832   3.235
64196W        W36522  44.260   4.434  11.512
64197W        W36523  12.822   6.398  12.906
64198W        W36524  18.487  35.590   2.096
64199W        W36525  42.336  17.659   1.339
64200W        W36526  27.099   2.714   4.960
64201W        W36527  20.655  26.513  10.673
64202W        W36528  42.784  13.141  13.938
64203W        W36529  31.608  42.320   4.596
64204W        W36530  19.560  37.874  11.097
64205W        W36531  18.260   0.895   3.901
64206W        W36532  12.575   9.712   2.597
64207W        W36533  27.466  21.973  11.852
64208W        W36534  13.031   7.953  14.791
64209W        W36535  10.904  29.351   1.790
64210W        W36536  30.946  33.595  14.922
64211W        W36537   6.232  19.593  11.007
64212W        W36538  21.984  12.131  12.558
64213W        W36539   9.018   4.108   4.392
64214W        W36540  11.804  29.793   1.619
64215W        W36541  34.640  10.700   1.723
64216W        W36542  39.938  35.984   2.123
64217W        W36543  31.680  34.315  11.610
64218W        W36544  42.876   1.956   2.721
64219W        W36545   3.194  13.734   2.267
64220W        W36546  36.555  26.700  10.784
64221W        W36547  40.043  33.599   1.396
64222W        W36548  15.021  22.040  11.022
64223W        W36549  40.962  35.783  11.231
64224W        W36550  31.638  27.541  13.525
64225W        W36551   9.169  28.085   0.243
64226W        W36552  15.256  14.516   1.451
64227W        W36553  35.492  18.549  14.406
64228W        W36554   8.083  35.289  14.981
64229W        W36555  30.225  13.055   3.279
64230W        W36556  29.738  10.348  13.078
64231W        W36557  43.297  13.263  13.532
64232W        W36558  27.073  22.020   0.303
64233W        W36559  22.546  44.531   2.863
64234W        W36560  24.679  26.875  11.983
64235W        W36561  16.841   0.296   3.131
64236W        W36562   7.398  20.073  13.276
64237W        W36563  25.972  10.718   2.582
64238W        W36564  34.034  37.004  14.986
64239W        W36565  10.062   9.657  14.912
64240W        W36566  12.592  17.626  10.667
64241W        W36567  38.437   7.222  10.608
64242W        W36568  39.272  27.902  14.779
64243W        W36569  30.968   2.315  13.547
64244W        W36570  17.227  30.182  11.033
64245W        W36571  11.735  27.045  13.225
64246W        W36572  13.285  30.232  13.391
64247W        W36573  24.654  25.394  12.528
64248W        W36574  38.575  41.754  12.955
64249W        W36575  15.849   2.553   2.331
64250W        W36576  31.635  35.334   1.947
64251W        W36577  20.284  35.379  14.787
64252W        W36578  43.339  40.057   3.197
64253W        W36579  32.083  24.934   2.902
64254W        W36580  38.382  40.391  12.083
64255W        W36581  34.405  20.237  14.331
64256W        W36582  28.926  31.160   4.248
64257W        W36583  13.775   1.820   3.731
64258W        W36584  11.307   4.885  10.630
64259W        W36585   1.746  24.661   0.392
64260W        W36586   3.706   9.826  13.346
64261W        W36587  13.120  43.234  11.664
64262W        W36588   2.733   7.470   1.913
64263W        W36589   3.785  12.297   3.354
64264W        W36590  29.774  43.954  11.203
64265W        W36591  17.131   3.710  12.919
64266W        W36592  42.017  11.433   3.385
64267W        W36593   1.034  30.550  12.801
64268W        W36594  19.921   2.812   2.941
64269W        W36595   1.867  25.677  14.826
64270W        W36596  24.195  15.078  12.996
64271W        W36597  34.040  39.851   2.184
64272W        W36598   9.713  41.896   0.201
64273W        W36599  29.671  16.858  10.748
64274W        W36600  12.255  33.997   2.256
64275W        W36601  42.692   9.872  10.070
64276W        W36602   6.004  29.240   0.266
64277W        W36603  34.158   2.401  11.560
64278W        W36604   9.045  36.513   4.668
64279W        W36605  27.552  42.560   4.570
64280W        W36606   6.256  41.018  12.917
64281W        W36607   5.965  23.680  13.411
64282W        W36608   4.114  27.264   3.327
64283W        W36609  40.524  18.742   2.396
64284W        W36610   3.924  19.381  11.602
64285W        W36611  24.150  29.465  13.422
64286W        W36612   8.966   3.757   3.234
64287W        W36613  42.738  23.286  10.010
64288W        W36614  44.978  43.757  14.771
64289W        W36615  21.152  38.636   2.449
64290W        W36616  15.751  26.189   2.564
64291W        W36617  27.547  16.671   3.757
64292W        W36618  10.650  32.955   0.801
64293W        W36619  29.442  23.634   2.319
64294W        W36620  26.973  27.173   0.367
64295W        W36621  40.425   1.781  12.196
64296W        W36622  24.232   8.853   4.741
64297W        W36623  11.110  15.768  13.225
64298W        W36624  18.686  20.022   1.779
64299W        W36625  17.255  31.444  11.231
64300W        W36626  19.176  44.488  14.470
64301W        W36627  10.600  43.369   1.986
64302W        W36628  32.054   7.169   2.776
64303W        W36629   0.822   9.823   2.966
64304W        W36630  22.932  44.787  14.741
64305W        W36631  40.425   2.163   2.888
64306W        W36632   3.848  38.490  10.811
64307W        W36633  22.005  11.834  10.958
64308W        W36634  26.560   1.496   2.657
64309W        W36635  15.079  32.571  12.845
64310W        W36636  13.295  15.571  12.912
64311W        W36637  17.773   3.688   3.611
64312W        W36638   3.247  11.166   4.526
64313W        W36639  37.818  17.144  13.367
64314W        W36640  17.673  10.082  12.901
64315W        W36641  21.263   2.619  14.871
64316W        W36642  44.879   8.917  14.946
64317W        W36643   8.346  16.861   1.926
64318W        W36644  13.184  20.068  12.851
64319W        W36645  16.784  14.426  11.068
64320W        W36646  35.179  31.711   4.551
64321W        W36647  10.185  42.924   4.104
64322W        W36648   7.469  36.509  13.481
64323W        W36649  21.265   2.219   1.345
64324W        W36650   6.784   5.377  12.375
64325W        W36651  35.299  19.016  11.128
64326W        W36652  40.838   7.258  12.918
64327W        W36653  26.076  38.619   1.839
64328W        W36654   5.310  10.628  13.508
64329W        W36655  35.692  28.159  11.585
64330W        W36656  22.705  15.899  14.375
64331W        W36657   6.327  34.727  11.501
64332W        W36658  28.217  19.047   2.526
64333W        W36659  27.661  19.731   4.383
64334W        W36660  10.579  42.525  13.884
64335W        W36661   9.274   2.629   1.779
64336W        W36662  10.018  17.111  13.712
64337W        W36663  40.263   4.668  10.935
64338W        W36664   8.232   1.519  14.979
64339W        W36665  32.532  19.364  14.930
64340W        W36666   7.301  17.628  10.615
64341W        W36667  28.775  30.513   3.183
64342W        W36668   0.965   2.517   0.875
64343W        W36669  16.068  20.267  14.969
64344W        W36670  37.044  31.215  12.750
64345W        W36671  17.474  39.853   1.634
64346W        W36672   4.352   2.756   1.123
64347W        W36673  29.394  11.598  11.976
64348W        W36674   0.587  14.121   2.661
64349W        W36675   9.462  24.164  12.956
64350W        W36676  41.612   4.160   2.834
64351W        W36677  30.706  34.221   1.745
64352W        W36678  34.925   4.586   0.676
64353W        W36679  11.138  21.453   4.444
64354W        W36680  42.050  38.820  12.456
64355W        W36681  25.042   4.898  13.860
64356W        W36682   0.729  40.482  13.023
64357W        W36683  31.720  32.931  10.564
64358W        W36684  43.951  14.248  11.948
64359W        W36685  27.176  22.616  10.556
64360W        W36686  32.118  35.126   1.901
64361W        W36687  41.326  13.578   1.209
64362W        W36688  16.688  30.924  10.524
64363W        W36689  29.041  29.682   3.838
64364W        W36690   2.819  32.549  11.730
64365W        W36691   2.848  13.572  14.503
64366W        W36692  42.534   2.788  10.756
64367W        W36693   1.195  39.730   0.994
64368W        W36694  24.439  29.615  14.700
64369W        W36695   3.530  23.415   5.526
64370W        W36696  31.073  23.609   5.251
64371W        W36697  14.258  30.564  12.684
64372W        W36698  23.216  39.400  12.629
64373W        W36699  40.811  32.768  10.739
64374W        W36700  13.723  16.905  12.965
64375W        W36701  30.483  31.401   2.347
64376W        W36702  38.049  43.692  10.885
64377W        W36703  12.832  34.008   9.835
64378W        W36704  19.511  11.526  14.359
64379W        W36705  33.528  10.768   3.063
64380W        W36706  16.771  37.988   4.656
64381W        W36707   1.025  22.934  10.214
64382W        W36708  11.127  12.356  12.571
64383W        W36709  32.461  42.525  10.833
64384W        W36710  19.748  38.259  13.598
64385W        W36711  17.265  34.000   0.912
64386W        W36712  20.681  43.328  11.489
64387W        W36713  38.800  39.272   2.312
64388W        W36714  36.864  28.120  10.939
64389W        W36715  18.851  10.141   0.147
64390W        W36716  21.004  22.148   3.969
64391W        W36717  12.510  19.097   3.391
64392W        W36718   5.215  25.024  14.949
64393W        W36719  21.581  28.920  14.959
64394W        W36720  30.117  28.275  12.033
64395W        W36721  21.441  10.109   2.824
64396W        W36722  39.973   3.669  11.112
64397W        W36723  44.562   7.854   3.238
64398W        W36724  31.118  10.879  11.379
64399W        W36725  15.165  16.110   2.230
64400W        W36726  26.844  37.957   1.419
64401W        W36727   4.004  43.010   3.823
64402W        W36728  24.518  10.433  11.094
64403W        W36729  12.254  35.072   2.766
64404W        W36730  44.004  18.895  13.005
64405W        W36731   7.844   9.389  12.614
64406W        W36732  30.361   0.395  12.487
64407W        W36733  33.264  17.687   2.244
64408W        W36734  17.663  28.209  11.196
64409W        W36735  20.915  22.725  14.036
64410W        W36736   5.190  25.898   0.293
64411W        W36737  32.486   6.792  12.038
64412W        W36738  44.974  37.417  10.570
64413W        W36739  19.128  19.725  11.126
64414W        W36740  18.781  41.397   4.174
64415W        W36741   2.938  12.104  11.052
64416W        W36742  37.495  15.810  14.420
64417W        W36743  16.331   3.083  13.871
64418W        W36744  28.974  20.833   3.856
64419W        W36745  10.711  22.490  12.053
64420W        W36746   2.756  32.112   3.389
64421W        W36747   0.746  14.243  11.941
64422W        W36748  34.456   5.500  12.319
64423W        W36749  33.191  27.233   2.341
64424W        W36750   9.831   3.222   2.224
64425W        W36751  19.272  12.767  12.146
64426W        W36752  12.761   4.586  14.968
64427W        W36753  22.165  15.992  13.283
64428W        W36754  35.500   7.378   0.274
64429W        W36755  11.577  41.020  13.462
64430W        W36756  27.218   8.214   3.564
64431W        W36757   3.044  16.774   0.274
64432W        W36758  25.599  32.839  10.882
64433W        W36759   0.690  21.076  11.557
64434W        W36760   4.983   6.263   0.309
64435W        W36761  41.759   1.458   0.792
64436W        W36762  44.370  34.087   4.607
64437W        W36763  37.581  21.705   2.844
64438W        W36764  24.112  13.077   2.023
64439W        W36765  28.630  18.076   3.185
64440W        W36766   9.248   7.785  14.267
64441W        W36767  13.856  44.857  13.986
64442W        W36768  44.378   3.194   5.000
64443W        W36769  42.307  32.422   4.129
64444W        W36770  39.037   6.752  11.596
64445W        W36771   5.331  24.454   3.432
64446W        W36772  10.897  26.094   2.365
64447W        W36773  12.712  22.526   2.673
64448W        W36774  25.502   3.135   2.118
64449W        W36775  41.978  40.495  13.939
64450W        W36776  37.620  20.405  13.846
64451W        W36777  35.443  32.547   4.817
64452W        W36778   9.947  40.401  10.553
64453W        W36779   6.288  44.526   5.333
64454W        W36780   7.807  42.123   1.935
64455W        W36781  35.588  11.132  10.268
64456W        W36782  24.176  27.634   3.742
64457W        W36783  22.596  41.224  10.626
64458W        W36784  44.806  35.305  13.846
64459W        W36785  39.009  34.445   0.260
64460W        W36786   9.737  30.657   1.239
64461W        W36787  13.714  12.385   3.732
64462W        W36788  15.524  26.582  14.238
64463W        W36789  11.058  13.796  11.557
64464W        W36790  37.827  36.537   4.627
64465W        W36791   6.443   8.806   4.572
64466W        W36792  35.064  10.668  14.036
64467W        W36793  25.216  39.311   3.398
64468W        W36794  41.546  33.277  10.416
64469W        W36795  23.592  17.565  14.514
64470W        W36796  23.092  17.812  14.446
64471W        W36797  29.149   9.741  10.621
64472W        W36798   2.946  38.430  13.943
64473W        W36799  35.022  44.531   1.755
64474W        W36800   4.285  23.612   4.646
64475W        W36801  23.854  17.706  13.842
64476W        W36802   9.746  37.876  13.026
64477W        W36803  36.898  11.709  14.902
64478W        W36804  26.324  20.858   3.762
64479W        W36805  12.105  17.699  12.925
64480W        W36806  22.966  11.145   4.533
64481W        W36807  20.612  30.652   1.372
64482W        W36808  12.248  20.752  10.725
64483W        W36809  17.772   1.061  12.521
64484W        W36810  30.087  29.048  13.563
64485W        W36811  35.967   3.266  12.046
64486W        W36812  40.577   9.924  12.899
64487W        W36813  15.760  33.896  14.957
64488W        W36814   8.191   5.930   3.603
64489W        W36815  21.194  20.306   4.047
64490W        W36816  16.624  23.037  13.132
64491W        W36817  19.735   8.968   3.601
64492W        W36818   8.280  29.043   0.612
64493W        W36819  43.406  34.496  12.173
64494W        W36820  14.639   1.396   4.130
64495W        W36821  24.996  18.381  12.994
64496W        W36822  43.292   6.713  11.882
64497W        W36823  27.528   3.689   1.166
64498W        W36824  18.767  20.989   2.627
64499W        W36825  39.850  16.543  14.388
64500W        W36826  37.667  33.876   3.276
64501W        W36827  23.007  29.421   0.801
64502W        W36828  27.402   4.213   1.547
64503W        W36829  26.683  37.794  10.986
64504W        W36830   1.944   7.395  13.494
64505W        W36831  10.590   6.643  14.010
64506W        W36832  12.765  24.021   1.774
64507W        W36833  10.625   4.966   2.762
64508W        W36834  37.536  22.340  10.886
64509W        W36835  41.257  36.027  14.494
64510W        W36836  43.823  31.993   3.403
64511W        W36837  12.641  21.157   0.416
64512W        W36838  10.145  33.241  14.895
64513W        W36839  35.826  20.485  11.556
64514W        W36840   7.351  19.730  11.137
64515W        W36841  20.263  44.219  12.622
64516W        W36842  40.825  44.880   3.412
64517W        W36843  38.916  32.751   2.570
64518W        W36844  42.273  40.781   2.301
64519W        W36845  13.389   4.543   0.770
64520W        W36846   1.417   8.926  12.822
64521W        W36847  31.454  35.810   0.837
64522W        W36848  40.495  13.188   4.049
64523W        W36849   4.404  17.969   2.153
64524W        W36850   9.260  20.311   4.095
64525W        W36851  36.390  17.708   3.275
64526W        W36852  11.199  20.713  13.061
64527W        W36853  18.606  37.052  11.347
64528W        W36854  26.611  37.058   3.689
64529W        W36855  41.009  24.431   3.757
64530W        W36856   4.786  18.074   3.144
64531W        W36857   6.340  18.725   2.433
64532W        W36858  21.255   3.796  13.054
64533W        W36859  42.452   4.714  12.105
64534W        W36860  44.570   7.933   4.118
64535W        W36861   6.699  35.970  13.462
64536W        W36862   1.012  29.153   3.870
64537W        W36863  44.396  39.531  13.291
64538W        W36864  35.589  23.205  14.674
64539W        W36865  19.436  27.399  11.089
64540W        W36866   0.342   5.896   2.275
64541W        W36867  31.975   8.771   4.409
64542W        W36868  43.797  34.031   2.423
64543W        W36869   5.986  20.633  13.822
64544W        W36870  21.046  14.329   3.372
64545W        W36871   3.804  43.624  14.644
64546W        W36872  33.470  39.075  14.231
64547W        W36873   7.720   5.572  10.007
64548W        W36874  21.642  10.218  14.581
64549W        W36875  25.159  20.938  10.124
64550W        W36876  27.658   4.279  12.841
64551W        W36877  21.755   9.856  13.837
64552W        W36878  30.834  25.999   0.998
64553W        W36879  21.565   4.234   0.654
64554W        W36880  22.664  17.593   5.189
64555W        W36881  41.879   2.880   3.185
64556W        W36882  20.445  34.814   0.664
64557W        W36883  33.110  42.281  11.052
64558W        W36884  29.853  37.255   0.015
64559W        W36885  15.704   0.974   0.719
64560W        W36886  13.682  25.560   4.322
64561W        W36887   0.773  10.203   2.188
64562W        W36888  40.907  20.519   2.365
64563W        W36889  27.368  40.418   1.626
64564W        W36890   7.088  28.563   0.553
64565W        W36891   3.899   7.831  13.055
64566W        W36892  27.978   3.599   0.428
64567W        W36893  24.588  29.227  11.128
64568W        W36894   8.163  36.844   0.438
64569W        W36895  20.305  11.749  10.452
64570W        W36896   9.088  10.065   0.642
64571W        W36897  42.333  11.683  13.531
64572W        W36898  20.922  42.032  13.830
64573W        W36899  28.633  28.611  11.908
64574W        W36900  44.165  15.774   0.234
64575W        W36901  10.201  19.464  12.308
64576W        W36902   1.965  39.374   0.633
64577W        W36903  21.266  39.055  11.067
64578W        W36904  21.158  38.388  10.249
64579W        W36905   9.741  10.404   2.104
64580W        W36906  24.611  30.353   0.448
64581W        W36907  26.152   7.481  11.067
64582W        W36908  14.809  38.262   0.532
64583W        W36909   0.705  35.026   4.143
64584W        W36910  19.611  44.966   2.996
64585W        W36911   6.381  34.822   1.243
64586W        W36912  21.194  27.618   3.138
64587W        W36913  12.255  15.697  14.921
64588W        W36914  39.118  13.623   3.258
64589W        W36915  11.059  33.537  13.076
64590W        W36916  28.756   8.762   2.346
64591W        W36917  38.481  30.388  12.875
64592W        W36918   4.292  34.154   1.839
64593W        W36919  27.677  10.192   3.213
64594W        W36920  13.148  11.247   4.775
64595W        W36921   1.347  37.450   4.479
64596W        W36922  21.670  34.892   2.745
64597W        W36923  25.754  43.891   0.350
64598W        W36924  22.484  43.477  10.933
64599W        W36925  44.979  11.592   2.289
64600W        W36926  20.140  39.431   1.357
64601W        W36927  16.089  41.993   0.784
64602W        W36928   6.716  41.425   3.766
64603W        W36929  36.337  13.960  12.589
64604W        W36930  15.187  25.688  11.333
64605W        W36931  25.770  23.045  13.093
64606W        W36932   4.301   8.207   2.814
64607W        W36933  39.407  11.838   4.525
64608W        W36934  15.592  31.883   1.728
64609W        W36935  22.712  12.897   4.441
64610W        W36936  36.905   7.593  13.100
64611W        W36937  13.124  12.596  13.041
64612W        W36938  13.215   5.786   2.315
64613W        W36939  39.146  27.195   3.693
64614W        W36940   6.304  10.969   2.747
64615W        W36941  44.745  34.870  13.555
64616W        W36942   4.634  32.356  12.148
64617W        W36943  29.451  10.158  10.701
64618W        W36944  24.304  16.011  11.784
64619W        W36945  10.750  28.691  13.474
64620W        W36946   8.457   4.684   3.738
64621W        W36947  22.130  13.177  14.308
64622W        W36948   7.217  12.648   4.418
64623W        W36949  31.510  12.371   0.040
64624W        W36950  11.826   1.380  13.321
64625W        W36951  41.757  26.937   0.447
64626W        W36952   4.317  15.940  13.079
64627W        W36953  42.838  29.622  13.808
64628W        W36954  11.288  27.236  14.042
64629W        W36955  31.517  32.831  11.553
64630W        W36956  16.047  13.206   0.831
64631W        W36957  43.528   0.703  13.977
64632W        W36958   9.348  11.213   3.104
64633W        W36959  21.162  32.183  13.407
64634W        W36960  31.019  24.785  12.924
64635W        W36961   1.202  21.782  12.622
64636W        W36962   1.880  38.890  13.470
64637W        W36963   9.221   0.916  13.226
64638W        W36964   7.184  20.702  14.455
64639W        W36965  44.141   4.723   4.277
64640W        W36966  25.024  17.198  14.311
64641W        W36967  11.706  15.967   4.256
64642W        W36968  22.590  14.941   5.644
64643W        W36969  33.034   9.249  13.839
64644W        W36970  34.928  35.934   5.454
64645W        W36971  44.696  13.914  14.968
64646W        W36972  40.957  43.393  14.550
64647W        W36973  39.357  40.021  13.423
64648W        W36974   2.339   8.532  11.254
64649W        W36975  13.368  24.962   0.392
64650W        W36976  26.820  20.324   3.278
64651W        W36977  20.000  26.139   3.109
64652W        W36978  29.862  35.326  13.004
64653W        W36979  16.505  22.473  10.923
64654W        W36980  40.268   8.722  11.475
64655W        W36981  39.689  31.117   0.341
64656W        W36982  16.392   5.021  13.863
64657W        W36983   8.132   1.099   2.256
64658W        W36984  21.518  14.774  13.325
64659W        W36985  33.489   6.904   0.482
64660W        W36986  30.098   2.478   1.910
64661W        W36987  16.207  19.636   2.173
64662W        W36988   6.985   7.802  12.902
64663W        W36989  36.778  12.165   4.533
64664W        W36990  23.601   7.008   3.715
64665W        W36991  21.259  21.595   3.231
64666W        W36992  24.089  27.762   2.311
64667W        W36993   0.804  20.616   0.679
64668W        W36994   9.408  19.225  10.786
64669W        W36995  15.672  20.943   5.087
64670W        W36996   2.216  12.439   2.626
64671W        W36997   7.503  27.676   2.012
64672W        W36998  44.446  43.284  11.915
64673W        W36999   6.877  12.368   2.762
64674W        W37000  36.390   3.150  13.404
64675W        W37001  44.847   4.038   1.346
64676W        W37002  28.559   2.171   4.628
64677W        W37003  26.297  22.122  14.534
64678W        W37004  23.718  10.874  13.581
64679W        W37005  29.954  28.527  14.792
64680W        W37006  38.808  15.653  10.788
64681W        W37007  22.036  18.794   0.396
64682W        W37008  13.714  30.857   0.772
64683W        W37009  23.598  39.872   4.805
64684W        W37010   4.835  31.866  14.810
64685W        W37011   2.779  27.106   0.762
64686W        W37012  37.826  33.703  11.151
64687W        W37013   2.314  10.762   3.463
64688W        W37014  44.840   3.767   2.233
64689W        W37015   2.680   3.179   4.648
64690W        W37016   2.832   2.811  11.065
64691W        W37017   2.734  19.737  10.699
64692W        W37018  36.138  23.228  11.579
64693W        W37019   4.076  27.454  14.038
64694W        W37020  37.106  16.237   4.115
64695W        W37021  23.510  22.724   0.970
64696W        W37022  38.353  14.328  14.260
64697W        W37023  21.246  36.422   2.696
64698W        W37024  26.102   9.597   0.478
64699W        W37025  42.989   6.827   3.699
64700W        W37026   4.632  24.532   1.269
64701W        W37027   1.464  12.203   9.647
64702W        W37028  26.119  44.872   3.320
64703W        W37029  38.450  28.599  11.483
64704W        W37030  27.565  29.398   0.128
64705W        W37031   4.930  20.111  11.114
64706W        W37032  22.166  36.105   3.602
64707W        W37033  16.448  10.370  14.727
64708W        W37034  29.492   0.466  11.022
64709W        W37035  27.093  27.182   4.060
64710W        W37036  32.534  32.623  13.994
64711W        W37037  13.765  23.455  14.284
64712W        W37038  12.651   8.165  12.317
64713W        W37039  44.436  39.087  13.034
64714W        W37040   8.071  42.370   3.745
64715W        W37041   9.668   5.791   0.748
64716W        W37042  39.428  17.356  12.267
64717W        W37043  21.957  32.089  14.039
64718W        W37044   4.455  11.396   3.736
64719W        W37045  28.456  36.869   4.264
64720W        W37046  28.009  40.129   3.364
64721W        W37047  18.746  14.212   2.846
64722W        W37048  21.208  10.881   3.941
64723W        W37049  18.239  12.093  11.482
64724W        W37050   4.337  32.483   4.379
64725W        W37051  41.439   9.179   1.862
64726W        W37052  16.642   9.409  11.962
64727W        W37053  22.149  16.241  12.621
64728W        W37054   6.366  22.199   1.328
64729W        W37055  12.364  30.425   0.853
64730W        W37056  34.978  36.072  14.681
64731W        W37057   0.791   5.750   3.211
64732W        W37058   5.309  41.992   2.397
64733W        W37059  43.010  39.898  12.739
64734W        W37060  26.469  36.034   2.945
64735W        W37061  14.903  14.926   1.402
64736W        W37062   9.685  44.726  12.096
64737W        W37063   2.517  24.156   3.698
64738W        W37064  35.619  26.537   2.839
64739W        W37065   9.473  43.131  12.615
64740W        W37066   5.764  35.516   2.286
64741W        W37067   9.943  23.741  11.070
64742W        W37068  17.150   8.934  12.623
64743W        W37069  16.250  33.691   1.734
64744W        W37070  33.114  44.419  11.156
64745W        W37071  13.682  30.918   0.259
64746W        W37072   9.400  20.869  11.526
64747W        W37073  42.820  29.414   4.145
64748W        W37074  37.811   0.814   3.283
64749W        W37075  20.492   4.828  11.120
64750W        W37076   1.234  10.801  13.114
64751W        W37077  22.591   4.500   4.772
64752W        W37078  20.117   4.409  13.542
64753W        W37079  25.578  15.119  12.925
64754W        W37080  10.803  39.880   0.441
64755W        W37081   0.278  23.745   1.488
64756W        W37082   8.633   1.101  11.653
64757W        W37083  27.948  12.690   4.972
64758W        W37084  30.009   5.174   3.191
64759W        W37085   2.789   9.148   0.500
64760W        W37086   4.364  37.064   4.676
64761W        W37087  35.484  25.940  11.153
64762W        W37088  41.770  17.039  11.152
64763W        W37089   2.149  14.440  12.467
64764W        W37090   6.057  10.618  14.014
64765W        W37091   4.995  38.625   2.395
64766W        W37092  13.105   0.920   1.575
64767W        W37093   5.944  25.001   2.807
64768W        W37094  30.683  14.206   1.014
64769W        W37095  12.911  42.421   4.463
64770W        W37096   2.960  44.459  11.501
64771W        W37097  13.652  26.439   3.362
64772W        W37098  37.204   6.270  13.341
64773W        W37099  43.556   4.141   1.780
64774W        W37100  14.687  41.472  12.975
64775W        W37101  24.999  44.011  10.477
64776W        W37102   8.368  31.082   0.725
64777W        W37103  16.149  14.641   1.253
64778W        W37104  14.688  35.524   5.473
64779W        W37105   9.297  27.991   2.207
64780W        W37106  24.462  18.180   3.084
64781W        W37107  20.233  20.251  12.228
64782W        W37108   2.888  42.554   3.161
64783W        W37109   8.690   6.113   3.600
64784W        W37110  37.405  43.314   2.259
64785W        W37111  15.781   6.440  11.872
64786W        W37112  39.539  44.486  14.591
64787W        W37113   6.675  34.946  11.969
64788W        W37114  30.541  38.061   2.911
64789W        W37115   4.373   6.776   3.945
64790W        W37116  24.767  10.407  10.615
64791W        W37117   0.835  19.197  13.042
64792W        W37118  13.982  35.418  11.957
64793W        W37119  23.628  20.124   1.296
64794W        W37120  17.375   9.981   0.358
64795W        W37121  11.613  35.470  12.614
64796W        W37122  14.587  13.577   0.828
64797W        W37123  10.436  40.364   3.671
64798W        W37124  23.330  27.455   4.154
64799W        W37125  36.991   1.760   4.333
64800W        W37126  21.066  28.104   5.151
64801W        W37127  42.497  40.953  13.792
64802W        W37128  36.174  10.923  11.075
64803W        W37129  23.117  15.377   2.861
64804W        W37130  26.678  16.888  14.320
64805W        W37131  20.773  44.279   4.143
64806W        W37132  31.132  28.224  12.114
64807W        W37133  15.851  37.125   4.518
64808W        W37134   1.497  29.059   0.279
64809W        W37135  36.191  41.551  11.494
64810W        W37136  13.388   7.306   2.168
64811W        W37137  25.096  33.941  14.980
64812W        W37138  26.948  30.321  11.517
64813W        W37139  42.682   5.188   4.896
64814W        W37140  37.513   6.287   0.002
64815W        W37141  44.293  34.166  10.758
64816W        W37142  38.058   7.869  13.441
64817W        W37143  37.879  39.790   3.129
64818W        W37144  40.750  31.376   3.751
64819W        W37145  35.099  41.894   1.280
64820W        W37146  19.689   2.491   3.322
64821W        W37147  27.991   7.872   3.595
64822W        W37148  21.416   7.817  10.529
64823W        W37149   1.257   6.950   2.331
64824W        W37150  21.984  37.439  12.900
64825W        W37151  19.903  29.307   4.940
64826W        W37152  21.992  15.706   2.352
64827W        W37153  25.539  23.285  12.682
64828W        W37154   0.839  34.915  14.010
64829W        W37155  28.252  19.077  12.752
64830W        W37156   4.242   3.279   1.911
64831W        W37157  13.056  29.222  13.568
64832W        W37158  19.655  31.642  11.138
64833W        W37159  23.803  28.476   2.757
64834W        W37160  17.459  14.877  11.916
64835W        W37161  34.171  36.170   3.306
64836W        W37162  40.482  29.021   0.296
64837W        W37163  37.804  40.065  13.461
64838W        W37164   9.133  44.237   1.817
64839W        W37165   8.035  24.725  10.719
64840W        W37166  29.616  16.351  14.836
64841W        W37167  16.387  23.295  13.542
64842W        W37168  29.948   6.790  14.537
64843W        W37169   3.639  38.627   0.597
64844W        W37170  19.062  11.221  10.747
64845W        W37171  17.524  39.557   0.949
64846W        W37172  44.581  14.747   3.137
64847W        W37173  39.288  22.562   4.267
64848W        W37174  14.142  37.033  11.300
64849W        W37175  41.034   5.800   2.181
64850W        W37176   6.194  37.540   2.434
64851W        W37177  38.582  25.989   0.504
64852W        W37178  34.077   6.178   0.295
64853W        W37179   1.893  17.178   2.961
64854W        W37180  38.283  19.195   0.335
64855W        W37181   4.789  43.101   0.830
64856W        W37182  35.117  17.462  12.045
64857W        W37183  37.392  37.956   4.458
64858W        W37184  36.537  25.594   2.886
64859W        W37185  33.490  12.093  12.921
64860W        W37186  25.979   1.927  13.831
64861W        W37187  15.613  21.962  10.132
64862W        W37188   2.257  34.482  11.080
64863W        W37189   9.595  31.092  11.404
64864W        W37190   6.356   2.964  10.695
64865W        W37191  14.286   1.931   3.643
64866W        W37192   0.146   2.447  12.080
64867W        W37193  28.265  31.957   1.902
64868W        W37194   5.605   7.452   2.242
64869W        W37195  27.206  42.280   2.758
64870W        W37196  23.001  25.138  14.829
64871W        W37197   2.446  18.747   1.841
64872W        W37198   2.441  36.253  13.214
64873W        W37199  13.419  31.287  11.598
64874W        W37200  33.358  13.634  12.062
64875W        W37201   6.781  31.122  14.871
64876W        W37202  41.562  34.132  10.794
64877W        W37203  24.616   0.372  13.333
64878W        W37204  13.527   4.712  14.440
64879W        W37205  31.480  16.773  14.951
64880W        W37206   6.848  28.187   1.589
64881W        W37207  37.447  41.516   0.322
64882W        W37208  24.404  10.152   3.164
64883W        W37209  42.433  31.466   4.137
64884W        W37210  41.316  10.127   2.202
64885W        W37211  16.274  11.197  12.026
64886W        W37212  32.577  11.157  13.083
64887W        W37213  37.822  14.756  13.271
64888W        W37214   6.102  16.115   1.004
64889W        W37215  36.570  11.931   4.065
64890W        W37216  30.391  40.338  11.949
64891W        W37217  21.382  21.147  14.557
64892W        W37218  25.470  17.343   2.300
64893W        W37219  38.886  36.605  13.080
64894W        W37220   0.850  43.479  11.567
64895W        W37221  31.973   4.989   3.882
64896W        W37222  41.848  23.195  13.836
64897W        W37223  34.682  24.934  11.239
64898W        W37224  31.686   6.740   1.634
64899W        W37225  20.605  29.101   4.678
64900W        W37226  16.016  44.322  12.943
64901W        W37227   3.192  15.386  12.536
64902W        W37228   9.336  24.734   5.318
64903W        W37229  10.198  17.764   4.722
64904W        W37230  42.437  19.921  11.834
64905W        W37231  32.038  20.565   2.157
64906W        W37232   3.314  43.980   4.137
64907W        W37233  42.414  20.526   0.975
64908W        W37234  10.293   8.696  10.104
64909W        W37235  25.496   8.527  12.122
64910W        W37236  26.929  11.327   3.129
64911W        W37237  26.158  13.898   1.477
64912W        W37238   7.480  22.017   2.831
64913W        W37239  43.455  23.103  12.805
64914W        W37240  43.803  11.612   0.906
64915W        W37241  15.171  15.715  14.854
64916W        W37242  12.100  42.954  13.864
64917W        W37243  25.241   7.976   4.375
64918W        W37244  21.689  20.801  12.619
64919W        W37245  10.875  21.992  12.072
64920W        W37246  32.824  41.252  13.142
64921W        W37247  27.916  43.447   0.870
64922W        W37248  32.133  21.088   4.636
64923W        W37249  31.626  10.988   3.368
64924W        W37250  27.442  37.021  14.050
64925W        W37251  33.964  15.603  10.699
64926W        W37252   6.751  15.500   1.218
64927W        W37253  30.942  27.392  13.308
64928W        W37254  25.979  27.962  13.815
64929W        W37255  28.613  37.037  10.813
64930W        W37256  14.884  16.797   0.401
64931W        W37257   8.129  27.891  12.119
64932W        W37258   9.116  27.014   3.379
64933W        W37259  32.439  36.142   2.927
64934W        W37260  39.332  34.511  12.469
64935W        W37261   2.201  22.420   2.775
64936W        W37262  10.777  37.566   0.733
64937W        W37263  22.172  32.183  11.013
64938W        W37264  23.098  30.068   3.028
64939W        W37265  31.985  12.896  12.770
64940W        W37266   4.976   8.553   3.626
64941W        W37267  41.954  32.006  10.467
64942W        W37268   8.351  22.553  14.390
64943W        W37269  17.479  30.970  12.016
64944W        W37270   5.350   1.375  10.448
64945W        W37271  12.003   9.899  14.096
64946W        W37272  31.560   7.188   3.372
64947W        W37273  22.971  32.965   4.455
64948W        W37274   1.892  26.389   3.631
64949W        W37275  42.875  31.131  13.079
64950W        W37276  32.158  34.579  13.670
64951W        W37277  37.606  20.915  13.943
64952W        W37278  13.665  10.475   1.800
64953W        W37279  20.988   1.890   4.670
64954W        W37280  13.148  14.426  14.821
64955W        W37281  37.239  18.555  14.044
64956W        W37282   9.804  27.145  12.582
64957W        W37283  21.038  20.286   3.524
64958W        W37284  13.295  39.988   4.412
64959W        W37285  24.460  34.123   3.631
64960W        W37286  11.386  40.942   1.173
64961W        W37287  22.606  27.115  12.800
64962W        W37288  12.152   3.339  11.362
64963W        W37289  11.163  32.194   1.072
64964W        W37290  37.663  37.530  11.225
64965W        W37291  35.598  15.698  11.139
64966W        W37292   2.075   5.650   0.395
64967W        W37293   1.849   0.308  14.775
64968W        W37294  23.488  11.317   1.910
64969W        W37295  36.263  32.067  11.097
64970W        W37296   5.620  17.284   2.337
64971W        W37297   3.430  37.049  12.570
64972W        W37298  13.862  25.633   2.174
64973W        W37299  27.987  23.138  13.902
64974W        W37300  33.136  27.634  14.983
64975W        W37301  16.270  40.906  14.414
64976W        W37302   0.121  41.972   0.509
64977W        W37303   9.388  25.725  11.767
64978W        W37304  23.921  26.213   0.923
64979W        W37305  33.424  43.019  13.855
64980W        W37306  38.381  10.144   0.335
64981W        W37307  16.110  37.959  14.709
64982W        W37308  40.814  18.138  10.584
64983W        W37309  42.343  26.050  12.974
64984W        W37310  11.874  36.119   1.871
64985W        W37311   3.034   2.996   3.050
64986W        W37312  30.164  16.008  14.585
64987W        W37313  37.134  36.342   0.281
64988W        W37314   3.480   8.808  10.746
64989W        W37315   1.019  10.341  12.459
64990W        W37316  38.278  19.645   1.919
64991W        W37317  43.926  38.945   0.442
64992W        W37318  39.155  41.913  14.110
64993W        W37319  35.722   0.672  12.453
64994W        W37320  13.136  18.680   4.979
64995W        W37321  18.282  38.582  13.239
64996W        W37322  17.228  27.176   4.574
64997W        W37323  43.464  13.710   0.566
64998W        W37324  18.583  18.755   4.790
64999W        W37325   0.379  31.810   2.133
65000W        W37326  35.666  22.021   2.125
65001W        W37327   7.359  16.756   3.399
65002W        W37328  29.234  44.928  12.051
65003W        W37329   5.207   0.704   1.811
65004W        W37330   2.266   8.686   1.481
65005W        W37331  14.773   6.193   0.699
65006W        W37332  43.408  21.726  11.503
65007W        W37333  17.689  21.672   0.482
65008W        W37334  33.465  12.567   4.588
65009W        W37335  21.531  30.161   1.443
65010W        W37336   4.850   6.566   1.197
65011W        W37337  38.316  25.443  10.632
65012W        W37338  13.099  10.229   2.345
65013W        W37339  35.382  20.268  11.632
65014W        W37340  35.900   6.911  12.127
65015W        W37341  40.441  10.723  13.800
65016W        W37342  42.275  25.935   4.786
65017W        W37343  28.483  13.568  11.578
65018W        W37344   9.829  42.598  12.049
65019W        W37345  38.111   2.431  10.568
65020W        W37346  14.755   2.314   3.710
65021W        W37347  26.444  12.816   1.407
65022W        W37348  26.456  27.162   2.829
65023W        W37349   4.782   3.529   2.613
65024W        W37350  43.853   5.808   2.193
65025W        W37351  36.021   7.342  13.968
65026W        W37352  21.844  12.137  13.116
65027W        W37353  19.214  35.998   3.718
65028W        W37354  10.557  20.785  11.058
65029W        W37355  25.562  44.713  12.063
65030W        W37356   8.896  25.377  13.815
65031W        W37357  25.663  25.075  13.446
65032W        W37358  16.969  38.109  14.842
65033W        W37359  21.294  44.046  11.134
65034W        W37360  34.088  19.155   3.405
65035W        W37361  42.365  23.170   1.289
65036W        W37362  42.922  11.807  13.794
65037W        W37363  40.226  24.363   3.431
65038W        W37364  12.667  23.892  10.901
65039W        W37365  33.621  20.184  12.161
65040W        W37366  32.516  10.318  10.032
65041W        W37367  40.154  34.265   5.377
65042W        W37368  15.186   6.258  14.337
65043W        W37369  21.121  20.033   1.982
65044W        W37370  17.288  35.677   4.732
65045W        W37371  26.617   2.713  10.620
65046W        W37372  11.763  29.899   0.437
65047W        W37373  21.589  24.001  10.693
65048W        W37374  15.779  39.736   1.383
65049W        W37375  36.834   3.291   4.574
65050W        W37376   7.124  43.856  11.084
65051W        W37377   0.518   5.914   0.793
65052W        W37378  13.299  22.692   3.336
65053W        W37379   5.220  42.808   0.801
65054W        W37380  43.850  44.961  13.587
65055W        W37381  38.798   4.754   1.252
65056W        W37382  15.516  11.230  14.942
65057W        W37383  24.052  38.549   4.152
65058W        W37384  30.067  35.739   2.204
65059W        W37385  42.269   3.153  11.035
65060W        W37386  42.994  42.767   3.719
65061W        W37387  36.720  40.439   3.260
65062W        W37388  16.312  43.587  14.438
65063W        W37389  18.150   6.008   1.831
65064W        W37390  19.664  16.540  10.492
65065W        W37391  32.090  42.043  13.421
65066W        W37392  41.013  21.392   4.162
65067W        W37393  21.734   0.108  13.878
65068W        W37394  19.168  33.119   2.908
65069W        W37395  18.471   5.359  13.707
65070W        W37396   9.466   2.164   1.677
65071W        W37397   6.680  11.339   2.765
65072W        W37398  26.715  43.350  12.059
65073W        W37399  42.453  30.633   4.318
65074W        W37400  27.641  39.425  11.980
65075W        W37401  22.505  43.348  12.348
65076W        W37402  18.118  20.091   4.100
65077W        W37403   4.931   3.898   2.274
65078W        W37404  19.493   7.422  13.081
65079W        W37405  20.535  24.380   2.771
65080W        W37406  17.340   8.420  12.524
65081W        W37407   7.931  37.065  11.564
65082W        W37408   9.908  35.993  11.966
65083W        W37409  24.485   5.219  11.877
65084W        W37410  35.994  24.088   0.179
65085W        W37411  43.770  31.116  11.409
65086W        W37412  24.220  20.128   3.746
65087W        W37413  33.357  24.571   3.141
65088W        W37414   2.702  37.631  13.533
65089W        W37415  19.661  36.593  12.653
65090W        W37416  41.469   4.198   4.872
65091W        W37417   1.148  27.940  12.221
65092W        W37418  30.073  15.869  13.637
65093W        W37419   4.415   7.670  10.649
65094W        W37420  29.734  17.007   1.647
65095W        W37421   0.318  16.848   3.749
65096W        W37422  11.101   9.203  13.384
65097W        W37423   0.492  41.551   2.706
65098W        W37424  10.423  23.222   4.591
65099W        W37425   4.773  37.474  11.427
65100W        W37426  40.240   3.421   1.311
65101W        W37427  28.102  12.350  12.992
65102W        W37428  17.272  35.650  12.927
65103W        W37429  30.468  17.646  11.192
65104W        W37430  28.890  33.723   2.632
65105W        W37431  26.541  13.976   1.856
65106W        W37432  18.255  28.031  14.911
65107W        W37433  25.427  44.202   0.580
65108W        W37434   3.308  18.462  11.609
65109W        W37435  12.186  24.988   1.386
65110W        W37436  42.081   1.453   1.266
65111W        W37437  32.772  28.003  10.362
65112W        W37438  34.583  36.901   1.285
65113W        W37439  40.430  18.744   1.484
65114W        W37440   2.018  21.153  12.069
65115W        W37441  26.023  12.655   0.559
65116W        W37442   2.400  16.892   1.186
65117W        W37443   6.846  20.596  13.556
65118W        W37444  17.645  11.149   3.168
65119W        W37445  38.054  32.615   0.966
65120W        W37446  41.059  28.786  13.041
65121W        W37447  26.170  23.234   1.815
65122W        W37448  29.016  39.299   3.106
65123W        W37449  28.698  15.929   1.870
65124W        W37450   2.398  42.115  13.939
65125W        W37451  42.827  21.239   4.627
65126W        W37452   4.700  24.418   0.443
65127W        W37453  16.154  23.047  14.722
65128W        W37454  39.395   5.809  13.013
65129W        W37455   0.335  19.678  13.980
65130W        W37456   7.211  24.472  14.145
65131W        W37457  31.962  24.222   4.629
65132W        W37458  25.631  31.833   3.809
65133W        W37459  11.698  23.127   1.422
65134W        W37460   0.527  27.569   0.458
65135W        W37461  34.905  11.075  11.545
65136W        W37462  22.351  19.227  13.451
65137W        W37463  33.668  36.893  10.666
65138W        W37464  31.790  20.727   5.059
65139W        W37465  23.996  12.224  11.161
65140W        W37466  34.360  24.517  11.018
65141W        W37467   0.410  33.880  14.800
65142W        W37468   5.597   6.645  12.985
65143W        W37469   1.735  14.051   0.918
65144W        W37470  16.670   3.402   0.691
65145W        W37471  40.269   5.870   0.325
65146W        W37472  26.556   2.757   4.488
65147W        W37473   2.764  10.451  11.646
65148W        W37474  38.463  33.614   3.863
65149W        W37475   2.228  22.220   5.087
65150W        W37476   1.183  13.720  14.057
65151W        W37477  18.144  24.498  11.512
65152W        W37478  19.775  24.028  10.988
65153W        W37479   3.402  33.159  12.555
65154W        W37480  14.845   1.900  12.959
65155W        W37481  40.858  42.045  12.503
65156W        W37482  35.797  35.578   0.758
65157W        W37483  20.909  12.215  11.619
65158W        W37484  43.714  23.121  10.652
65159W        W37485  15.123  22.777  12.674
65160W        W37486  36.518  42.015  11.507
65161W        W37487   8.118  41.506  11.058
65162W        W37488  22.622   5.350   3.759
65163W        W37489  12.493  12.705   2.931
65164W        W37490   7.821   8.077  11.547
65165W        W37491   2.203  20.234  14.950
65166W        W37492  41.800  11.896  10.818
65167W        W37493   0.439  23.449   0.516
65168W        W37494  19.554  21.624  12.510
65169W        W37495  15.656   4.716  13.479
65170W        W37496  13.281  20.053   3.736
65171W        W37497   3.934  36.175  14.080
65172W        W37498  44.290  28.429  12.019
65173W        W37499  43.789  35.506   0.583
65174W        W37500  40.569  34.321   0.113
65175W        W37501  14.678  43.936  13.644
65176W        W37502  22.343  20.944   2.846
65177W        W37503  30.109  25.818  12.499
65178W        W37504  43.040  10.548  12.299
65179W        W37505  33.285  32.183   2.835
65180W        W37506  15.567  14.717   4.545
65181W        W37507  11.884   9.441  13.897
65182W        W37508   8.379  27.549  14.313
65183W        W37509   2.428  23.583  12.536
65184W        W37510  13.307  19.530   2.272
65185W        W37511  31.135  31.540  13.494
65186W        W37512  27.972  36.143  14.036
65187W        W37513  20.906  15.398   1.227
65188W        W37514  33.997  39.886   1.214
65189W        W37515  12.075   2.753  14.985
65190W        W37516  40.359  42.586   3.281
65191W        W37517  18.171  16.608  14.737
65192W        W37518   1.900  16.685   2.846
65193W        W37519  41.347  11.061   1.328
65194W        W37520  28.442  35.383   4.580
65195W        W37521   5.911  15.773   0.474
65196W        W37522  29.432  33.385   4.025
65197W        W37523  33.494  39.866   1.458
65198W        W37524   0.491   3.333  10.849
65199W        W37525   9.805   5.246   4.527
65200W        W37526  29.629  26.836   1.762
65201W        W37527  34.494   0.954   3.433
65202W        W37528  33.499  13.908  14.280
65203W        W37529   0.266  44.317  11.859
65204W        W37530  23.533   9.006  11.565
65205W        W37531  33.819  22.002   3.246
65206W        W37532  23.476  17.619  13.527
65207W        W37533  18.703  35.381  13.281
65208W        W37534  32.699  41.897   0.757
65209W        W37535  26.220  32.533   1.226
65210W        W37536  12.199   5.756   1.490
65211W        W37537  15.597   8.168   2.934
65212W        W37538  34.303  18.143   0.943
65213W        W37539   9.260  39.762   2.697
65214W        W37540  40.256  31.158  13.561
65215W        W37541  34.359  19.528  11.591
65216W        W37542  38.262  18.886  10.528
65217W        W37543  40.998  38.809  11.402
65218W        W37544  43.412  17.217  14.033
65219W        W37545   0.374  17.885   1.656
65220W        W37546  20.176  34.360   2.244
65221W        W37547  31.565   8.751  10.402
65222W        W37548  18.557   2.279  13.646
65223W        W37549  35.042   4.011   2.211
65224W        W37550   2.516   5.134   5.764
65225W        W37551   6.515  17.675  13.918
65226W        W37552  14.147  18.181  12.070
65227W        W37553  14.711  23.470   1.860
65228W        W37554   5.205   6.407   1.583
65229W        W37555  18.132  29.312   0.911
65230W        W37556  20.089  43.749   2.118
65231W        W37557  14.115  20.668  11.661
65232W        W37558  39.784  41.904  12.145
65233W        W37559   0.644  22.390  12.595
65234W        W37560  41.512  30.073  12.172
65235W        W37561  11.648  31.655  11.065
65236W        W37562  20.815  27.466  10.764
65237W        W37563  26.450   0.721  12.042
65238W        W37564  18.006   3.492   0.971
65239W        W37565   1.537   8.833  14.917
65240W        W37566  23.221  25.116   3.096
65241W        W37567  23.702  28.442   1.861
65242W        W37568  16.808  24.038   4.245
65243W        W37569  28.597  27.450  10.744
65244W        W37570  25.210  23.271   3.813
65245W        W37571  43.495  22.512   1.361
65246W        W37572   2.758  31.632  11.950
65247W        W37573  31.675  12.013  11.136
65248W        W37574  17.904  11.323   1.590
65249W        W37575   1.971   9.443  12.102
65250W        W37576  22.169  35.772  10.669
65251W        W37577  44.836  33.939  12.981
65252W        W37578   6.958   2.975   0.427
65253W        W37579  31.117   3.878  13.923
65254W        W37580  26.664   2.533  12.619
65255W        W37581   5.828  33.942  11.644
65256W        W37582  42.119  12.199  14.092
65257W        W37583   0.204  13.448  13.944
65258W        W37584  17.629  10.990  13.869
65259W        W37585   4.957  14.501   2.183
65260W        W37586   8.610  37.055  13.789
65261W        W37587  39.456   0.758  12.842
65262W        W37588   2.139  11.673  11.012
65263W        W37589   0.317  13.702   2.751
65264W        W37590  11.897   8.770  10.675
65265W        W37591  25.061  34.063   0.963
65266W        W37592  24.675  18.797   3.698
65267W        W37593  33.324  31.582   0.848
65268W        W37594  32.056  43.789  12.563
65269W        W37595  39.299  21.547   2.312
65270W        W37596  14.259  42.948   0.017
65271W        W37597  41.706   2.600  10.570
65272W        W37598  36.318  36.671  12.583
65273W        W37599   1.799  11.177   1.014
65274W        W37600  33.086   7.311   1.889
65275W        W37601  13.709  13.847  13.309
65276W        W37602  22.884  25.230   3.647
65277W        W37603  13.890  33.087  11.420
65278W        W37604  40.047  32.390  13.516
65279W        W37605  43.513   9.624   2.792
65280W        W37606  38.317  15.151   3.720
65281W        W37607   7.364  33.666   0.294
65282W        W37608  20.251  32.209   2.310
65283W        W37609  31.328  27.682  11.998
65284W        W37610  35.386  15.002  12.800
65285W        W37611   9.226  33.008   3.761
65286W        W37612   7.668  28.246  14.418
65287W        W37613   7.927  44.693   4.118
65288W        W37614  15.263  31.645   2.266
65289W        W37615  12.928  44.998   4.703
65290W        W37616  40.903  15.740  12.013
65291W        W37617  10.166  37.472   2.860
65292W        W37618  17.808  12.337  10.755
65293W        W37619  33.998  30.529  10.466
65294W        W37620  34.710  44.105  10.738
65295W        W37621  22.173   1.369   2.832
65296W        W37622  34.799  24.316  13.009
65297W        W37623  21.087  40.088   4.951
65298W        W37624   8.773   7.837   0.932
65299W        W37625  33.267  28.166  10.349
65300W        W37626   1.682  31.946   0.375
65301W        W37627  15.710  25.193   3.379
65302W        W37628  38.758  19.790   1.919
65303W        W37629   1.978  37.091  13.378
65304W        W37630   7.405  23.541   1.964
65305W        W37631  43.793  29.784  13.446
65306W        W37632   5.721  11.945   3.321
65307W        W37633  11.378  19.810   1.851
65308W        W37634   1.369  35.702  11.146
65309W        W37635  17.284  33.034   4.623
65310W        W37636  41.342  25.643   0.429
65311W        W37637  14.081  35.054   0.321
65312W        W37638  41.049  22.532  11.485
65313W        W37639   0.169  19.698   1.975
65314W        W37640  26.768  39.513   4.527
65315W        W37641   6.221  21.186   2.335
65316W        W37642  27.567  38.647  10.676
65317W        W37643  41.479  38.492   3.893
65318W        W37644  10.254  42.531   0.823
65319W        W37645  34.537  14.210   2.720
65320W        W37646   3.146  12.141  12.631
65321W        W37647  13.894  23.549  11.569
65322W        W37648   4.408   1.311  14.020
65323W        W37649  40.079   8.095   1.381
65324W        W37650  43.979  29.963  12.995
65325W        W37651  44.675  33.929   1.961
65326W        W37652   3.169   6.902   1.919
65327W        W37653  43.420  27.016   1.739
65328W        W37654   9.771  15.248   0.835
65329W        W37655  37.378  33.939  14.698
65330W        W37656  33.146  15.167   3.797
65331W        W37657  25.640  12.326   2.403
65332W        W37658  11.400  18.293   3.332
65333W        W37659   1.369  40.920  10.989
65334W        W37660  21.544  31.674  12.951
65335W        W37661  44.205  32.482   3.758
65336W        W37662   3.453  32.105  10.607
65337W        W37663  11.998  36.057  11.218
65338W        W37664  37.915  11.386  12.440
65339W        W37665  17.604   4.336  14.569
65340W        W37666   1.605  17.837  14.795
65341W        W37667  32.547  10.320   2.241
65342W        W37668  33.346  30.424   3.305
65343W        W37669  44.240   4.662   0.900
65344W        W37670  35.523  35.321   5.033
65345W        W37671  13.127   8.681   3.351
65346W        W37672   6.297   5.064  12.982
65347W        W37673  18.315  32.140   3.665
65348W        W37674  38.881   2.655  13.342
65349W        W37675   5.736  30.545   0.740
65350W        W37676   2.953  17.136  10.844
65351W        W37677  24.231  34.039  12.260
65352W        W37678  27.867  12.664  10.293
65353W        W37679  36.397  15.118  13.970
65354W        W37680  27.181  35.868   0.845
65355W        W37681   6.476  43.870  11.698
65356W        W37682   1.223  16.184   4.120
65357W        W37683  34.525  38.043   2.239
65358W        W37684  44.936   0.144   1.000
65359W        W37685  28.326  11.617   0.934
65360W        W37686   0.615  43.493  14.365
65361W        W37687  27.662  12.852  11.583
65362W        W37688  27.825  23.536  13.594
65363W        W37689  34.942  27.931   0.207
65364W        W37690  42.521  10.830  13.940
65365W        W37691  39.056  17.633  14.378
65366W        W37692  28.215  22.483  11.587
65367W        W37693  32.899  31.063   4.092
65368W        W37694  20.553  28.549  11.931
65369W        W37695  35.397  11.855   1.426
65370W        W37696  33.683  15.246   0.773
65371W        W37697   1.891   6.299   3.108
65372W        W37698  24.550  34.046  14.860
65373W        W37699  42.756  28.404   4.022
65374W        W37700  18.283  29.683   4.703
65375W        W37701  33.035  14.244   3.130
65376W        W37702   4.412  42.821  12.665
65377W        W37703   5.485  17.001   3.711
65378W        W37704  34.938  38.071  11.376
65379W        W37705  29.959  42.734   1.879
65380W        W37706   3.633  21.301  13.624
65381W        W37707   2.212  12.380  12.617
65382W        W37708  43.853   1.461   4.589
65383W        W37709  11.601   5.754  12.174
65384W        W37710   6.611  39.455   2.412
65385W        W37711  30.334   3.676   5.108
65386W        W37712  13.869   7.592   2.160
65387W        W37713   7.874   5.779  13.942
65388W        W37714   5.009  40.506   5.097
65389W        W37715  40.392  40.110   0.317
65390W        W37716   3.319  20.712   0.921
65391W        W37717  26.251  43.261  12.906
65392W        W37718  26.131   7.053   4.577
65393W        W37719  10.206   0.045  13.746
65394W        W37720  20.506   3.907  11.498
65395W        W37721   4.919   9.058   3.677
65396W        W37722  21.017  24.998  14.853
65397W        W37723  31.618  12.800   1.715
65398W        W37724  19.335  21.149   0.273
65399W        W37725  34.074  31.581  10.934
65400W        W37726   6.623  14.555   1.216
65401W        W37727  28.213  37.272  12.494
65402W        W37728  12.179  11.621  10.422
65403W        W37729   9.337   6.011   0.379
65404W        W37730  39.102  26.673  13.694
65405W        W37731  15.640  29.603   2.706
65406W        W37732  43.990  18.735  10.942
65407W        W37733  27.670  38.804  12.815
65408W        W37734  33.583  37.382   9.672
65409W        W37735  19.225   4.482   1.621
65410W        W37736  34.075  11.104  11.171
65411W        W37737  11.822  41.746   0.487
65412W        W37738  40.418   0.729   3.879
65413W        W37739   4.165  38.412   3.991
65414W        W37740  19.842  44.143   3.307
65415W        W37741  35.065  17.565  13.048
65416W        W37742  13.875  32.569   2.382
65417W        W37743  15.079  17.304  12.138
65418W        W37744  38.375   5.273  12.475
65419W        W37745   2.736  37.694  11.630
65420W        W37746   4.308  23.222  14.191
65421W        W37747   7.139  17.722   0.961
65422W        W37748  40.243   2.331   0.953
65423W        W37749  44.748  23.335   3.655
65424W        W37750  43.082  20.979   4.211
65425W        W37751  29.953  39.755  10.612
65426W        W37752  14.013  21.097   0.989
65427W        W37753  23.830  38.708   2.442
65428W        W37754   6.806   4.165  12.807
65429W        W37755  40.862  16.349   4.722
65430W        W37756  26.202  22.910   4.609
65431W        W37757   3.330  35.395   1.913
65432W        W37758  35.042   8.098   1.416
65433W        W37759   4.909  18.591  11.136
65434W        W37760  33.398   3.861  12.448
65435W        W37761  21.609  38.187   3.156
65436W        W37762  40.787  14.748   3.675
65437W        W37763  28.978  15.274  10.375
65438W        W37764  36.286  32.239  13.337
65439W        W37765  31.987  20.447  12.351
65440W        W37766   2.887  31.412   0.799
65441W        W37767   6.008  22.305   3.754
65442W        W37768  32.124  23.741   1.504
65443W        W37769  26.415  18.266  14.529
65444W        W37770  20.481  31.023  11.395
65445W        W37771   5.261  38.576   3.293
65446W        W37772  40.813  40.866   4.382
65447W        W37773  12.207  43.072  12.915
65448W        W37774  36.879  13.800   4.021
65449W        W37775   7.637  41.747   3.663
65450W        W37776  44.363  30.412   2.214
65451W        W37777  17.792  32.987  10.759
65452W        W37778  41.384   3.408   3.768
65453W        W37779  32.981  15.131   2.337
65454W        W37780  28.470   8.154   3.596
65455W        W37781  32.552  41.721   1.754
65456W        W37782  38.117  35.396   3.242
65457W        W37783  11.552  20.638  12.627
65458W        W37784  26.525  35.322   0.696
65459W        W37785  19.315   4.428  10.589
65460W        W37786   7.166  36.043   3.795
65461W        W37787  30.964  36.060  11.566
65462W        W37788   7.891  20.060  10.737
65463W        W37789  36.412  15.605  13.827
65464W        W37790  43.284  40.105   4.638
65465W        W37791  17.080  28.028  13.925
65466W        W37792  26.597  43.339   0.217
65467W        W37793  10.742  33.470  12.359
65468W        W37794  19.512   1.625  12.625
65469W        W37795  27.159  20.559  13.395
65470W        W37796  10.441  16.900   4.233
65471W        W37797  35.940  39.075   2.417
65472W        W37798  39.564  25.874  12.082
65473W        W37799   1.293  13.897  12.519
65474W        W37800  24.552  25.861  12.724
65475W        W37801  34.304  32.000  11.096
65476W        W37802  33.879   8.836   0.626
65477W        W37803  41.799  22.713  13.150
65478W        W37804   6.241  18.947   1.756
65479W        W37805  42.095  15.507  13.777
65480W        W37806   7.706  27.063  13.373
65481W        W37807  32.213  37.508   3.210
65482W        W37808  39.968   9.068   2.338
65483W        W37809  34.278  12.245   2.621
65484W        W37810   0.641  24.183   0.869
65485W        W37811  22.958  25.954   1.627
65486W        W37812  13.687   5.628   3.621
65487W        W37813   0.328  36.414  13.663
65488W        W37814   1.675  24.382   3.624
65489W        W37815  38.842  21.211  14.396
65490W        W37816  23.466  19.171   2.645
65491W        W37817  36.176  15.609   2.915
65492W        W37818  37.941  37.505   2.986
65493W        W37819  34.422  19.799  12.045
65494W        W37820   9.802  25.694  12.100
65495W        W37821   0.262   2.273  13.083
65496W        W37822   5.294  19.539   4.088
65497W        W37823   7.166  41.050   0.742
65498W        W37824  39.272   0.034   0.445
65499W        W37825  32.652  19.757  13.023
65500W        W37826  38.810   7.991  10.769
65501W        W37827  32.420   4.941   0.890
65502W        W37828  29.152  18.751   4.103
65503W        W37829   6.404  23.466  10.057
65504W        W37830  25.612  29.043   0.341
65505W        W37831  34.812  15.684   4.591
65506W        W37832  28.946  34.611  13.339
65507W        W37833  18.334  26.482  13.538
65508W        W37834  43.738  34.454  10.463
65509W        W37835  32.681  29.968  10.761
65510W        W37836  29.881  25.127   0.769
65511W        W37837  30.148  28.532   0.677
65512W        W37838  16.293  40.973   3.700
65513W        W37839  33.121  42.791  13.051
65514W        W37840  36.498   6.744  12.403
65515W        W37841  18.864  20.991  14.544
65516W        W37842  15.294  10.333   2.654
65517W        W37843  10.437  19.232  13.108
65518W        W37844   7.749  13.845  12.917
65519W        W37845  25.528  35.521   3.742
65520W        W37846   3.226  34.999  11.517
65521W        W37847  35.033  35.114  11.069
65522W        W37848  21.798  22.236   2.720
65523W        W37849  43.942  24.050   3.771
65524W        W37850  31.775  10.283   1.294
65525W        W37851   2.103  13.001   2.336
65526W        W37852   4.660  33.620   4.124
65527W        W37853  38.204   9.165   2.811
65528W        W37854  37.570  42.527   3.844
65529W        W37855  16.301   5.459  14.532
65530W        W37856  30.786  41.561   2.332
65531W        W37857   2.902  34.029   4.620
65532W        W37858  13.040  16.665   3.178
65533W        W37859  34.340  34.984  11.812
65534W        W37860  40.623  10.234   0.017
65535W        W37861  10.172   5.213   1.823
65536W        W37862  35.437  41.513   0.543
65537W        W37863   4.891   2.818  11.580
65538W        W37864   7.821  13.994  13.795
65539W        W37865  39.022  33.401  11.443
65540W        W37866  14.912   3.543   0.408
65541W        W37867  31.616  33.657  12.417
65542W        W37868  13.261   1.185   0.104
65543W        W37869   7.952  42.846   0.339
65544W        W37870   5.791  12.557   1.913
65545W        W37871   0.324  33.494   2.280
65546W        W37872  29.222  14.076   0.401
65547W        W37873   5.968  13.689  11.604
65548W        W37874  42.605  28.180  10.721
65549W        W37875  26.251  16.537  10.479
65550W        W37876  26.537  16.958  13.473
65551W        W37877  21.668   5.878  10.597
65552W        W37878   8.439  33.370   4.254
65553W        W37879  22.026  20.375  13.734
65554W        W37880  41.559   8.760  12.376
65555W        W37881  24.599  26.394  10.988
65556W        W37882   8.632  33.766   1.265
65557W        W37883  32.183  40.063   3.117
65558W        W37884  30.948   5.912  11.953
65559W        W37885   8.585  29.054   3.263
65560W        W37886  40.681  31.389  14.302
65561W        W37887   6.273   2.875   4.930
65562W        W37888  14.067  39.824  11.394
65563W        W37889  23.084  41.462   1.323
65564W        W37890  27.577  21.196   4.068
65565W        W37891   5.032  13.224   1.353
65566W        W37892  35.383  33.147   1.335
65567W        W37893  21.380  16.869   1.754
65568W        W37894  11.702  29.234   2.915
65569W        W37895   6.010  42.468  12.014
65570W        W37896  10.605  11.613  12.120
65571W        W37897  21.120  42.835   0.264
65572W        W37898   9.797  12.268   1.700
65573W        W37899  11.573   1.277   4.159
65574W        W37900  39.439  30.772  13.664
65575W        W37901   0.904  30.456  14.837
65576W        W37902   9.314  29.308  14.430
65577W        W37903  35.370  41.604  13.541
65578W        W37904  18.684  30.006   4.842
65579W        W37905  30.670  13.691   2.256
65580W        W37906   9.311  21.441  12.316
65581W        W37907  39.514  40.529   1.241
65582W        W37908  29.608  10.553   0.322
65583W        W37909  40.345   4.893   1.241
65584W        W37910   1.414   9.722   2.190
65585W        W37911  18.794  35.722   0.353
65586W        W37912  15.696  25.086   2.460
65587W        W37913  31.460  23.675   2.326
65588W        W37914  10.811   4.692   3.202
65589W        W37915   9.779  41.293  14.497
65590W        W37916  28.140  30.675  13.025
65591W        W37917  39.493  12.690   4.160
65592W        W37918  19.720   8.399  13.972
65593W        W37919  36.318   2.176   3.710
65594W        W37920  33.213  14.139   2.310
65595W        W37921  14.607   4.141   3.140
65596W        W37922  15.687  21.472   5.013
65597W        W37923  44.858  35.981   4.160
65598W        W37924  42.818  22.055  14.812
65599W        W37925  16.763  16.864  12.785
65600W        W37926   3.611  17.114  11.462
65601W        W37927  40.781  26.478   4.240
65602W        W37928  18.336  36.544   2.677
65603W        W37929   6.777   6.208  13.507
65604W        W37930  13.158   1.912  10.811
65605W        W37931  15.274  40.068   3.634
65606W        W37932  25.640  25.108   5.143
65607W        W37933  36.161  22.080   2.852
65608W        W37934  21.540  37.596   4.988
65609W        W37935  42.816  39.012   1.370
65610W        W37936  32.401   3.474  13.276
65611W        W37937  27.571  38.307  13.724
65612W        W37938  42.210  37.358   4.666
65613W        W37939  44.954   8.417   1.462
65614W        W37940  25.089   7.733   3.937
65615W        W37941  36.934   1.510  14.984
65616W        W37942  25.651   4.887   1.046
65617W        W37943  10.215  31.680  12.987
65618W        W37944  19.759  44.903   1.077
65619W        W37945  23.283  32.596   4.635
65620W        W37946  39.922   1.511  14.342
65621W        W37947   1.975  31.174  14.775
65622W        W37948  35.506  25.576   3.697
65623W        W37949  30.500  13.144   3.712
65624W        W37950  17.131  39.367  10.415
65625W        W37951  24.893   4.233  11.593
65626W        W37952  18.277  34.012   3.694
65627W        W37953  40.975   2.965  12.375
65628W        W37954  34.578  14.103  13.320
65629W        W37955  27.178  33.499   4.669
65630W        W37956  40.426  10.645   4.103
65631W        W37957  19.219  30.480   3.952
65632W        W37958  15.221  42.221   4.245
65633W        W37959  26.438   0.190  12.102
65634W        W37960  30.423  22.162  11.925
65635W        W37961  32.174  17.160  11.996
65636W        W37962  24.194  41.815  14.117
65637W        W37963  27.532   0.471   4.744
65638W        W37964   7.699  37.076  12.548
65639W        W37965   5.408  21.240  14.347
65640W        W37966  39.890  19.609  14.465
65641W        W37967  39.719  41.304   3.722
65642W        W37968  27.375   9.767  12.532
65643W        W37969  17.254  10.433   4.594
65644W        W37970  13.326   0.757   0.446
65645W        W37971  41.998   0.258  13.515
65646W        W37972   0.188  22.612   2.375
65647W        W37973  23.324  23.740  11.652
65648W        W37974  42.778  25.181  13.544
65649W        W37975  31.176  38.848   4.201
65650W        W37976  29.838  33.655  10.442
65651W        W37977  24.643  43.992  13.045
65652W        W37978  16.839  29.512  10.553
65653W        W37979  34.932  30.487   2.944
65654W        W37980  21.637  27.424  14.339
65655W        W37981  42.527  16.286   0.424
65656W        W37982  26.604  35.036  11.149
65657W        W37983   9.871  19.011  13.069
65658W        W37984  41.027  32.807   0.906
65659W        W37985   2.355  15.951   2.736
65660W        W37986  41.209  23.167  13.490
65661W        W37987  16.621  13.837  13.025
65662W        W37988  25.936   6.712  14.292
65663W        W37989   1.370   3.235  14.393
65664W        W37990  20.407   4.692  14.331
65665W        W37991  38.320  24.516  11.341
65666W        W37992  21.809  41.747   0.373
65667W        W37993  23.472  28.912   2.801
65668W        W37994   3.643   1.856   2.352
65669W        W37995   9.299  27.693   1.764
65670W        W37996  33.539  13.969   4.925
65671W        W37997  42.917   8.820   1.214
65672W        W37998  18.762  19.559  14.393
65673W        W37999  11.348   7.567  11.266
65674W        W38000  35.491  31.084  13.619
65675W        W38001   9.470  33.733  11.020
65676W        W38002  42.705  11.126  10.803
65677W        W38003   3.900   3.250  10.985
65678W        W38004  42.165   3.489  11.655
65679W        W38005  10.057  39.340   2.295
65680W        W38006  12.938  11.544  12.435
65681W        W38007  23.471  19.113  12.472
65682W        W38008   8.977  42.771  11.062
65683W        W38009   0.510  37.302   2.753
65684W        W38010  42.232  10.002   1.368
65685W        W38011  10.788  38.905   2.696
65686W        W38012   5.225  13.678   3.705
65687W        W38013   7.089  22.113   3.889
65688W        W38014   1.792  33.644   4.363
65689W        W38015  41.201  34.598   1.255
65690W        W38016  10.938  39.428  11.599
65691W        W38017  25.690  32.476   4.576
65692W        W38018  13.309  38.496   3.686
65693W        W38019  42.924  12.225   4.572
65694W        W38020  27.087  43.901   1.675
65695W        W38021  11.610  15.781  12.373
65696W        W38022  39.824  30.926  13.356
65697W        W38023  35.914  17.316  13.890
65698W        W38024  42.591   0.403   0.362
65699W        W38025  19.177   2.974   3.130
65700W        W38026  10.794   7.476   0.834
65701W        W38027  32.178   2.146  12.598
65702W        W38028  31.708   9.647   2.326
65703W        W38029  13.109   3.758   4.112
65704W        W38030  18.561   5.372  11.020
65705W        W38031  43.872  12.569  13.518
65706W        W38032   9.339   6.687  14.249
65707W        W38033  34.946   3.274  12.965
65708W        W38034  17.192   0.511  10.406
65709W        W38035  41.747  44.589   3.596
65710W        W38036  39.741   0.986  11.137
65711W        W38037   0.718  16.138   1.946
65712W        W38038  10.583  44.004  14.407
65713W        W38039  29.093  38.031  11.950
65714W        W38040  33.416  40.801   4.905
65715W        W38041  39.005  12.228   2.637
65716W        W38042   6.941  23.962  12.528
65717W        W38043  28.630  39.800   2.233
65718W        W38044  22.744  30.777   0.806
65719W        W38045   8.250  30.276  14.223
65720W        W38046  10.410  13.724   2.344
65721W        W38047   7.943  17.779   1.301
65722W        W38048  21.877  20.331   3.295
65723W        W38049  12.305   0.472   0.442
65724W        W38050   5.495   4.882   0.087
65725W        W38051  31.114  32.691   3.310
65726W        W38052   7.438  14.323   2.881
65727W        W38053  25.063   5.934   4.458
65728W        W38054  33.519  17.763   0.249
65729W        W38055   2.065   7.740   2.342
65730W        W38056   9.396   2.257  13.448
65731W        W38057   3.869  17.019   2.864
65732W        W38058  40.393   1.385   1.287
65733W        W38059  13.728  38.098   3.150
65734W        W38060  35.392  36.051  14.395
65735W        W38061  20.277  42.021  12.458
65736W        W38062  14.850   5.260   4.137
65737W        W38063   4.350  43.993   2.714
65738W        W38064  19.202  27.053   2.781
65739W        W38065  12.496  19.350  14.395
65740W        W38066  22.725   2.505   3.692
65741W        W38067  40.504   2.497  12.965
65742W        W38068  37.279  27.186   3.345
65743W        W38069  17.550  39.990  12.398
65744W        W38070  10.164   9.248  10.664
65745W        W38071   0.865   0.973  10.666
65746W        W38072   6.274  40.261  13.358
65747W        W38073  12.619  13.119  14.478
65748W        W38074   8.843  22.664   0.320
65749W        W38075   2.142   7.371  14.748
65750W        W38076   1.700  36.080   1.486
65751W        W38077  30.961  25.605  13.313
65752W        W38078  27.567  30.791  11.012
65753W        W38079  18.064  26.020  13.479
65754W        W38080  18.091  36.042   3.722
65755W        W38081  26.580  16.758   3.997
65756W        W38082  12.078  12.665   1.757
65757W        W38083  21.266  18.394   4.765
65758W        W38084  39.545  41.615   4.204
65759W        W38085  39.867  34.471   4.044
65760W        W38086  18.018   5.774   4.226
65761W        W38087   2.310  23.668   3.621
65762W        W38088  26.225   1.247   1.432
65763W        W38089   4.427  18.004  10.455
65764W        W38090  15.670  25.681  10.593
65765W        W38091  23.206  21.826   1.466
65766W        W38092  17.221   0.076   0.973
65767W        W38093  28.119   5.452   3.833
65768W        W38094  31.460   8.237   2.354
65769W        W38095   2.705  12.135  14.412
65770W        W38096  39.892  19.719   2.246
65771W        W38097   4.396  32.863  10.403
65772W        W38098  29.468  24.193  11.639
65773W        W38099  15.058  26.076   2.115
65774W        W38100  22.781  41.506   3.736
65775W        W38101   5.007  14.935  12.585
65776W        W38102   5.452  41.833  11.640
65777W        W38103  33.994   2.682   1.915
65778W        W38104  26.147  21.070   3.200
65779W        W38105  24.402  18.130   1.168
65780W        W38106   5.117  18.106   4.667
65781W        W38107  15.804  24.255  13.928
65782W        W38108  16.823  39.316   1.474
65783W        W38109  26.486   8.936   1.712
65784W        W38110  39.775  37.025  12.157
65785W        W38111  43.434  10.203   2.025
65786W        W38112  11.376   0.328  14.902
65787W        W38113  11.574   9.089   4.910
65788W        W38114   9.798  36.879   4.616
65789W        W38115  16.102  36.207   4.554
65790W        W38116   4.803  31.163  12.667
65791W        W38117   4.773  20.990  11.879
65792W        W38118  30.276  14.472   2.365
65793W        W38119  42.331  23.187  11.626
65794W        W38120  35.021  42.751   4.818
65795W        W38121  42.519  39.289   2.363
65796W        W38122  40.291  43.929   1.279
65797W        W38123  29.533   2.993   3.193
65798W        W38124  35.507  40.160   2.735
65799W        W38125  37.922  31.886   3.949
65800W        W38126  39.194   3.906   3.682
65801W        W38127  17.269  40.567  11.835
65802W        W38128  16.502  31.321   4.146
65803W        W38129   0.652   7.308  14.341
65804W        W38130  37.662  16.121  13.464
65805W        W38131  16.160  32.476   1.356
65806W        W38132  18.714  36.538   2.299
65807W        W38133  41.959  35.769  12.606
65808W        W38134  25.117  24.476  13.817
65809W        W38135  22.111  13.900   0.841
65810W        W38136  27.204  26.158   0.259
65811W        W38137   5.200  40.790  10.572
65812W        W38138  22.134  18.014  14.032
65813W        W38139  41.140   8.737  12.057
65814W        W38140  13.146  24.022  12.532
65815W        W38141  14.089  33.806  13.780
65816W        W38142  17.862   8.611  13.889
65817W        W38143   2.313  37.291   1.365
65818W        W38144  41.052  13.282   2.707
65819W        W38145  27.915  26.042   1.612
65820W        W38146  35.487  44.717   4.734
65821W        W38147  14.447  33.369   1.961
65822W        W38148  15.771  10.951  14.558
65823W        W38149  37.675  29.514  14.362
65824W        W38150  13.183  41.030   1.252
65825W        W38151  35.468  11.248  12.829
65826W        W38152  39.840  15.441   0.713
65827W        W38153  24.878  35.063   4.733
65828W        W38154  26.255  20.509  13.261
65829W        W38155  43.699   8.810  14.692
65830W        W38156  37.404  10.359  14.453
65831W        W38157  32.036   7.401   2.300
65832W        W38158  20.016   4.360   3.675
65833W        W38159  22.258  24.174   4.133
65834W        W38160  35.090  34.870   0.898
65835W        W38161   2.190  12.161  11.592
65836W        W38162  27.887   0.146   4.362
65837W        W38163   6.292  41.443  10.099
65838W        W38164  25.487  10.157   9.754
65839W        W38165  31.079  33.506  13.984
65840W        W38166  35.921   6.752   2.333
65841W        W38167  36.649  33.552  13.933
65842W        W38168  31.918   7.965   4.066
65843W        W38169  42.487  10.376  14.749
65844W        W38170  27.498  14.429  14.764
65845W        W38171   3.207  24.118  14.628
65846W        W38172  30.069  23.652  11.169
65847W        W38173  30.444  36.963  14.532
65848W        W38174  39.447  22.041   0.267
65849W        W38175  40.867  18.981   1.352
65850W        W38176  15.304  13.088  12.559
65851W        W38177  42.005  40.081   4.136
65852W        W38178   7.441  37.988  14.852
65853W        W38179   9.617  29.615   1.317
65854W        W38180  36.358  24.428  14.893
65855W        W38181  44.769  30.501  10.993
65856W        W38182  35.676  26.029   2.211
65857W        W38183  32.821   3.877  11.531
65858W        W38184   4.656   3.409  13.463
65859W        W38185  19.000   0.416   3.867
65860W        W38186  40.651  25.040  11.743
65861W        W38187  40.967  44.914  14.698
65862W        W38188   1.820  41.311  14.388
65863W        W38189  27.939  24.226   2.833
65864W        W38190   4.930  39.392   3.127
65865W        W38191  44.992   4.527   1.343
65866W        W38192   2.225   7.491  11.102
65867W        W38193  39.445   9.596   4.653
65868W        W38194   5.921  42.523   2.297
65869W        W38195   6.751  27.763   0.240
65870W        W38196  27.771  27.477   1.249
65871W        W38197  41.466   8.313   1.984
65872W        W38198  19.809  12.018   1.823
65873W        W38199  26.506  20.689   0.801
65874W        W38200  37.385   0.239  13.729
65875W        W38201  12.259  20.988  11.985
65876W        W38202   5.085   9.997  14.783
65877W        W38203  18.711  39.370  13.353
65878W        W38204   5.627  44.677  11.389
65879W        W38205  28.729  38.100   1.426
65880W        W38206  41.414  11.569   4.127
65881W        W38207  13.930  17.705  12.280
65882W        W38208   0.014  25.213  13.883
65883W        W38209   4.708  43.838  11.785
65884W        W38210  40.576  34.637   4.281
65885W        W38211  26.027  32.929   2.760
65886W        W38212  31.734  19.352   0.965
65887W        W38213  22.630  41.034   1.877
65888W        W38214   9.384  40.120  13.319
65889W        W38215  29.022   4.162   0.273
65890W        W38216   2.862  38.810   3.209
65891W        W38217   5.575  40.010   1.363
65892W        W38218  19.680  41.513  14.355
65893W        W38219  17.613   8.172  14.628
65894W        W38220  14.329  27.957  10.674
65895W        W38221  32.074   2.467  11.977
65896W        W38222  41.460  31.383  14.034
65897W        W38223  22.899  29.697  11.849
65898W        W38224  26.559  28.029   3.660
65899W        W38225  23.959  26.709   3.702
65900W        W38226   2.039  36.918  14.359
65901W        W38227   5.808  40.839   1.625
65902W        W38228  30.851  26.108   4.384
65903W        W38229  29.217  30.557   3.671
65904W        W38230  31.583  43.268   4.800
65905W        W38231  26.175  16.719  11.403
65906W        W38232  10.400  43.965  11.433
65907W        W38233  41.376  27.117  11.384
65908W        W38234  33.680   1.302  10.881
65909W        W38235  32.684  32.122  12.971
65910W        W38236  25.184  20.945   0.178
65911W        W38237  19.285  14.846   4.117
65912W        W38238   7.210  36.518  11.948
65913W        W38239  40.957  30.613  10.742
65914W        W38240  18.328  22.159   0.701
65915W        W38241   4.224  22.226   0.891
65916W        W38242  43.798  13.705  10.654
65917W        W38243  31.973  37.567   1.397
65918W        W38244  28.445  37.766  14.122
65919W        W38245  19.087   1.388  10.577
65920W        W38246   0.419  26.632   3.790
65921W        W38247  19.643  17.779   1.262
65922W        W38248  22.703  43.310   1.443
65923W        W38249  34.051   5.645   4.777
65924W        W38250  25.628  14.583  13.656
65925W        W38251  44.588  44.406  10.725
65926W        W38252  17.631   0.449  10.693
65927W        W38253  14.521   1.040   9.726
65928W        W38254  39.526  39.306   1.860
65929W        W38255  27.105  43.436   0.226
65930W        W38256  39.287  12.925   0.408
65931W        W38257  31.966  20.748   3.621
65932W        W38258  33.664  32.442  12.910
65933W        W38259  33.500  12.128   3.278
65934W        W38260  43.312   4.701   3.142
65935W        W38261  34.573  37.986  11.733
65936W        W38262  12.159  13.333   4.622
65937W        W38263   4.427   2.383   5.127
65938W        W38264  27.168  23.664  11.142
65939W        W38265  23.914  25.112   2.207
65940W        W38266  27.630  23.470  14.391
65941W        W38267  24.674  14.853  10.939
65942W        W38268  41.358  21.439   0.876
65943W        W38269  32.838  29.518  13.411
65944W        W38270  19.092  39.850   2.784
65945W        W38271  25.801  44.173  11.554
65946W        W38272  30.957  13.841  13.476
65947W        W38273  26.350  12.005  14.046
65948W        W38274  41.012  27.085  12.565
65949W        W38275   3.499  16.540   1.669
65950W        W38276  15.250  22.066   5.108
65951W        W38277  13.612   3.172   1.427
65952W        W38278  15.252  36.312  14.745
65953W        W38279   2.211  37.530  13.417
65954W        W38280  36.653  41.135  10.666
65955W        W38281   5.353   4.264  14.296
65956W        W38282  36.366  36.408  13.095
65957W        W38283   9.419  39.424   3.111
65958W        W38284   7.889  23.553   4.572
65959W        W38285  21.117  20.338  10.715
65960W        W38286  13.802  36.811   0.348
65961W        W38287  25.634  30.489   1.517
65962W        W38288   5.645  11.284   1.366
65963W        W38289  34.131  19.163  14.905
65964W        W38290  20.354   9.149   1.230
65965W        W38291  22.143   6.260   4.559
65966W        W38292   4.792  23.009   2.281
65967W        W38293  10.976  10.624  11.168
65968W        W38294  25.921  14.602  14.688
65969W        W38295   6.755  30.880  12.570
65970W        W38296  22.047   1.789  11.429
65971W        W38297  14.178   7.334  12.207
65972W        W38298  37.167  12.235   3.270
65973W        W38299  33.295  12.254  11.408
65974W        W38300  36.891  38.306   3.121
65975W        W38301   3.964   3.356  12.369
65976W        W38302  24.701  26.676  13.874
65977W        W38303  13.412  19.258  14.831
65978W        W38304  26.821  15.283   3.143
65979W        W38305  16.036  10.104   3.168
65980W        W38306  44.837  14.264  11.352
65981W        W38307   1.565  21.164   4.550
65982W        W38308  17.587  13.983  14.362
65983W        W38309  21.640  11.266   1.610
65984W        W38310  33.074  39.781   3.117
65985W        W38311   4.496  22.104   3.854
65986W        W38312  16.020  30.897   0.853
65987W        W38313   6.677  37.021  12.619
65988W        W38314   7.624  21.961   3.720
65989W        W38315  43.913   1.005   0.373
65990W        W38316  43.429   4.956  11.317
65991W        W38317  10.159  23.028  14.078
65992W        W38318  26.625  43.090  13.855
65993W        W38319  13.067   3.155  14.963
65994W        W38320  13.789  16.602  13.515
65995W        W38321  31.214  36.614   4.609
65996W        W38322   0.197  10.155   4.265
65997W        W38323  34.457  41.012   4.058
65998W        W38324  14.665  16.077  13.563
65999W        W38325  19.668   5.481  11.036
66000W        W38326  22.830  14.883  12.893
66001W        W38327  18.018  38.008   4.060
66002W        W38328  20.836  14.591   0.874
66003W        W38329  28.578  44.941   4.125
66004W        W38330  33.090  41.589   0.283
66005W        W38331  37.443  24.518   4.155
66006W        W38332  25.084   4.998  12.078
66007W        W38333  28.558  30.167  13.894
66008W        W38334  11.664  27.523   4.767
66009W        W38335  22.703  31.126   0.385
66010W        W38336  10.312  31.403  10.910
66011W        W38337   0.855  39.703   4.931
66012W        W38338  32.632  35.210   2.067
66013W        W38339  36.679  32.070   5.027
66014W        W38340  36.012  16.282   4.682
66015W        W38341   7.738  39.255  13.897
66016W        W38342  44.945  22.467  13.116
66017W        W38343   4.800  34.006   1.129
66018W        W38344  35.347   2.577  14.910
66019W        W38345   4.665  12.733  11.410
66020W        W38346  12.665  25.659   3.392
66021W        W38347  32.543  25.704  10.950
66022W        W38348  34.561  42.589   4.625
66023W        W38349  15.715  27.165   3.951
66024W        W38350  15.647  15.611  13.463
66025W        W38351  15.782   1.734   3.681
66026W        W38352   5.135   3.407  10.858
66027W        W38353  30.911  20.160   4.047
66028W        W38354  27.013  15.840   3.833
66029W        W38355  34.738  21.629  11.528
66030W        W38356  36.461  15.829  14.837
66031W        W38357  36.474  36.130  11.126
66032W        W38358  26.972  44.838  13.536
66033W        W38359  44.455  44.166  10.273
66034W        W38360  34.735  20.946  11.501
66035W        W38361   1.724  13.699  13.085
66036W        W38362  17.274   4.316   1.715
66037W        W38363  11.954   2.606  11.963
66038W        W38364  14.835  16.040  14.590
66039W        W38365   6.693  31.184   1.938
66040W        W38366  35.711   2.211  12.596
66041W        W38367   1.114  29.929   4.135
66042W        W38368  20.529  29.392   0.870
66043W        W38369  26.365  36.047   5.027
66044W        W38370  43.707  37.909   4.100
66045W        W38371  17.118  36.983   1.825
66046W        W38372  38.019   7.291  10.910
66047W        W38373  22.968  33.985   3.761
66048W        W38374  14.659   2.335   2.387
66049W        W38375  20.195  24.572   0.074
66050W        W38376  18.550  12.929  11.455
66051W        W38377   2.011  33.313   2.221
66052W        W38378  21.819  16.143   0.222
66053W        W38379  16.799   0.529  13.341
66054W        W38380  12.135  44.341   2.638
66055W        W38381  28.795  10.155  14.231
66056W        W38382  18.344  42.493  12.184
66057W        W38383  30.479  24.557  14.543
66058W        W38384  24.506  28.690  11.980
66059W        W38385  38.251  41.885  13.749
66060W        W38386   6.416  33.206  14.104
66061W        W38387  21.524  20.650   4.349
66062W        W38388  12.042  33.926  10.259
66063W        W38389  31.938   9.398  13.864
66064W        W38390  15.602  31.078  14.454
66065W        W38391  25.667  36.037  13.024
66066W        W38392   1.925  23.578   3.118
66067W        W38393  18.222  36.129   4.690
66068W        W38394   5.157  42.886  13.792
66069W        W38395  36.481  16.631  14.317
66070W        W38396  26.623  32.611  14.932
66071W        W38397  43.551  10.830  13.962
66072W        W38398  26.444  16.606   3.486
66073W        W38399  13.312  36.063   0.919
66074W        W38400   6.938   6.665   3.651
66075W        W38401  21.773  18.843   0.851
66076W        W38402   5.310  19.994   3.792
66077W        W38403   6.809   8.584   0.807
66078W        W38404  32.214  21.253  13.833
66079W        W38405  36.815  10.212   2.194
66080W        W38406  23.681  14.725   9.698
66081W        W38407  14.175  31.106  12.996
66082W        W38408  24.085  40.549  10.889
66083W        W38409  38.907  37.116  13.030
66084W        W38410  11.462  20.782   1.762
66085W        W38411  37.295  29.803  12.993
66086W        W38412  16.050  36.471   0.432
66087W        W38413  35.530   4.711  11.639
66088W        W38414  35.092  26.619   0.219
66089W        W38415  29.020  21.989  11.176
66090W        W38416   3.798  30.301  14.383
66091W        W38417  25.251  13.204   3.888
66092W        W38418  15.112  31.749  12.025
66093W        W38419   0.766   3.208   0.420
66094W        W38420   4.478  28.420  12.134
66095W        W38421  32.395  40.536  11.034
66096W        W38422  23.113  36.083   2.099
66097W        W38423  15.259  14.285  12.538
66098W        W38424  31.353  41.917   0.474
66099W        W38425   5.457  10.920  11.837
66100W        W38426  15.152  28.409   0.400
66101W        W38427  16.226  28.124   3.421
66102W        W38428  41.575   3.986  13.070
66103W        W38429  32.453  23.904   4.045
66104W        W38430  14.789  24.935   1.979
66105W        W38431  44.234  34.592   4.654
66106W        W38432  26.141  35.099  11.375
66107W        W38433  14.933  31.115   3.111
66108W        W38434   5.776  23.176  10.806
66109W        W38435  44.232   6.209   1.763
66110W        W38436  44.518  19.462  10.570
66111W        W38437  38.345  24.468   3.917
66112W        W38438   7.414  29.955  10.810
66113W        W38439  36.875  32.538  12.376
66114W        W38440  23.562  32.868  12.664
66115W        W38441  32.101  42.020   2.453
66116W        W38442  34.374  40.119   0.899
66117W        W38443   8.955  33.680  12.182
66118W        W38444  11.296  44.782  13.278
66119W        W38445  21.597  31.794   4.510
66120W        W38446  36.505  36.926  14.466
66121W        W38447  24.092  25.156  11.489
66122W        W38448  27.046  37.065  14.528
66123W        W38449   7.352  17.082  14.763
66124W        W38450   6.163  35.712   0.355
66125W        W38451  25.181   8.750   0.736
66126W        W38452  35.401  35.037  13.491
66127W        W38453  28.751  43.796  11.484
66128W        W38454  22.044   5.361  11.645
66129W        W38455  30.564  11.922   1.661
66130W        W38456   4.145  34.943  12.371
66131W        W38457   1.941   3.883   0.439
66132W        W38458   4.524  37.708  10.116
66133W        W38459  29.688  12.603  13.317
66134W        W38460  36.480   3.521  12.373
66135W        W38461  29.271  37.719   2.693
66136W        W38462   0.913  28.505   2.705
66137W        W38463   4.070  35.436   3.822
66138W        W38464   8.707  36.979   3.404
66139W        W38465  12.217   8.868  10.289
66140W        W38466  35.101  39.050   2.692
66141W        W38467  14.788  34.215   1.790
66142W        W38468  41.745  35.043  14.855
66143W        W38469  22.222  24.592  12.351
66144W        W38470  23.673  38.876   1.320
66145W        W38471  17.554  40.486  13.516
66146W        W38472  14.612  32.609   0.793
66147W        W38473  26.139  14.374   3.756
66148W        W38474  43.416   1.164   2.802
66149W        W38475  28.207  23.675   1.913
66150W        W38476  40.262  31.245  14.586
66151W        W38477  23.982  16.603   1.730
66152W        W38478  34.759   1.786   4.185
66153W        W38479   5.126   6.463   3.344
66154W        W38480  18.039  10.348  11.328
66155W        W38481   1.212  22.281  10.927
66156W        W38482  28.570  11.421  12.970
66157W        W38483  21.693   0.499  11.435
66158W        W38484  25.007  40.275   0.311
66159W        W38485  39.442  25.615  11.468
66160W        W38486  19.037   4.902   1.357
66161W        W38487  16.812  14.216  12.085
66162W        W38488   3.232  24.159   1.063
66163W        W38489  36.983  13.553  12.068
66164W        W38490   0.244  35.608  13.958
66165W        W38491  25.985   1.841   2.191
66166W        W38492  25.291  17.025  11.049
66167W        W38493  22.284  37.165  14.790
66168W        W38494  13.828  34.171   1.025
66169W        W38495   0.998  17.913  11.597
66170W        W38496  28.391   3.398  10.668
66171W        W38497  13.182  29.958   2.899
66172W        W38498  40.884  19.973  13.109
66173W        W38499  27.473  21.529  12.607
66174W        W38500  24.354  27.565  14.398
66175W        W38501   6.254  31.267   4.296
66176W        W38502  18.649   5.414   2.060
66177W        W38503  29.562  20.013  12.663
66178W        W38504  37.255  33.371   0.310
66179W        W38505  33.058  16.752   1.158
66180W        W38506  23.083  12.222   0.656
66181W        W38507   6.377  38.420  10.308
66182W        W38508  20.737  14.170  13.634
66183W        W38509  16.078  30.117  11.660
66184W        W38510  17.469  41.490  11.472
66185W        W38511  19.173  14.283  12.443
66186W        W38512  33.619   0.258   0.280
66187W        W38513  34.969   9.834   0.128
66188W        W38514  40.288  40.447  11.248
66189W        W38515  30.274  25.276  14.434
66190W        W38516  19.692   0.840  14.374
66191W        W38517   2.519  10.464   0.802
66192W        W38518  39.765  44.777  10.698
66193W        W38519  13.596  20.295  14.982
66194W        W38520  20.265  25.785  10.814
66195W        W38521  42.820  15.572  13.040
66196W        W38522  22.561  24.117  14.449
66197W        W38523  24.259   4.386   3.096
66198W        W38524  25.030  29.123   2.914
66199W        W38525  31.022  14.437   1.397
66200W        W38526   1.783  10.143  11.091
66201W        W38527   2.173  13.516   2.349
66202W        W38528  12.742   2.692   0.677
66203W        W38529   7.443  10.300   0.302
66204W        W38530  15.711  11.210   2.670
66205W        W38531  19.774  23.622  11.619
66206W        W38532  37.628  35.269   3.138
66207W        W38533   7.942  42.762   1.326
66208W        W38534   9.585   9.428   2.967
66209W        W38535  16.310   5.938  12.899
66210W        W38536  40.806   6.666   3.263
66211W        W38537   6.865   6.667  12.671
66212W        W38538  11.846  27.935   5.012
66213W        W38539  31.717  15.731   4.523
66214W        W38540  13.269  14.919  14.960
66215W        W38541  34.895   3.474   2.262
66216W        W38542  42.332  34.051   2.687
66217W        W38543  37.501  12.193  10.050
66218W        W38544   0.094  10.253   2.767
66219W        W38545  25.178  21.792   2.309
66220W        W38546  32.248  14.260  10.493
66221W        W38547  26.125   1.675  14.246
66222W        W38548  31.529   7.370   0.236
66223W        W38549  20.167  10.092   0.397
66224W        W38550  38.476  32.574   2.767
66225W        W38551  22.951   1.889  11.142
66226W        W38552  43.789  30.584   3.104
66227W        W38553  17.587  38.300  12.977
66228W        W38554  20.213  15.939   5.068
66229W        W38555   3.905  31.076  11.950
66230W        W38556  14.892  38.104  14.887
66231W        W38557  19.012  20.785   0.010
66232W        W38558   2.809   1.464   3.243
66233W        W38559  41.866  34.701  12.981
66234W        W38560  42.592  32.037   4.308
66235W        W38561  36.453  12.647   1.326
66236W        W38562  29.654   7.417  11.091
66237W        W38563  12.584  35.096   4.895
66238W        W38564  27.621  27.712   3.167
66239W        W38565   2.094  10.301   3.643
66240W        W38566  37.867  37.418   2.478
66241W        W38567  10.309  18.704   1.816
66242W        W38568  25.721   4.331  13.996
66243W        W38569  30.416  32.677   0.018
66244W        W38570   3.430  37.837  14.660
66245W        W38571   0.308  12.062   1.706
66246W        W38572  31.917  12.540   1.078
66247W        W38573  11.885  30.011   4.590
66248W        W38574  44.441  12.292   0.229
66249W        W38575  20.772  10.957  14.063
66250W        W38576  40.985  31.961   1.020
66251W        W38577   3.911   2.798   4.547
66252W        W38578  29.105   2.515   0.755
66253W        W38579  15.056  41.781   0.705
66254W        W38580  16.230  16.014   1.698
66255W        W38581  39.030   2.397  12.897
66256W        W38582  34.084   7.864   1.145
66257W        W38583  41.144  30.556   1.286
66258W        W38584  33.838  19.110  13.600
66259W        W38585  41.112  43.763   2.291
66260W        W38586  27.400  18.249  12.335
66261W        W38587  33.567   1.348  12.563
66262W        W38588  21.666   5.170   0.446
66263W        W38589  38.577  32.673   4.221
66264W        W38590  43.318  33.934  11.431
66265W        W38591  35.893   3.195   0.446
66266W        W38592  12.321   0.984   0.448
66267W        W38593   0.316  26.246  14.810
66268W        W38594  41.515  10.929   3.174
66269W        W38595  15.047  44.317   2.674
66270W        W38596  22.208   7.474   2.723
66271W        W38597  13.601  39.582  12.946
66272W        W38598  15.274  26.470   1.862
66273W        W38599   0.229   8.237  12.593
66274W        W38600  35.965   5.263  11.211
66275W        W38601  39.452  10.040  13.494
66276W        W38602  10.290  16.613  12.484
66277W        W38603  36.491  16.737  12.757
66278W        W38604  38.960  31.570   5.052
66279W        W38605  22.596   0.450  14.367
66280W        W38606  23.290  33.085  13.436
66281W        W38607   2.056  19.814  12.898
66282W        W38608   9.963  39.779  12.430
66283W        W38609   5.430   8.873   3.599
66284W        W38610  16.263  18.739   4.390
66285W        W38611  44.005  30.493   1.247
66286W        W38612  41.695   1.889  14.085
66287W        W38613  37.554  14.415   3.645
66288W        W38614  31.013  11.050   4.375
66289W        W38615  21.622  42.515   1.812
66290W        W38616  32.611   4.870   0.399
66291W        W38617  39.306  40.890   4.678
66292W        W38618  10.910   5.747   2.034
66293W        W38619  32.566  23.192  10.901
66294W        W38620  35.457  18.988   2.699
66295W        W38621  43.430  18.671  13.816
66296W        W38622   4.514  30.062  12.588
66297W        W38623  32.940  37.577  10.157
66298W        W38624  41.791  16.757   0.640
66299W        W38625  16.527  12.755  12.595
66300W        W38626  36.063  39.086   4.214
66301W        W38627  35.863  32.383   3.248
66302W        W38628  24.634  35.367   4.238
66303W        W38629  37.503  17.180   0.731
66304W        W38630  16.741  13.699   3.706
66305W        W38631  39.978  10.572   2.252
66306W        W38632  10.854  30.022  12.404
66307W        W38633  31.136  33.500  12.469
66308W        W38634  18.226  27.328  11.623
66309W        W38635  17.988  26.793   3.223
66310W        W38636  34.651  32.901   5.221
66311W        W38637  31.906  44.864   2.550
66312W        W38638  16.649  18.140   0.003
66313W        W38639  15.561  27.918   2.306
66314W        W38640  20.054  16.337   2.794
66315W        W38641  37.714  31.069   4.601
66316W        W38642  23.684  20.574  10.765
66317W        W38643  31.640  12.569   3.196
66318W        W38644   3.196  20.144  11.056
66319W        W38645  20.608  26.028  12.376
66320W        W38646  32.445  37.671  13.059
66321W        W38647   4.507  12.619   1.958
66322W        W38648  40.463  39.406  10.436
66323W        W38649  16.821  39.509  11.408
66324W        W38650  29.574  22.746   4.168
66325W        W38651  34.035   1.346   2.230
66326W        W38652  27.895  29.961   4.833
66327W        W38653   4.200  29.770   2.432
66328W        W38654  21.294  10.294  12.376
66329W        W38655  22.299  34.861  14.075
66330W        W38656  44.536   7.167  14.852
66331W        W38657  21.545  14.750  14.775
66332W        W38658  37.868  38.064   0.713
66333W        W38659  36.542  16.281  11.451
66334W        W38660  30.596  35.548  14.712
66335W        W38661  37.739  19.611   5.095
66336W        W38662  30.566  12.766  11.155
66337W        W38663   5.471  41.585   3.269
66338W        W38664  37.033   1.863   4.863
66339W        W38665   3.234  26.212  14.781
66340W        W38666  12.115  18.089  14.895
66341W        W38667  43.405  36.900  14.173
66342W        W38668  27.223  43.457  12.942
66343W        W38669  34.093  21.245  12.922
66344W        W38670  40.968   9.415  11.573
66345W        W38671  11.968  39.490   2.874
66346W        W38672  18.975  30.922   4.195
66347W        W38673  37.961   8.058   3.469
66348W        W38674  39.975  13.357   0.848
66349W        W38675  11.000  10.144  12.451
66350W        W38676   2.838   9.948   3.983
66351W        W38677  33.987  25.614  11.208
66352W        W38678   0.742  26.717   0.483
66353W        W38679  42.294  41.694   4.803
66354W        W38680  27.696  36.899  11.380
66355W        W38681   6.963  10.152  12.845
66356W        W38682  21.569  38.093   4.129
66357W        W38683  13.086  41.804  12.521
66358W        W38684  12.720  25.511  12.017
66359W        W38685  27.173  42.805  10.730
66360W        W38686  16.431  12.184  13.591
66361W        W38687  12.964  39.303   0.719
66362W        W38688  16.156  34.323  12.916
66363W        W38689  14.322  13.248  14.294
66364W        W38690  14.097  10.610   3.700
66365W        W38691  18.115  12.276   4.909
66366W        W38692  30.622   1.455   2.305
66367W        W38693  17.042   2.636  14.509
66368W        W38694  17.575  10.770   1.975
66369W        W38695  36.021  12.103  11.633
66370W        W38696  27.460  30.549   1.314
66371W        W38697   1.892   1.382   4.155
66372W        W38698   2.980  18.714  11.277
66373W        W38699  13.072  11.214  12.859
66374W        W38700  31.533   8.983   0.948
66375W        W38701  29.411  15.634  14.335
66376W        W38702  37.746  37.728  12.881
66377W        W38703  10.638  37.849  12.928
66378W        W38704   8.449  17.162   0.030
66379W        W38705   5.393  17.657   3.202
66380W        W38706   9.736  39.319   0.817
66381W        W38707   4.711   4.902  14.452
66382W        W38708   5.407   9.007  13.159
66383W        W38709  21.341  35.430  14.034
66384W        W38710  24.363  26.049  14.964
66385W        W38711  26.590  32.665  12.481
66386W        W38712  10.103  21.915   1.162
66387W        W38713  42.384   7.160   0.319
66388W        W38714   7.005  39.371   2.859
66389W        W38715  26.671  37.496  12.336
66390W        W38716  11.987  35.085   4.099
66391W        W38717   2.400  33.439   0.350
66392W        W38718  27.896   3.702  14.811
66393W        W38719   8.738  39.775  11.622
66394W        W38720  42.488   1.770  12.068
66395W        W38721  16.604  37.942  14.496
66396W        W38722  28.144   3.833   0.866
66397W        W38723  37.606  14.341  14.852
66398W        W38724   0.039  22.432  11.055
66399W        W38725  28.656  40.326   2.211
66400W        W38726  20.938  42.862  12.431
66401W        W38727  11.186  37.486   2.711
66402W        W38728  16.680  17.821  13.150
66403W        W38729   4.250  16.297  13.486
66404W        W38730   3.319  29.396  10.680
66405W        W38731   7.296   0.300   4.108
66406W        W38732  42.090   2.269  12.911
66407W        W38733  34.200  40.801  12.915
66408W        W38734   1.549  43.942   4.140
66409W        W38735  43.783  35.866  11.193
66410W        W38736  30.170  35.830  14.925
66411W        W38737  26.789  42.276  13.638
66412W        W38738  40.446  26.662   4.621
66413W        W38739  20.980  38.646   4.770
66414W        W38740  39.845  41.408  12.352
66415W        W38741  38.634  27.106  12.834
66416W        W38742  39.993  27.170   2.325
66417W        W38743  43.576  26.486  13.064
66418W        W38744   5.967  11.826  12.471
66419W        W38745  41.291  36.964  12.016
66420W        W38746   0.446  33.439  10.362
66421W        W38747  14.195  42.861   3.119
66422W        W38748  26.246   7.873  11.393
66423W        W38749  15.164  40.189   2.814
66424W        W38750  14.312   9.613  11.562
66425W        W38751  22.654  40.372   0.498
66426W        W38752   9.417   6.116  13.540
66427W        W38753  34.321  15.016   4.107
66428W        W38754  40.940  14.611  13.847
66429W        W38755  32.058   1.899   0.265
66430W        W38756  10.745  11.875   2.904
66431W        W38757  26.564  41.846   4.269
66432W        W38758   1.185  38.530   0.407
66433W        W38759   7.492  40.554  11.085
66434W        W38760  37.706  11.846   9.733
66435W        W38761  31.077  42.006  13.447
66436W        W38762  27.744  17.720   2.169
66437W        W38763  24.483  19.515   1.138
66438W        W38764  43.841  27.605   1.483
66439W        W38765  43.712  37.352   4.631
66440W        W38766  31.663   5.294   2.179
66441W        W38767   6.937  28.036  13.213
66442W        W38768  42.531  36.298  10.860
66443W        W38769  37.841  29.464   3.119
66444W        W38770  27.728  27.700  14.769
66445W        W38771  36.581  11.671  14.477
66446W        W38772  14.737  35.371   3.292
66447W        W38773  35.038   4.796  10.753
66448W        W38774  40.309  29.941   4.624
66449W        W38775  31.599  18.144  14.611
66450W        W38776  35.574  17.274   2.207
66451W        W38777   8.336  12.794  13.402
66452W        W38778  36.558   5.225   3.730
66453W        W38779  22.124  12.183   0.051
66454W        W38780  22.552  12.664  10.543
66455W        W38781  21.490  35.221  12.836
66456W        W38782   9.455  43.522  14.758
66457W        W38783  19.492  29.122  13.151
66458W        W38784  39.537  43.293   0.592
66459W        W38785   1.879   4.312   1.191
66460W        W38786  24.777  23.834  13.316
66461W        W38787  28.098  30.892   0.775
66462W        W38788  20.036  35.420  13.500
66463W        W38789   8.814  23.445   1.720
66464W        W38790  38.877  30.487  12.032
66465W        W38791  16.582  40.038  14.493
66466W        W38792  23.125  36.021  14.759
66467W        W38793  21.798  22.492   2.255
66468W        W38794  28.139  26.303  10.783
66469W        W38795  39.069  11.677   3.239
66470W        W38796  36.422   1.300   0.660
66471W        W38797  35.619  17.681   1.868
66472W        W38798   5.812  24.491  12.103
66473W        W38799  34.119  39.044   0.736
66474W        W38800  34.557  23.542   3.574
66475W        W38801  30.026  16.779  13.051
66476W        W38802  28.132  15.063   4.584
66477W        W38803  13.928  26.128   5.545
66478W        W38804   6.960  43.288   1.440
66479W        W38805  25.386  26.125  10.870
66480W        W38806   5.381  18.875  14.891
66481W        W38807  20.291  41.323  11.109
66482W        W38808   7.643  26.663  12.593
66483W        W38809  32.457  38.378   2.353
66484W        W38810   9.745  13.148   1.707
66485W        W38811  12.103  43.787  14.219
66486W        W38812  44.750   8.696   3.314
66487W        W38813  37.131   4.824  12.449
66488W        W38814  41.572  22.703   3.777
66489W        W38815  43.874   5.869  14.851
66490W        W38816  26.936  21.658  12.920
66491W        W38817  14.690  31.016  12.987
66492W        W38818  14.828  38.752   0.363
66493W        W38819  43.305  21.183   0.705
66494W        W38820   2.929  14.273   2.823
66495W        W38821  36.040  17.732   3.636
66496W        W38822  12.218  25.398   2.788
66497W        W38823   0.377  39.988  14.591
66498W        W38824  40.561  31.887   3.772
66499W        W38825  43.744  20.604  12.082
66500W        W38826  26.782  34.393  13.102
66501W        W38827  14.824  25.739   5.590
66502W        W38828  35.168  24.991  11.643
66503W        W38829  30.914  23.308   3.183
66504W        W38830  25.990   9.536  14.588
66505W        W38831  31.058  43.259   0.311
66506W        W38832  25.904  27.542  12.373
66507W        W38833  42.313  39.823   0.300
66508W        W38834  21.535  17.542  14.428
66509W        W38835  19.298  25.014  13.836
66510W        W38836  32.551  42.908   2.642
66511W        W38837  27.442   1.042   2.437
66512W        W38838   5.934  37.732   4.228
66513W        W38839  26.965  18.554   2.173
66514W        W38840  30.858  38.271  14.478
66515W        W38841  30.216  23.951  12.453
66516W        W38842  38.403  30.081  14.480
66517W        W38843  13.447  14.897  11.633
66518W        W38844  40.753  44.397   3.863
66519W        W38845  43.748  25.136  13.422
66520W        W38846  29.422  10.167  13.527
66521W        W38847  30.194   8.349  13.428
66522W        W38848  39.048  11.426  10.476
66523W        W38849  33.694  25.090  12.980
66524W        W38850  27.885  16.877   1.808
66525W        W38851  44.232  43.364   0.990
66526W        W38852   9.811  43.795   3.691
66527W        W38853  29.932   6.048  11.243
66528W        W38854  32.933  25.057  14.390
66529W        W38855   5.341   2.721   0.750
66530W        W38856  32.427  33.492   4.648
66531W        W38857  20.006  30.633   0.672
66532W        W38858  41.510  43.073  10.488
66533W        W38859  24.783  32.147  12.444
66534W        W38860   4.292   9.332  10.855
66535W        W38861  27.219  34.972   2.694
66536W        W38862  22.207  36.270  10.790
66537W        W38863  29.891  44.468   3.165
66538W        W38864  14.390  24.067  12.866
66539W        W38865  33.073  14.800  13.486
66540W        W38866  29.626  39.994   4.819
66541W        W38867  42.765  31.896   0.279
66542W        W38868  25.382  34.687  12.517
66543W        W38869  39.372  36.407  12.836
66544W        W38870  29.125   1.728   4.736
66545W        W38871  20.619   6.253   2.753
66546W        W38872  14.016  23.982   4.980
66547W        W38873  35.408   1.211   1.438
66548W        W38874  19.174  41.136  10.579
66549W        W38875  17.744  16.809  14.521
66550W        W38876  43.477   7.789  14.878
66551W        W38877  18.101  24.440  12.788
66552W        W38878  27.911  30.581   0.403
66553W        W38879  26.433  32.970   4.595
66554W        W38880  18.173  43.441   3.561
66555W        W38881  15.000  43.896  11.595
66556W        W38882  15.271  39.499   0.627
66557W        W38883  19.285  20.728  12.185
66558W        W38884  11.259  36.962   1.467
66559W        W38885   8.265  42.500   0.676
66560W        W38886  32.374  27.498   2.357
66561W        W38887  44.268  19.734   2.175
66562W        W38888  12.594  13.747   1.056
66563W        W38889  44.530   4.895   0.498
66564W        W38890  23.164  19.710  10.674
66565W        W38891  28.105  29.434  11.786
66566W        W38892  35.476  25.747  14.789
66567W        W38893   5.084  42.078   0.460
66568W        W38894  13.746  26.193  12.110
66569W        W38895  10.436  30.957  10.664
66570W        W38896   3.782  41.081  10.512
66571W        W38897  13.559  14.052  11.368
66572W        W38898  27.271  31.553  10.975
66573W        W38899  43.932  29.911   4.355
66574W        W38900   7.695  32.090   2.299
66575W        W38901   6.465  20.114  14.777
66576W        W38902  13.636  36.312  12.984
66577W        W38903  42.932  24.358  11.645
66578W        W38904  25.509  32.430  11.809
66579W        W38905  22.523  40.568  11.498
66580W        W38906   3.932   8.007   2.293
66581W        W38907  17.210  24.593   3.120
66582W        W38908  35.965   2.994  14.950
66583W        W38909  13.282  13.617  13.495
66584W        W38910  18.324  43.389   4.059
66585W        W38911  30.412  43.160  11.630
66586W        W38912  22.515   9.489   2.309
66587W        W38913  42.039   1.859   0.947
66588W        W38914  20.558   7.770   2.387
66589W        W38915  21.496  17.825   0.304
66590W        W38916  22.577  20.133   1.544
66591W        W38917   0.483  21.764   5.007
66592W        W38918   3.894  16.537  13.872
66593W        W38919  35.654   8.162  13.014
66594W        W38920  36.868  34.951  10.678
66595W        W38921  33.381  22.726   0.020
66596W        W38922  37.302  15.777   0.504
66597W        W38923  42.543   8.437  11.030
66598W        W38924  41.524  17.286  11.659
66599W        W38925  12.231  42.473  14.232
66600W        W38926   2.251   5.270  14.014
66601W        W38927  21.745  19.733  14.172
66602W        W38928  35.425   4.060  12.934
66603W        W38929  44.265  42.410   3.083
66604W        W38930  11.845  44.955  12.880
66605W        W38931  32.132  13.674   3.797
66606W        W38932   5.640   7.714   0.468
66607W        W38933  40.762  39.427  13.623
66608W        W38934  25.682  31.510   4.811
66609W        W38935  10.433  34.360   1.884
66610W        W38936  17.355  34.347  11.662
66611W        W38937  14.806  32.507  11.664
66612W        W38938  11.936   6.316   0.677
66613W        W38939  23.313  41.802   3.169
66614W        W38940  30.854  12.148   3.623
66615W        W38941  26.996  38.901  13.880
66616W        W38942   5.040  43.559  12.063
66617W        W38943  24.209  32.996   3.286
66618W        W38944  30.177  14.117   3.657
66619W        W38945   7.786   8.097   3.285
66620W        W38946  18.109   7.006   0.410
66621W        W38947  17.599  19.609   2.825
66622W        W38948  14.730  41.809   1.912
66623W        W38949  34.914  29.238   4.879
66624W        W38950   1.492  26.779   0.782
66625W        W38951  44.822  16.664   0.728
66626W        W38952   6.306  15.706   1.273
66627W        W38953  29.934  10.309  14.943
66628W        W38954  42.329  15.988   0.872
66629W        W38955  19.455   4.442   0.280
66630W        W38956  23.661  28.799  13.294
66631W        W38957   0.350  21.472  11.149
66632W        W38958  20.102  28.867  10.246
66633W        W38959   4.221  36.112   0.915
66634W        W38960  37.377  33.467  13.338
66635W        W38961  33.430  29.985  13.960
66636W        W38962  27.200  28.064  11.190
66637W        W38963  31.555  31.955  11.672
66638W        W38964   0.249  36.477   4.349
66639W        W38965   0.411  41.044   2.768
66640W        W38966  40.950  33.572   1.372
66641W        W38967  37.523   6.366  13.992
66642W        W38968  23.694  38.492   0.915
66643W        W38969   0.280  32.605  14.485
66644W        W38970   4.919  43.778  13.869
66645W        W38971   8.354   1.760   1.365
66646W        W38972  39.884  23.289   3.582
66647W        W38973  35.943  35.477   2.373
66648W        W38974   8.909  32.274  13.385
66649W        W38975   2.323  36.772   2.180
66650W        W38976  40.920  14.033  12.389
66651W        W38977  19.129  22.535   4.213
66652W        W38978   5.318  15.709  11.206
66653W        W38979   1.770   1.756   3.822
66654W        W38980   7.661  23.710   3.593
66655W        W38981   3.060  19.313   0.393
66656W        W38982  29.490  32.597   1.740
66657W        W38983  37.394  21.975  12.515
66658W        W38984  26.962  15.093   2.217
66659W        W38985  43.345  32.597  14.109
66660W        W38986  37.827   4.904   0.163
66661W        W38987  14.821  16.366   4.187
66662W        W38988  11.759  39.477   4.586
66663W        W38989  30.129  21.363   4.653
66664W        W38990  29.820  34.377  11.645
66665W        W38991  16.475  38.024  12.685
66666W        W38992  21.729  37.857   0.451
66667W        W38993  15.863  26.811  11.431
66668W        W38994  42.961  36.385  11.839
66669W        W38995  30.673  39.880   4.557
66670W        W38996  39.583  33.867   3.222
66671W        W38997  43.538  16.532   4.251
66672W        W38998  38.344  43.082   1.756
66673W        W38999  43.540   9.314   1.781
66674W        W39000   5.434  34.535   2.931
66675W        W39001  20.716  12.789  14.840
66676W        W39002  33.343  29.138   2.821
66677W        W39003  39.246  42.010   1.902
66678W        W39004  14.054  37.468   3.927
66679W        W39005  35.564  13.632  12.676
66680W        W39006   7.079   7.327   2.250
66681W        W39007   7.725  44.149   2.682
66682W        W39008  41.781  26.428   4.248
66683W        W39009  27.667  14.162   0.720
66684W        W39010  24.294  22.212   4.331
66685W        W39011  11.316  38.978  13.078
66686W        W39012  23.126  33.148  12.477
66687W        W39013  21.981   1.508  13.836
66688W        W39014  10.277   4.493   1.049
66689W        W39015  30.884  33.072   3.569
66690W        W39016  28.697   6.309  10.114
66691W        W39017  35.842  39.958  14.309
66692W        W39018   3.254  14.356   3.753
66693W        W39019  36.583  12.545  14.023
66694W        W39020   8.220   1.451   0.937
66695W        W39021  30.613  39.313  13.826
66696W        W39022  30.874  38.612  13.483
66697W        W39023  17.785   1.705  14.985
66698W        W39024  26.272  13.600  14.545
66699W        W39025  32.074  14.317   1.211
66700W        W39026  33.702  36.387  10.526
66701W        W39027  44.288  41.124  11.655
66702W        W39028  10.577  18.558   0.879
66703W        W39029   1.953  12.967  12.138
66704W        W39030  21.025   5.192  14.950
66705W        W39031   6.424   1.189   2.539
66706W        W39032  17.589  18.596   1.197
66707W        W39033  26.571  31.947  11.118
66708W        W39034  25.151  12.903  13.037
66709W        W39035   6.688   9.731  11.593
66710W        W39036  22.079  15.315   4.238
66711W        W39037  15.485  34.053  12.608
66712W        W39038  39.585  34.971  12.507
66713W        W39039  13.133  43.705  12.436
66714W        W39040  17.584  18.641  11.453
66715W        W39041  29.261  43.044   3.332
66716W        W39042  26.630   6.296  12.897
66717W        W39043  12.891  39.750  10.436
66718W        W39044   4.265   2.940  14.795
66719W        W39045  26.925  28.047  12.997
66720W        W39046  40.173  23.175  13.322
66721W        W39047  23.484  24.968   4.105
66722W        W39048   6.906   9.189  12.977
66723W        W39049  34.170  36.931  11.110
66724W        W39050  26.071  11.966   3.117
66725W        W39051   0.361  44.921   2.116
66726W        W39052  35.918   9.446   4.548
66727W        W39053  36.859  37.070  11.201
66728W        W39054  32.506  15.047  12.388
66729W        W39055  20.453   4.680  11.976
66730W        W39056  41.577  36.529  12.119
66731W        W39057  30.041  27.181   4.234
66732W        W39058  28.938  21.768  12.433
66733W        W39059   8.803  10.277  13.832
66734W        W39060  12.743  28.244  13.334
66735W        W39061   8.146   2.371  13.927
66736W        W39062  20.565  18.595   0.232
66737W        W39063  25.398  27.519  12.384
66738W        W39064  44.483  43.843   4.672
66739W        W39065  29.356  10.381   0.741
66740W        W39066  16.468   7.725  13.493
66741W        W39067   7.267  12.177  10.728
66742W        W39068  28.985  14.770   2.817
66743W        W39069   1.449  10.087  13.411
66744W        W39070  38.798   4.897  11.682
66745W        W39071  38.543  29.694  13.426
66746W        W39072  14.862  12.654   4.695
66747W        W39073  43.958   7.479  10.782
66748W        W39074   9.154   7.963  12.902
66749W        W39075  17.295  40.091  13.893
66750W        W39076   7.111  23.049  13.359
66751W        W39077  17.696  26.145   0.868
66752W        W39078  17.334  12.771   4.556
66753W        W39079  43.007  11.817   0.346
66754W        W39080   3.448  15.619   4.213
66755W        W39081   7.622   9.722  14.898
66756W        W39082  35.848   5.384   4.449
66757W        W39083  23.916  25.666  11.944
66758W        W39084  19.619  17.799   2.808
66759W        W39085  25.279  18.488   2.959
66760W        W39086  10.357  14.024  14.723
66761W        W39087  22.204  28.219  12.436
66762W        W39088   1.000  41.385   1.871
66763W        W39089  25.753  32.074   2.372
66764W        W39090   2.896  21.326   0.478
66765W        W39091   9.339  16.788  11.449
66766W        W39092  11.319  44.497   1.269
66767W        W39093  40.459  22.015   0.768
66768W        W39094  34.958  20.188   3.575
66769W        W39095  13.342  15.709  11.951
66770W        W39096  34.891  23.462   3.124
66771W        W39097  28.361  21.547   4.079
66772W        W39098  43.817   1.485   4.083
66773W        W39099  40.125  34.894   4.139
66774W        W39100   3.937  12.593   5.113
66775W        W39101  35.044  30.073  14.000
66776W        W39102   2.190  28.069  13.549
66777W        W39103   3.098  36.005   3.578
66778W        W39104   6.729  24.825   0.362
66779W        W39105  14.049  29.086  12.035
66780W        W39106  33.397  31.931  12.507
66781W        W39107   0.315  30.352   2.314
66782W        W39108  21.203  30.211  10.715
66783W        W39109  26.621  31.870  14.106
66784W        W39110  22.702  42.584   0.816
66785W        W39111  25.150   9.253   0.962
66786W        W39112  37.392  41.507   1.200
66787W        W39113  18.192  16.415   0.740
66788W        W39114   0.353  23.200  11.920
66789W        W39115  32.341  39.450   1.480
66790W        W39116  27.981   7.442   2.193
66791W        W39117  17.018  26.410   0.282
66792W        W39118  36.939   5.247  12.994
66793W        W39119  10.746   5.734   4.516
66794W        W39120  27.932  35.564   0.302
66795W        W39121   6.138  17.848  13.564
66796W        W39122  16.207  11.066  12.537
66797W        W39123  15.789  31.844   0.839
66798W        W39124   8.115  15.629   2.155
66799W        W39125  40.959  44.931   1.258
66800W        W39126   7.393  11.140  14.047
66801W        W39127  34.306   6.064   3.346
66802W        W39128  25.427  17.656  12.727
66803W        W39129  11.693  25.448   4.897
66804W        W39130  16.826  40.964   2.889
66805W        W39131  16.295  29.690   1.251
66806W        W39132   8.546  29.121   9.988
66807W        W39133  13.087   4.761  12.844
66808W        W39134  30.085  15.709  12.656
66809W        W39135  20.935   0.861   5.196
66810W        W39136  41.426  31.155  12.836
66811W        W39137  22.737  17.226  14.833
66812W        W39138  25.592  10.115   1.486
66813W        W39139  40.577  14.615  13.468
66814W        W39140  23.174  33.451  14.990
66815W        W39141   9.691  32.517   2.435
66816W        W39142  38.589  44.423   1.555
66817W        W39143  15.637  21.937   4.304
66818W        W39144  10.774  40.827   2.832
66819W        W39145  43.397   4.348  13.589
66820W        W39146   0.180  14.636  11.550
66821W        W39147  17.800  40.202  13.858
66822W        W39148   1.337   2.767  13.564
66823W        W39149   0.721  35.588   4.236
66824W        W39150  29.881  26.556   2.168
66825W        W39151  27.099  12.373   2.243
66826W        W39152  41.943  35.380   0.594
66827W        W39153  19.506  20.645   2.821
66828W        W39154   0.017   6.263  13.817
66829W        W39155   3.567  21.764  11.888
66830W        W39156  43.496  14.095  14.589
66831W        W39157   9.861  26.212   0.425
66832W        W39158   2.190  29.701  12.659
66833W        W39159  34.565  26.133   0.714
66834W        W39160  36.040   0.828  13.860
66835W        W39161   0.720   3.437   1.916
66836W        W39162  37.773  36.543  12.461
66837W        W39163  19.756  10.840   1.140
66838W        W39164   3.966  33.088   3.307
66839W        W39165  43.915   3.501  13.437
66840W        W39166  15.879  16.747  12.619
66841W        W39167  44.874  40.823  14.869
66842W        W39168  40.220  42.810   4.520
66843W        W39169   4.714  37.451   1.817
66844W        W39170  18.096  11.866  11.925
66845W        W39171  21.937   7.351  14.271
66846W        W39172   4.356  43.644  13.890
66847W        W39173   8.865  33.767  13.105
66848W        W39174  44.304   5.255   4.058
66849W        W39175  13.753  21.562  13.965
66850W        W39176  26.208  39.356   1.247
66851W        W39177  29.805  36.997  12.289
66852W        W39178   6.662  25.639  13.691
66853W        W39179  23.955   3.338   4.559
66854W        W39180   0.704  18.052  13.554
66855W        W39181  20.915  18.658   2.228
66856W        W39182  16.059  31.921  14.573
66857W        W39183   9.313   5.417  12.433
66858W        W39184   0.028  19.329  13.709
66859W        W39185   5.179  44.331  13.413
66860W        W39186  33.495  37.923   4.217
66861W        W39187  28.354  17.016  12.999
66862W        W39188  10.558  41.709  10.982
66863W        W39189  22.514  39.027  11.542
66864W        W39190  24.259  43.815   2.234
66865W        W39191  17.800  28.018  13.344
66866W        W39192   5.194   2.849  14.271
66867W        W39193   4.917  19.124   2.862
66868W        W39194  12.413  31.943  11.928
66869W        W39195  14.998  15.708   3.355
66870W        W39196  39.375  20.164  10.678
66871W        W39197  34.297  34.531  12.928
66872W        W39198  44.345  35.034  13.872
66873W        W39199   6.669  15.605  14.738
66874W        W39200  44.355   6.752  12.602
66875W        W39201  35.584  38.777   0.795
66876W        W39202  37.075  15.526  11.902
66877W        W39203  15.741  35.401   3.549
66878W        W39204   8.935   0.756   2.782
66879W        W39205  37.494  32.044   0.610
66880W        W39206  28.709   0.293   2.150
66881W        W39207  13.213  20.025   4.622
66882W        W39208  40.910   1.357   1.477
66883W        W39209  19.803  16.586   4.099
66884W        W39210  12.306   2.937   0.842
66885W        W39211  13.845  24.924  12.832
66886W        W39212  36.492  34.134  10.990
66887W        W39213  43.531   5.634  13.928
66888W        W39214  15.203  32.613  10.817
66889W        W39215  28.417   8.566  11.638
66890W        W39216  31.373  28.484   0.247
66891W        W39217  38.750  18.552  13.532
66892W        W39218  26.169  34.874   2.809
66893W        W39219  38.117  27.002   1.755
66894W        W39220  14.097   1.474  13.915
66895W        W39221  27.105   7.166  14.345
66896W        W39222   2.223  33.970  11.355
66897W        W39223  37.890   6.408   1.434
66898W        W39224  30.219   8.084  14.965
66899W        W39225  43.782  13.365   3.204
66900W        W39226  28.505  30.714  14.768
66901W        W39227  20.191  38.162  14.652
66902W        W39228  35.308  16.742  12.098
66903W        W39229   4.465  37.192  12.993
66904W        W39230  34.518   2.217   4.013
66905W        W39231  11.224  25.440   4.284
66906W        W39232  32.253  19.486   4.970
66907W        W39233  18.783  34.865  13.385
66908W        W39234  10.431  19.844  14.739
66909W        W39235  17.760  19.542  11.182
66910W        W39236  23.316  12.666  14.048
66911W        W39237   3.787  40.834  11.820
66912W        W39238  33.960  17.310   2.434
66913W        W39239   9.309  14.359   0.331
66914W        W39240  21.051  37.010   3.395
66915W        W39241  26.311   0.975   4.674
66916W        W39242  36.319   6.465  11.076
66917W        W39243  44.814  30.084   4.368
66918W        W39244   3.233  44.486  14.003
66919W        W39245  29.533  23.124   2.159
66920W        W39246  22.819  11.114  14.263
66921W        W39247  24.014  32.931  12.956
66922W        W39248   5.439  31.874   4.215
66923W        W39249  27.467  13.899   3.135
66924W        W39250  20.355   8.237  14.526
66925W        W39251   0.777  44.916  13.378
66926W        W39252  10.619  13.310   4.281
66927W        W39253  41.287  37.268   2.029
66928W        W39254  24.505  41.166  10.429
66929W        W39255  15.259  10.733  14.432
66930W        W39256  15.150  38.854  12.992
66931W        W39257  11.635   0.360  10.497
66932W        W39258  39.529  20.125   1.703
66933W        W39259  40.070  27.992  11.266
66934W        W39260  44.325  18.763   2.747
66935W        W39261  11.231  14.317  14.774
66936W        W39262   4.741  42.577  10.548
66937W        W39263  35.514  19.293  12.110
66938W        W39264  25.477  12.363   3.824
66939W        W39265  30.105  10.649   0.311
66940W        W39266   1.175   8.331  12.157
66941W        W39267  43.002   6.265   4.678
66942W        W39268  26.936  39.861  11.067
66943W        W39269  31.738  44.907  13.390
66944W        W39270  20.954  20.776  13.095
66945W        W39271  22.061  16.954   3.223
66946W        W39272  17.696  33.537  14.010
66947W        W39273   4.876  14.564  11.667
66948W        W39274   5.454  44.438   2.405
66949W        W39275  37.898   9.925   4.673
66950W        W39276  43.425  40.359  14.635
66951W        W39277  28.567  16.540   4.128
66952W        W39278  23.277  19.179   1.728
66953W        W39279  37.531   3.682   0.400
66954W        W39280  40.849  11.736  14.344
66955W        W39281  14.155  34.100   2.416
66956W        W39282  42.578   4.922   3.969
66957W        W39283  14.683  29.066  12.441
66958W        W39284  28.464  39.661  14.858
66959W        W39285  36.521   2.939  11.973
66960W        W39286   0.820  19.560   1.798
66961W        W39287  43.289  13.030  14.509
66962W        W39288  14.593  36.118   2.256
66963W        W39289  21.865  30.642   3.657
66964W        W39290  16.638  28.414   3.608
66965W        W39291  26.845  10.927   1.400
66966W        W39292  32.109  28.124   3.260
66967W        W39293  11.251  15.277   2.600
66968W        W39294  33.118   5.144   3.729
66969W        W39295  24.201  25.385  14.318
66970W        W39296  39.392  12.641   1.887
66971W        W39297  20.483  17.537  13.656
66972W        W39298  31.870  18.852  13.361
66973W        W39299  34.953  11.882   2.230
66974W        W39300   9.531  33.050   1.196
66975W        W39301  34.436  12.377   3.742
66976W        W39302  33.627  21.755  14.815
66977W        W39303   1.863  32.168   3.719
66978W        W39304   2.431  11.863   0.605
66979W        W39305  33.501  44.545   2.857
66980W        W39306  17.758  34.061  14.105
66981W        W39307  40.748  29.199   0.709
66982W        W39308  16.721  25.270   2.638
66983W        W39309   9.245  35.659   1.862
66984W        W39310  12.042  29.290   3.983
66985W        W39311   0.447  18.095  14.499
66986W        W39312  31.794  21.841  11.061
66987W        W39313  34.499  40.016  14.321
66988W        W39314  28.892  39.877   4.483
66989W        W39315  33.795  29.629  11.500
66990W        W39316   6.861  38.881   1.978
66991W        W39317  18.500  17.755   4.779
66992W        W39318  12.705   8.996   3.203
66993W        W39319  10.901  40.334   3.906
66994W        W39320   7.863  34.516  13.722
66995W        W39321  24.140  37.996   0.853
66996W        W39322   3.201  11.283  11.592
66997W        W39323   6.876  17.160   1.366
66998W        W39324  28.587  10.382  13.023
66999W        W39325  35.368  14.111  13.929
67000W        W39326  40.523  14.684  14.442
67001W        W39327  19.665   6.133  13.587
67002W        W39328  22.081  43.372   0.235
67003W        W39329  24.280  32.446  12.945
67004W        W39330  31.508  16.804   0.738
67005W        W39331  21.705  12.583  12.500
67006W        W39332  19.596   1.740   2.308
67007W        W39333  35.034  25.522  14.879
67008W        W39334  17.905  30.134  11.636
67009W        W39335  27.187  10.196   1.683
67010W        W39336   6.618   3.905   0.765
67011W        W39337  23.727  35.315  13.065
67012W        W39338  43.749  24.239   0.003
67013W        W39339   5.650  37.410  12.126
67014W        W39340  17.809  30.591   3.742
67015W        W39341  13.719   1.037   3.311
67016W        W39342  27.668  21.400  12.062
67017W        W39343  12.214  26.045   1.436
67018W        W39344  24.942  40.958  14.817
67019W        W39345  40.900  13.062  12.661
67020W        W39346   2.074   8.745  14.007
67021W        W39347   0.910  42.636   4.510
67022W        W39348   7.004   6.185  12.520
67023W        W39349  25.265  24.986  14.366
67024W        W39350  41.555   3.518   1.320
67025W        W39351   7.643   4.695  14.506
67026W        W39352  35.129  31.377   1.853
67027W        W39353  27.559  20.206  11.581
67028W        W39354  37.350   4.726  11.983
67029W        W39355  19.509  24.229  12.922
67030W        W39356  37.103   8.973  10.641
67031W        W39357  30.153  28.724   1.719
67032W        W39358  10.180   4.162   2.880
67033W        W39359   0.425  40.152   1.020
67034W        W39360  35.650   3.251  11.501
67035W        W39361  40.029  34.854   1.704
67036W        W39362  16.575  29.929  12.501
67037W        W39363  34.597  41.805   2.862
67038W        W39364  27.524  24.766  13.112
67039W        W39365  11.074  18.722   1.015
67040W        W39366  20.956  41.033   3.907
67041W        W39367  42.375   9.546   0.351
67042W        W39368  36.577  38.985   2.877
67043W        W39369  20.734  44.864   1.728
67044W        W39370  36.819  44.547   1.104
67045W        W39371  28.211  31.764  10.684
67046W        W39372  40.578  41.561   2.421
67047W        W39373  30.636   8.285   5.011
67048W        W39374   2.146  35.763   2.338
67049W        W39375  44.057  19.085   1.317
67050W        W39376  38.824  30.667  11.146
67051W        W39377  19.820  37.572   2.479
67052W        W39378  37.167  39.504  11.007
67053W        W39379  13.740  23.756   4.574
67054W        W39380   5.193   2.332   2.692
67055W        W39381   0.541  26.053  11.607
67056W        W39382  22.585   7.902   0.678
67057W        W39383  21.328  41.542  10.451
67058W        W39384  14.063  16.659   4.154
67059W        W39385  41.890   2.744  11.936
67060W        W39386  27.670  33.654   2.382
67061W        W39387  44.041  40.605  12.403
67062W        W39388  34.468   9.391  13.905
67063W        W39389   9.652  39.918   3.627
67064W        W39390   4.425  36.201  12.785
67065W        W39391  11.281  13.890   1.809
67066W        W39392  21.881  11.876  13.932
67067W        W39393  25.439  30.326  13.398
67068W        W39394  35.913  44.781  12.568
67069W        W39395  39.845  30.450  13.093
67070W        W39396  31.568  17.033   1.207
67071W        W39397  14.319  29.169   0.315
67072W        W39398  15.703   4.820   3.275
67073W        W39399  31.176  39.874   0.970
67074W        W39400   7.323  28.122   1.802
67075W        W39401  25.944  37.995  14.481
67076W        W39402  37.947   2.977  12.032
67077W        W39403  43.270  38.122  11.586
67078W        W39404  14.533  24.930  12.695
67079W        W39405  32.662  33.324   0.300
67080W        W39406  21.516  30.096  12.019
67081W        W39407   2.196  33.907   0.416
67082W        W39408  27.018  40.705   3.760
67083W        W39409  38.078  24.101  10.669
67084W        W39410  38.085  19.552  14.012
67085W        W39411  20.579  30.202   4.032
67086W        W39412  23.208  27.539   1.911
67087W        W39413  29.718  32.123   1.849
67088W        W39414  34.824  13.664   3.786
67089W        W39415  28.543  41.572   4.501
67090W        W39416  10.408   2.246  13.443
67091W        W39417  25.457   4.663  13.651
67092W        W39418  13.804  17.547   4.180
67093W        W39419  24.010  44.773   2.592
67094W        W39420  39.311  24.015  12.166
67095W        W39421   2.712  17.251  14.400
67096W        W39422   7.315  30.369   0.167
67097W        W39423   7.604  37.079   2.256
67098W        W39424   8.669  12.157  14.945
67099W        W39425  15.631  21.301   0.885
67100W        W39426  22.704  29.357  11.517
67101W        W39427  22.574  36.420   2.313
67102W        W39428  33.136  29.889   0.027
67103W        W39429  34.041  20.490   2.202
67104W        W39430  17.203  19.041   3.239
67105W        W39431  15.571  14.229  13.923
67106W        W39432  25.012  18.723   3.325
67107W        W39433  24.635  38.364   4.974
67108W        W39434   7.294  22.236   3.426
67109W        W39435  20.767  39.998   4.114
67110W        W39436  27.907  22.681   5.065
67111W        W39437  43.545  10.572   4.152
67112W        W39438  20.525  18.248   3.364
67113W        W39439  43.493  12.103  14.280
67114W        W39440   4.381  12.892   0.378
67115W        W39441  13.796   9.215  13.908
67116W        W39442  33.932  10.197   1.429
67117W        W39443  40.299   1.346   0.257
67118W        W39444  21.867   4.022  12.142
67119W        W39445  37.340  29.163   4.321
67120W        W39446  27.942  11.418   3.586
67121W        W39447  11.060  12.831   1.866
67122W        W39448  16.069  14.211   0.428
67123W        W39449  13.085   2.728  13.355
67124W        W39450  13.123  10.068  11.882
67125W        W39451  41.576   0.794  10.671
67126W        W39452   2.987   4.211  12.898
67127W        W39453  34.878  37.969  13.915
67128W        W39454  33.840  11.988   3.907
67129W        W39455  40.525  17.468   2.804
67130W        W39456  38.984  31.392   0.060
67131W        W39457  15.820   1.691   4.449
67132W        W39458  14.709  12.889  13.346
67133W        W39459   1.822  10.279  13.117
67134W        W39460  24.211  37.988  11.559
67135W        W39461  32.032   8.409   1.667
67136W        W39462   0.433   5.483   4.529
67137W        W39463  19.720   0.471  11.461
67138W        W39464   0.349  24.626   0.864
67139W        W39465  16.911  42.913   0.720
67140W        W39466  43.792  40.576   2.446
67141W        W39467   7.448  39.844  14.812
67142W        W39468  24.077  31.683  12.325
67143W        W39469  42.105  32.344  13.365
67144W        W39470  36.386   4.020  12.347
67145W        W39471  15.595   9.923   0.429
67146W        W39472  19.840  13.660   1.332
67147W        W39473  41.824  28.739  12.216
67148W        W39474  19.120  28.649  12.009
67149W        W39475   2.456  44.361  11.504
67150W        W39476  27.964  18.070  13.765
67151W        W39477  34.624  44.723   1.478
67152W        W39478  19.128  18.752  12.948
67153W        W39479   0.714  27.987  10.095
67154W        W39480   8.807  39.549   2.739
67155W        W39481  22.745  40.563   1.385
67156W        W39482  39.171  36.919   3.165
67157W        W39483  18.785  28.623   0.541
67158W        W39484  37.593  16.323  14.245
67159W        W39485  24.103  33.347   2.412
67160W        W39486  32.779   0.726  11.455
67161W        W39487  37.565  38.512  13.449
67162W        W39488  21.730  27.414  13.449
67163W        W39489  10.037  38.871  10.322
67164W        W39490   0.239  26.098   4.944
67165W        W39491  30.327  28.072  13.373
67166W        W39492  11.264  25.641   2.791
67167W        W39493  44.619  14.829   2.634
67168W        W39494  13.709  23.071  11.477
67169W        W39495  28.747  27.006  13.919
67170W        W39496   6.334  38.510  11.975
67171W        W39497  27.615  27.630   0.679
67172W        W39498  30.195  11.908  12.099
67173W        W39499  33.662  12.189   1.422
67174W        W39500  16.204  12.719   0.961
67175W        W39501  40.610   8.080   1.293
67176W        W39502  23.032  39.892   3.823
67177W        W39503  22.135  18.280   1.234
67178W        W39504   7.361   5.494   3.691
67179W        W39505  24.979  29.858   1.307
67180W        W39506   0.868  41.381   0.550
67181W        W39507  13.730  31.963  11.845
67182W        W39508  25.063  35.281   2.965
67183W        W39509  29.156  16.167  14.992
67184W        W39510   0.928  35.694  12.368
67185W        W39511  21.034  25.814   4.150
67186W        W39512  11.964   8.935  14.986
67187W        W39513   4.697   7.923  11.896
67188W        W39514  21.833  34.718   3.824
67189W        W39515   1.670  12.082  12.001
67190W        W39516  12.346  19.120   0.770
67191W        W39517   2.263   9.365  14.555
67192W        W39518  30.505  40.387   3.470
67193W        W39519   7.851  16.130   4.708
67194W        W39520  16.977  16.308  11.612
67195W        W39521  11.205  19.896   2.701
67196W        W39522   4.879  34.328   4.830
67197W        W39523  37.504  39.576  10.627
67198W        W39524  17.565  17.706  11.422
67199W        W39525  37.385  18.899  13.666
67200W        W39526  25.138  10.890   1.174
67201W        W39527  31.864  16.666  10.814
67202W        W39528  32.978  24.667  13.987
67203W        W39529   8.801  12.355   0.841
67204W        W39530  37.679   3.863  14.385
67205W        W39531  40.569   6.712   2.397
67206W        W39532  11.859  35.312   4.591
67207W        W39533  33.912  37.071   2.858
67208W        W39534  39.557  38.304   1.926
67209W        W39535  24.100   3.078   1.900
67210W        W39536   5.762   7.188   4.185
67211W        W39537   5.866  41.214   4.507
67212W        W39538   7.338   2.213   2.325
67213W        W39539  11.722  30.196   3.301
67214W        W39540  20.733  21.296   1.921
67215W        W39541  29.182  15.816  13.040
67216W        W39542  32.616  20.898   0.123
67217W        W39543  12.780  37.153   1.986
67218W        W39544   9.867  18.547  12.122
67219W        W39545  35.412  39.078  13.437
67220W        W39546   6.221   8.292  10.732
67221W        W39547  19.574  40.814   0.420
67222W        W39548  17.250  17.364   2.612
67223W        W39549  13.375  15.867   5.006
67224W        W39550   4.906   9.933  11.355
67225W        W39551   4.713  39.087  11.164
67226W        W39552  43.255  13.034   9.900
67227W        W39553  28.412  35.824   3.994
67228W        W39554  17.064  24.554   1.757
67229W        W39555   1.924  44.928  14.427
67230W        W39556  27.504  44.805   4.265
67231W        W39557  27.443   3.389  11.822
67232W        W39558   2.916  40.495  13.389
67233W        W39559   6.820  30.222   3.856
67234W        W39560  31.982  38.852  10.663
67235W        W39561  21.282  21.608   2.298
67236W        W39562   0.791  17.192  13.305
67237W        W39563  11.441  28.551  11.572
67238W        W39564  39.845  12.699   4.545
67239W        W39565  29.606  43.313  14.097
67240W        W39566  38.179   7.765   2.181
67241W        W39567  42.382  40.777   0.687
67242W        W39568  20.643  38.301  13.309
67243W        W39569  21.748  11.742  13.442
67244W        W39570  21.432   4.220  12.819
67245W        W39571  36.071  10.722  14.415
67246W        W39572  14.790  17.853   2.345
67247W        W39573  14.001  40.339   1.491
67248W        W39574  19.738  29.518  13.393
67249W        W39575  31.946  40.928   0.247
67250W        W39576  32.083  24.976  11.283
67251W        W39577  20.069   6.987  12.082
67252W        W39578   2.813   8.417  11.469
67253W        W39579  23.033  28.738   2.563
67254W        W39580  11.648  23.015  13.486
67255W        W39581   5.079  40.125  12.952
67256W        W39582  32.554  20.985  12.048
67257W        W39583   4.458   1.706  13.308
67258W        W39584  11.677   7.733   0.337
67259W        W39585  43.326   3.749   2.821
67260W        W39586  44.703  22.050  11.050
67261W        W39587  25.700  15.179   5.491
67262W        W39588   2.376  29.697  10.288
67263W        W39589  33.611  38.275  14.800
67264W        W39590  10.287  42.092  13.545
67265W        W39591  31.457  26.497   4.844
67266W        W39592   7.446  29.675  13.462
67267W        W39593   1.312  36.068  12.438
67268W        W39594  19.634   7.931  10.655
67269W        W39595  28.699  38.452  11.456
67270W        W39596  27.005  43.864  11.125
67271W        W39597   2.992  21.825  10.190
67272W        W39598  17.792  19.251  14.501
67273W        W39599  28.469  30.613  13.628
67274W        W39600  33.959  36.558  13.486
67275W        W39601  11.133  42.343  12.055
67276W        W39602  31.362  32.391   0.934
67277W        W39603  16.452  27.452   0.003
67278W        W39604  27.799   6.384   1.323
67279W        W39605  42.810  43.887  11.925
67280W        W39606   5.230  19.274   1.246
67281W        W39607   8.222  34.188  11.611
67282W        W39608  31.283  35.186  13.991
67283W        W39609  37.994  32.155   0.747
67284W        W39610  22.550  38.938  13.216
67285W        W39611  35.892  15.730   1.031
67286W        W39612  29.480  36.400   0.923
67287W        W39613  27.370  13.018   0.001
67288W        W39614  39.810  32.662   2.854
67289W        W39615  40.104  26.915   0.838
67290W        W39616   0.472  40.600  12.492
67291W        W39617  28.766  22.960  11.108
67292W        W39618   6.219  36.236   0.294
67293W        W39619  36.185  30.249   0.714
67294W        W39620  34.415  19.323   2.161
67295W        W39621  16.682   9.763  13.609
67296W        W39622  32.973  37.398   1.315
67297W        W39623  19.222  15.652   0.227
67298W        W39624   9.576   3.245  14.357
67299W        W39625  26.048  37.187   0.309
67300W        W39626  34.779  15.805  10.789
67301W        W39627  25.725  26.586  14.311
67302W        W39628   9.323   6.447   2.908
67303W        W39629  19.523  28.520  12.322
67304W        W39630  12.056  30.244  13.793
67305W        W39631   6.738  10.868  14.586
67306W        W39632  35.555  14.994  11.467
67307W        W39633  27.581   1.498   4.726
67308W        W39634   3.920  32.512  14.842
67309W        W39635  17.318  11.253  13.549
67310W        W39636   3.497   4.354  12.836
67311W        W39637  20.502  43.850   1.803
67312W        W39638  16.644  38.162  14.028
67313W        W39639  18.226  13.836  13.956
67314W        W39640  19.990  20.539  11.505
67315W        W39641  34.340  16.343   1.438
67316W        W39642  20.246  31.808   4.716
67317W        W39643   5.191  28.368   3.658
67318W        W39644  17.870  37.869  13.145
67319W        W39645  10.521  11.075  11.938
67320W        W39646  17.865   6.155   0.629
67321W        W39647  44.763   1.184  13.579
67322W        W39648  34.908  11.836   1.275
67323W        W39649   8.538  40.032  11.208
67324W        W39650   2.819  35.480   0.819
67325W        W39651  11.349   7.677   3.846
67326W        W39652  37.275  25.928  12.538
67327W        W39653  32.978  12.814   4.479
67328W        W39654  34.425   6.624   2.139
67329W        W39655   3.229  44.660   1.349
67330W        W39656   6.810   8.633   1.657
67331W        W39657  27.447  28.965   4.996
67332W        W39658  11.591  44.894  11.079
67333W        W39659  39.907  19.649  11.626
67334W        W39660  29.636  19.103  14.778
67335W        W39661  32.131  14.738  13.472
67336W        W39662  12.405  18.173   3.324
67337W        W39663  15.813  36.313   4.130
67338W        W39664  20.780   7.411  11.197
67339W        W39665  42.860  24.679   0.455
67340W        W39666   2.706  11.734   0.181
67341W        W39667  29.668  20.686   4.977
67342W        W39668  17.414  43.075   0.665
67343W        W39669  13.782  42.497   4.248
67344W        W39670  23.444   5.391  12.991
67345W        W39671  28.003   4.632   0.388
67346W        W39672   5.680  42.983   0.950
67347W        W39673  20.462  27.627  11.118
67348W        W39674  40.882  20.769   4.764
67349W        W39675  16.127  41.514   1.434
67350W        W39676  43.867  44.526   4.541
67351W        W39677  19.500   5.619  12.937
67352W        W39678  26.011  33.042  10.634
67353W        W39679  43.055  29.925   3.279
67354W        W39680  24.138   3.610  11.503
67355W        W39681   3.297   8.294  14.295
67356W        W39682  28.354  10.291   2.923
67357W        W39683   9.928  27.621  14.933
67358W        W39684  15.200   2.861  13.494
67359W        W39685  11.653  36.846   4.611
67360W        W39686  41.808  31.550  10.700
67361W        W39687   3.190   5.341   3.519
67362W        W39688   2.722  12.386  12.476
67363W        W39689   8.492   8.843   2.216
67364W        W39690  32.464   9.143  10.683
67365W        W39691  13.753   9.724  14.039
67366W        W39692  21.959  44.061  13.048
67367W        W39693  19.160  38.093   0.365
67368W        W39694  13.589  14.249   2.195
67369W        W39695  41.630  20.765  12.114
67370W        W39696  14.905  26.115  11.283
67371W        W39697   8.914  39.852   0.648
67372W        W39698  25.976  42.320  14.771
67373W        W39699  21.203   6.396  10.305
67374W        W39700  42.411   9.856  13.846
67375W        W39701  35.042   1.218  11.493
67376W        W39702  30.139  39.112  13.866
67377W        W39703  11.504  10.353  14.550
67378W        W39704  18.278  21.440  12.056
67379W        W39705  32.988   3.416  14.301
67380W        W39706   8.676  22.043  12.108
67381W        W39707  33.570   7.199  11.080
67382W        W39708  16.656   4.479  13.029
67383W        W39709  33.557  12.528  14.132
67384W        W39710  36.790   5.178  11.237
67385W        W39711  43.076  36.505   3.692
67386W        W39712  38.322  13.797   4.425
67387W        W39713  17.207  13.035   3.165
67388W        W39714  21.195   1.547   1.897
67389W        W39715  34.812  37.775   3.619
67390W        W39716   2.222  44.076  11.880
67391W        W39717  31.219  39.892   4.607
67392W        W39718  19.630  34.377  12.960
67393W        W39719   3.736  35.452  12.006
67394W        W39720  44.543  12.357  12.332
67395W        W39721  17.136  23.552  11.501
67396W        W39722  44.197   9.882  12.525
67397W        W39723  26.115   1.176  11.657
67398W        W39724   3.846  19.822   3.297
67399W        W39725  24.215  16.631  13.089
67400W        W39726  24.824  42.332   4.552
67401W        W39727  40.483  10.171  12.175
67402W        W39728  42.460   3.303   5.038
67403W        W39729  30.077  10.789  12.784
67404W        W39730   4.429   8.251   3.757
67405W        W39731  30.228  32.048  11.678
67406W        W39732  34.580  19.302   4.613
67407W        W39733   6.709  13.328  12.059
67408W        W39734  31.494  39.066  11.835
67409W        W39735  38.414  32.436  11.564
67410W        W39736  31.138  23.758   0.443
67411W        W39737   9.319   2.226  11.463
67412W        W39738  42.976  32.455   2.217
67413W        W39739  22.095   8.216  14.820
67414W        W39740  40.784   4.814   4.408
67415W        W39741  44.824  40.456  10.772
67416W        W39742  17.354   0.245   1.450
67417W        W39743  31.552   4.039   2.668
67418W        W39744   6.906  22.894   0.526
67419W        W39745  34.028   2.476  12.432
67420W        W39746  40.481  22.679  14.915
67421W        W39747  27.648  44.694  11.198
67422W        W39748  18.102   3.939   4.392
67423W        W39749  21.449   7.933  14.963
67424W        W39750  17.621  30.126   3.929
67425W        W39751  35.200  38.398   0.954
67426W        W39752  16.018  12.263   0.780
67427W        W39753  17.553  17.253  14.758
67428W        W39754  42.326   6.684   1.753
67429W        W39755  13.993   4.967  14.463
67430W        W39756   6.860  27.257   0.305
67431W        W39757  17.729  21.035   4.157
67432W        W39758  27.989  33.302   1.245
67433W        W39759  40.421  43.102   3.278
67434W        W39760  22.696   1.012  14.240
67435W        W39761  14.051  27.494  13.417
67436W        W39762   1.418  13.108  14.444
67437W        W39763  44.894  36.689  13.895
67438W        W39764   4.013  25.762  11.533
67439W        W39765  15.314  39.114  12.576
67440W        W39766  10.381  35.992  13.817
67441W        W39767  21.417   5.192  10.823
67442W        W39768   2.750   4.936   2.698
67443W        W39769  26.045  17.272  11.611
67444W        W39770  32.159  33.409   3.708
67445W        W39771  17.662  37.974  10.630
67446W        W39772  22.178  31.900   3.693
67447W        W39773  32.898  16.083   3.448
67448W        W39774  29.638  15.673  11.929
67449W        W39775  42.339  16.328  13.983
67450W        W39776   7.756   7.922   0.923
67451W        W39777  14.836  23.540  12.399
67452W        W39778  15.975   0.999  11.478
67453W        W39779  41.005  24.555  10.533
67454W        W39780   4.358  43.215   4.184
67455W        W39781  37.572   0.704   1.983
67456W        W39782  34.046   4.767  12.834
67457W        W39783  10.868  10.244   2.783
67458W        W39784  19.812  38.008  12.891
67459W        W39785  35.306   9.740   1.883
67460W        W39786  41.996  27.683  13.319
67461W        W39787  30.839  19.871  12.380
67462W        W39788  13.847  44.971  12.535
67463W        W39789  29.900  32.204  13.581
67464W        W39790  14.265  18.254  11.128
67465W        W39791  24.837   7.856  11.932
67466W        W39792  30.997  39.766  11.923
67467W        W39793  10.667  17.563  12.963
67468W        W39794  35.061  38.301   0.038
67469W        W39795  16.404  21.489  12.001
67470W        W39796  38.023  41.796   3.343
67471W        W39797  13.171  22.742   0.759
67472W        W39798  34.050  27.984   2.815
67473W        W39799   5.856   5.744  14.013
67474W        W39800   8.393  27.495  11.132
67475W        W39801  20.552  44.719   2.221
67476W        W39802   1.943  10.316  12.094
67477W        W39803  15.873  43.054  14.772
67478W        W39804  33.164   8.868   2.287
67479W        W39805  40.221  30.078  11.885
67480W        W39806  32.730   3.496   2.847
67481W        W39807  11.664  15.300   1.188
67482W        W39808   9.861   0.890   2.650
67483W        W39809   0.565  40.844  13.570
67484W        W39810  15.800  11.880   3.261
67485W        W39811  41.567  37.058   3.806
67486W        W39812  37.435  20.636   4.568
67487W        W39813  39.285  37.327   4.573
67488W        W39814  13.518  30.420  14.033
67489W        W39815  16.767   9.320   3.838
67490W        W39816  30.741   5.652   0.909
67491W        W39817   7.146   4.639  11.978
67492W        W39818  11.280  17.528   1.364
67493W        W39819  10.338  22.000  10.605
67494W        W39820  25.515  40.460  13.887
67495W        W39821   3.784  25.520   4.959
67496W        W39822  42.263   0.219  11.590
67497W        W39823  36.485  28.503  12.644
67498W        W39824  30.746  12.939   3.289
67499W        W39825  27.211  37.909   2.669
67500W        W39826  16.345  43.083   2.380
67501W        W39827  31.450   0.662   2.601
67502W        W39828  34.936  15.213   4.813
67503W        W39829  29.597   5.802   3.441
67504W        W39830  16.695   8.824   5.099
67505W        W39831  31.015  35.855  14.562
67506W        W39832  22.488  23.830   4.602
67507W        W39833  29.556  39.397   2.295
67508W        W39834   4.184   6.390  13.894
67509W        W39835  25.009  29.466   4.256
67510W        W39836  15.253  33.452   1.306
67511W        W39837  10.416  10.906   1.473
67512W        W39838  26.027  33.844   4.377
67513W        W39839  42.053  43.752  12.491
67514W        W39840  41.729  30.177  14.830
67515W        W39841  15.652   6.686   1.300
67516W        W39842   5.242  30.653   3.695
67517W        W39843  34.383  44.785  13.170
67518W        W39844  18.331   1.835  14.957
67519W        W39845   7.356  33.823  10.946
67520W        W39846  40.820   5.247  13.408
67521W        W39847  43.259  42.848   4.488
67522W        W39848  18.532   5.892   4.223
67523W        W39849  34.365  32.676   2.342
67524W        W39850  32.438  35.025   4.240
67525W        W39851  38.873  42.876   4.744
67526W        W39852  33.157   4.719   4.539
67527W        W39853   5.978  35.362   3.175
67528W        W39854   9.638  15.631  10.473
67529W        W39855   6.291  22.085   4.293
67530W        W39856  10.469  12.230   5.193
67531W        W39857  29.971  14.634   1.896
67532W        W39858  23.555   1.773  13.435
67533W        W39859  41.236  16.100   3.784
67534W        W39860  35.567  16.290   2.130
67535W        W39861  43.225  27.540  10.978
67536W        W39862  37.631   6.949  13.803
67537W        W39863  25.995   7.917  14.800
67538W        W39864  11.439  17.042   2.172
67539W        W39865  32.746  26.373   0.808
67540W        W39866  24.246  33.959  13.374
67541W        W39867  39.902  12.032  10.654
67542W        W39868  11.299  38.337  14.372
67543W        W39869   4.329  15.156  14.218
67544W        W39870  28.023  20.940  12.994
67545W        W39871   9.249  24.767  14.381
67546W        W39872  24.096  15.199  14.909
67547W        W39873   0.913   5.222  12.081
67548W        W39874  13.749  29.449  13.260
67549W        W39875  34.574  19.814   4.668
67550W        W39876  31.386  29.527  13.279
67551W        W39877   5.855  34.621  13.027
67552W        W39878  29.545  26.440  12.149
67553W        W39879  33.382  12.589  12.960
67554W        W39880  37.624  17.442   1.834
67555W        W39881   5.761  20.418  10.791
67556W        W39882  21.275  32.727  12.536
67557W        W39883  18.738  32.453  14.414
67558W        W39884   9.745  14.849   2.771
67559W        W39885  36.834  34.531  12.006
67560W        W39886   9.210  18.341   4.043
67561W        W39887  34.139  33.320  12.122
67562W        W39888   4.730  22.626  11.472
67563W        W39889   4.500   8.819  13.759
67564W        W39890  22.455  41.633   0.947
67565W        W39891  42.901  42.532  11.656
67566W        W39892  38.979  18.815   4.168
67567W        W39893   2.767  27.565   4.537
67568W        W39894  10.913  24.823  13.489
67569W        W39895  44.688  31.014  10.823
67570W        W39896   4.775  31.242  12.138
67571W        W39897  37.924  10.342   2.929
67572W        W39898  31.021  28.256  10.307
67573W        W39899   2.860  43.258   3.571
67574W        W39900  34.715  40.641  12.863
67575W        W39901  34.090  44.058   3.648
67576W        W39902  33.479  42.086  14.839
67577W        W39903  42.435  21.728  14.075
67578W        W39904  21.107  30.612  13.398
67579W        W39905  35.595   5.768  14.474
67580W        W39906  14.116  41.820  12.456
67581W        W39907  35.676  40.687  12.008
67582W        W39908   2.438  20.480  11.611
67583W        W39909  37.397  30.635  12.381
67584W        W39910   4.698   9.065   1.333
67585W        W39911  24.276  20.774  13.337
67586W        W39912   2.917  12.803  13.834
67587W        W39913  42.317   6.180   4.198
67588W        W39914  36.560  37.992  12.380
67589W        W39915  34.048  27.731  12.905
67590W        W39916  32.550  14.400   1.392
67591W        W39917  25.950  37.417   0.755
67592W        W39918  15.216  32.098  12.480
67593W        W39919  14.876  27.221  13.250
67594W        W39920  27.019  17.157   2.375
67595W        W39921  40.294   6.870   1.986
67596W        W39922  13.266  11.874  14.129
67597W        W39923  31.067  35.026   1.780
67598W        W39924  20.116   5.467   2.662
67599W        W39925  22.711  20.669  14.360
67600W        W39926  37.379  22.548   4.449
67601W        W39927   5.662  17.622   0.032
67602W        W39928  44.909  28.097  12.645
67603W        W39929  14.464  37.693   2.179
67604W        W39930  44.461  29.200  12.387
67605W        W39931  34.958  38.346  11.909
67606W        W39932  42.598   7.762  11.472
67607W        W39933  28.949  33.410  12.518
67608W        W39934  27.919  36.099   4.059
67609W        W39935  44.125  41.600   2.307
67610W        W39936  10.600  30.923  11.578
67611W        W39937  23.713  18.988   3.640
67612W        W39938  15.528  37.048   1.807
67613W        W39939  42.769  14.715   5.042
67614W        W39940  39.141   5.767  12.542
67615W        W39941  27.042  22.258   2.135
67616W        W39942  35.744  22.087   3.141
67617W        W39943  41.765  15.887   1.793
67618W        W39944  27.591  19.730  14.926
67619W        W39945  17.411  13.330   1.345
67620W        W39946   0.471   7.896   0.935
67621W        W39947  13.652  35.048   4.663
67622W        W39948  33.136   2.926   0.223
67623W        W39949  34.409  43.041  11.627
67624W        W39950   3.360   4.665  10.940
67625W        W39951  18.706  36.952  14.081
67626W        W39952  37.764   2.700   4.947
67627W        W39953  11.930  23.604   2.865
67628W        W39954   1.887  33.101   3.944
67629W        W39955  25.453  19.057   2.718
67630W        W39956  40.827  34.371  12.869
67631W        W39957   6.909  11.855   0.740
67632W        W39958  35.088  21.678   0.784
67633W        W39959   6.159  28.263   0.365
67634W        W39960  16.162  33.640  11.024
67635W        W39961  21.999  39.770   0.375
67636W        W39962  26.610  40.581   2.369
67637W        W39963  18.172  25.127   1.952
67638W        W39964  25.517  14.674   3.302
67639W        W39965  42.227  25.647   3.572
67640W        W39966  36.646  18.033   3.732
67641W        W39967  26.120   7.300   2.953
67642W        W39968  31.491  39.442   0.892
67643W        W39969   6.866  23.081   3.676
67644W        W39970   3.008  25.445  14.006
67645W        W39971   6.409  26.133   2.873
67646W        W39972  24.964   9.934  13.317
67647W        W39973   5.397   6.000  13.841
67648W        W39974  43.477  27.641  11.418
67649W        W39975  43.945  33.430   1.820
67650W        W39976  34.718  14.013   2.251
67651W        W39977  29.588  23.038  11.530
67652W        W39978  36.096  40.080   1.320
67653W        W39979   6.882  39.288  12.088
67654W        W39980  10.733  19.201  14.879
67655W        W39981  23.958  42.219   3.162
67656W        W39982  28.712  12.623  13.343
67657W        W39983   1.985  21.744   3.750
67658W        W39984  37.879   3.376  13.487
67659W        W39985  20.813  36.391   4.077
67660W        W39986   2.338  21.223   4.153
67661W        W39987  43.367   7.580   1.405
67662W        W39988   8.698  33.970   3.907
67663W        W39989   8.912  13.732  14.659
67664W        W39990  42.629  31.304   3.186
67665W        W39991  37.699  39.348   2.490
67666W        W39992  29.565  44.874   3.248
67667W        W39993  41.695   7.108   5.182
67668W        W39994  23.536   2.994  12.037
67669W        W39995  18.610   2.491   3.302
67670W        W39996  26.582  26.580   1.863
67671W        W39997   3.858  34.008  13.284
67672W        W39998  43.799   1.235  14.900
67673W        W39999  29.190   5.412  14.329
67674W        W40000  18.631  18.329   3.882
67675W        W40001  27.060  12.531   4.186
67676W        W40002  18.754  35.375   4.664
67677W        W40003   3.157  12.307  10.647
67678W        W40004   3.303   6.810   4.556
67679W        W40005  34.029   9.635   2.620
67680W        W40006   9.185   7.943   0.165
67681W        W40007   1.000  33.994   2.805
67682W        W40008  43.466   5.971   4.058
67683W        W40009  42.306   3.206   0.859
67684W        W40010  14.345  38.942   1.890
67685W        W40011  33.009  40.032   1.686
67686W        W40012  26.966  12.770  12.403
67687W        W40013  29.016  42.207  12.738
67688W        W40014  41.003  34.375   1.978
67689W        W40015   4.875  10.582  11.128
67690W        W40016   9.159   4.354  12.960
67691W        W40017  39.641  15.164  10.667
67692W        W40018  14.711  10.187   2.393
67693W        W40019   4.953  32.269   5.089
67694W        W40020  35.944   1.115   2.183
67695W        W40021   9.790   2.411  11.567
67696W        W40022  13.710  44.891   4.109
67697W        W40023   3.375  12.304   4.577
67698W        W40024  39.562  37.812  13.875
67699W        W40025   5.651  16.732   4.141
67700W        W40026  31.934  35.141  11.131
67701W        W40027  14.265  20.250   3.731
67702W        W40028  15.054  25.695  13.808
67703W        W40029  13.379   9.908  14.389
67704W        W40030  35.251  27.350  11.128
67705W        W40031  31.459  13.705  14.320
67706W        W40032  40.789  16.524  11.594
67707W        W40033  16.188  35.594   4.506
67708W        W40034  15.025  37.378   4.858
67709W        W40035  15.465  28.235   5.028
67710W        W40036  31.587  18.681  12.936
67711W        W40037  34.101  33.103   9.714
67712W        W40038  17.627  16.012   1.801
67713W        W40039  10.688  38.332   4.633
67714W        W40040  37.022  37.325  14.810
67715W        W40041  23.325  27.800  14.306
67716W        W40042   8.627  22.073   3.654
67717W        W40043  28.127   6.539   4.765
67718W        W40044   5.220  19.047  11.997
67719W        W40045  43.878   6.895   3.769
67720W        W40046  29.092  10.328  12.406
67721W        W40047  22.568   5.932   0.912
67722W        W40048  18.341  33.158  11.975
67723W        W40049  26.657   3.442  14.245
67724W        W40050  33.386  26.229  14.673
67725W        W40051  37.548  43.920   1.615
67726W        W40052   7.653  44.957  12.545
67727W        W40053  44.669  19.397   5.119
67728W        W40054  23.095  10.763  14.895
67729W        W40055  42.896   6.395  11.581
67730W        W40056   6.688  24.161   2.937
67731W        W40057  41.527   2.910   3.581
67732W        W40058  30.624  32.123   4.690
67733W        W40059  37.936  44.444   0.323
67734W        W40060  18.017  15.247   4.211
67735W        W40061  35.500  24.070  10.597
67736W        W40062   7.805   3.051   4.609
67737W        W40063  18.585   0.812  11.516
67738W        W40064  42.533  40.469   1.340
67739W        W40065  17.116  43.500  11.505
67740W        W40066  37.498  15.089   1.441
67741W        W40067  13.261  36.471   1.731
67742W        W40068  13.258  33.986  12.593
67743W        W40069   9.027  36.889   1.512
67744W        W40070  18.718  25.903   4.139
67745W        W40071  18.832   9.784  11.978
67746W        W40072   6.895  13.913   1.037
67747W        W40073  32.883  10.634   3.693
67748W        W40074  10.277  20.945  11.473
67749W        W40075  36.848  31.969   4.127
67750W        W40076  18.429   7.249   2.882
67751W        W40077  43.411  14.469  10.380
67752W        W40078  19.228   9.903  11.082
67753W        W40079   8.967  10.924   2.929
67754W        W40080   7.015  43.577  12.557
67755W        W40081  27.973  18.052   2.870
67756W        W40082  18.719   9.471   3.641
67757W        W40083  18.449   6.333  12.502
67758W        W40084   4.474   1.011  14.831
67759W        W40085  10.083   2.280   2.674
67760W        W40086  23.405   8.318  14.482
67761W        W40087  28.204  37.184  11.097
67762W        W40088  10.419  21.019   4.128
67763W        W40089   3.786  15.022  12.024
67764W        W40090   1.214   2.640   5.052
67765W        W40091   2.743   6.437  13.865
67766W        W40092  40.600  27.196   3.081
67767W        W40093  28.215  26.774   4.922
67768W        W40094  18.254   7.393  13.378
67769W        W40095   9.253  33.446  11.546
67770W        W40096  13.672   1.060   4.198
67771W        W40097   5.730  25.601   1.175
67772W        W40098   7.902   6.318   0.407
67773W        W40099   7.876  11.700   2.567
67774W        W40100  22.781   1.195   4.785
67775W        W40101  16.329   5.948   3.738
67776W        W40102  14.694  21.499   2.866
67777W        W40103   2.314  43.573  12.620
67778W        W40104   0.094  26.221   3.900
67779W        W40105   4.810  25.894   4.120
67780W        W40106  38.163  11.827  13.020
67781W        W40107  25.456  19.644  12.643
67782W        W40108   9.666   2.408  14.785
67783W        W40109  30.229  31.875   2.931
67784W        W40110   1.934  38.008   0.971
67785W        W40111  43.224   1.130   1.906
67786W        W40112  44.316   2.435   0.356
67787W        W40113  16.386  28.400  13.442
67788W        W40114  37.407  11.102   0.987
67789W        W40115  26.955  42.530   1.386
67790W        W40116  13.859   9.609  14.996
67791W        W40117  25.640   0.304   4.636
67792W        W40118  37.536  33.393   3.329
67793W        W40119  18.259   8.432  12.590
67794W        W40120  37.761   9.711  12.054
67795W        W40121  13.236  41.217   2.837
67796W        W40122  23.500  23.709   2.116
67797W        W40123  12.555  29.962   0.720
67798W        W40124  24.114  21.702  12.934
67799W        W40125   6.808  34.571   3.119
67800W        W40126   3.924  41.446   2.103
67801W        W40127   0.785  43.568  13.355
67802W        W40128  10.570  34.132  10.138
67803W        W40129  31.275  14.124   9.835
67804W        W40130  24.101  22.301  10.777
67805W        W40131  16.830  23.233   3.842
67806W        W40132   3.481  25.906   3.264
67807W        W40133  31.723  29.635  10.675
67808W        W40134  41.954  35.410  14.072
67809W        W40135  30.446  21.230  14.736
67810W        W40136  32.210  16.021   4.726
67811W        W40137   1.832  44.085   0.106
67812W        W40138  33.560  23.001   0.444
67813W        W40139  12.666   8.657   3.596
67814W        W40140  21.803  44.282  11.046
67815W        W40141  18.832  14.157  13.523
67816W        W40142  41.209  27.215   1.702
67817W        W40143   3.754  35.472   0.884
67818W        W40144  36.576  38.483  10.741
67819W        W40145   5.360  31.103  14.315
67820W        W40146  12.273  37.425   3.576
67821W        W40147  19.049   0.503  11.709
67822W        W40148  28.964  29.865   4.441
67823W        W40149   1.784   0.770   1.869
67824W        W40150  42.030  17.220   5.022
67825W        W40151  32.672  37.447   0.262
67826W        W40152  38.452   4.271   0.650
67827W        W40153  30.912  26.225  11.509
67828W        W40154   7.329  19.828   2.484
67829W        W40155  18.718  16.550   1.792
67830W        W40156   2.075  35.717   0.458
67831W        W40157  20.076  14.951   4.541
67832W        W40158  25.903  33.329   1.455
67833W        W40159  27.999  39.324  10.440
67834W        W40160   5.816  26.091   1.325
67835W        W40161   6.258   7.323  14.592
67836W        W40162  39.492  29.873   4.208
67837W        W40163  36.155  44.264   0.225
67838W        W40164  19.838  39.534   3.779
67839W        W40165  42.852   1.490   1.849
67840W        W40166  12.707  39.550  10.894
67841W        W40167  21.052   3.467  11.516
67842W        W40168  22.610  21.052   1.506
67843W        W40169  31.695  37.375   3.173
67844W        W40170  24.029  23.130  11.459
67845W        W40171  43.823   1.013   4.272
67846W        W40172  27.369  34.007   4.593
67847W        W40173  35.373  36.140  12.527
67848W        W40174  38.016  25.403  12.153
67849W        W40175  24.644  30.695   0.845
67850W        W40176  14.814  23.328  10.649
67851W        W40177  12.318  10.807   0.719
67852W        W40178  19.626   6.033  10.689
67853W        W40179   9.628  34.465  13.272
67854W        W40180  11.633  39.796  14.528
67855W        W40181  29.047  42.349   4.593
67856W        W40182  24.214  29.152   2.277
67857W        W40183  40.469  37.239   1.853
67858W        W40184  17.713  41.040  10.731
67859W        W40185   8.747  37.705   1.903
67860W        W40186  42.291  22.460  14.334
67861W        W40187   1.503  11.632  14.494
67862W        W40188   9.296  30.432  11.566
67863W        W40189  41.568  16.121  13.367
67864W        W40190  33.899  19.984   1.815
67865W        W40191  25.597  21.483   0.830
67866W        W40192  26.750  19.681   0.417
67867W        W40193  35.454  16.348   0.815
67868W        W40194   1.188  21.285  13.975
67869W        W40195   7.825  12.841  12.869
67870W        W40196   0.470  37.987   1.390
67871W        W40197   7.334  17.967  14.823
67872W        W40198   7.706  22.670  13.942
67873W        W40199   3.903  12.424  12.055
67874W        W40200  23.987  18.506   0.803
67875W        W40201  30.982  25.718   4.026
67876W        W40202  21.026  21.931   1.395
67877W        W40203  11.622  32.049   4.157
67878W        W40204  13.350  18.387  13.323
67879W        W40205   7.425  43.166  12.435
67880W        W40206  22.406  11.957   2.314
67881W        W40207   2.913  27.229  12.420
67882W        W40208  38.667  38.933   3.832
67883W        W40209  30.183  21.273  12.460
67884W        W40210  16.175   8.426  10.694
67885W        W40211  21.707  44.319   4.380
67886W        W40212  19.614  16.914   1.635
67887W        W40213  15.572  41.036  11.908
67888W        W40214  18.393  14.573  11.215
67889W        W40215  43.420  16.537  14.832
67890W        W40216  43.435  34.339   3.310
67891W        W40217   3.501  44.315   2.260
67892W        W40218  29.645   8.058  12.494
67893W        W40219  19.981  43.530   3.411
67894W        W40220  38.432  44.288  14.450
67895W        W40221  22.710  42.500  13.493
67896W        W40222  37.792   9.600  10.183
67897W        W40223  19.734  25.962   0.910
67898W        W40224  25.713   1.852  11.197
67899W        W40225   2.721  24.472  13.598
67900W        W40226  22.461   4.272   0.794
67901W        W40227  17.718  11.864  10.565
67902W        W40228   9.030  22.492   0.938
67903W        W40229  19.727  22.541   4.106
67904W        W40230  33.564  12.065   4.707
67905W        W40231  40.760   6.951   4.129
67906W        W40232  44.907   9.306  11.894
67907W        W40233   3.678   9.390  11.601
67908W        W40234  23.650  17.037  14.576
67909W        W40235  22.272   0.576  10.489
67910W        W40236  43.348  33.518   4.672
67911W        W40237  23.679  11.401  13.569
67912W        W40238  38.940   2.534   0.382
67913W        W40239   1.509  28.283  12.156
67914W        W40240  11.516  12.643  12.076
67915W        W40241  32.960  40.896   3.017
67916W        W40242  32.531  24.793  11.483
67917W        W40243  28.837  10.769   2.757
67918W        W40244  23.872  44.517  10.091
67919W        W40245  31.161  42.333  11.108
67920W        W40246   7.467  26.266  12.307
67921W        W40247  44.792  42.417   3.086
67922W        W40248   8.323  43.794  11.628
67923W        W40249  30.705   1.805   4.506
67924W        W40250  42.558  11.207   1.674
67925W        W40251  14.185  26.037  13.422
67926W        W40252  23.268  26.147   4.654
67927W        W40253   7.715   2.513   2.119
67928W        W40254  39.911  32.427  14.517
67929W        W40255  30.757  16.811  13.879
67930W        W40256   2.267  15.577  10.986
67931W        W40257  17.719  18.841   2.101
67932W        W40258  43.193  44.169  10.262
67933W        W40259  17.334  25.534   4.621
67934W        W40260  44.994  32.943  11.552
67935W        W40261  32.179  11.737  14.455
67936W        W40262  25.222   7.688  13.287
67937W        W40263   1.459  25.531   4.544
67938W        W40264  24.732  16.244  11.532
67939W        W40265  30.420  32.451  10.898
67940W        W40266  40.538  13.034   0.741
67941W        W40267  17.761  16.588   3.585
67942W        W40268  36.158  17.226  14.405
67943W        W40269   9.697   5.454  11.146
67944W        W40270  29.229  13.343  13.819
67945W        W40271  19.736  42.363  14.932
67946W        W40272  35.035   7.991   3.194
67947W        W40273  40.426   1.133  12.432
67948W        W40274   8.824  19.782   2.850
67949W        W40275  44.869   4.672   3.566
67950W        W40276  21.560  17.228  11.898
67951W        W40277  28.599  29.842  11.156
67952W        W40278  23.515  16.045   0.057
67953W        W40279  41.510  35.091  14.404
67954W        W40280  32.664   9.663  10.672
67955W        W40281  16.389  13.141   1.231
67956W        W40282  12.054   8.356  11.019
67957W        W40283  22.068  19.769  14.565
67958W        W40284   5.809   0.411  10.433
67959W        W40285   4.738  39.746   3.781
67960W        W40286  15.087   4.958   0.792
67961W        W40287   4.739  36.035  14.491
67962W        W40288   9.669  41.526   4.201
67963W        W40289  40.402  43.727   4.060
67964W        W40290  38.383   3.880   0.990
67965W        W40291  34.624  27.370   2.321
67966W        W40292  32.886  11.719   2.232
67967W        W40293  27.128  32.691   3.815
67968W        W40294  28.406  20.481  12.944
67969W        W40295  18.051  16.809   1.074
67970W        W40296  21.823   2.789   3.761
67971W        W40297   4.475  41.962  12.977
67972W        W40298  42.406   1.866   3.101
67973W        W40299   1.740  41.743   0.564
67974W        W40300   5.024  34.336  11.033
67975W        W40301   3.744   0.081  10.694
67976W        W40302   7.238  42.877  11.970
67977W        W40303   7.318   9.744  14.442
67978W        W40304  29.511  26.115   2.733
67979W        W40305  37.513  14.247  12.381
67980W        W40306  20.736  41.044   0.708
67981W        W40307   5.202  42.976  10.634
67982W        W40308  38.863  38.456   0.237
67983W        W40309  38.326  22.131   3.301
67984W        W40310  23.483  26.081  14.749
67985W        W40311  42.529  43.468  12.104
67986W        W40312  28.400   1.500  10.766
67987W        W40313  44.753  30.993   4.018
67988W        W40314  39.506  34.096  12.257
67989W        W40315  32.971  30.943   4.604
67990W        W40316  34.671  27.699   3.961
67991W        W40317  30.227  35.132   3.472
67992W        W40318  17.257  37.035  10.389
67993W        W40319   7.590  29.898  12.601
67994W        W40320  29.038  32.148  11.165
67995W        W40321  12.447  12.612  11.254
67996W        W40322  32.927  22.119   2.180
67997W        W40323  23.838  17.593   0.583
67998W        W40324  22.486  32.391  13.269
67999W        W40325  18.065  35.845   3.240
68000W        W40326  16.560  23.752   2.662
68001W        W40327  21.138  40.427  12.631
68002W        W40328  32.534  26.465  11.927
68003W        W40329   0.926  25.011   2.978
68004W        W40330  11.750   7.328  11.500
68005W        W40331  17.474   7.727  13.448
68006W        W40332  37.425   0.952  12.498
68007W        W40333   7.828  25.748  14.426
68008W        W40334  41.908   4.772   9.989
68009W        W40335   6.266  30.459   9.828
68010W        W40336   7.879   8.817   3.752
68011W        W40337  21.561   9.034   4.194
68012W        W40338   5.357  32.668   3.877
68013W        W40339  22.253  26.835  11.021
68014W        W40340  39.516  13.727  14.143
68015W        W40341  10.320  18.881  14.874
68016W        W40342   2.632  43.895   2.872
68017W        W40343   0.829  26.271   3.774
68018W        W40344  41.527  18.771  12.644
68019W        W40345  13.282  29.184   0.471
68020W        W40346  43.738  31.360  11.953
68021W        W40347  11.068  25.570   2.299
68022W        W40348  40.997  40.780  10.701
68023W        W40349  29.456   4.131  14.972
68024W        W40350   8.174   2.925   1.749
68025W        W40351  34.390   3.925  11.594
68026W        W40352   3.709   5.924   2.953
68027W        W40353  26.837   5.602  12.024
68028W        W40354  42.552  40.113   3.607
68029W        W40355  25.345  16.830  10.140
68030W        W40356  43.795  14.839  11.137
68031W        W40357  39.926  43.312  11.843
68032W        W40358  18.900  12.195  14.254
68033W        W40359  29.979   8.684   2.804
68034W        W40360  15.263  18.264   3.177
68035W        W40361  40.473  36.883   3.111
68036W        W40362  13.094  28.532   3.725
68037W        W40363  43.968  20.770   2.160
68038W        W40364  37.949   4.680   3.783
68039W        W40365  44.173  29.554  11.434
68040W        W40366  20.064  37.353  11.538
68041W        W40367  40.731   7.839   1.877
68042W        W40368  44.792  25.257  13.391
68043W        W40369  13.228  30.730  13.526
68044W        W40370  26.986  28.516  11.054
68045W        W40371  32.394  34.522   1.343
68046W        W40372  26.416  41.067  14.333
68047W        W40373   1.826  12.734  12.816
68048W        W40374  21.315  24.218   2.538
68049W        W40375   3.652  17.662   1.782
68050W        W40376  35.132   2.201  14.429
68051W        W40377  23.014   8.660  13.263
68052W        W40378  36.167  29.316  12.773
68053W        W40379  30.413   4.329  13.488
68054W        W40380  11.807   2.941   2.920
68055W        W40381   9.690  16.908   2.055
68056W        W40382  37.586  36.028  12.062
68057W        W40383  19.781  23.033  11.944
68058W        W40384  37.047  35.755  14.862
68059W        W40385  15.316  21.185   4.476
68060W        W40386  43.539  21.016  12.356
68061W        W40387   3.947  37.106  11.414
68062W        W40388   5.313   9.941   3.563
68063W        W40389  18.087  29.205   4.641
68064W        W40390  24.691  20.262   0.834
68065W        W40391  16.888  42.026  13.756
68066W        W40392  11.402  29.367   3.321
68067W        W40393  18.748  19.090  12.071
68068W        W40394  11.373  34.983  11.630
68069W        W40395  38.052  33.379   3.287
68070W        W40396  10.132  32.844  12.399
68071W        W40397  29.091  10.356  13.859
68072W        W40398   9.071  34.419  11.595
68073W        W40399  12.864  30.547   0.910
68074W        W40400  12.290   9.896   3.496
68075W        W40401  14.895  21.458  12.486
68076W        W40402  20.171  34.096  12.987
68077W        W40403  21.000  23.247   1.663
68078W        W40404   2.285  12.541  13.093
68079W        W40405  23.641  13.074  14.009
68080W        W40406  33.855  42.242   0.458
68081W        W40407  12.751  13.595   0.364
68082W        W40408  24.185  19.337   0.233
68083W        W40409  21.459  14.681   3.256
68084W        W40410  21.456   1.258   1.051
68085W        W40411   1.910  42.011   4.890
68086W        W40412   9.408  11.302  11.620
68087W        W40413  10.512  33.498   0.168
68088W        W40414  11.634  18.120  12.933
68089W        W40415   2.472  11.428   0.886
68090W        W40416  12.180  40.744   2.222
68091W        W40417  31.606  35.020  12.574
68092W        W40418  17.989   6.853   3.341
68093W        W40419  16.803  42.896  10.511
68094W        W40420  20.103   8.569   2.368
68095W        W40421  10.963   4.002  11.573
68096W        W40422  38.964  39.307  12.426
68097W        W40423   2.667  12.650   1.800
68098W        W40424   3.856  11.798   1.195
68099W        W40425  41.545   0.076  13.070
68100W        W40426  14.197  20.536   1.814
68101W        W40427  23.092  18.655   0.516
68102W        W40428  23.180  41.391  14.686
68103W        W40429  30.398   9.656   0.849
68104W        W40430  11.315  16.343   1.871
68105W        W40431  23.717  14.845  14.841
68106W        W40432  16.870  31.974  10.973
68107W        W40433  15.814  32.383  10.007
68108W        W40434  30.084  14.746   1.394
68109W        W40435  39.857   4.868   0.696
68110W        W40436  28.090   8.290  13.414
68111W        W40437  24.026  17.280  11.920
68112W        W40438  37.835  30.955  14.340
68113W        W40439   1.249  39.163  12.913
68114W        W40440  40.125  36.415   2.387
68115W        W40441   4.444  40.252   4.371
68116W        W40442  13.914  33.404  10.689
68117W        W40443   3.718  39.972  12.211
68118W        W40444   6.058  13.121  13.935
68119W        W40445  12.146  16.065   2.657
68120W        W40446  14.914  18.316  13.001
68121W        W40447  30.599  42.326  11.152
68122W        W40448  15.600  35.340   1.508
68123W        W40449  41.574  28.000   0.009
68124W        W40450  35.004  38.381   2.803
68125W        W40451  28.123   6.511   0.923
68126W        W40452  35.614  20.294   2.427
68127W        W40453  33.319   1.513   3.833
68128W        W40454   0.373  12.657  13.319
68129W        W40455   7.896   6.603  11.614
68130W        W40456  23.040  26.004  10.364
68131W        W40457   4.328  37.930  11.461
68132W        W40458  24.703  31.524  12.041
68133W        W40459  23.576  21.978   2.408
68134W        W40460   1.295  43.504  13.407
68135W        W40461  21.827  22.191   0.969
68136W        W40462  17.715   2.671   2.910
68137W        W40463   7.467  41.700  14.597
68138W        W40464  43.701  24.752  13.032
68139W        W40465  21.077  39.121  12.284
68140W        W40466  16.808  12.373  12.402
68141W        W40467  12.197   2.970   4.119
68142W        W40468  36.847  14.315   4.155
68143W        W40469  11.931  24.106  13.156
68144W        W40470   8.697  14.853   3.639
68145W        W40471  14.784  22.008  14.514
68146W        W40472  11.074  18.297  11.905
68147W        W40473  16.007  15.289  11.497
68148W        W40474  42.396  15.305  13.106
68149W        W40475  23.596  35.115   1.252
68150W        W40476  33.221  37.303   3.323
68151W        W40477   1.193  42.886  13.060
68152W        W40478  38.081  20.074   1.247
68153W        W40479  18.962   6.388  11.529
68154W        W40480  39.236   4.879  11.442
68155W        W40481  37.263  36.950  13.884
68156W        W40482  44.879  28.147  10.608
68157W        W40483  33.058  17.676   1.569
68158W        W40484  39.540  13.204   4.312
68159W        W40485  10.216  19.772   3.676
68160W        W40486  19.421   5.438   4.177
68161W        W40487  21.844  18.075  12.786
68162W        W40488  12.004  43.900   2.923
68163W        W40489  24.675   0.261  13.847
68164W        W40490  15.988  10.752  12.087
68165W        W40491  36.055  27.478   2.226
68166W        W40492   5.482   3.758  14.380
68167W        W40493  18.945  41.776   3.801
68168W        W40494  35.839  31.861   1.242
68169W        W40495  44.969   7.921  10.965
68170W        W40496  24.739   2.444   2.855
68171W        W40497  29.453  10.010   1.764
68172W        W40498   2.642  40.272  14.237
68173W        W40499  29.144  35.542   1.789
68174W        W40500  14.731  15.077  10.743
68175W        W40501  32.912   5.934  11.973
68176W        W40502  35.546  32.720  11.755
68177W        W40503  41.019  29.712  14.396
68178W        W40504  18.826   1.964  11.408
68179W        W40505   6.220   8.842   4.103
68180W        W40506  31.064  27.116  11.290
68181W        W40507  30.923  29.950   4.996
68182W        W40508  40.477   7.210  14.747
68183W        W40509  36.888  38.829  10.285
68184W        W40510  13.035  41.484   3.240
68185W        W40511  13.530  27.057  12.771
68186W        W40512  42.875  31.657  13.128
68187W        W40513   6.304  35.324   1.168
68188W        W40514  13.373  34.420  12.838
68189W        W40515  43.122  41.513  13.675
68190W        W40516   2.515   2.244  11.480
68191W        W40517  11.891  25.542  11.481
68192W        W40518   5.702  30.875   3.825
68193W        W40519  12.441  17.768  12.539
68194W        W40520   5.491  28.742   2.698
68195W        W40521  18.249  29.025   2.286
68196W        W40522  21.559  25.198  14.026
68197W        W40523   8.788  28.059   0.855
68198W        W40524  27.229   8.706  12.833
68199W        W40525  29.045  11.276   4.340
68200W        W40526  11.660  40.262  10.548
68201W        W40527   1.721  25.105   5.012
68202W        W40528  18.371  36.491   3.607
68203W        W40529  22.646  15.998  12.071
68204W        W40530  14.099  17.638  13.990
68205W        W40531   2.379  28.918  14.837
68206W        W40532  17.392  24.021   0.744
68207W        W40533  26.235  27.916   4.100
68208W        W40534  34.486   7.602   4.324
68209W        W40535  13.006  17.061  13.699
68210W        W40536  37.358   8.212  12.923
68211W        W40537  32.598  28.117  14.470
68212W        W40538  40.238  10.098   3.208
68213W        W40539  40.534   1.325   4.116
68214W        W40540  29.520  43.387   3.854
68215W        W40541  30.360  14.162  13.435
68216W        W40542  23.018  16.400   2.651
68217W        W40543   3.838   1.201   1.399
68218W        W40544  18.267  19.659   1.684
68219W        W40545  44.984   5.811  14.076
68220W        W40546  27.051  11.001  11.425
68221W        W40547  22.620  10.641   3.268
68222W        W40548  17.429   5.229  13.660
68223W        W40549  37.005  11.198   3.632
68224W        W40550   4.743  30.564  13.928
68225W        W40551   5.676   0.495  13.531
68226W        W40552  13.308  25.463  11.576
68227W        W40553   8.146  22.088  14.947
68228W        W40554   8.178  34.060  14.221
68229W        W40555   3.334   5.763  13.748
68230W        W40556  13.403  36.206  12.067
68231W        W40557  14.125  11.817  10.614
68232W        W40558   6.401  39.356  11.543
68233W        W40559  44.271  38.445   4.589
68234W        W40560  30.728  12.704  13.333
68235W        W40561  13.280   4.427  10.670
68236W        W40562  38.503  42.577   1.309
68237W        W40563  33.542  17.068  14.944
68238W        W40564  28.740  21.105   3.432
68239W        W40565   2.080  29.883   3.098
68240W        W40566  38.341   2.557   2.908
68241W        W40567  27.260  40.025   0.481
68242W        W40568  28.920   2.836  11.995
68243W        W40569  38.108  36.141   0.892
68244W        W40570  16.637  23.467  11.393
68245W        W40571   0.940  19.317   2.878
68246W        W40572  35.405  27.078  11.544
68247W        W40573  25.245  40.818  12.837
68248W        W40574   2.346   8.656  13.012
68249W        W40575  10.659   6.245   1.323
68250W        W40576   1.946   3.417   1.690
68251W        W40577  13.323  11.590   0.966
68252W        W40578  13.569   7.660  10.605
68253W        W40579  42.634  43.001   2.876
68254W        W40580  11.816  18.461  13.800
68255W        W40581  18.782   7.646  12.500
68256W        W40582   1.961  16.272   0.631
68257W        W40583   0.987  31.849   2.798
68258W        W40584  44.323   4.963  13.810
68259W        W40585  37.103  41.871   1.422
68260W        W40586   1.561  38.890  11.648
68261W        W40587  13.996  23.274   4.060
68262W        W40588  42.399  35.072   1.723
68263W        W40589  28.209  17.298  10.655
68264W        W40590   4.726  20.385  13.951
68265W        W40591  29.725  21.726   1.470
68266W        W40592   2.054  30.200  14.103
68267W        W40593  15.992  20.083   1.935
68268W        W40594  41.567   1.367  14.328
68269W        W40595  11.740   8.332  12.661
68270W        W40596   4.889  20.382   2.056
68271W        W40597  30.030  22.502  11.971
68272W        W40598  40.001   7.408  10.689
68273W        W40599  37.627   0.799  12.975
68274W        W40600  23.067  15.904   2.799
68275W        W40601   7.877  12.551  13.290
68276W        W40602  42.488  26.530   4.359
68277W        W40603   6.300   1.170  12.546
68278W        W40604  31.575  28.183   2.407
68279W        W40605  14.567  13.385   3.095
68280W        W40606   2.745  21.125  13.997
68281W        W40607  44.659  16.092  14.467
68282W        W40608  35.493   5.431   0.398
68283W        W40609  36.984  41.012   2.174
68284W        W40610  37.446  42.576   4.367
68285W        W40611  35.695  38.581  11.000
68286W        W40612  30.645   9.681  13.910
68287W        W40613   7.468  24.218  13.229
68288W        W40614  21.157  14.370  14.419
68289W        W40615  27.107  13.786  13.990
68290W        W40616  43.327  11.679  11.380
68291W        W40617  20.302  22.263  11.471
68292W        W40618   9.239   1.032   4.867
68293W        W40619   4.503   3.786  12.967
68294W        W40620  38.349  23.997   0.839
68295W        W40621  34.965  28.640   0.395
68296W        W40622  39.959  30.078   4.257
68297W        W40623  19.805  10.928   0.616
68298W        W40624  22.457  19.801   4.242
68299W        W40625  35.063  16.009   0.441
68300W        W40626   4.669  13.137   2.642
68301W        W40627  30.889  15.836  10.631
68302W        W40628  14.145   7.409  14.446
68303W        W40629  23.752  33.964  12.473
68304W        W40630   8.696  15.132  13.203
68305W        W40631   3.675   3.324  14.385
68306W        W40632  31.596   9.419   0.233
68307W        W40633  19.534  17.016   4.257
68308W        W40634  25.783  11.122  10.121
68309W        W40635  12.808  23.272  11.982
68310W        W40636   4.389  29.284   3.108
68311W        W40637  23.269  34.557   2.353
68312W        W40638  20.025   6.229  10.144
68313W        W40639  21.307   0.572   0.341
68314W        W40640  43.400  17.712  13.876
68315W        W40641  20.466   0.096   2.561
68316W        W40642  18.974   0.191   0.901
68317W        W40643  22.257   0.578   5.170
68318W        W40644  23.724   3.871   1.902
68319W        W40645   1.877  12.209  13.002
68320W        W40646  37.900  29.682  13.920
68321W        W40647  26.745   7.696   3.205
68322W        W40648  42.571  40.806  11.566
68323W        W40649  14.319  19.626  11.167
68324W        W40650  24.469  24.291   2.224
68325W        W40651  35.807   5.006   4.812
68326W        W40652  20.085  28.147  13.025
68327W        W40653  13.478  28.653   5.008
68328W        W40654  26.419  27.134   1.197
68329W        W40655  19.722  34.644   2.243
68330W        W40656  19.358  28.031   1.425
68331W        W40657  21.594  30.434   0.034
68332W        W40658  29.402   5.839   0.347
68333W        W40659  22.597  42.512  11.460
68334W        W40660   9.718   5.723   1.284
68335W        W40661  18.709   7.629  13.402
68336W        W40662   8.826   0.749   0.385
68337W        W40663  31.853   2.331   4.649
68338W        W40664  38.588   8.680   4.511
68339W        W40665   7.643  37.011   1.176
68340W        W40666  40.638  17.475  11.726
68341W        W40667   4.794  31.005  13.622
68342W        W40668  27.028  39.935   0.031
68343W        W40669  39.509  23.689   4.744
68344W        W40670  44.698  14.763  11.637
68345W        W40671  15.766  14.552  12.529
68346W        W40672  42.853  25.537   4.068
68347W        W40673  14.797  35.679  12.974
68348W        W40674  14.333  26.409  14.920
68349W        W40675  13.347  39.931   3.889
68350W        W40676  27.015  32.585   0.934
68351W        W40677  25.745  26.645   1.518
68352W        W40678   5.884  30.096   2.925
68353W        W40679  27.446   6.829  13.339
68354W        W40680   9.200  29.952   1.305
68355W        W40681  15.118  19.068   1.275
68356W        W40682  29.716   2.010  10.302
68357W        W40683   1.331  30.641  13.478
68358W        W40684  19.844  27.869  14.845
68359W        W40685  10.299   9.818  11.152
68360W        W40686  37.072   1.646   1.858
68361W        W40687  24.256  41.913   0.684
68362W        W40688   9.316  26.954   3.861
68363W        W40689  31.360  12.349  11.442
68364W        W40690   1.438  16.709  14.405
68365W        W40691  13.204  39.517   4.214
68366W        W40692   2.751  36.591   4.185
68367W        W40693  37.134   1.223  11.558
68368W        W40694  42.272  28.524   0.304
68369W        W40695  13.927  23.573   1.384
68370W        W40696  34.393  35.955  12.054
68371W        W40697   9.274  17.110   1.706
68372W        W40698   6.819  34.148  13.142
68373W        W40699  12.640  17.089   0.449
68374W        W40700   7.522  32.335   1.410
68375W        W40701   5.886  18.584   2.168
68376W        W40702  43.674  16.122  11.544
68377W        W40703  28.151  17.492  11.980
68378W        W40704  29.435  43.430   0.375
68379W        W40705  13.338  35.728   3.226
68380W        W40706  24.980  12.312  14.470
68381W        W40707  28.590  42.301   3.242
68382W        W40708  28.214  27.939   4.155
68383W        W40709   7.798  39.746   4.529
68384W        W40710  44.046  15.808   2.324
68385W        W40711  40.504  26.139  12.224
68386W        W40712  32.586  40.581   3.282
68387W        W40713   3.400  30.179   2.734
68388W        W40714  31.423  25.461  11.488
68389W        W40715  24.003  13.058  14.817
68390W        W40716  20.440   1.884   1.365
68391W        W40717  43.354   9.052  11.627
68392W        W40718  27.412   3.275   2.419
68393W        W40719  21.156  31.119   3.204
68394W        W40720  21.709   7.397   2.832
68395W        W40721  34.568  20.999   5.043
68396W        W40722   8.641  34.131  14.481
68397W        W40723   0.313  10.841   2.425
68398W        W40724   4.835  23.867   4.118
68399W        W40725  43.447  32.375   2.493
68400W        W40726  32.485  41.796  11.432
68401W        W40727  26.092  36.369  13.789
68402W        W40728   9.212  29.023   3.270
68403W        W40729   3.002   2.013   5.416
68404W        W40730  14.696  10.653   4.241
68405W        W40731  12.680  42.268  14.411
68406W        W40732  11.942  37.677  11.968
68407W        W40733  44.418  38.871   0.680
68408W        W40734  14.717  44.440  14.425
68409W        W40735  28.790  28.956  11.457
68410W        W40736  32.569  44.291   0.407
68411W        W40737   3.540  43.298   2.959
68412W        W40738  17.653  21.231  14.769
68413W        W40739  13.514   0.776  13.918
68414W        W40740  18.279   1.424   4.531
68415W        W40741  21.057  11.909  12.695
68416W        W40742  27.025  10.417  10.219
68417W        W40743  13.185  17.643   0.914
68418W        W40744   7.145  33.564  12.192
68419W        W40745  34.023  41.146   2.944
68420W        W40746   7.286  35.192   1.493
68421W        W40747  29.239  19.502   2.670
68422W        W40748  20.214  14.160   4.643
68423W        W40749  32.139  30.486  10.977
68424W        W40750  28.737  34.085   2.308
68425W        W40751  29.049   2.098  11.485
68426W        W40752   3.667  10.926  12.489
68427W        W40753  39.269  16.185  12.993
68428W        W40754  37.490  19.103   3.372
68429W        W40755   5.282  44.533  12.023
68430W        W40756  32.251  41.098  13.289
68431W        W40757   2.749  31.331  12.372
68432W        W40758  39.362  43.301  14.291
68433W        W40759  11.690  30.724   4.134
68434W        W40760  33.066  33.074  14.522
68435W        W40761  34.030  14.705   2.009
68436W        W40762  22.006  34.806   1.968
68437W        W40763  28.475  20.156  14.233
68438W        W40764  41.397  20.104  10.981
68439W        W40765  20.793  20.198   1.193
68440W        W40766   1.113  36.107  10.383
68441W        W40767   3.944  11.136  12.948
68442W        W40768  11.981  36.530   2.176
68443W        W40769  38.771  37.781  10.846
68444W        W40770  23.772   0.032   2.198
68445W        W40771   4.453   5.890  11.018
68446W        W40772  34.305  40.403   2.371
68447W        W40773  26.042  37.612   4.209
68448W        W40774   2.491  22.077  13.095
68449W        W40775  20.150  35.637  11.167
68450W        W40776  34.626  22.861   1.313
68451W        W40777  23.978  17.266   3.978
68452W        W40778  17.327   8.593  11.094
68453W        W40779   4.209  35.602  13.416
68454W        W40780  15.144  31.357   2.689
68455W        W40781  20.682  23.989  10.751
68456W        W40782  17.705   8.285   3.798
68457W        W40783   2.370  32.348   3.119
68458W        W40784  16.671  11.752   3.805
68459W        W40785  35.543  21.182   1.311
68460W        W40786   1.677   5.828  14.611
68461W        W40787  31.419  40.353   1.781
68462W        W40788  26.002  19.336   3.779
68463W        W40789  21.517   4.635   1.314
68464W        W40790  29.674  11.871   0.901
68465W        W40791  11.602  42.581  12.051
68466W        W40792   6.641   8.870   5.049
68467W        W40793  39.914  38.666   1.777
68468W        W40794   7.432  26.037  14.649
68469W        W40795   7.093  28.568   2.507
68470W        W40796  42.014  44.041  14.896
68471W        W40797  26.611  43.705  13.494
68472W        W40798  21.545   7.554   4.264
68473W        W40799  32.009  30.614  13.578
68474W        W40800   9.001  37.369  13.764
68475W        W40801  15.790  24.599  12.509
68476W        W40802  43.398   2.243  12.415
68477W        W40803  36.614  27.391  13.309
68478W        W40804  25.204  35.637  12.195
68479W        W40805   7.243   9.692  12.780
68480W        W40806   7.874  34.042  13.374
68481W        W40807  13.263  22.842   4.350
68482W        W40808  15.167  34.402   3.696
68483W        W40809  17.269  12.588  14.893
68484W        W40810  18.811  37.352  11.714
68485W        W40811   6.335  16.616  13.106
68486W        W40812  34.984  19.791  12.408
68487W        W40813   3.741  25.569  11.130
68488W        W40814  13.334   8.888   1.262
68489W        W40815   3.632   2.793  14.037
68490W        W40816  33.542   0.918  11.223
68491W        W40817   9.160  42.824  13.428
68492W        W40818  42.354  38.084  11.572
68493W        W40819  30.652  31.072   1.660
68494W        W40820   2.924  15.789   1.115
68495W        W40821  32.622   9.911   1.210
68496W        W40822  31.505   0.846  14.438
68497W        W40823   8.670  26.473  13.876
68498W        W40824   6.010  32.436   1.135
68499W        W40825  25.443  13.201   2.725
68500W        W40826   5.125  16.404   0.031
68501W        W40827  22.653   8.444  14.030
68502W        W40828   3.257  11.964   1.830
68503W        W40829  16.777  30.646   2.105
68504W        W40830  33.470  39.474   2.777
68505W        W40831  41.553  12.775   3.291
68506W        W40832  44.464  30.670  14.993
68507W        W40833  39.725  20.269  13.782
68508W        W40834  11.308  31.879   1.477
68509W        W40835   4.704   9.837  10.047
68510W        W40836  10.130  40.342   0.018
68511W        W40837   5.601   2.447   1.395
68512W        W40838  36.491  42.229   0.820
68513W        W40839  26.659  33.436   4.619
68514W        W40840  30.882  23.236  14.364
68515W        W40841  15.325  22.535  13.574
68516W        W40842  20.085  15.896  12.888
68517W        W40843  42.299  10.319  11.945
68518W        W40844  17.239  16.181   0.251
68519W        W40845  17.311  13.691   0.992
68520W        W40846  10.143  20.990   1.841
68521W        W40847  17.521  37.807   0.237
68522W        W40848  34.794  32.374   0.944
68523W        W40849  33.582   1.892  12.560
68524W        W40850  10.933  21.721  11.156
68525W        W40851  38.831  37.593   3.701
68526W        W40852  11.618   3.378  13.774
68527W        W40853  38.015   9.864   2.698
68528W        W40854  29.131  43.244  14.354
68529W        W40855  33.576  23.135  11.871
68530W        W40856  30.006  32.695   2.711
68531W        W40857   1.278  36.570  13.330
68532W        W40858  40.070  16.809  14.914
68533W        W40859  29.395   8.392  12.141
68534W        W40860  16.719  23.822  12.242
68535W        W40861  29.961   3.417  13.350
68536W        W40862  41.516  18.994  14.027
68537W        W40863  38.627  41.579   1.208
68538W        W40864  27.970  30.579   1.460
68539W        W40865  19.981  22.267  13.490
68540W        W40866  40.083  15.257  13.430
68541W        W40867   7.614  34.172  11.894
68542W        W40868  26.566  16.138  11.708
68543W        W40869  36.470  17.233   2.462
68544W        W40870  22.524  16.885   3.675
68545W        W40871  32.617  32.808   0.355
68546W        W40872  14.387  29.686   1.846
68547W        W40873  12.953  35.412   2.330
68548W        W40874  22.034  16.700  13.898
68549W        W40875  42.050   8.990   1.175
68550W        W40876  27.078  28.986  10.864
68551W        W40877  10.142  22.488  10.682
68552W        W40878  38.410   9.679   1.487
68553W        W40879  12.176  18.665  14.837
68554W        W40880  35.002  37.383   0.151
68555W        W40881   6.871  24.511  11.850
68556W        W40882  12.297  30.670   4.705
68557W        W40883  44.025  35.588   2.233
68558W        W40884   1.979  15.431   0.387
68559W        W40885  23.772  16.074  10.692
68560W        W40886   9.701  37.891   3.440
68561W        W40887  37.489  36.146   2.860
68562W        W40888  30.319  21.067   4.246
68563W        W40889  29.178  39.840  10.669
68564W        W40890  42.968   8.230   4.847
68565W        W40891  39.319   9.307   1.842
68566W        W40892  12.219  14.599  11.001
68567W        W40893  37.885  22.160  12.491
68568W        W40894   0.407   4.764  14.280
68569W        W40895  42.854  38.612   3.646
68570W        W40896  19.946  11.610   1.508
68571W        W40897   5.146  39.834   2.832
68572W        W40898  20.318  29.865  10.640
68573W        W40899   1.095  32.597  13.061
68574W        W40900  19.990  30.172   1.366
68575W        W40901   6.684  25.167   1.198
68576W        W40902   8.282   9.758  11.105
68577W        W40903   1.521   0.067  11.923
68578W        W40904  37.212  12.227   1.417
68579W        W40905  24.950   9.671   0.656
68580W        W40906  13.819  10.377   0.533
68581W        W40907  36.121  26.021   1.923
68582W        W40908  39.584  39.036  14.900
68583W        W40909  31.844  37.843   0.257
68584W        W40910  28.687   4.867   4.969
68585W        W40911   2.936  39.669   0.901
68586W        W40912   3.521  35.529  11.523
68587W        W40913  17.168  37.628   3.633
68588W        W40914  27.527   5.131  14.927
68589W        W40915  30.972  34.567   4.612
68590W        W40916  32.665   8.803  14.890
68591W        W40917  22.444  36.621  12.439
68592W        W40918  12.276  13.344  13.012
68593W        W40919  22.030  39.499   1.464
68594W        W40920  18.263  15.809  11.648
68595W        W40921  20.040  32.373  11.593
68596W        W40922  24.005  11.707   2.265
68597W        W40923   1.299  26.633  13.895
68598W        W40924  40.915  44.414   4.337
68599W        W40925  41.334  19.732  12.942
68600W        W40926  25.556  25.457   4.767
68601W        W40927  36.606  29.611   1.356
68602W        W40928  16.161  26.530  13.610
68603W        W40929   1.434  33.328   4.115
68604W        W40930  43.949  16.329  12.836
68605W        W40931  13.698  37.401  10.528
68606W        W40932  23.137  26.417   4.240
68607W        W40933  22.312  15.273   0.824
68608W        W40934   4.219  26.681  14.783
68609W        W40935   6.799  38.257  11.172
68610W        W40936   5.928  24.627  13.513
68611W        W40937  29.386  44.819   0.394
68612W        W40938  20.536  35.885   3.246
68613W        W40939  21.185  19.500  11.023
68614W        W40940  10.366  20.100   2.493
68615W        W40941  19.299  18.036  13.898
68616W        W40942  21.836  27.609  11.584
68617W        W40943  27.223  26.049   0.846
68618W        W40944  33.517  16.615   1.926
68619W        W40945   7.108  31.383  11.129
68620W        W40946  41.395  28.716  12.571
68621W        W40947  14.312   3.893  11.594
68622W        W40948  20.621  23.531   0.894
68623W        W40949  34.094   0.988  12.084
68624W        W40950   4.868  35.763   1.711
68625W        W40951  12.743  31.616  10.716
68626W        W40952   3.739  19.033   0.694
68627W        W40953   8.620  27.583  10.663
68628W        W40954  43.487  36.697   1.205
68629W        W40955  22.094   0.241  14.321
68630W        W40956  15.106   7.012   3.139
68631W        W40957  34.572  30.725  14.944
68632W        W40958  12.719   8.048   2.868
68633W        W40959  38.382  15.498  11.064
68634W        W40960   0.124  14.698   2.791
68635W        W40961  14.775  39.090  11.881
68636W        W40962  34.694  30.147   4.953
68637W        W40963  12.794   3.010   3.237
68638W        W40964   9.316  41.632  12.635
68639W        W40965   4.939  30.834   1.217
68640W        W40966  28.484   7.964   4.074
68641W        W40967  30.390   9.049   2.107
68642W        W40968  28.231  12.219  10.888
68643W        W40969  18.806  42.668   3.366
68644W        W40970   4.934  26.949  12.982
68645W        W40971   1.657  12.217  14.494
68646W        W40972  19.320   6.923   1.277
68647W        W40973  19.583  39.405   0.169
68648W        W40974   8.260  31.113   2.688
68649W        W40975  14.601  29.664  11.093
68650W        W40976   8.275  20.109  14.467
68651W        W40977  20.602   3.533  12.744
68652W        W40978  20.735  24.571  14.990
68653W        W40979  10.659  26.378  12.853
68654W        W40980  18.118  44.258  13.593
68655W        W40981  14.673  33.836  10.488
68656W        W40982   8.274  13.892   0.185
68657W        W40983  44.514  32.766  11.244
68658W        W40984  16.050  40.299  13.762
68659W        W40985  43.572  29.192   3.395
68660W        W40986   6.710  20.559  13.024
68661W        W40987  28.552  44.038   4.657
68662W        W40988  32.150  23.921   2.852
68663W        W40989  29.140  13.331  12.064
68664W        W40990   8.296  26.395  11.940
68665W        W40991  21.734  13.794  13.405
68666W        W40992  14.914  22.054  13.364
68667W        W40993  31.486  37.462  12.151
68668W        W40994   8.113  24.075  13.954
68669W        W40995  17.108   6.806  14.096
68670W        W40996  42.663   5.905  12.740
68671W        W40997  32.612  24.047   2.580
68672W        W40998  22.653  43.373  14.510
68673W        W40999  26.609  18.221   1.723
68674W        W41000  12.714  20.373  13.617
68675W        W41001  19.618  22.710   5.022
68676W        W41002  39.075  14.273   0.815
68677W        W41003  25.240   1.272   3.267
68678W        W41004  10.862  28.267  12.062
68679W        W41005  17.378  39.853   4.910
68680W        W41006  37.830  40.599  12.984
68681W        W41007  18.058  43.882   3.239
68682W        W41008  18.363  34.379  11.526
68683W        W41009  14.294  10.523  13.594
68684W        W41010   0.539   0.558  12.947
68685W        W41011  41.972  24.544  13.088
68686W        W41012   7.274  12.951   0.459
68687W        W41013   6.454  40.303   2.801
68688W        W41014   4.748  16.628  11.158
68689W        W41015  15.279  26.178   3.191
68690W        W41016  25.510  44.938  12.923
68691W        W41017  22.789  41.402  13.030
68692W        W41018   2.193  11.923   1.053
68693W        W41019  25.617  33.614   0.073
68694W        W41020  40.792  42.156   4.984
68695W        W41021  20.724  44.328   1.303
68696W        W41022  41.503  18.077  14.311
68697W        W41023   0.206  30.093   1.868
68698W        W41024  34.930  40.500  13.405
68699W        W41025  33.784  31.951  14.719
68700W        W41026   1.712  29.930  13.818
68701W        W41027  39.598  41.359   2.424
68702W        W41028   3.256  19.937  11.534
68703W        W41029  28.236  16.363  13.573
68704W        W41030  26.356   6.442   2.882
68705W        W41031  17.844  25.321  10.327
68706W        W41032  31.590  41.426   0.521
68707W        W41033  17.162  33.313   3.676
68708W        W41034   8.620   6.387  11.052
68709W        W41035   8.427  27.287   1.427
68710W        W41036  14.893  20.092   2.695
68711W        W41037  21.761  21.269   1.784
68712W        W41038  29.264  41.143  12.016
68713W        W41039  30.489  10.647  13.090
68714W        W41040  17.791   9.775   1.979
68715W        W41041  22.760   3.880  14.891
68716W        W41042  29.452  43.695  10.694
68717W        W41043   5.987   3.772  14.501
68718W        W41044  37.136  17.088  14.775
68719W        W41045  11.090  29.423   3.739
68720W        W41046  16.280   2.216  11.043
68721W        W41047  23.717  12.989  12.441
68722W        W41048  23.769  12.570  11.455
68723W        W41049  14.693  26.272   4.243
68724W        W41050  38.602  17.135   1.716
68725W        W41051   5.393  26.520   0.878
68726W        W41052  28.986  26.135  12.511
68727W        W41053  11.776  34.524  10.584
68728W        W41054  39.386   1.418  10.693
68729W        W41055  30.588  13.216  14.434
68730W        W41056  28.105  10.852  14.023
68731W        W41057  32.444  31.164  14.477
68732W        W41058   8.846  20.717  13.465
68733W        W41059  12.541  19.704  14.799
68734W        W41060  22.153  44.360  13.414
68735W        W41061  23.946  13.717  13.591
68736W        W41062  38.616  14.182  13.294
68737W        W41063   5.585  27.609  11.879
68738W        W41064  40.919  11.283  14.679
68739W        W41065  14.044   7.685  14.878
68740W        W41066  29.195  32.932  12.476
68741W        W41067   5.057   1.572   1.381
68742W        W41068  22.386  11.840  13.988
68743W        W41069   4.460  37.931  12.316
68744W        W41070  42.950  16.558  13.021
68745W        W41071  18.734  14.178  11.240
68746W        W41072  31.459  25.434  13.306
68747W        W41073  15.751  44.857  11.079
68748W        W41074   3.323  22.228   0.904
68749W        W41075  10.440   6.883  10.455
68750W        W41076  31.898  33.603   4.555
68751W        W41077  40.462   5.357  13.986
68752W        W41078  41.244  41.828  14.568
68753W        W41079  13.684   9.642   0.869
68754W        W41080  34.441  42.300   1.186
68755W        W41081  40.619   5.674   3.293
68756W        W41082   7.165  30.340   3.103
68757W        W41083   6.373  25.383  11.918
68758W        W41084  27.518   9.318   2.218
68759W        W41085  19.802   9.755  12.950
68760W        W41086   1.870  28.145   0.944
68761W        W41087  35.639  20.765   0.887
68762W        W41088  36.194  13.394   0.914
68763W        W41089  28.006  34.649   4.394
68764W        W41090  18.260  18.332   0.646
68765W        W41091  21.616   1.708  13.505
68766W        W41092   7.164  40.039  13.801
68767W        W41093   7.805  41.812   3.193
68768W        W41094  15.187   1.205   2.331
68769W        W41095  35.517   3.701   3.743
68770W        W41096  37.343  25.471   1.743
68771W        W41097  37.553  24.002  14.349
68772W        W41098   9.773   4.402  10.752
68773W        W41099  26.838  24.203   0.948
68774W        W41100  34.380   7.413   2.427
68775W        W41101   0.425  31.208  14.099
68776W        W41102  38.162  31.702   0.500
68777W        W41103  11.350  21.869   4.741
68778W        W41104  31.401  15.076  12.970
68779W        W41105  27.683   6.166  11.915
68780W        W41106  20.067  21.315  10.449
68781W        W41107  17.250  11.183   2.823
68782W        W41108  11.131  21.164   1.719
68783W        W41109  40.006   8.603  14.856
68784W        W41110  37.160   8.444   3.352
68785W        W41111  19.860  32.686  11.181
68786W        W41112  11.625   9.297  14.309
68787W        W41113  20.075  38.893  11.633
68788W        W41114  40.495  35.147  12.962
68789W        W41115  26.119  12.790  14.027
68790W        W41116  33.829   9.346  10.612
68791W        W41117  21.814  39.077  10.257
68792W        W41118   7.388   7.207  10.532
68793W        W41119   6.286  14.048   4.956
68794W        W41120   2.883   7.774  10.824
68795W        W41121  11.818  17.519   3.325
68796W        W41122   5.264  42.471   4.597
68797W        W41123  18.619  10.417  12.792
68798W        W41124  11.034  29.141  14.958
68799W        W41125  33.460  33.031  12.507
68800W        W41126  26.586  40.535  14.924
68801W        W41127  40.353  28.449  14.396
68802W        W41128   4.667   1.938  10.598
68803W        W41129  35.886  17.039  14.808
68804W        W41130  38.086  21.903  14.559
68805W        W41131  17.650  17.223   3.746
68806W        W41132   5.662  25.452   2.742
68807W        W41133  15.677  21.153  13.985
68808W        W41134  15.395  26.670  11.552
68809W        W41135  18.743  26.945  14.721
68810W        W41136  32.420  28.973   4.641
68811W        W41137  26.635  42.850   1.869
68812W        W41138  37.564  14.772  11.550
68813W        W41139  35.833  39.682  12.956
68814W        W41140  13.522  40.993   2.392
68815W        W41141  37.799  30.177  11.676
68816W        W41142  37.359  31.965   4.200
68817W        W41143  41.432   6.997   2.638
68818W        W41144  23.503  41.291   2.115
68819W        W41145  22.198  10.326   3.777
68820W        W41146   0.973  40.999   1.420
68821W        W41147  11.610  24.655   4.335
68822W        W41148  44.024  33.561  12.808
68823W        W41149  29.443  33.719  12.612
68824W        W41150  24.960  17.306  11.625
68825W        W41151  33.434  14.801   1.773
68826W        W41152   4.778  10.348  11.591
68827W        W41153  25.003  35.881   0.050
68828W        W41154  21.571  15.648  13.258
68829W        W41155  27.226   0.828   4.297
68830W        W41156  25.469   5.279  12.944
68831W        W41157  36.108  10.222   3.917
68832W        W41158  38.351   0.717  14.357
68833W        W41159  27.598   4.427  12.330
68834W        W41160   0.381  39.441  10.666
68835W        W41161  16.811  44.307  10.708
68836W        W41162   3.351  29.958   4.275
68837W        W41163   8.435   6.221  10.542
68838W        W41164   9.472  42.977   1.372
68839W        W41165   5.407  27.730  14.096
68840W        W41166  24.026  15.627  10.665
68841W        W41167   3.186  44.374  13.452
68842W        W41168   2.420  16.708  10.948
68843W        W41169  15.154  20.592  12.794
68844W        W41170  20.242  43.395   0.402
68845W        W41171  19.183  34.569   3.640
68846W        W41172  28.394   8.440  10.770
68847W        W41173  12.402  43.245   3.604
68848W        W41174   3.898   2.934  10.574
68849W        W41175  34.978  42.304   4.507
68850W        W41176  36.912  40.078   1.783
68851W        W41177   2.346  19.303  11.897
68852W        W41178  25.709  43.840   4.596
68853W        W41179  24.947  31.184   3.169
68854W        W41180  10.775  15.060   2.613
68855W        W41181   5.442  41.449   4.798
68856W        W41182   9.061  20.779   4.257
68857W        W41183  17.244   6.948   2.087
68858W        W41184  39.364  34.832   3.663
68859W        W41185  11.697  16.265   0.283
68860W        W41186  14.120  32.676  13.015
68861W        W41187  17.153  11.773  13.791
68862W        W41188  34.149  12.922   0.938
68863W        W41189  11.921  39.535  11.408
68864W        W41190  21.774  40.845  12.239
68865W        W41191  43.103   6.784  10.712
68866W        W41192  16.008  38.569   3.627
68867W        W41193  43.470  33.052   4.354
68868W        W41194  41.351  29.415  10.743
68869W        W41195  36.840  34.516  11.146
68870W        W41196  11.657  26.995   1.246
68871W        W41197  44.373  12.851  13.474
68872W        W41198  20.073  15.284   4.074
68873W        W41199  24.485  30.683  12.418
68874W        W41200  40.343  27.044  12.186
68875W        W41201  20.657  43.863   4.410
68876W        W41202  11.830  38.565  12.401
68877W        W41203  44.537  30.501   2.707
68878W        W41204  17.334  17.174   0.247
68879W        W41205  15.136  27.640  11.496
68880W        W41206  26.009  35.055  14.358
68881W        W41207  39.320  43.003  10.323
68882W        W41208   7.821  14.887   2.230
68883W        W41209  17.973   2.683  10.973
68884W        W41210  16.173   1.438   4.774
68885W        W41211  22.193  10.158   1.785
68886W        W41212  14.685  31.595   3.877
68887W        W41213  24.216  26.058   2.613
68888W        W41214  43.411  22.293  10.713
68889W        W41215  21.328  15.735   3.159
68890W        W41216  19.829  16.104   1.224
68891W        W41217  12.405  21.147  11.536
68892W        W41218  38.120   7.001  13.980
68893W        W41219  36.369  26.957  14.814
68894W        W41220   7.368  16.085   1.836
68895W        W41221   2.428  37.979   0.732
68896W        W41222  15.718  18.680  12.556
68897W        W41223  28.506  44.338  11.947
68898W        W41224   8.758   8.431   3.288
68899W        W41225   4.779  19.965  12.106
68900W        W41226  22.251  29.182  13.449
68901W        W41227   4.986  17.138   0.404
68902W        W41228  28.413   9.275   3.567
68903W        W41229  18.339  23.303   3.635
68904W        W41230  37.078  34.840  13.957
68905W        W41231  18.612   8.408   1.781
68906W        W41232  28.625  15.860  12.482
68907W        W41233   1.279   3.957   0.907
68908W        W41234   2.451  16.837   2.618
68909W        W41235  43.464  13.144   1.401
68910W        W41236  21.279  40.872   4.285
68911W        W41237  40.920  29.168   4.589
68912W        W41238   5.888  35.871   2.640
68913W        W41239   7.651  24.987   2.253
68914W        W41240  23.263  21.572  13.381
68915W        W41241   1.013   4.883  12.450
68916W        W41242  39.895   1.235  10.668
68917W        W41243  36.604  35.434  13.482
68918W        W41244  10.111  34.992   4.081
68919W        W41245  20.334  13.675  13.298
68920W        W41246  19.462  23.418  12.079
68921W        W41247   7.331  16.332   3.115
68922W        W41248  40.039  36.028   2.747
68923W        W41249  35.229  38.821  11.939
68924W        W41250   6.919  24.697   2.773
68925W        W41251  11.830   5.946   3.307
68926W        W41252  11.493  42.031  10.647
68927W        W41253   6.881   9.713   2.272
68928W        W41254   3.745  33.600  12.442
68929W        W41255  42.477   4.729  12.973
68930W        W41256  22.305   5.657  12.391
68931W        W41257  15.667  35.883  14.390
68932W        W41258  26.436   9.978  13.359
68933W        W41259   8.213   6.818   1.562
68934W        W41260   2.706  41.573   1.196
68935W        W41261  21.402  42.748   0.724
68936W        W41262  33.800   6.322   2.648
68937W        W41263   7.752  10.090  13.943
68938W        W41264  34.595  10.699   0.781
68939W        W41265  19.907  39.004  13.900
68940W        W41266  32.583  17.150  11.222
68941W        W41267  16.059   8.244   2.687
68942W        W41268  29.460  19.182   4.099
68943W        W41269  36.560   5.323   2.341
68944W        W41270  37.917  14.152   2.995
68945W        W41271   1.447  36.914   2.622
68946W        W41272  29.506  21.056  14.840
68947W        W41273   8.244  15.235   4.318
68948W        W41274  38.590  31.360   2.800
68949W        W41275   4.237  33.214  13.014
68950W        W41276  43.433  19.556  14.356
68951W        W41277   6.707  22.489  12.443
68952W        W41278  33.691  28.159   3.177
68953W        W41279  30.478  18.546  10.937
68954W        W41280  41.047  21.228  10.409
68955W        W41281  41.534  31.701   4.146
68956W        W41282  14.770  26.773   4.286
68957W        W41283  40.839  10.567  12.134
68958W        W41284  32.216  43.303   2.740
68959W        W41285   2.222   0.351  14.336
68960W        W41286   1.650  31.093   0.745
68961W        W41287   2.259   5.335  12.072
68962W        W41288   0.503  27.061   2.153
68963W        W41289  23.244   3.847   0.656
68964W        W41290  26.037   2.741   1.389
68965W        W41291  31.207   8.378  14.354
68966W        W41292  28.465  36.762   1.839
68967W        W41293  20.555   1.479   2.706
68968W        W41294   8.822   3.290   0.378
68969W        W41295   5.467  26.168  12.540
68970W        W41296  21.659   2.305  14.753
68971W        W41297  37.427  25.743   4.142
68972W        W41298   1.800  22.309   0.313
68973W        W41299   0.841  28.096   4.619
68974W        W41300  13.840  29.596   0.206
68975W        W41301  37.942  12.322  14.578
68976W        W41302  41.814  30.212  11.702
68977W        W41303   8.603  14.258   2.355
68978W        W41304  42.776  28.897   4.197
68979W        W41305   8.142  19.548  14.729
68980W        W41306  38.692  24.805  11.065
68981W        W41307  13.370  23.618  14.600
68982W        W41308  13.358  24.798  10.062
68983W        W41309  27.054   1.380   2.889
68984W        W41310  13.395  44.186  12.391
68985W        W41311   2.834   0.415  10.718
68986W        W41312  26.960  36.158  13.345
68987W        W41313   3.958  38.454  10.309
68988W        W41314   1.400   7.897   0.821
68989W        W41315   6.302  18.615  12.861
68990W        W41316  25.127  44.954   3.980
68991W        W41317   7.315  43.414   4.199
68992W        W41318  44.432  35.923  12.531
68993W        W41319  41.708  17.237   0.886
68994W        W41320  39.465  11.112   0.322
68995W        W41321  41.338  23.616   1.489
68996W        W41322   3.881  26.693  14.351
68997W        W41323  32.431  44.782   0.493
68998W        W41324  17.045  20.398  12.539
68999W        W41325  12.750  36.697  13.337
69000W        W41326  39.485  22.053   0.842
69001W        W41327  28.397  38.940  14.454
69002W        W41328  44.414  13.905  11.441
69003W        W41329  21.345  16.906  10.146
69004W        W41330   6.228   7.430   4.246
69005W        W41331  20.721  23.454  13.353
69006W        W41332  24.615  37.653  12.105
69007W        W41333   5.745   4.749  13.625
69008W        W41334  40.295  28.091  13.018
69009W        W41335  41.989  27.379   3.363
69010W        W41336   8.605   3.732   4.590
69011W        W41337  24.721  26.996  14.772
69012W        W41338  23.686  44.246  10.961
69013W        W41339  35.607  18.043  14.838
69014W        W41340  34.061  29.115  12.163
69015W        W41341   6.264   2.323  13.336
69016W        W41342  16.677  11.173   0.374
69017W        W41343  10.220  38.146   4.262
69018W        W41344  37.485  26.727   1.424
69019W        W41345  32.142  21.530   2.301
69020W        W41346   7.849  32.794   0.249
69021W        W41347  17.546  23.562   0.963
69022W        W41348  12.851  21.090  13.487
69023W        W41349   4.480   0.373  11.651
69024W        W41350  15.634   9.423   4.660
69025W        W41351  30.009  17.596   3.757
69026W        W41352  19.415  17.917  10.698
69027W        W41353   4.689  16.803  10.135
69028W        W41354   6.443  40.424  14.679
69029W        W41355  28.158  31.517   2.432
69030W        W41356   5.179  34.586   3.841
69031W        W41357  23.731  18.128   2.062
69032W        W41358  39.400  30.822   1.798
69033W        W41359   1.968   8.929  10.666
69034W        W41360  44.869  36.594  11.613
69035W        W41361  40.619  27.507  11.920
69036W        W41362   4.491   2.516   0.689
69037W        W41363  12.846  26.053   2.150
69038W        W41364  24.181  26.189   0.449
69039W        W41365  14.762  36.092  10.429
69040W        W41366  23.303  20.050  12.017
69041W        W41367  21.992   1.998  10.936
69042W        W41368  34.758  37.563   3.128
69043W        W41369   9.915  38.412  11.588
69044W        W41370  44.403  35.469  11.498
69045W        W41371  16.072   0.159  13.938
69046W        W41372  12.677  24.910   0.635
69047W        W41373  37.537   1.532  13.345
69048W        W41374   1.902  23.288  12.904
69049W        W41375   7.228   9.484  13.537
69050W        W41376  42.887  42.640   3.166
69051W        W41377   6.194  31.644   3.678
69052W        W41378   6.541  14.749   2.673
69053W        W41379  10.576   1.089   0.904
69054W        W41380  33.884  36.493  11.061
69055W        W41381  28.958  14.383   1.364
69056W        W41382  19.641  39.641   1.426
69057W        W41383   3.926  17.726   1.203
69058W        W41384  38.832  43.276  11.056
69059W        W41385  36.582  20.977  13.821
69060W        W41386  21.447  24.893  12.954
69061W        W41387  10.235  39.758   0.512
69062W        W41388  41.308  27.175   0.564
69063W        W41389   8.908  29.347  13.561
69064W        W41390   1.348   1.853   1.794
69065W        W41391  21.365   0.285   2.625
69066W        W41392  23.724   4.198   0.478
69067W        W41393  19.595  13.896  13.970
69068W        W41394  11.718  44.025  14.934
69069W        W41395   0.552   0.718  12.446
69070W        W41396   3.769  32.970  12.926
69071W        W41397   1.771  13.843   2.270
69072W        W41398  44.927   9.367   1.561
69073W        W41399  32.344  10.796  11.429
69074W        W41400  16.674   0.317   1.845
69075W        W41401  26.942  16.692  13.894
69076W        W41402  22.541  10.717  12.908
69077W        W41403  11.464  19.225   4.701
69078W        W41404  15.034  11.081   0.670
69079W        W41405  11.264  16.880   2.629
69080W        W41406  39.375  13.774  12.590
69081W        W41407  19.588  40.371   1.965
69082W        W41408   0.918  40.511   3.767
69083W        W41409  33.977  24.355  14.511
69084W        W41410  30.168   4.240   4.644
69085W        W41411  39.105  14.650  14.383
69086W        W41412  35.593  12.288   3.720
69087W        W41413  34.184   3.385   1.220
69088W        W41414  25.089  34.893  13.740
69089W        W41415  26.612   6.275   1.860
69090W        W41416   7.960  14.827   4.160
69091W        W41417  11.643  10.582  10.648
69092W        W41418  17.303   2.964   4.094
69093W        W41419  18.983  29.184  13.064
69094W        W41420  15.124  29.587   2.757
69095W        W41421  40.467  11.718  10.251
69096W        W41422  32.805   8.220   2.928
69097W        W41423  32.833  24.833  13.002
69098W        W41424  35.499  25.920   0.777
69099W        W41425  23.756  11.243   2.379
69100W        W41426  37.354  12.220   0.422
69101W        W41427  10.574  26.263  14.871
69102W        W41428  42.062   1.821   4.830
69103W        W41429  35.509   9.152   4.630
69104W        W41430   1.389   6.672  13.702
69105W        W41431   3.460  35.369   0.445
69106W        W41432   7.143  20.809  12.898
69107W        W41433  11.759  40.589   5.092
69108W        W41434   7.948  32.972  12.320
69109W        W41435  42.204  22.255  14.916
69110W        W41436  39.801   7.146   0.832
69111W        W41437   0.910   7.090   3.866
69112W        W41438  11.283  39.851  12.881
69113W        W41439  37.515  31.500   4.377
69114W        W41440  31.374  44.951   1.219
69115W        W41441  27.125  26.135   1.374
69116W        W41442  32.032  26.211   2.261
69117W        W41443  35.700  28.330   1.753
69118W        W41444  38.299  24.015  12.050
69119W        W41445   3.971  21.479   4.187
69120W        W41446  32.504  15.119   2.111
69121W        W41447  34.455  38.914  11.656
69122W        W41448  19.877   3.640   0.944
69123W        W41449  30.220  13.290   4.116
69124W        W41450  32.551   2.830   1.440
69125W        W41451  42.122  41.303  13.541
69126W        W41452  43.680   4.932   3.422
69127W        W41453  19.823   7.925   1.944
69128W        W41454   0.577  44.311   1.298
69129W        W41455  22.624  40.522   3.906
69130W        W41456  15.649  19.901   3.307
69131W        W41457   4.247  29.632  14.700
69132W        W41458  19.592  43.783   1.971
69133W        W41459  12.660  39.571  13.863
69134W        W41460  18.642  18.959  14.462
69135W        W41461  42.797  11.734   1.327
69136W        W41462  35.235  44.264   4.720
69137W        W41463  24.766  26.838  11.136
69138W        W41464  43.039  17.720   3.789
69139W        W41465  16.806  10.817   1.493
69140W        W41466  27.875   3.441  10.647
69141W        W41467   0.547  35.597  14.902
69142W        W41468  33.509  42.771   4.001
69143W        W41469  21.069  38.140   0.459
69144W        W41470   0.796  17.042   3.307
69145W        W41471  29.739   2.302   2.277
69146W        W41472  32.368   7.177  12.917
69147W        W41473  15.853  20.653  13.895
69148W        W41474  39.946  25.415  13.477
69149W        W41475   6.443  16.370  14.456
69150W        W41476   9.043  35.406   2.833
69151W        W41477   0.895   4.297  14.566
69152W        W41478  33.090  26.490   2.820
69153W        W41479  23.580  32.439  12.362
69154W        W41480   2.087  41.306  13.953
69155W        W41481  21.265  23.881  11.483
69156W        W41482  15.162  43.548   0.072
69157W        W41483   7.856   9.335   4.704
69158W        W41484  42.923  37.230   1.267
69159W        W41485  19.361  24.619   2.406
69160W        W41486   5.364  12.291   0.687
69161W        W41487  31.578  16.774  13.479
69162W        W41488  42.498  25.085  13.971
69163W        W41489  35.051  15.711   1.512
69164W        W41490  28.636   7.343   4.907
69165W        W41491  10.572  29.009   1.987
69166W        W41492  26.631  21.989  12.484
69167W        W41493  30.009  30.952   3.427
69168W        W41494  39.887   7.638  12.921
69169W        W41495  10.406  37.018  14.778
69170W        W41496  39.789  41.345   0.823
69171W        W41497   2.033  15.166   3.634
69172W        W41498   7.823  33.611   4.672
69173W        W41499  31.507   0.245   3.115
69174W        W41500   6.426  29.004   1.458
69175W        W41501  41.488  23.250  11.596
69176W        W41502  24.195   9.899   4.910
69177W        W41503  14.231  20.955  14.952
69178W        W41504   0.379  12.669   4.555
69179W        W41505  24.901  35.716   1.213
69180W        W41506  15.220  14.894  11.346
69181W        W41507  28.223  13.004   1.024
69182W        W41508  38.337  26.217  11.070
69183W        W41509   5.785   4.686  11.170
69184W        W41510  39.258  18.708  12.003
69185W        W41511   7.479  44.915   0.377
69186W        W41512   3.251   7.729  13.410
69187W        W41513  39.243  15.393   4.596
69188W        W41514  12.463  12.711  12.370
69189W        W41515  14.391  15.685  12.132
69190W        W41516  15.574  26.603   3.670
69191W        W41517  13.219   3.938  14.948
69192W        W41518  33.419  23.223  13.861
69193W        W41519  29.884  33.386   0.089
69194W        W41520  33.511  26.933  10.434
69195W        W41521  42.762  27.376  14.090
69196W        W41522   3.775  12.191   4.857
69197W        W41523  14.473  25.275   5.052
69198W        W41524  22.753  24.466   2.390
69199W        W41525  41.938  21.645   4.622
69200W        W41526   7.089   9.632   0.819
69201W        W41527  19.507  15.883   0.875
69202W        W41528   3.252   3.342  10.106
69203W        W41529   8.877   9.953   2.225
69204W        W41530  29.566  17.347   4.581
69205W        W41531  26.235  39.476   4.545
69206W        W41532  39.291  44.254   3.854
69207W        W41533  23.956  16.760  12.059
69208W        W41534  13.874  23.193   0.278
69209W        W41535   4.230  17.200  14.085
69210W        W41536   8.803  40.354   3.733
69211W        W41537  44.304   9.839   2.772
69212W        W41538  12.331  18.778   3.777
69213W        W41539  11.816   9.740   4.632
69214W        W41540  38.719  43.767   4.147
69215W        W41541  21.054  35.075   2.921
69216W        W41542   5.021   3.773  13.464
69217W        W41543   3.435  36.397  12.986
69218W        W41544  22.222  21.154   1.969
69219W        W41545  22.908  11.658   3.205
69220W        W41546  26.699   1.034   5.112
69221W        W41547   1.290   9.820  11.599
69222W        W41548  11.303  35.461  11.426
69223W        W41549  29.890   5.579   4.182
69224W        W41550  41.045   0.825   3.173
69225W        W41551  15.243   2.836   1.871
69226W        W41552  13.081  11.312   9.958
69227W        W41553  24.212   1.917   0.821
69228W        W41554  38.075   3.098  11.083
69229W        W41555  37.002  19.311   0.852
69230W        W41556  27.455  20.599  14.851
69231W        W41557  14.748  23.756   4.466
69232W        W41558  22.314  20.678   0.374
69233W        W41559   8.605  20.373   0.540
69234W        W41560  32.665  19.017  10.718
69235W        W41561  28.519  37.431   0.909
69236W        W41562   0.005  39.648   2.805
69237W        W41563  16.853  12.234  14.485
69238W        W41564  35.884  29.933   3.839
69239W        W41565   5.498  22.468  13.939
69240W        W41566  38.336  44.906  10.616
69241W        W41567  30.003  35.768  12.139
69242W        W41568  35.346  16.501   3.671
69243W        W41569  13.733  11.547  12.448
69244W        W41570  35.016  23.046   4.601
69245W        W41571   2.314  17.164  13.143
69246W        W41572  27.387  32.129   4.584
69247W        W41573  14.377  39.644  13.534
69248W        W41574  26.465  12.846  12.366
69249W        W41575   7.655  28.064  11.134
69250W        W41576   7.739  12.105  14.811
69251W        W41577  28.100  38.280   3.502
69252W        W41578  13.572   2.656  13.625
69253W        W41579  12.652   1.355   4.804
69254W        W41580  34.670  21.133   0.393
69255W        W41581  25.696  21.709   2.228
69256W        W41582  35.131  27.790  13.720
69257W        W41583  34.003  38.889   3.704
69258W        W41584  11.115  18.812  12.599
69259W        W41585  40.525  11.640  14.798
69260W        W41586   7.413   5.512   2.661
69261W        W41587  22.327  43.311   3.677
69262W        W41588  15.595  26.588  12.414
69263W        W41589  21.829  41.147  14.555
69264W        W41590  18.795   8.336   4.044
69265W        W41591   9.289  14.583   2.559
69266W        W41592   9.172  15.173  11.529
69267W        W41593  43.313  34.666  14.811
69268W        W41594  11.697   9.010   1.697
69269W        W41595  16.173   2.922   4.752
69270W        W41596   0.733  38.574   4.957
69271W        W41597   3.236  28.424   4.644
69272W        W41598   2.915  12.340   2.386
69273W        W41599  19.333  16.186   1.290
69274W        W41600  35.852   1.230  12.531
69275W        W41601  16.810  23.617   4.570
69276W        W41602   2.936   9.891  10.664
69277W        W41603   6.256  13.323  13.508
69278W        W41604  26.881   7.288   0.801
69279W        W41605  41.849  40.293   5.098
69280W        W41606  39.356   3.851   4.191
69281W        W41607  32.873  18.638  14.677
69282W        W41608  17.211  40.211   4.565
69283W        W41609  28.485  44.888  10.600
69284W        W41610  39.874  38.049  11.973
69285W        W41611   2.010  28.215   1.744
69286W        W41612   3.486  37.159   4.389
69287W        W41613  14.161  37.466  10.263
69288W        W41614  26.490  11.792  12.828
69289W        W41615  19.670  43.084  10.747
69290W        W41616   7.019  27.502   1.267
69291W        W41617  29.475  20.296  14.536
69292W        W41618  18.178  10.744  10.553
69293W        W41619  32.205  28.978  11.733
69294W        W41620  24.228   0.073   4.134
69295W        W41621  30.395  41.327  13.445
69296W        W41622  42.588  12.814   1.726
69297W        W41623   4.443  40.430  13.450
69298W        W41624  10.617  26.895  12.865
69299W        W41625  42.320  40.240   2.395
69300W        W41626  10.886  33.594  14.249
69301W        W41627  29.030   2.236  13.584
69302W        W41628  33.138  39.416  13.322
69303W        W41629  44.663   8.876   2.817
69304W        W41630   9.756  23.779   2.360
69305W        W41631  32.969   4.837  12.149
69306W        W41632  19.214  19.733   4.179
69307W        W41633  12.373  15.075   2.831
69308W        W41634  23.008   5.275  14.363
69309W        W41635  19.316  25.401  13.386
69310W        W41636  24.943   5.477  11.865
69311W        W41637   1.855  38.814   3.077
69312W        W41638  40.953  19.085   3.245
69313W        W41639  15.189  13.248   3.665
69314W        W41640   4.190  23.669  13.927
69315W        W41641   6.501  12.620   3.624
69316W        W41642  10.452   5.936  11.996
69317W        W41643   0.464  39.386  14.355
69318W        W41644  37.690  20.643  11.228
69319W        W41645  28.295  22.155   2.850
69320W        W41646   6.888  44.558   4.098
69321W        W41647  23.168  22.113   2.730
69322W        W41648  38.367  44.665   0.132
69323W        W41649   2.781  30.959  12.755
69324W        W41650   8.698  17.791   3.925
69325W        W41651   3.073   5.248  11.064
69326W        W41652  25.511   1.489  10.917
69327W        W41653  30.389   0.921  11.118
69328W        W41654   3.811  42.485  10.645
69329W        W41655  13.562  12.410   2.869
69330W        W41656  44.365  40.107   3.233
69331W        W41657   1.716  37.152  11.044
69332W        W41658  42.782  42.847   4.707
69333W        W41659  24.624  16.663  12.782
69334W        W41660  28.454  18.243   3.680
69335W        W41661  24.202  26.590  13.754
69336W        W41662  30.144  19.283  12.483
69337W        W41663  16.157  19.648   0.710
69338W        W41664  36.873   4.891  13.389
69339W        W41665  36.813   1.946  12.000
69340W        W41666   3.449  42.768   2.894
69341W        W41667  31.455   7.861   2.797
69342W        W41668  23.912  30.074   3.241
69343W        W41669  37.560  11.475   2.147
69344W        W41670  34.535  24.527   2.277
69345W        W41671  29.724  12.834  11.602
69346W        W41672  21.967  39.252   2.423
69347W        W41673  35.024  38.131   2.336
69348W        W41674  30.134  23.025   3.716
69349W        W41675  23.301   7.334   1.116
69350W        W41676  19.464  11.147   2.858
69351W        W41677  22.301  16.796  13.063
69352W        W41678  27.678  17.656   1.229
69353W        W41679  10.601  22.669   2.408
69354W        W41680  21.324  12.120  14.618
69355W        W41681  35.169  37.584   1.672
69356W        W41682   2.272  31.898   3.908
69357W        W41683  44.468  19.091   0.033
69358W        W41684  20.618   3.479   0.886
69359W        W41685  28.480  25.727  14.526
69360W        W41686  37.800  32.590   0.432
69361W        W41687  38.694  21.561   1.715
69362W        W41688  43.233   2.048   3.789
69363W        W41689  29.601  40.921   0.275
69364W        W41690   7.580  26.630  13.095
69365W        W41691   5.481   3.402   1.277
69366W        W41692  43.778  32.659  11.573
69367W        W41693  33.460  13.045   4.404
69368W        W41694  32.060  13.054  13.380
69369W        W41695  17.689  13.130   2.379
69370W        W41696  37.899  41.359  10.780
69371W        W41697  18.751  16.690   3.361
69372W        W41698  15.779  15.074  12.561
69373W        W41699   5.642  25.012   3.662
69374W        W41700  11.620  41.761  11.431
69375W        W41701   8.805  42.547   3.321
69376W        W41702  35.781  39.386   1.087
69377W        W41703   8.868  16.097   1.811
69378W        W41704  18.769  17.147  10.692
69379W        W41705  27.190  24.603  12.762
69380W        W41706   3.510  23.516  10.679
69381W        W41707   5.790  33.553   4.231
69382W        W41708  28.134  14.385  11.792
69383W        W41709   6.847   6.323  14.921
69384W        W41710  41.850  22.533   2.778
69385W        W41711  37.704  39.986  11.422
69386W        W41712  43.056  12.250  14.042
69387W        W41713   4.124  28.067  10.108
69388W        W41714  24.041   1.913   3.875
69389W        W41715   5.316  43.057  12.817
69390W        W41716   1.548  23.305   3.373
69391W        W41717  16.567  36.252   3.313
69392W        W41718   1.538  15.161   0.218
69393W        W41719   0.879  34.029   0.002
69394W        W41720  11.210  25.715   1.296
69395W        W41721  40.257  21.482  13.521
69396W        W41722   1.378  31.492   2.637
69397W        W41723  35.708  18.946  11.445
69398W        W41724  26.801  43.797   4.551
69399W        W41725  10.765   4.110  10.669
69400W        W41726  24.487   7.825   3.101
69401W        W41727  42.515  36.950  13.499
69402W        W41728   4.100  11.584  12.085
69403W        W41729  38.548  10.410   1.776
69404W        W41730  26.753  26.443   5.311
69405W        W41731   4.712  26.399   4.985
69406W        W41732   4.038  37.909  13.490
69407W        W41733  39.766   3.275  12.647
69408W        W41734   8.404   1.088   3.595
69409W        W41735   1.086   6.148   4.993
69410W        W41736  42.798  32.927  11.553
69411W        W41737  32.628  27.758  14.950
69412W        W41738  40.346  21.082  13.180
69413W        W41739   8.199  42.407  11.413
69414W        W41740  26.061   1.869   4.233
69415W        W41741  30.556  17.087   2.172
69416W        W41742  26.636   8.438   1.780
69417W        W41743  21.121  16.881  13.554
69418W        W41744  19.289   7.399   3.128
69419W        W41745  11.877  42.753   0.330
69420W        W41746  32.585  31.028   3.172
69421W        W41747   5.694  20.300   1.749
69422W        W41748  34.923  14.753   2.007
69423W        W41749  25.985   9.269  12.377
69424W        W41750  24.991  36.632   0.367
69425W        W41751   0.456  34.862   3.613
69426W        W41752  19.544  16.533  14.857
69427W        W41753  40.383  32.252  14.335
69428W        W41754  27.630   2.786   1.330
69429W        W41755   5.051  10.157  13.565
69430W        W41756  27.601  44.069   2.960
69431W        W41757   3.434  18.691   3.936
69432W        W41758  36.453  35.046  10.163
69433W        W41759  38.385  26.609  11.673
69434W        W41760  12.742  17.678   2.199
69435W        W41761  22.524  17.297   0.304
69436W        W41762  22.491  11.453   2.157
69437W        W41763   2.428  25.089  13.449
69438W        W41764  37.419  23.503  14.329
69439W        W41765   5.896  44.840   4.548
69440W        W41766   0.783  30.118  14.022
69441W        W41767  16.720  11.702   1.658
69442W        W41768  34.422  44.015   2.260
69443W        W41769  12.604  30.726  11.944
69444W        W41770  39.653  21.085  14.867
69445W        W41771  27.493   0.222  12.893
69446W        W41772   5.991  12.739   3.633
69447W        W41773  30.058  33.585  11.452
69448W        W41774  16.389   8.973  11.475
69449W        W41775  38.858   3.292   4.686
69450W        W41776   2.302  15.839   0.437
69451W        W41777   3.420  27.981  14.806
69452W        W41778  37.562  19.077   2.846
69453W        W41779  23.501  22.920   2.774
69454W        W41780  34.896  41.420   0.505
69455W        W41781  28.555   6.243   4.774
69456W        W41782   6.925  34.659   1.257
69457W        W41783   0.464  42.365   0.423
69458W        W41784   2.316  32.350  13.904
69459W        W41785  26.415  34.175   3.177
69460W        W41786  26.742  15.230   4.405
69461W        W41787  12.818  29.885  11.234
69462W        W41788  25.511  23.112   2.948
69463W        W41789  41.543  22.322  13.336
69464W        W41790   7.695  35.117  11.107
69465W        W41791  22.056  26.638   1.478
69466W        W41792   6.396  22.206  13.461
69467W        W41793  27.249  23.053  11.268
69468W        W41794  31.483  41.770   3.298
69469W        W41795  33.647  19.039   0.810
69470W        W41796  42.004  38.041  11.993
69471W        W41797  18.649  34.657   3.652
69472W        W41798  17.601  22.749  12.633
69473W        W41799   7.732  24.019   1.325
69474W        W41800  18.733   4.566  13.547
69475W        W41801   0.353  32.105  13.340
69476W        W41802   9.801  16.789  14.860
69477W        W41803  38.323  13.090   1.022
69478W        W41804  16.550  24.505  13.017
69479W        W41805  26.533  14.064   3.774
69480W        W41806   2.325  31.612  11.088
69481W        W41807  25.901  13.213  14.485
69482W        W41808  14.173   7.849   2.833
69483W        W41809  23.517  22.585   4.543
69484W        W41810  20.620  38.172   3.642
69485W        W41811  17.681  25.428  14.806
69486W        W41812  23.283  36.100  12.073
69487W        W41813  26.966  44.712   3.386
69488W        W41814  40.988  35.270   4.974
69489W        W41815   8.248  33.020   0.524
69490W        W41816  39.021  15.750   2.655
69491W        W41817  14.152   7.787  11.459
69492W        W41818  43.689  34.025   0.980
69493W        W41819  21.972  27.779  12.564
69494W        W41820  15.237  13.135   0.369
69495W        W41821  13.188  29.458   2.745
69496W        W41822   0.058   0.443  13.164
69497W        W41823  36.507  41.367  13.867
69498W        W41824  39.044  25.197  10.283
69499W        W41825  13.613  37.497   4.639
69500W        W41826  20.539  34.973   3.132
69501W        W41827  22.026  33.763  13.508
69502W        W41828  42.082  30.907   1.191
69503W        W41829  23.625  30.995   1.691
69504W        W41830  35.091  11.603  12.953
69505W        W41831  38.350  24.975   1.805
69506W        W41832  34.408  26.249   3.947
69507W        W41833  10.362  19.242  13.984
69508W        W41834  34.887   9.707  13.791
69509W        W41835   0.309  12.530  13.843
69510W        W41836  41.065  22.048   0.401
69511W        W41837  27.294  23.326   1.002
69512W        W41838  24.655  25.869   4.214
69513W        W41839  14.736  29.462   2.371
69514W        W41840  22.868  42.929  11.505
69515W        W41841  25.248  20.500  10.427
69516W        W41842  29.977  14.096  13.080
69517W        W41843  22.632   1.696   0.313
69518W        W41844  15.305  35.931   0.576
69519W        W41845  40.748  33.498  14.814
69520W        W41846   5.904  23.306   3.803
69521W        W41847  21.128  38.895   5.208
69522W        W41848  21.702  32.748  12.164
69523W        W41849   5.191   1.323   3.095
69524W        W41850   8.847  29.897   4.875
69525W        W41851  30.945  19.727   2.106
69526W        W41852  30.492  36.352   4.662
69527W        W41853   0.184  24.149   0.649
69528W        W41854  18.693  20.208  13.880
69529W        W41855   3.402  28.656   2.364
69530W        W41856  14.567  42.570  14.094
69531W        W41857  14.780  33.001  14.812
69532W        W41858   3.916  21.450   1.805
69533W        W41859  40.117  29.087  10.652
69534W        W41860   8.046  26.065  13.509
69535W        W41861  40.769  32.124   2.400
69536W        W41862   2.425  24.031  10.184
69537W        W41863  14.281  35.355  10.507
69538W        W41864  26.502  42.458   3.146
69539W        W41865  17.096   2.460  11.536
69540W        W41866  44.273  25.412   2.657
69541W        W41867  31.547   0.233   0.319
69542W        W41868   7.797   1.586  11.417
69543W        W41869  18.421  41.587  12.538
69544W        W41870  44.990  12.313   0.922
69545W        W41871  40.836   7.679   4.550
69546W        W41872  10.112  16.786  14.455
69547W        W41873  42.428   2.360   2.911
69548W        W41874  29.093  40.853   3.646
69549W        W41875  22.744  38.364   1.203
69550W        W41876  26.060  33.410  13.306
69551W        W41877  13.055   7.642  10.688
69552W        W41878   6.224  30.896  14.192
69553W        W41879  33.380   1.181  11.967
69554W        W41880  24.348  43.418  11.328
69555W        W41881  35.280  28.085   3.385
69556W        W41882  29.023  30.111   0.161
69557W        W41883  30.683  40.042  12.493
69558W        W41884  34.560  26.408   4.814
69559W        W41885  41.314  38.540   1.396
69560W        W41886  33.825  40.525  11.098
69561W        W41887  13.878  31.066   3.161
69562W        W41888  29.638  16.131  14.347
69563W        W41889   3.037  13.217   3.654
69564W        W41890   9.600  42.886  13.099
69565W        W41891  27.339  35.657  11.298
69566W        W41892  43.719  35.557   4.807
69567W        W41893   1.382  35.753   1.825
69568W        W41894  12.076  14.391   3.703
69569W        W41895  27.656  20.769   3.750
69570W        W41896  24.683  36.022   0.871
69571W        W41897  30.020  35.045   3.017
69572W        W41898  20.165  27.953   4.659
69573W        W41899   5.238  31.440   1.557
69574W        W41900  36.626  44.775   3.904
69575W        W41901  35.178  13.818  10.829
69576W        W41902  36.920  35.995  12.632
69577W        W41903  17.038  13.161   4.732
69578W        W41904  39.498   2.775   1.784
69579W        W41905  19.986  13.470  11.662
69580W        W41906  19.974   3.705   2.860
69581W        W41907  23.268   3.008   3.874
69582W        W41908   3.459  33.545  11.564
69583W        W41909  33.593   9.116  11.675
69584W        W41910  40.052  10.781   0.750
69585W        W41911  26.891  17.213   0.408
69586W        W41912  18.515  22.388   5.000
69587W        W41913  27.218  39.882   2.262
69588W        W41914   3.879  34.912   4.821
69589W        W41915  35.882  42.347  12.861
69590W        W41916  39.517  19.311  14.865
69591W        W41917  38.647  34.074   3.160
69592W        W41918   9.211  24.255   1.779
69593W        W41919  28.159   4.750  10.763
69594W        W41920   4.842  21.953  11.464
69595W        W41921  18.228  40.360   0.073
69596W        W41922  16.182  14.144   1.445
69597W        W41923  40.439  25.465  10.546
69598W        W41924  10.746  23.936  13.223
69599W        W41925   7.775  44.534  14.406
69600W        W41926  30.282  35.090  13.775
69601W        W41927  32.551  37.503  14.426
69602W        W41928  33.473  16.799  10.106
69603W        W41929  41.492  36.963  13.525
69604W        W41930   0.624   2.270   0.115
69605W        W41931  12.827  19.072   1.439
69606W        W41932  11.154  13.667   0.216
69607W        W41933   5.154  10.335   2.509
69608W        W41934  31.789  36.068   4.066
69609W        W41935   3.462  44.396   0.790
69610W        W41936  11.574  25.260  12.382
69611W        W41937   2.705  16.233   1.857
69612W        W41938  23.495  15.616  11.579
69613W        W41939  40.861   7.969   2.731
69614W        W41940  22.206  19.646  11.373
69615W        W41941  38.153  14.383   2.567
69616W        W41942   5.822  41.546  11.232
69617W        W41943  18.757  19.474   1.747
69618W        W41944  43.727  18.681   3.519
69619W        W41945   7.662  43.051   5.146
69620W        W41946  10.430  42.764   3.680
69621W        W41947  20.786  20.459  11.104
69622W        W41948   8.214  11.134  10.694
69623W        W41949  36.094  11.574   1.664
69624W        W41950   6.736  42.369   4.905
69625W        W41951   3.378  17.093   4.179
69626W        W41952  26.961  29.506  12.051
69627W        W41953  29.624  35.380   3.231
69628W        W41954  44.003  25.684  12.122
69629W        W41955  42.015  26.378   3.128
69630W        W41956  41.323  35.343  11.257
69631W        W41957  37.459  13.438  11.322
69632W        W41958  22.942  39.981   9.533
69633W        W41959  14.615  32.213   2.397
69634W        W41960  22.985   5.756   4.658
69635W        W41961  43.026  18.252   0.350
69636W        W41962   0.322  38.560  10.600
69637W        W41963  29.087  39.354   2.591
69638W        W41964  31.732  14.681   3.136
69639W        W41965   5.421  40.849  13.462
69640W        W41966  30.233  22.051  13.613
69641W        W41967  17.202  33.513   0.758
69642W        W41968  12.307  20.306   3.726
69643W        W41969  19.053   5.823   4.173
69644W        W41970   7.381  19.007   2.852
69645W        W41971  42.732   7.332  13.516
69646W        W41972  10.463   6.697   1.474
69647W        W41973   7.567  29.239  11.619
69648W        W41974   2.607  34.861  12.515
69649W        W41975  11.943  13.304  11.760
69650W        W41976  26.907  13.255  11.177
69651W        W41977  12.807   0.965   3.408
69652W        W41978  26.563  32.922  12.041
69653W        W41979  32.615  11.779  11.680
69654W        W41980  18.810  20.530  12.321
69655W        W41981  41.020  42.848   0.106
69656W        W41982  36.869   8.826   0.482
69657W        W41983  21.161  20.100  13.753
69658W        W41984  41.350  20.517   4.811
69659W        W41985  29.180   8.816  11.877
69660W        W41986   4.738  15.371   1.871
69661W        W41987  28.074  12.129   3.084
69662W        W41988  14.739  10.656   0.739
69663W        W41989   2.428  15.361  14.168
69664W        W41990  43.304  35.694   2.398
69665W        W41991  30.301  22.533   2.662
69666W        W41992  15.311   8.306  14.813
69667W        W41993  27.178  36.958  11.463
69668W        W41994  14.693  21.232   0.665
69669W        W41995  20.166  26.587   0.041
69670W        W41996  21.738  14.883   2.289
69671W        W41997  41.878  11.363  13.501
69672W        W41998  43.304  30.871  10.522
69673W        W41999  34.758  24.979   2.451
69674W        W42000  28.493   0.644   1.237
69675W        W42001  16.525  33.259   1.649
69676W        W42002   3.199   2.189   4.318
69677W        W42003  10.690   3.845  14.930
69678W        W42004  10.206  33.175   3.545
69679W        W42005  27.367  36.029   2.807
69680W        W42006  19.451   8.904   4.071
69681W        W42007   9.704  15.345  12.377
69682W        W42008  17.124  40.601  14.443
69683W        W42009  10.749  13.786  12.421
69684W        W42010  29.490  34.102  14.915
69685W        W42011  38.366   7.759   2.646
69686W        W42012  21.561   0.288  12.358
69687W        W42013   4.719  23.218  14.520
69688W        W42014  25.042  34.363   2.718
69689W        W42015   1.278  26.998   3.344
69690W        W42016  41.820   0.855  13.131
69691W        W42017  41.479   0.070   1.218
69692W        W42018  14.760   3.151  13.500
69693W        W42019  11.107  24.398   0.036
69694W        W42020  37.782  32.071   1.631
69695W        W42021  28.235   3.016   4.905
69696W        W42022   7.560  34.974  13.600
69697W        W42023  39.847   2.277  14.964
69698W        W42024  32.425  38.813   0.758
69699W        W42025  14.124   2.307   2.328
69700W        W42026  38.581   1.171   0.505
69701W        W42027  14.836  21.574   2.013
69702W        W42028   8.847  26.930   0.715
69703W        W42029   7.861  42.019  14.503
69704W        W42030  16.606  32.258  11.876
69705W        W42031  22.125  34.724  13.134
69706W        W42032  44.830  36.410  14.920
69707W        W42033  13.629  43.258   3.142
69708W        W42034  20.273  35.940  10.794
69709W        W42035   3.924  27.875   1.219
69710W        W42036  10.200   2.971  14.997
69711W        W42037  38.904   6.963  10.600
69712W        W42038   4.403  32.541  13.949
69713W        W42039  42.397  18.156  11.228
69714W        W42040  18.171   4.460  12.001
69715W        W42041  16.518  39.490   3.139
69716W        W42042  19.446  15.276   2.435
69717W        W42043  43.396   5.212  13.020
69718W        W42044   3.708   1.396  13.296
69719W        W42045  17.280  25.511  14.485
69720W        W42046  22.080   2.863  14.214
69721W        W42047  13.858  32.039   2.715
69722W        W42048  12.221  35.683   0.033
69723W        W42049  32.975   8.805   3.753
69724W        W42050   5.827  16.812   0.506
69725W        W42051  32.156  10.339   3.231
69726W        W42052   7.431  37.888  12.674
69727W        W42053  14.560  17.991  14.973
69728W        W42054  43.222  37.208  14.533
69729W        W42055  10.854  14.111  14.501
69730W        W42056  23.924  26.980  10.790
69731W        W42057  31.484   7.944  13.395
69732W        W42058   0.960  20.883  12.445
69733W        W42059   3.325  15.128   4.194
69734W        W42060   9.712  41.073  11.043
69735W        W42061  27.217  37.004  10.925
69736W        W42062  31.625  11.612  12.718
69737W        W42063  40.879   3.929   1.949
69738W        W42064  27.869  24.069   3.987
69739W        W42065  15.238   9.486   2.310
69740W        W42066  15.149  30.281  12.517
69741W        W42067   8.411  37.921   4.853
69742W        W42068   1.819  16.018  14.708
69743W        W42069   2.912  24.094   5.441
69744W        W42070  44.995  17.705   2.205
69745W        W42071  33.042  15.779  13.352
69746W        W42072  15.817  24.395   2.958
69747W        W42073  20.969  41.252  12.725
69748W        W42074   2.861   4.776  11.012
69749W        W42075   1.735   2.759  12.556
69750W        W42076  43.323   9.096   0.326
69751W        W42077   8.603  38.464  14.754
69752W        W42078  33.581   8.899  10.714
69753W        W42079   6.582  28.554   0.717
69754W        W42080  21.277   0.420  10.310
69755W        W42081  43.374  20.149  13.135
69756W        W42082  36.409  29.745   4.329
69757W        W42083   6.995  43.944  11.608
69758W        W42084  14.315  43.409  11.917
69759W        W42085   1.938   4.218   4.382
69760W        W42086  42.803  25.034  12.231
69761W        W42087  21.441   8.241  11.623
69762W        W42088  30.614  41.257   0.226
69763W        W42089  27.241  41.721   4.760
69764W        W42090   4.262  42.263   1.854
69765W        W42091  25.872  28.409   1.438
69766W        W42092  32.963  43.558  13.547
69767W        W42093  10.219  18.568   3.723
69768W        W42094  29.713   5.438  11.908
69769W        W42095   1.727   5.215   0.700
69770W        W42096   4.924  38.946  11.627
69771W        W42097  19.576   1.486   2.828
69772W        W42098  38.813  44.239  12.542
69773W        W42099  19.396  24.131   3.112
69774W        W42100   1.999   2.988   0.427
69775W        W42101  26.204   5.743   1.870
69776W        W42102  32.792  15.689  14.252
69777W        W42103   0.195   7.432  11.165
69778W        W42104  36.235  35.372   9.793
69779W        W42105  16.089  38.049  11.289
69780W        W42106  44.014   2.271   1.954
69781W        W42107  35.323  23.554  11.021
69782W        W42108  27.211   9.375  14.502
69783W        W42109   5.577  12.799  12.505
69784W        W42110  11.345  31.458  13.912
69785W        W42111   5.523  23.602  12.092
69786W        W42112  42.118   6.149  12.593
69787W        W42113   5.457  44.828  14.460
69788W        W42114  40.136  44.320   2.768
69789W        W42115  37.358  35.165  12.460
69790W        W42116  16.898   6.215   5.051
69791W        W42117  13.790  16.095  13.401
69792W        W42118  14.025  43.018  12.133
69793W        W42119   6.196   6.791   4.703
69794W        W42120  15.082   2.266   3.301
69795W        W42121  11.320   8.415  10.940
69796W        W42122  14.048  22.962   0.708
69797W        W42123   4.830  21.760   3.635
69798W        W42124  37.348   9.854   0.915
69799W        W42125  42.989  10.934   4.149
69800W        W42126  24.408  22.775  12.406
69801W        W42127  18.104  33.802  13.832
69802W        W42128  13.256  28.141  10.302
69803W        W42129  35.153  28.652  11.296
69804W        W42130   4.695  12.204  13.493
69805W        W42131  24.265  37.840   3.325
69806W        W42132   2.382  16.098   3.874
69807W        W42133  14.663   2.671  13.637
69808W        W42134  42.301   4.683  11.220
69809W        W42135  11.851   0.739   0.693
69810W        W42136  17.201  21.036  13.920
69811W        W42137  36.557  26.792   0.311
69812W        W42138  33.149   3.455  11.567
69813W        W42139  15.153  31.600  12.999
69814W        W42140  26.185   1.429   4.471
69815W        W42141   6.804  40.215  12.992
69816W        W42142  38.789   8.785  11.850
69817W        W42143   3.934  20.553  13.886
69818W        W42144  24.052  30.615  14.016
69819W        W42145  11.236  34.434   3.327
69820W        W42146  39.180  25.030   4.334
69821W        W42147   7.337  15.137   3.056
69822W        W42148  27.640  23.965   0.037
69823W        W42149   9.336  27.780  12.818
69824W        W42150  39.944   7.807   1.782
69825W        W42151  37.131  36.286   3.809
69826W        W42152   3.696   2.167   1.309
69827W        W42153   6.868  25.704   3.693
69828W        W42154  36.915  33.327   4.137
69829W        W42155   2.962  44.017   4.952
69830W        W42156  34.365   9.929   2.339
69831W        W42157   7.712  18.566  13.329
69832W        W42158  31.899  33.768   3.421
69833W        W42159  34.128  22.436  11.696
69834W        W42160   2.401  19.590  13.315
69835W        W42161  12.736   3.678   4.447
69836W        W42162   1.777  21.059  13.423
69837W        W42163   4.652   3.505  14.328
69838W        W42164   9.204   1.507   0.335
69839W        W42165  40.008   2.915  13.762
69840W        W42166  38.682  27.602  14.002
69841W        W42167  25.239  38.800   0.356
69842W        W42168  29.463  43.391  12.587
69843W        W42169  11.280  10.110  11.469
69844W        W42170  21.243  25.791   0.072
69845W        W42171  22.995  35.789  10.447
69846W        W42172  26.427   8.817  10.562
69847W        W42173   1.403   6.805  14.220
69848W        W42174  22.697  29.984   0.724
69849W        W42175  19.206  34.370  12.513
69850W        W42176   4.798  35.388   3.895
69851W        W42177  43.514  16.823  12.046
69852W        W42178   8.876  11.205  13.798
69853W        W42179  19.233   1.338   1.595
69854W        W42180  42.194  28.565  11.877
69855W        W42181  38.995  32.706  14.819
69856W        W42182  24.119  21.632   2.455
69857W        W42183  26.251  42.003  14.466
69858W        W42184  14.206  29.431   4.527
69859W        W42185  20.423   0.194  13.384
69860W        W42186  23.057  27.194   3.796
69861W        W42187  27.861   8.664  13.705
69862W        W42188   8.783   7.135   4.566
69863W        W42189  28.726  26.465   4.014
69864W        W42190   5.785  31.421   2.232
69865W        W42191  26.567  14.505   1.943
69866W        W42192  40.988   8.196  11.090
69867W        W42193   7.089  26.041  11.900
69868W        W42194  21.559   7.025   4.256
69869W        W42195   0.065  21.549   4.117
69870W        W42196  44.238  19.116  12.063
69871W        W42197  35.985  14.298   5.072
69872W        W42198  38.509  11.384   2.357
69873W        W42199  41.088  11.297  14.203
69874W        W42200  31.033  43.379  14.435
69875W        W42201  14.747  42.323   1.996
69876W        W42202  21.345  18.054  12.958
69877W        W42203  27.344  19.046   2.339
69878W        W42204  26.115  19.619  11.358
69879W        W42205  33.716  20.589  14.172
69880W        W42206   0.482   6.019   4.498
69881W        W42207  34.394  27.721  13.511
69882W        W42208  10.429  25.211  11.025
69883W        W42209   4.538  16.565   3.250
69884W        W42210  15.515  11.913  11.119
69885W        W42211  35.322  31.319  14.526
69886W        W42212  10.798   3.999   1.815
69887W        W42213  20.087   8.366  11.284
69888W        W42214  33.072  22.382  11.121
69889W        W42215   3.890   1.498   4.553
69890W        W42216  34.364  21.799   4.536
69891W        W42217  25.668  26.559   3.086
69892W        W42218  20.850  30.512   4.562
69893W        W42219  11.813  11.462   5.128
69894W        W42220  14.869  39.510  14.789
69895W        W42221  24.259   9.493  12.403
69896W        W42222  28.681   1.999   1.918
69897W        W42223   3.848  32.976   4.186
69898W        W42224  22.156  16.020   1.921
69899W        W42225  37.350   0.212   3.366
69900W        W42226  10.226  36.902  11.634
69901W        W42227  26.541  15.565   0.698
69902W        W42228  15.168  35.816   2.916
69903W        W42229  24.288   4.776   9.972
69904W        W42230  22.546   8.552   4.028
69905W        W42231  38.092  15.335  12.030
69906W        W42232  44.541  11.809   3.183
69907W        W42233  21.795  21.045  10.959
69908W        W42234  16.352  37.838  13.743
69909W        W42235  17.105  37.976   1.171
69910W        W42236  33.528  23.239   2.288
69911W        W42237  40.423  35.504  11.036
69912W        W42238  23.290  33.301  12.007
69913W        W42239  28.387  26.241   1.772
69914W        W42240   5.082   8.299  14.883
69915W        W42241  37.280  12.706  14.439
69916W        W42242  43.504  31.640  12.513
69917W        W42243  38.805  41.921  11.050
69918W        W42244   3.020  37.545   2.835
69919W        W42245  23.982  42.335  12.888
69920W        W42246  31.629  24.728   0.034
69921W        W42247  19.513  12.308  12.052
69922W        W42248  38.922  23.780  14.736
69923W        W42249  42.724   4.794  13.417
69924W        W42250  30.456  20.202  12.355
69925W        W42251   8.387  13.401   4.734
69926W        W42252  12.522  39.505   1.446
69927W        W42253  21.498  18.760   5.083
69928W        W42254  11.175  21.003  14.395
69929W        W42255  18.636  21.468   4.771
69930W        W42256  20.055   6.834  13.587
69931W        W42257  11.087  43.016   2.867
69932W        W42258  20.547  32.386  11.621
69933W        W42259  39.469   2.584  14.579
69934W        W42260  30.938  21.269  11.618
69935W        W42261   8.301  15.764   3.084
69936W        W42262  13.362  35.411   4.439
69937W        W42263  17.380  30.945  11.058
69938W        W42264   8.861  33.165  10.814
69939W        W42265  19.718  17.495  13.684
69940W        W42266  25.611  24.752  12.469
69941W        W42267  37.871  10.782   3.772
69942W        W42268  19.437  24.131   0.785
69943W        W42269   8.668   1.263  13.805
69944W        W42270  40.694   3.699   3.775
69945W        W42271  21.249  19.458   2.763
69946W        W42272  41.698  40.594   1.658
69947W        W42273  28.514   1.865  13.813
69948W        W42274  30.122  34.590   3.340
69949W        W42275  28.490  40.330   4.619
69950W        W42276  37.526  39.768   1.759
69951W        W42277  43.011  26.554   5.076
69952W        W42278  19.483  27.126   4.170
69953W        W42279  16.817  15.503  13.415
69954W        W42280  33.643   6.812  11.413
69955W        W42281  36.785   9.313   0.695
69956W        W42282   8.690  35.047  12.932
69957W        W42283  10.333  36.293   1.344
69958W        W42284   9.810  22.989   1.735
69959W        W42285  19.605  34.909   1.773
69960W        W42286  28.006   3.999   2.281
69961W        W42287  39.842  20.640  12.476
69962W        W42288  12.929  30.493  11.603
69963W        W42289  14.588  36.553   3.660
69964W        W42290  27.790  26.948   0.041
69965W        W42291  28.488  19.073   1.498
69966W        W42292  34.948  33.875  10.188
69967W        W42293   8.707  25.073  13.051
69968W        W42294   9.132  32.535  14.017
69969W        W42295  43.962  38.848   2.334
69970W        W42296  36.437  27.127   4.482
69971W        W42297  33.715  18.420  14.328
69972W        W42298   3.958   9.691  10.710
69973W        W42299  29.764   4.850  12.499
69974W        W42300  25.974  39.462  10.541
69975W        W42301   6.424  33.560   0.777
69976W        W42302  12.498   6.364  13.305
69977W        W42303  44.170  14.087   2.770
69978W        W42304  15.297   3.472   0.755
69979W        W42305  22.195  29.102  10.696
69980W        W42306  26.560  34.704  12.540
69981W        W42307  13.038  30.068   0.798
69982W        W42308  36.887  35.887   0.345
69983W        W42309  20.680  36.350  14.784
69984W        W42310  41.249   8.603   0.729
69985W        W42311  41.452  32.122   1.884
69986W        W42312  38.051  32.989   2.871
69987W        W42313  38.967  30.419   2.848
69988W        W42314  23.258   4.415  14.926
69989W        W42315  29.688  31.328  14.994
69990W        W42316  14.191   2.511   0.275
69991W        W42317  19.894  16.541  11.598
69992W        W42318  15.783  43.290   0.246
69993W        W42319  14.183   0.384   4.786
69994W        W42320   5.683  42.850  11.550
69995W        W42321   5.884   3.769  11.005
69996W        W42322  32.974  39.539   2.615
69997W        W42323  15.168  41.280  13.075
69998W        W42324  27.424  13.110   2.818
69999W        W42325  23.754  30.862  10.689
70000W        W42326  18.531  40.719   3.624
70001W        W42327  19.175  42.786  11.402
70002W        W42328  17.348   5.271   0.934
70003W        W42329  18.176   7.612  12.020
70004W        W42330  40.468   6.765   1.511
70005W        W42331  16.087  39.800  11.388
70006W        W42332  15.883  34.999   4.598
70007W        W42333  16.042  31.870   1.970
70008W        W42334  43.876   5.577  13.312
70009W        W42335  13.127  11.845  14.888
70010W        W42336   0.465  20.690  12.922
70011W        W42337  29.483  23.699  14.498
70012W        W42338  32.554  24.684  14.321
70013W        W42339  15.003  25.249   9.726
70014W        W42340   9.151  18.762   1.987
70015W        W42341   2.760  14.192   3.726
70016W        W42342  11.077  23.695   3.119
70017W        W42343   8.335  40.917  12.927
70018W        W42344  12.813   5.945  11.482
70019W        W42345  42.361  26.968   2.668
70020W        W42346   2.704  15.076   2.248
70021W        W42347  14.892  37.944  10.710
70022W        W42348   3.884  41.723   3.563
70023W        W42349  42.547   1.275  10.726
70024W        W42350  19.239  42.536  11.876
70025W        W42351  24.155   9.178   3.048
70026W        W42352  17.208  32.030  13.561
70027W        W42353   3.914   0.296   2.184
70028W        W42354  14.038  22.101  10.561
70029W        W42355  43.471  37.034  11.531
70030W        W42356  25.659  43.849   1.681
70031W        W42357  42.109  10.190   0.094
70032W        W42358   8.870  10.881   2.433
70033W        W42359   2.190  34.986  14.085
70034W        W42360  33.138  29.042  12.806
70035W        W42361  24.383  19.852   0.769
70036W        W42362   2.557  40.438   4.659
70037W        W42363  11.266  18.922  11.248
70038W        W42364  28.654   3.908  11.897
70039W        W42365  41.793   2.089  10.663
70040W        W42366  41.426  19.782   3.222
70041W        W42367  31.127  18.321  14.297
70042W        W42368  20.916   1.474   0.547
70043W        W42369  40.333  19.655  14.745
70044W        W42370  30.751  38.920  14.842
70045W        W42371  32.042  20.755  13.203
70046W        W42372  36.324  30.341  13.455
70047W        W42373  40.741  33.478   4.325
70048W        W42374  11.763  10.205  11.349
70049W        W42375  34.054  15.756   4.124
70050W        W42376  11.836  18.067   4.188
70051W        W42377   5.757  22.245  11.895
70052W        W42378  14.538   3.268  10.810
70053W        W42379  26.867  40.760  11.172
70054W        W42380  21.168  22.430   1.355
70055W        W42381   8.607   2.536   4.312
70056W        W42382  23.496  29.457  11.717
70057W        W42383  22.638  31.663   0.506
70058W        W42384  44.840  25.652   3.798
70059W        W42385  21.699  30.350   3.268
70060W        W42386  11.659  22.591   0.437
70061W        W42387  28.657  15.233   4.904
70062W        W42388  16.464  14.515  13.614
70063W        W42389  20.216  26.508   2.825
70064W        W42390   4.318  13.188  14.459
70065W        W42391   3.769  35.083  14.824
70066W        W42392  41.264   5.685   2.645
70067W        W42393  39.280  17.546   4.130
70068W        W42394  37.116  24.170   1.809
70069W        W42395  26.602   0.600  14.806
70070W        W42396  16.138   9.678  13.144
70071W        W42397  23.053  14.215  13.120
70072W        W42398  11.308  15.686  14.753
70073W        W42399  15.100  35.819   9.486
70074W        W42400   8.741  31.912   5.205
70075W        W42401  21.500   4.778  11.117
70076W        W42402  25.585   7.685   5.115
70077W        W42403  21.308   6.287  11.985
70078W        W42404  12.404  31.569  11.597
70079W        W42405   2.767   3.461  12.788
70080W        W42406  44.846  18.246   0.170
70081W        W42407   0.991   8.593   3.719
70082W        W42408   8.908  23.460  13.361
70083W        W42409  30.531  33.843   3.444
70084W        W42410  29.115  25.051   1.404
70085W        W42411  29.599  30.983  12.672
70086W        W42412  39.306  26.679  12.407
70087W        W42413   8.382  41.397   3.857
70088W        W42414  15.511   1.158  14.275
70089W        W42415  34.542   3.573  12.909
70090W        W42416  24.556  33.443  12.210
70091W        W42417  27.078  21.340   1.275
70092W        W42418  15.287  25.114  13.130
70093W        W42419  20.506  26.299   3.195
70094W        W42420  13.999   3.372  10.734
70095W        W42421  24.594  21.711   1.022
70096W        W42422   4.984  25.689  10.574
70097W        W42423  44.464   4.999  14.299
70098W        W42424  20.491  22.752   4.636
70099W        W42425  20.551  10.791   1.663
70100W        W42426  28.250   6.937   2.210
70101W        W42427  27.211   3.434   1.694
70102W        W42428  39.812  19.300   0.308
70103W        W42429  23.925  43.508   0.865
70104W        W42430  14.783  11.880  13.724
70105W        W42431  42.424   1.383   3.719
70106W        W42432   6.153  33.827   1.134
70107W        W42433  21.069  36.608  12.592
70108W        W42434  22.295   1.949   3.598
70109W        W42435  17.490  24.738  14.026
70110W        W42436   3.554  28.891  12.068
70111W        W42437   3.809  36.534  13.345
70112W        W42438  26.501  42.778   1.324
70113W        W42439  44.322   0.926  13.507
70114W        W42440  33.188   4.516   0.834
70115W        W42441  43.335  25.205  11.509
70116W        W42442   6.338   8.335   1.703
70117W        W42443  33.814  31.551   1.024
70118W        W42444  18.193  14.069   3.784
70119W        W42445  21.666  14.133   2.756
70120W        W42446  31.355  38.312  14.358
70121W        W42447  34.024  43.706  11.156
70122W        W42448  20.044  36.357   1.951
70123W        W42449  19.075  37.942  11.182
70124W        W42450  29.706   0.023   0.751
70125W        W42451  18.943  44.944   1.363
70126W        W42452   1.924   0.647  10.594
70127W        W42453  41.810  40.428   3.662
70128W        W42454  24.572  17.965  10.181
70129W        W42455  36.501  44.401  14.645
70130W        W42456  23.364  20.069  13.259
70131W        W42457   7.487  15.838   1.362
70132W        W42458  18.132  11.783   3.892
70133W        W42459  35.480  40.472  13.547
70134W        W42460  35.259  16.038   1.178
70135W        W42461  25.144  33.362   0.241
70136W        W42462  33.383   5.804  13.602
70137W        W42463  44.320   5.610  12.045
70138W        W42464   4.883  15.524  11.404
70139W        W42465  37.304  27.109   4.566
70140W        W42466  35.016  15.899  10.332
70141W        W42467  31.558  30.031  14.092
70142W        W42468   8.587   4.189   3.663
70143W        W42469  38.605   8.929   0.110
70144W        W42470  34.575  43.491  11.424
70145W        W42471  30.108  25.433  11.507
70146W        W42472  29.161  43.114  11.112
70147W        W42473  11.507   9.124  14.786
70148W        W42474   3.329  29.217  13.837
70149W        W42475  32.154  36.973   4.893
70150W        W42476  27.674  16.652   0.795
70151W        W42477  11.800  13.614  14.891
70152W        W42478  32.213   8.673   2.167
70153W        W42479   3.291   2.709  11.305
70154W        W42480  41.829  12.242  12.955
70155W        W42481  24.745  10.775   1.517
70156W        W42482  19.049   5.780  14.781
70157W        W42483  14.231  20.908   5.349
70158W        W42484  13.334  39.043   4.398
70159W        W42485  21.602  41.987   3.351
70160W        W42486  25.114  32.536  12.568
70161W        W42487   9.339   6.850  11.560
70162W        W42488   6.256  13.215   2.273
70163W        W42489  40.767   9.341  12.507
70164W        W42490  10.448  32.853   1.288
70165W        W42491   6.317  30.469  14.485
70166W        W42492  24.553  42.698   4.319
70167W        W42493  24.062  14.985   3.990
70168W        W42494  28.952  44.237   4.166
70169W        W42495  31.500  37.423  11.627
70170W        W42496  22.290  11.897  11.676
70171W        W42497  40.453  11.537  12.167
70172W        W42498  24.121  17.375   1.429
70173W        W42499  25.292  33.820   1.875
70174W        W42500  10.997  15.716   2.387
70175W        W42501   7.399  32.040   1.829
70176W        W42502   1.890  20.984   4.199
70177W        W42503  39.047  29.299   9.881
70178W        W42504   1.424  29.798   3.296
70179W        W42505   2.869  16.217   4.026
70180W        W42506  19.286  34.800  13.425
70181W        W42507  10.697  21.317  14.935
70182W        W42508  38.856  24.227   0.834
70183W        W42509  31.117   8.694  12.971
70184W        W42510  35.794  26.547  12.948
70185W        W42511  25.681   6.248   2.195
70186W        W42512  10.677  16.622   1.802
70187W        W42513  14.658   9.782   4.778
70188W        W42514  10.246   1.768  13.522
70189W        W42515  37.326  19.518   3.103
70190W        W42516  17.539  29.052   0.746
70191W        W42517  39.859  18.675   1.994
70192W        W42518  42.327  27.770  12.426
70193W        W42519  42.328  41.407   0.940
70194W        W42520  42.202  37.953  13.324
70195W        W42521  27.175  15.231   4.122
70196W        W42522   9.631  20.044  12.939
70197W        W42523   3.771  29.292  10.448
70198W        W42524  32.684  13.608   0.955
70199W        W42525  23.712   9.304   3.845
70200W        W42526  31.856  23.697   3.263
70201W        W42527   7.552   9.293   1.957
70202W        W42528  25.524  34.594   2.786
70203W        W42529  26.458  23.198  13.207
70204W        W42530  37.364  38.429  12.975
70205W        W42531  21.063  33.991   0.005
70206W        W42532  17.631  35.953   3.927
70207W        W42533  22.744  22.020  13.387
70208W        W42534   7.457  39.283   2.637
70209W        W42535  14.740  29.354  10.706
70210W        W42536   1.869  29.424   3.847
70211W        W42537  16.598  15.761   4.032
70212W        W42538   5.074  18.180   1.370
70213W        W42539  12.711  34.204  13.403
70214W        W42540  24.141  44.349  12.042
70215W        W42541  22.039   5.761   4.307
70216W        W42542  20.411  31.003   1.697
70217W        W42543   6.296  24.702  12.387
70218W        W42544  16.114  20.576   3.640
70219W        W42545   0.011  13.654   4.618
70220W        W42546  44.719  19.626   4.256
70221W        W42547  27.997   1.971  12.910
70222W        W42548  32.447   7.676   3.344
70223W        W42549  34.362  38.516  13.369
70224W        W42550  44.847  31.651  11.945
70225W        W42551  42.052  32.626   3.201
70226W        W42552  13.774  20.159  11.202
70227W        W42553  27.123   3.500  13.089
70228W        W42554  21.149  10.398  10.188
70229W        W42555   7.159  15.669   0.985
70230W        W42556   4.064  31.486   0.359
70231W        W42557   2.852  39.776  12.041
70232W        W42558  12.374  19.133  12.566
70233W        W42559  28.482  16.942  11.571
70234W        W42560  31.945  34.040  12.416
70235W        W42561  19.263  36.538  12.321
70236W        W42562  15.108  28.548  11.624
70237W        W42563   5.794   9.644   2.799
70238W        W42564  25.080  43.899   3.904
70239W        W42565  43.746   9.848   3.629
70240W        W42566  35.585  14.823  10.698
70241W        W42567  43.589  14.646  14.451
70242W        W42568  41.337   3.260  13.491
70243W        W42569  43.743  25.082  14.313
70244W        W42570   6.171  24.480   3.186
70245W        W42571  19.123  16.463   3.708
70246W        W42572  36.325   2.758   0.956
70247W        W42573   0.993  20.926   4.198
70248W        W42574  35.595  11.680   2.452
70249W        W42575  42.911  27.531   4.587
70250W        W42576  25.855  43.367   1.675
70251W        W42577  30.515  26.999  12.611
70252W        W42578  12.283  35.591  12.982
70253W        W42579   3.890   0.695   1.420
70254W        W42580  33.936  20.004  11.772
70255W        W42581  35.979  43.896  11.002
70256W        W42582  18.780  21.909   2.582
70257W        W42583  41.551   6.763  13.854
70258W        W42584  30.543  12.616  11.914
70259W        W42585  39.241   2.932   2.218
70260W        W42586  18.666  25.795   1.430
70261W        W42587  29.343  18.116   0.929
70262W        W42588  33.140  21.567   1.133
70263W        W42589  43.960  29.503   1.166
70264W        W42590  12.803   2.028   1.854
70265W        W42591  36.855   2.258   4.538
70266W        W42592  36.935   8.687  12.108
70267W        W42593  37.860  36.378  11.444
70268W        W42594   7.848  32.261   1.017
70269W        W42595  42.546  10.390  12.399
70270W        W42596  14.556  28.431   2.833
70271W        W42597  14.303  11.033  13.545
70272W        W42598  40.147   6.622   4.543
70273W        W42599  33.015   2.497  12.305
70274W        W42600  22.074  38.100   4.277
70275W        W42601  43.126   5.266   4.644
70276W        W42602   4.474   9.741  10.571
70277W        W42603   1.929  27.988   2.775
70278W        W42604  25.771   9.771   2.328
70279W        W42605   7.640  40.645  11.563
70280W        W42606   8.842  28.057  10.643
70281W        W42607  33.686  11.627  14.329
70282W        W42608   1.594  36.635  11.116
70283W        W42609  34.147  41.963   1.461
70284W        W42610  21.162  41.907   2.455
70285W        W42611  24.232   3.947   3.408
70286W        W42612  32.093  13.065  11.466
70287W        W42613  29.129  40.318  14.655
70288W        W42614   1.920   9.634   0.861
70289W        W42615   7.977   5.118   0.746
70290W        W42616  25.962  39.038   1.557
70291W        W42617  11.859  37.936  14.854
70292W        W42618  13.098  13.342   2.408
70293W        W42619   8.169  38.982   0.850
70294W        W42620  14.137  24.268  12.383
70295W        W42621  33.965  35.987  14.956
70296W        W42622   7.626   7.276   2.196
70297W        W42623  10.134   2.615  11.077
70298W        W42624  35.132   1.811   0.329
70299W        W42625   9.755  21.450  12.059
70300W        W42626  17.648  34.128  11.266
70301W        W42627  39.773  14.328  11.774
70302W        W42628  36.451  16.274  12.967
70303W        W42629  39.330  27.167   0.331
70304W        W42630  27.587  30.889   4.283
70305W        W42631  14.525   6.784  10.709
70306W        W42632  14.720  23.682   0.728
70307W        W42633  28.884  12.189  13.565
70308W        W42634  44.233  43.797   0.342
70309W        W42635  28.438   0.827   4.434
70310W        W42636   3.337   5.995   5.073
70311W        W42637  31.922  41.841   2.931
70312W        W42638  20.623  38.423   0.359
70313W        W42639  17.515  42.374  14.446
70314W        W42640  42.818  23.154  13.906
70315W        W42641  27.809  21.269   0.325
70316W        W42642  24.295  44.741   2.145
70317W        W42643  35.405  10.243   4.644
70318W        W42644  14.323   6.545  11.998
70319W        W42645  33.881   3.002   2.922
70320W        W42646  25.325  30.978   3.586
70321W        W42647   1.310  11.920  12.371
70322W        W42648  16.126  15.315   3.636
70323W        W42649   2.903  43.896   3.350
70324W        W42650  43.854  31.253  13.471
70325W        W42651  35.345  21.273  14.960
70326W        W42652  44.111  31.843  14.382
70327W        W42653  17.300  34.307   2.714
70328W        W42654   1.331  43.799   0.074
70329W        W42655  44.925  16.452   4.824
70330W        W42656  37.098  13.024   4.607
70331W        W42657  32.617  37.083  14.923
70332W        W42658  33.517   4.925  13.469
70333W        W42659  26.030  26.221   1.301
70334W        W42660  12.124  30.495  12.140
70335W        W42661   9.930  12.194  11.669
70336W        W42662  37.883  21.977  11.144
70337W        W42663  30.045  15.993  10.761
70338W        W42664   1.041  41.949   1.390
70339W        W42665  41.484   2.879  11.612
70340W        W42666  26.087   8.227   3.161
70341W        W42667   3.898  18.711   0.319
70342W        W42668   8.623  41.498  11.168
70343W        W42669  10.874  34.812  12.970
70344W        W42670  23.359   5.408  11.855
70345W        W42671  34.841  34.379   4.165
70346W        W42672  15.090  23.949   4.086
70347W        W42673  39.003  19.787  13.170
70348W        W42674  33.388  31.683  14.483
70349W        W42675  35.478  24.631   0.778
70350W        W42676  43.919  24.024   4.317
70351W        W42677  24.570  37.909   2.404
70352W        W42678  33.982  30.218   3.840
70353W        W42679   1.327  38.970  11.181
70354W        W42680  33.778  38.937  11.924
70355W        W42681  23.017  36.742  12.561
70356W        W42682   6.446   3.677  14.299
70357W        W42683  28.651  27.850   4.956
70358W        W42684   0.817  17.194   2.037
70359W        W42685   4.684  43.737  12.916
70360W        W42686   0.841  15.713   2.255
70361W        W42687  28.584  38.629  12.617
70362W        W42688  23.179  31.369  11.622
70363W        W42689  14.890  39.605  13.462
70364W        W42690   5.389  37.196   0.885
70365W        W42691   4.148  28.110  12.388
70366W        W42692  21.052  34.997  13.960
70367W        W42693  40.271  28.460  11.611
70368W        W42694  31.843   3.458  13.660
70369W        W42695   1.868  27.736   1.830
70370W        W42696  43.737   0.672  13.107
70371W        W42697  12.744   8.395   0.627
70372W        W42698   0.460  23.482   4.461
70373W        W42699  11.126  38.916  12.345
70374W        W42700  33.499  30.921   3.345
70375W        W42701  27.967  29.211   2.370
70376W        W42702  25.612  26.250   4.445
70377W        W42703  10.992  37.522  13.686
70378W        W42704   3.661   9.307  12.981
70379W        W42705   5.290  41.073   0.432
70380W        W42706   4.816   7.995   5.104
70381W        W42707  32.956   4.753  12.648
70382W        W42708   6.697   1.457  10.589
70383W        W42709  44.025  27.881  13.882
70384W        W42710   6.570  23.814  11.049
70385W        W42711   7.937   7.222  12.984
70386W        W42712  40.453  14.123  13.407
70387W        W42713  41.963  44.361  11.942
70388W        W42714  15.089  28.181   1.505
70389W        W42715  44.598  29.460  10.618
70390W        W42716  28.582  39.459   4.488
70391W        W42717  24.021  28.556  14.223
70392W        W42718  38.759  17.526  11.528
70393W        W42719  36.492  35.140   4.070
70394W        W42720   8.404   6.387   1.811
70395W        W42721   0.894  14.923  11.453
70396W        W42722  22.376   9.314   4.713
70397W        W42723   8.710  21.301   0.314
70398W        W42724  32.971  12.592   0.331
70399W        W42725  37.349  24.004   4.479
70400W        W42726   9.212  13.207  10.193
70401W        W42727  16.261  17.692   4.578
70402W        W42728  32.666  27.795   3.685
70403W        W42729  41.718  15.062  11.960
70404W        W42730  18.780  38.989  14.993
70405W        W42731   7.640  39.954  13.572
70406W        W42732  44.088  17.254   4.872
70407W        W42733  21.985  15.062  11.752
70408W        W42734   3.050   6.775   0.682
70409W        W42735  35.543  25.277  11.888
70410W        W42736  34.066  14.149   3.882
70411W        W42737  17.194  28.543  10.850
70412W        W42738  39.291   5.805   3.863
70413W        W42739  33.472  34.707   5.529
70414W        W42740  40.224  34.403   1.402
70415W        W42741  32.914  28.633   1.266
70416W        W42742  22.525   1.673   1.214
70417W        W42743  13.930  13.077  11.579
70418W        W42744  26.444  26.044  13.419
70419W        W42745   6.753  17.196  13.801
70420W        W42746  10.897  10.936  13.268
70421W        W42747  31.708  20.182   0.667
70422W        W42748  35.390  36.361   2.296
70423W        W42749   8.381  32.942  13.060
70424W        W42750  22.067  22.229  13.415
70425W        W42751  41.938  13.790   4.501
70426W        W42752  31.471  20.069  10.850
70427W        W42753  39.552  36.845  12.590
70428W        W42754  28.787  33.592   2.115
70429W        W42755  43.478   0.987   4.651
70430W        W42756  17.650  17.658  13.482
70431W        W42757  28.482  23.964  13.882
70432W        W42758  19.576  10.499   5.137
70433W        W42759  44.781  14.840  10.632
70434W        W42760  44.669  27.072  11.974
70435W        W42761   7.859  29.092  11.222
70436W        W42762  26.474  33.547  14.847
70437W        W42763  17.502  24.844   1.755
70438W        W42764  24.642  30.028  11.387
70439W        W42765  24.185  37.691   0.442
70440W        W42766  34.750  36.359   5.148
70441W        W42767   4.739  14.223   3.173
70442W        W42768  38.881  38.344   2.465
70443W        W42769  15.796   4.042   2.524
70444W        W42770   7.852  20.074   4.072
70445W        W42771   5.256  42.902  14.293
70446W        W42772  39.544  34.069   4.567
70447W        W42773  39.732   6.277   2.409
70448W        W42774   5.198  27.704   2.855
70449W        W42775   2.480  38.387  11.729
70450W        W42776   2.491  40.935   5.170
70451W        W42777  34.656  36.390   1.268
70452W        W42778  26.477  28.220   4.649
70453W        W42779  22.511  33.950  10.567
70454W        W42780  42.731  25.185   3.195
70455W        W42781   8.405  13.231  14.946
70456W        W42782  27.895  28.752   5.072
70457W        W42783   6.842  24.804   1.903
70458W        W42784   3.362  24.017   0.131
70459W        W42785   2.653  20.974  13.476
70460W        W42786  37.137  20.570  13.979
70461W        W42787  18.111  31.349  13.052
70462W        W42788  39.819   4.684  13.104
70463W        W42789   0.059  14.597  13.423
70464W        W42790  14.252  24.992  11.882
70465W        W42791  35.087  13.205   2.647
70466W        W42792   3.240  44.283  11.894
70467W        W42793   1.969  28.177  14.967
70468W        W42794   5.451  41.049  14.308
70469W        W42795   7.387  41.517   1.889
70470W        W42796  38.441  12.780   4.763
70471W        W42797  25.797  11.327   0.458
70472W        W42798  20.159  19.491   1.837
70473W        W42799   0.623  10.803  14.992
70474W        W42800   7.617  22.623  11.587
70475W        W42801  29.555  22.125   3.241
70476W        W42802  11.255  16.104   3.321
70477W        W42803  19.921  11.782  14.183
70478W        W42804  30.123   6.852  13.607
70479W        W42805   1.603  20.282   2.853
70480W        W42806  44.946  13.212   1.323
70481W        W42807  40.937  26.991   4.408
70482W        W42808  17.090   3.450  13.381
70483W        W42809  32.436  28.507   0.403
70484W        W42810  40.291  39.345  13.431
70485W        W42811   3.030   2.333  11.513
70486W        W42812  24.906  27.601   4.346
70487W        W42813  44.746  29.860   1.744
70488W        W42814  32.010   9.203   0.470
70489W        W42815  32.431   0.594   0.763
70490W        W42816  25.516   8.665   1.505
70491W        W42817   0.343   4.544   0.747
70492W        W42818   7.825   1.543  12.884
70493W        W42819   0.715  12.623   3.715
70494W        W42820  18.379  26.136  14.819
70495W        W42821  31.599  19.058  10.701
70496W        W42822  24.076  33.647   4.544
70497W        W42823  39.560  29.673   3.736
70498W        W42824  10.682   2.214   2.167
70499W        W42825  24.573  20.426   4.005
70500W        W42826  21.313  25.667  13.373
70501W        W42827  43.836   9.231  14.390
70502W        W42828  27.663  22.107   0.805
70503W        W42829  13.133   3.731  11.211
70504W        W42830  43.045  20.767  14.254
70505W        W42831  15.270  12.564  11.926
70506W        W42832  10.437   4.746  13.089
70507W        W42833  13.751  18.464  10.630
70508W        W42834  40.528  26.614   0.839
70509W        W42835  31.467   6.791   2.721
70510W        W42836  10.704  34.303  13.900
70511W        W42837  42.429  26.021   0.877
70512W        W42838  10.349   4.454   3.281
70513W        W42839  44.392  11.337  11.484
70514W        W42840  38.227  40.274  14.790
70515W        W42841  15.601   0.483  11.963
70516W        W42842  44.099   9.069   1.801
70517W        W42843  43.104  20.598   1.771
70518W        W42844  32.171  34.975  14.479
70519W        W42845  17.762   6.702   3.783
70520W        W42846  34.287  33.938   2.836
70521W        W42847  12.067  38.089   0.315
70522W        W42848  10.188  42.329   1.506
70523W        W42849  28.675  34.951  11.475
70524W        W42850  41.877  13.323   1.187
70525W        W42851  18.253  44.909  13.849
70526W        W42852   0.742  44.611   0.396
70527W        W42853  19.665  33.579   2.300
70528W        W42854  24.590  13.600   0.431
70529W        W42855  17.019  24.025   1.654
70530W        W42856  32.367  43.203  12.592
70531W        W42857   7.804  43.009  10.180
70532W        W42858  44.499  32.630  14.024
70533W        W42859  28.680  11.266   2.904
70534W        W42860   0.494   2.877   4.670
70535W        W42861   9.278   4.339  10.812
70536W        W42862  15.142   9.314   4.875
70537W        W42863  38.066  28.622   2.448
70538W        W42864  34.599  28.755  13.643
70539W        W42865  35.875  29.560   5.075
70540W        W42866  15.817   2.528   3.238
70541W        W42867  34.372  17.249   0.568
70542W        W42868  26.219   3.414   1.914
70543W        W42869   8.267  15.130   2.157
70544W        W42870  28.640  15.760  13.960
70545W        W42871  36.066   0.988   4.863
70546W        W42872  43.304  29.922  10.939
70547W        W42873  14.597  32.446  10.715
70548W        W42874  29.185  20.156  13.960
70549W        W42875  29.923  39.388  10.973
70550W        W42876  16.051  18.503   1.790
70551W        W42877  25.238  16.713   1.335
70552W        W42878  16.478  35.532  13.302
70553W        W42879  29.352  22.884   0.731
70554W        W42880  15.777   3.947  12.986
70555W        W42881  44.793  11.209   0.758
70556W        W42882  38.963   1.770  14.469
70557W        W42883  28.046  44.719  13.368
70558W        W42884  44.463  11.314   0.273
70559W        W42885   7.218  13.353  11.984
70560W        W42886   4.142   7.330  14.812
70561W        W42887  39.529  11.299  13.057
70562W        W42888  19.060  36.083  12.542
70563W        W42889  24.141   3.454   0.742
70564W        W42890  20.572   3.633   4.360
70565W        W42891  33.344  30.647  14.469
70566W        W42892  37.613  23.241  11.591
70567W        W42893  42.103  25.228  11.200
70568W        W42894   8.721  43.839   0.047
70569W        W42895  22.626  38.320  12.065
70570W        W42896  23.110  14.809   1.379
70571W        W42897  27.055  40.527  11.608
70572W        W42898   2.222   4.698  11.440
70573W        W42899  24.678  29.161   3.586
70574W        W42900  16.329  19.250  12.416
70575W        W42901   3.759  32.295   3.173
70576W        W42902  19.804  14.502   4.538
70577W        W42903  37.856  41.004  10.405
70578W        W42904  25.697  20.103  11.971
70579W        W42905  23.004  22.746   2.704
70580W        W42906  25.521   3.921  14.869
70581W        W42907   8.288  39.373   1.176
70582W        W42908  36.563  31.145   1.275
70583W        W42909  41.895  38.877  14.503
70584W        W42910  38.894  23.723   0.927
70585W        W42911   2.241   7.241   0.244
70586W        W42912  21.985  18.133   2.713
70587W        W42913  27.351  41.410   2.421
70588W        W42914  20.532  36.577   0.218
70589W        W42915   6.907  39.371   1.413
70590W        W42916  33.438  23.767  14.947
70591W        W42917  33.008  37.976   4.811
70592W        W42918  36.639  36.027   0.813
70593W        W42919  44.775  44.827  11.568
70594W        W42920  35.431  27.784  14.960
70595W        W42921  26.459  26.003   4.067
70596W        W42922  35.130  12.951  11.133
70597W        W42923  31.989  33.968  11.892
70598W        W42924  36.712  16.012   5.038
70599W        W42925   1.489  41.445  10.710
70600W        W42926  40.029  23.093   2.673
70601W        W42927  19.752  20.179  14.690
70602W        W42928  11.751  41.856  14.048
70603W        W42929  39.319  12.868  12.569
70604W        W42930  17.198  37.860  11.911
70605W        W42931   9.406  30.257  12.868
70606W        W42932  23.708  10.578  14.893
70607W        W42933  25.072   4.376   4.308
70608W        W42934  18.684  44.265   5.155
70609W        W42935   5.951   2.686  13.596
70610W        W42936  21.019  18.523   1.735
70611W        W42937  37.088   9.257   0.227
70612W        W42938   1.673  36.167  12.063
70613W        W42939  15.495   3.546   3.141
70614W        W42940  14.806   4.901  12.972
70615W        W42941  15.623  23.976   1.903
70616W        W42942  39.881  12.119   1.318
70617W        W42943  24.752  11.166   2.274
70618W        W42944   4.324  16.345  11.295
70619W        W42945  30.699   8.340  14.401
70620W        W42946  16.178  11.253   4.088
70621W        W42947   0.386  43.894  13.349
70622W        W42948  34.878  23.788   0.048
70623W        W42949   1.131   3.276   2.203
70624W        W42950   8.810  22.710  12.444
70625W        W42951   1.426  15.352  10.755
70626W        W42952  18.089  21.111  10.706
70627W        W42953  14.233  31.791   3.602
70628W        W42954  40.041  30.500   3.925
70629W        W42955   3.352   5.617   2.655
70630W        W42956  19.328  23.240   3.652
70631W        W42957  40.543  37.293  11.176
70632W        W42958  31.674  32.062   2.688
70633W        W42959  24.046  18.396   0.296
70634W        W42960  15.561  29.005   4.657
70635W        W42961  34.459  18.822   4.771
70636W        W42962  39.778   5.409  14.615
70637W        W42963  15.779  20.770  11.041
70638W        W42964  37.417  29.266  13.063
70639W        W42965  31.858  42.956   0.237
70640W        W42966   3.263  10.325  11.498
70641W        W42967  34.444  36.771   4.180
70642W        W42968  41.840   3.295  14.317
70643W        W42969  42.366  32.427   2.797
70644W        W42970  18.042  18.556  12.335
70645W        W42971  23.725  14.026   3.806
70646W        W42972  36.088   3.788  13.851
70647W        W42973  44.624  42.361  11.927
70648W        W42974  17.468  35.093  13.022
70649W        W42975  20.555  28.908   0.192
70650W        W42976  24.588  35.573  10.861
70651W        W42977  13.627   5.197  12.129
70652W        W42978  12.721  33.147  14.563
70653W        W42979  34.935  21.784   3.818
70654W        W42980  27.107   7.654  11.384
70655W        W42981   0.795  11.812  12.476
70656W        W42982  32.119  22.033   3.715
70657W        W42983  30.420  17.952  12.496
70658W        W42984   0.692  14.857   3.641
70659W        W42985  29.545   8.587   1.811
70660W        W42986  32.705  23.602  12.123
70661W        W42987  30.640  13.494  13.970
70662W        W42988  27.401  14.754   4.203
70663W        W42989  24.534   9.441   0.847
70664W        W42990  10.618  44.346  13.978
70665W        W42991  19.501  28.387  10.955
70666W        W42992  38.609   1.435  12.202
70667W        W42993  35.525   0.958   0.490
70668W        W42994  21.553  41.829  12.076
70669W        W42995  10.219  19.517   1.371
70670W        W42996  17.695  18.614   4.594
70671W        W42997   2.660  30.152  13.481
70672W        W42998   4.739   3.020  14.493
70673W        W42999  28.278  35.396  10.492
70674W        W43000  27.857  41.688   0.224
70675W        W43001  17.187  10.235   3.079
70676W        W43002   0.577  35.318   0.938
70677W        W43003   2.941  25.066   4.281
70678W        W43004  31.136   3.820   3.354
70679W        W43005  18.343  14.861  13.924
70680W        W43006  16.039  41.248  10.765
70681W        W43007   1.988  23.276   3.653
70682W        W43008  42.124  29.334  11.076
70683W        W43009  21.029   8.810   2.342
70684W        W43010  27.159  39.115   1.301
70685W        W43011   1.449   3.452   0.786
70686W        W43012  24.503  34.974  12.047
70687W        W43013  12.685  10.670  12.615
70688W        W43014  22.245  21.024   4.814
70689W        W43015   4.635  28.596   1.444
70690W        W43016  13.181  33.069  13.038
70691W        W43017  25.127   1.835   4.179
70692W        W43018  11.607   6.905   2.241
70693W        W43019  23.594  19.229   3.141
70694W        W43020  24.455  37.456  13.518
70695W        W43021  23.390  39.912   1.476
70696W        W43022  22.547  15.152  11.613
70697W        W43023  15.323   5.968   4.498
70698W        W43024   9.368   8.381   1.357
70699W        W43025  12.259  20.731   3.388
70700W        W43026  42.947  26.548  12.480
70701W        W43027  20.166  30.864   3.080
70702W        W43028  16.149  27.889  14.831
70703W        W43029   3.224  22.727   4.381
70704W        W43030  26.792  15.517   0.223
70705W        W43031  20.525   4.988   1.425
70706W        W43032  23.067  43.329   1.065
70707W        W43033  40.415  19.755   1.250
70708W        W43034  15.401  28.681  13.510
70709W        W43035   9.835  28.640   1.396
70710W        W43036  17.761  39.786  11.921
70711W        W43037  11.829  41.378   3.741
70712W        W43038  20.429  21.792  12.715
70713W        W43039  24.166  13.280  13.357
70714W        W43040  17.125  36.982  13.309
70715W        W43041  44.300  14.895  13.911
70716W        W43042   0.227  25.519  13.054
70717W        W43043  42.736  24.511  11.186
70718W        W43044  34.579   4.247   3.875
70719W        W43045  15.839   1.399  13.388
70720W        W43046  44.545  29.503  10.067
70721W        W43047  17.664  29.045  11.398
70722W        W43048  32.537   5.530  14.766
70723W        W43049   3.448  30.610  12.623
70724W        W43050   8.666  32.593   2.172
70725W        W43051  31.837  34.096   3.803
70726W        W43052  13.627   0.239   3.726
70727W        W43053  16.133   7.968  11.546
70728W        W43054  31.083  32.988   0.561
70729W        W43055   9.697  26.143   3.729
70730W        W43056  25.563  29.149   2.680
70731W        W43057  42.381   0.562  14.393
70732W        W43058  42.540   6.430  12.698
70733W        W43059   0.421  34.219   1.767
70734W        W43060  40.980  39.591   4.084
70735W        W43061  26.704  43.935  12.429
70736W        W43062  24.503  19.077   4.788
70737W        W43063  15.598  25.007  11.136
70738W        W43064  23.586  14.181  10.984
70739W        W43065  17.348  42.880  14.330
70740W        W43066  33.219  10.920   3.996
70741W        W43067  28.213  17.240   3.727
70742W        W43068  20.784  13.019   4.033
70743W        W43069  17.106  20.032   3.190
70744W        W43070  13.203  14.681   1.902
70745W        W43071  13.034   4.881  14.190
70746W        W43072   3.220   6.998   0.199
70747W        W43073  16.841   6.291  14.554
70748W        W43074  40.457  23.986   1.420
70749W        W43075  15.652  21.221  13.127
70750W        W43076  15.699  18.982   4.577
70751W        W43077  16.187  24.933   0.817
70752W        W43078  12.811  38.262   3.785
70753W        W43079  33.584  35.806   0.449
70754W        W43080  29.200  17.768  12.374
70755W        W43081  43.764  24.635  12.161
70756W        W43082   8.127  31.457  12.070
70757W        W43083  19.913   9.391  12.067
70758W        W43084  24.544  28.309   3.314
70759W        W43085  28.914  26.521   2.261
70760W        W43086  16.574  24.170   3.783
70761W        W43087  20.785  24.286  14.569
70762W        W43088   5.130  17.706   3.736
70763W        W43089  42.252  27.389   2.354
70764W        W43090  35.511  20.350  12.923
70765W        W43091  42.401   4.192   3.292
70766W        W43092  40.623  37.010  14.579
70767W        W43093  22.537  34.813   1.274
70768W        W43094  24.452  43.483   0.843
70769W        W43095  22.322  11.794  14.795
70770W        W43096   5.913  30.969  11.595
70771W        W43097  36.277   9.534  13.945
70772W        W43098  17.161  28.088  11.087
70773W        W43099  10.102  40.885  14.909
70774W        W43100  44.304  38.510  10.158
70775W        W43101   8.301  11.135   4.579
70776W        W43102  22.184   0.487  10.990
70777W        W43103   5.020  16.159   4.511
70778W        W43104   1.915  30.619  12.806
70779W        W43105   1.749   3.685  12.336
70780W        W43106  34.864  32.064   2.782
70781W        W43107  43.195  41.855   1.719
70782W        W43108  33.670  14.412   2.266
70783W        W43109  21.648  19.315   3.076
70784W        W43110   7.592  14.366   1.210
70785W        W43111  23.197  16.663   1.399
70786W        W43112  44.092   7.865  14.315
70787W        W43113  25.432  35.876  12.605
70788W        W43114  23.590  37.920  12.906
70789W        W43115  41.836  44.829  14.421
70790W        W43116  30.230  18.730   4.066
70791W        W43117  27.678  28.930   4.206
70792W        W43118  44.383  13.171   0.107
70793W        W43119  32.331  34.382   3.034
70794W        W43120   9.743   0.373   2.589
70795W        W43121  28.541  33.498   4.315
70796W        W43122  41.900  34.823   2.855
70797W        W43123  26.753  12.148   4.977
70798W        W43124  39.137   4.405   3.272
70799W        W43125   3.471  23.611   1.449
70800W        W43126  21.299  26.667   4.689
70801W        W43127  35.511  15.091   2.795
70802W        W43128  15.126  19.001   3.804
70803W        W43129  22.941  37.978   3.665
70804W        W43130  17.644  31.606  13.056
70805W        W43131  13.357   5.907   0.902
70806W        W43132  11.206  40.493  10.618
70807W        W43133  28.859   5.834  11.157
70808W        W43134  28.471   4.816  11.194
70809W        W43135  30.401  33.461   4.247
70810W        W43136  42.492  19.183  12.926
70811W        W43137   6.277  42.489   3.640
70812W        W43138  16.701  27.801  11.921
70813W        W43139  44.869  12.707   2.720
70814W        W43140   8.270   8.897  11.583
70815W        W43141   7.817  27.197   2.088
70816W        W43142   9.723   7.708  13.389
70817W        W43143  44.003  26.462   0.847
70818W        W43144  38.459  13.850  14.452
70819W        W43145  33.964  35.671  13.309
70820W        W43146  11.352  13.254  13.820
70821W        W43147   9.375  17.125  13.911
70822W        W43148  21.422  14.255  11.146
70823W        W43149  35.666  41.497   2.079
70824W        W43150   7.424  30.416  14.661
70825W        W43151  26.582  40.872   1.925
70826W        W43152   1.458  42.476  12.936
70827W        W43153  27.398  10.806  14.597
70828W        W43154  24.848  12.659   3.137
70829W        W43155  12.760   5.984   1.611
70830W        W43156  30.137  35.890   2.705
70831W        W43157   3.359  25.518  12.041
70832W        W43158  30.802  16.818  13.091
70833W        W43159  38.503  34.097  11.619
70834W        W43160   5.281  36.544  12.074
70835W        W43161   5.256  43.716   1.889
70836W        W43162  20.532  39.148   1.796
70837W        W43163  20.847  28.718  13.434
70838W        W43164  37.836  41.819  14.093
70839W        W43165  42.139  30.622  11.739
70840W        W43166  22.704   9.159  10.702
70841W        W43167  36.856  15.850  13.712
70842W        W43168  20.522   6.715   4.963
70843W        W43169  32.802  11.328   2.731
70844W        W43170  28.547  25.015   3.345
70845W        W43171  33.125  25.149  13.815
70846W        W43172   0.823  24.304  11.631
70847W        W43173  10.956  14.161  12.038
70848W        W43174   6.325  24.475  14.279
70849W        W43175   6.129  42.737   1.853
70850W        W43176  33.924   5.983   3.758
70851W        W43177  31.939   4.884   0.702
70852W        W43178  16.818   2.880  13.834
70853W        W43179  22.541  43.222   1.938
70854W        W43180  13.406   8.225   3.386
70855W        W43181  14.455  11.643   2.838
70856W        W43182  44.443  29.118  11.471
70857W        W43183  22.506  42.861   3.339
70858W        W43184  15.780  26.278  11.464
70859W        W43185  12.966  22.315   2.268
70860W        W43186  36.765   4.318  10.769
70861W        W43187   1.667  30.066   1.308
70862W        W43188   1.723  15.779  11.565
70863W        W43189  17.988  39.185   3.594
70864W        W43190  43.480  39.044  11.578
70865W        W43191  21.030  10.791   1.942
70866W        W43192  36.551  26.146  13.326
70867W        W43193   1.763  30.838   2.590
70868W        W43194  31.639  31.016   3.662
70869W        W43195  18.100  19.698   2.934
70870W        W43196  21.633  25.933   1.242
70871W        W43197  28.227  18.327  10.655
70872W        W43198   4.905  27.666   4.651
70873W        W43199  26.570   1.318  13.265
70874W        W43200  37.372  44.166   3.338
70875W        W43201  15.165  24.970   4.157
70876W        W43202  36.103  13.105   2.802
70877W        W43203  12.602   3.401  13.895
70878W        W43204   2.252  28.382   2.977
70879W        W43205  22.639  40.557   5.314
70880W        W43206  24.454  25.193  14.744
70881W        W43207   0.265  38.309   3.768
70882W        W43208   1.219  38.492  13.419
70883W        W43209  17.768  44.864   2.178
70884W        W43210   5.236  31.431  11.074
70885W        W43211  29.028   4.934  12.082
70886W        W43212  32.895  21.641  12.372
70887W        W43213  34.946   1.014  12.447
70888W        W43214  12.129  41.281  11.116
70889W        W43215  31.520  24.242   1.143
70890W        W43216  22.021  31.190  11.194
70891W        W43217   6.701  35.099  11.466
70892W        W43218  26.940  32.479   1.791
70893W        W43219  19.677   9.932   3.446
70894W        W43220  43.599  18.282  11.943
70895W        W43221  11.884  23.608   5.160
70896W        W43222   4.402  13.659  11.581
70897W        W43223  43.405  36.862  12.501
70898W        W43224  37.619   2.529  10.674
70899W        W43225  16.262  33.712  14.921
70900W        W43226  39.960  36.297   3.231
70901W        W43227  18.991  30.936   2.663
70902W        W43228   6.862  13.816  12.906
70903W        W43229   8.835  24.323   3.782
70904W        W43230  26.394  27.545   3.772
70905W        W43231  39.561   4.505  14.435
70906W        W43232   8.746  33.554  11.567
70907W        W43233  11.569   2.651   2.043
70908W        W43234  37.218   2.459  14.874
70909W        W43235  23.791  22.654  10.508
70910W        W43236  14.226  29.798  11.921
70911W        W43237  21.981  27.028  14.284
70912W        W43238  28.950  33.395  10.025
70913W        W43239  31.745   9.186  14.310
70914W        W43240  27.163   9.778   0.479
70915W        W43241   7.724  27.905   3.100
70916W        W43242  20.941  42.128   4.429
70917W        W43243  41.392  25.091  12.489
70918W        W43244  42.937   2.446   4.608
70919W        W43245  35.462   1.007   2.394
70920W        W43246  37.325  34.670  12.568
70921W        W43247  35.873  22.964   3.173
70922W        W43248   2.042  13.953   3.316
70923W        W43249  15.257  24.543  12.486
70924W        W43250  42.057   6.339  14.487
70925W        W43251  18.989  34.362  13.541
70926W        W43252  34.876  44.906  11.899
70927W        W43253  30.309  11.200  14.461
70928W        W43254  23.041  30.923  11.898
70929W        W43255  21.653   2.313   3.640
70930W        W43256   1.266  27.601   0.420
70931W        W43257   6.435  36.558  12.543
70932W        W43258   4.765   1.118  14.392
70933W        W43259  17.094  28.624  10.327
70934W        W43260  12.794  36.905  10.153
70935W        W43261  10.745  41.048   4.948
70936W        W43262  25.204  31.053  14.437
70937W        W43263  28.587  27.469   2.264
70938W        W43264  34.200  26.776   4.991
70939W        W43265  26.829  13.089   2.800
70940W        W43266  17.517  27.722  11.223
70941W        W43267  13.301   2.351   2.686
70942W        W43268  43.359  34.040  12.421
70943W        W43269  43.055  13.367   2.780
70944W        W43270  29.068  35.194  10.763
70945W        W43271   9.581  40.040  13.814
70946W        W43272  20.088  27.441   0.434
70947W        W43273  42.875  18.719   1.886
70948W        W43274  31.385  32.797   4.704
70949W        W43275  17.611  10.254  14.471
70950W        W43276  13.266  13.801  12.784
70951W        W43277  44.886   5.287  12.760
70952W        W43278  43.873   2.797  11.190
70953W        W43279  22.043  16.476  13.402
70954W        W43280  31.108  14.125  14.415
70955W        W43281  23.417  38.190  10.546
70956W        W43282  17.764   0.048  11.621
70957W        W43283  27.923  25.001   4.918
70958W        W43284  25.723  11.213   3.220
70959W        W43285  27.168   0.835   4.959
70960W        W43286  17.846  24.659  11.950
70961W        W43287  19.708  10.817  13.620
70962W        W43288  12.654   9.260  12.071
70963W        W43289  43.876   5.589  11.034
70964W        W43290   9.710   1.818  13.508
70965W        W43291  27.007  41.507  10.621
70966W        W43292  15.330  29.256   4.221
70967W        W43293  16.586  30.178   1.924
70968W        W43294  40.441  33.237   3.965
70969W        W43295  28.975  23.930  12.930
70970W        W43296  30.515   8.732   0.815
70971W        W43297   5.343  15.869   1.411
70972W        W43298  21.071  34.071   4.606
70973W        W43299  22.497  34.275   2.655
70974W        W43300   1.510  32.458   1.568
70975W        W43301  14.238   9.761  10.647
70976W        W43302  34.954  37.622   2.181
70977W        W43303  40.094  40.225  13.562
70978W        W43304  37.287  44.617   4.605
70979W        W43305  11.055  22.622   0.984
70980W        W43306  21.233  41.946   2.975
70981W        W43307  22.800  18.625  10.723
70982W        W43308  25.770   3.141  12.614
70983W        W43309  10.095  26.563  10.584
70984W        W43310  26.654  16.430   2.172
70985W        W43311  10.794  35.397  13.832
70986W        W43312  30.768  37.536   4.546
70987W        W43313  42.354  23.730  11.467
70988W        W43314   8.503  39.802   4.724
70989W        W43315  10.215  36.569   2.859
70990W        W43316   2.878  18.009   1.590
70991W        W43317  30.962  15.871  12.644
70992W        W43318  35.045  22.973   3.090
70993W        W43319  13.773  32.910  10.783
70994W        W43320  30.259  43.246  14.935
70995W        W43321  29.897   1.206  13.861
70996W        W43322  24.672  38.316   0.802
70997W        W43323  15.829   7.930  12.675
70998W        W43324  38.880  33.623  10.845
70999W        W43325   2.585  37.227   5.090
71000W        W43326  18.075  41.905  10.598
71001W        W43327   2.516  36.336  12.345
71002W        W43328  23.019   4.719   2.693
71003W        W43329  29.841  37.946   2.186
71004W        W43330  39.401   3.422   2.359
71005W        W43331   0.738  12.337   1.951
71006W        W43332  12.562  17.342   3.309
71007W        W43333   8.903   1.353  13.363
71008W        W43334   6.841  40.100   4.068
71009W        W43335  11.355  41.337   2.368
71010W        W43336  29.939  15.603   3.445
71011W        W43337  20.602  38.319  10.179
71012W        W43338  19.591  34.668  14.526
71013W        W43339   0.725  36.668  11.947
71014W        W43340   7.840  16.319   2.702
71015W        W43341  18.513  15.575  11.257
71016W        W43342   6.910   1.209  14.532
71017W        W43343   8.818  31.200   0.995
71018W        W43344  24.403  37.333   0.802
71019W        W43345  41.014  35.274   4.414
71020W        W43346  24.157  44.722  11.553
71021W        W43347   9.716  28.343   2.845
71022W        W43348  15.057  30.067  13.467
71023W        W43349  24.259   5.642   4.086
71024W        W43350  35.145  10.672   2.743
71025W        W43351   9.686  31.869   2.177
71026W        W43352  39.622  11.768  13.341
71027W        W43353  32.245  30.359   3.801
71028W        W43354  12.067  10.423  14.986
71029W        W43355  31.435   3.321  12.921
71030W        W43356  12.209  24.041   2.860
71031W        W43357  32.861  37.041   2.863
71032W        W43358  20.036   0.829   2.680
71033W        W43359  18.799  41.515  11.622
71034W        W43360  18.999  30.470  12.428
71035W        W43361  16.572  37.017  11.598
71036W        W43362  28.983   0.323  10.678
71037W        W43363   5.289  29.181  14.756
71038W        W43364  29.039   6.939  14.130
71039W        W43365  40.935  14.320   3.945
71040W        W43366  29.068  41.459  11.442
71041W        W43367   2.365  29.118   2.425
71042W        W43368  36.440   1.970  11.611
71043W        W43369  24.083  37.849  13.049
71044W        W43370   2.403  20.939  10.351
71045W        W43371  17.530  12.804  13.617
71046W        W43372   2.320   8.459   4.615
71047W        W43373  41.779  38.584  13.790
71048W        W43374  24.241  23.160  14.496
71049W        W43375  18.143  31.841   3.265
71050W        W43376  36.048  15.565  13.154
71051W        W43377  34.573   4.386  11.468
71052W        W43378   8.742  35.562  13.821
71053W        W43379  13.906  18.254   0.848
71054W        W43380  44.346   6.621   3.673
71055W        W43381  39.332  25.490   2.293
71056W        W43382   1.381  43.878  11.354
71057W        W43383   4.507   0.105  11.200
71058W        W43384  38.894  26.373   4.923
71059W        W43385  21.183  35.046   0.327
71060W        W43386   4.305  42.529   1.371
71061W        W43387  44.959  13.184   3.740
71062W        W43388  15.178  29.721  14.322
71063W        W43389  21.439  11.622  13.852
71064W        W43390  42.963  11.266   1.192
71065W        W43391   9.231  15.769   3.561
71066W        W43392  18.139  17.816   4.423
71067W        W43393   0.829  10.110   0.200
71068W        W43394  14.203   3.528   4.251
71069W        W43395  16.260  43.956   4.727
71070W        W43396  17.197   7.972   1.847
71071W        W43397  26.921  26.373   3.667
71072W        W43398  19.104  22.029  12.148
71073W        W43399   3.051  22.930  11.577
71074W        W43400  17.688  27.089   1.146
71075W        W43401   7.050  16.043  12.396
71076W        W43402  40.465  21.797   3.376
71077W        W43403  26.016  10.692  12.514
71078W        W43404  12.891  41.278   3.704
71079W        W43405  22.802  28.310   2.849
71080W        W43406  37.593  11.429  13.955
71081W        W43407  14.679  21.831  13.945
71082W        W43408  19.577  42.839   4.097
71083W        W43409   7.216  12.082   3.200
71084W        W43410  22.056  10.629   1.188
71085W        W43411  43.936  19.177   0.308
71086W        W43412   0.981  17.571   0.318
71087W        W43413  31.591  24.197   2.156
71088W        W43414   7.924  41.819  13.497
71089W        W43415   9.939  34.035  13.381
71090W        W43416  40.549   9.928   1.935
71091W        W43417  26.725  19.655  14.512
71092W        W43418  43.246  38.267   3.709
71093W        W43419  12.881   2.712   0.176
71094W        W43420   0.418  42.358   3.596
71095W        W43421  24.017  13.709  13.093
71096W        W43422   4.249  34.856   3.702
71097W        W43423  17.324  35.583   0.851
71098W        W43424  32.189  24.576   2.006
71099W        W43425  36.829  42.859   3.748
71100W        W43426  11.721  11.050  11.499
71101W        W43427  34.572   6.721  13.858
71102W        W43428   4.735  14.734   3.131
71103W        W43429  14.690  24.949  13.973
71104W        W43430   5.891   9.079   3.753
71105W        W43431  13.706  12.109  10.643
71106W        W43432  41.754  35.998   0.896
71107W        W43433  11.279   7.415   0.164
71108W        W43434  25.674  10.323  13.341
71109W        W43435  43.865  14.392   1.779
71110W        W43436  25.241  28.687   3.143
71111W        W43437  24.734  41.275  14.076
71112W        W43438  12.217  28.684  13.902
71113W        W43439  22.358  38.085  11.382
71114W        W43440  23.520  30.819   0.394
71115W        W43441  27.782  41.995  12.826
71116W        W43442   1.105  44.305  12.546
71117W        W43443  24.950  30.420  11.568
71118W        W43444  19.192  41.841   0.550
71119W        W43445   6.151   1.772   1.994
71120W        W43446   1.223  14.305   3.240
71121W        W43447  12.075   2.531  11.171
71122W        W43448  33.342  30.863   4.256
71123W        W43449  16.361   4.403  14.288
71124W        W43450  12.490  37.993   4.128
71125W        W43451   8.151   9.809  12.374
71126W        W43452  18.543  12.118  12.015
71127W        W43453   0.482  27.526   3.790
71128W        W43454  32.130  34.604   4.284
71129W        W43455   6.283  42.535   4.707
71130W        W43456  27.994  14.737   1.317
71131W        W43457  13.291  17.575   3.394
71132W        W43458  39.918  26.077   4.094
71133W        W43459   8.386  31.668   1.824
71134W        W43460  22.211  40.212   2.210
71135W        W43461   3.431   9.824  14.367
71136W        W43462  22.735   9.275  11.643
71137W        W43463  35.870  15.621  14.597
71138W        W43464  13.781  17.661   3.279
71139W        W43465  25.192   1.978  13.419
71140W        W43466  41.831  28.150   2.066
71141W        W43467  42.996   7.740  13.357
71142W        W43468  16.546  18.338   1.880
71143W        W43469   8.143   5.894  11.742
71144W        W43470  36.146  12.386   1.629
71145W        W43471  16.774  33.099   4.717
71146W        W43472  12.322  41.325  14.761
71147W        W43473  22.130   6.709   0.888
71148W        W43474  39.057  21.647   0.260
71149W        W43475   1.288  38.887  14.364
71150W        W43476  15.077  18.852   1.768
71151W        W43477  39.270  44.893  10.549
71152W        W43478  35.950  18.951  10.738
71153W        W43479  27.073  44.338   3.706
71154W        W43480  25.877   5.194  14.938
71155W        W43481  24.217   7.651  12.888
71156W        W43482  12.850  43.539   3.756
71157W        W43483  31.457  18.167  10.576
71158W        W43484  22.256  44.008  12.122
71159W        W43485  39.737  32.981   0.329
71160W        W43486   5.215  34.089   3.114
71161W        W43487  12.022  12.058   4.201
71162W        W43488  20.712   0.953   2.773
71163W        W43489  21.451  23.117   0.430
71164W        W43490  19.097  13.773   4.071
71165W        W43491  37.465   5.779  13.441
71166W        W43492  25.863  29.740   2.056
71167W        W43493   6.288  29.579  13.022
71168W        W43494   7.638  19.695   4.318
71169W        W43495   8.287  44.429   2.889
71170W        W43496  40.985  13.177   3.720
71171W        W43497  38.104   5.854   4.538
71172W        W43498  34.061   4.288  11.398
71173W        W43499  19.584  20.723   4.136
71174W        W43500   7.987  24.688   3.698
71175W        W43501   2.512  25.159   1.828
71176W        W43502  43.623   6.314  11.213
71177W        W43503  41.603  36.899  12.472
71178W        W43504  26.965  43.333   4.961
71179W        W43505   2.798  24.043  11.012
71180W        W43506  38.401  11.107  13.495
71181W        W43507   6.630  20.201  13.977
71182W        W43508   3.821   0.404   3.140
71183W        W43509   1.484   6.376  11.153
71184W        W43510   2.769  18.927   3.214
71185W        W43511  27.357  11.189   4.153
71186W        W43512  39.355  30.345  13.318
71187W        W43513  30.576   0.345   1.419
71188W        W43514  19.972   2.017   1.163
71189W        W43515  33.121  16.658  11.416
71190W        W43516  12.618  41.768  14.449
71191W        W43517  37.328  44.930  10.405
71192W        W43518  25.049  14.357  14.841
71193W        W43519  38.740  25.538   0.266
71194W        W43520   6.212  31.122   2.324
71195W        W43521  25.449   8.774   2.440
71196W        W43522  25.141  44.480   3.142
71197W        W43523   2.877  16.747   2.290
71198W        W43524   7.219  14.351  11.690
71199W        W43525  31.523  18.596  11.289
71200W        W43526  26.353   2.526   3.699
71201W        W43527  12.560  41.488  12.075
71202W        W43528  36.839  28.555   3.773
71203W        W43529  22.528  32.032   4.512
71204W        W43530   6.464   0.461   1.254
71205W        W43531  23.649  16.116  14.032
71206W        W43532  36.405  10.858   1.244
71207W        W43533  30.415  28.713   2.412
71208W        W43534  17.810  43.805  10.972
71209W        W43535  31.672  42.714   0.912
71210W        W43536  31.209  18.844   3.106
71211W        W43537  44.506  39.941  12.983
71212W        W43538  33.501  28.391   3.623
71213W        W43539  36.792  43.173  12.587
71214W        W43540  12.225   6.730  12.544
71215W        W43541   4.666  19.847  13.967
71216W        W43542   6.834  20.201  10.717
71217W        W43543   1.872  36.627   0.638
71218W        W43544  35.590  44.330  11.928
71219W        W43545  34.151  23.125  10.633
71220W        W43546  34.939  16.303  14.957
71221W        W43547  14.880  21.207  11.198
71222W        W43548  42.902  27.070   1.843
71223W        W43549  21.955  32.460   1.777
71224W        W43550   6.041  17.173  14.326
71225W        W43551   5.266  35.275   0.016
71226W        W43552  22.049  19.670   1.993
71227W        W43553   6.291  27.221  14.901
71228W        W43554  13.833  14.016   0.498
71229W        W43555  41.070  24.130   4.176
71230W        W43556  15.727  28.499   4.614
71231W        W43557  42.362  31.100  12.406
71232W        W43558   5.852  44.434  12.613
71233W        W43559  24.631  32.962  12.000
71234W        W43560   9.846  24.685   4.069
71235W        W43561  44.073  24.451   4.563
71236W        W43562  29.887  30.674  14.275
71237W        W43563  25.999  43.399   4.620
71238W        W43564  27.491  21.048   1.310
71239W        W43565   0.911  24.799  11.567
71240W        W43566   6.847  14.586  11.056
71241W        W43567  40.217  44.266  12.513
71242W        W43568  22.113  41.550   1.732
71243W        W43569  32.049  20.352  13.871
71244W        W43570   2.653  24.486   4.595
71245W        W43571   2.765  27.878  14.410
71246W        W43572  21.350  39.180   4.836
71247W        W43573   5.213  28.078   4.101
71248W        W43574   1.399  33.039   2.767
71249W        W43575  43.310  35.175   2.503
71250W        W43576  34.985  18.282  12.574
71251W        W43577  39.290  27.607  11.517
71252W        W43578   7.922  43.983  13.287
71253W        W43579  43.569  28.885  12.412
71254W        W43580  10.358   6.584  14.851
71255W        W43581  43.410  21.552   1.094
71256W        W43582  31.596   2.723   4.154
71257W        W43583  26.896  32.684  14.030
71258W        W43584  19.708  25.215  14.068
71259W        W43585   0.663  32.950  14.403
71260W        W43586  16.311  42.182   0.298
71261W        W43587  25.036  22.957   0.961
71262W        W43588  42.432  18.830   4.681
71263W        W43589  28.329  35.723  11.795
71264W        W43590  13.751  36.957  12.390
71265W        W43591  38.989  37.909   0.233
71266W        W43592   0.067   3.323   9.885
71267W        W43593  42.126  13.704   4.004
71268W        W43594  30.174  15.660   2.436
71269W        W43595  21.749  18.660  10.584
71270W        W43596   0.218   3.848  14.916
71271W        W43597  19.013  30.204   2.176
71272W        W43598  17.223  14.756  12.414
71273W        W43599  16.145  17.078   1.885
71274W        W43600  37.088   0.667   1.727
71275W        W43601  35.048  42.597  10.258
71276W        W43602  43.572   2.732   2.413
71277W        W43603  39.031  19.642   3.779
71278W        W43604  18.731  30.623  11.100
71279W        W43605   6.768   3.309   3.810
71280W        W43606  30.919  39.670  14.859
71281W        W43607  29.503  29.455   5.110
71282W        W43608   9.722  18.497  13.018
71283W        W43609  44.181  43.459   3.156
71284W        W43610  28.748  42.980  10.350
71285W        W43611  40.432  16.657   0.271
71286W        W43612  21.734   6.210   1.373
71287W        W43613  31.509   9.428   2.754
71288W        W43614  31.676  39.461  13.797
71289W        W43615   4.851  39.654  13.017
71290W        W43616  39.776  16.757   2.862
71291W        W43617  33.831  25.090   0.881
71292W        W43618  39.391  42.786   1.383
71293W        W43619  17.609  28.060   0.669
71294W        W43620  11.267  44.801  14.797
71295W        W43621  43.057  17.284  13.199
71296W        W43622  13.601   5.422  12.576
71297W        W43623  35.994  27.688   0.706
71298W        W43624  34.077  10.754  12.894
71299W        W43625  25.036  11.316   0.906
71300W        W43626   9.873  34.078  11.125
71301W        W43627   1.147  36.784  14.288
71302W        W43628  15.623  19.402   3.394
71303W        W43629  14.517   4.201   0.758
71304W        W43630  28.959   5.151   1.289
71305W        W43631  20.122   5.948  13.409
71306W        W43632  26.947  41.765   1.889
71307W        W43633  32.175  11.232  12.762
71308W        W43634  25.368  17.263   0.315
71309W        W43635  44.674  22.003  13.246
71310W        W43636  34.568  23.951  13.915
71311W        W43637  29.298  16.109  11.186
71312W        W43638  40.580  40.294  13.845
71313W        W43639  36.073  37.135   3.260
71314W        W43640  34.964  10.831   0.418
71315W        W43641  40.607   6.961  10.982
71316W        W43642   6.771  12.902   4.191
71317W        W43643  37.604  31.946  13.378
71318W        W43644  17.618  42.516   3.325
71319W        W43645   7.393   0.949   2.804
71320W        W43646  34.857   4.390  10.505
71321W        W43647  25.747   1.279   1.267
71322W        W43648  11.033   7.264  13.346
71323W        W43649  25.723  15.148  11.411
71324W        W43650  29.199  11.751   0.715
71325W        W43651  19.117  26.019   2.413
71326W        W43652  34.417  29.157  13.381
71327W        W43653  35.486  25.073  12.820
71328W        W43654  35.539  29.523   3.823
71329W        W43655  34.411  31.335   3.256
71330W        W43656  32.494  39.343  13.142
71331W        W43657  30.954  22.062  12.798
71332W        W43658   0.763  33.453   4.615
71333W        W43659   1.304  10.883   5.568
71334W        W43660  31.701  10.161   2.292
71335W        W43661  27.414   8.226  12.965
71336W        W43662  41.155   1.472  12.999
71337W        W43663  19.191   9.162   0.660
71338W        W43664  10.145  23.033   5.026
71339W        W43665  44.930  38.266   0.956
71340W        W43666  12.815  32.559   1.294
71341W        W43667  43.735   1.421   3.146
71342W        W43668  16.375  32.450  12.915
71343W        W43669   7.609   4.669   4.360
71344W        W43670   5.017   9.587  10.986
71345W        W43671  24.196  33.081   0.852
71346W        W43672   6.381   9.267   3.861
71347W        W43673  23.402  40.170  14.612
71348W        W43674  21.031  43.091   4.472
71349W        W43675  43.489  37.860  13.882
71350W        W43676  44.241   4.446   2.315
71351W        W43677   9.840   6.877  14.061
71352W        W43678  29.701   9.096   1.884
71353W        W43679   7.633  20.966   3.741
71354W        W43680  37.946  28.812  10.676
71355W        W43681  16.745  37.897   3.719
71356W        W43682   9.166  33.882   2.871
71357W        W43683  20.776  33.056   0.172
71358W        W43684  20.280   8.788   4.460
71359W        W43685   8.471  11.761  10.838
71360W        W43686  37.349  29.637   2.969
71361W        W43687  28.721  36.313   3.293
71362W        W43688  15.582  12.926  11.208
71363W        W43689  38.780  14.336  12.045
71364W        W43690   0.832   1.971   1.764
71365W        W43691  26.280  17.711   2.408
71366W        W43692  10.286   1.614  12.073
71367W        W43693  23.256  21.027   4.590
71368W        W43694  35.884  25.744  13.866
71369W        W43695   0.603   6.812   3.568
71370W        W43696  26.304  41.826   5.084
71371W        W43697  38.151   6.376   1.962
71372W        W43698  32.085  11.126   1.234
71373W        W43699  15.048   3.991  11.050
71374W        W43700  30.483   4.807  10.680
71375W        W43701  23.018  40.401  11.626
71376W        W43702  18.568  18.713   0.978
71377W        W43703   6.910  35.564   1.601
71378W        W43704   9.879  31.542  12.620
71379W        W43705  35.190  32.451  10.680
71380W        W43706  23.861  32.330   2.290
71381W        W43707   9.386  19.778   4.213
71382W        W43708   3.371   8.015  12.980
71383W        W43709  15.326  17.771  14.725
71384W        W43710  36.338   7.786  13.937
71385W        W43711  16.912  38.113  12.963
71386W        W43712   8.730  31.295   4.097
71387W        W43713  18.526   9.696   1.258
71388W        W43714  37.651  24.046  13.504
71389W        W43715  27.099  38.621   1.884
71390W        W43716   2.272  23.651  13.475
71391W        W43717  28.463  27.116  12.005
71392W        W43718   5.849  12.167   1.532
71393W        W43719  26.197  20.054  14.976
71394W        W43720  17.308  24.110  13.204
71395W        W43721  38.128   0.004   3.689
71396W        W43722   5.868  31.424  10.671
71397W        W43723  19.748  14.653  13.042
71398W        W43724  44.692  18.775   0.393
71399W        W43725  38.493   2.466  13.072
71400W        W43726  28.676   7.839   3.238
71401W        W43727   2.895   4.271   2.853
71402W        W43728  12.772  15.770  14.963
71403W        W43729  12.236   3.863   4.525
71404W        W43730  34.025  34.482   3.680
71405W        W43731  26.004   0.964  12.118
71406W        W43732  24.953  13.237   2.899
71407W        W43733  43.738  38.214  12.544
71408W        W43734  41.406  13.822  14.935
71409W        W43735  44.935  16.140   0.742
71410W        W43736  28.947  32.156   3.320
71411W        W43737   4.049  35.410   1.339
71412W        W43738  24.982  33.057   3.733
71413W        W43739  44.363  41.850  11.191
71414W        W43740  30.927  37.257  14.474
71415W        W43741   6.109  39.354   2.388
71416W        W43742   4.474  38.859   4.117
71417W        W43743  16.505  34.565  11.996
71418W        W43744  37.459  40.492   5.371
71419W        W43745   1.297  42.363   4.345
71420W        W43746  11.396  34.404   0.534
71421W        W43747   1.971  28.958   0.495
71422W        W43748   2.002   7.709  14.361
71423W        W43749  10.254   7.689  14.270
71424W        W43750  35.814  27.121   1.419
71425W        W43751  26.234  33.491  11.544
71426W        W43752  16.129  24.705  11.533
71427W        W43753   5.296  42.472   3.697
71428W        W43754   3.860  27.715  14.439
71429W        W43755  13.169  16.169   2.347
71430W        W43756  14.900   9.370  13.122
71431W        W43757  36.539  12.040  14.124
71432W        W43758  37.333  44.540   1.030
71433W        W43759  42.122  10.847  12.131
71434W        W43760   1.799   6.514  14.034
71435W        W43761  15.176  14.074  11.517
71436W        W43762  29.724  31.043   1.940
71437W        W43763  39.873  34.319   1.840
71438W        W43764  26.675  12.843  12.855
71439W        W43765  20.986   7.762   1.879
71440W        W43766   3.955  12.278   3.839
71441W        W43767  37.475  43.066   4.173
71442W        W43768  21.115  16.950   3.680
71443W        W43769  25.271   8.730  12.538
71444W        W43770   5.172  14.603   3.832
71445W        W43771   4.445  37.997   0.007
71446W        W43772  27.835  40.800  11.856
71447W        W43773  35.467  15.163  13.968
71448W        W43774  34.515  13.562   2.098
71449W        W43775  38.779  34.945  14.538
71450W        W43776  29.039  15.298   2.692
71451W        W43777  37.083  31.528  11.156
71452W        W43778   2.694  30.954   2.763
71453W        W43779  33.042  42.016  13.485
71454W        W43780  29.366   8.212   3.808
71455W        W43781  31.384   0.776  11.037
71456W        W43782  28.059  40.352   4.340
71457W        W43783  29.750  43.041   0.682
71458W        W43784  40.734  30.720  13.022
71459W        W43785  33.844  10.035  12.153
71460W        W43786  25.255   0.928   0.867
71461W        W43787  43.531  12.330   4.326
71462W        W43788   7.969  21.121  12.021
71463W        W43789  11.578  20.729  14.202
71464W        W43790  43.217  27.179   2.232
71465W        W43791   5.835   4.167  11.803
71466W        W43792  38.947   9.234  10.099
71467W        W43793  39.201   1.023  13.849
71468W        W43794  37.399  32.551  12.442
71469W        W43795  34.673  13.826  10.708
71470W        W43796   8.683  34.374  13.270
71471W        W43797  18.677  28.950  12.002
71472W        W43798  31.517  17.102   2.179
71473W        W43799  32.476  35.338  13.322
71474W        W43800  36.955   1.361   1.456
71475W        W43801  36.265  12.296   2.972
71476W        W43802  29.213   8.302  11.681
71477W        W43803  39.437  18.100   0.223
71478W        W43804  22.563  20.274  14.039
71479W        W43805   3.850  16.629  14.795
71480W        W43806  21.853  21.730   4.877
71481W        W43807  31.585  31.442   3.386
71482W        W43808  25.563  16.346   4.693
71483W        W43809  34.069   5.336  14.879
71484W        W43810  10.727  37.969  13.470
71485W        W43811  35.647  22.231  12.893
71486W        W43812  32.172  12.045  11.172
71487W        W43813  27.468  40.343  12.639
71488W        W43814  20.960  41.867   1.965
71489W        W43815  33.920  20.986  11.602
71490W        W43816  12.415  23.979   0.458
71491W        W43817  23.121  22.064   3.271
71492W        W43818  39.955  41.029   4.102
71493W        W43819  16.844  40.872   3.406
71494W        W43820  18.461   4.299   3.773
71495W        W43821  42.969  35.668   3.280
71496W        W43822  24.032  10.192   4.502
71497W        W43823  36.619  26.562   4.207
71498W        W43824  15.546  17.270  11.950
71499W        W43825  43.852  21.372   4.647
71500W        W43826  21.980  42.925  11.344
71501W        W43827  13.993  28.979  13.548
71502W        W43828  20.671  11.314   0.433
71503W        W43829   2.046  26.084   2.346
71504W        W43830  10.819  31.385  11.641
71505W        W43831   6.280  10.740   3.222
71506W        W43832  23.552  33.243   1.426
71507W        W43833   4.608   5.499  12.918
71508W        W43834  25.067  34.218  11.918
71509W        W43835  20.081   3.377   0.116
71510W        W43836  25.738  23.493   1.926
71511W        W43837  34.610   6.770  12.019
71512W        W43838   6.710   1.145   0.913
71513W        W43839  10.434  32.560   2.762
71514W        W43840  39.496  26.791  11.157
71515W        W43841  10.320  15.233   1.665
71516W        W43842  30.353  32.521   3.690
71517W        W43843   6.150   2.228   2.271
71518W        W43844   7.786  21.331  14.291
71519W        W43845  18.597  29.470   5.039
71520W        W43846   2.239  17.120  11.662
71521W        W43847  13.872  41.859  11.994
71522W        W43848   9.853  34.902   2.135
71523W        W43849   6.772   3.475   3.328
71524W        W43850  14.121  27.533   1.077
71525W        W43851  25.104  36.470   3.927
71526W        W43852  34.656  44.461   0.411
71527W        W43853   9.729  37.459  11.686
71528W        W43854  28.539  40.421   4.111
71529W        W43855  33.193   3.398  12.523
71530W        W43856  22.178  42.459   3.399
71531W        W43857  41.569  39.981   3.754
71532W        W43858  39.838  22.640   4.364
71533W        W43859  31.171  35.530   1.926
71534W        W43860  32.679  14.153   2.397
71535W        W43861   3.777  43.309   1.060
71536W        W43862   9.482  42.794   0.430
71537W        W43863  44.919  28.601   1.168
71538W        W43864  39.876  18.845   0.556
71539W        W43865  36.078  28.857  10.593
71540W        W43866   0.447  19.262   1.968
71541W        W43867  11.177  22.161  11.008
71542W        W43868  37.012   2.897   0.918
71543W        W43869  29.187  37.296   4.336
71544W        W43870  18.080  18.074  12.474
71545W        W43871  44.362  25.303   3.641
71546W        W43872  22.577  41.492   1.471
71547W        W43873  24.631  12.140   1.231
71548W        W43874  26.410  31.622  10.758
71549W        W43875  39.902  13.364  11.083
71550W        W43876  38.474   9.202   2.370
71551W        W43877  17.934  12.490  13.438
71552W        W43878  26.950   2.241  13.515
71553W        W43879  28.535   2.148   3.285
71554W        W43880  39.649   5.322  13.062
71555W        W43881  42.009  30.567   0.790
71556W        W43882   2.499  10.725  14.718
71557W        W43883  18.865  36.408   3.761
71558W        W43884  33.427  44.416  11.578
71559W        W43885  19.027  20.076   4.623
71560W        W43886  44.081  15.315   2.157
71561W        W43887  21.274  42.910   5.281
71562W        W43888  43.553  29.485   2.904
71563W        W43889   6.970   5.270   2.756
71564W        W43890  41.209  36.675   3.820
71565W        W43891  16.263  16.273   0.412
71566W        W43892   9.893   2.464   1.722
71567W        W43893   9.898   8.170  13.529
71568W        W43894  23.164  36.373  14.388
71569W        W43895  19.634  12.149   1.350
71570W        W43896  10.850   4.763   2.301
71571W        W43897  39.491   5.006   3.598
71572W        W43898  43.307  16.580   3.379
71573W        W43899  37.108   0.781  12.878
71574W        W43900  34.359  44.834  13.667
71575W        W43901  11.085  41.871  14.867
71576W        W43902   5.271  41.939   4.503
71577W        W43903  13.836  25.261   1.814
71578W        W43904  31.461  35.305   0.762
71579W        W43905  34.923  21.573  10.653
71580W        W43906   6.119  19.301  13.108
71581W        W43907  40.066   8.546  13.031
71582W        W43908  39.398  27.429  12.720
71583W        W43909  17.148   9.630   1.277
71584W        W43910  18.137  31.928  13.667
71585W        W43911  42.130  14.528   3.331
71586W        W43912  14.709  18.178   4.695
71587W        W43913  18.651  31.713  10.932
71588W        W43914  43.006  35.973   2.862
71589W        W43915  28.964   3.488  13.545
71590W        W43916  32.016  43.484   4.316
71591W        W43917  18.767  20.204  11.633
71592W        W43918  37.096  13.146   3.723
71593W        W43919  18.013  19.041  12.458
71594W        W43920   7.899  13.152   4.202
71595W        W43921   1.371   8.346  14.428
71596W        W43922   1.744  13.604   4.053
71597W        W43923  23.085  44.963   2.273
71598W        W43924  17.292   1.903   5.050
71599W        W43925  37.634  27.064   3.726
71600W        W43926  38.979   8.194  11.784
71601W        W43927  19.792  15.160  12.869
71602W        W43928  14.656  28.534   0.423
71603W        W43929   4.213   2.399   4.651
71604W        W43930  20.760  16.095   0.261
71605W        W43931  15.016  35.561  11.182
71606W        W43932  19.525  38.942   1.862
71607W        W43933  36.337  43.920  14.254
71608W        W43934  24.725  33.715   0.790
71609W        W43935   4.170  24.259  12.494
71610W        W43936  24.418  19.151  12.818
71611W        W43937  13.661  18.748   4.696
71612W        W43938  40.808  13.581  13.927
71613W        W43939   1.122   7.434   1.422
71614W        W43940  23.991  27.188  14.320
71615W        W43941  12.328  42.065   1.732
71616W        W43942  41.347  25.039  10.476
71617W        W43943  34.448  26.587   1.968
71618W        W43944   8.417   3.011   2.211
71619W        W43945  39.447  38.600  14.525
71620W        W43946  32.527  34.851  11.848
71621W        W43947  28.400  26.671   3.638
71622W        W43948  44.291   5.488  14.492
71623W        W43949  36.395  26.607   4.663
71624W        W43950  43.267  30.061  11.431
71625W        W43951  32.228   9.379  14.306
71626W        W43952  23.541  43.665  11.700
71627W        W43953  13.372   8.732  11.886
71628W        W43954  25.920  35.541   4.154
71629W        W43955   5.285  41.959   3.588
71630W        W43956   1.054  44.549   1.246
71631W        W43957   3.237  14.345   4.647
71632W        W43958  23.000  32.724  14.736
71633W        W43959   2.869   3.967   1.792
71634W        W43960  19.855  32.788  14.052
71635W        W43961  29.605  20.425  11.314
71636W        W43962  13.295  22.029  14.408
71637W        W43963  41.339  21.208  13.066
71638W        W43964  13.261  17.863   5.079
71639W        W43965  37.862   2.590  11.701
71640W        W43966   0.419  44.443   3.576
71641W        W43967  33.248  27.002   4.682
71642W        W43968  39.518  38.221  14.169
71643W        W43969  22.061  19.793  12.299
71644W        W43970  19.525   1.283   3.897
71645W        W43971  37.663  32.963   4.268
71646W        W43972   2.959  18.103  12.499
71647W        W43973  11.411  18.591  11.618
71648W        W43974  40.936   8.474  10.669
71649W        W43975  38.608  29.891  12.939
71650W        W43976  13.675  22.625   0.900
71651W        W43977  21.613  37.387   0.779
71652W        W43978  40.993  17.097  11.622
71653W        W43979  27.686  29.471   4.901
71654W        W43980  29.446   6.852  12.925
71655W        W43981  29.893  22.806   2.849
71656W        W43982  18.119  37.856  11.399
71657W        W43983  28.695  42.983   0.340
71658W        W43984  39.222  44.329  11.244
71659W        W43985  18.608   5.326  14.213
71660W        W43986   2.436  40.245  14.805
71661W        W43987   0.299  20.705  10.747
71662W        W43988  28.918  22.642  12.485
71663W        W43989  28.883   5.811   1.917
71664W        W43990   7.315  12.322   1.312
71665W        W43991   8.368  37.537   4.261
71666W        W43992  44.205   9.843  11.557
71667W        W43993  18.672  18.248   4.779
71668W        W43994  25.306  34.484  11.546
71669W        W43995  23.062  38.434  11.784
71670W        W43996  34.527   8.790  10.713
71671W        W43997  19.725  13.312  11.204
71672W        W43998  12.834  18.481   0.297
71673W        W43999  23.639  22.234  12.823
71674W        W44000  32.867  18.048  13.267
71675W        W44001   2.867  20.550   4.618
71676W        W44002   6.817  10.072  11.972
71677W        W44003  27.699  25.027  14.467
71678W        W44004   2.146  18.096  13.606
71679W        W44005   3.492  14.300   0.483
71680W        W44006  37.948  25.489  13.896
71681W        W44007  34.680  26.359   2.396
71682W        W44008  32.288  14.924   4.327
71683W        W44009  33.589  14.674   0.270
71684W        W44010   9.776  40.979  13.003
71685W        W44011   0.894   8.438  11.650
71686W        W44012  41.448  39.860   0.866
71687W        W44013  15.261  16.724   1.977
71688W        W44014  33.803  30.384  14.542
71689W        W44015  27.208  38.288   4.412
71690W        W44016  11.642  36.552  12.510
71691W        W44017  29.821  34.547   3.797
71692W        W44018  44.908  32.044   2.162
71693W        W44019  14.370  41.815  11.120
71694W        W44020  41.461  11.670  13.535
71695W        W44021  27.957  25.123  10.612
71696W        W44022  15.049   3.861   2.208
71697W        W44023  31.562  35.773   1.658
71698W        W44024   7.282   7.752  13.894
71699W        W44025   8.841  28.993   2.308
71700W        W44026  36.863   5.528  13.865
71701W        W44027   0.380  32.613   2.796
71702W        W44028   6.171  16.638   4.255
71703W        W44029  21.728  15.508   2.914
71704W        W44030  42.738   1.868   3.742
71705W        W44031  33.649  16.089   0.252
71706W        W44032  30.531  16.026   4.251
71707W        W44033   7.958  28.095  10.703
71708W        W44034  37.303  18.060   4.341
71709W        W44035  33.889  41.987  12.061
71710W        W44036  25.200  27.674   1.725
71711W        W44037  13.666   6.391   3.262
71712W        W44038  20.393  42.285  14.512
71713W        W44039  41.044   5.114  11.375
71714W        W44040  14.684   7.288  10.772
71715W        W44041  20.258   7.916   4.719
71716W        W44042  39.382  32.563   2.561
71717W        W44043  29.733  22.042  13.488
71718W        W44044   0.254   7.186   3.368
71719W        W44045  21.069  43.620   4.635
71720W        W44046   7.759  23.544  12.105
71721W        W44047  39.476  10.680  11.928
71722W        W44048  23.501  18.263   0.733
71723W        W44049  40.329  24.387  13.967
71724W        W44050  10.275  44.378  14.574
71725W        W44051   0.564   7.620   3.210
71726W        W44052  34.430  21.987   1.513
71727W        W44053   7.091  11.668   2.870
71728W        W44054   7.382  43.873  13.617
71729W        W44055   3.871  13.422  13.961
71730W        W44056  24.997   4.250  10.363
71731W        W44057  40.519  40.280  10.822
71732W        W44058   6.208   0.079   1.512
71733W        W44059  37.956  42.721  14.879
71734W        W44060  33.454  12.619   2.140
71735W        W44061  27.515   8.647  13.273
71736W        W44062  34.090  16.188   4.433
71737W        W44063  37.816  34.141  13.930
71738W        W44064   3.887  18.206   0.443
71739W        W44065   7.122  22.446  14.804
71740W        W44066  36.628  36.354   0.395
71741W        W44067   5.808  12.043   2.030
71742W        W44068  27.729   0.500  13.349
71743W        W44069   4.873  31.408   2.441
71744W        W44070  34.022  17.730  14.456
71745W        W44071  13.117  36.850  11.482
71746W        W44072  27.609  27.156   0.886
71747W        W44073  41.107  22.263  12.465
71748W        W44074   3.362  20.582   3.885
71749W        W44075  15.711  40.789  12.350
71750W        W44076  29.739  23.082  12.570
71751W        W44077  26.977   4.068  14.082
71752W        W44078   4.364   9.979   4.658
71753W        W44079  19.325  37.515   3.290
71754W        W44080  44.729  29.163   0.901
71755W        W44081  13.182  16.429   4.990
71756W        W44082   6.442  14.880  12.756
71757W        W44083  20.224  42.848  13.062
71758W        W44084  33.679  39.511  14.010
71759W        W44085   5.143   7.284   3.136
71760W        W44086  31.478  10.635  11.659
71761W        W44087  39.891   4.318  14.962
71762W        W44088  24.780  30.363   1.435
71763W        W44089  38.268  15.847  13.945
71764W        W44090  30.888   0.330  14.874
71765W        W44091  27.496   4.810   0.349
71766W        W44092  44.189  31.221   0.888
71767W        W44093  27.926  10.372  14.076
71768W        W44094   4.786  13.082  13.837
71769W        W44095  34.813  44.867  13.437
71770W        W44096  35.555  32.216  14.432
71771W        W44097  40.321  25.781  11.411
71772W        W44098  23.859  28.408   0.538
71773W        W44099  34.539   6.700   1.135
71774W        W44100  23.771  16.965  13.100
71775W        W44101  40.488   3.135  13.907
71776W        W44102  29.712  21.086  13.969
71777W        W44103  16.711  36.957   3.415
71778W        W44104   8.279  25.520   2.091
71779W        W44105  32.979  22.431  12.495
71780W        W44106  34.102   3.158   1.727
71781W        W44107  15.597  26.138   4.637
71782W        W44108   1.818  20.116  13.782
71783W        W44109  37.050  36.840   3.248
71784W        W44110   4.014   8.117   3.243
71785W        W44111  15.265  41.547   2.689
71786W        W44112  44.687  40.048   0.400
71787W        W44113   1.403  44.209   3.700
71788W        W44114  22.794  43.503   4.427
71789W        W44115  13.703  14.919   0.815
71790W        W44116  21.589   9.434  12.449
71791W        W44117  33.712  15.191   0.247
71792W        W44118   5.163  24.410  10.590
71793W        W44119  28.091  21.569  13.422
71794W        W44120   1.578  20.581  14.455
71795W        W44121  24.736  21.040  13.280
71796W        W44122   9.700  15.644   0.513
71797W        W44123   0.799  26.926   1.751
71798W        W44124  25.032  41.067  10.540
71799W        W44125   9.920  30.946  13.904
71800W        W44126  19.771  11.875  12.464
71801W        W44127  32.026  39.458  13.392
71802W        W44128  12.812   1.291  14.234
71803W        W44129   6.103  40.718  11.147
71804W        W44130  33.364  11.609  13.021
71805W        W44131  43.519  11.349  13.930
71806W        W44132  19.274  29.606  13.103
71807W        W44133   0.262  43.804   0.318
71808W        W44134   5.165  28.424  12.457
71809W        W44135   8.554  17.807  11.207
71810W        W44136  23.626  32.464   1.001
71811W        W44137  28.416  26.622  11.620
71812W        W44138  19.148  21.148  10.580
71813W        W44139   8.422  17.605   3.070
71814W        W44140   2.824  13.680   3.609
71815W        W44141  24.227  44.311   2.436
71816W        W44142  43.339   6.650   4.550
71817W        W44143  25.651   3.919  10.374
71818W        W44144   1.886  15.900  11.046
71819W        W44145  27.077  22.083  12.203
71820W        W44146  36.853  44.783  12.568
71821W        W44147  22.920  27.975  13.830
71822W        W44148  15.546  43.920   3.626
71823W        W44149  41.609   3.724  13.517
71824W        W44150  32.890   5.971  11.057
71825W        W44151  24.410  36.436   1.017
71826W        W44152  30.716  12.648   3.735
71827W        W44153   6.265   5.972  12.855
71828W        W44154  37.641  32.017  11.592
71829W        W44155   7.126   4.443  14.244
71830W        W44156  38.989  20.735   3.432
71831W        W44157  32.578  35.840  11.557
71832W        W44158  24.193  27.708  12.087
71833W        W44159  40.862  22.878  12.804
71834W        W44160  15.310  42.964  14.078
71835W        W44161  13.328  44.510  14.395
71836W        W44162  41.036   4.981   0.539
71837W        W44163  19.172  24.449   1.087
71838W        W44164  43.006   6.164   0.360
71839W        W44165  38.034   6.178   0.833
71840W        W44166   7.429  40.647  12.423
71841W        W44167   7.962   0.387  11.272
71842W        W44168   9.820   6.376   2.114
71843W        W44169  21.502  32.121  13.803
71844W        W44170  24.273  42.978  10.643
71845W        W44171  31.555  25.511  11.982
71846W        W44172  13.508  24.395   5.423
71847W        W44173  17.085  12.679  10.521
71848W        W44174  44.069  41.554   4.878
71849W        W44175  34.144  10.601   1.764
71850W        W44176  36.362  40.578   3.643
71851W        W44177  36.926  24.774  12.635
71852W        W44178  17.013  41.544   1.906
71853W        W44179  15.121  43.414  11.379
71854W        W44180  37.087  38.910   2.865
71855W        W44181   2.027  18.461  12.396
71856W        W44182  14.072  28.603   2.910
71857W        W44183  17.280  22.276   1.439
71858W        W44184  24.838  20.176  12.283
71859W        W44185  27.639  21.161  13.962
71860W        W44186   3.089  37.008  13.537
71861W        W44187  35.478   0.254   1.168
71862W        W44188  34.840  15.712  11.611
71863W        W44189  27.035   1.986  13.983
71864W        W44190  28.606   9.773   3.708
71865W        W44191  36.072   3.788   2.655
71866W        W44192  33.661  39.332  13.414
71867W        W44193  10.502   1.669   0.049
71868W        W44194  20.065  22.995  14.827
71869W        W44195  26.225  44.458   3.927
71870W        W44196  44.364  31.041  11.246
71871W        W44197  18.313   1.462   3.195
71872W        W44198   2.977  44.301   2.604
71873W        W44199  38.439  39.342  11.641
71874W        W44200  23.013  11.786   0.379
71875W        W44201  13.764  14.466  10.441
71876W        W44202  11.765  13.091  10.849
71877W        W44203  34.764  42.949   3.365
71878W        W44204   3.227   8.491   4.097
71879W        W44205  38.952  38.864  14.291
71880W        W44206  11.650  40.482   1.324
71881W        W44207  37.378  29.688  11.207
71882W        W44208  39.103  21.663   4.544
71883W        W44209  26.441   7.770  14.601
71884W        W44210  31.553  25.524   1.811
71885W        W44211   1.367   9.305  12.490
71886W        W44212   8.381  11.154  12.535
71887W        W44213  25.214  37.810   3.090
71888W        W44214  44.429  24.718   0.368
71889W        W44215   8.203  23.121   0.626
71890W        W44216  29.424  30.977   4.264
71891W        W44217  32.057  25.341   3.840
71892W        W44218  10.779  40.195   1.813
71893W        W44219  17.150   3.471   0.914
71894W        W44220  41.255   2.298  12.558
71895W        W44221  22.704  36.470   3.804
71896W        W44222   8.158  25.035   0.917
71897W        W44223  30.070  20.328  11.107
71898W        W44224  42.493  15.689   1.292
71899W        W44225   9.416  22.074   2.263
71900W        W44226   0.994  37.011  13.192
71901W        W44227  21.763  27.939   1.427
71902W        W44228  17.821  29.206   0.328
71903W        W44229  17.775  38.017   2.396
71904W        W44230  15.588   6.644  14.316
71905W        W44231  11.394   1.384   3.395
71906W        W44232  38.341  40.051  14.330
71907W        W44233  37.501  27.507  10.407
71908W        W44234  44.286  27.636  10.186
71909W        W44235   3.929  35.899  14.529
71910W        W44236  36.440  24.573   3.712
71911W        W44237   3.511   1.867   4.601
71912W        W44238  11.784  27.054   4.566
71913W        W44239  15.056  30.669  12.876
71914W        W44240  36.827  35.530   4.099
71915W        W44241  11.308  41.004  13.038
71916W        W44242  17.309  25.208   1.431
71917W        W44243  40.391   5.649   2.824
71918W        W44244  29.804  44.284   5.270
71919W        W44245  41.013  11.047  10.620
71920W        W44246   2.017  39.288   4.145
71921W        W44247  40.214   7.931  13.876
71922W        W44248  11.349  33.015   0.364
71923W        W44249  12.183   5.403  12.192
71924W        W44250  28.415  15.674   4.091
71925W        W44251  13.555  40.280   2.743
71926W        W44252   3.735  19.271  11.102
71927W        W44253   1.826   7.886  14.839
71928W        W44254  43.427  10.815   0.783
71929W        W44255  13.790   5.625  14.837
71930W        W44256  28.729  36.545   4.562
71931W        W44257  27.202  16.785  14.344
71932W        W44258   3.149  15.759   4.646
71933W        W44259  28.949  23.665   1.431
71934W        W44260  42.442  32.183   3.256
71935W        W44261  20.883  31.972  11.676
71936W        W44262   9.905  32.882   4.520
71937W        W44263  43.850   8.784   1.211
71938W        W44264  28.186  20.756  12.547
71939W        W44265  11.759   2.002  14.543
71940W        W44266   3.439  34.406  10.686
71941W        W44267  18.108  36.391  11.105
71942W        W44268  43.703  23.477   2.996
71943W        W44269  36.849   4.529  14.041
71944W        W44270  41.798  37.446   4.035
71945W        W44271  17.954  44.348   0.409
71946W        W44272   9.916  37.602  11.220
71947W        W44273  26.163  25.065  13.413
71948W        W44274  19.967  41.827  14.032
71949W        W44275   3.154  35.027  14.018
71950W        W44276  31.486  37.374   2.662
71951W        W44277   8.632  29.003  13.900
71952W        W44278   2.001  43.818   3.227
71953W        W44279   5.681  41.051  11.242
71954W        W44280   8.244  37.501  14.868
71955W        W44281   4.469  33.184   4.821
71956W        W44282  44.160  15.284  13.557
71957W        W44283  40.716   7.446   2.722
71958W        W44284  17.814  31.440   0.455
71959W        W44285  26.909   1.868   2.715
71960W        W44286   3.257  26.680   2.399
71961W        W44287  34.343  19.777   2.386
71962W        W44288  11.797   2.688  10.761
71963W        W44289  29.705  29.098   3.677
71964W        W44290  37.944   3.962   0.249
71965W        W44291  42.478   1.839   4.527
71966W        W44292  11.795  39.342  10.505
71967W        W44293  33.036  34.355  12.793
71968W        W44294  31.680   8.641  13.011
71969W        W44295  44.697  14.895   0.431
71970W        W44296  10.900   5.529   4.073
71971W        W44297  17.800  30.571   0.367
71972W        W44298   6.210  15.644   2.768
71973W        W44299  38.894  36.299  12.668
71974W        W44300  23.679  18.047  12.928
71975W        W44301  38.211   3.814  14.383
71976W        W44302  42.668  35.926   0.999
71977W        W44303  24.985  19.519  12.429
71978W        W44304  38.357   0.860  10.259
71979W        W44305  43.845  14.179  10.452
71980W        W44306  21.312  42.407  13.493
71981W        W44307  43.546  25.554   2.255
71982W        W44308  29.538   9.687  11.449
71983W        W44309  41.470  37.590   0.289
71984W        W44310  10.042  43.842  10.721
71985W        W44311  39.941  17.162  12.552
71986W        W44312   5.460  28.480  14.195
71987W        W44313  11.607  40.365   4.661
71988W        W44314  16.170  11.833  13.926
71989W        W44315  36.260  41.333   5.084
71990W        W44316   5.348  14.215   4.369
71991W        W44317  34.099  33.008   1.445
71992W        W44318  36.050  10.123   2.721
71993W        W44319   1.065  12.775   4.713
71994W        W44320  16.070  36.517  10.524
71995W        W44321  15.157  33.909   4.359
71996W        W44322  24.756  38.086   4.545
71997W        W44323  43.409  14.067  10.731
71998W        W44324   7.282  43.764  10.602
71999W        W44325  24.297  22.212  11.659
72000W        W44326  41.465   9.423  12.788
72001W        W44327  42.384  23.100  10.364
72002W        W44328  32.448  10.179  13.980
72003W        W44329  28.683  39.915  12.613
72004W        W44330   0.949  10.929  14.250
72005W        W44331   5.955  32.549   1.625
72006W        W44332  25.661   5.490   2.730
72007W        W44333  13.107  43.498  12.899
72008W        W44334  29.000  33.259   2.451
72009W        W44335  37.423  11.728  14.823
72010W        W44336  12.072  20.649  12.559
72011W        W44337  16.634   9.614  10.899
72012W        W44338  26.890  43.237  12.566
72013W        W44339  44.406   8.003   4.956
72014W        W44340  10.053  23.681   0.273
72015W        W44341  18.285  24.195   0.002
72016W        W44342   3.531  26.416   4.632
72017W        W44343  19.453   3.757   2.782
72018W        W44344  25.106  11.206   3.853
72019W        W44345  44.548  23.653   0.432
72020W        W44346  17.485   7.339  12.241
72021W        W44347  39.338  12.566   2.823
72022W        W44348  16.807  42.997  13.777
72023W        W44349  12.172  23.346  10.682
72024W        W44350   5.248  25.771  12.872
72025W        W44351  36.499  16.718   2.351
72026W        W44352  27.681   6.127  11.022
72027W        W44353  10.453  32.941   4.663
72028W        W44354  13.052  43.286   0.754
72029W        W44355  21.002  16.721  12.385
72030W        W44356  42.957  42.327   1.725
72031W        W44357  41.633  13.590   3.909
72032W        W44358   3.693  16.022  13.006
72033W        W44359  38.445   7.723  10.441
72034W        W44360  42.001   2.972  11.490
72035W        W44361  13.825   2.709  14.992
72036W        W44362  31.121   0.713   2.188
72037W        W44363  16.305  32.040   5.122
72038W        W44364  13.898  15.938   0.701
72039W        W44365  11.640  16.674   2.895
72040W        W44366  37.484   8.275  11.924
72041W        W44367  15.611   0.917  12.397
72042W        W44368  13.074  42.991   1.203
72043W        W44369  28.908   2.660   3.888
72044W        W44370  19.797  43.288   1.201
72045W        W44371   7.345  22.992   1.864
72046W        W44372   2.757   4.473  12.425
72047W        W44373   7.994   6.855   4.341
72048W        W44374   9.600  15.553   4.561
72049W        W44375  12.336  43.486   0.548
72050W        W44376  38.291  28.215  14.921
72051W        W44377  33.363  23.296   3.251
72052W        W44378  13.261  12.271   2.378
72053W        W44379  13.238  40.827  11.075
72054W        W44380   4.677  13.116  12.326
72055W        W44381   2.215  27.605   0.453
72056W        W44382  39.849  36.986  12.977
72057W        W44383  17.074  26.940  11.174
72058W        W44384  41.962  32.645   4.764
72059W        W44385  34.535   6.982   3.699
72060W        W44386  15.836  40.750  11.541
72061W        W44387   0.529  27.018  13.699
72062W        W44388  10.358  37.644  10.688
72063W        W44389  18.295  37.597  12.937
72064W        W44390  14.083  27.168  13.834
72065W        W44391  42.816  15.162  14.783
72066W        W44392  41.134  31.983   4.493
72067W        W44393  11.375  29.597  12.659
72068W        W44394  30.396  15.515   0.875
72069W        W44395  28.737  14.076   4.318
72070W        W44396  27.759  35.403  11.005
72071W        W44397  27.341  39.285  12.958
72072W        W44398   5.114  27.259  14.098
72073W        W44399  32.946  12.759  12.627
72074W        W44400  19.971   4.490  14.065
72075W        W44401  26.047  44.871   0.403
72076W        W44402  17.093  13.740   1.470
72077W        W44403   5.850  20.445  11.350
72078W        W44404   2.298  26.551  12.646
72079W        W44405  12.824  25.726   4.900
72080W        W44406  25.603  10.195  10.360
72081W        W44407  33.036  11.906   3.400
72082W        W44408  32.979  41.940  10.669
72083W        W44409   9.280  27.213   0.876
72084W        W44410  23.666  26.626   2.508
72085W        W44411  12.999  10.262  14.318
72086W        W44412  21.036  23.480   2.188
72087W        W44413   0.507  17.740   2.156
72088W        W44414   2.338   6.815   3.673
72089W        W44415  24.057  28.396   1.014
72090W        W44416  42.198  12.789  13.317
72091W        W44417  34.358  42.074   0.725
72092W        W44418  35.254  28.103  12.460
72093W        W44419  33.566  36.493  12.412
72094W        W44420   8.580   2.341  12.270
72095W        W44421   1.470  24.712   3.277
72096W        W44422  33.084   1.455   2.232
72097W        W44423  26.725  40.008   2.219
72098W        W44424  13.840  37.973   0.730
72099W        W44425  19.875  36.884  14.751
72100W        W44426  14.833  33.017  14.253
72101W        W44427  34.030  39.803   3.681
72102W        W44428  43.417   3.731  11.131
72103W        W44429  32.142  10.360  11.561
72104W        W44430  37.528  11.293  14.488
72105W        W44431  35.091   2.288  11.545
72106W        W44432  39.757  37.358   1.100
72107W        W44433  11.600  39.834   2.801
72108W        W44434   0.436  32.908  14.881
72109W        W44435  41.733  36.447   4.901
72110W        W44436   2.722  44.247  11.931
72111W        W44437   1.744   5.339   3.448
72112W        W44438  30.788   9.247   0.180
72113W        W44439  11.461  43.873   4.109
72114W        W44440  13.450   4.422  13.050
72115W        W44441  33.144  33.409  12.307
72116W        W44442  30.577   8.741  10.819
72117W        W44443  15.263  44.442   2.115
72118W        W44444  10.130   7.413   2.079
72119W        W44445  39.493  25.140   1.098
72120W        W44446   8.521  35.798  14.832
72121W        W44447  15.159   6.826  14.040
72122W        W44448  40.001   1.305  14.815
72123W        W44449   7.384  24.619  11.563
72124W        W44450  23.190  20.471  12.927
72125W        W44451  41.924  35.980  12.115
72126W        W44452  19.324  43.352   1.759
72127W        W44453  34.033  22.480   3.200
72128W        W44454   0.983   7.723  13.431
72129W        W44455  14.684   3.038  14.548
72130W        W44456  19.648  21.995  13.807
72131W        W44457  21.992  29.438  13.852
72132W        W44458  12.760  18.751  11.996
72133W        W44459  39.970  27.048  13.131
72134W        W44460  28.150  25.958   1.177
72135W        W44461  39.903  30.887  13.869
72136W        W44462  34.688  31.855   4.557
72137W        W44463  11.558  34.370   4.280
72138W        W44464  14.893  36.933   3.495
72139W        W44465   3.819   8.288   4.091
72140W        W44466  22.609  35.784   1.314
72141W        W44467   2.462  12.647  10.297
72142W        W44468   4.437  43.534  13.379
72143W        W44469  15.640   5.907  14.924
72144W        W44470   3.732   3.480   0.288
72145W        W44471  29.315  36.941  12.413
72146W        W44472  15.689  11.071  11.817
72147W        W44473   3.002  30.557   3.880
72148W        W44474  25.403  37.494   2.737
72149W        W44475  33.951  30.114  14.124
72150W        W44476   0.455   8.654   2.240
72151W        W44477  16.129   7.333  12.091
72152W        W44478  23.292  16.804  12.889
72153W        W44479  44.895  11.403  11.361
72154W        W44480  21.820  25.908  11.118
72155W        W44481   3.150   2.504   2.851
72156W        W44482  40.498  39.288   2.773
72157W        W44483  18.214  11.737   1.606
72158W        W44484  28.260   8.801   2.278
72159W        W44485  28.633  15.414   1.851
72160W        W44486  22.229  44.260  10.700
72161W        W44487  13.594  37.045   5.016
72162W        W44488   5.912   8.788  12.047
72163W        W44489   5.439  39.423   2.952
72164W        W44490  25.035  31.398  13.889
72165W        W44491   6.450  23.165   1.230
72166W        W44492  17.223   7.270  14.852
72167W        W44493  21.266  19.032  13.025
72168W        W44494  18.188  37.509   4.226
72169W        W44495  35.532  17.597  11.683
72170W        W44496   4.376  33.671   4.561
72171W        W44497  39.848   3.659   0.358
72172W        W44498   7.139  44.511   1.275
72173W        W44499  33.532   4.381   4.616
72174W        W44500  16.147  20.633   2.599
72175W        W44501  18.127   7.633  12.884
72176W        W44502  42.578  12.540   0.270
72177W        W44503   7.177  25.872  13.656
72178W        W44504  11.922   4.450   1.887
72179W        W44505  23.083  34.483   4.621
72180W        W44506  33.517  18.662   3.273
72181W        W44507  41.270  25.964   1.358
72182W        W44508  13.162  26.979   0.347
72183W        W44509  28.474  43.399   2.847
72184W        W44510  20.447  42.935  11.762
72185W        W44511   9.815  38.044  12.142
72186W        W44512  22.653  42.475  10.931
72187W        W44513  24.127  26.650   4.188
72188W        W44514  40.343   8.284   3.257
72189W        W44515  30.651  15.619   0.435
72190W        W44516  26.472  19.582  13.925
72191W        W44517  25.285  21.040   0.675
72192W        W44518  44.429  26.126  10.272
72193W        W44519   3.670  11.973  12.045
72194W        W44520  18.624  40.562   4.758
72195W        W44521  34.586  31.598   2.846
72196W        W44522  30.684  31.336   0.390
72197W        W44523  22.030  41.306  13.277
72198W        W44524  37.018  12.817  11.519
72199W        W44525  13.111  26.139   4.179
72200W        W44526  33.873  42.748  13.875
72201W        W44527  39.975  18.062   2.640
72202W        W44528  42.184  19.230   1.727
72203W        W44529  33.542  17.919  14.364
72204W        W44530  14.663   5.708  14.772
72205W        W44531  35.292  14.252   3.288
72206W        W44532   9.718  34.122   0.122
72207W        W44533  25.522  20.150  12.799
72208W        W44534  19.104  29.075  12.301
72209W        W44535   0.010   3.177  10.747
72210W        W44536  42.927  36.969  13.878
72211W        W44537  13.834  20.673   0.311
72212W        W44538  29.745  23.415   1.784
72213W        W44539   0.822  30.566  11.966
72214W        W44540   3.181  24.628  12.963
72215W        W44541  43.975  34.618  11.444
72216W        W44542  27.274  11.891  13.177
72217W        W44543  35.918  11.129   1.824
72218W        W44544  17.848  42.740  14.569
72219W        W44545  18.068   0.466   4.743
72220W        W44546  12.131  13.373   3.273
72221W        W44547  32.950  20.187   2.875
72222W        W44548  21.134  44.144  14.072
72223W        W44549  32.107  33.317  11.093
72224W        W44550  30.130  43.863   4.429
72225W        W44551  19.601  27.218  11.540
72226W        W44552  42.579  43.770  11.473
72227W        W44553   8.492  42.966  12.547
72228W        W44554   7.652  25.450   3.339
72229W        W44555  42.806  16.134   1.162
72230W        W44556  24.268  12.587   0.937
72231W        W44557  41.469   6.880  11.180
72232W        W44558  10.264   2.996  13.886
72233W        W44559   4.360  22.491  10.182
72234W        W44560  31.420  24.940   0.442
72235W        W44561  13.292  39.997  10.703
72236W        W44562   0.460   2.432   0.964
72237W        W44563  39.010  38.346   1.911
72238W        W44564  27.820  11.667   0.852
72239W        W44565   0.132  28.068  11.044
72240W        W44566  33.491  10.883  11.883
72241W        W44567  17.964   0.842  13.895
72242W        W44568  26.018   8.817   3.723
72243W        W44569  27.146   8.643   3.849
72244W        W44570  12.412  10.366   4.225
72245W        W44571   6.152   6.421  12.124
72246W        W44572  42.257  38.167  12.427
72247W        W44573   8.656  33.567  13.574
72248W        W44574  24.238   3.889  10.542
72249W        W44575   7.651  25.554  14.900
72250W        W44576  16.331  13.802   0.632
72251W        W44577  26.721   7.953  11.235
72252W        W44578   7.652  19.928   1.268
72253W        W44579   1.634   2.006   2.189
72254W        W44580   2.815  26.451   5.429
72255W        W44581  38.111   7.367   4.065
72256W        W44582  36.594   1.442   1.856
72257W        W44583  31.440  11.781   0.698
72258W        W44584   1.814  34.609   4.158
72259W        W44585  14.368  35.417  12.881
72260W        W44586  18.802  34.011   2.419
72261W        W44587  22.006  18.635   4.952
72262W        W44588  30.697  33.342   0.466
72263W        W44589   4.375  27.951   0.956
72264W        W44590  42.800  15.698   0.877
72265W        W44591  18.604  27.678   3.231
72266W        W44592  11.743  24.259  14.785
72267W        W44593  44.386  30.426   0.453
72268W        W44594  21.835  23.513  14.749
72269W        W44595  17.215  25.232   5.021
72270W        W44596   8.304  11.193   1.861
72271W        W44597  14.337  13.849   0.348
72272W        W44598  30.990  12.169  12.819
72273W        W44599  18.086  14.871  11.510
72274W        W44600  15.859   1.706  12.933
72275W        W44601  42.581   2.812   1.691
72276W        W44602  16.013  22.657   1.019
72277W        W44603   4.126  13.214  11.513
72278W        W44604   0.516  39.758   2.906
72279W        W44605   7.380  27.073   0.378
72280W        W44606   8.410  30.579   1.485
72281W        W44607   8.849  34.409   4.669
72282W        W44608  17.120  39.226  12.060
72283W        W44609  38.594   8.433  10.546
72284W        W44610  33.385  22.929   1.830
72285W        W44611  40.744   3.389   3.224
72286W        W44612  41.813   8.807   2.565
72287W        W44613  24.736  10.410   3.797
72288W        W44614  36.169   7.327  12.865
72289W        W44615  16.609  21.980  12.002
72290W        W44616  39.970   3.704   1.828
72291W        W44617  25.028  39.521  12.832
72292W        W44618  26.036   9.270   3.367
72293W        W44619  27.808  38.613  12.019
72294W        W44620  21.446   3.735   3.738
72295W        W44621   0.933  13.109   3.583
72296W        W44622  14.627   7.454   1.941
72297W        W44623  43.543   5.338   1.280
72298W        W44624  36.400   7.767   1.536
72299W        W44625  28.475   4.514   2.889
72300W        W44626  44.462  14.195   4.173
72301W        W44627  19.166  11.622  11.676
72302W        W44628  32.615  44.843  14.594
72303W        W44629  23.014  43.463   1.913
72304W        W44630   5.745  41.078   0.677
72305W        W44631  13.701  11.171   3.256
72306W        W44632   1.471  41.860  13.563
72307W        W44633  27.965  34.304   2.940
72308W        W44634  28.852  13.315  14.803
72309W        W44635  19.987  15.183   0.713
72310W        W44636  13.716  20.841  14.842
72311W        W44637  37.151  32.101  12.446
72312W        W44638  18.660  28.224  11.289
72313W        W44639  18.310  17.834  12.091
72314W        W44640   6.209  19.327   3.073
72315W        W44641   5.342   3.765  11.778
72316W        W44642   9.351   0.287  11.068
72317W        W44643  16.753  28.772   2.327
72318W        W44644   5.237  44.929  14.915
72319W        W44645  34.037  33.245  10.214
72320W        W44646  11.806  28.882   3.308
72321W        W44647   9.881  24.000  13.322
72322W        W44648   2.931  13.838   4.082
72323W        W44649   8.169  26.677  13.936
72324W        W44650   0.518  10.624  13.956
72325W        W44651  19.668  38.418   0.743
72326W        W44652  34.265  22.023  12.591
72327W        W44653  28.884  18.657  13.017
72328W        W44654  16.851  43.801   0.786
72329W        W44655   0.542  30.827  12.953
72330W        W44656  17.360   9.415  12.449
72331W        W44657  32.918  32.604  14.369
72332W        W44658  29.506  40.396   3.608
72333W        W44659  40.831  38.914   4.663
72334W        W44660  12.318  14.137  12.607
72335W        W44661  32.178  11.433  13.276
72336W        W44662   0.291  17.124   1.367
72337W        W44663   8.666  20.140   1.475
72338W        W44664  41.868  26.996  11.532
72339W        W44665   6.569  17.225  14.270
72340W        W44666  33.399  37.423   2.326
72341W        W44667  20.139  20.322   1.445
72342W        W44668  15.664  10.978   1.272
72343W        W44669  17.044  31.653  13.893
72344W        W44670  15.654  40.750   0.345
72345W        W44671  23.711  23.938   4.183
72346W        W44672   3.902   4.945  11.958
72347W        W44673   0.470  15.123   2.821
72348W        W44674  11.971  26.172  10.876
72349W        W44675  36.479  23.749  11.167
72350W        W44676  29.474  23.048  13.913
72351W        W44677  28.485  28.114   1.434
72352W        W44678  43.829   7.401  13.038
72353W        W44679  41.163  14.276  12.767
72354W        W44680  13.268  33.078   1.834
72355W        W44681  19.203  41.044  12.446
72356W        W44682  20.192  12.610  12.533
72357W        W44683  44.458  23.143  14.978
72358W        W44684  43.311   1.396   2.350
72359W        W44685  40.202  35.953  11.065
72360W        W44686  23.678  29.321   0.257
72361W        W44687  27.981   9.187   3.903
72362W        W44688  19.263  17.329  13.396
72363W        W44689  37.469  36.052  11.247
72364W        W44690  12.378  29.999  12.367
72365W        W44691  33.638  12.402  13.461
72366W        W44692  15.540  36.063  11.592
72367W        W44693  35.903  19.285  11.130
72368W        W44694  16.294  38.933   3.163
72369W        W44695   2.448  22.205  14.515
72370W        W44696  11.880  15.168   0.733
72371W        W44697  20.509  36.509  14.326
72372W        W44698  18.280  44.956  11.608
72373W        W44699  25.537  24.719  10.672
72374W        W44700  21.342   9.882   1.253
72375W        W44701  29.587  32.304  10.550
72376W        W44702  21.654  28.478   2.098
72377W        W44703  38.649   7.469  12.895
72378W        W44704  31.551  27.224   3.218
72379W        W44705  25.879  41.023  12.000
72380W        W44706   1.401  41.036   2.396
72381W        W44707  15.953  27.498   0.825
72382W        W44708  40.976  23.054   4.326
72383W        W44709  24.110   7.137   3.185
72384W        W44710  21.358  30.526   4.456
72385W        W44711  43.258  33.629  14.811
72386W        W44712  15.081   3.336  14.408
72387W        W44713  36.290   6.250  14.210
72388W        W44714  44.463   5.679   0.868
72389W        W44715  39.109  41.834  14.807
72390W        W44716  11.627  44.487  10.759
72391W        W44717  24.967  34.736  11.814
72392W        W44718  42.871  37.004   4.500
72393W        W44719   2.874  17.044  14.843
72394W        W44720  31.108   0.813   0.738
72395W        W44721  29.440  37.677   4.558
72396W        W44722  13.744  29.915  13.569
72397W        W44723  13.697  36.535  10.192
72398W        W44724  20.638  24.701  11.626
72399W        W44725  41.079  29.522   3.678
72400W        W44726  37.828  15.323   3.594
72401W        W44727  28.882   8.337  13.859
72402W        W44728  42.724  35.557   2.794
72403W        W44729  26.936  29.821  11.407
72404W        W44730  37.764  18.409  11.484
72405W        W44731  32.811  33.568  11.922
72406W        W44732  12.220   8.928   1.900
72407W        W44733  40.449  44.326   0.194
72408W        W44734  36.819  27.503  11.989
72409W        W44735  35.079  37.418  11.547
72410W        W44736  39.520   0.622  13.944
72411W        W44737   1.695  43.795   2.288
72412W        W44738  39.563  28.518   0.800
72413W        W44739  22.470  36.164  11.657
72414W        W44740  32.405   4.178   0.075
72415W        W44741  40.745   9.125  11.195
72416W        W44742  41.365   4.632   2.755
72417W        W44743  29.119  24.699  14.946
72418W        W44744  30.383  15.504  11.462
72419W        W44745  40.605  36.481   0.009
72420W        W44746  43.351  14.706  11.404
72421W        W44747   5.916   1.719   3.749
72422W        W44748  37.242  32.986   3.388
72423W        W44749  36.984   8.794  10.167
72424W        W44750  14.634  32.889  11.003
72425W        W44751  32.955  32.918  10.837
72426W        W44752  27.255  37.272   4.189
72427W        W44753   2.335  18.135   0.933
72428W        W44754  28.152  17.571  13.814
72429W        W44755  10.802  39.127   1.672
72430W        W44756  23.712  24.233   3.308
72431W        W44757  16.072  43.928  12.411
72432W        W44758  16.672   4.095   1.309
72433W        W44759  19.231  30.888  14.457
72434W        W44760  40.990   8.171  12.779
72435W        W44761   4.699  11.177  12.495
72436W        W44762  37.993  21.562  13.754
72437W        W44763  17.837  26.035  13.944
72438W        W44764  15.338  10.554  11.303
72439W        W44765  10.638  40.810   3.885
72440W        W44766  26.870  43.536  13.899
72441W        W44767  16.595  35.869   0.907
72442W        W44768  14.820   7.079   2.241
72443W        W44769  21.139  42.383   3.230
72444W        W44770  37.387  44.664  12.468
72445W        W44771  29.275  21.685   3.284
72446W        W44772   9.928  10.836   1.233
72447W        W44773  39.809  15.304   4.563
72448W        W44774  19.030  26.655  11.666
72449W        W44775   5.744   5.866  10.790
72450W        W44776   8.949  27.080   2.759
72451W        W44777  41.042  30.422   3.791
72452W        W44778  34.627  23.163  14.416
72453W        W44779  16.588  25.571  13.860
72454W        W44780  32.669   6.302  13.863
72455W        W44781  27.574  36.970   1.927
72456W        W44782  13.735  16.027   1.630
72457W        W44783   8.611  39.537  12.462
72458W        W44784  11.767   8.800  11.154
72459W        W44785   2.619   8.986  14.561
72460W        W44786  37.538   8.264   2.169
72461W        W44787  11.375   4.708  14.804
72462W        W44788  29.566  21.530   4.594
72463W        W44789  28.062   8.062   1.863
72464W        W44790   9.163  33.883  13.976
72465W        W44791  23.160  33.433  10.614
72466W        W44792  42.376  10.756  12.964
72467W        W44793  26.613  41.369   1.717
72468W        W44794  17.796  22.601   4.273
72469W        W44795  15.629  18.815   3.645
72470W        W44796  41.399  16.286   1.806
72471W        W44797  24.724   6.763   2.374
72472W        W44798  18.799   0.473  14.348
72473W        W44799  43.884   4.409  13.407
72474W        W44800  19.096  24.568  11.374
72475W        W44801  27.690  23.735  13.047
72476W        W44802  20.361  39.009   4.592
72477W        W44803  21.710  41.081   3.317
72478W        W44804  14.852  27.589   4.490
72479W        W44805  27.565   8.850  14.861
72480W        W44806   6.324   1.349  11.229
72481W        W44807  37.349   5.394  13.967
72482W        W44808  32.439   3.065   0.997
72483W        W44809   2.978  11.295   3.677
72484W        W44810  41.292   9.856   0.053
72485W        W44811  28.593  42.392   0.455
72486W        W44812  20.623  41.429   1.823
72487W        W44813  30.907  33.593   4.256
72488W        W44814  26.563  24.636   4.421
72489W        W44815  22.617  27.004  13.620
72490W        W44816   7.735  26.070   2.185
72491W        W44817   5.641  28.602   3.576
72492W        W44818  14.838  10.672  12.911
72493W        W44819  35.027  27.765   4.674
72494W        W44820  16.702  25.256  13.438
72495W        W44821  33.421  35.422   4.372
72496W        W44822  22.583  42.777  13.949
72497W        W44823  38.886  15.386  14.811
72498W        W44824  36.005  27.539   4.347
72499W        W44825  31.656  36.561   0.450
72500W        W44826  26.077  36.110  10.336
72501W        W44827  34.139   6.230  13.314
72502W        W44828  25.537  35.885  11.649
72503W        W44829  28.638  26.981  10.962
72504W        W44830  23.897  42.781   3.168
72505W        W44831  29.035  27.114   2.995
72506W        W44832  34.590  12.743  11.649
72507W        W44833  35.487  37.176  12.560
72508W        W44834   6.753  16.468  12.491
72509W        W44835  28.941  33.031   4.728
72510W        W44836  44.170   4.796   3.258
72511W        W44837  19.033   3.228  11.798
72512W        W44838  10.060  17.155   2.328
72513W        W44839   0.464   1.654   2.701
72514W        W44840  19.676   9.342  11.614
72515W        W44841  12.679  24.694  12.877
72516W        W44842   3.862  35.906   1.345
72517W        W44843  35.560  19.687   4.764
72518W        W44844   2.427  34.660   2.693
72519W        W44845   8.801  17.812   1.622
72520W        W44846  34.417   0.451   2.082
72521W        W44847   5.237  22.927   3.198
72522W        W44848  14.242  26.175  10.684
72523W        W44849  35.896  32.049  13.037
72524W        W44850  20.665  18.611  11.639
72525W        W44851  27.404  27.054  12.895
72526W        W44852  18.220  16.841   3.706
72527W        W44853  37.124  12.272   1.949
72528W        W44854  31.964   8.735  12.577
72529W        W44855   2.126  31.231   1.681
72530W        W44856  33.133   8.716  13.939
72531W        W44857  33.352  39.400   1.243
72532W        W44858  37.643  36.381   3.811
72533W        W44859  20.807   7.934  13.557
72534W        W44860   1.407  15.712  11.129
72535W        W44861  15.735  40.244   0.455
72536W        W44862   2.407  21.025  13.031
72537W        W44863  35.985  26.046  11.169
72538W        W44864  21.259  20.000   1.119
72539W        W44865  37.804  43.988  10.535
72540W        W44866   5.889  22.466   0.233
72541W        W44867   2.491  23.546   2.292
72542W        W44868  17.099  41.205  14.240
72543W        W44869   7.421  21.841  12.044
72544W        W44870  14.659  39.052   4.709
72545W        W44871  12.316  23.555   4.848
72546W        W44872   1.212  31.842   1.659
72547W        W44873  23.456  37.496   2.070
72548W        W44874  10.854  26.082  10.968
72549W        W44875  24.115  37.434  10.710
72550W        W44876  12.321  44.537  13.468
72551W        W44877   6.483  21.680   3.076
72552W        W44878  25.962  37.334   1.265
72553W        W44879  34.089  12.912  14.209
72554W        W44880  36.390  39.333  12.006
72555W        W44881  34.539   0.732   1.607
72556W        W44882   8.783  44.410   2.770
72557W        W44883  20.848  27.083  11.146
72558W        W44884  13.031  18.603   1.256
72559W        W44885  37.005   9.791   3.735
72560W        W44886  44.379   0.501   3.608
72561W        W44887   4.577  19.104  14.283
72562W        W44888  44.260   7.425  13.973
72563W        W44889  10.379  18.649  11.297
72564W        W44890  22.795  12.357  12.912
72565W        W44891  23.082  44.822   0.228
72566W        W44892  21.940  33.074   0.966
72567W        W44893  29.088  15.090  11.386
72568W        W44894  32.944   8.238   3.637
72569W        W44895  43.829  28.592  10.922
72570W        W44896  22.543  30.516  10.667
72571W        W44897   8.115   5.981  14.374
72572W        W44898  28.088  15.570  14.680
72573W        W44899  25.687  12.382   1.429
72574W        W44900  13.677  40.913  13.314
72575W        W44901  10.191  23.265  11.964
72576W        W44902  19.626   4.902  11.688
72577W        W44903  13.661   9.976  13.565
72578W        W44904  13.243  13.984  11.777
72579W        W44905   1.745  33.178   1.371
72580W        W44906  22.159  44.995   1.585
72581W        W44907  36.737  29.041  11.426
72582W        W44908  10.668  38.086   3.637
72583W        W44909   3.363  21.466   5.045
72584W        W44910  20.092  21.895  14.055
72585W        W44911  20.086  42.845   0.415
72586W        W44912  21.308  42.922  13.859
72587W        W44913   7.083   6.223   1.333
72588W        W44914  36.820  24.553  10.732
72589W        W44915  12.698   5.279  12.112
72590W        W44916  36.563   3.054   4.151
72591W        W44917   4.237  32.016  13.570
72592W        W44918  34.797  20.376  13.215
72593W        W44919  15.862   3.922   3.552
72594W        W44920  40.445  28.200  13.537
72595W        W44921  15.678  12.661  11.627
72596W        W44922   1.685  35.149  13.675
72597W        W44923   7.195  31.005   0.810
72598W        W44924   9.980   6.416  13.008
72599W        W44925   1.732  30.227   0.786
72600W        W44926  26.575   7.354   1.245
72601W        W44927  39.575  29.155  10.721
72602W        W44928  39.086  18.480  11.583
72603W        W44929  43.606  21.076   4.271
72604W        W44930  30.155   9.558   2.230
72605W        W44931  40.853  22.563   4.568
72606W        W44932  44.206  31.695   3.170
72607W        W44933  42.345   1.744   4.064
72608W        W44934  33.466  40.216   1.871
72609W        W44935  29.336   0.475   0.745
72610W        W44936  30.510  31.120  12.912
72611W        W44937   9.696  25.529  13.984
72612W        W44938  32.274   9.841   3.151
72613W        W44939  41.057   1.375   4.184
72614W        W44940  23.870  23.289   0.378
72615W        W44941   4.286   0.776   2.859
72616W        W44942  11.555  30.559   3.671
72617W        W44943  23.588  17.150  12.177
72618W        W44944   0.405   7.664  10.757
72619W        W44945  12.132  22.705   2.430
72620W        W44946   4.158  40.843   0.732
72621W        W44947  18.064  32.208  10.501
72622W        W44948  11.727  28.742   2.366
72623W        W44949  37.449  42.062   1.785
72624W        W44950  43.352  19.701  11.892
72625W        W44951   1.178  11.749  12.877
72626W        W44952  31.430   8.792  11.437
72627W        W44953  14.775  33.539   4.414
72628W        W44954  36.522  14.226  13.501
72629W        W44955  25.757  17.194   5.436
72630W        W44956  38.201  27.407  14.096
72631W        W44957   0.124   0.390   1.401
72632W        W44958   0.786  17.840  12.657
72633W        W44959  35.744   4.927  13.434
72634W        W44960  44.776  15.226  14.768
72635W        W44961  15.862  33.387   1.892
72636W        W44962  44.514  30.508   4.077
72637W        W44963  23.600  43.101  11.905
72638W        W44964  23.566  14.539  12.456
72639W        W44965  12.841  41.059  12.943
72640W        W44966   6.741  34.063   0.478
72641W        W44967   1.829   3.203   2.853
72642W        W44968  36.527  26.878  12.233
72643W        W44969   1.331  24.916  10.583
72644W        W44970  32.406   2.671   3.176
72645W        W44971   5.819  43.412   1.243
72646W        W44972  27.606   0.927   2.926
72647W        W44973  39.254   6.970  14.944
72648W        W44974   0.274   9.008  13.739
72649W        W44975  32.861  44.062  12.008
72650W        W44976  10.786  38.314   4.112
72651W        W44977   7.234  24.962   4.091
72652W        W44978  23.023  42.760   3.374
72653W        W44979  27.017  15.628   2.303
72654W        W44980   0.371   7.160   1.801
72655W        W44981  36.281  23.630  10.713
72656W        W44982  27.060   9.273   0.398
72657W        W44983   6.075  16.304  14.092
72658W        W44984  26.377  22.662   3.593
72659W        W44985  20.254  44.267  13.478
72660W        W44986  14.215  35.852   1.956
72661W        W44987  12.392   8.844  11.940
72662W        W44988   1.747  25.108   2.307
72663W        W44989  23.946  14.102   2.431
72664W        W44990  18.125  35.508   0.241
72665W        W44991  22.843   5.694  12.431
72666W        W44992  11.149  18.294   1.934
72667W        W44993   1.001  26.457   4.606
72668W        W44994  31.381  14.685   1.718
72669W        W44995  33.100  23.473  13.515
72670W        W44996  32.978  14.280   0.111
72671W        W44997  41.767  43.825  11.178
72672W        W44998  40.949  17.775   2.821
72673W        W44999  16.524  21.447   0.715
72674W        W45000  35.545  32.935   2.352
72675W        W45001   5.388  44.423  14.801
72676W        W45002  24.994  12.076   0.831
72677W        W45003   6.405  37.967   0.720
72678W        W45004  16.316  22.144  10.589
72679W        W45005   5.901   2.455   1.837
72680W        W45006   0.359  18.048  10.941
72681W        W45007  18.798  38.623   1.410
72682W        W45008   6.962  14.381  12.817
72683W        W45009  18.654   9.208  11.187
72684W        W45010  17.824  31.918   3.659
72685W        W45011  44.841  30.682   2.229
72686W        W45012  25.288   9.935  11.345
72687W        W45013  32.510  41.510  14.035
72688W        W45014   1.936  43.966  14.381
72689W        W45015  34.298  35.446  12.019
72690W        W45016  35.368  12.846   2.346
72691W        W45017  22.101  32.423   2.807
72692W        W45018   0.911   6.915  12.460
72693W        W45019  17.506  13.707  11.046
72694W        W45020   3.297  29.890  10.786
72695W        W45021   7.380  21.023   2.032
72696W        W45022   5.953  37.517   0.363
72697W        W45023   8.862  27.809  13.437
72698W        W45024  40.394  34.033  13.835
72699W        W45025  43.411  12.615   1.392
72700W        W45026  20.482  16.242  14.820
72701W        W45027   3.729  19.292   3.273
72702W        W45028   1.292  32.568  14.619
72703W        W45029  20.110  32.621   4.155
72704W        W45030  18.624  21.329  10.635
72705W        W45031  18.455  36.069  11.541
72706W        W45032  29.601  27.955   4.547
72707W        W45033  30.485  41.753   0.901
72708W        W45034  16.312  13.729  11.531
72709W        W45035  42.347  44.101  14.496
72710W        W45036  11.870   0.318  10.997
72711W        W45037  26.442  26.557  13.500
72712W        W45038  13.051  17.782   1.780
72713W        W45039  37.114  40.393   2.880
72714W        W45040  31.125  31.820   4.678
72715W        W45041   1.527  12.182   5.149
72716W        W45042  33.265  39.754  11.876
72717W        W45043  17.233   0.909  12.469
72718W        W45044  24.440  17.268   4.564
72719W        W45045  17.839   7.687  12.401
72720W        W45046  39.915  36.037   3.691
72721ION    NA+45047   9.464  11.392  14.344
72722ION    NA+45048  23.271   0.661  14.931
72723ION    NA+45049  22.506  43.374  13.362
72724ION    NA+45050  21.364  16.452  10.899
72725ION    NA+45051  32.124  41.404   0.310
72726ION    NA+45052  14.314  32.588   3.213
72727ION    NA+45053  18.028  19.066  10.701
72728ION    NA+45054  40.080  34.854   1.172
72729ION    NA+45055  19.804   5.936   0.041
72730ION    NA+45056  24.242  18.532   2.747
72731ION    NA+45057  42.948  21.330  13.383
72732ION    NA+45058  19.128  31.241   0.733
72733ION    NA+45059   2.791  44.006  10.833
72734ION    NA+45060   5.957  12.993   4.581
72735ION    NA+45061  42.526  21.041   5.312
72736ION    NA+45062  19.589  29.172   3.642
72737ION    NA+45063  37.819   1.193  11.117
72738ION    NA+45064  43.574  43.809  11.218
72739ION    NA+45065   2.571   8.080   2.766
72740ION    NA+45066   7.138  29.119  12.894
72741ION    NA+45067  17.553  44.324  11.466
72742ION    NA+45068  37.879  37.583   0.921
72743ION    NA+45069  21.212   9.729  13.863
72744ION    NA+45070   1.840   8.616  11.058
72745ION    NA+45071   2.254   5.203   0.600
72746ION    NA+45072  31.381   0.932  11.526
72747ION    NA+45073   7.034  33.881   2.033
72748ION    NA+45074  40.326  19.774  14.261
72749ION    NA+45075   8.452  32.497   2.679
72750ION    NA+45076  40.793   2.693  14.259
72751ION    NA+45077  14.107  12.873   9.735
72752ION    NA+45078  38.794  10.350  12.433
72753ION    NA+45079  21.776  10.799  11.324
72754ION    NA+45080  36.629  43.448  10.702
72755ION    NA+45081  43.827  15.523   3.760
72756ION    NA+45082   1.502   2.268  10.203
72757ION    NA+45083   4.971   9.809   9.496
72758ION    NA+45084  25.864  18.439   1.288
72759ION    NA+45085  18.083  31.536  14.015
72760ION    NA+45086  21.214   0.167  10.751
72761ION    NA+45087  22.206  41.063  12.404
72762ION    NA+45088  20.658  16.108  14.276
72763ION    NA+45089   6.420  19.782   2.367
72764ION    NA+45090  14.566  36.900  11.545
72765ION    NA+45091  14.341  11.790  14.834
72766ION    NA+45092   7.485  31.477  11.478
72767ION    NA+45093  43.066  22.914   0.179
72768ION    NA+45094   8.764  26.253  14.500
72769ION    NA+45095  31.000   8.024   0.349
72770ION    NA+45096   3.962  39.749  11.391
72771ION    NA+45097   6.503  21.458  13.371
72772ION    NA+45098   1.781  42.909   2.982
72773ION    NA+45099  11.858   2.667   2.474
72774ION    NA+45100  23.672  36.568  14.468
72775ION    NA+45101  33.406  14.541   4.364
72776ION    NA+45102   1.444  43.670   3.675
72777ION    NA+45103  20.558  13.245   4.475
72778ION    NA+45104  28.625   1.971  10.695
72779ION    NA+45105  15.769  23.914  13.247
72780ION    NA+45106   4.824  13.865   1.899
72781ION    NA+45107  30.112  21.803   2.932
72782ION    NA+45108  10.695  23.285  11.162
72783ION    NA+45109  17.893  31.546   4.023
72784ION    NA+45110   7.282   1.268   2.104
72785ION    NA+45111  28.563  36.272   3.790
72786ION    NA+45112   0.707  15.535   0.975
72787ION    NA+45113  28.288  35.240  11.624
72788ION    NA+45114  25.408  19.660   2.103
72789ION    NA+45115  32.996  23.232  13.050
72790ION    NA+45116  15.173  38.251  11.605
72791ION    NA+45117  31.960  13.858  14.285
72792ION    NA+45118  43.722  41.347  12.020
72793ION    NA+45119  10.264  37.515   5.137
72794ION    NA+45120  33.058  34.384  13.815
72795ION    NA+45121  16.288   0.273   2.207
72796ION    NA+45122   4.610  29.410   1.863
72797ION    NA+45123  29.896  26.325  14.148
72798ION    NA+45124  14.758   8.707  13.807
72799ION    NA+45125  39.867   7.109   2.691
72800ION    NA+45126  23.566  43.972   0.000
72801ION    NA+45127  39.965   1.885   0.872
72802ION    NA+45128  25.480  13.517  12.174
72803ION    NA+45129  42.716  24.206   4.056
72804ION    NA+45130  29.018  28.955  11.929
72805ION    NA+45131  15.941   1.447  14.429
72806ION    NA+45132  13.763  10.236  12.132
72807ION    NA+45133   9.583  34.927   3.489
72808ION    NA+45134  37.488  29.120   3.828
72809ION    NA+45135  15.990  16.147   2.629
72810ION    NA+45136  29.511   5.203   4.266
72811ION    NA+45137  13.304  31.165   0.482
72812ION    NA+45138  10.786  27.946  11.649
72813ION    NA+45139  26.809  17.492  12.704
72814ION    NA+45140  22.045  31.593   3.225
72815ION    NA+45141  20.659  10.934   3.505
72816ION    NA+45142  41.249  16.745   4.148
72817ION    NA+45143   8.660  23.577  13.802
72818ION    NA+45144  24.993   1.819   2.259
72819ION    NA+45145  10.568  39.928   1.398
72820ION    NA+45146   9.663  38.817   0.703
72821ION    NA+45147   7.248  12.659   3.253
72822ION    NA+45148  20.780  35.332  11.793
72823ION    NA+45149  25.198   3.906   4.480
72824ION    NA+45150  28.748  38.945  13.630
72825ION    NA+45151  40.769   9.275  14.739
72826ION    NA+45152  36.416  19.689   1.175
72827ION    NA+45153  43.532  25.478  11.955
72828ION    NA+45154  17.870  21.376   1.870
72829ION    NA+45155  20.300  29.859  14.334
72830ION    NA+45156  12.191  30.801  10.947
72831ION    NA+45157  33.663  32.305   1.997
72832ION    NA+45158  15.525  21.762  14.567
72833ION    NA+45159  44.518  32.120   4.521
72834ION    NA+45160   1.535  22.748   4.942
72835ION    NA+45161  44.930  16.549  11.316
72836ION    NA+45162   5.918  25.586   0.690
72837ION    NA+45163  23.547  27.835  11.604
72838ION    NA+45164   9.551  40.595  14.007
72839ION    NA+45165  41.374  36.972   1.634
72840ION    NA+45166   6.362  17.647  14.447
72841ION    NA+45167   4.791  31.848   4.734
72842ION    NA+45168  18.222  18.318   3.176
72843ION    NA+45169  35.060  32.763   5.628
72844ION    NA+45170  36.965  17.930  14.303
72845ION    NA+45171  11.401  38.248   4.686
72846ION    NA+45172  34.152   5.971  14.049
72847ION    NA+45173   7.354  23.449   0.915
72848ION    NA+45174   5.702   5.941   0.976
72849ION    NA+45175  35.333  30.477   4.165
72850ION    NA+45176  23.624  31.230  13.556
72851ION    NA+45177   8.842  33.064   3.405
72852ION    NA+45178  31.507   1.785   4.670
72853ION    NA+45179   1.158  41.817  14.847
72854ION    NA+45180  37.469   9.314  10.506
72855ION    NA+45181  21.912   9.178  13.833
72856ION    NA+45182  30.577   9.118  13.032
72857ION    NA+45183  19.620   5.295   1.393
72858ION    NA+45184  20.677  17.526  13.167
72859ION    NA+45185  21.027   8.249  13.192
72860ION    NA+45186  44.238  20.751  11.990
72861ION    NA+45187  20.164   2.989  10.771
72862ION    NA+45188   1.058  17.890  13.921
72863ION    NA+45189  11.192  17.932  12.262
72864ION    NA+45190  22.674  15.083  12.459
72865ION    NA+45191  39.885  36.007  14.679
72866ION    NA+45192  26.670   1.362   4.241
72867ION    NA+45193  20.784   2.801  14.777
72868ION    NA+45194  17.974  12.068   0.326
72869ION    NA+45195  11.859   4.408   4.369
72870ION    NA+45196  27.632  28.490  13.834
72871ION    NA+45197  22.507  27.039  11.445
72872ION    NA+45198  32.680  10.386  11.517
72873ION    NA+45199  10.611   7.971   4.201
72874ION    NA+45200  22.691  23.381  11.245
72875ION    NA+45201  24.943  31.974  11.960
72876ION    NA+45202  38.941  16.192   2.401
72877ION    NA+45203  38.795  14.485  13.990
72878ION    NA+45204  10.459  14.192  13.376
72879ION    NA+45205  42.264   3.190  13.073
72880ION    NA+45206  30.646  28.699   4.450
72881ION    NA+45207  25.549  21.043  13.728
72882ION    NA+45208  39.562   9.648  14.378
72883ION    NA+45209  13.137   8.362   2.924
72884ION    NA+45210  22.890   9.407   4.599
72885ION    NA+45211  13.072  15.483   4.649
72886ION    NA+45212   6.115  44.703  14.110
72887ION    NA+45213   0.255  22.034   4.152
72888ION    NA+45214  24.184  33.125  14.426
72889ION    NA+45215   7.772  12.098  10.902
72890ION    NA+45216  11.751   4.320  14.301
72891ION    NA+45217  28.065  12.023  12.443
72892ION    NA+45218  34.278  26.003   3.267
72893ION    NA+45219  35.267  28.411  10.881
72894ION    NA+45220  30.992  11.362   2.770
72895ION    NA+45221   4.962   7.460  13.870
72896ION    NA+45222  20.183  43.867   4.077
72897ION    NA+45223   0.664   0.078  14.451
72898ION    NA+45224  25.432  29.479   0.135
72899ION    NA+45225   7.465  29.103   4.122
72900ION    NA+45226  30.415  28.231   1.687
72901ION    NA+45227  41.243  39.653  14.501
72902ION    NA+45228  40.483  43.677   1.681
72903ION    NA+45229  44.999   4.935  11.342
72904ION    NA+45230  11.951  10.688   2.304
72905ION    NA+45231  34.069  26.555  14.387
72906ION    NA+45232  39.136  10.981  13.129
72907ION    NA+45233  23.832  36.610   2.682
72908ION    NA+45234  18.926  24.262   3.298
72909ION    NA+45235  40.377   4.062  13.244
72910ION    NA+45236   9.410  14.516   3.047
72911ION    NA+45237  29.805  22.831  11.070
72912ION    NA+45238  12.204  27.709  13.904
72913ION    NA+45239   6.419  27.142   4.535
72914ION    NA+45240  44.484   4.260  11.930
72915ION    NA+45241   1.327  34.099  14.426
72916ION    NA+45242  10.631  32.162   4.164
72917ION    NA+45243  43.770  37.675   2.452
72918ION    NA+45244  24.089  18.208  11.508
72919ION    NA+45245  28.378  36.948   1.124
72920ION    NA+45246   9.058  31.239  10.638
72921ION    NA+45247  30.132  35.160   1.137
72922ION    NA+45248  11.524  21.824   2.458
72923ION    NA+45249  14.617  31.200   2.396
72924ION    NA+45250  22.031  32.617  14.584
72925ION    NA+45251  44.698   8.063  12.767
72926ION    NA+45252  21.599  20.073   0.431
72927ION    NA+45253   5.872  41.493   4.077
72928ION    NA+45254  17.154  44.041   0.455
72929ION    NA+45255  21.489  40.940  14.240
72930ION    NA+45256  21.149   4.906   4.328
72931ION    NA+45257  37.980  37.926   3.292
72932ION    NA+45258   1.971  13.468  12.149
72933ION    NA+45259  23.168   6.114  12.435
72934ION    NA+45260   0.149  23.685   3.547
72935ION    NA+45261  44.013  28.407   3.634
72936ION    NA+45262  37.532  12.660  14.917
72937ION    NA+45263  28.941  36.819  14.993
72938ION    NA+45264  19.780  40.786   2.747
72939ION    NA+45265  10.586  44.880  12.087
72940ION    NA+45266  39.930  40.863  10.628
72941ION    NA+45267  37.819  34.363   3.206
72942ION    NA+45268  34.632   7.043   0.352
72943ION    NA+45269  38.552  39.031  10.660
72944ION    NA+45270   5.337  19.105  13.677
72945ION    NA+45271  29.306   1.941   3.368
72946ION    NA+45272   9.112  40.198  14.813
72947ION    NA+45273  34.938  26.407   3.729
72948ION    NA+45274  16.561  10.766   2.868
72949ION    NA+45275  33.211  17.267   1.859
72950ION    NA+45276   3.788  18.637  14.184
72951ION    NA+45277  24.983   9.671  14.207
72952ION    NA+45278   9.649   4.164  14.370
72953ION    NA+45279  23.498  31.394   4.733
72954ION    NA+45280  12.712  38.902  13.517
72955ION    NA+45281  28.675   0.766  11.185
72956ION    NA+45282  15.167   4.488  12.517
72957ION    NA+45283  38.893  23.225  12.364
72958ION    NA+45284  26.703   1.806  13.373
72959ION    NA+45285   9.286  33.498  12.983
72960ION    NA+45286  27.898  28.732   0.467
72961ION    NA+45287   5.795  16.361   1.337
72962ION    NA+45288  40.284   4.724  14.960
72963ION    NA+45289  27.261   6.471  11.957
72964ION    NA+45290  40.110  37.863   4.043
72965ION    NA+45291   6.052  39.243  13.222
72966ION    NA+45292   4.872  16.138   3.135
72967ION    NA+45293   0.699  16.632  10.860
72968ION    NA+45294  26.645  15.999   0.075
72969ION    NA+45295  38.599  28.758   0.741
72970ION    NA+45296   7.049  36.845   0.452
72971ION    NA+45297  35.554  23.992   1.874
72972ION    NA+45298  14.780  32.174   1.535
72973ION    NA+45299   7.161  20.751  12.024
72974ION    NA+45300  43.251  16.643  12.591
72975ION    NA+45301  39.589  22.699   2.911
72976ION    NA+45302  15.115  39.289  10.567
72977ION    NA+45303  16.587   4.780   1.682
72978ION    NA+45304  24.704  31.289   1.075
72979ION    NA+45305  22.077  38.813   3.269
72980ION    NA+45306  24.398  44.328   0.454
72981ION    NA+45307  13.639  31.054  14.248
72982ION    NA+45308  18.267  36.776   3.155
72983ION    NA+45309  25.055  20.324   4.475
72984ION    NA+45310  25.504  26.546  13.317
72985ION    NA+45311   5.786   4.242   4.315
72986ION    NA+45312  43.665  24.471   4.229
72987ION    NA+45313  13.497  23.880  11.439
72988ION    NA+45314   0.771  37.082  14.086
72989ION    NA+45315   4.278  23.751  10.699
72990ION    NA+45316   2.721   6.838   3.287
72991ION    NA+45317  29.933  27.969  12.419
72992ION    NA+45318  20.801  42.486  13.548
72993ION    NA+45319  14.248  17.753  11.092
72994ION    NA+45320   5.833  32.916  10.591
72995ION    NA+45321   4.580  40.576   3.250
72996ION    NA+45322  21.058  10.104  12.805
72997ION    NA+45323  32.264  11.728   4.810
72998ION    NA+45324   0.738  33.585  13.089
72999ION    NA+45325  24.451  10.893   1.935
73000ION    NA+45326  23.824  19.468  12.397
73001ION    NA+45327  18.781  25.654  11.904
73002ION    NA+45328   3.112   1.633   9.904
73003ION    NA+45329  33.973  34.091  14.545
73004ION    NA+45330  11.888  38.691   3.930
73005ION    NA+45331   8.556  29.803   3.919
73006ION    NA+45332   2.354   3.911   4.932
73007ION    NA+45333  38.460  34.791  11.951
73008ION    NA+45334  17.001  20.820   3.527
73009ION    NA+45335  23.106  38.797   0.455
73010ION    NA+45336  28.026  43.519   3.078
73011ION    NA+45337  22.145  37.648   4.557
73012ION    NA+45338  26.598  25.502  10.816
73013ION    NA+45339  36.380  19.682  13.454
73014ION    NA+45340  13.841  39.531   0.859
73015ION    NA+45341  39.467  42.455   3.267
73016ION    NA+45342  22.715  24.653  11.151
73017ION    NA+45343  42.773  11.306   9.597
73018ION    NA+45344  23.923   8.324   0.318
73019ION    NA+45345  37.976  42.074   2.877
73020ION    NA+45346  13.696   6.135   3.700
73021ION    NA+45347   9.879  14.705   1.391
73022ION    NA+45348   7.393  11.430   2.498
73023ION    NA+45349   8.493  34.830  12.117
73024ION    NA+45350  22.084  14.105   2.369
73025ION    NA+45351   3.894  20.398   3.205
73026ION    NA+45352   6.422  34.587  14.815
73027ION    NA+45353  29.050  38.062   1.857
73028ION    NA+45354   9.761  11.332   1.806
73029ION    NA+45355  24.894  16.959   4.480
73030ION    NA+45356  36.316  29.455   2.299
73031ION    NA+45357  20.928  21.774  11.552
73032ION    NA+45358  24.552  32.395   2.992
73033ION    NA+45359   8.339  22.781  11.034
73034ION    NA+45360   4.718   5.228   3.286
73035ION    NA+45361   0.347  19.718   2.459
73036ION    NA+45362  29.819   9.164  10.301
73037ION    NA+45363  30.754  23.151   1.758
73038ION    NA+45364  24.508  44.008   4.351
73039ION    NA+45365  22.138  44.884   2.923
73040ION    NA+45366  14.890  18.609  14.342
73041ION    NA+45367   4.405  37.814  13.146
73042ION    NA+45368  30.715  17.182   3.616
73043ION    NA+45369   0.933  40.051  12.822
73044ION    NA+45370  13.174  23.890   9.517
73045ION    NA+45371  19.705  31.811  14.482
73046ION    NA+45372  24.605  35.283   0.404
73047ION    NA+45373  11.691  24.616  11.685
73048ION    NA+45374  36.355  33.901   4.555
73049ION    NA+45375   2.084  38.492   0.815
73050ION    NA+45376   8.072  37.879   2.126
73051ION    NA+45377  10.408   8.529  14.107
73052ION    NA+45378  42.460  43.174  11.156
73053ION    NA+45379  29.640  44.685  10.719
73054ION    NA+45380  40.935   7.903  10.665
73055ION    NA+45381  18.058  25.094   4.675
73056ION    NA+45382  35.007  14.556  11.938
73057ION    NA+45383   3.668  21.817  13.579
73058ION    NA+45384  26.605  41.887  13.370
73059ION    NA+45385   0.489  11.402  12.848
73060ION    NA+45386  26.239  39.530  10.987
73061ION    NA+45387  44.966   7.732   0.989
73062ION    NA+45388  33.975  28.169  14.370
73063ION    NA+45389  25.454  30.121  11.880
73064ION    NA+45390  19.130  16.306   4.650
73065ION    NA+45391  19.116  13.778  13.783
73066ION    NA+45392  34.028  27.431  10.495
73067ION    NA+45393  27.123  14.530   4.778
73068ION    NA+45394  12.391   1.915   4.581
73069ION    NA+45395  42.854  44.719   1.568
73070ION    NA+45396   7.020  33.455  10.787
73071ION    NA+45397  10.489  26.612   0.789
73072ION    NA+45398  10.599  37.815   4.076
73073ION    NA+45399  24.012  10.061   3.511
73074ION    NA+45400  32.393  17.310   1.451
73075ION    NA+45401  28.406  30.390   2.855
73076ION    NA+45402   7.855  36.506  10.856
73077ION    NA+45403  30.168  10.845  10.465
73078ION    NA+45404  21.945   4.545  12.267
73079ION    NA+45405  25.650  11.588   1.140
73080ION    NA+45406  15.586  22.498   5.130
73081ION    NA+45407  17.253  20.208   1.275
73082ION    NA+45408  19.647  39.281   4.192
73083ION    NA+45409  43.783  21.916  10.853
73084ION    NA+45410  27.089  24.628  14.011
73085ION    NA+45411  43.500   8.842  13.115
73086ION    NA+45412  36.771  40.188  14.479
73087ION    NA+45413  23.810  34.059  11.947
73088ION    NA+45414  31.382  30.060  10.745
73089ION    NA+45415   2.747   0.663   1.328
73090ION    NA+45416  41.479  40.566   2.302
73091ION    NA+45417   7.673  33.403  12.466
73092ION    NA+45418  27.244  16.518  11.125
73093ION    NA+45419  20.224  17.344  11.594
73094ION    NA+45420  35.689   9.966  11.205
73095ION    NA+45421   2.833   6.165   0.137
73096ION    NA+45422  17.071  43.273  10.759
73097ION    NA+45423  31.608  25.095   2.666
73098ION    NA+45424  19.354   4.680   5.203
73099ION    NA+45425  34.635   6.688  11.500
73100ION    NA+45426  23.717  37.389  11.056
73101ION    NA+45427  26.470   1.785  11.956
73102ION    NA+45428  17.453  27.656  14.944
73103ION    NA+45429  11.840  25.297  10.649
73104ION    NA+45430  29.987  30.384   4.230
73105ION    NA+45431  10.157  29.210   2.224
73106ION    NA+45432  40.662  11.064   4.673
73107ION    NA+45433  28.900  10.262  14.989
73108ION    NA+45434  21.063  33.970   0.536
73109ION    NA+45435  10.861  23.800  14.937
73110ION    NA+45436   6.673  18.050   3.575
73111ION    NA+45437  38.159  38.926   3.150
73112ION    NA+45438  18.098  17.312   2.865
73113ION    NA+45439  40.917  24.009  11.561
73114ION    NA+45440   3.675   3.270  11.507
73115ION    NA+45441  41.912  24.120   4.838
73116ION    NA+45442   9.111   8.778  10.860
73117ION    NA+45443  39.078  13.527  13.955
73118ION    NA+45444  31.667  38.706   4.207
73119ION    NA+45445  24.412  40.303   3.203
73120ION    NA+45446  14.167  17.408   2.513
73121ION    NA+45447  25.976   9.326   3.882
73122ION    NA+45448  40.825  12.676   0.451
73123ION    NA+45449  41.236  26.249   2.080
73124ION    NA+45450   3.370  11.382   0.542
73125ION    NA+45451   5.942  38.882  11.935
73126ION    NA+45452   8.159  25.365  12.177
73127ION    NA+45453  37.365  40.801  13.080
73128ION    NA+45454  16.051   5.356  14.085
73129ION    NA+45455  12.823  26.157   4.598
73130ION    NA+45456  28.304  16.775  12.504
73131ION    NA+45457   9.095   9.418   2.819
73132ION    NA+45458  28.780  33.891   3.133
73133ION    NA+45459  35.379   3.543  12.902
73134ION    NA+45460  38.492   4.043  13.188
73135ION    NA+45461  27.709  15.299  11.488
73136ION    NA+45462   2.186  13.675  10.345
73137ION    NA+45463  11.982  17.503  12.390
73138ION    NA+45464  11.953   5.055   3.575
73139ION    NA+45465   5.335  40.747   1.822
73140ION    NA+45466  41.786  12.209   5.103
73141ION    NA+45467   2.953  17.769   0.229
73142ION    NA+45468  35.190  20.103   0.625
73143ION    NA+45469  32.461   0.938   1.171
73144ION    NA+45470  43.793  22.819  12.546
73145ION    NA+45471  29.594  25.292  11.603
73146ION    NA+45472  30.949  20.165  14.417
73147ION    NA+45473  36.073   0.347  13.555
73148ION    NA+45474  22.250   3.061   3.633
73149ION    NA+45475  30.469  14.670   4.830
73150ION    NA+45476   3.977  19.442   0.878
73151ION    NA+45477  19.443  21.452  11.082
73152ION    NA+45478  16.263   1.395  10.714
73153ION    NA+45479   1.128   4.943   1.785
73154ION    NA+45480  14.593   0.656   2.425
73155ION    NA+45481  37.389  11.148   2.948
73156ION    NA+45482  29.548  16.352  11.582
73157ION    NA+45483   6.445   9.695  12.044
73158ION    NA+45484  40.844  14.196   1.728
73159ION    NA+45485  19.418   3.866   4.706
73160ION    NA+45486  25.905   6.988  14.983
73161ION    NA+45487   4.942  27.601  14.420
73162ION    NA+45488  44.134  14.937   3.002
73163ION    NA+45489  12.408  28.407   2.216
73164ION    NA+45490  43.283  39.199   9.822
73165ION    NA+45491  27.469   7.408  10.703
73166ION    NA+45492  42.033  19.670   5.222
73167ION    NA+45493  16.445  42.680  12.551
73168ION    NA+45494   9.440  27.003  14.691
73169ION    NA+45495  26.082  23.564   1.190
73170ION    NA+45496  17.082  22.206  11.137
73171ION    NA+45497  24.591   2.463   1.411
73172ION    NA+45498  17.811  35.559   3.661
73173ION    NA+45499  37.927  43.266  13.609
73174ION    NA+45500   7.968  35.310   2.271
73175ION    NA+45501  13.818   9.582  10.880
73176ION    NA+45502  28.137  42.550  13.707
73177ION    NA+45503  13.150  18.060   2.206
73178ION    NA+45504  10.670  42.311   3.708
73179ION    NA+45505  24.698  16.745   2.311
73180ION    NA+45506  42.283  10.807  11.639
73181ION    NA+45507   6.998  33.068   4.998
73182ION    NA+45508   7.877  22.325  14.530
73183ION    NA+45509  26.371  15.780   5.107
73184ION    NA+45510  38.431  32.367  13.163
73185ION    NA+45511  26.251   6.462   4.999
73186ION    NA+45512  16.697  42.732   3.376
73187ION    NA+45513  35.129  43.515  12.820
73188ION    NA+45514   0.960  37.889  12.429
73189ION    NA+45515  29.303  44.157  14.431
73190ION    NA+45516  30.860   3.931  11.620
73191ION    NA+45517  11.873   2.762  12.880
73192ION    NA+45518   5.722  21.857  13.243
73193ION    NA+45519  14.230   5.232   1.441
73194ION    NA+45520  32.636  13.843  11.587
73195ION    NA+45521  43.553  27.658  13.754
73196ION    NA+45522   4.381  24.660   0.790
73197ION    NA+45523  40.109   0.711  12.427
73198ION    NA+45524  32.948  32.044  10.713
73199ION    NA+45525  25.870  16.223   4.137
73200ION    NA+45526  35.094  41.916  14.200
73201ION    NA+45527  30.479  42.525   1.921
73202ION    NA+45528  18.523  30.586  11.560
73203ION    NA+45529  42.479  44.724   3.775
73204ION    NA+45530   8.747  32.153   3.812
73205ION    NA+45531  23.112  19.067   0.848
73206ION    NA+45532   0.139  42.346  11.893
73207ION    NA+45533  31.011  33.009  13.813
73208ION    NA+45534  37.563   9.379   1.966
73209ION    NA+45535  30.668   2.806  14.099
73210ION    NA+45536   9.456  24.143  13.584
73211ION    NA+45537   9.596   4.373   1.631
73212ION    NA+45538  16.731  30.653   0.331
73213ION    NA+45539  40.565   4.665  12.390
73214ION    NA+45540  23.508   0.394   3.103
73215ION    NA+45541   4.506  29.385  11.946
73216ION    NA+45542  26.181  24.645   1.900
73217ION    NA+45543  29.861  10.440   4.006
73218ION    NA+45544  37.607  41.558  12.037
73219ION    NA+45545  18.874  24.156   0.055
73220ION    NA+45546  38.682   6.416  11.465
73221ION    NA+45547  35.107  34.268  14.525
73222ION    NA+45548  13.580  13.343  14.820
73223ION    NA+45549  39.974  43.166   2.177
73224ION    NA+45550  20.463  16.687   2.797
73225ION    NA+45551  42.240  37.627   4.219
73226ION    NA+45552  12.216  32.532  11.199
73227ION    NA+45553  18.908   3.786   1.055
73228ION    NA+45554  39.594  21.588   1.841
73229ION    NA+45555  44.418  11.570   2.727
73230ION    NA+45556   0.963  11.787   1.285
73231ION    NA+45557  27.169  36.714   0.962
73232ION    NA+45558  29.679  31.790  10.606
73233ION    NA+45559   8.370   2.969   0.565
73234ION    NA+45560  39.334  12.129   9.812
73235ION    NA+45561  41.935  12.058  14.891
73236ION    NA+45562   6.839   5.849   3.156
73237ION    NA+45563  40.538  12.704   1.841
73238ION    NA+45564   3.475   1.588  14.393
73239ION    NA+45565  36.269  31.570   1.385
73240ION    NA+45566  33.083  16.594  11.927
73241ION    NA+45567  40.446  18.177   3.769
73242ION    NA+45568  35.261  17.284   4.209
73243ION    NA+45569   4.143  39.257  12.156
73244ION    NA+45570  20.846  37.364  10.600
73245ION    NA+45571   9.609  44.532   1.722
73246ION    NA+45572  35.344   2.257  10.725
73247ION    NA+45573  16.871  22.204   1.127
73248ION    NA+45574  44.787   8.349   0.223
73249ION    NA+45575  30.040  34.166   4.730
73250ION    NA+45576  33.252  37.881   0.013
73251ION    NA+45577  20.537  36.900   3.922
73252ION    NA+45578  31.385  12.184   1.486
73253ION    NA+45579  26.465  32.496  13.858
73254ION    NA+45580  14.545  12.240   4.062
73255ION    NA+45581   0.729  28.086   0.550
73256ION    NA+45582  24.742  11.178  10.271
73257ION    NA+45583   2.388  24.581  11.650
73258ION    NA+45584  28.085  37.537  13.269
73259ION    NA+45585   6.855  33.101  12.957
73260ION    NA+45586  40.856  31.583  10.350
73261ION    NA+45587   3.425  34.843  11.963
73262ION    NA+45588   1.699   2.971   0.862
73263ION    NA+45589   2.413  42.616  14.282
73264ION    NA+45590  12.307   1.601  13.295
73265ION    NA+45591  30.637   3.762   3.278
73266ION    NA+45592  36.588  26.501  14.847
73267ION    NA+45593  14.343  21.798   1.322
73268ION    NA+45594  13.104  41.515  13.002
73269ION    NA+45595  10.327  26.401  13.493
73270ION    NA+45596  23.277   8.660   1.790
73271ION    NA+45597  29.009   5.867  12.599
73272ION    NA+45598  40.548  23.331  14.637
73273ION    NA+45599  21.131  33.460  12.914
73274ION    NA+45600  34.775  18.526  14.942
73275ION    NA+45601  40.187   3.304   4.538
73276ION    NA+45602  24.760   2.766  12.490
73277ION    NA+45603  16.266   0.818   0.823
73278ION    NA+45604  18.634   5.275   2.560
73279ION    NA+45605  36.932  25.628  11.197
73280ION    NA+45606  41.797   5.285   0.249
73281ION    NA+45607  32.814   3.791   4.097
73282ION    NA+45608  20.990  20.837   0.737
73283ION    NA+45609  21.727  21.122  12.036
73284ION    NA+45610  39.912  42.043   0.313
73285ION    NA+45611  14.378  11.357   1.275
73286ION    NA+45612  13.076  40.150   1.032
73287ION    NA+45613  14.057  41.520   3.206
73288ION    NA+45614  27.649  13.255  12.969
73289ION    NA+45615  43.236  40.331   0.739
73290ION    NA+45616   9.207  34.890  14.880
73291ION    NA+45617  35.760  11.422  10.672
73292ION    NA+45618  23.703  25.497  10.608
73293ION    NA+45619  12.346  25.363   4.221
73294ION    NA+45620   4.848  11.399  12.012
73295ION    NA+45621  34.080  27.819   1.916
73296ION    NA+45622   2.567  41.184   2.848
73297ION    NA+45623   5.170   7.649   2.781
73298ION    NA+45624  12.996  36.771  13.818
73299ION    NA+45625  41.152  23.764   4.948
73300ION    NA+45626  34.436  41.757  13.464
73301ION    NA+45627  39.793  30.003  12.151
73302ION    NA+45628  44.894   3.812   3.836
73303ION    NA+45629  26.403  24.194   3.777
73304ION    NA+45630  21.511  12.204   1.742
73305ION    NA+45631  44.228  11.752   4.127
73306ION    NA+45632   8.280   1.986   0.892
73307ION    NA+45633  14.758  28.559  13.875
73308ION    NA+45634  42.666  28.183  14.878
73309ION    NA+45635  20.363  29.085  12.623
73310ION    NA+45636  19.439  23.165  13.838
73311ION    NA+45637   3.213  16.343  13.333
73312ION    NA+45638  18.354  11.039  10.933
73313ION    NA+45639  43.520  34.075  14.331
73314ION    NA+45640   6.463  30.807   4.751
73315ION    NA+45641  15.742  35.960   2.333
73316ION    NA+45642  23.195  38.446   3.729
73317ION    NA+45643  14.679   7.974   0.399
73318ION    NA+45644  40.459  30.940   2.787
73319ION    NA+45645   0.966   4.901  10.600
73320ION    NA+45646  31.959  36.406  12.851
73321ION    NA+45647  28.921   4.910   3.513
73322ION    NA+45648  11.123  24.516   2.286
73323ION    NA+45649  21.095  31.138  11.573
73324ION    NA+45650  14.849  24.262  13.066
73325ION    NA+45651   8.833  14.209  11.528
73326ION    NA+45652  42.530  14.494  12.479
73327ION    NA+45653  29.033   2.239   2.224
73328ION    NA+45654  14.292  22.861   0.246
73329ION    NA+45655   3.079   5.894   4.575
73330ION    NA+45656  21.796  27.277   3.746
73331ION    NA+45657  11.271  42.994   1.059
73332ION    NA+45658   7.244  38.438   2.168
73333ION    NA+45659  40.343  12.257  13.477
73334ION    NA+45660  15.373  24.724  13.642
73335ION    NA+45661  16.571   4.676   0.315
73336ION    NA+45662  13.844   1.787  12.106
73337ION    NA+45663   4.084  44.814  12.551
73338ION    NA+45664   2.125   9.886   0.405
73339ION    NA+45665  11.457  24.264  13.290
73340ION    NA+45666  39.101  23.506   9.721
73341ION    NA+45667  29.518  23.267   4.104
73342ION    NA+45668  41.840  32.954   2.251
73343ION    NA+45669  21.503  39.474   2.352
73344ION    NA+45670   2.254  17.238   0.838
73345ION    NA+45671  37.765   8.786   4.152
73346ION    NA+45672  35.979  18.064   1.725
73347ION    NA+45673  25.057  10.178  10.233
73348ION    NA+45674  43.394   6.755  13.231
73349ION    NA+45675  18.756  16.076   3.640
73350ION    NA+45676  40.690  44.112   3.004
73351ION    NA+45677  39.980   7.872  12.008
73352ION    NA+45678  44.541   7.220  12.481
73353ION    NA+45679  31.255   9.282   4.661
73354ION    NA+45680   2.961  44.367   0.626
73355ION    NA+45681  17.985  41.863   3.413
73356ION    NA+45682  23.367  21.527   4.669
73357ION    NA+45683   0.843  11.073   2.096
73358ION    NA+45684  36.461  42.295   1.818
73359ION    NA+45685  30.504  37.573   3.755
73360ION    NA+45686   1.725   8.778  13.648
73361ION    NA+45687   1.707   7.846   0.406
73362ION    NA+45688  42.430   8.518   0.237
73363ION    NA+45689   2.489  41.884  12.346
73364ION    NA+45690  27.094   5.576  11.542
73365ION    NA+45691  31.397  20.653  11.987
73366ION    NA+45692  41.054  27.326   3.677
73367ION    NA+45693  23.101  18.185  14.076
73368ION    NA+45694  42.980  32.531   4.640
73369ION    NA+45695  20.302  14.345   1.876
73370ION    NA+45696  42.699  15.934  12.676
73371ION    NA+45697  13.647  30.447  11.455
73372ION    NA+45698  22.002  14.871  12.948
73373ION    NA+45699  15.379  43.903   4.928
73374ION    NA+45700  39.388  37.574   2.521
73375ION    NA+45701   3.965  26.543   0.202
73376ION    NA+45702  32.758  36.097   2.018
73377ION    NA+45703  25.045  15.156   3.613
73378ION    NA+45704   0.575  28.698  14.876
73379ION    NA+45705   9.208  10.269   1.091
73380ION    NA+45706  27.623  41.853   1.269
73381ION    NA+45707  26.963  35.669  11.649
73382ION    NA+45708  43.398  13.448  10.366
73383ION    NA+45709  32.695  19.264   3.498
73384ION    NA+45710  30.090   6.046   4.279
73385ION    NA+45711  12.698  22.035  12.400
73386ION    NA+45712  29.948   9.963  13.358
73387ION    NA+45713  43.425  29.612   5.046
73388ION    NA+45714  35.034  23.135  11.179
73389ION    NA+45715  31.189  39.757  13.248
73390ION    NA+45716  30.415  42.675   9.942
73391ION    NA+45717  40.248   5.365  12.014
73392ION    NA+45718   5.002   3.142  10.381
73393ION    NA+45719  18.751  36.746   1.287
73394ION    NA+45720  35.282  36.625   4.516
73395ION    NA+45721  14.478  24.094  14.497
73396ION    NA+45722  28.573   4.766   4.455
73397ION    NA+45723  22.441  39.641   3.076
73398ION    NA+45724  42.264  36.231   3.497
73399ION    NA+45725   4.249  32.125   3.909
73400ION    NA+45726   1.038  22.811  12.671
73401ION    NA+45727  12.830  43.599   2.847
73402ION    NA+45728  20.035   8.141  13.257
73403ION    NA+45729   9.052  20.282   0.218
73404ION    NA+45730  10.873  21.126   2.158
73405ION    NA+45731  17.510  33.516   0.216
73406ION    NA+45732  32.998  12.715   2.396
73407ION    NA+45733  26.558   4.901  10.919
73408ION    NA+45734  37.305  12.450   2.382
73409ION    NA+45735  15.994  11.925   0.378
73410ION    NA+45736  33.299  20.525  13.405
73411ION    NA+45737   3.758  31.782  14.340
73412ION    NA+45738   3.707  29.317   4.449
73413ION    NA+45739  44.530  15.745   2.154
73414ION    NA+45740  43.821   5.030   0.920
73415ION    NA+45741  29.420  42.372   4.095
73416ION    NA+45742  27.242  23.640   0.054
73417ION    NA+45743  16.616  44.368  14.434
73418ION    NA+45744  11.850   2.856   1.439
73419ION    NA+45745   1.050  39.716   2.960
73420ION    NA+45746  25.526  28.462  12.942
73421ION    NA+45747  27.325  24.388   3.277
73422ION    NA+45748   2.379   7.959   4.562
73423ION    NA+45749  15.030  17.121   3.628
73424ION    NA+45750  30.194  36.431   1.956
73425ION    NA+45751  28.837   3.747   4.629
73426ION    NA+45752  39.966   6.405   1.963
73427ION    NA+45753   5.190  21.686  10.965
73428ION    NA+45754  31.795  21.119  14.841
73429ION    NA+45755  40.742  16.933   5.239
73430ION    NA+45756  25.114  17.991  13.977
73431ION    NA+45757  19.925  37.202   2.093
73432ION    NA+45758  43.041   7.861  11.729
73433ION    NA+45759  36.173  30.580  13.031
73434ION    NA+45760  25.813  14.161   0.389
73435ION    NA+45761   2.698  28.823  13.495
73436ION    NA+45762  35.573  21.540  11.178
73437ION    NA+45763  21.460  28.053   3.171
73438ION    NA+45764  33.740  27.368  13.819
73439ION    NA+45765  13.538  18.821  13.081
73440ION    NA+45766  39.845   0.342   0.886
73441ION    NA+45767  13.341  37.995   4.771
73442ION    NA+45768  18.219   7.293  14.491
73443ION    NA+45769  34.944  36.591  13.010
73444ION    NA+45770   8.748  24.908  10.114
73445ION    NA+45771  30.768  16.636   0.318
73446ION    NA+45772  35.391   2.146   1.228
73447ION    NA+45773  38.696  11.114  14.828
73448ION    NA+45774  34.395  17.315   3.709
73449ION    NA+45775   6.748   0.900   2.883
73450ION    NA+45776   2.476  17.896  12.754
73451ION    NA+45777  11.861  37.258  13.849
73452ION    NA+45778   6.700  21.466   1.418
73453ION    NA+45779  15.150  41.912  12.428
73454ION    NA+45780  16.417  16.710   3.337
73455ION    NA+45781   3.626  40.596  11.390
73456ION    NA+45782  14.823  20.988   2.894
73457ION    NA+45783  31.301  14.609  14.330
73458ION    NA+45784  39.624  38.014   1.021
73459ION    NA+45785   4.969  20.889  14.114
73460ION    NA+45786  19.356   6.922   3.328
73461ION    NA+45787  42.583  32.238  13.168
73462ION    NA+45788  18.533  44.448  13.866
73463ION    NA+45789  22.000   3.404   4.623
73464ION    NA+45790  42.353   9.814  11.731
73465ION    NA+45791  17.535  22.239   2.739
73466ION    NA+45792   1.945  14.293  11.526
73467ION    NA+45793  41.993  19.269   2.765
73468ION    NA+45794  40.162  25.563  10.977
73469ION    NA+45795  25.180  25.676  11.052
73470ION    NA+45796  10.667   0.338  12.972
73471ION    NA+45797  24.840  43.180   4.353
73472ION    NA+45798  23.804  22.660  12.227
73473ION    NA+45799  41.512  26.427   1.135
73474ION    NA+45800  33.650  10.404  11.784
73475ION    NA+45801  22.540  12.251  12.458
73476ION    NA+45802  42.827  14.316   2.209
73477ION    NA+45803  18.749  28.645  12.423
73478ION    NA+45804  33.543  14.687  13.294
73479ION    NA+45805  16.390  18.523  12.880
73480ION    NA+45806  34.270  15.234  11.911
73481ION    NA+45807  15.186  30.797  12.376
73482ION    NA+45808   8.410  38.809   2.607
73483ION    NA+45809  10.212   9.340   0.287
73484ION    NA+45810  27.724  20.150   0.899
73485ION    NA+45811  31.875  35.341   1.483
73486ION    NA+45812   1.144  23.197   4.138
73487ION    NA+45813  12.560  16.687  11.509
73488ION    NA+45814  22.583  18.055  10.080
73489ION    NA+45815  32.261  14.799  14.538
73490ION    NA+45816  34.106  38.488   2.811
73491ION    NA+45817  15.274  44.866  13.869
73492ION    NA+45818   1.263  19.471   3.256
73493ION    NA+45819   7.021  17.272   3.053
73494ION    NA+45820  43.527  34.370   5.216
73495ION    NA+45821  32.067  43.700  10.831
73496ION    NA+45822  19.295  35.891   2.270
73497ION    NA+45823   6.642  15.847  10.482
73498ION    NA+45824  17.468  11.806   2.706
73499ION    NA+45825  32.570  34.615   3.979
73500ION    NA+45826  10.835   2.501  10.858
73501ION    NA+45827   9.028  38.391  12.482
73502ION    NA+45828  39.601  38.773  13.563
73503ION    NA+45829  15.499  24.178   4.390
73504ION    NA+45830   3.884  26.437   1.087
73505ION    NA+45831  27.622   0.665   3.417
73506ION    NA+45832   6.071   6.272   5.437
73507ION    NA+45833  37.661  18.686  14.398
73508ION    NA+45834  20.957  20.842  10.812
73509ION    NA+45835  38.456  23.557  11.488
73510ION    NA+45836  23.901  42.058   2.636
73511ION    NA+45837  11.657  31.339  12.032
73512ION    NA+45838   9.552  11.855  13.328
73513ION    NA+45839   5.734  36.592  11.464
73514ION    NA+45840  16.211   3.163  12.097
73515ION    NA+45841  38.003  11.445   4.508
73516ION    NA+45842  25.024  17.878  12.953
73517ION    NA+45843  41.521  30.971  10.777
73518ION    NA+45844  31.205  43.026  13.514
73519ION    NA+45845  20.522  41.981  10.650
73520ION    NA+45846  28.341  35.065  12.607
73521ION    NA+45847  32.625   3.756   0.295
73522ION    NA+45848  26.710  17.879   2.157
73523ION    NA+45849   6.972   2.001   2.859
73524ION    NA+45850  25.972   8.238   0.264
73525ION    NA+45851  18.354  19.837  14.285
73526ION    NA+45852  25.964  38.566  11.147
73527ION    NA+45853  10.189  44.119  12.616
73528ION    NA+45854  35.393  37.444   0.502
73529ION    NA+45855  13.775  31.800  14.743
73530ION    NA+45856  24.682   7.600  13.338
73531ION    NA+45857   3.715  11.780  11.144
73532ION    NA+45858   5.134   1.578   3.526
73533ION    NA+45859  38.776   5.540   3.435
73534ION    NA+45860  24.758   8.215   4.223
73535ION    NA+45861   9.678  12.890   1.026
73536ION    NA+45862   6.466  24.292   0.203
73537ION    NA+45863  16.275  37.058   1.319
73538ION    NA+45864  37.381  24.495  13.517
73539ION    NA+45865   7.102  37.324   1.391
73540ION    NA+45866  43.974   0.967  11.489
73541ION    NA+45867  13.772  27.358   0.702
73542ION    NA+45868   5.348  38.805  13.523
73543ION    NA+45869  41.852  15.560  11.886
73544ION    NA+45870  14.908  38.019   0.985
73545ION    NA+45871  26.418  43.392   3.255
73546ION    NA+45872  24.575  15.129   1.673
73547ION    NA+45873  19.841  13.556   3.413
73548ION    NA+45874  34.185  27.076  11.821
73549ION    NA+45875  39.990  33.355  14.081
73550ION    NA+45876  23.250  37.589  14.983
73551ION    NA+45877  12.374  37.672   0.345
73552ION    NA+45878  32.068   7.374   4.646
73553ION    NA+45879  28.672   8.354   4.552
73554ION    NA+45880  42.522   8.648  13.189
73555ION    NA+45881  13.371  26.262  10.421
73556ION    NA+45882  42.673  16.727  13.865
73557ION    NA+45883  33.934  29.659   0.213
73558ION    NA+45884   4.448  44.118  12.128
73559ION    NA+45885  42.881  21.511  10.698
73560ION    NA+45886   3.272  21.922   1.329
73561ION    NA+45887  33.576  44.002   1.014
73562ION    NA+45888  44.232  37.063   3.844
73563ION    NA+45889  23.716  20.249  13.606
73564ION    NA+45890  15.675  41.116  14.688
73565ION    NA+45891  30.827  23.524   3.646
73566ION    NA+45892   3.357  42.581   0.338
73567ION    NA+45893  43.361   9.906  13.892
73568ION    NA+45894  23.766  17.726   3.188
73569ION    NA+45895  24.427  34.219   1.920
73570ION    NA+45896  18.404  43.526  13.013
73571ION    NA+45897   8.445  25.882   3.385
73572ION    NA+45898  34.592  23.193  13.271
73573ION    NA+45899  26.507   1.315  14.230
73574ION    NA+45900   3.699  33.365  14.362
73575ION    NA+45901  28.203  26.297  12.063
73576ION    NA+45902  41.627  26.699  11.165
73577ION    NA+45903  41.367   2.321  14.898
73578ION    NA+45904  40.868  35.705   4.671
73579ION    NA+45905  38.809  31.538   0.930
73580ION    NA+45906   7.444  13.172   0.893
73581ION    NA+45907  26.165  33.449  13.809
73582ION    NA+45908  42.100  35.480   1.858
73583ION    NA+45909  20.803  19.304  13.169
73584ION    NA+45910  13.939   8.527  13.115
73585ION    NA+45911  16.498  21.436  14.213
73586ION    NA+45912  38.521  15.312   0.468
73587ION    NA+45913  39.089  23.881   1.943
73588ION    NA+45914  36.946  20.792   4.605
73589ION    NA+45915   4.433   0.191  13.934
73590ION    NA+45916  32.801  21.793  13.770
73591ION    NA+45917  20.917  43.902   1.003
73592ION    NA+45918  35.470   6.359   2.908
73593ION    NA+45919   7.997   2.798   2.432
73594ION    NA+45920  13.800  37.792  11.071
73595ION    NA+45921  18.209  28.519   2.170
73596ION    NA+45922  43.012   0.365  10.599
73597ION    NA+45923  22.374  16.765  12.171
73598ION    NA+45924   7.890  38.057   1.159
73599ION    NA+45925  29.600  32.021  12.330
73600ION    NA+45926   2.290   8.244   1.207
73601ION    NA+45927  10.059  11.088  14.890
73602ION    NA+45928   8.213   1.149   0.349
73603ION    NA+45929  19.206   2.327  13.924
73604ION    NA+45930  29.635   3.707  11.097
73605ION    NA+45931   4.602  37.135   4.001
73606ION    NA+45932  28.903  28.101  14.061
73607ION    NA+45933   0.940  32.046  12.249
73608ION    NA+45934  29.690  38.655   1.369
73609ION    NA+45935  40.000   3.443  12.212
73610ION    NA+45936  37.950  44.536   3.898
73611ION    NA+45937  39.897  24.030   1.297
73612ION    NA+45938  35.215  40.956  12.704
73613ION    NA+45939   0.715  22.024  11.453
73614ION    NA+45940  19.356  26.038   1.870
73615ION    NA+45941  33.564   2.480   4.695
73616ION    NA+45942  10.285  42.975  14.572
73617ION    NA+45943  38.442  13.505   2.997
73618ION    NA+45944   9.832  11.914   3.892
73619ION    NA+45945   3.031  29.508   3.234
73620ION    NA+45946  33.835  13.351   3.229
73621ION    NA+45947   0.133  44.717   0.093
73622ION    NA+45948  35.459  24.266   4.904
73623ION    NA+45949   9.656   5.301  10.661
73624ION    NA+45950  44.106  20.040   3.504
73625ION    NA+45951   8.754  36.370   0.702
73626ION    NA+45952   5.615  16.798   3.249
73627ION    NA+45953  36.283  34.598  11.073
73628ION    NA+45954  34.435  21.274   2.130
73629ION    NA+45955  30.614  34.747   1.932
73630ION    NA+45956  35.296  30.115  12.916
73631ION    NA+45957  26.114  42.372  11.817
73632ION    NA+45958  40.198  22.532   1.310
73633ION    NA+45959   1.691  10.265  14.443
73634ION    NA+45960  13.036  42.112  10.785
73635ION    NA+45961  41.772  31.188   1.614
73636ION    NA+45962  25.437  17.622  10.529
73637ION    NA+45963   2.603  43.297   2.730
73638ION    NA+45964  20.428  12.043   4.233
73639ION    NA+45965   6.371  29.109  14.571
73640ION    NA+45966  26.144  36.304   1.327
73641ION    NA+45967  13.445  21.752   0.872
73642ION    NA+45968   0.722  40.873   9.976
73643ION    NA+45969  22.301  20.028   3.328
73644ION    NA+45970  24.864  43.112  11.310
73645ION    NA+45971  37.655  17.098  14.710
73646ION    NA+45972  39.621  28.713   0.035
73647ION    NA+45973   4.268  39.910  14.408
73648ION    NA+45974  40.918  43.011   1.075
73649ION    NA+45975   4.525  35.464  11.496
73650ION    NA+45976  23.986  10.114  14.922
73651ION    NA+45977  32.972  34.983   0.056
73652ION    NA+45978  32.976   6.936  11.838
73653ION    NA+45979  39.444  23.701  11.441
73654ION    NA+45980   8.381  31.039   1.244
73655ION    NA+45981  26.135   2.342  12.748
73656ION    NA+45982  14.577  31.338  13.888
73657ION    NA+45983  16.985   6.531  12.578
73658ION    NA+45984  34.798  42.239   0.099
73659ION    NA+45985  28.214   9.122   1.865
73660ION    NA+45986  33.278  27.483  11.207
73661ION    NA+45987  21.549  11.747  14.329
73662ION    NA+45988  41.348  18.285  12.643
73663ION    NA+45989  19.623  27.886  10.991
73664ION    NA+45990  42.798  23.927   1.840
73665ION    NA+45991  38.046  40.810   1.427
73666ION    NA+45992  29.242  21.678   2.768
73667ION    NA+45993  36.075  41.990   3.204
73668ION    NA+45994  18.948  42.009  13.356
73669ION    NA+45995  17.600   9.785   0.991
73670ION    NA+45996  10.332  22.789  11.813
73671ION    NA+45997  25.944  32.156  11.939
73672ION    NA+45998  42.576  31.506  11.221
73673ION    NA+45999  23.654  21.545   2.683
73674ION    NA+46000  17.756  26.833  11.093
73675ION    NA+46001  26.292   0.316   0.259
73676ION    NA+46002  40.836  18.464   0.533
73677ION    NA+46003  35.737  30.012   4.800
73678ION    NA+46004  15.598  41.382   3.100
73679ION    NA+46005  18.979   5.889   3.302
73680ION    NA+46006  22.226  43.087   4.145
73681ION    NA+46007  43.327  36.750   1.717
73682ION    NA+46008  23.010  23.690   0.300
73683ION    NA+46009   5.115  41.183  13.916
73684ION    NA+46010  23.768   8.323  10.905
73685ION    NA+46011  13.775   8.712   1.582
73686ION    NA+46012  21.411  37.009   4.142
73687ION    NA+46013  32.889  13.987  13.622
73688ION    NA+46014   5.462  20.784  14.698
73689ION    NA+46015  37.910  40.222  12.220
73690ION    NA+46016  20.983   3.672  12.442
73691ION    NA+46017  31.842  44.556  10.947
73692ION    NA+46018  33.673  32.335  12.353
73693ION    NA+46019  36.332  37.155  11.983
73694ION    NA+46020  13.291  44.021   1.253
73695ION    NA+46021  24.158  21.874  12.050
73696ION    NA+46022  30.031   9.764  11.183
73697ION    NA+46023   1.327   5.906   2.340
73698ION    NA+46024  30.317  33.256  13.321
73699ION    NA+46025   3.858  19.637  12.063
73700ION    NA+46026  44.750  41.513   1.262
73701ION    NA+46027  27.786  14.201  11.475
73702ION    NA+46028  14.737  26.904   1.360
73703ION    NA+46029   0.367  43.027   5.103
73704ION    NA+46030  17.664  25.839  10.864
73705ION    NA+46031  21.971  43.069  12.536
73706ION    NA+46032   7.500   0.749  14.964
73707ION    NA+46033  27.246  10.047   2.806
73708ION    NA+46034  23.727  33.087  12.235
73709ION    NA+46035  15.450  15.248  14.820
73710ION    NA+46036  11.147   9.135  14.402
73711ION    NA+46037  33.352  40.002   0.402
73712ION    NA+46038  11.959  29.360   3.426
73713ION    NA+46039  15.217   8.827  12.144
73714ION    NA+46040  43.638  10.751   1.333
73715ION    NA+46041  29.805  25.673   3.047
73716ION    NA+46042  18.717   7.202   3.901
73717ION    NA+46043  30.754  42.010   4.590
73718ION    NA+46044   9.343  27.922   3.528
73719ION    NA+46045  38.347  12.505   3.283
73720ION    NA+46046  18.362  34.811   3.263
73721ION    NA+46047  37.175   9.437   1.166
73722ION    NA+46048  25.967  42.403   3.802
73723ION    NA+46049   9.839  25.461  11.624
73724ION    NA+46050  42.766  17.194  11.989
73725ION    NA+46051  30.664  10.240  12.854
73726ION    NA+46052  21.017  26.514   0.966
73727ION    NA+46053  44.371  12.613   2.892
73728ION    NA+46054  25.980  26.422   4.103
73729ION    NA+46055   1.390   4.067  12.317
73730ION    NA+46056  34.478  15.860   2.463
73731ION    NA+46057  20.320  13.048  11.645
73732ION    NA+46058   6.591  18.380  11.333
73733ION    NA+46059  44.727   3.393  11.971
73734ION    NA+46060  10.240  21.039  13.498
73735ION    NA+46061   3.862   0.691  14.605
73736ION    NA+46062  12.971  36.844  10.630
73737ION    NA+46063   3.968  12.775  13.627
73738ION    NA+46064  28.096   2.409   3.347
73739ION    NA+46065  32.480  12.441   0.314
73740ION    NA+46066  10.751  20.723  14.297
73741ION    NA+46067  41.707  13.049   0.163
73742ION    NA+46068   6.299  22.388  12.971
73743ION    NA+46069  31.444   9.870   1.891
73744ION    NA+46070  17.076   6.864  13.565
73745ION    NA+46071  38.288  44.294   1.973
73746ION    NA+46072   2.766  32.912  11.349
73747ION    NA+46073   7.804  33.868   3.570
73748ION    NA+46074  26.653  24.908  12.717
73749ION    NA+46075  18.728  19.784   3.630
73750ION    NA+46076  10.392  15.871   0.029
73751ION    NA+46077  41.805  13.377  14.223
73752ION    NA+46078  39.113   8.612   2.195
73753ION    NA+46079  38.553  36.900  14.320
73754ION    NA+46080  12.265  11.225   0.309
73755ION    NA+46081   1.388   7.898   4.284
73756ION    NA+46082   4.582   1.348   4.959
73757ION    NA+46083   5.181  17.781   4.253
73758ION    NA+46084   8.556  18.996   3.107
73759ION    NA+46085  29.944  32.662  11.069
73760ION    NA+46086   7.707   0.835  11.246
73761ION    NA+46087   5.023  39.811  13.760
73762ION    NA+46088  42.690  32.310   0.971
73763ION    NA+46089  30.632  23.235  10.678
73764ION    NA+46090  17.124   2.158   2.236
73765ION    NA+46091  24.715   8.225  12.557
73766ION    NA+46092  25.514  34.095   0.267
73767ION    NA+46093  14.967  39.853  12.674
73768ION    NA+46094  19.240  21.553   2.526
73769ION    NA+46095   1.708  17.334   3.791
73770ION    NA+46096  24.549  36.808  14.549
73771ION    NA+46097  20.034  44.892   3.746
73772ION    NA+46098  18.320  17.330  12.965
73773ION    NA+46099  24.972  13.668   2.336
73774ION    NA+46100  18.365   6.600  10.227
73775ION    NA+46101   0.951  18.676  14.530
73776ION    NA+46102  42.586  26.000  11.099
73777ION    NA+46103  43.960  40.041   1.487
73778ION    NA+46104  17.742  43.710  14.363
73779ION    NA+46105   8.787  24.256   0.358
73780ION    NA+46106   5.379  37.401   0.389
73781ION    NA+46107  42.591   0.460  11.948
73782ION    NA+46108   0.282   9.944   0.718
73783ION    NA+46109   3.006  33.723  13.352
73784ION    NA+46110  24.026  28.656  10.754
73785ION    NA+46111  21.381  15.407  12.247
73786ION    NA+46112  18.805  21.119   0.372
73787ION    NA+46113  14.085   9.775   2.717
73788ION    NA+46114  44.614  42.816   4.511
73789ION    NA+46115  44.840  39.954  10.946
73790ION    NA+46116  17.070   1.916   4.154
73791ION    NA+46117  43.385  26.218   4.167
73792ION    NA+46118  11.695  35.650   0.159
73793ION    NA+46119  35.734  26.088   4.243
73794ION    NA+46120  16.364  25.279   0.454
73795ION    NA+46121   4.308   6.917  12.314
73796ION    NA+46122  31.989  11.482  13.751
73797ION    NA+46123  38.261   8.870  12.993
73798ION    NA+46124  26.834  17.213   1.618
73799ION    NA+46125  12.874  12.721  11.528
73800ION    NA+46126   1.464  22.038  11.874
73801ION    NA+46127  16.182  11.237  14.412
73802ION    NA+46128  13.268  18.544   3.372
73803ION    NA+46129  12.584  40.242  12.744
73804ION    NA+46130  26.026  26.948   5.444
73805ION    NA+46131  41.538  43.706   2.553
73806ION    NA+46132  12.935  38.039  12.096
73807ION    NA+46133  33.129  13.439   0.713
73808ION    NA+46134  26.941  37.389   2.862
73809ION    NA+46135  32.005  15.799  12.085
73810ION    NA+46136  26.006  28.568   0.973
73811ION    NA+46137  31.117   1.963   3.767
73812ION    NA+46138  20.986  20.407   1.641
73813ION    NA+46139  23.911   4.612  11.432
73814ION    NA+46140  11.615  27.899   1.293
73815ION    NA+46141  15.052  41.843  14.376
73816ION    NA+46142  26.856  41.249  13.955
73817ION    NA+46143  43.272   7.698   2.706
73818ION    NA+46144  36.182  19.453  10.704
73819ION    NA+46145   2.463  11.861   4.860
73820ION    NA+46146   4.604   5.695   1.499
73821ION    NA+46147  32.614  39.215  10.405
73822ION    NA+46148  20.295   3.515  14.636
73823ION    NA+46149  16.793  20.208   0.387
73824ION    NA+46150  23.482  10.850   2.182
73825ION    NA+46151  16.218  28.420  10.814
73826ION    NA+46152   3.648  28.235   4.350
73827ION    NA+46153  40.543  19.577  12.968
73828ION    NA+46154  42.971  11.698  12.049
73829ION    NA+46155  32.831  31.986   1.325
73830ION    NA+46156  26.418   5.623   2.549
73831ION    NA+46157  32.609  12.267  11.244
73832ION    NA+46158  14.600   5.906   4.060
73833ION    NA+46159  38.709  18.882  11.762
73834ION    NA+46160  41.414  13.680  11.115
73835ION    NA+46161  38.017   3.367   3.528
73836ION    NA+46162  21.227  22.601   3.252
73837ION    NA+46163  33.074  33.021   4.687
73838ION    NA+46164  25.804   3.991  14.418
73839ION    NA+46165  27.572  12.377   1.945
73840ION    NA+46166  25.685  35.619   0.703
73841ION    NA+46167  34.692  40.609  12.055
73842ION    NA+46168  44.123  39.814   2.814
73843ION    NA+46169  15.392  14.423  11.213
73844ION    NA+46170  28.642  41.899   1.232
73845ION    NA+46171  25.539  20.068  11.492
73846ION    NA+46172  30.615  44.185  12.815
73847ION    NA+46173  44.759  10.728   3.644
73848ION    NA+46174  27.683   6.802   4.703
73849ION    NA+46175  30.428  29.472  14.319
73850ION    NA+46176   2.366   2.969   2.277
73851ION    NA+46177  25.493  42.845   4.862
73852ION    NA+46178  20.091  39.134   0.642
73853ION    NA+46179  17.323  40.016   0.755
73854ION    NA+46180  28.290  14.258   2.145
73855ION    NA+46181  30.879  40.529  12.575
73856ION    NA+46182   7.449  13.425   3.743
73857ION    NA+46183  26.066  15.768   1.482
73858ION    NA+46184  22.294  13.555   3.189
73859ION    NA+46185   7.305  12.179  12.417
73860ION    NA+46186  28.228  24.322   3.726
73861ION    NA+46187  44.568  42.858  12.625
73862ION    NA+46188  21.447  37.195  11.381
73863ION    NA+46189  17.973  11.050   2.764
73864ION    NA+46190  15.740  17.058  14.383
73865ION    NA+46191  27.063   5.962  12.914
73866ION    NA+46192  28.236  28.979   3.405
73867ION    NA+46193   2.440  39.095   3.596
73868ION    NA+46194  20.760  21.614   2.333
73869ION    NA+46195  12.704  34.634   0.677
73870ION    NA+46196  15.264   0.473  14.960
73871ION    NA+46197  18.008  15.627  12.087
73872ION    NA+46198  43.154  40.516   2.985
73873ION    NA+46199  27.468  22.974   0.647
73874ION    NA+46200  17.382   5.522  11.973
73875ION    NA+46201  44.612  23.914  13.398
73876ION    NA+46202  20.616  14.609   3.570
73877ION    NA+46203  32.502  20.492  12.453
73878ION    NA+46204  42.318   8.128   1.151
73879ION    NA+46205   8.997  44.025   0.443
73880ION    NA+46206  39.113  17.155   2.608
73881ION    NA+46207  13.299  28.644  12.621
73882ION    NA+46208   3.180  14.708  14.380
73883ION    NA+46209  10.369  37.456  12.493
73884ION    NA+46210  41.724  38.400   2.703
73885ION    NA+46211  37.336  39.264   0.871
73886ION    NA+46212  33.168  42.413  12.679
73887ION    NA+46213  18.078  23.121  11.228
73888ION    NA+46214  44.258  33.706  10.941
73889ION    NA+46215   0.566  13.780   3.197
73890ION    NA+46216  27.408   2.719  14.590
73891ION    NA+46217  37.472  32.613   3.640
73892ION    NA+46218  25.555   0.473   0.916
73893ION    NA+46219  38.708  30.979   4.593
73894ION    NA+46220  10.330  40.519  13.385
73895ION    NA+46221  39.922   9.695   4.816
73896ION    NA+46222  11.988  11.955  12.624
73897ION    NA+46223   5.277  30.345   0.639
73898ION    NA+46224   2.025  21.561   4.636
73899ION    NA+46225   3.882  42.250  11.119
73900ION    NA+46226  15.759  37.898   3.692
73901ION    NA+46227  33.003  44.084   0.198
73902ION    NA+46228  18.166  32.617  10.844
73903ION    NA+46229  21.577  16.436  12.565
73904ION    NA+46230  37.869  26.603   1.075
73905ION    NA+46231  24.385  25.761  14.020
73906ION    NA+46232  38.922  17.767   4.425
73907ION    NA+46233  39.922   5.040  12.717
73908ION    NA+46234  16.121  19.749   2.670
73909ION    NA+46235  43.484  39.096  12.353
73910ION    NA+46236  26.525  29.612  13.371
73911ION    NA+46237   7.416   6.119  11.672
73912ION    NA+46238   8.651  35.164  14.192
73913ION    NA+46239   0.787  18.965  11.318
73914ION    NA+46240  44.133  10.891   5.563
73915ION    NA+46241  33.569  15.300   3.536
73916ION    NA+46242  23.333   0.920   1.977
73917ION    NA+46243  43.473   1.453  14.400
73918ION    NA+46244  31.267  14.858   4.109
73919ION    NA+46245  30.695   2.999  10.762
73920ION    NA+46246  40.556  27.348  12.561
73921ION    NA+46247  34.070   6.407  14.822
73922ION    NA+46248  33.008  24.624  11.574
73923ION    NA+46249   8.962  40.591  11.487
73924ION    NA+46250  33.765   2.496   2.994
73925ION    NA+46251  43.461   0.159   0.097
73926ION    NA+46252  11.458  23.882  10.913
73927ION    NA+46253  24.600   2.275  11.619
73928ION    NA+46254  16.861  19.912  12.603
73929ION    NA+46255   1.164  26.527  11.158
73930ION    NA+46256  22.804  35.870  12.034
73931ION    NA+46257  29.538   0.750   2.810
73932ION    NA+46258   7.577  26.435   1.834
73933ION    NA+46259  43.089   2.459  14.989
73934ION    NA+46260  14.511  38.335   0.106
73935ION    NA+46261  12.176  33.435   3.106
73936ION    NA+46262   8.448   6.897   4.076
73937ION    NA+46263  31.180  23.038   5.168
73938ION    NA+46264   3.848  27.562  13.161
73939ION    NA+46265   9.528  19.499  14.817
73940ION    NA+46266  22.158  36.117  14.843
73941ION    NA+46267  20.245  36.906  12.128
73942ION    NA+46268  18.666   4.903  13.916
73943ION    NA+46269  17.524  44.330  12.759
73944ION    NA+46270  27.129   7.844  12.286
73945ION    NA+46271  42.760  16.303  10.543
73946ION    NA+46272  20.955  17.638   2.067
73947ION    NA+46273  15.469  24.009   2.953
73948ION    NA+46274  10.725   7.273  13.897
73949ION    NA+46275  43.483   3.257   0.212
73950ION    NA+46276  24.934  39.250   9.494
73951ION    NA+46277  39.735  20.155  11.096
73952ION    NA+46278  29.995  22.445   1.683
73953ION    NA+46279   0.951  43.276  13.756
73954ION    NA+46280  43.542  29.729   3.376
73955ION    NA+46281  26.865  28.675  14.507
73956ION    NA+46282  19.877  34.449  11.460
73957ION    NA+46283   8.544   5.978  12.092
73958ION    NA+46284  23.746  40.941  11.814
73959ION    NA+46285  35.755  19.421  11.640
73960ION    NA+46286  39.059   7.646  12.639
73961ION    NA+46287  36.867   2.388  11.080
73962ION    NA+46288  21.270  27.380  10.994
73963ION    NA+46289  28.970  27.684   9.993
73964ION    NA+46290  20.242   1.148  13.321
73965ION    NA+46291  38.852  18.243  14.361
73966ION    NA+46292  28.656  28.275   0.958
73967ION    NA+46293  13.569  17.186   3.160
73968ION    NA+46294   8.387  18.355  12.455
73969ION    NA+46295  22.920  11.658   2.359
73970ION    NA+46296  17.679  39.381  11.423
73971ION    NA+46297  18.297  42.032  11.043
73972ION    NA+46298  19.213   9.899  13.372
73973ION    NA+46299   3.215  19.915  10.606
73974ION    NA+46300  18.139  10.195   4.061
73975ION    NA+46301  25.923  18.309   4.761
73976ION    NA+46302   9.949   6.714  10.316
73977ION    NA+46303  11.941  33.412  12.003
73978ION    NA+46304  26.639  34.441   2.792
73979ION    NA+46305   2.538   4.009  13.501
73980ION    NA+46306  35.646  33.411   4.048
73981ION    NA+46307   4.490  41.821  13.988
73982ION    NA+46308  24.265  15.589  12.950
73983ION    NA+46309  43.392  44.609   0.827
73984ION    NA+46310   1.148  24.511  12.031
73985ION    NA+46311  18.100   0.109  13.253
73986ION    NA+46312   6.624  25.654   1.395
73987ION    NA+46313  35.551  35.118  12.553
73988ION    NA+46314  40.633  10.785  10.402
73989ION    NA+46315   8.684  36.620  11.086
73990ION    NA+46316   6.677  11.114  13.702
73991ION    NA+46317  14.189  29.226  12.550
73992ION    NA+46318  13.402   2.457  11.509
73993ION    NA+46319  13.920  29.746   2.242
73994ION    NA+46320   9.337   3.014  13.126
73995ION    NA+46321  10.812  43.339  12.522
73996ION    NA+46322  13.568  38.639  14.971
73997ION    NA+46323   4.809  18.061   0.078
73998ION    NA+46324  11.531  20.229   3.054
73999ION    NA+46325  22.656  27.510  13.732
74000ION    NA+46326  26.776  16.476   0.944
74001ION    NA+46327   0.016   5.009   4.476
74002ION    NA+46328  12.003   6.984  10.901
74003ION    NA+46329  35.383  20.589  12.376
74004ION    NA+46330  43.301   3.954  11.612
74005ION    NA+46331  38.581  19.235   1.815
74006ION    NA+46332  24.592  41.334  12.917
74007ION    NA+46333   8.068  31.106  10.701
74008ION    NA+46334  39.546  26.402  12.028
74009ION    NA+46335  19.879  23.752  14.348
74010ION    NA+46336   2.184   0.389   4.886
74011ION    NA+46337  20.557   0.476   5.061
74012ION    NA+46338   0.848  34.945  11.100
74013ION    NA+46339  19.965   7.586   5.038
74014ION    NA+46340  16.285  32.355   1.876
74015ION    NA+46341  34.164   7.347  13.318
74016ION    NA+46342   9.863   2.310   0.279
74017ION    NA+46343   2.983   4.214   3.908
74018ION    NA+46344  18.077  29.865  11.248
74019ION    NA+46345   2.904  33.835  10.987
74020ION    NA+46346  14.960  16.585   2.398
74021ION    NA+46347  25.802   5.415   4.546
74022ION    NA+46348  39.757  14.573  12.253
74023ION    NA+46349  38.227  28.282   1.615
74024ION    NA+46350  11.020   0.666   1.721
74025ION    NA+46351   8.381  10.116   4.605
74026ION    NA+46352  35.057  23.320  14.146
74027ION    NA+46353  17.578   4.427   3.857
74028ION    NA+46354   8.507  41.714  11.733
74029ION    NA+46355  16.166  36.715   4.632
74030ION    NA+46356   2.817  23.307  14.533
74031ION    NA+46357  26.641  10.154   2.939
74032ION    NA+46358  34.479  15.771  11.213
74033ION    NA+46359  26.549  17.130  11.507
74034ION    NA+46360  33.042  40.546  11.530
74035ION    NA+46361  11.301  20.800   0.389
74036ION    NA+46362  26.762  23.950  12.982
74037ION    NA+46363  29.405  26.311   9.998
74038ION    NA+46364  36.123  32.345  13.833
74039ION    NA+46365  42.853  28.951  13.355
74040ION    NA+46366  35.027  24.734  13.873
74041ION    NA+46367  19.404  33.256   4.506
74042ION    NA+46368   3.016  36.901  14.034
74043ION    NA+46369  17.276  33.067  10.760
74044ION    NA+46370  16.301  12.311  12.068
74045ION    NA+46371  22.063   7.376   5.035
74046ION    NA+46372  17.818   7.259  11.830
74047ION    NA+46373  24.675  26.891  12.877
74048ION    NA+46374  27.050  31.489   1.418
74049ION    NA+46375  43.801  10.757   2.805
74050ION    NA+46376  26.062  27.315  11.154
74051ION    NA+46377   1.695   9.404  12.869
74052ION    NA+46378  37.759   4.172   3.746
74053ION    NA+46379  30.097  24.674  10.999
74054ION    NA+46380  29.225   1.254   0.313
74055ION    NA+46381  24.382  37.882   4.833
74056ION    NA+46382   0.829  27.486   3.245
74057ION    NA+46383  13.883  41.778  13.850
74058ION    NA+46384  17.991   2.860  13.495
74059ION    NA+46385  28.354   8.737   0.023
74060ION    NA+46386   0.579   9.812  11.227
74061ION    NA+46387   1.380  34.867   4.252
74062ION    NA+46388   0.374  43.128  12.952
74063ION    NA+46389  28.653  13.858  11.113
74064ION    NA+46390  20.031  21.490  11.890
74065ION    NA+46391  41.152  25.798  10.970
74066ION    NA+46392  11.144  24.325   5.460
74067ION    NA+46393  19.088  30.022  14.369
74068ION    NA+46394  27.197  39.378   4.252
74069ION    NA+46395  12.358  15.178   4.265
74070ION    NA+46396  22.522  27.550  14.722
74071ION    NA+46397  35.088  35.623  14.388
74072ION    NA+46398  40.066  27.871  13.383
74073ION    NA+46399  17.145  32.411  13.194
74074ION    NA+46400  11.397  40.407   3.856
74075ION    NA+46401  20.370  21.661  10.704
74076ION    NA+46402  38.036  13.015   5.472
74077ION    NA+46403  26.538  16.087  12.215
74078ION    NA+46404  18.899  36.824   0.677
74079ION    NA+46405  24.530   4.883  14.971
74080ION    NA+46406  15.776   3.256  10.818
74081ION    NA+46407  38.981  44.579   4.402
74082ION    NA+46408   9.246  14.044   3.914
74083ION    NA+46409   7.095   4.913   4.224
74084ION    NA+46410  40.053  11.305   3.641
74085ION    NA+46411   0.830  42.657  11.240
74086ION    NA+46412  34.445   5.171  11.260
74087ION    NA+46413  18.316  39.574  12.555
74088ION    NA+46414  21.197  24.808   0.851
74089ION    NA+46415  37.537  41.985  10.674
74090ION    NA+46416  38.677  15.850  11.279
74091ION    NA+46417  26.708   6.837   0.580
74092ION    NA+46418   7.607  29.153   2.971
74093ION    NA+46419  25.950  20.488  12.861
74094ION    NA+46420  24.961  21.425  11.935
74095ION    NA+46421  23.666  19.022  10.636
74096ION    NA+46422  40.330  19.726   4.510
74097ION    NA+46423  31.729   3.296  11.946
74098ION    NA+46424  42.782  36.737   4.055
74099ION    NA+46425  32.909  38.336   3.171
74100ION    NA+46426  10.249   9.558  14.274
74101ION    NA+46427  38.744  34.149  14.802
74102ION    NA+46428   6.799   2.967   3.195
74103ION    NA+46429  27.041  27.831   3.638
74104ION    NA+46430  38.926  43.942  14.877
74105ION    NA+46431   4.386   1.538   2.803
74106ION    NA+46432  37.555  13.270   1.152
74107ION    NA+46433   1.900   6.704   0.810
74108ION    NA+46434  19.111  40.020   3.740
74109ION    NA+46435  38.445  23.400   4.647
74110ION    NA+46436  14.749  13.657   4.377
74111ION    NA+46437  33.892   9.633   2.139
74112ION    NA+46438  44.804  24.584   0.043
74113ION    NA+46439   6.936  12.023  14.027
74114ION    NA+46440  42.204  17.631  11.379
74115ION    NA+46441  15.406  18.654   0.077
74116ION    NA+46442  12.904  22.393  11.140
74117ION    NA+46443  37.041  32.700  13.657
74118ION    NA+46444  13.540  41.533   4.607
74119ION    NA+46445  41.895  32.661   0.476
74120ION    NA+46446  10.675   5.556  13.565
74121ION    NA+46447   4.479   7.995  12.817
74122ION    NA+46448  36.335  12.477   4.767
74123ION    NA+46449  40.622   7.290  11.390
74124ION    NA+46450  13.890   3.125   4.198
74125ION    NA+46451  40.659  35.651  11.926
74126ION    NA+46452  25.129  16.034   4.781
74127ION    NA+46453   0.951   0.182  11.052
74128ION    NA+46454   6.951   6.876  10.784
74129ION    NA+46455  40.472  44.594  14.184
74130ION    NA+46456  36.427  12.143   2.435
74131ION    NA+46457  23.544   8.680   3.550
74132ION    NA+46458  37.109  37.238  10.743
74133ION    NA+46459   2.460   1.047  13.599
74134ION    NA+46460  23.905  35.166   2.131
74135ION    NA+46461   6.944  16.394   0.798
74136ION    NA+46462  25.451  44.653   0.345
74137ION    NA+46463  14.441  29.159   3.535
74138ION    NA+46464  42.832   7.616   0.393
74139ION    NA+46465  30.598  21.077  10.103
74140ION    NA+46466  32.064  38.759  14.458
74141ION    NA+46467  26.696  10.046   2.075
74142ION    NA+46468   1.652  16.458   4.271
74143ION    NA+46469  38.105  43.342   3.402
74144ION    NA+46470   8.898   2.049   2.929
74145ION    NA+46471  24.944  38.095  14.278
74146ION    NA+46472  17.258  15.334  10.740
74147ION    NA+46473  25.820  25.459   2.069
74148ION    NA+46474  33.422  34.234   0.672
74149ION    NA+46475  17.612  31.420   1.289
74150ION    NA+46476  35.343  28.959  13.916
74151ION    NA+46477  30.443  27.827   3.224
74152ION    NA+46478   9.857  16.949  10.363
74153ION    NA+46479  18.374  13.785   2.323
74154ION    NA+46480   1.442  42.838  14.368
74155ION    NA+46481  22.941   4.730   0.236
74156ION    NA+46482  34.985   2.373   3.782
74157ION    NA+46483  11.102  43.531  14.417
74158ION    NA+46484  42.303  44.639  14.491
74159ION    NA+46485  42.363  10.683   3.683
74160ION    NA+46486   9.767  21.703  11.613
74161ION    NA+46487  19.237  16.891  10.703
74162ION    NA+46488  36.480  12.318  11.489
74163ION    NA+46489   9.150  20.642  11.901
74164ION    NA+46490  37.878  23.451   2.910
74165ION    NA+46491  39.083  11.045  11.774
74166ION    NA+46492  35.096  29.314   3.642
74167ION    NA+46493  25.686  11.797   0.300
74168ION    NA+46494  31.562   7.440   0.759
74169ION    NA+46495  29.510  13.811  11.626
74170ION    NA+46496  34.976  27.966  11.539
74171ION    NA+46497  18.323  30.353   2.056
74172ION    NA+46498  40.459  13.379  14.254
74173ION    NA+46499   4.518  42.937   3.784
74174ION    NA+46500  34.667   5.114  14.014
74175ION    NA+46501   5.860  39.143   4.550
74176ION    NA+46502  23.096  38.163  10.930
74177ION    NA+46503  38.248  14.212   4.781
74178ION    NA+46504  12.367  44.556  11.981
74179ION    NA+46505  24.970  42.442  14.918
74180ION    NA+46506  38.649  33.860  12.266
74181ION    NA+46507  29.718  34.022  11.168
74182ION    NA+46508  34.061  36.033   0.461
74183ION    NA+46509  26.631   5.729   1.577
74184ION    NA+46510  13.185  25.216  10.339
74185ION    NA+46511  23.689  36.880   0.733
74186ION    NA+46512  18.779  28.731   4.248
74187ION    NA+46513  26.386   5.471  14.066
74188ION    NA+46514   4.496  31.654   1.681
74189ION    NA+46515   4.929  39.959   5.060
74190ION    NA+46516  23.003   4.997  13.869
74191ION    NA+46517  40.709  16.730  13.095
74192ION    NA+46518  38.004  22.080   0.524
74193ION    NA+46519  31.049  27.040   3.926
74194ION    NA+46520  44.427  13.304   3.614
74195ION    NA+46521   3.818  21.981  12.273
74196ION    NA+46522  10.413  36.208   2.539
74197ION    NA+46523  34.295  24.339   3.164
74198ION    NA+46524  16.380  35.205  11.106
74199ION    NA+46525  23.442   5.392  14.677
74200ION    NA+46526   8.850  17.308   2.886
74201ION    NA+46527  17.433  42.794  12.250
74202ION    NA+46528  34.431  11.290  11.592
74203ION    NA+46529   1.773  15.517  14.889
74204ION    NA+46530  11.412  33.922  13.422
74205ION    NA+46531  30.240   5.042  12.465
74206ION    NA+46532   8.894  19.322   1.285
74207ION    NA+46533  27.766  11.914  13.301
74208ION    NA+46534   3.738  40.486   0.961
74209ION    NA+46535   2.620  29.491   1.810
74210ION    NA+46536  44.847   9.181   3.866
74211ION    NA+46537  10.875  16.429  11.126
74212ION    NA+46538  33.407  13.423  14.115
74213ION    NA+46539  31.326  25.991  11.199
74214ION    NA+46540  41.505  27.916   4.353
74215ION    NA+46541  13.478   4.106  11.044
74216ION    NA+46542  14.544  36.678   2.251
74217ION    NA+46543  29.058   3.223   2.811
74218ION    NA+46544   0.291  16.788  14.929
74219ION    NA+46545   3.371  37.711   0.992
74220ION    NA+46546  17.595  29.054  14.883
74221ION    NA+46547   9.044  38.679  11.017
74222ION    NA+46548  38.825  33.863  11.281
74223ION    NA+46549   1.616  41.670  12.062
74224ION    NA+46550  17.973  40.846   4.270
74225ION    NA+46551  43.741  32.217   0.224
74226ION    NA+46552  23.346  31.867  14.632
74227ION    NA+46553  25.432   5.244   1.785
74228ION    NA+46554  21.644   2.406  12.980
74229ION    NA+46555  36.427  21.030   3.883
74230ION    NA+46556  23.535   5.877   2.161
74231ION    NA+46557   8.882  37.760  13.395
74232ION    NA+46558   5.533  20.107  11.114
74233ION    NA+46559  25.881  27.581   0.201
74234ION    NA+46560   5.229   1.226   1.760
74235ION    NA+46561  19.592  28.141   0.749
74236ION    NA+46562  40.736   1.229  13.357
74237ION    NA+46563  31.997  12.969   1.391
74238ION    NA+46564  27.160  44.846  11.116
74239ION    NA+46565   0.969  39.824   4.372
74240ION    NA+46566  41.795  35.324   2.904
74241ION    NA+46567  43.346  31.848  10.918
74242ION    NA+46568  20.429   1.249   0.820
74243ION    NA+46569  37.110  37.440  13.904
74244ION    NA+46570  17.738   8.716  11.866
74245ION    NA+46571  37.843  24.468  12.133
74246ION    NA+46572   7.964  25.535   0.312
74247ION    NA+46573   6.868  25.667  14.448
74248ION    NA+46574  20.891  25.913  11.944
74249ION    NA+46575  19.500  41.029   4.596
74250ION    NA+46576  21.042   7.669  10.843
74251ION    NA+46577  33.146   6.854   3.190
74252ION    NA+46578  10.041  11.227  11.377
74253ION    NA+46579  15.595  42.682  12.885
74254ION    NA+46580  40.958  34.596  13.481
74255ION    NA+46581  22.603  32.552  13.756
74256ION    NA+46582  36.925  22.145   0.382
74257ION    NA+46583   3.955   4.850   4.713
74258ION    NA+46584  13.066  28.030   4.249
74259ION    NA+46585   3.744  43.831  11.083
74260ION    NA+46586  24.362  34.417   4.048
74261ION    NA+46587  16.202  34.973   0.414
74262ION    NA+46588  27.432  34.389  11.073
74263ION    NA+46589  11.738  34.872   0.786
74264ION    NA+46590  15.518  11.695   2.803
74265ION    NA+46591  12.507   7.719   0.830
74266ION    NA+46592  40.576   8.668  11.903
74267ION    NA+46593  29.746  34.905   2.023
74268ION    NA+46594  31.942   2.813  14.321
74269ION    NA+46595   8.121  20.060   0.506
74270ION    NA+46596   7.269   3.587  14.796
74271ION    NA+46597  32.831  22.220   0.836
74272ION    NA+46598  18.522   0.904  14.520
74273ION    NA+46599  23.210  10.611  11.075
74274ION    NA+46600  19.824  26.523  12.855
74275ION    NA+46601   7.361  43.500  13.996
74276ION    NA+46602   1.436  32.123  14.869
74277ION    NA+46603  15.687  35.849   1.341
74278ION    NA+46604   3.646   3.008   3.602
74279ION    NA+46605  41.308  23.294   0.084
74280ION    NA+46606   5.272  31.952  11.106
74281ION    NA+46607   7.192  26.379  10.936
74282ION    NA+46608  31.789  19.680  11.179
74283ION    NA+46609  27.175  35.109  12.278
74284ION    NA+46610  41.420  13.163   2.160
74285ION    NA+46611   0.794  41.309  12.336
74286ION    NA+46612  38.382  17.547   3.543
74287ION    NA+46613   7.048  14.376  13.814
74288ION    NA+46614  19.810  39.921  14.048
74289ION    NA+46615  27.059  26.561  14.045
74290ION    NA+46616  30.924  26.519   3.082
74291ION    NA+46617  36.192   1.727  10.755
74292ION    NA+46618   8.395   3.924  11.042
74293ION    NA+46619   5.048  26.467   1.611
74294ION    NA+46620  21.809  20.620  11.286
74295ION    NA+46621   4.701  33.592   2.627
74296ION    NA+46622  40.796  44.714   1.706
74297ION    NA+46623  30.632  38.981  12.413
74298ION    NA+46624   1.526  28.122  11.337
74299ION    NA+46625   7.454  25.784  12.130
74300ION    NA+46626  27.227  26.144  10.984
74301ION    NA+46627  34.972   8.767  10.993
74302ION    NA+46628  40.922   9.985  13.306
74303ION    NA+46629  30.051  30.973  11.645
74304ION    NA+46630  23.076  16.415  12.609
74305ION    NA+46631  19.778  22.690   0.493
74306ION    NA+46632  13.522   4.048   4.083
74307ION    NA+46633  24.792  17.155  11.152
74308ION    NA+46634  42.244  38.902  11.963
74309ION    NA+46635  38.941  14.846   1.664
74310ION    NA+46636  43.077   7.814   4.533
74311ION    NA+46637  40.510  31.225   4.272
74312ION    NA+46638  27.884  29.572  12.984
74313ION    NA+46639  18.242  12.793  13.822
74314ION    NA+46640  33.942  33.321   0.487
74315ION    NA+46641  41.431  42.307   1.682
74316ION    NA+46642  20.477  24.976  14.795
74317ION    NA+46643  38.083   7.158   0.804
74318ION    NA+46644  36.941  41.149   3.990
74319ION    NA+46645  29.162  29.114   0.504
74320ION    NA+46646  37.772  36.915  12.006
74321ION    NA+46647  10.713   4.605   5.052
74322ION    NA+46648  26.493  18.347  12.643
74323ION    NA+46649  22.248  34.081   0.827
74324ION    NA+46650  21.191   8.677   4.415
74325ION    NA+46651  15.134  37.263  12.925
74326ION    NA+46652  18.675   3.566  13.310
74327ION    NA+46653  39.563  33.537   2.115
74328ION    NA+46654  20.990   1.531  11.874
74329ION    NA+46655  36.914   5.293  14.303
74330ION    NA+46656  38.834   2.873  13.803
74331ION    NA+46657  19.738  28.745   9.788
74332ION    NA+46658  10.887  38.010  10.503
74333ION    NA+46659  30.725  32.195  11.550
74334ION    NA+46660  40.733  42.893  14.387
74335ION    NA+46661   7.938  29.467  13.416
74336ION    NA+46662  23.204  34.695  11.165
74337ION    NA+46663  43.277  26.210   1.389
74338ION    NA+46664  23.608  20.917  13.160
74339ION    NA+46665  20.341  30.101  13.581
74340ION    NA+46666  35.644  22.671  14.071
74341ION    NA+46667  28.924  25.040   3.703
74342ION    NA+46668  37.617   5.134  13.303
74343ION    NA+46669  14.628  43.976   3.338
74344ION    NA+46670   2.322  25.310  12.588
74345ION    NA+46671   4.696   6.603  13.180
74346ION    NA+46672  36.536  27.287   0.462
74347ION    NA+46673   7.993  11.940  11.732
74348ION    NA+46674  34.411   4.564  11.934
74349ION    NA+46675   0.127  39.867   3.700
74350ION    NA+46676   4.866  23.001  13.228
74351ION    NA+46677  25.806   1.563  14.900
74352ION    NA+46678  23.492   6.807  13.079
74353ION    NA+46679  15.554  44.271   2.585
74354ION    NA+46680  13.528  38.567  11.452
74355ION    NA+46681  25.709  11.195  13.992
74356ION    NA+46682  40.618  21.209   4.558
74357ION    NA+46683  11.629  10.223   3.401
74358ION    NA+46684   2.013  41.372   1.700
74359ION    NA+46685  13.895   8.071   2.340
74360ION    NA+46686  36.016  29.708  13.918
74361ION    NA+46687  42.882   0.698   4.827
74362ION    NA+46688   0.401  26.591  13.356
74363ION    NA+46689  31.339  38.552   1.358
74364ION    NA+46690  28.785  11.725   4.824
74365ION    NA+46691  23.152  19.505   3.069
74366ION    NA+46692  36.096  39.608   0.526
74367ION    NA+46693  33.344  18.255  14.011
74368ION    NA+46694  11.855  24.192   9.899
74369ION    NA+46695  37.056  43.424   4.283
74370ION    NA+46696  17.423  26.765   0.396
74371ION    NA+46697  30.965  10.807  14.029
74372ION    NA+46698  13.978  30.795  10.390
74373ION    NA+46699  29.650  31.112   1.427
74374ION    NA+46700   8.741   9.991  10.055
74375ION    NA+46701  33.549  36.492  11.895
74376ION    NA+46702  14.746   7.913   2.841
74377ION    NA+46703  34.080  18.599  12.955
74378ION    NA+46704  11.628  19.825  14.782
74379ION    NA+46705  15.381   7.384   0.798
74380ION    NA+46706  20.422  38.076  10.942
74381ION    NA+46707  37.901  38.622   1.179
74382ION    NA+46708  38.612  37.974  14.311
74383ION    NA+46709  31.244   6.001  13.135
74384ION    NA+46710   9.971  15.150  10.001
74385ION    NA+46711  33.820  29.331   1.052
74386ION    NA+46712  25.100  23.645   0.299
74387ION    NA+46713  22.944  28.875  13.991
74388ION    NA+46714   2.413  43.256  11.218
74389ION    NA+46715   0.388  36.017   4.157
74390ION    NA+46716  11.415   8.165   0.521
74391ION    NA+46717  36.447  37.979  10.631
74392ION    NA+46718  42.957   9.750   5.235
74393ION    NA+46719  12.751  28.964  11.469
74394ION    NA+46720  40.427  15.120   0.407
74395ION    NA+46721  20.071  44.780   2.753
74396ION    NA+46722  42.165  40.173   9.615
74397ION    NA+46723  16.835  18.770  11.947
74398ION    NA+46724  26.267  16.815   9.852
74399ION    NA+46725  41.589  34.233   1.233
74400ION    NA+46726  19.956  30.546  14.252
74401ION    NA+46727  37.751  23.528   0.385
74402ION    NA+46728   9.411  31.083  13.936
74403ION    NA+46729  34.791  30.438  13.717
74404ION    NA+46730  36.607   6.967  14.537
74405ION    NA+46731  41.294   5.792  13.986
74406ION    NA+46732  12.406   4.676   2.213
74407ION    NA+46733  16.263  29.354   1.649
74408ION    NA+46734  22.344  34.922  11.175
74409ION    NA+46735  36.069  44.366  13.364
74410ION    NA+46736   4.190   2.065  13.532
74411ION    NA+46737  43.664  14.173   2.870
74412ION    NA+46738  33.183  39.618   9.812
74413ION    NA+46739  21.052  44.263   4.574
74414ION    NA+46740  40.818  17.440   0.386
74415ION    NA+46741   5.238  10.929   0.936
74416ION    NA+46742  21.128  14.078  10.707
74417ION    NA+46743  13.975  36.297   2.980
74418ION    NA+46744  27.502  29.535   0.647
74419ION    NA+46745  30.346  24.719   1.735
74420ION    NA+46746  44.786  36.374  10.659
74421ION    NA+46747  22.326  42.826   0.566
74422ION    NA+46748  12.028  24.162   5.565
74423ION    NA+46749  44.943   3.004   1.988
74424ION    NA+46750  22.459   0.802   1.507
74425ION    NA+46751  33.445   3.571  14.520
74426ION    NA+46752  42.287  30.255  13.476
74427ION    NA+46753  39.313  37.563   3.519
74428ION    NA+46754  24.462   8.607   2.348
74429ION    NA+46755  11.264   7.649   1.946
74430ION    NA+46756  27.924  39.603   2.422
74431ION    NA+46757  13.361  27.141  14.359
74432ION    NA+46758  19.346  12.629  11.620
74433ION    NA+46759   0.574  43.741   3.186
74434ION    NA+46760  34.777  41.315  10.843
74435ION    NA+46761  36.107  22.704  11.586
74436ION    NA+46762   0.955   5.055  11.610
74437ION    NA+46763   3.794  32.631   2.742
74438ION    NA+46764  40.089   1.147   2.131
74439ION    NA+46765  44.251   2.891   1.274
74440ION    NA+46766  30.641  26.377  10.580
74441ION    NA+46767   7.643   9.547   0.672
74442ION    NA+46768   9.334  18.140   0.946
74443ION    NA+46769  19.750  37.784  13.375
74444ION    NA+46770  13.844  32.889   0.362
74445ION    NA+46771  44.514   5.631  14.977
74446ION    NA+46772  44.995  17.519   1.011
74447ION    NA+46773  22.333  14.873   2.958
74448ION    NA+46774  26.877   1.195   0.151
74449ION    NA+46775  34.929  21.204   5.557
74450ION    NA+46776  26.076  42.818  12.711
74451ION    NA+46777  38.356  16.014  13.074
74452ION    NA+46778   3.528  29.585  11.995
74453ION    NA+46779  28.570  10.897  12.967
74454ION    NA+46780  44.974  20.294  10.760
74455ION    NA+46781  30.711   3.762   0.279
74456ION    NA+46782  12.137  36.234  14.121
74457ION    NA+46783  31.961  24.778   0.450
74458ION    NA+46784  34.356  36.793   2.812
74459ION    NA+46785   9.696   7.675  10.618
74460ION    NA+46786  37.342   3.000  12.454
74461ION    NA+46787  15.028  44.277  11.067
74462ION    NA+46788  16.699  34.019  14.840
74463ION    NA+46789  23.616   2.776   2.667
74464ION    NA+46790  25.927  17.302   0.359
74465ION    NA+46791  10.235  15.502  11.607
74466ION    NA+46792   0.727  23.631   1.815
74467ION    NA+46793  16.681  16.632  13.729
74468ION    NA+46794  19.888  11.751  10.760
74469ION    NA+46795   3.985  24.288   4.367
74470ION    NA+46796   0.697  16.182   4.161
74471ION    NA+46797  12.821  27.945  10.669
74472ION    NA+46798   9.315   1.766  12.039
74473ION    NA+46799  21.458  25.767  14.286
74474ION    NA+46800  38.549  43.120  12.803
74475ION    NA+46801  23.527  32.973   0.950
74476ION    NA+46802  35.593  30.407   1.782
74477ION    NA+46803  22.517  19.690   0.322
74478ION    NA+46804   1.316  26.436  11.998
74479ION    NA+46805  17.488  20.231   4.513
74480ION    NA+46806  14.302  19.853  13.616
74481ION    NA+46807   3.682  28.561  13.500
74482ION    NA+46808  12.983  24.143   5.422
74483ION    NA+46809  38.628  33.395   2.439
74484ION    NA+46810  35.020  42.658  11.125
74485ION    NA+46811  19.350  13.472   1.440
74486ION    NA+46812  17.563  34.102   2.319
74487ION    NA+46813  43.021  33.519  13.820
74488ION    NA+46814   7.867  13.116  11.550
74489ION    NA+46815   5.068  24.302  11.093
74490ION    NA+46816   3.834  33.328  11.991
74491ION    NA+46817  20.326  16.303  11.736
74492ION    NA+46818  39.951  35.627  10.765
74493ION    NA+46819  35.746   3.145   4.833
74494ION    NA+46820  18.233  18.973  13.752
74495ION    NA+46821  39.158   8.883  13.097
74496ION    NA+46822  14.417  35.815   3.623
74497ION    NA+46823  12.213  21.720   3.857
74498ION    NA+46824  15.904  27.474   4.350
74499ION    NA+46825  34.056   6.443   3.077
74500ION    NA+46826  43.759  24.758   0.219
74501ION    NA+46827   1.776  15.331  13.540
74502ION    NA+46828  22.688   3.839   2.521
74503ION    NA+46829  37.010   5.875   3.906
74504ION    NA+46830   1.754   3.236  10.180
74505ION    NA+46831  20.135  44.640   4.709
74506ION    NA+46832  26.647   9.816   0.287
74507ION    NA+46833   9.755  38.377   2.364
74508ION    NA+46834  37.350  29.096   9.667
74509ION    NA+46835   1.256   7.945  12.531
74510ION    NA+46836  13.995  44.541   3.867
74511ION    NA+46837  13.641  25.056   4.860
74512ION    NA+46838  10.588  10.507   1.842
74513ION    NA+46839   9.363   4.578   3.247
74514ION    NA+46840  39.157  10.339   4.802
74515ION    NA+46841  10.747   6.450  11.316
74516ION    NA+46842  21.459  16.767   4.072
74517ION    NA+46843  36.081  24.044   1.205
74518ION    NA+46844  24.297  20.392  12.975
74519ION    NA+46845   7.313  11.290   1.511
74520ION    NA+46846   4.889  38.779  10.787
74521ION    NA+46847  43.006  31.353   1.386
74522ION    NA+46848  41.362  39.507   2.346
74523ION    NA+46849  18.453  23.092  14.252
74524ION    NA+46850  40.305  16.659  11.295
74525ION    NA+46851  42.564  19.051   0.843
74526ION    NA+46852  40.701  37.831   0.735
74527ION    NA+46853   4.526  20.974  14.780
74528ION    NA+46854  19.098   8.423  13.463
74529ION    NA+46855   9.655  32.550  13.108
74530ION    NA+46856  35.576  32.081   4.565
74531ION    NA+46857   8.152  12.820  12.462
74532ION    NA+46858  23.798  15.068   5.108
74533ION    NA+46859  28.688   4.244  14.410
74534ION    NA+46860  35.405  37.806  10.850
74535ION    NA+46861  21.729   6.213   0.459
74536ION    NA+46862  18.276   6.805   1.280
74537ION    NA+46863   9.655   5.823   2.735
74538ION    NA+46864  36.030  40.185   3.459
74539ION    NA+46865   8.269  10.705  11.990
74540ION    NA+46866  35.660  36.415   1.280
74541ION    NA+46867  44.757   4.922  13.129
74542ION    NA+46868  39.263  33.011   2.911
74543ION    NA+46869  21.020  20.656  12.588
74544ION    NA+46870  14.387  25.177  10.534
74545ION    NA+46871  19.468  35.024  13.884
74546ION    NA+46872  34.581  17.609   1.905
74547ION    NA+46873  42.347  12.352   0.868
74548ION    NA+46874  13.440  29.454   4.182
74549ION    NA+46875   8.353  21.936  13.032
74550ION    NA+46876   6.640  28.566   3.418
74551ION    NA+46877  29.494   4.444   2.839
74552ION    NA+46878  17.153   1.848  10.662
74553ION    NA+46879  21.407   0.941  11.327
74554ION    CL-46880  14.320  30.312   1.224
74555ION    CL-46881  25.406   2.331   4.130
74556ION    CL-46882  24.587  13.676   1.344
74557ION    CL-46883   1.719  13.838   0.423
74558ION    CL-46884  17.677  22.306  13.574
74559ION    CL-46885  20.275  33.691   3.361
74560ION    CL-46886  12.355  12.696   1.320
74561ION    CL-46887  41.983  26.986  14.547
74562ION    CL-46888  38.608  21.218  11.252
74563ION    CL-46889  21.697  18.125  13.382
74564ION    CL-46890  16.107  40.918   5.144
74565ION    CL-46891  37.105   1.398   2.312
74566ION    CL-46892  29.887  32.619   1.388
74567ION    CL-46893  18.637  27.149   0.160
74568ION    CL-46894  38.259  26.504  13.199
74569ION    CL-46895  43.723   9.680  11.570
74570ION    CL-46896   0.038  38.991   1.365
74571ION    CL-46897  32.452  21.682  14.041
74572ION    CL-46898  19.313  41.896  10.054
74573ION    CL-46899  42.525   0.686  11.569
74574ION    CL-46900  12.328   6.331   1.374
74575ION    CL-46901  38.781  15.854  13.128
74576ION    CL-46902   9.888  36.247   4.123
74577ION    CL-46903  40.935  23.431  14.858
74578ION    CL-46904   6.222  17.496   1.941
74579ION    CL-46905   8.895  20.741   2.876
74580ION    CL-46906  11.254  29.384   1.115
74581ION    CL-46907   0.151   3.113   5.233
74582ION    CL-46908  26.653  21.297   9.938
74583ION    CL-46909  37.250  44.971   2.291
74584ION    CL-46910  39.037  40.787   4.017
74585ION    CL-46911  15.318  25.575   1.404
74586ION    CL-46912  34.374  26.232  14.427
74587ION    CL-46913  10.155  16.818  10.029
74588ION    CL-46914  37.409   0.342  13.097
74589ION    CL-46915  32.021  41.607  11.497
74590ION    CL-46916  32.932  17.644   4.914
74591ION    CL-46917  24.057  30.892  11.521
74592ION    CL-46918   8.758   9.701   2.661
74593ION    CL-46919  26.136  26.866   1.953
74594ION    CL-46920  42.523  25.555  11.016
74595ION    CL-46921  43.898  28.273   0.477
74596ION    CL-46922  37.376  17.582  11.589
74597ION    CL-46923  11.348  42.683   1.373
74598ION    CL-46924  22.619  14.669   1.338
74599ION    CL-46925  44.906   0.605  11.848
74600ION    CL-46926   3.638  13.628  11.988
74601ION    CL-46927  18.243  33.155   4.152
74602ION    CL-46928  36.335  14.663   2.933
74603ION    CL-46929  31.355  37.621   2.212
74604ION    CL-46930  11.728  20.137   2.663
74605ION    CL-46931   1.089  21.842  11.673
74606ION    CL-46932   9.846  24.633   4.596
74607ION    CL-46933  10.585  17.357  14.789
74608ION    CL-46934   3.515  18.333  13.566
74609ION    CL-46935  15.290  32.994  13.414
74610ION    CL-46936  25.988  11.484   1.427
74611ION    CL-46937  17.278   6.553   4.991
74612ION    CL-46938  21.734  26.123   3.087
74613ION    CL-46939   1.868  16.467  13.115
74614ION    CL-46940  35.403  39.015   1.784
74615ION    CL-46941  44.273   2.258  14.419
74616ION    CL-46942   9.869  26.156   2.346
74617ION    CL-46943  11.106  33.385  11.108
74618ION    CL-46944  32.819   8.664   2.666
74619ION    CL-46945  10.698  34.910   0.314
74620ION    CL-46946  15.101  37.811  11.570
74621ION    CL-46947   0.388  44.833  14.716
74622ION    CL-46948   8.523  22.026   2.787
74623ION    CL-46949  26.682  31.262   1.554
74624ION    CL-46950  43.552  18.669  12.882
74625ION    CL-46951   5.362  33.099  14.431
74626ION    CL-46952  11.689   6.568   5.101
74627ION    CL-46953  27.904  11.899  12.850
74628ION    CL-46954  22.264  39.230   3.165
74629ION    CL-46955  43.179  23.341   0.254
74630ION    CL-46956  18.505   7.913   2.015
74631ION    CL-46957  41.240  44.715   1.658
74632ION    CL-46958   1.083   8.052  12.930
74633ION    CL-46959  24.116  29.006   1.295
74634ION    CL-46960  38.709   8.889  13.054
74635ION    CL-46961   7.126  23.805   3.684
74636ION    CL-46962  15.690   6.356   3.161
74637ION    CL-46963   8.810  14.783   4.992
74638ION    CL-46964   3.617   8.480   1.211
74639ION    CL-46965   7.633  22.605  14.780
74640ION    CL-46966  22.631  32.619  12.368
74641ION    CL-46967   1.548  21.110   2.581
74642ION    CL-46968  30.979   9.185  14.705
74643ION    CL-46969  36.118   2.677   1.879
74644ION    CL-46970  27.222  19.782  11.600
74645ION    CL-46971  11.701  29.639   3.661
74646ION    CL-46972  36.380  26.056  12.350
74647ION    CL-46973  44.655  33.510  11.049
74648ION    CL-46974  37.830   4.429  10.680
74649ION    CL-46975  12.779  38.659   1.301
74650ION    CL-46976  11.813  18.555   4.404
74651ION    CL-46977   0.192  10.861   3.702
74652ION    CL-46978  41.014  41.322   4.265
74653ION    CL-46979  36.068  33.832   4.219
74654ION    CL-46980  32.945  15.815   0.760
74655ION    CL-46981  32.767  11.840  11.204
74656ION    CL-46982  24.407  30.179   5.123
74657ION    CL-46983   9.114  30.234  11.998
74658ION    CL-46984  25.423  44.471  12.590
74659ION    CL-46985   8.355  24.678  10.150
74660ION    CL-46986  30.616  43.737   4.623
74661ION    CL-46987  38.960  18.745  13.089
74662ION    CL-46988   2.067  41.803  12.141
74663ION    CL-46989  16.519  41.375  10.602
74664ION    CL-46990  14.515   7.370  11.249
74665ION    CL-46991   0.007   6.679  13.500
74666ION    CL-46992  29.959  10.110   1.895
74667ION    CL-46993  31.596  19.423  11.490
74668ION    CL-46994  17.603  39.085  11.097
74669ION    CL-46995  39.524  24.462  12.389
74670ION    CL-46996   0.342  15.278   3.612
74671ION    CL-46997   2.319  38.853   0.937
74672ION    CL-46998  42.723  26.532   0.044
74673ION    CL-46999  27.708  29.138   0.562
74674ION    CL-47000  24.038  10.128   3.952
74675ION    CL-47001  23.016  38.502  12.335
74676ION    CL-47002   5.972  20.018  11.110
74677ION    CL-47003  26.553  22.096   3.864
74678ION    CL-47004   6.004  43.467   3.751
74679ION    CL-47005  37.018  33.113  13.490
74680ION    CL-47006  26.003  14.488   0.647
74681ION    CL-47007  13.799  37.975   4.800
74682ION    CL-47008  14.200  44.749   4.206
74683ION    CL-47009   3.773  42.045   1.854
74684ION    CL-47010   5.270  27.054   4.140
74685ION    CL-47011  20.281  17.193   5.150
74686ION    CL-47012  21.320  40.555   3.178
74687ION    CL-47013  19.092  24.657   3.424
74688ION    CL-47014  32.787  41.060   2.539
74689ION    CL-47015   0.629  27.429  14.373
74690ION    CL-47016  43.958  14.526   2.920
74691ION    CL-47017  21.827  20.885  11.659
74692ION    CL-47018  32.023  24.084   1.894
74693ION    CL-47019  26.745  22.098  14.270
74694ION    CL-47020  32.969  36.496   3.955
74695ION    CL-47021   2.957   1.179   2.849
74696ION    CL-47022  41.515  23.591  13.581
74697ION    CL-47023  44.629   3.831  11.897
74698ION    CL-47024  11.828   5.916   2.432
74699ION    CL-47025   6.372  32.171  12.556
74700ION    CL-47026  42.549  26.448   5.338
74701ION    CL-47027  29.015  16.613  13.507
74702ION    CL-47028  37.921  24.953   2.758
74703ION    CL-47029  16.293  40.407  12.915
74704ION    CL-47030   9.958  28.509  10.749
74705ION    CL-47031  43.034  16.598   4.194
74706ION    CL-47032  44.901  41.423   1.673
74707ION    CL-47033  14.800  35.384  11.651
74708ION    CL-47034  39.225   2.976  13.584
74709ION    CL-47035  19.109  41.094   0.439
74710ION    CL-47036  23.838  20.518  13.246
74711ION    CL-47037  26.919  37.936  14.131
74712ION    CL-47038  23.987  29.022  10.502
74713ION    CL-47039   0.452   5.112  14.705
74714ION    CL-47040  42.830  13.307  13.323
74715ION    CL-47041   0.497  37.952   1.907
74716ION    CL-47042  24.830  17.011   1.978
74717ION    CL-47043  36.759  19.901   2.367
74718ION    CL-47044  16.746   2.907  12.961
74719ION    CL-47045  17.077  12.934   1.409
74720ION    CL-47046  31.064  35.184  11.511
74721ION    CL-47047   3.367  20.337  13.867
74722ION    CL-47048  41.016  40.841   0.530
74723ION    CL-47049  22.706  40.889  10.141
74724ION    CL-47050  42.487  17.418  11.672
74725ION    CL-47051   7.324  36.418  12.973
74726ION    CL-47052   4.012  24.697   0.532
74727ION    CL-47053   9.164   6.850   2.645
74728ION    CL-47054  21.367   0.588  11.019
74729ION    CL-47055  35.269  28.078  11.212
74730ION    CL-47056  23.789   9.834  12.052
74731ION    CL-47057  13.342  18.253   3.713
74732ION    CL-47058  36.052  19.467   1.335
74733ION    CL-47059  10.310  32.945   3.085
74734ION    CL-47060  35.988   6.891  12.619
74735ION    CL-47061   8.522  35.104  13.761
74736ION    CL-47062  39.794  12.300  14.935
74737ION    CL-47063  27.855   0.373   3.661
74738ION    CL-47064  15.575  39.745  11.549
74739ION    CL-47065  35.556  44.349   2.678
74740ION    CL-47066   9.226  34.481   5.101
74741ION    CL-47067  38.174  15.570   0.580
74742ION    CL-47068   0.567  36.978  12.886
74743ION    CL-47069   8.858   2.046   3.381
74744ION    CL-47070  20.218  29.482   1.703
74745ION    CL-47071  39.334   6.360   5.070
74746ION    CL-47072   7.296  32.420  13.973
74747ION    CL-47073  32.253  12.547  11.323
74748ION    CL-47074  19.055  37.007  11.111
74749ION    CL-47075  21.839  16.727  10.270
74750ION    CL-47076  29.102  19.615   1.638
74751ION    CL-47077  14.793   1.011   2.613
74752ION    CL-47078   3.841  16.545   2.108
74753ION    CL-47079  10.094  11.665  11.272
74754ION    CL-47080   5.649  39.233   4.945
74755ION    CL-47081  38.916  24.974   2.658
74756ION    CL-47082   5.307  23.031  13.335
74757ION    CL-47083  18.147  11.086  11.342
74758ION    CL-47084  15.710   7.306  14.809
74759ION    CL-47085  41.420  17.653  13.486
74760ION    CL-47086  16.206  33.876   0.764
74761ION    CL-47087  42.553  31.885  13.442
74762ION    CL-47088  35.824  16.523  14.980
74763ION    CL-47089  14.321   0.824   4.182
74764ION    CL-47090  36.560   4.804   5.125
74765ION    CL-47091  25.696   9.465   4.199
74766ION    CL-47092  14.084   3.379  14.270
74767ION    CL-47093   6.035   3.848  12.532
74768ION    CL-47094   8.927  35.046  14.556
74769ION    CL-47095  35.089   1.875   1.042
74770ION    CL-47096  26.580  11.422  12.474
74771ION    CL-47097  28.658  35.465  11.502
74772ION    CL-47098  22.375  17.271  11.747
74773ION    CL-47099   2.290  13.459  12.474
74774ION    CL-47100  24.696  40.434  14.383
74775ION    CL-47101  38.851  14.774   3.967
74776ION    CL-47102  28.715  39.363  11.955
74777ION    CL-47103   9.421   2.773  13.493
74778ION    CL-47104  37.377   0.969   5.202
74779ION    CL-47105  17.708  11.426   2.757
74780ION    CL-47106  44.068  36.670   3.986
74781ION    CL-47107  24.840  43.556  11.265
74782ION    CL-47108  36.054  37.490  11.876
74783ION    CL-47109  26.454  19.142  11.532
74784ION    CL-47110  14.821  40.085   2.349
74785ION    CL-47111  28.041   9.292   2.243
74786ION    CL-47112   4.215  18.766  14.134
74787ION    CL-47113  35.541  30.370   4.568
74788ION    CL-47114  13.744  29.998  11.482
74789ION    CL-47115   8.590   6.651   1.234
74790ION    CL-47116  40.648   1.391  13.772
74791ION    CL-47117  41.376   7.939   2.852
74792ION    CL-47118  11.402  41.001  10.560
74793ION    CL-47119   0.415  22.356  11.385
74794ION    CL-47120  40.160  14.459  12.090
74795ION    CL-47121  30.555  20.194  12.866
74796ION    CL-47122  18.742  19.526  13.073
74797ION    CL-47123  44.833  19.218  14.174
74798ION    CL-47124   9.358  11.782   0.382
74799ION    CL-47125  10.863  38.426  10.687
74800ION    CL-47126   1.615   1.252   2.689
74801ION    CL-47127  39.245   8.402   1.825
74802ION    CL-47128  19.323   9.577  11.935
74803ION    CL-47129   2.345   1.401   4.386
74804ION    CL-47130  21.941  31.410  12.599
74805ION    CL-47131  14.721   3.037  11.254
74806ION    CL-47132  31.004  22.644  13.482
74807ION    CL-47133  43.947  28.053  12.457
74808ION    CL-47134  10.785  13.422   0.536
74809ION    CL-47135  36.665   6.536  14.651
74810ION    CL-47136  35.528  15.671  13.751
74811ION    CL-47137  18.926  39.788   3.407
74812ION    CL-47138  26.934  38.706   2.672
74813ION    CL-47139  39.134  11.167  14.906
74814ION    CL-47140  23.500  35.136   5.027
74815ION    CL-47141  44.973  42.977  12.797
74816ION    CL-47142  10.839  30.438  12.920
74817ION    CL-47143   2.212  43.059   2.840
74818ION    CL-47144  40.033  18.937   1.176
74819ION    CL-47145  35.716  33.095   3.716
74820ION    CL-47146  21.238  16.670  11.279
74821ION    CL-47147   3.962  25.435  14.771
74822ION    CL-47148   9.101  36.521  10.929
74823ION    CL-47149   4.224  40.765   3.449
74824ION    CL-47150  18.460   0.807  14.078
74825ION    CL-47151  27.680  14.089  14.381
74826ION    CL-47152  12.100  38.768   3.543
74827ION    CL-47153   1.359  24.728  12.360
74828ION    CL-47154  20.913  34.980  12.031
74829ION    CL-47155  16.904  26.986   3.593
74830ION    CL-47156   5.285  28.424  13.349
74831ION    CL-47157  44.580  19.673   0.672
74832ION    CL-47158   2.138   5.028   0.993
74833ION    CL-47159  23.418  36.780   2.678
74834ION    CL-47160  36.528  15.266   0.832
74835ION    CL-47161  30.660  18.787  11.713
74836ION    CL-47162  10.054   4.297  11.203
74837ION    CL-47163  34.009  35.312  11.588
74838ION    CL-47164  33.484  11.673   3.550
74839ION    CL-47165  44.102  19.850   3.098
74840ION    CL-47166  11.747  31.552   3.552
74841ION    CL-47167  19.662  28.504   0.498
74842ION    CL-47168   1.080  23.690   1.520
74843ION    CL-47169  21.470  44.777  10.751
74844ION    CL-47170  23.058   5.905  10.626
74845ION    CL-47171  29.650   7.154  14.768
74846ION    CL-47172   0.817  41.011   3.746
74847ION    CL-47173  16.839  44.279   2.388
74848ION    CL-47174  29.666  30.465  12.980
74849ION    CL-47175  41.099   1.005  13.200
74850ION    CL-47176  18.533  38.048   4.087
74851ION    CL-47177  43.869  17.759  11.862
74852ION    CL-47178  11.414  27.456   3.249
74853ION    CL-47179   1.610  13.384  11.881
74854ION    CL-47180  13.766   4.416   4.151
74855ION    CL-47181  35.878  35.010  12.838
74856ION    CL-47182  27.973   5.619   5.217
74857ION    CL-47183  13.698  14.354  13.378
74858ION    CL-47184   2.183  34.333  11.950
74859ION    CL-47185  39.324   2.569  12.437
74860ION    CL-47186  22.563  25.747   1.929
74861ION    CL-47187   5.747  38.857   0.333
74862ION    CL-47188  37.430  38.121  14.959
74863ION    CL-47189  19.462  12.502   4.829
74864ION    CL-47190  22.419  33.596  12.362
74865ION    CL-47191   7.782  16.638  14.814
74866ION    CL-47192  19.615  18.570  13.101
74867ION    CL-47193  17.841  18.142  11.464
74868ION    CL-47194  11.977   4.828   2.249
74869ION    CL-47195   4.105  24.083   4.761
74870ION    CL-47196  21.233   7.969  12.911
74871ION    CL-47197  16.132  37.113   0.890
74872ION    CL-47198  24.712  40.015   3.369
74873ION    CL-47199   8.411  16.357   1.910
74874ION    CL-47200   4.215  27.908   1.878
74875ION    CL-47201   7.966  36.922   2.609
74876ION    CL-47202  34.342   2.985  11.621
74877ION    CL-47203  41.911  24.677  12.065
74878ION    CL-47204   1.532  30.552  11.462
74879ION    CL-47205  31.338   7.767   0.512
74880ION    CL-47206   7.759  14.346   0.650
74881ION    CL-47207  30.232   6.391   1.278
74882ION    CL-47208  26.876   2.154   1.921
74883ION    CL-47209  15.107  16.585   0.848
74884ION    CL-47210  37.388  33.462   0.802
74885ION    CL-47211  33.650  17.137   1.866
74886ION    CL-47212  40.457  12.665   4.123
74887ION    CL-47213   7.528  37.994  11.257
74888ION    CL-47214   3.630  37.992   1.238
74889ION    CL-47215   4.598   2.211  13.414
74890ION    CL-47216  34.384   5.478  12.876
74891ION    CL-47217   0.738   9.149  13.916
74892ION    CL-47218  38.438  19.021   3.421
74893ION    CL-47219  33.476  43.341   3.575
74894ION    CL-47220  21.669  31.357   3.169
74895ION    CL-47221  28.675  37.874  12.214
74896ION    CL-47222  44.015  14.621  14.768
74897ION    CL-47223  33.933   0.565  11.381
74898ION    CL-47224   0.579   1.471  10.673
74899ION    CL-47225  13.846  41.424   3.588
74900ION    CL-47226  23.510  33.965   3.742
74901ION    CL-47227  10.492  23.109  11.528
74902ION    CL-47228  39.161  44.792   4.766
74903ION    CL-47229  13.491  27.417   0.360
74904ION    CL-47230  15.750  40.262   1.348
74905ION    CL-47231  28.193  20.117  10.865
74906ION    CL-47232  36.110  11.815   2.409
74907ION    CL-47233   5.139  33.582   0.292
74908ION    CL-47234  33.675  37.623  10.105
74909ION    CL-47235   6.669  33.980   4.200
74910ION    CL-47236  26.604  24.167   4.174
74911ION    CL-47237  23.535  13.310  14.869
74912ION    CL-47238   1.107  23.186  13.946
74913ION    CL-47239  15.783   6.323   4.538
74914ION    CL-47240  41.498  38.929  11.209
74915ION    CL-47241  25.695  27.945   0.022
74916ION    CL-47242  19.301  24.598   4.840
74917ION    CL-47243  40.762   5.511  11.227
74918ION    CL-47244  41.867  41.306   3.744
74919ION    CL-47245  19.877   8.057   5.129
74920ION    CL-47246   8.996  13.902  13.744
74921ION    CL-47247  38.583  19.056  11.360
74922ION    CL-47248  35.035  32.329  14.448
74923ION    CL-47249  33.642  39.652   0.420
74924ION    CL-47250  40.451   4.119  13.681
74925ION    CL-47251  18.506  36.173   5.126
74926ION    CL-47252  42.295   0.075  14.589
74927ION    CL-47253   3.131   8.401   0.107
74928ION    CL-47254  23.104  27.858  11.558
74929ION    CL-47255  16.255  21.289  11.495
74930ION    CL-47256   9.203  44.713   1.677
74931ION    CL-47257  25.716  43.003  12.897
74932ION    CL-47258  17.246  33.944   3.606
74933ION    CL-47259  18.544  27.359   4.829
74934ION    CL-47260  44.503  23.489  13.491
74935ION    CL-47261  40.285  31.457   3.945
74936ION    CL-47262  22.458  29.549   2.613
74937ION    CL-47263  25.011  23.143   2.771
74938ION    CL-47264  40.773  44.367  13.945
74939ION    CL-47265  38.164  18.746   0.985
74940ION    CL-47266  31.485  11.600   4.178
74941ION    CL-47267  32.431  34.208   4.090
74942ION    CL-47268   4.404  25.067   2.718
74943ION    CL-47269   9.286  12.254   1.900
74944ION    CL-47270  39.434  28.824  14.643
74945ION    CL-47271  15.876  44.010   2.418
74946ION    CL-47272   3.993  37.923  12.979
74947ION    CL-47273  10.343  20.265   0.677
74948ION    CL-47274  40.988  44.394  11.526
74949ION    CL-47275   9.099   9.274   3.264
74950ION    CL-47276  24.751  13.142   3.770
74951ION    CL-47277  31.442  12.715  10.730
74952ION    CL-47278  11.533  33.766  10.287
74953ION    CL-47279  20.155  22.765   0.717
74954ION    CL-47280   2.902  25.740   0.946
74955ION    CL-47281  30.261  18.193   1.172
74956ION    CL-47282  39.800  36.423  14.818
74957ION    CL-47283  31.106  31.284   4.538
74958ION    CL-47284  22.427  16.147   1.433
74959ION    CL-47285   4.249  24.243  13.352
74960ION    CL-47286  19.790  25.944   1.834
74961ION    CL-47287  33.471   4.018  14.566
74962ION    CL-47288  22.227   5.422   1.310
74963ION    CL-47289  40.239  33.433  10.750
74964ION    CL-47290  28.128   0.305   1.188
74965ION    CL-47291  29.888  42.006   3.251
74966ION    CL-47292   1.792  22.342  11.958
74967ION    CL-47293  12.520  32.081   2.308
74968ION    CL-47294   6.586  43.374  12.891
74969ION    CL-47295  43.460  44.852   0.433
74970ION    CL-47296  19.025   7.110   3.577
74971ION    CL-47297  26.848  10.037   2.526
74972ION    CL-47298  34.123  25.441  13.040
74973ION    CL-47299  40.078  16.760   2.410
74974ION    CL-47300  41.616  24.939  12.984
74975ION    CL-47301  37.715  30.704  13.873
74976ION    CL-47302  40.576  28.781  11.200
74977ION    CL-47303   3.015   2.007  10.154
74978ION    CL-47304  26.681  21.755  11.998
74979ION    CL-47305   3.658  16.030  11.952
74980ION    CL-47306  11.056  17.846   1.715
74981ION    CL-47307  44.431  19.011  12.549
74982ION    CL-47308  12.472  42.628   2.700
74983ION    CL-47309   5.725  25.978  12.965
74984ION    CL-47310  21.068  38.793  11.464
74985ION    CL-47311  38.017  40.161  11.791
74986ION    CL-47312  42.201  20.752   2.771
74987ION    CL-47313  15.132  19.289   3.371
74988ION    CL-47314  22.347  14.836  12.656
74989ION    CL-47315  27.337  31.739   1.172
74990ION    CL-47316  37.724  12.496   2.215
74991ION    CL-47317   6.796  41.036   3.021
74992ION    CL-47318  10.346   0.225   3.691
74993ION    CL-47319   6.071  31.463  14.487
74994ION    CL-47320  26.763  10.048   5.220
74995ION    CL-47321  12.898   3.782  13.163
74996ION    CL-47322  23.538  12.094  13.269
74997ION    CL-47323  20.344  37.147   1.945
74998ION    CL-47324  37.056  21.858   0.067
74999ION    CL-47325  16.963  42.348   0.486
75000ION    CL-47326  44.285  12.688  14.923
75001ION    CL-47327  27.014  41.343   5.036
75002ION    CL-47328   0.797   8.595   0.331
75003ION    CL-47329  30.063  26.739  14.256
75004ION    CL-47330  43.495  36.355   1.581
75005ION    CL-47331  31.691   3.223   2.856
75006ION    CL-47332  26.151  15.330   1.539
75007ION    CL-47333  35.373  25.631   1.195
75008ION    CL-47334  34.188   6.154  14.462
75009ION    CL-47335  16.631  25.436   3.919
75010ION    CL-47336   0.939  23.249  12.660
75011ION    CL-47337  36.111  10.638   2.818
75012ION    CL-47338  16.022  22.050   3.217
75013ION    CL-47339  43.736  18.975   1.918
75014ION    CL-47340   7.284   7.063  11.019
75015ION    CL-47341  14.310   3.897  13.445
75016ION    CL-47342   2.970  33.903  13.761
75017ION    CL-47343   2.691   8.146   1.037
75018ION    CL-47344  24.780  32.448   2.611
75019ION    CL-47345  37.983  11.010   4.617
75020ION    CL-47346  10.716  33.493   2.055
75021ION    CL-47347  29.638   2.786   1.375
75022ION    CL-47348  28.689  25.890   3.138
75023ION    CL-47349   4.366  41.953   2.732
75024ION    CL-47350   1.756  44.754   0.672
75025ION    CL-47351  38.205  38.870   3.600
75026ION    CL-47352  13.389  13.550  14.473
75027ION    CL-47353  35.388  31.468   3.280
75028ION    CL-47354  24.796  37.896   5.042
75029ION    CL-47355  13.870  17.299   2.840
75030ION    CL-47356  33.002  20.386  13.710
75031ION    CL-47357  35.951  18.450   1.962
75032ION    CL-47358  11.185  21.961  12.483
75033ION    CL-47359  38.486  44.075   4.940
75034ION    CL-47360  43.272   3.853   3.319
75035ION    CL-47361  38.199  40.977   1.811
75036ION    CL-47362  37.272  34.630  13.454
75037ION    CL-47363  24.521  12.769  11.807
75038ION    CL-47364  27.935  33.543  11.633
75039ION    CL-47365   8.369  36.441  12.594
75040ION    CL-47366  16.011  42.659  12.694
75041ION    CL-47367  11.565  14.891   4.884
75042ION    CL-47368  39.843  21.235  13.349
75043ION    CL-47369   0.657   7.631   2.291
75044ION    CL-47370  23.162  25.707   1.130
75045ION    CL-47371  14.050  24.957   5.038
75046ION    CL-47372   1.294  18.329  10.665
75047ION    CL-47373  37.969  16.192  12.910
75048ION    CL-47374  36.379  11.721  14.969
75049ION    CL-47375  37.394  37.141  12.072
75050ION    CL-47376   7.969   7.214   1.807
75051ION    CL-47377  29.672  21.690   2.919
75052ION    CL-47378  14.856  32.397   1.917
75053ION    CL-47379  26.706  32.645   1.346
75054ION    CL-47380   2.807  36.655  11.543
75055ION    CL-47381  22.066   4.390   3.705
75056ION    CL-47382  40.130  43.486   1.897
75057ION    CL-47383  33.884  14.461  13.109
75058ION    CL-47384  40.662  21.079   1.058
75059ION    CL-47385  16.838  22.365   0.710
75060ION    CL-47386  25.767  18.503   0.857
75061ION    CL-47387  34.601  42.628   0.203
75062ION    CL-47388  14.668  30.912  13.991
75063ION    CL-47389  23.626  39.904  10.726
75064ION    CL-47390   9.591   6.469  11.251
75065ION    CL-47391  29.930  10.522   3.570
75066ION    CL-47392  30.153  23.332  13.652
75067ION    CL-47393   5.810   1.711  10.473
75068ION    CL-47394   1.725  42.906  13.054
75069ION    CL-47395   6.568  11.024  13.276
75070ION    CL-47396  20.887  40.053   1.539
75071ION    CL-47397   5.573   1.519   3.392
75072ION    CL-47398  21.102  30.879  11.951
75073ION    CL-47399  19.997   5.953  12.100
75074ION    CL-47400  31.141  31.455   0.649
75075ION    CL-47401  33.859  16.540  10.893
75076ION    CL-47402   0.282  19.746  13.453
75077ION    CL-47403  35.683   5.776  12.107
75078ION    CL-47404  15.751  17.402   5.011
75079ION    CL-47405   8.213  36.652  11.102
75080ION    CL-47406  40.186   0.766   1.918
75081ION    CL-47407  39.844  30.407  11.943
75082ION    CL-47408  16.245  13.623   1.104
75083ION    CL-47409  28.335  15.129   1.372
75084ION    CL-47410   6.272   4.569   2.835
75085ION    CL-47411  37.893  10.537  14.533
75086ION    CL-47412  15.595  38.580   0.087
75087ION    CL-47413  39.755  21.332   2.170
75088ION    CL-47414  42.992   9.138  10.712
75089ION    CL-47415  40.239   8.797   1.011
75090ION    CL-47416   3.333  24.749  10.064
75091ION    CL-47417  39.701   2.027  11.135
75092ION    CL-47418  15.413  39.853  12.636
75093ION    CL-47419  40.503  32.106   0.764
75094ION    CL-47420   4.121   7.247  10.684
75095ION    CL-47421  27.731  31.671  10.260
75096ION    CL-47422   0.924   2.167   4.973
75097ION    CL-47423  15.578  14.830   1.113
75098ION    CL-47424  44.729  33.091  12.448
75099ION    CL-47425  33.029  21.854  13.380
75100ION    CL-47426  41.712  36.975   1.317
75101ION    CL-47427   8.452  29.367   3.941
75102ION    CL-47428  41.554  37.314   3.353
75103ION    CL-47429   1.545  19.778  12.906
75104ION    CL-47430   2.817  32.487  11.215
75105ION    CL-47431   2.382   1.551   2.121
75106ION    CL-47432  30.986  10.484  12.640
75107ION    CL-47433  14.603  24.120  14.924
75108ION    CL-47434  14.266   0.209  13.081
75109ION    CL-47435   0.235   6.204   3.124
75110ION    CL-47436  17.205   1.408  13.893
75111ION    CL-47437  28.424  17.684   2.824
75112ION    CL-47438  11.435  29.823   2.345
75113ION    CL-47439  23.945  19.762   1.806
75114ION    CL-47440  38.642  36.591  14.008
75115ION    CL-47441   3.445  24.647   2.949
75116ION    CL-47442  30.260  10.101  13.051
75117ION    CL-47443  29.368   0.868  12.422
75118ION    CL-47444  41.248  41.971   1.914
75119ION    CL-47445  21.764   6.932  14.037
75120ION    CL-47446  35.532  16.179  12.376
75121ION    CL-47447  24.242  14.659  13.891
75122ION    CL-47448   3.750  40.159  11.337
75123ION    CL-47449  19.500  28.513  13.603
75124ION    CL-47450  12.786  43.404   3.248
75125ION    CL-47451  31.606  22.324  11.232
75126ION    CL-47452  37.988  37.168   1.876
75127ION    CL-47453  23.694   0.522  14.950
75128ION    CL-47454  36.187  10.677   1.707
75129ION    CL-47455  36.212  25.115   2.864
75130ION    CL-47456  11.729  13.120   0.667
75131ION    CL-47457  20.113  42.063  10.467
75132ION    CL-47458  41.377  33.439  14.028
75133ION    CL-47459  20.424  38.727   3.084
75134ION    CL-47460  11.864  12.549  14.474
75135ION    CL-47461  31.842  44.113  10.838
75136ION    CL-47462  17.835  25.425   4.454
75137ION    CL-47463  27.550  22.628   0.931
75138ION    CL-47464  10.700   6.717   4.745
75139ION    CL-47465  26.894  10.747  14.415
75140ION    CL-47466  26.917  25.809  10.930
75141ION    CL-47467  32.869  19.373   3.102
75142ION    CL-47468   8.666   8.176   3.737
75143ION    CL-47469  16.280  39.318  10.120
75144ION    CL-47470  21.312  43.266  14.273
75145ION    CL-47471  21.292   1.266  11.656
75146ION    CL-47472  32.147   5.379  10.693
75147ION    CL-47473  40.376  16.244  11.445
75148ION    CL-47474   1.124  23.569   2.499
75149ION    CL-47475   7.879  33.798  12.476
75150ION    CL-47476   2.202  12.235  14.393
75151ION    CL-47477  40.527   1.332  14.796
75152ION    CL-47478   6.832  18.696   1.186
75153ION    CL-47479  29.685  35.401   4.169
75154ION    CL-47480  15.215  24.431  13.289
75155ION    CL-47481  41.329   3.770   2.563
75156ION    CL-47482  35.653  40.010   3.653
75157ION    CL-47483  29.592  35.255  11.791
75158ION    CL-47484  44.468   4.223  14.990
75159ION    CL-47485  31.607  44.811   3.385
75160ION    CL-47486  40.027  40.439   3.163
75161ION    CL-47487  35.381   1.682  13.178
75162ION    CL-47488  17.562  28.156  13.790
75163ION    CL-47489   9.907  23.314   2.540
75164ION    CL-47490  19.141  14.535  14.973
75165ION    CL-47491  26.459  27.612  13.289
75166ION    CL-47492   2.140  10.340   0.447
75167ION    CL-47493  41.135  43.259  10.824
75168ION    CL-47494  29.461  24.594  14.551
75169ION    CL-47495  13.624  44.243   1.054
75170ION    CL-47496  43.763  13.728  13.045
75171ION    CL-47497  28.003  22.251  10.285
75172ION    CL-47498  32.425  35.177  10.931
75173ION    CL-47499  27.083  35.293  11.874
75174ION    CL-47500  19.865  19.649   0.398
75175ION    CL-47501  22.404   7.080  12.097
75176ION    CL-47502   5.521  15.659   5.185
75177ION    CL-47503  41.606  36.950   2.311
75178ION    CL-47504  23.949  22.433   0.271
75179ION    CL-47505  15.579  30.992  12.284
75180ION    CL-47506  15.084   1.727   5.172
75181ION    CL-47507  28.939  25.479  14.444
75182ION    CL-47508  14.655  36.207   4.737
75183ION    CL-47509  28.666  38.768  14.032
75184ION    CL-47510  24.980  24.334   2.236
75185ION    CL-47511  37.038  31.514  14.630
75186ION    CL-47512  14.225  29.668  14.333
75187ION    CL-47513  13.131  39.341   2.101
75188ION    CL-47514   8.873   4.195  12.468
75189ION    CL-47515  40.251  37.996   3.639
75190ION    CL-47516  34.356  15.496  11.550
75191ION    CL-47517  16.375  40.343  11.920
75192ION    CL-47518  38.809  15.495   5.204
75193ION    CL-47519  18.333  11.845   2.098
75194ION    CL-47520  33.316  14.454   5.049
75195ION    CL-47521  31.043  16.977   0.408
75196ION    CL-47522   5.329  22.475  14.430
75197ION    CL-47523   6.735   6.899  14.014
75198ION    CL-47524  23.171  40.623   5.049
75199ION    CL-47525  32.150   5.871   4.159
75200ION    CL-47526  12.857   4.612   2.249
75201ION    CL-47527  11.587  41.571   3.315
75202ION    CL-47528  37.078  44.474  10.287
75203ION    CL-47529   3.658  19.024   4.246
75204ION    CL-47530  27.049   3.108   3.789
75205ION    CL-47531  19.096  33.653  11.956
75206ION    CL-47532  14.708  26.310   3.368
75207ION    CL-47533   4.422  23.096  13.211
75208ION    CL-47534  40.860  31.580   4.754
75209ION    CL-47535   9.640  16.568  13.072
75210ION    CL-47536   4.165  44.402  12.347
75211ION    CL-47537   7.730  27.719  14.121
75212ION    CL-47538  18.593   1.082  14.933
75213ION    CL-47539  27.073  25.121   2.366
75214ION    CL-47540  18.109  30.102   1.753
75215ION    CL-47541  31.002  25.730  11.362
75216ION    CL-47542  12.703  34.411   1.073
75217ION    CL-47543  44.428  17.617  12.975
75218ION    CL-47544  22.019  38.385   3.416
75219ION    CL-47545   5.303  10.163  11.631
75220ION    CL-47546  43.051  24.735   3.150
75221ION    CL-47547  32.325  25.541   3.342
75222ION    CL-47548  17.639  41.746   3.670
75223ION    CL-47549  28.010  29.407   1.791
75224ION    CL-47550   0.279  12.631  11.499
75225ION    CL-47551  26.655  17.919  12.654
75226ION    CL-47552   7.432   9.237   0.913
75227ION    CL-47553  23.570  13.725  12.858
75228ION    CL-47554  18.801  19.072   1.351
75229ION    CL-47555  14.342  42.813   3.613
75230ION    CL-47556  43.165  40.685   2.572
75231ION    CL-47557  23.843  22.220  12.112
75232ION    CL-47558  44.220  38.581   3.697
75233ION    CL-47559   7.581  11.254   0.324
75234ION    CL-47560  22.023  34.657   3.134
75235ION    CL-47561  42.772  10.484   3.650
75236ION    CL-47562  32.509   6.484  14.721
75237ION    CL-47563  24.607  40.941   0.747
75238ION    CL-47564   3.770  18.587  10.778
75239ION    CL-47565  40.689  38.003   4.861
75240ION    CL-47566  38.148   9.579  14.406
75241ION    CL-47567  22.794  34.887  11.143
75242ION    CL-47568   5.089  33.290  12.865
75243ION    CL-47569   6.771  35.070  12.572
75244ION    CL-47570  29.468  15.353   0.560
75245ION    CL-47571  16.997  32.490  13.608
75246ION    CL-47572   1.807  27.931   0.422
75247ION    CL-47573  17.211  11.586   1.737
75248ION    CL-47574  24.577  21.668  11.974
75249ION    CL-47575   5.439  11.167   4.176
75250ION    CL-47576  36.844   3.618   9.829
75251ION    CL-47577   9.130  39.976   3.568
75252ION    CL-47578  17.382  34.498   2.216
75253ION    CL-47579  16.879  21.453  13.979
75254ION    CL-47580  29.149  43.021  12.456
75255ION    CL-47581  31.246  29.192  12.081
75256ION    CL-47582  30.175  34.748   2.064
75257ION    CL-47583  26.045  14.627   3.324
75258ION    CL-47584  21.393  42.647  10.086
75259ION    CL-47585  37.148  20.635  11.010
75260ION    CL-47586  14.203  36.063   3.303
75261ION    CL-47587  37.856  20.607  11.716
75262ION    CL-47588  29.148  23.705   5.121
75263ION    CL-47589  29.521  38.106  11.030
75264ION    CL-47590   1.469   2.813  13.058
75265ION    CL-47591  10.320  11.370   2.769
75266ION    CL-47592  14.736   0.713  11.874
75267ION    CL-47593  29.939   2.449   0.484
75268ION    CL-47594  12.598  39.891   3.614
75269ION    CL-47595  27.822  37.842  13.482
75270ION    CL-47596  13.671  42.816  14.428
75271ION    CL-47597   1.203  43.019  14.030
75272ION    CL-47598   8.047  10.807  12.364
75273ION    CL-47599   1.217  29.674   5.326
75274ION    CL-47600   7.772   3.045   2.132
75275ION    CL-47601  22.967   5.775   3.785
75276ION    CL-47602  22.238  37.954   0.480
75277ION    CL-47603  24.111  36.691  14.500
75278ION    CL-47604  11.739  13.658   1.869
75279ION    CL-47605   2.056   6.017  13.080
75280ION    CL-47606  30.080  16.344  13.454
75281ION    CL-47607  18.942  12.496  11.475
75282ION    CL-47608   9.351   0.739   1.009
75283ION    CL-47609   2.641   7.751  11.296
75284ION    CL-47610  23.767  30.062   4.783
75285ION    CL-47611   2.140   7.126  11.894
75286ION    CL-47612   4.495   4.014  14.327
75287ION    CL-47613   2.825  26.697   4.148
75288ION    CL-47614   8.831  37.520   5.180
75289ION    CL-47615  14.673  43.933   1.482
75290ION    CL-47616   7.881   7.193   0.657
75291ION    CL-47617  41.724   2.121   0.106
75292ION    CL-47618  36.135   9.939  11.118
75293ION    CL-47619  21.338  25.915  11.952
75294ION    CL-47620   7.367   6.004   0.372
75295ION    CL-47621   8.273  42.973   0.886
75296ION    CL-47622  15.619  41.748  11.466
75297ION    CL-47623  16.105  29.700  13.090
75298ION    CL-47624   7.348  13.027   3.506
75299ION    CL-47625  34.542  15.462   2.662
75300ION    CL-47626   1.083  15.377   0.792
75301ION    CL-47627  42.549  36.468   3.764
75302ION    CL-47628  26.823  34.317   2.404
75303ION    CL-47629  28.301  44.088   5.102
75304ION    CL-47630  35.496  28.612   0.546
75305ION    CL-47631  10.687  39.375  14.394
75306ION    CL-47632  43.231  41.562   3.335
75307ION    CL-47633  34.527  26.602   0.438
75308ION    CL-47634  24.727  31.481   1.487
75309ION    CL-47635  18.642  33.993   0.457
75310ION    CL-47636  40.088  36.598   3.652
75311ION    CL-47637  38.626   5.682   2.687
75312ION    CL-47638  36.364  31.970   9.745
75313ION    CL-47639  39.580  22.896   2.502
75314ION    CL-47640  13.892  21.325  14.801
75315ION    CL-47641  34.400   0.753   0.706
75316ION    CL-47642   5.832  37.936  10.439
75317ION    CL-47643   0.086   5.150  11.725
75318ION    CL-47644   8.942  15.221  14.071
75319ION    CL-47645  25.434  29.588   0.568
75320ION    CL-47646  33.072  40.352   0.315
75321ION    CL-47647  20.018  26.179  13.069
75322ION    CL-47648  32.854   3.969   2.588
75323ION    CL-47649  12.696  15.217   4.579
75324ION    CL-47650  16.069   8.045   2.196
75325ION    CL-47651  42.138  43.479  11.194
75326ION    CL-47652   0.559  36.870  14.416
75327ION    CL-47653  34.193  21.715   5.020
75328ION    CL-47654  40.969  36.646  12.860
75329ION    CL-47655   6.175   9.676  11.687
75330ION    CL-47656   8.113  34.764  12.363
75331ION    CL-47657   1.687  25.999  14.429
75332ION    CL-47658   3.144  21.509   1.216
75333ION    CL-47659  28.266  26.852   1.821
75334ION    CL-47660  18.600   1.355  11.644
75335ION    CL-47661  27.042  34.719   4.003
75336ION    CL-47662  39.504  31.191  13.985
75337ION    CL-47663  15.983  14.294   3.548
75338ION    CL-47664  30.212  11.446   3.831
75339ION    CL-47665  17.332  29.570   3.612
75340ION    CL-47666   2.645  28.708  11.454
75341ION    CL-47667  36.565  13.590   9.820
75342ION    CL-47668   8.877   1.945   2.488
75343ION    CL-47669  20.306  15.961  12.021
75344ION    CL-47670   0.334  22.636   0.397
75345ION    CL-47671   2.252  31.906   3.387
75346ION    CL-47672  29.629  12.163  10.412
75347ION    CL-47673  41.517  21.489   1.376
75348ION    CL-47674  36.118  17.711   0.960
75349ION    CL-47675  26.783  17.457   1.999
75350ION    CL-47676  24.718  20.359  12.803
75351ION    CL-47677  13.594  22.154  11.422
75352ION    CL-47678   1.802  30.986   3.528
75353ION    CL-47679  15.555  24.707  14.060
75354ION    CL-47680  14.482  43.257   0.771
75355ION    CL-47681  16.834  39.483  12.464
75356ION    CL-47682  44.962  17.689   0.595
75357ION    CL-47683   7.054  19.619  13.042
75358ION    CL-47684  24.599   5.865   0.717
75359ION    CL-47685   0.355  16.580  11.153
75360ION    CL-47686  13.124  37.197  13.871
75361ION    CL-47687  35.240  33.451   4.262
75362ION    CL-47688   8.641  17.153   3.250
75363ION    CL-47689  43.284   1.856  11.664
75364ION    CL-47690   8.036  15.796   2.653
75365ION    CL-47691  15.695   2.902  11.074
75366ION    CL-47692  13.617  24.493   0.818
75367ION    CL-47693  25.314  33.532   1.410
75368ION    CL-47694  10.091  18.058  12.019
75369ION    CL-47695   3.666  28.516  11.706
75370ION    CL-47696   2.723  40.795  14.381
75371ION    CL-47697   3.343  20.716  14.922
75372ION    CL-47698  20.834   0.140  10.418
75373ION    CL-47699  44.707  34.379   2.857
75374ION    CL-47700  26.975  43.310   4.429
75375ION    CL-47701  29.524   6.736   3.154
75376ION    CL-47702  22.811  36.902   0.883
75377ION    CL-47703  28.581  40.794  11.551
75378ION    CL-47704  22.953   3.534   2.329
75379ION    CL-47705  34.699  11.329   2.385
75380ION    CL-47706   5.182  19.553   2.611
75381ION    CL-47707  38.839   6.717   3.410
75382ION    CL-47708   5.749  23.620  12.577
75383ION    CL-47709  21.527   9.411  13.774
75384ION    CL-47710  25.969  10.189  12.547
75385ION    CL-47711   8.082  13.581  13.991
75386ION    CL-47712  15.093   1.460   3.662
75387ION    CL-47713  22.448   9.727  11.702
75388ION    CL-47714  13.261  39.318   3.093
75389ION    CL-47715  39.520  11.767   2.081
75390ION    CL-47716  13.641  12.851   9.669
75391ION    CL-47717  23.357   9.013  12.428
75392ION    CL-47718  34.625  18.363  14.554
75393ION    CL-47719  27.092  11.635   4.384
75394ION    CL-47720  18.634  31.033  11.473
75395ION    CL-47721  39.588  22.464   3.299
75396ION    CL-47722  34.825  29.251   1.170
75397ION    CL-47723  10.128   4.980  11.929
75398ION    CL-47724  29.732  25.503   2.631
75399ION    CL-47725  11.665  38.076  11.216
75400ION    CL-47726  43.306  10.348  13.945
75401ION    CL-47727  17.467  35.801  11.649
75402ION    CL-47728   9.435  14.476  12.357
75403ION    CL-47729  29.631   8.574  12.581
75404ION    CL-47730   2.907  41.949  12.526
75405ION    CL-47731  13.179   0.509   3.795
75406ION    CL-47732  25.229   9.999  14.032
75407ION    CL-47733  34.787  23.445  12.957
75408ION    CL-47734  15.248  27.896   0.388
75409ION    CL-47735   8.106   8.900  13.378
75410ION    CL-47736  43.315   2.852   0.086
75411ION    CL-47737   1.446   4.430   2.797
75412ION    CL-47738   6.601  14.367  13.802
75413ION    CL-47739  33.175   6.636  11.574
75414ION    CL-47740  19.922  36.210  13.439
75415ION    CL-47741   6.405  15.635  13.325
75416ION    CL-47742  22.953  23.360  11.605
75417ION    CL-47743  31.237  30.686   3.745
75418ION    CL-47744  15.507  35.201   5.561
75419ION    CL-47745  44.810  16.243  13.971
75420ION    CL-47746   5.417  24.909  12.723
75421ION    CL-47747  11.797  30.645  10.790
75422ION    CL-47748   7.593  29.996  14.951
75423ION    CL-47749  19.018  21.710   2.164
75424ION    CL-47750  30.327  27.855  12.606
75425ION    CL-47751   4.194  13.158  13.578
75426ION    CL-47752  42.048  11.009   3.676
75427ION    CL-47753  32.181   9.297  12.940
75428ION    CL-47754   3.643   7.200  14.814
75429ION    CL-47755  20.016  18.323   3.363
75430ION    CL-47756  18.292  40.623  10.325
75431ION    CL-47757  13.569  34.076  10.347
75432ION    CL-47758  10.877  33.838   9.786
75433ION    CL-47759  14.171  17.728  12.971
75434ION    CL-47760   1.632  34.771   4.620
75435ION    CL-47761  24.280  22.448  14.011
75436ION    CL-47762  10.783   6.862  11.482
75437ION    CL-47763  31.519  34.694   4.538
75438ION    CL-47764  36.853  12.336   2.409
75439ION    CL-47765  32.098   4.936  11.895
75440ION    CL-47766  35.417  24.099   3.418
75441ION    CL-47767  36.768  19.816   0.917
75442ION    CL-47768  10.303  35.023  14.292
75443ION    CL-47769  34.905  40.815  12.403
75444ION    CL-47770  38.710  41.761  13.923
75445ION    CL-47771   4.038  22.338  12.115
75446ION    CL-47772  35.711  22.677  11.799
75447ION    CL-47773   4.001  26.479   0.650
75448ION    CL-47774   8.698  44.591   5.083
75449ION    CL-47775  39.138  26.700   0.482
75450ION    CL-47776  35.311  28.862  10.839
75451ION    CL-47777  21.945  16.639  12.386
75452ION    CL-47778  20.181  30.191  14.021
75453ION    CL-47779  21.345   2.400   2.480
75454ION    CL-47780  29.423  40.324  12.255
75455ION    CL-47781  42.317  23.037  13.966
75456ION    CL-47782  16.647  16.639  14.174
75457ION    CL-47783  38.625  13.762  12.998
75458ION    CL-47784  12.329   6.898   3.201
75459ION    CL-47785  32.046  32.738  14.229
75460ION    CL-47786  10.845  37.691  10.177
75461ION    CL-47787  13.773   5.191  13.434
75462ION    CL-47788  23.827  41.748   2.950
75463ION    CL-47789  18.995  37.066   1.056
75464ION    CL-47790  38.524   0.251   3.313
75465ION    CL-47791  11.713  39.001  12.130
75466ION    CL-47792  33.283  32.281  12.134
75467ION    CL-47793  39.108  28.648   2.305
75468ION    CL-47794  35.271  44.546  11.170
75469ION    CL-47795  11.557  17.657  12.257
75470ION    CL-47796   4.767  34.886  13.405
75471ION    CL-47797   4.678   1.278   3.016
75472ION    CL-47798   5.640  39.063  13.286
75473ION    CL-47799   4.425   5.655   0.204
75474ION    CL-47800  10.335  18.228   9.889
75475ION    CL-47801   2.509  13.251   3.592
75476ION    CL-47802  40.582  35.608   4.336
75477ION    CL-47803  24.626  12.541   0.518
75478ION    CL-47804   6.672  37.014   0.260
75479ION    CL-47805  27.699  15.760  12.467
75480ION    CL-47806  24.629  44.402   4.572
75481ION    CL-47807  36.070  36.260   1.209
75482ION    CL-47808  28.268  42.978  13.675
75483ION    CL-47809  36.520  44.780  14.255
75484ION    CL-47810  26.158  27.036  11.502
75485ION    CL-47811  10.893  12.268  13.489
75486ION    CL-47812  18.554   4.048   1.122
75487ION    CL-47813   7.365  36.582   0.644
75488ION    CL-47814  42.567  16.134   2.285
75489ION    CL-47815  38.997  35.784  13.536
75490ION    CL-47816  14.073   6.702   0.713
75491ION    CL-47817  23.833  12.890   4.486
75492ION    CL-47818  22.806  16.554  12.249
75493ION    CL-47819  40.920  44.744   4.999
75494ION    CL-47820  13.816   9.132   1.434
75495ION    CL-47821  37.537  35.903  14.720
75496ION    CL-47822   9.625  24.479  13.344
75497ION    CL-47823  38.573   2.554  14.000
75498ION    CL-47824  37.468  44.316  13.598
75499ION    CL-47825  26.125  27.455  10.724
75500ION    CL-47826  27.415  32.185  13.529
75501ION    CL-47827  21.265  39.987  12.976
75502ION    CL-47828  34.376   9.382   4.244
75503ION    CL-47829  34.188   5.520  11.115
75504ION    CL-47830  25.135  37.931  13.898
75505ION    CL-47831  29.966  29.605  11.030
75506ION    CL-47832   9.836  20.868   1.301
75507ION    CL-47833   6.289   5.475  12.617
75508ION    CL-47834  37.134  44.227   1.416
75509ION    CL-47835  23.319  17.748   3.193
75510ION    CL-47836   8.844  23.992  10.689
75511ION    CL-47837  40.903   8.620  13.033
75512ION    CL-47838  42.584   2.265   3.425
75513ION    CL-47839  18.266  31.371   4.197
75514ION    CL-47840  25.205  42.938   4.515
75515ION    CL-47841  20.133  39.924  12.953
75516ION    CL-47842  19.135  12.448   2.181
75517ION    CL-47843  44.830  44.715   0.429
75518ION    CL-47844  28.849  14.977  14.305
75519ION    CL-47845  28.012  32.684  10.569
75520ION    CL-47846  18.759  29.601   2.726
75521ION    CL-47847  20.499  19.083   3.796
75522ION    CL-47848  42.585  30.182   4.135
75523ION    CL-47849  20.704  15.000   3.767
75524ION    CL-47850  12.292  12.220  12.414
75525ION    CL-47851  33.226   7.581  11.088
75526ION    CL-47852   4.667   1.345   0.437
75527ION    CL-47853   8.598  27.075  10.830
75528ION    CL-47854  11.196   0.487   1.351
75529ION    CL-47855  32.379  43.369  10.820
75530ION    CL-47856  20.249  11.566  10.951
75531ION    CL-47857  21.008  23.284   0.648
75532ION    CL-47858  10.124  40.530  11.872
75533ION    CL-47859  34.849   1.353  10.649
75534ION    CL-47860  18.541  43.099  13.007
75535ION    CL-47861  34.345  44.727   3.843
75536ION    CL-47862   6.278  35.860   3.604
75537ION    CL-47863  43.105  17.018  12.344
75538ION    CL-47864  13.904  28.316  14.779
75539ION    CL-47865  23.452  40.236   3.744
75540ION    CL-47866  14.131  19.735  12.584
75541ION    CL-47867  24.748   3.201  11.036
75542ION    CL-47868  36.902  18.918   2.252
75543ION    CL-47869   0.842  44.794  11.245
75544ION    CL-47870  28.332  39.569   2.626
75545ION    CL-47871   8.241  19.953  13.362
75546ION    CL-47872   4.140  11.661  11.207
75547ION    CL-47873  29.808  30.768   1.185
75548ION    CL-47874  20.198  41.505  12.347
75549ION    CL-47875   9.007   1.598  12.320
75550ION    CL-47876  38.479  29.564  10.675
75551ION    CL-47877  29.747  25.905  14.038
75552ION    CL-47878  10.944  35.083   4.379
75553ION    CL-47879  36.000  29.609   2.572
75554ION    CL-47880  41.656   6.162   3.713
75555ION    CL-47881   2.720  24.686   1.757
75556ION    CL-47882  40.659  43.164   0.743
75557ION    CL-47883   9.203  36.623   5.196
75558ION    CL-47884  25.972   7.469  11.560
75559ION    CL-47885   4.315  36.026  13.738
75560ION    CL-47886  12.411   0.371   1.849
75561ION    CL-47887  42.274  26.901   1.637
75562ION    CL-47888  24.221  15.193   2.985
75563ION    CL-47889  10.370  12.452  10.721
75564ION    CL-47890   4.958  11.380   3.271
75565ION    CL-47891   9.882  11.091   5.105
75566ION    CL-47892  36.462  30.857  12.067
75567ION    CL-47893  28.231  44.875  12.904
75568ION    CL-47894  15.397  29.052  12.812
75569ION    CL-47895  39.680  18.122   1.734
75570ION    CL-47896   9.175  37.095  14.542
75571ION    CL-47897  32.385  31.056   4.172
75572ION    CL-47898   2.944  43.578   2.613
75573ION    CL-47899  11.771   5.609   4.830
75574ION    CL-47900  13.718  36.781   5.443
75575ION    CL-47901  17.485   5.455  11.535
75576ION    CL-47902  23.110  32.579   2.016
75577ION    CL-47903  28.418  35.438  12.855
75578ION    CL-47904  11.744  32.494   3.958
75579ION    CL-47905  22.814  38.713   0.784
75580ION    CL-47906  13.092  24.200   4.515
75581ION    CL-47907   1.686  14.701  12.678
75582ION    CL-47908  30.531   9.232   3.652
75583ION    CL-47909   3.945  44.479   1.069
75584ION    CL-47910  15.351  11.849  12.909
75585ION    CL-47911  44.470  24.784   3.661
75586ION    CL-47912  23.671  42.419  10.641
75587ION    CL-47913  33.203  27.917  11.275
75588ION    CL-47914   3.147   1.472  14.672
75589ION    CL-47915   8.355  29.033   2.115
75590ION    CL-47916  25.514   7.278   2.348
75591ION    CL-47917  24.832  18.692  10.636
75592ION    CL-47918  33.906   2.254  14.309
75593ION    CL-47919  30.462  33.855  14.497
75594ION    CL-47920   7.716  16.618  13.269
75595ION    CL-47921   7.691  25.398  12.114
75596ION    CL-47922   9.228  26.920  13.310
75597ION    CL-47923  13.458   9.424  11.086
75598ION    CL-47924  36.221  40.459   3.149
75599ION    CL-47925   8.206  35.122   1.930
75600ION    CL-47926  37.581  38.915   1.034
75601ION    CL-47927  37.111  39.985  14.272
75602ION    CL-47928  30.643  33.200  13.629
75603ION    CL-47929  34.607  38.083  14.898
75604ION    CL-47930  19.393  22.620   2.740
75605ION    CL-47931  14.553  33.857   2.621
75606ION    CL-47932  35.813  10.790   4.608
75607ION    CL-47933   9.867  11.303  14.539
75608ION    CL-47934  40.718  30.466   9.931
75609ION    CL-47935  39.698   0.869  12.354
75610ION    CL-47936  33.634  30.991  12.189
75611ION    CL-47937   8.958  34.454   1.759
75612ION    CL-47938  27.026  10.151   3.191
75613ION    CL-47939  33.062  35.682  11.515
75614ION    CL-47940   7.183   0.806   4.017
75615ION    CL-47941  13.212  15.112   3.318
75616ION    CL-47942  39.269   9.434  11.503
75617ION    CL-47943  38.262  15.995  11.346
75618ION    CL-47944  41.500  40.534  12.418
75619ION    CL-47945  32.930  28.522   3.376
75620ION    CL-47946  17.480  36.111   0.790
75621ION    CL-47947   8.404  32.266   1.286
75622ION    CL-47948  13.621   5.352   0.276
75623ION    CL-47949  38.890  22.140  14.041
75624ION    CL-47950  11.158  24.173  12.958
75625ION    CL-47951  37.788  41.957  11.947
75626ION    CL-47952   4.345  12.649   1.260
75627ION    CL-47953   5.446  24.088  11.190
75628ION    CL-47954  29.066  43.775  14.430
75629ION    CL-47955  21.816  16.916  13.424
75630ION    CL-47956  19.365   1.304  11.002
75631ION    CL-47957   9.360  28.407  14.781
75632ION    CL-47958   4.409  34.846  10.656
75633ION    CL-47959  20.979  36.904   4.039
75634ION    CL-47960  32.849  30.280   3.742
75635ION    CL-47961  25.479  10.736  11.031
75636ION    CL-47962  28.144  42.370   2.026
75637ION    CL-47963  19.153  33.557   2.616
75638ION    CL-47964   4.893   1.852   3.807
75639ION    CL-47965  41.252   8.908   2.640
75640ION    CL-47966  13.662  38.202  11.217
75641ION    CL-47967  22.806   3.837  12.195
75642ION    CL-47968  28.734  17.295   3.733
75643ION    CL-47969  18.898  37.283  13.730
75644ION    CL-47970  44.648   7.625  12.655
75645ION    CL-47971  16.673  40.031   2.806
75646ION    CL-47972   8.965  31.714  11.618
75647ION    CL-47973  13.680  31.417  14.518
75648ION    CL-47974  36.474  13.449  12.683
75649ION    CL-47975   8.425  29.810  14.315
75650ION    CL-47976  14.350  29.814   2.344
75651ION    CL-47977  12.686  35.008   0.420
75652ION    CL-47978  17.830  25.169  13.048
75653ION    CL-47979  32.897  34.085  12.047
75654ION    CL-47980   7.398   9.368  11.797
75655ION    CL-47981   4.263   9.400   5.346
75656ION    CL-47982  40.769  16.386  13.374
75657ION    CL-47983  12.542  22.446  11.422
75658ION    CL-47984   0.824  41.641   0.087
75659ION    CL-47985  33.370  34.312   1.113
75660ION    CL-47986   4.194  10.371   0.287
75661ION    CL-47987  43.845  37.336  12.931
75662ION    CL-47988  40.382  18.535   4.031
75663ION    CL-47989   3.328  11.732  12.346
75664ION    CL-47990   5.980  33.722  13.009
75665ION    CL-47991  10.541  24.592  13.760
75666ION    CL-47992  11.892  32.217  11.159
75667ION    CL-47993  10.872  14.790   3.484
75668ION    CL-47994  30.373   3.099  13.938
75669ION    CL-47995  42.756   2.161  14.920
75670ION    CL-47996  30.000   7.689  13.088
75671ION    CL-47997  33.874  29.472   0.623
75672ION    CL-47998  41.732  31.561  12.972
75673ION    CL-47999  26.158  42.008   0.942
75674ION    CL-48000  30.887  42.337   1.904
75675ION    CL-48001  21.346  43.951   1.124
75676ION    CL-48002   8.972  39.780  14.732
75677ION    CL-48003   0.863  31.813  12.627
75678ION    CL-48004  12.011   2.300   2.677
75679ION    CL-48005  10.139  10.828  11.567
75680ION    CL-48006  25.122   1.063  12.075
75681ION    CL-48007  13.403  30.715  11.734
75682ION    CL-48008  14.230  40.995  13.104
75683ION    CL-48009  44.282   1.520   3.240
75684ION    CL-48010  34.863  28.169  13.411
75685ION    CL-48011   3.130   8.510  13.813
75686ION    CL-48012  20.950  17.411  13.501
75687ION    CL-48013   0.775  35.845   2.514
75688ION    CL-48014   9.023  40.155  11.408
75689ION    CL-48015  16.206  44.479  11.603
75690ION    CL-48016  33.550  42.543  11.094
75691ION    CL-48017  19.640   4.626  13.562
75692ION    CL-48018  43.801  24.861   4.401
75693ION    CL-48019   2.132  37.884   5.015
75694ION    CL-48020  40.244   5.028  12.368
75695ION    CL-48021   9.646   9.286   2.479
75696ION    CL-48022  12.976  24.515  13.750
75697ION    CL-48023  18.053  20.966   1.880
75698ION    CL-48024  37.440  30.508   3.168
75699ION    CL-48025  34.979  11.149   3.662
75700ION    CL-48026  42.857  20.244  13.350
75701ION    CL-48027  12.339  17.268  12.546
75702ION    CL-48028  15.400   7.011  12.429
75703ION    CL-48029  18.582  25.227   2.250
75704ION    CL-48030  42.665   1.946   1.675
75705ION    CL-48031  39.149   4.106   1.875
75706ION    CL-48032  10.296  22.212   2.152
75707ION    CL-48033  24.012  12.136  12.390
75708ION    CL-48034   3.306  40.608   0.927
75709ION    CL-48035  30.903  43.930  13.041
75710ION    CL-48036   1.911   5.999  14.185
75711ION    CL-48037  33.319  26.377  10.301
75712ION    CL-48038  34.523  14.181   4.611
75713ION    CL-48039  30.813  42.954  13.713
75714ION    CL-48040  35.612  19.976   0.546
75715ION    CL-48041  32.346  15.345   9.628
75716ION    CL-48042  38.762  18.605  12.119
75717ION    CL-48043   6.002  23.215   0.939
75718ION    CL-48044  31.949   9.554  14.717
75719ION    CL-48045  37.805  28.164   1.705
75720ION    CL-48046  24.915  27.979  10.727
75721ION    CL-48047  42.711  35.293  11.615
75722ION    CL-48048   3.124   9.800   1.822
75723ION    CL-48049  33.282  39.248  13.784
75724ION    CL-48050   2.555  17.757  13.172
75725ION    CL-48051  13.583  40.086   0.010
75726ION    CL-48052   1.924  27.962  11.473
75727ION    CL-48053  18.190  32.346   5.034
75728ION    CL-48054  26.276   6.497   4.531
75729ION    CL-48055  11.268  33.519  13.542
75730ION    CL-48056  34.359  32.181   1.158
75731ION    CL-48057   5.546  15.129  13.401
75732ION    CL-48058  16.405  36.571   5.003
75733ION    CL-48059  36.484  27.633   4.563
75734ION    CL-48060  36.410  38.566  11.628
75735ION    CL-48061   3.470  26.523  13.036
75736ION    CL-48062  23.219  36.327   1.647
75737ION    CL-48063  17.634  23.164  11.205
75738ION    CL-48064  41.425  23.956   1.861
75739ION    CL-48065  21.474  38.667   4.879
75740ION    CL-48066   9.703  31.169   1.121
75741ION    CL-48067  24.683  36.138   3.734
75742ION    CL-48068  16.776  21.147   3.318
75743ION    CL-48069  14.683  27.082   2.733
75744ION    CL-48070  10.918  17.159   4.357
75745ION    CL-48071  31.418   5.592  13.196
75746ION    CL-48072   2.559  35.445   2.277
75747ION    CL-48073  17.247   5.518  12.410
75748ION    CL-48074   2.747  39.232  11.940
75749ION    CL-48075  33.200  13.362   1.148
75750ION    CL-48076  24.701  13.688   2.689
75751ION    CL-48077   9.496  27.057  11.270
75752ION    CL-48078   8.817   2.338   5.129
75753ION    CL-48079  22.969  10.647  14.394
75754ION    CL-48080   4.103  39.433  11.715
75755ION    CL-48081   5.646  17.743   2.752
75756ION    CL-48082  23.734  21.683   4.902
75757ION    CL-48083  10.229  28.772   2.289
75758ION    CL-48084  32.532  37.482   2.688
75759ION    CL-48085  24.582  12.793  14.551
75760ION    CL-48086  19.424   3.555   4.372
75761ION    CL-48087  21.327  21.106   4.958
75762ION    CL-48088  33.545  10.683   0.676
75763ION    CL-48089  15.210  18.587  14.667
75764ION    CL-48090  22.676  27.375   1.034
75765ION    CL-48091  41.241  29.985   4.758
75766ION    CL-48092  35.999   2.386   2.974
75767ION    CL-48093  34.497   8.875  13.941
75768ION    CL-48094  10.141  33.963  10.452
75769ION    CL-48095   0.308  32.307   2.366
75770ION    CL-48096  33.924   7.553  13.006
75771ION    CL-48097  18.258  30.282  11.262
75772ION    CL-48098  31.988  34.144   5.107
75773ION    CL-48099  43.729  32.043  14.814
75774ION    CL-48100  28.930   4.155   1.694
75775ION    CL-48101   5.782  28.615  11.501
75776ION    CL-48102   4.693  21.135  12.783
75777ION    CL-48103  20.722  12.856   1.278
75778ION    CL-48104  28.666   7.267   1.290
75779ION    CL-48105  28.963  39.860   5.002
75780ION    CL-48106  29.166  34.446  14.655
75781ION    CL-48107  35.274   9.881  11.367
75782ION    CL-48108   5.083  26.863   1.391
75783ION    CL-48109  28.408  28.874   3.005
75784ION    CL-48110   1.174  41.503  12.157
75785ION    CL-48111   1.904  30.900  12.323
75786ION    CL-48112  10.784   9.207   4.934
75787ION    CL-48113  13.341   5.902  14.085
75788ION    CL-48114  28.958  10.451   0.391
75789ION    CL-48115  33.781  38.046   3.817
75790ION    CL-48116   1.477  43.756   0.585
75791ION    CL-48117  12.557  32.806  11.333
75792ION    CL-48118  25.050  30.931  12.424
75793ION    CL-48119   2.030  44.350   1.544
75794ION    CL-48120  33.817   2.260   3.371
75795ION    CL-48121  28.857  44.447   3.256
75796ION    CL-48122  14.858  13.865   4.770
75797ION    CL-48123  41.207  34.969  13.487
75798ION    CL-48124   3.509  11.111   3.177
75799ION    CL-48125  29.246  32.492   4.586
75800ION    CL-48126  15.717  41.302   2.678
75801ION    CL-48127   2.760  40.244   5.099
75802ION    CL-48128  19.730  23.408  14.091
75803ION    CL-48129   3.483   3.234   3.252
75804ION    CL-48130  41.945  13.660   3.509
75805ION    CL-48131  12.098  26.944   1.546
75806ION    CL-48132  23.549  40.784  11.445
75807ION    CL-48133   8.954  33.618  11.094
75808ION    CL-48134  38.800   3.654  12.087
75809ION    CL-48135  22.099  33.992  11.500
75810ION    CL-48136  10.020  34.982   3.563
75811ION    CL-48137  15.243  18.244   4.832
75812ION    CL-48138  19.720  13.286   3.750
75813ION    CL-48139  42.333  31.162  11.388
75814ION    CL-48140  26.591  22.801  12.056
75815ION    CL-48141  40.785  39.814  12.415
75816ION    CL-48142  38.609   5.741  12.468
75817ION    CL-48143   2.410  41.567   2.650
75818ION    CL-48144  37.421  44.228  12.156
75819ION    CL-48145  26.488  26.680  12.611
75820ION    CL-48146   8.704  44.328   0.296
75821ION    CL-48147   6.298  43.465  14.909
75822ION    CL-48148  32.660   2.975   2.821
75823ION    CL-48149  27.723  29.843  12.662
75824ION    CL-48150  13.595  30.042   0.017
75825ION    CL-48151  21.891   1.631   4.970
75826ION    CL-48152  22.119   7.862   4.957
75827ION    CL-48153  24.506  19.667  11.032
75828ION    CL-48154  39.309  10.530   9.661
75829ION    CL-48155  13.328  26.424  10.836
75830ION    CL-48156  20.692  40.898  11.435
75831ION    CL-48157  16.594  38.917   1.235
75832ION    CL-48158  30.580  36.541   2.159
75833ION    CL-48159  35.650  28.536   4.193
75834ION    CL-48160  29.975   1.846  11.024
75835ION    CL-48161  12.901   0.530  10.321
75836ION    CL-48162  18.674  38.254  13.816
75837ION    CL-48163   3.344  27.155  10.711
75838ION    CL-48164   8.373  37.034   4.018
75839ION    CL-48165  16.191  38.334  13.818
75840ION    CL-48166  22.814  15.475   0.744
75841ION    CL-48167  43.006  33.157  11.988
75842ION    CL-48168  16.479  28.293  10.464
75843ION    CL-48169  40.554  27.725  12.807
75844ION    CL-48170   1.317  17.301  13.147
75845ION    CL-48171  40.920  37.052   1.648
75846ION    CL-48172  13.812  30.747  10.822
75847ION    CL-48173   8.127  25.605   1.603
75848ION    CL-48174  29.610  28.076  12.119
75849ION    CL-48175  44.889  15.552  12.648
75850ION    CL-48176  16.985  24.613  13.978
75851ION    CL-48177  38.663  24.230  13.386
75852ION    CL-48178   1.344  29.895  10.732
75853ION    CL-48179  22.264   3.961  13.026
75854ION    CL-48180  41.319  21.355   3.713
75855ION    CL-48181  35.430  23.058  14.174
75856ION    CL-48182  12.882  28.481   0.077
75857ION    CL-48183   1.574   8.614  14.035
75858ION    CL-48184  23.898   8.326  11.342
75859ION    CL-48185  30.406  19.260   3.837
75860ION    CL-48186   2.499   8.836   5.520
75861ION    CL-48187  34.588  26.266   3.471
75862ION    CL-48188  24.590   5.796   4.633
75863ION    CL-48189   1.739  15.268   5.036
75864ION    CL-48190  16.597  37.002   1.636
75865ION    CL-48191  20.332  26.561  14.042
75866ION    CL-48192  18.695   4.939   2.272
75867ION    CL-48193  16.294  14.582   1.766
75868ION    CL-48194  19.454   8.048   2.303
75869ION    CL-48195  43.060  16.215  12.668
75870ION    CL-48196  27.029  38.051   0.118
75871ION    CL-48197   6.632  17.124   2.885
75872ION    CL-48198  12.975  27.694  10.325
75873ION    CL-48199  38.925  34.272   1.235
75874ION    CL-48200  41.712   1.825   1.398
75875ION    CL-48201  19.011  16.561  13.720
75876ION    CL-48202  35.944  33.174   0.849
75877ION    CL-48203  18.375  15.389  11.994
75878ION    CL-48204   2.100   9.432   0.389
75879ION    CL-48205  41.830   1.881  13.100
75880ION    CL-48206  33.477  10.436  12.193
75881ION    CL-48207  15.820  24.156  12.008
75882ION    CL-48208  41.085   2.534  14.573
75883ION    CL-48209  13.752   8.119  13.121
75884ION    CL-48210   5.270   6.952   3.503
75885ION    CL-48211  25.501  11.654   0.699
75886ION    CL-48212  28.417  16.271   3.698
75887ION    CL-48213  20.207   2.557   4.123
75888ION    CL-48214   0.850  40.115   3.012
75889ION    CL-48215   1.876  44.826  13.603
75890ION    CL-48216  32.104  34.972   1.382
75891ION    CL-48217  39.110  29.490   2.845
75892ION    CL-48218  20.575  37.714  10.707
75893ION    CL-48219  36.912   1.115  12.382
75894ION    CL-48220  38.356  25.179  13.948
75895ION    CL-48221  11.024  33.215   4.938
75896ION    CL-48222   0.716  25.967  14.668
75897ION    CL-48223   0.230  17.335   3.864
75898ION    CL-48224  32.402  17.134  13.319
75899ION    CL-48225  32.811  44.761   2.217
75900ION    CL-48226  36.187  12.759   5.091
75901ION    CL-48227  19.407  25.975  13.874
75902ION    CL-48228  21.767   6.352  12.927
75903ION    CL-48229  42.968  43.332   2.640
75904ION    CL-48230  17.694  17.252   4.783
75905ION    CL-48231  18.745  30.432  11.945
75906ION    CL-48232  37.037  37.225  13.520
75907ION    CL-48233  36.964   0.127  12.190
75908ION    CL-48234  34.409  44.390   4.950
75909ION    CL-48235  18.084  44.934   0.936
75910ION    CL-48236  16.370  39.265  14.137
75911ION    CL-48237   4.072  33.530  14.543
75912ION    CL-48238  34.054  36.607   3.080
75913ION    CL-48239  38.093  39.010   2.708
75914ION    CL-48240   1.510  18.542  12.358
75915ION    CL-48241  44.631  42.833   4.063
75916ION    CL-48242   5.510   1.460  11.452
75917ION    CL-48243  19.480  21.509   2.913
75918ION    CL-48244  24.195  24.206  12.101
75919ION    CL-48245  33.530  29.550   3.685
75920ION    CL-48246   4.586  13.149  10.294
75921ION    CL-48247  27.895  11.179  14.922
75922ION    CL-48248  44.642  31.645  13.736
75923ION    CL-48249  28.651  11.863   0.604
75924ION    CL-48250  27.573  39.534   2.138
75925ION    CL-48251  10.090  25.955   4.007
75926ION    CL-48252   6.176  14.308  14.991
75927ION    CL-48253  12.970   0.612  12.555
75928ION    CL-48254  11.737  33.474   3.188
75929ION    CL-48255  27.631  40.840  12.767
75930ION    CL-48256  16.871   4.485  12.260
75931ION    CL-48257   2.057  28.166  13.046
75932ION    CL-48258   2.815  19.523  14.041
75933ION    CL-48259   5.428  32.138  13.387
75934ION    CL-48260  17.008  17.697  12.776
75935ION    CL-48261  40.234  29.405  14.019
75936ION    CL-48262  28.112  31.912  12.561
75937ION    CL-48263  36.659  20.910   4.256
75938ION    CL-48264  11.164  22.123   3.695
75939ION    CL-48265  41.205  22.436   1.295
75940ION    CL-48266   4.832  37.929  13.250
75941ION    CL-48267  28.778  26.117  13.383
75942ION    CL-48268  17.722  33.675  14.849
75943ION    CL-48269  20.135  34.657  11.163
75944ION    CL-48270   1.846  36.554   2.150
75945ION    CL-48271  25.625   3.721   0.811
75946ION    CL-48272  16.457   5.529  14.017
75947ION    CL-48273  39.743  29.557  12.236
75948ION    CL-48274  42.917  31.737  11.012
75949ION    CL-48275  28.778  27.505  12.231
75950ION    CL-48276  23.146  17.232   4.474
75951ION    CL-48277  25.441  13.132  11.956
75952ION    CL-48278  41.205  40.098  14.514
75953ION    CL-48279  27.812  25.871  13.309
75954ION    CL-48280  39.094  35.038   1.855
75955ION    CL-48281  12.058  27.942   1.241
75956ION    CL-48282  35.574   7.158  10.966
75957ION    CL-48283  23.009  16.422  13.063
75958ION    CL-48284  29.497  41.800   0.480
75959ION    CL-48285  36.580  38.427   4.165
75960ION    CL-48286   2.965   4.126  13.573
75961ION    CL-48287   1.262  44.755   3.769
75962ION    CL-48288  38.695   5.680   3.854
75963ION    CL-48289   4.814   3.226   0.720
75964ION    CL-48290  33.693   9.018  11.193
75965ION    CL-48291  41.028  42.292   4.510
75966ION    CL-48292  28.055  16.417   1.935
75967ION    CL-48293  15.427  28.623   2.855
75968ION    CL-48294  21.754   0.036   5.062
75969ION    CL-48295  18.240  26.460   3.612
75970ION    CL-48296  28.472   0.492  14.464
75971ION    CL-48297  37.547  41.248  14.847
75972ION    CL-48298  36.119  14.407  12.392
75973ION    CL-48299  33.802  44.973   5.039
75974ION    CL-48300  34.503  38.375   2.638
75975ION    CL-48301  32.363  22.536   1.790
75976ION    CL-48302  19.191  41.932  11.825
75977ION    CL-48303  18.563  11.324  10.643
75978ION    CL-48304   4.188  39.282  12.613
75979ION    CL-48305  43.697   8.746  14.171
75980ION    CL-48306  38.006   3.818   3.596
75981ION    CL-48307   4.399  18.382   3.333
75982ION    CL-48308  34.949  33.074  10.989
75983ION    CL-48309   7.249   5.782  11.914
75984ION    CL-48310  22.606   4.944   0.031
75985ION    CL-48311   5.354   1.411  13.776
75986ION    CL-48312  30.061  29.393   2.341
75987ION    CL-48313  12.744   6.960  14.330
75988ION    CL-48314  24.579  33.324  14.485
75989ION    CL-48315  43.782  43.783  14.341
75990ION    CL-48316  44.460   3.158  14.834
75991ION    CL-48317  12.313  41.946  12.092
75992ION    CL-48318  10.562  36.606   2.401
75993ION    CL-48319   0.329  10.108   0.305
75994ION    CL-48320  31.620   3.216   3.894
75995ION    CL-48321  22.942   9.934  12.582
75996ION    CL-48322  42.667  18.202  12.841
75997ION    CL-48323  33.194   0.514   2.865
75998ION    CL-48324  10.587  24.974   0.507
75999ION    CL-48325  40.797  30.174  13.715
76000ION    CL-48326  25.899  27.992   2.249
76001ION    CL-48327  27.586  11.940  13.722
76002ION    CL-48328   2.893  13.369   4.986
76003ION    CL-48329  27.134  22.976   1.880
76004ION    CL-48330  32.766  17.268   1.709
76005ION    CL-48331   1.554  26.520  12.380
76006ION    CL-48332  13.713  24.540  12.513
76007ION    CL-48333  21.785  25.488  14.407
76008ION    CL-48334  43.434  38.058  10.640
76009ION    CL-48335  44.371  10.495   3.620
76010ION    CL-48336   6.955  34.380   0.831
76011ION    CL-48337  25.819  13.882   0.027
76012ION    CL-48338   1.349  42.785   3.057
76013ION    CL-48339  23.542  20.646  12.121
76014ION    CL-48340  23.516  35.146  12.083
76015ION    CL-48341   4.985  26.211   1.985
76016ION    CL-48342   3.549  31.505   0.321
76017ION    CL-48343  15.010  15.229  14.740
76018ION    CL-48344   2.515   0.617  13.489
76019ION    CL-48345  16.889   4.561   1.433
76020ION    CL-48346   2.268  21.939   4.621
76021ION    CL-48347  43.746  29.877   4.832
76022ION    CL-48348  34.482  42.980   4.219
76023ION    CL-48349  20.821  19.814  11.744
76024ION    CL-48350   4.339  13.733   4.898
76025ION    CL-48351  40.864   2.770  13.245
76026ION    CL-48352  44.888  22.973  11.970
76027ION    CL-48353  22.599   2.323  12.014
76028ION    CL-48354  27.205  24.816   3.314
76029ION    CL-48355  18.784  36.462   0.927
76030ION    CL-48356  30.212   4.615  12.588
76031ION    CL-48357  39.048  33.257   2.584
76032ION    CL-48358  17.797  27.281   3.252
76033ION    CL-48359  43.976  25.685  14.477
76034ION    CL-48360   7.801  12.102  11.357
76035ION    CL-48361  37.974  26.572   1.509
76036ION    CL-48362  40.045   4.985   0.231
76037ION    CL-48363  25.989  25.035   2.040
76038ION    CL-48364   8.899  34.656  12.012
76039ION    CL-48365  13.323  19.222  11.568
76040ION    CL-48366  35.951  19.101  11.887
76041ION    CL-48367   8.640  29.431   5.065
76042ION    CL-48368  22.316   7.677   3.223
76043ION    CL-48369  15.312  24.390   3.131
76044ION    CL-48370   7.429  15.666  13.497
76045ION    CL-48371  12.002  20.051  14.915
76046ION    CL-48372  37.799  22.654  10.565
76047ION    CL-48373  35.067  12.385   2.156
76048ION    CL-48374  10.962  30.637  10.241
76049ION    CL-48375  25.745  28.859   1.187
76050ION    CL-48376  43.810  39.242  12.080
76051ION    CL-48377  24.806  28.395  13.783
76052ION    CL-48378  12.239  40.005  12.582
76053ION    CL-48379  41.440  15.009   4.678
76054ION    CL-48380  24.775   7.851  11.411
76055ION    CL-48381  35.026  29.624   2.345
76056ION    CL-48382  24.584  38.301  14.464
76057ION    CL-48383  22.506  10.550   4.128
76058ION    CL-48384   2.467  12.023   4.444
76059ION    CL-48385  33.739  28.547  10.713
76060ION    CL-48386  14.532   8.042  10.509
76061ION    CL-48387  24.264  19.399  12.368
76062ION    CL-48388  41.088   5.584   3.126
76063ION    CL-48389  25.589   2.969   2.715
76064ION    CL-48390  30.388   1.755   1.314
76065ION    CL-48391   2.702  37.154   2.844
76066ION    CL-48392  43.882  33.962  10.986
76067ION    CL-48393  29.672  41.743  13.075
76068ION    CL-48394   8.703  21.572   1.839
76069ION    CL-48395  10.324  19.468   3.258
76070ION    CL-48396   6.171  21.766  13.312
76071ION    CL-48397   5.678   4.663   4.422
76072ION    CL-48398  20.480   3.101  14.624
76073ION    CL-48399  19.269  39.779  11.372
76074ION    CL-48400  42.283  19.422   3.069
76075ION    CL-48401  44.582   5.092   4.582
76076ION    CL-48402  38.121  11.747  10.648
76077ION    CL-48403  39.716  39.343  11.432
76078ION    CL-48404   8.949  10.627   1.020
76079ION    CL-48405  43.264  27.975  13.621
76080ION    CL-48406  39.555  10.854   1.675
76081ION    CL-48407  35.218  26.057  11.579
76082ION    CL-48408   1.271  12.598  14.428
76083ION    CL-48409  40.510  30.779   4.385
76084ION    CL-48410  16.972  25.077   1.812
76085ION    CL-48411  19.656  19.437   2.422
76086ION    CL-48412   9.838  26.089  12.544
76087ION    CL-48413  33.507  12.373   5.097
76088ION    CL-48414  43.256  33.834  14.050
76089ION    CL-48415  30.989  37.967  10.653
76090ION    CL-48416  41.858  22.197   3.717
76091ION    CL-48417  44.522  25.114  13.865
76092ION    CL-48418   7.604   1.092   2.358
76093ION    CL-48419  37.111  10.824   2.818
76094ION    CL-48420  30.899  32.327   1.187
76095ION    CL-48421  17.835  27.729   4.145
76096ION    CL-48422  37.539  23.267   0.095
76097ION    CL-48423  33.623   4.168  12.072
76098ION    CL-48424  33.918  43.001  10.285
76099ION    CL-48425   0.775  19.400  11.207
76100ION    CL-48426  12.395  11.732   3.486
76101ION    CL-48427  23.426  31.492  14.862
76102ION    CL-48428  32.020  11.871  13.531
76103ION    CL-48429   8.882  12.096  10.928
76104ION    CL-48430  17.347  33.146   0.424
76105ION    CL-48431   1.196  26.313  11.561
76106ION    CL-48432  34.596  31.227  14.970
76107ION    CL-48433  28.425  34.642  12.470
76108ION    CL-48434  12.582  23.001  14.784
76109ION    CL-48435   3.097  37.486   0.708
76110ION    CL-48436   3.479  38.642   3.211
76111ION    CL-48437   0.526  37.797   0.429
76112ION    CL-48438  12.554  30.731  11.205
76113ION    CL-48439  28.743  13.997  14.478
76114ION    CL-48440  26.975  17.262   3.275
76115ION    CL-48441  34.762  32.839  12.960
76116ION    CL-48442   7.169   6.751   1.425
76117ION    CL-48443  27.746   3.897   3.707
76118ION    CL-48444  28.244  41.879   5.035
76119ION    CL-48445   9.466  27.954   3.101
76120ION    CL-48446  17.742   2.848   4.787
76121ION    CL-48447  27.627   3.085  14.733
76122ION    CL-48448  34.373   5.768   1.678
76123ION    CL-48449  44.096   7.687   4.174
76124ION    CL-48450  12.711  44.817   0.220
76125ION    CL-48451  44.276  23.611  11.503
76126ION    CL-48452   2.971  29.951  14.539
76127ION    CL-48453  34.833   5.310  14.380
76128ION    CL-48454  36.736  40.758   4.059
76129ION    CL-48455  29.935  25.881   3.432
76130ION    CL-48456   2.652  40.789   3.061
76131ION    CL-48457  12.705   7.677   3.704
76132ION    CL-48458  18.579  16.046   0.848
76133ION    CL-48459   3.148   5.960   1.238
76134ION    CL-48460   2.253  10.712  11.929
76135ION    CL-48461  17.584   0.303   4.622
76136ION    CL-48462  33.840  38.448  13.459
76137ION    CL-48463   9.614  26.717   5.049
76138ION    CL-48464   8.265  33.107  14.517
76139ION    CL-48465   9.315  29.493  12.638
76140ION    CL-48466  11.656  36.796  10.742
76141ION    CL-48467  30.333  27.697  10.996
76142ION    CL-48468   4.968  35.480  11.503
76143ION    CL-48469  28.365  37.319  12.986
76144ION    CL-48470  38.704  13.864   3.050
76145ION    CL-48471  11.156  25.993   3.813
76146ION    CL-48472  16.098  17.748  10.863
76147ION    CL-48473  16.082  30.366   1.786
76148ION    CL-48474  21.431  25.177   3.769
76149ION    CL-48475  33.134  13.692  13.870
76150ION    CL-48476  17.588  32.999   1.383
76151ION    CL-48477  33.490  43.312  14.269
76152ION    CL-48478  25.628  20.883  14.139
76153ION    CL-48479  39.634   1.283  13.743
76154ION    CL-48480  23.997  15.404  12.639
76155ION    CL-48481   7.773   7.728  14.101
76156ION    CL-48482  35.315  11.383  10.653
76157ION    CL-48483   0.265   5.437   0.638
76158ION    CL-48484   1.664  40.693   3.192
76159ION    CL-48485  31.728  10.109  13.308
76160ION    CL-48486   4.882  21.253   2.716
76161ION    CL-48487   1.295  39.789  11.596
76162ION    CL-48488  27.836  35.051  14.006
76163ION    CL-48489   0.842  36.952  10.413
76164ION    CL-48490  17.677  12.255  11.244
76165ION    CL-48491   5.436  13.364  10.827
76166ION    CL-48492  24.228  26.026   3.114
76167ION    CL-48493  26.703  25.344  12.628
76168ION    CL-48494   3.930  41.802  12.079
76169ION    CL-48495  24.927  28.135   2.439
76170ION    CL-48496  42.767   8.604  13.561
76171ION    CL-48497  17.876  23.831  14.997
76172ION    CL-48498  21.137  16.133  10.663
76173ION    CL-48499  14.642  11.953  14.546
76174ION    CL-48500  23.055  33.969  14.780
76175ION    CL-48501  13.313  23.516  11.616
76176ION    CL-48502  37.575  30.403   1.796
76177ION    CL-48503  43.126  44.632   1.214
76178ION    CL-48504   5.877  22.404  12.804
76179ION    CL-48505  31.917  13.586   4.920
76180ION    CL-48506   7.836   0.941   0.203
76181ION    CL-48507  41.774   3.384   3.406
76182ION    CL-48508   9.226  43.402  11.625
76183ION    CL-48509  38.924  31.971   0.944
76184ION    CL-48510  13.348  18.893   3.096
76185ION    CL-48511  15.304  35.387  14.500
76186ION    CL-48512  18.813  24.126   0.503
76187ION    CL-48513  17.640  43.173  12.130
76188ION    CL-48514   0.981  10.712  13.737
76189ION    CL-48515  14.025   5.454  11.933
76190ION    CL-48516  34.527   4.877  11.620
76191ION    CL-48517  43.297  42.549  12.983
76192ION    CL-48518  27.850  20.210   5.093
76193ION    CL-48519   3.753  19.866  11.694
76194ION    CL-48520  26.798  41.587  13.655
76195ION    CL-48521  18.651  14.097   0.893
76196ION    CL-48522  16.361  25.033  12.747
76197ION    CL-48523  44.485  44.875  11.116
76198ION    CL-48524  18.042  27.835  11.120
76199ION    CL-48525  44.464   3.927   3.776
76200ION    CL-48526  24.214  29.153  14.839
76201ION    CL-48527   9.726  17.125   0.245
76202ION    CL-48528  41.772  24.183  14.904
76203ION    CL-48529  34.869  23.598   9.726
76204ION    CL-48530  38.588  40.073  10.975
76205ION    CL-48531  17.347  43.672   0.617
76206ION    CL-48532  11.291  14.911   1.761
76207ION    CL-48533  10.613   7.527   4.165
76208ION    CL-48534   1.716  21.184  14.851
76209ION    CL-48535  17.695   3.509   2.179
76210ION    CL-48536  29.837  35.721  12.641
76211ION    CL-48537  21.620  32.635   3.688
76212ION    CL-48538  27.688  11.799   3.227
76213ION    CL-48539  25.026   3.923  13.400
76214ION    CL-48540  20.683   8.345  14.927
76215ION    CL-48541  21.748  24.012  13.012
76216ION    CL-48542  15.522  25.566  11.995
76217ION    CL-48543  38.131  15.274   2.717
76218ION    CL-48544  32.023   5.477  14.862
76219ION    CL-48545  27.302  43.222  13.832
76220ION    CL-48546   9.711  26.820  10.322
76221ION    CL-48547  25.931  40.059  11.919
76222ION    CL-48548  22.065  32.825   1.428
76223ION    CL-48549   0.525  20.595  11.575
76224ION    CL-48550  30.489  31.990  14.450
76225ION    CL-48551  13.258   1.539  14.112
76226ION    CL-48552  35.777  24.184   1.519
76227ION    CL-48553  13.273  13.170   2.860
76228ION    CL-48554   3.529   0.692   5.038
76229ION    CL-48555   8.567  25.470  12.350
76230ION    CL-48556   6.879  37.752  12.066
76231ION    CL-48557  12.731  36.797   3.821
76232ION    CL-48558   4.038   0.224  12.740
76233ION    CL-48559   2.633  13.088   5.490
76234ION    CL-48560  23.037   6.984  10.622
76235ION    CL-48561  21.067  31.427  11.218
76236ION    CL-48562   4.737  41.439  13.944
76237ION    CL-48563   5.024  37.161   4.160
76238ION    CL-48564   8.427  17.231  13.651
76239ION    CL-48565  32.154   2.512  13.004
76240ION    CL-48566  31.474   7.094   1.050
76241ION    CL-48567  23.663   8.316  10.460
76242ION    CL-48568  37.360   5.656  11.820
76243ION    CL-48569   0.073  15.786  10.613
76244ION    CL-48570  19.663  17.041  14.916
76245ION    CL-48571   9.756  37.480   0.996
76246ION    CL-48572  14.393   7.208  14.024
76247ION    CL-48573  37.772   1.242  14.391
76248ION    CL-48574   0.638  28.425   0.236
76249ION    CL-48575  37.446   9.460   1.532
76250ION    CL-48576   9.897   7.835   1.888
76251ION    CL-48577  34.711  41.113  10.439
76252ION    CL-48578  32.977   9.708   3.870
76253ION    CL-48579  24.296  16.590  14.952
76254ION    CL-48580   4.348   2.728  14.319
76255ION    CL-48581  10.819  24.012  14.544
76256ION    CL-48582  11.546   3.629   9.669
76257ION    CL-48583  36.229  40.205   4.857
76258ION    CL-48584  43.702  43.584  11.583
76259ION    CL-48585   7.877  40.585   2.677
76260ION    CL-48586   1.009  38.564  11.291
76261ION    CL-48587   5.500  44.771  13.305
76262ION    CL-48588  17.613  40.352   0.701
76263ION    CL-48589   0.312  23.463   1.925
76264ION    CL-48590  10.726  29.596   4.121
76265ION    CL-48591  23.625  14.343  14.743
76266ION    CL-48592  27.365  23.357   0.391
76267ION    CL-48593   5.846   6.677   4.325
76268ION    CL-48594  43.044  43.655   1.697
76269ION    CL-48595  18.878  16.546   4.955
76270ION    CL-48596  17.686  34.613  12.973
76271ION    CL-48597  13.654  17.820  14.985
76272ION    CL-48598  31.496   0.166  12.995
76273ION    CL-48599  31.873  23.219   2.373
76274ION    CL-48600   2.606  43.639  11.030
76275ION    CL-48601  39.967   7.512   2.524
76276ION    CL-48602  16.612   6.819   2.794
76277ION    CL-48603   2.788  32.405  14.721
76278ION    CL-48604  28.803  30.262   2.692
76279ION    CL-48605  35.162  43.899  12.597
76280ION    CL-48606   9.271  13.496  12.792
76281ION    CL-48607  27.649   6.674  12.047
76282ION    CL-48608  41.933   0.972  13.819
76283ION    CL-48609  19.368  38.855   3.248
76284ION    CL-48610  42.757  19.060  13.346
76285ION    CL-48611  42.796  26.368  11.279
76286ION    CL-48612  24.465   2.806   1.665
76287ION    CL-48613  16.641  25.947   4.778
76288ION    CL-48614  11.701  11.652  12.807
76289ION    CL-48615   0.075  30.948  14.392
76290ION    CL-48616  11.772  43.018   3.298
76291ION    CL-48617  13.009  22.579  10.732
76292ION    CL-48618  13.487   1.935   4.986
76293ION    CL-48619  28.475  33.372   5.126
76294ION    CL-48620  14.826  26.762  12.953
76295ION    CL-48621  34.535  26.813  11.931
76296ION    CL-48622  16.178  42.280  14.799
76297ION    CL-48623  39.328   2.675  10.431
76298ION    CL-48624   0.630   2.208  13.457
76299ION    CL-48625  35.135  27.733   0.855
76300ION    CL-48626  29.591  25.359   0.326
76301ION    CL-48627  27.145  40.484   3.301
76302ION    CL-48628  42.463   4.246  14.974
76303ION    CL-48629  24.646  42.011  11.585
76304ION    CL-48630  20.914  11.231   3.720
76305ION    CL-48631  22.323   4.706  12.088
76306ION    CL-48632  20.160  19.699  10.999
76307ION    CL-48633   4.492  30.369  11.091
76308ION    CL-48634   2.924   5.611  12.796
76309ION    CL-48635  26.092  25.442   1.039
76310ION    CL-48636  17.525   5.301   0.440
76311ION    CL-48637  22.028  18.125   1.742
76312ION    CL-48638  23.751   2.500  14.880
76313ION    CL-48639  44.488  22.663   1.287
76314ION    CL-48640  13.354  34.832  12.510
76315ION    CL-48641   5.017  20.888  14.577
76316ION    CL-48642  18.590  26.187   0.659
76317ION    CL-48643  14.127  37.936  12.400
76318ION    CL-48644  25.874   6.750   3.162
76319ION    CL-48645  31.917  40.904   2.071
76320ION    CL-48646  12.651   7.430   0.519
76321ION    CL-48647  32.166  25.240   5.168
76322ION    CL-48648  11.268  19.596  14.609
76323ION    CL-48649  40.342  19.668   3.132
76324ION    CL-48650  18.813  32.153   3.772
76325ION    CL-48651   5.782  10.113   3.710
76326ION    CL-48652  43.317  15.896   9.760
76327ION    CL-48653   8.417   0.392  13.916
76328ION    CL-48654  29.465   0.325  13.483
76329ION    CL-48655  24.630  43.574   4.214
76330ION    CL-48656   6.652   4.947   4.162
76331ION    CL-48657  41.903  43.226  13.527
76332ION    CL-48658  13.932  33.327   5.520
76333ION    CL-48659   5.335  34.124   1.110
76334ION    CL-48660  43.709  13.640   1.277
76335ION    CL-48661   2.337  44.342  14.346
76336ION    CL-48662  39.834  18.520  11.046
76337ION    CL-48663  24.696  31.173   0.635
76338ION    CL-48664   7.668  35.645   2.331
76339ION    CL-48665  14.378  21.129  13.476
76340ION    CL-48666  42.314  35.515   1.465
76341ION    CL-48667   7.353   2.269   0.276
76342ION    CL-48668   3.734  17.626  11.477
76343ION    CL-48669   0.276  21.154   3.223
76344ION    CL-48670   7.746  14.923  11.220
76345ION    CL-48671  21.396  40.623   2.184
76346ION    CL-48672   0.892  27.715   0.765
76347ION    CL-48673  13.855  13.935   2.585
76348ION    CL-48674   5.515  22.289   3.909
76349ION    CL-48675  19.436  13.897   1.549
76350ION    CL-48676  31.736  36.617  14.106
76351ION    CL-48677   0.702  16.294  13.484
76352ION    CL-48678   6.397  18.772  11.424
76353ION    CL-48679   9.771  44.898   4.441
76354ION    CL-48680  27.107   6.721   0.418
76355ION    CL-48681   4.866  42.552   0.521
76356ION    CL-48682  28.784  20.049   0.245
76357ION    CL-48683  29.178  26.893  11.012
76358ION    CL-48684   7.545  13.828   3.940
76359ION    CL-48685  41.483  26.836   0.948
76360ION    CL-48686   1.767  41.895  10.901
76361ION    CL-48687  40.365  14.954   2.255
76362ION    CL-48688  42.807  34.839  14.799
76363ION    CL-48689  11.761  24.367  13.614
76364ION    CL-48690   7.479  21.123   4.563
76365ION    CL-48691  25.505  22.277   2.852
76366ION    CL-48692   7.415  11.893   4.952
76367ION    CL-48693  17.624  33.845  13.611
76368ION    CL-48694   8.618  14.284  12.900
76369ION    CL-48695  24.163   1.407  13.510
76370ION    CL-48696  36.608   1.252   3.333
76371ION    CL-48697   5.244  21.365   3.641
76372ION    CL-48698   2.055  42.978  11.272
76373ION    CL-48699   4.646  43.878   0.243
76374ION    CL-48700  28.997  20.979  14.943
76375ION    CL-48701  40.273  33.268  14.417
76376ION    CL-48702   8.027  29.292   3.024
76377ION    CL-48703  10.296   7.617   0.719
76378ION    CL-48704  15.672   5.643   0.369
76379ION    CL-48705  39.360  21.048  14.383
76380ION    CL-48706  23.440  26.964   2.817
76381ION    CL-48707  28.533  16.398  12.419
76382ION    CL-48708  17.643  25.808  10.411
76383ION    CL-48709  38.822  35.714   5.244
76384ION    CL-48710  30.042  21.560  14.850
76385ION    CL-48711  39.588  32.359   4.051
76386ION    CL-48712  12.225  28.153  13.872
  45.00000  45.00000  15.00000
